FOO
138240
    1MOL0     O    1   6.096   6.329   3.465 -0.1479 -0.2081  0.5970
    1MOL0     C    2   6.101   6.289   3.352 -1.2099 -1.1062 -0.2839
    1MOL0     O    3   6.006   6.218   3.296  0.0378 -0.0410  0.4266
    1MOL0     C    4   5.880   6.192   3.355 -0.7879  0.5649 -0.3013
    1MOL0     C    5   5.804   6.109   3.281  0.0707 -0.8404  1.2189
    1MOL0     C    6   5.671   6.078   3.313  0.3809  0.8985 -0.6085
    1MOL0     C    7   5.611   6.119   3.429  0.2059  0.2068  0.9463
    1MOL0     O    8   5.488   6.085   3.484 -0.5823 -0.2790 -0.2675
    1MOL0     C    9   5.421   5.963   3.427 -0.1683  0.2851 -0.8668
    1MOL0     C   10   5.315   6.006   3.328  0.8002  0.1523  0.2222
    1MOL0     C   11   5.212   6.103   3.406 -0.5034 -0.1372  0.1716
    1MOL0     C   12   5.074   6.101   3.331  0.9049  0.3219  0.2894
    1MOL0     C   13   4.989   5.974   3.352 -0.4873 -0.5030  0.5731
    1MOL0     C   14   4.905   5.997   3.475  0.7084  0.1386 -0.0177
    1MOL0     C   15   4.772   5.929   3.470 -0.3104 -0.6019  0.9709
    1MOL0     C   16   4.782   5.772   3.414  0.1961  0.4270  0.2123
    1MOL0     N   17   4.899   5.696   3.465  0.2893 -0.3879 -0.1570
    1MOL0     C   18   4.980   5.625   3.384  0.8484  0.9103  0.3806
    1MOL0     C   19   5.040   5.534   3.465  0.6682 -1.4432  0.0597
    1MOL0     C   20   5.141   5.437   3.419 -0.7407 -0.1365  0.2598
    1MOL0     C   21   5.260   5.504   3.344 -0.3732  0.0747 -0.0563
    1MOL0     C   22   5.336   5.605   3.438 -0.0511 -0.1546 -0.0875
    1MOL0     C   23   5.403   5.544   3.552  0.1070 -0.2133  0.4252
    1MOL0     O   24   5.486   5.643   3.624 -0.1117 -0.3101 -0.3479
    1MOL0     C   25   5.607   5.686   3.574 -0.3933 -0.0310  0.5053
    1MOL0     C   26   5.669   5.633   3.458 -0.1911 -0.4738  0.8614
    1MOL0     C   27   5.785   5.686   3.409 -0.4534 -0.1348 -0.0428
    1MOL0     C   28   5.853   5.796   3.464  0.4073 -0.2375 -0.4265
    1MOL0     C   29   5.973   5.850   3.408 -0.7383  0.5854 -0.0600
    1MOL0     O   30   6.005   5.823   3.276 -0.3019  0.7080  0.1149
    1MOL0     C   31   6.124   5.857   3.215 -0.5420 -0.0063  0.5040
    1MOL0     C   32   6.249   5.834   3.265 -0.0346 -0.4175 -0.4935
    1MOL0     C   33   6.357   5.855   3.179 -0.8895 -0.1477 -1.1364
    1MOL0     C   34   6.347   5.895   3.054  0.4220 -0.5851 -0.0988
    1MOL0     O   35   6.469   5.922   2.992  0.3267 -0.0941  0.3070
    1MOL0     C   36   6.462   5.947   2.852  0.1006  0.5495 -0.7944
    1MOL0     C   37   6.600   5.972   2.798  0.3382 -0.0352 -0.5260
    1MOL0     C   38   6.591   5.971   2.649 -0.2064 -0.2139  0.4976
    1MOL0     C   39   6.722   5.976   2.592 -0.6108  0.4796 -0.3531
    1MOL0     C   40   6.718   5.946   2.439  0.3349 -0.6933  0.8984
    1MOL0     C   41   6.847   5.998   2.362 -0.0525  0.4775 -0.4337
    1MOL0     C   42   6.979   5.925   2.386  0.7381  0.0354 -1.5711
    1MOL0     C   43   7.065   5.897   2.270 -0.2091 -1.0483  0.4423
    1MOL0    Cl   44   7.189   5.769   2.312 -0.2384  0.1807  0.0031
    1MOL0     C   45   6.221   5.915   2.994 -1.2078  0.0487 -0.0464
    1MOL0     C   46   6.115   5.896   3.075  0.4540  0.2922 -1.1611
    1MOL0     O   47   6.041   5.918   3.480 -0.0417  0.1136 -0.3811
    1MOL0     C   48   5.789   5.853   3.577  0.7240  0.4351 -0.2815
    1MOL0     C   49   5.669   5.798   3.628 -0.1506  0.0194 -0.1676
    1MOL0     N   50   4.990   5.550   3.596  0.0003  0.0801  0.2904
    1MOL0     N   51   4.904   5.654   3.594 -0.0040 -0.1709 -0.8023
    1MOL0     C   52   5.687   6.212   3.503  0.2904  0.1994 -0.6610
    1MOL0     C   53   5.814   6.252   3.472 -0.9717  0.1984  0.0697
    1MOL0     C   54   6.226   6.331   3.273 -0.5204 -0.1472 -0.1686
    1MOL0     C   55   6.292   6.224   3.215 -0.8626 -0.1544 -0.3745
    1MOL0     C   56   6.403   6.244   3.134  0.0103 -0.5201  0.3563
    1MOL0     C   57   6.463   6.379   3.128 -0.5164 -0.1640 -0.7470
    1MOL0     O   58   6.582   6.393   3.057 -0.7123  0.0852  0.0235
    1MOL0     C   59   6.644   6.520   3.031  0.2764 -0.3643  0.0388
    1MOL0     C   60   6.745   6.547   3.139 -1.0093 -0.9055 -0.6755
    1MOL0     C   61   6.835   6.667   3.112  0.5500  0.1657 -0.6247
    1MOL0     C   62   6.935   6.648   2.997 -0.2802 -0.7480  0.0494
    1MOL0     C   63   7.036   6.546   3.032  1.0176  0.2670  0.1253
    1MOL0     C   64   7.125   6.473   3.078  0.2005  0.8302 -0.0936
    1MOL0     C   65   6.394   6.481   3.192 -0.2677 -0.4299  0.5869
    1MOL0     C   66   6.281   6.459   3.263  0.1967  0.5331  0.2578
    1MOL0     C   67   6.221   6.587   3.333 -0.1805 -0.3281  0.0468
    1MOL0     H   68   5.843   6.049   3.199 -1.2562 -1.1168  0.7704
    1MOL0     H   69   5.618   6.007   3.250  2.0613 -1.8315  0.9036
    1MOL0     H   70   5.493   5.900   3.375 -0.4015 -0.8888  0.1909
    1MOL0     H   71   5.382   5.903   3.509  1.8375 -0.6291 -0.5313
    1MOL0     H   72   5.266   5.920   3.280  2.5303 -0.7762  0.0481
    1MOL0     H   73   5.359   6.066   3.248  0.0926  0.6583  0.1960
    1MOL0     H   74   5.243   6.208   3.401  0.4878 -0.4454 -0.7059
    1MOL0     H   75   5.209   6.074   3.511  2.6308 -0.6477  0.2260
    1MOL0     H   76   5.019   6.191   3.359 -3.6242 -1.7577 -1.0174
    1MOL0     H   77   5.081   6.114   3.223 -2.6910  2.9304  0.2102
    1MOL0     H   78   4.929   5.958   3.262  0.6533 -2.7594  0.1294
    1MOL0     H   79   5.050   5.884   3.359  1.1241  0.6138  1.4519
    1MOL0     H   80   4.953   5.965   3.568  0.4341  2.2611  0.9041
    1MOL0     H   81   4.886   6.104   3.482  1.0343  0.1973  0.0116
    1MOL0     H   82   4.699   5.987   3.412 -0.8886 -0.7559  1.5223
    1MOL0     H   83   4.743   5.924   3.575  2.2302 -0.2230  1.7460
    1MOL0     H   84   4.692   5.728   3.459 -0.7738  1.0531 -1.0602
    1MOL0     H   85   4.782   5.772   3.305  2.1219  2.1455  0.1478
    1MOL0     H   86   4.999   5.635   3.278 -3.2898  0.8660 -0.5357
    1MOL0     H   87   5.173   5.376   3.504  0.0290 -0.2048 -0.0724
    1MOL0     H   88   5.099   5.367   3.346 -0.7508 -0.6245  0.7211
    1MOL0     H   89   5.314   5.415   3.311 -2.2995 -0.0568 -3.2839
    1MOL0     H   90   5.236   5.552   3.249  1.6399 -1.3181 -1.3347
    1MOL0     H   91   5.270   5.683   3.475  1.7874 -0.2614  3.8594
    1MOL0     H   92   5.418   5.649   3.379  1.7558 -1.5588  1.2631
    1MOL0     H   93   5.462   5.462   3.509  0.1497 -0.0448  0.1573
    1MOL0     H   94   5.333   5.489   3.615 -2.8469  1.3759 -1.2255
    1MOL0     H   95   5.623   5.554   3.401  2.2896 -1.1233 -0.3849
    1MOL0     H   96   5.816   5.658   3.308  3.6498  0.2595  0.9305
    1MOL0     H   97   6.257   5.802   3.368  2.0295 -0.0893 -0.5046
    1MOL0     H   98   6.452   5.824   3.221 -1.7000 -0.4854  0.4873
    1MOL0     H   99   6.420   5.863   2.795 -0.9986  1.1731 -0.9419
    1MOL0     H  100   6.401   6.034   2.824 -0.2412  0.8077  0.6618
    1MOL0     H  101   6.636   6.067   2.839 -1.2401  1.0116 -1.4124
    1MOL0     H  102   6.667   5.889   2.822 -0.2923 -1.4299 -3.1583
    1MOL0     H  103   6.550   5.873   2.621  2.1138 -1.0604 -0.1109
    1MOL0     H  104   6.538   6.057   2.607  3.6827  0.6611 -3.3197
    1MOL0     H  105   6.778   5.896   2.642  0.8075  1.8127  0.2797
    1MOL0     H  106   6.757   6.071   2.632 -0.1040  0.5475 -0.9359
    1MOL0     H  107   6.629   5.996   2.399 -0.1276 -0.9487  1.5834
    1MOL0     H  108   6.699   5.840   2.419 -1.7659  0.1382 -2.2476
    1MOL0     H  109   6.826   5.984   2.255  1.5257 -2.2147 -0.4660
    1MOL0     H  110   6.860   6.105   2.380  0.9461  0.4535 -0.9664
    1MOL0     H  111   6.947   5.825   2.419 -2.4231  1.7145  1.0734
    1MOL0     H  112   7.029   5.976   2.469  0.2139  0.9860 -1.8341
    1MOL0     H  113   7.019   5.864   2.176  1.1787  2.6184 -1.7497
    1MOL0     H  114   7.119   5.989   2.250  0.6931 -1.5871  0.3206
    1MOL0     H  115   6.207   5.940   2.889 -2.6779 -1.0142 -0.1366
    1MOL0     H  116   6.020   5.897   3.023  1.1464  0.1290 -2.4704
    1MOL0     H  117   5.835   5.940   3.623  0.3249  0.3685  0.2566
    1MOL0     H  118   5.630   5.841   3.719  1.8530  0.4249  0.5354
    1MOL0     H  119   5.652   6.264   3.592  1.6572  2.7949 -1.5213
    1MOL0     H  120   5.872   6.313   3.539 -0.5720 -1.6363  1.4618
    1MOL0     H  121   6.245   6.126   3.226  2.8524 -1.9583  1.2272
    1MOL0     H  122   6.452   6.158   3.089 -0.6691 -1.1823  0.8445
    1MOL0     H  123   6.565   6.595   3.017 -0.2398 -1.2414 -1.9261
    1MOL0     H  124   6.701   6.503   2.939  0.2317 -2.0969  0.3030
    1MOL0     H  125   6.802   6.459   3.170  1.6818  1.0381  0.3049
    1MOL0     H  126   6.683   6.566   3.227  0.2643 -1.2298  0.3237
    1MOL0     H  127   6.897   6.682   3.201  2.8636  0.0995 -2.1429
    1MOL0     H  128   6.769   6.752   3.093  0.7606 -0.1571 -3.1462
    1MOL0     H  129   6.893   6.625   2.899 -0.4261  0.2899 -0.1448
    1MOL0     H  130   6.992   6.741   2.995 -0.7031 -0.3413  3.0000
    1MOL0     H  131   7.200   6.404   3.112 -0.3893  1.7764  3.6132
    1MOL0     H  132   6.414   6.586   3.175 -4.1264  0.7073  2.0267
    1MOL0     H  133   6.274   6.626   3.420  3.7833 -1.3513 -1.7067
    1MOL0     H  134   6.215   6.661   3.252 -3.6585  0.7826  1.1164
    1MOL0     H  135   6.115   6.579   3.361 -0.3886 -0.6288 -0.7786
    2MOL0     O  136   4.730   7.477   1.467  0.7572 -0.1041  0.2578
    2MOL0     C  137   4.706   7.426   1.354  1.1507 -0.1591 -0.2979
    2MOL0     O  138   4.798   7.378   1.268  0.4650 -0.2447 -0.2772
    2MOL0     C  139   4.924   7.379   1.312 -0.2695 -0.1577  0.2462
    2MOL0     C  140   4.996   7.506   1.312 -0.3709  0.1378 -0.0345
    2MOL0     C  141   5.133   7.507   1.317 -0.4652  0.4114 -0.8371
    2MOL0     C  142   5.205   7.388   1.331  0.3170  0.2217 -0.3980
    2MOL0     O  143   5.340   7.412   1.351  0.2931  0.4242  0.8546
    2MOL0     C  144   5.411   7.295   1.377 -0.4275  1.5198  1.1374
    2MOL0     C  145   5.560   7.308   1.384 -0.6671  0.4975  1.1073
    2MOL0     C  146   5.624   7.363   1.251 -0.7919 -0.1273  0.2346
    2MOL0     C  147   5.778   7.328   1.242  0.0956  1.0728  0.2204
    2MOL0     C  148   5.838   7.390   1.107 -0.1865  0.3212 -0.2296
    2MOL0     C  149   5.992   7.355   1.099  0.3505 -0.1901 -0.1393
    2MOL0     C  150   6.053   7.411   0.963  0.7271  0.0314 -0.3360
    2MOL0     C  151   6.202   7.428   1.000  0.5661  0.5425  0.2409
    2MOL0     N  152   6.261   7.511   0.893  0.1964 -0.0667  0.2612
    2MOL0     C  153   6.263   7.481   0.756  0.6456  0.1354  0.3158
    2MOL0     C  154   6.318   7.600   0.703  0.1171 -0.1666 -0.0494
    2MOL0     C  155   6.345   7.612   0.546  0.3486 -0.8596  0.2565
    2MOL0     C  156   6.492   7.647   0.500 -0.3321  0.7004 -0.5969
    2MOL0     C  157   6.597   7.551   0.551 -0.8667  1.0472 -1.0401
    2MOL0     C  158   6.741   7.608   0.540  0.1526  0.5986 -0.4915
    2MOL0     O  159   6.757   7.642   0.402  1.1252  0.3095  0.1006
    2MOL0     C  160   6.871   7.695   0.360  0.4430 -0.4006 -0.2007
    2MOL0     C  161   6.877   7.779   0.244  0.1198  1.0739  0.0912
    2MOL0     C  162   6.995   7.841   0.202 -0.1770  0.1194 -0.0492
    2MOL0     C  163   7.119   7.821   0.276  0.1070  0.2699 -0.5711
    2MOL0     C  164   7.245   7.890   0.234 -0.0095 -0.3479 -1.0908
    2MOL0     O  165   7.370   7.837   0.270  0.5918 -0.5116 -0.2425
    2MOL0     C  166   7.472   7.919   0.280  0.5046 -0.4779  0.3028
    2MOL0     C  167   7.600   7.856   0.295  0.1339 -0.0757  0.1682
    2MOL0     C  168   7.716   7.926   0.307  0.2097 -0.3634  0.7694
    2MOL0     C  169   7.708   8.067   0.289 -0.3000 -0.8821  0.4180
    2MOL0     O  170   7.815   8.152   0.295 -0.1243 -0.8187 -0.8598
    2MOL0     C  171   7.948   8.096   0.316 -0.7806 -1.2985  0.5486
    2MOL0     C  172   8.043   8.211   0.345  0.4851  0.9198  0.4100
    2MOL0     C  173   8.112   8.261   0.215  0.0547  0.7731 -0.0163
    2MOL0     C  174   8.226   8.172   0.180 -0.1057 -0.3218 -0.2307
    2MOL0     C  175   8.346   8.191   0.278 -1.0583 -0.3032 -1.0092
    2MOL0     C  176   8.485   8.179   0.202  1.1623  0.9125 -0.0586
    2MOL0     C  177   8.600   8.230   0.291 -0.1360  0.2023 -0.2080
    2MOL0     C  178   8.735   8.199   0.220 -0.0699  0.1443 -0.4090
    2MOL0    Cl  179   8.862   8.285   0.314  0.0641 -0.2073  0.1998
    2MOL0     C  180   7.582   8.129   0.271 -0.4102  0.2110  0.5409
    2MOL0     C  181   7.467   8.060   0.269 -0.0236  0.1318  0.6860
    2MOL0     O  182   7.225   7.981   0.154  0.6022 -0.2462  0.1523
    2MOL0     C  183   7.116   7.729   0.385 -0.7331  0.1381  0.2123
    2MOL0     C  184   6.997   7.666   0.424 -0.0208 -0.1087 -0.3627
    2MOL0     N  185   6.357   7.687   0.801  0.4504  0.4847  0.8235
    2MOL0     N  186   6.313   7.634   0.914 -1.0853 -0.1142 -0.2191
    2MOL0     C  187   5.142   7.264   1.323  0.2908  0.1137 -0.7350
    2MOL0     C  188   5.003   7.261   1.315  0.1180 -0.7269 -0.4066
    2MOL0     C  189   4.566   7.432   1.305 -0.7166  0.3726 -0.0482
    2MOL0     C  190   4.539   7.386   1.174 -0.2716  0.9535 -0.8326
    2MOL0     C  191   4.408   7.382   1.128 -0.8410  0.6630  0.0024
    2MOL0     C  192   4.291   7.422   1.201  0.0565  0.6079 -0.2912
    2MOL0     O  193   4.166   7.393   1.150 -0.1922  0.2113  0.4058
    2MOL0     C  194   4.063   7.373   1.242 -0.1093  0.3598 -0.3864
    2MOL0     C  195   3.931   7.395   1.174 -0.0473  0.0781  0.2425
    2MOL0     C  196   3.878   7.299   1.070 -0.3528 -0.0702 -0.3906
    2MOL0     C  197   3.787   7.187   1.125 -1.3968  0.9435 -0.4270
    2MOL0     C  198   3.751   7.103   1.016 -0.3345  0.6754 -0.2429
    2MOL0     C  199   3.723   7.018   0.934  0.0682  0.5137  0.3048
    2MOL0     C  200   4.329   7.483   1.319  0.6481 -1.0071 -0.6936
    2MOL0     C  201   4.453   7.485   1.374 -0.9185  0.0953 -0.4142
    2MOL0     C  202   4.465   7.549   1.510 -0.1379 -0.2307  0.3681
    2MOL0     H  203   4.933   7.594   1.299 -3.5114 -1.3421  3.5135
    2MOL0     H  204   5.193   7.597   1.305 -1.0852  0.9772  0.1682
    2MOL0     H  205   5.375   7.254   1.471  1.2792 -2.0922  0.3788
    2MOL0     H  206   5.401   7.233   1.288  0.6431  0.3035  1.8282
    2MOL0     H  207   5.607   7.211   1.402 -0.7656  0.1039 -0.6025
    2MOL0     H  208   5.589   7.379   1.462  1.8424 -2.2087  2.8664
    2MOL0     H  209   5.613   7.472   1.255 -2.4521 -0.2152 -1.1141
    2MOL0     H  210   5.567   7.337   1.162 -1.4984  2.0005  0.0091
    2MOL0     H  211   5.822   7.371   1.333 -1.4098  2.1801  0.4637
    2MOL0     H  212   5.793   7.220   1.243  0.6848  1.1485 -0.0347
    2MOL0     H  213   5.780   7.371   1.016  1.9819  1.4057 -1.9046
    2MOL0     H  214   5.821   7.497   1.119 -1.5533  0.0277  0.8674
    2MOL0     H  215   6.035   7.404   1.186  0.1164 -0.3791  0.0837
    2MOL0     H  216   6.010   7.247   1.103  0.8277 -0.1049 -0.0174
    2MOL0     H  217   6.012   7.508   0.935 -5.5174 -1.0653  3.0279
    2MOL0     H  218   6.040   7.344   0.878  2.4596 -0.0461 -0.5631
    2MOL0     H  219   6.219   7.480   1.095  1.9411  0.2080  0.2049
    2MOL0     H  220   6.255   7.332   1.005  2.8320  1.8055  2.2966
    2MOL0     H  221   6.228   7.397   0.699  1.5865 -0.3081  0.3656
    2MOL0     H  222   6.314   7.517   0.501  2.2850 -0.7539 -1.5063
    2MOL0     H  223   6.280   7.694   0.515 -2.0887 -2.4737  0.8602
    2MOL0     H  224   6.516   7.656   0.394  3.5352  2.1597  0.2628
    2MOL0     H  225   6.508   7.750   0.532  2.9387 -0.1548  0.9077
    2MOL0     H  226   6.594   7.457   0.494  1.4838  1.5378 -2.1338
    2MOL0     H  227   6.580   7.522   0.655  0.9962 -0.1456 -1.0063
    2MOL0     H  228   6.804   7.531   0.585 -0.0493 -0.2377 -1.5966
    2MOL0     H  229   6.753   7.699   0.599 -2.6788  0.2222  0.8285
    2MOL0     H  230   6.783   7.794   0.192  0.4490  1.8019 -0.2989
    2MOL0     H  231   6.997   7.899   0.111  1.2861 -1.0067 -0.7933
    2MOL0     H  232   7.611   7.749   0.311 -1.9291 -0.3416  0.0861
    2MOL0     H  233   7.812   7.876   0.318 -0.4854 -1.5100  1.8034
    2MOL0     H  234   7.941   8.021   0.395 -0.2176 -4.2406 -1.9864
    2MOL0     H  235   7.971   8.046   0.221 -1.4486 -0.3720 -0.1200
    2MOL0     H  236   7.978   8.283   0.394 -0.3072 -0.8280  2.0110
    2MOL0     H  237   8.121   8.180   0.415  1.3194 -0.4813 -1.0619
    2MOL0     H  238   8.041   8.251   0.132 -0.6457 -0.0183  0.6560
    2MOL0     H  239   8.148   8.363   0.230 -1.2575  0.9672  2.2696
    2MOL0     H  240   8.253   8.182   0.075 -0.3019 -0.4966 -0.2978
    2MOL0     H  241   8.193   8.068   0.184  0.2680 -0.6567 -3.5161
    2MOL0     H  242   8.339   8.115   0.357  2.2034  2.2102  1.9754
    2MOL0     H  243   8.345   8.290   0.324  1.5610 -0.9065  0.5353
    2MOL0     H  244   8.488   8.072   0.180 -1.6368  0.9461 -1.0335
    2MOL0     H  245   8.480   8.235   0.108  2.2347 -0.3482 -0.9044
    2MOL0     H  246   8.593   8.183   0.389 -2.0566  3.0264  1.1343
    2MOL0     H  247   8.598   8.339   0.302  4.0240  0.3337  0.7926
    2MOL0     H  248   8.755   8.092   0.230 -0.2441  0.0903 -0.6245
    2MOL0     H  249   8.726   8.230   0.115 -0.7241 -1.4325 -0.8366
    2MOL0     H  250   7.571   8.237   0.261 -1.0345  0.3174  2.0550
    2MOL0     H  251   7.376   8.115   0.250  0.9916  0.6140 -3.6683
    2MOL0     H  252   7.211   7.704   0.430  0.6225  2.4905 -1.1473
    2MOL0     H  253   7.006   7.597   0.508  1.5324  0.9258  0.3800
    2MOL0     H  254   5.200   7.173   1.339  0.2825  0.4553  1.5102
    2MOL0     H  255   4.952   7.167   1.298 -0.0139 -0.6536 -0.4200
    2MOL0     H  256   4.611   7.336   1.111  0.1940  0.9315 -0.2902
    2MOL0     H  257   4.394   7.329   1.034  0.4496  0.3569 -0.0312
    2MOL0     H  258   4.073   7.426   1.337  0.8016  0.8490 -0.7368
    2MOL0     H  259   4.067   7.267   1.270  1.3416  1.0630  2.5641
    2MOL0     H  260   3.938   7.487   1.116  2.5748 -1.1175 -1.5152
    2MOL0     H  261   3.850   7.401   1.248  0.9916  1.5219  1.3141
    2MOL0     H  262   3.965   7.256   1.019 -0.4104 -0.3293 -0.2704
    2MOL0     H  263   3.821   7.358   0.998  0.4813  4.5544  2.3448
    2MOL0     H  264   3.849   7.131   1.196  0.2246  2.2401 -0.7504
    2MOL0     H  265   3.698   7.224   1.177  0.9645  1.2785  3.8802
    2MOL0     H  266   3.677   6.934   0.886 -0.8078  1.8514 -1.2713
    2MOL0     H  267   4.258   7.533   1.385  1.3399 -1.5743  0.5157
    2MOL0     H  268   4.511   7.478   1.580  2.9877 -1.2352 -2.4570
    2MOL0     H  269   4.539   7.629   1.495  0.8055 -1.6400 -3.7283
    2MOL0     H  270   4.374   7.599   1.546 -1.0320  1.0350 -3.2708
    3MOL0     O  271   0.837   6.716   3.400  0.2829  0.2302 -0.8993
    3MOL0     C  272   0.787   6.648   3.311  0.2247  0.0413  0.1116
    3MOL0     O  273   0.855   6.592   3.204  0.8697  0.1522 -0.0886
    3MOL0     C  274   0.987   6.603   3.178  0.1941 -0.1372 -0.0107
    3MOL0     C  275   1.071   6.707   3.204 -0.7382 -0.1866 -0.1856
    3MOL0     C  276   1.202   6.715   3.156 -0.1490  0.2192  0.3706
    3MOL0     C  277   1.249   6.597   3.080 -0.5302 -1.2200  0.1104
    3MOL0     O  278   1.368   6.612   3.008  0.1431  0.1341  0.5266
    3MOL0     C  279   1.381   6.717   2.919 -0.0315 -0.8774  0.0472
    3MOL0     C  280   1.522   6.720   2.873  0.2828 -0.1478  0.3489
    3MOL0     C  281   1.629   6.764   2.970 -1.2264 -0.5352 -0.4187
    3MOL0     C  282   1.765   6.774   2.897 -0.5097 -0.6990  0.8044
    3MOL0     C  283   1.878   6.812   2.993  0.2012  0.0045  0.1820
    3MOL0     C  284   2.006   6.815   2.915  0.6635  0.2825  0.2152
    3MOL0     C  285   2.117   6.865   3.017  0.7142  0.2170  0.6565
    3MOL0     C  286   2.108   7.013   3.050 -0.3067  0.1438 -0.0242
    3MOL0     N  287   2.162   7.089   2.938  0.2687 -0.1282  0.6603
    3MOL0     C  288   2.104   7.110   2.815  0.0416 -0.5635  1.1818
    3MOL0     C  289   2.206   7.163   2.737  1.0623 -0.9590  0.3436
    3MOL0     C  290   2.168   7.188   2.590 -0.1308  0.5459 -0.3085
    3MOL0     C  291   2.288   7.189   2.497  0.5168  0.1238 -0.3563
    3MOL0     C  292   2.253   7.255   2.364 -0.3459  0.5477  0.6672
    3MOL0     C  293   2.376   7.251   2.280  0.5191  0.3646 -0.2638
    3MOL0     O  294   2.430   7.120   2.256  0.5647 -0.6005  0.5918
    3MOL0     C  295   2.512   7.115   2.145  0.4936  0.5736  0.1406
    3MOL0     C  296   2.597   7.223   2.111 -0.8024 -0.4501  0.5937
    3MOL0     C  297   2.678   7.215   1.999 -0.4210  0.3648 -0.5228
    3MOL0     C  298   2.670   7.100   1.910 -0.0973  0.1424 -0.2096
    3MOL0     C  299   2.754   7.079   1.798 -0.5347  0.5472 -0.5265
    3MOL0     O  300   2.707   7.012   1.692 -0.1640  0.1112  0.1168
    3MOL0     C  301   2.792   7.014   1.574  1.0007  0.6629 -0.2338
    3MOL0     C  302   2.921   6.967   1.572  0.2031 -0.6741  0.1754
    3MOL0     C  303   3.000   6.972   1.456  0.1896 -0.9520 -0.8428
    3MOL0     C  304   2.940   7.011   1.331 -0.4615 -0.3680  0.1235
    3MOL0     O  305   3.017   7.011   1.223 -0.8385  0.8112 -0.1031
    3MOL0     C  306   3.053   7.146   1.190 -0.7024 -0.0383  0.2068
    3MOL0     C  307   3.200   7.164   1.160  0.0205  0.2291 -0.5426
    3MOL0     C  308   3.251   7.308   1.126  0.9139 -0.0890  0.2578
    3MOL0     C  309   3.400   7.301   1.102 -0.4382  0.7936  0.4928
    3MOL0     C  310   3.482   7.426   1.152  0.8417 -0.6912  0.2124
    3MOL0     C  311   3.486   7.441   1.307  0.5055  0.9474  0.3854
    3MOL0     C  312   3.550   7.585   1.346  0.9493  0.3191 -0.8204
    3MOL0     C  313   3.585   7.590   1.493  0.3464  1.0896  0.2017
    3MOL0    Cl  314   3.434   7.582   1.581  0.0226 -0.2017 -0.5363
    3MOL0     C  315   2.806   7.054   1.333 -0.0289 -0.0239 -0.6459
    3MOL0     C  316   2.731   7.052   1.454  0.3404  0.7277  1.1914
    3MOL0     O  317   2.859   7.146   1.799 -0.7193  0.0564  0.9736
    3MOL0     C  318   2.590   6.993   1.947 -0.1862 -0.0609 -0.1872
    3MOL0     C  319   2.516   6.997   2.061 -0.3105 -0.0793 -0.0374
    3MOL0     N  320   2.326   7.169   2.803 -0.2487  0.3153 -0.4238
    3MOL0     N  321   2.297   7.130   2.926  0.4925 -0.0358  0.8384
    3MOL0     C  322   1.172   6.485   3.075 -0.0656 -0.4996 -0.1726
    3MOL0     C  323   1.039   6.492   3.116  0.8758 -1.0643  0.0036
    3MOL0     C  324   0.632   6.633   3.312  0.0541  0.9184 -0.9714
    3MOL0     C  325   0.563   6.636   3.432  0.0314 -0.0969 -0.4327
    3MOL0     C  326   0.425   6.635   3.444 -0.4093 -1.0792  0.6722
    3MOL0     C  327   0.351   6.632   3.328  0.2626 -0.7417 -0.9856
    3MOL0     O  328   0.211   6.645   3.325  0.1760 -0.3530  0.0137
    3MOL0     C  329   0.132   6.610   3.441 -0.3585  0.4532  0.3799
    3MOL0     C  330  -0.016   6.602   3.417  0.6413  0.4720  0.4112
    3MOL0     C  331  -0.105   6.578   3.547  0.3086  0.4542  0.4277
    3MOL0     C  332  -0.249   6.547   3.498 -0.5271  0.0279 -0.1771
    3MOL0     C  333  -0.331   6.535   3.625  0.0277  0.0465 -0.7375
    3MOL0     C  334  -0.404   6.533   3.722 -0.4378 -0.3843 -0.4100
    3MOL0     C  335   0.413   6.598   3.208 -0.4257 -0.2677  0.1702
    3MOL0     C  336   0.553   6.605   3.194  0.6619 -0.2331 -0.6007
    3MOL0     C  337   0.616   6.596   3.058  0.9263  1.0747  0.4445
    3MOL0     H  338   1.035   6.794   3.258  0.4225  0.9646 -1.1682
    3MOL0     H  339   1.258   6.808   3.164  0.8146 -0.2888 -0.2535
    3MOL0     H  340   1.303   6.706   2.844 -3.2194 -2.3747  3.2555
    3MOL0     H  341   1.358   6.817   2.957  0.2626 -0.8459  0.1431
    3MOL0     H  342   1.531   6.788   2.788  0.6402  0.2651  0.7098
    3MOL0     H  343   1.550   6.620   2.839  0.2652 -0.3755  0.9930
    3MOL0     H  344   1.647   6.685   3.043 -0.7790 -0.1620 -0.1159
    3MOL0     H  345   1.597   6.856   3.021  0.1125  0.5381 -1.4111
    3MOL0     H  346   1.773   6.677   2.847 -1.2623 -1.4697  2.1272
    3MOL0     H  347   1.763   6.851   2.819  0.9505  0.3152  1.7126
    3MOL0     H  348   1.847   6.909   3.032 -0.8655 -0.3198  0.1827
    3MOL0     H  349   1.884   6.738   3.073 -0.0847 -0.3275 -0.0967
    3MOL0     H  350   2.026   6.716   2.873  3.6168  1.2946 -1.0658
    3MOL0     H  351   1.996   6.884   2.830  1.0038 -0.6879 -0.6369
    3MOL0     H  352   2.216   6.848   2.975 -0.4880 -0.0364 -2.3164
    3MOL0     H  353   2.113   6.800   3.105  0.9326 -1.8043 -0.7650
    3MOL0     H  354   2.007   7.033   3.087  0.4267  1.0460  1.6087
    3MOL0     H  355   2.164   7.042   3.140 -0.3569 -0.3934  0.1864
    3MOL0     H  356   2.011   7.080   2.767  0.9253  0.4026 -1.3233
    3MOL0     H  357   2.104   7.104   2.562  2.2786 -0.9960 -1.5252
    3MOL0     H  358   2.111   7.281   2.589  1.8756  1.9156  1.5857
    3MOL0     H  359   2.374   7.241   2.541  0.9598  1.3194 -2.4900
    3MOL0     H  360   2.318   7.084   2.488  0.7167  0.1613 -0.1357
    3MOL0     H  361   2.230   7.362   2.371 -0.5486  0.6788 -1.3096
    3MOL0     H  362   2.172   7.195   2.322  1.7286 -0.1929 -2.6606
    3MOL0     H  363   2.453   7.312   2.328  0.1152 -0.2654  1.2217
    3MOL0     H  364   2.341   7.282   2.181  0.6188  1.5404  0.0560
    3MOL0     H  365   2.596   7.319   2.161 -0.7400  0.7475 -1.5941
    3MOL0     H  366   2.746   7.296   1.974  0.2595 -1.2326 -4.8183
    3MOL0     H  367   2.945   6.925   1.670  1.3789  0.0691  0.2208
    3MOL0     H  368   3.102   6.935   1.457  0.3318 -0.6342 -1.8933
    3MOL0     H  369   3.006   7.181   1.098 -2.3446 -1.8937  0.2712
    3MOL0     H  370   3.030   7.220   1.267 -0.1816 -1.5678  1.9150
    3MOL0     H  371   3.247   7.125   1.251 -3.0858 -1.4745  0.4877
    3MOL0     H  372   3.236   7.097   1.081  2.8611  4.5519 -3.3919
    3MOL0     H  373   3.198   7.340   1.036  0.9981 -0.2084  0.1648
    3MOL0     H  374   3.220   7.373   1.208  1.1231 -3.0297  2.8627
    3MOL0     H  375   3.414   7.288   0.995  0.7335 -1.9751  0.8926
    3MOL0     H  376   3.448   7.218   1.153 -1.4833 -0.4439 -0.4763
    3MOL0     H  377   3.435   7.519   1.116  2.2465 -0.3616 -0.8688
    3MOL0     H  378   3.580   7.424   1.103  0.1162 -1.3357 -1.2591
    3MOL0     H  379   3.383   7.447   1.345  0.1841 -0.3620 -0.2242
    3MOL0     H  380   3.533   7.352   1.350 -3.7546 -1.9356 -0.3166
    3MOL0     H  381   3.476   7.663   1.325  0.7256  0.2584 -0.2715
    3MOL0     H  382   3.641   7.592   1.286  0.3980 -4.1487 -2.5001
    3MOL0     H  383   3.633   7.499   1.529 -1.1518 -0.4293 -1.4328
    3MOL0     H  384   3.642   7.679   1.519  0.2947  0.8480  1.1613
    3MOL0     H  385   2.751   7.078   1.243 -0.4378 -0.0120 -0.3952
    3MOL0     H  386   2.628   7.084   1.454  0.5374  1.5471 -1.0221
    3MOL0     H  387   2.599   6.899   1.895  2.4963 -0.5502  0.9934
    3MOL0     H  388   2.451   6.912   2.081 -2.3000  1.4135  0.1220
    3MOL0     H  389   1.217   6.399   3.026  0.5070 -0.6879  0.6563
    3MOL0     H  390   0.973   6.410   3.091 -0.0620  0.1908 -1.9183
    3MOL0     H  391   0.613   6.643   3.528  0.1063  0.1891 -0.4892
    3MOL0     H  392   0.379   6.629   3.542  0.2360 -3.5550  0.8838
    3MOL0     H  393   0.144   6.692   3.512  0.9459  0.2610  0.4057
    3MOL0     H  394   0.172   6.519   3.487  2.1816  0.9319 -0.6717
    3MOL0     H  395  -0.046   6.515   3.356 -0.3644  0.4547  0.9197
    3MOL0     H  396  -0.051   6.695   3.371 -2.9345  0.0123  1.8914
    3MOL0     H  397  -0.102   6.666   3.611 -1.0606  0.8704 -0.0379
    3MOL0     H  398  -0.064   6.494   3.603  0.0881  0.2592  0.2976
    3MOL0     H  399  -0.280   6.623   3.427 -0.2437  1.7141  1.4157
    3MOL0     H  400  -0.248   6.452   3.443 -1.2065  1.0788 -2.0801
    3MOL0     H  401  -0.459   6.528   3.814  0.8919  0.6807  0.4804
    3MOL0     H  402   0.359   6.598   3.113  0.6155  1.9514 -0.4948
    3MOL0     H  403   0.662   6.497   3.048 -0.3347  0.1760  2.8098
    3MOL0     H  404   0.537   6.590   2.983  2.2300 -1.6648 -0.8692
    3MOL0     H  405   0.687   6.675   3.030  1.2848  0.0613 -1.7770
    4MOL0     O  406   4.330  10.367   9.380 -0.0066 -0.2883  0.0343
    4MOL0     C  407   4.236  10.437   9.417  0.1704  1.1628  0.3250
    4MOL0     O  408   4.247  10.555   9.488 -0.2020 -0.1809 -0.5992
    4MOL0     C  409   4.367  10.615   9.515 -0.7808  0.6852 -0.3854
    4MOL0     C  410   4.463  10.544   9.596  0.6364 -0.0801 -0.3959
    4MOL0     C  411   4.589  10.599   9.617 -0.0222  0.5722 -0.8451
    4MOL0     C  412   4.626  10.721   9.560  0.4233 -0.8226 -0.5976
    4MOL0     O  413   4.751  10.765   9.589  0.0560 -0.5699  0.0735
    4MOL0     C  414   4.799  10.867   9.504 -0.7929 -0.2769  0.3872
    4MOL0     C  415   4.954  10.861   9.524 -0.0488  0.7806 -0.7366
    4MOL0     C  416   5.011  10.880   9.659  0.0485  0.5517  0.4553
    4MOL0     C  417   5.165  10.871   9.676  0.1499  0.2346 -0.7648
    4MOL0     C  418   5.229  10.749   9.615 -0.5693  0.5470  1.4358
    4MOL0     C  419   5.380  10.759   9.586  0.9336 -0.8242 -0.4698
    4MOL0     C  420   5.437  10.630   9.516 -0.3225  1.5235 -0.0471
    4MOL0     C  421   5.570  10.651   9.446  0.1361  1.3679  0.3001
    4MOL0     N  422   5.677  10.692   9.546  0.0244  0.0882 -0.0245
    4MOL0     C  423   5.757  10.595   9.615  0.4234 -0.5688  0.0986
    4MOL0     C  424   5.842  10.672   9.679 -0.0604 -0.4474  0.9032
    4MOL0     C  425   5.937  10.616   9.772 -0.6771  0.9230 -0.5621
    4MOL0     C  426   6.073  10.603   9.710  0.2816  0.6037  0.2344
    4MOL0     C  427   6.177  10.619   9.823 -0.7327  0.0128 -0.8294
    4MOL0     C  428   6.305  10.550   9.799 -0.4077 -0.3420  0.7619
    4MOL0     O  429   6.308  10.415   9.837  0.2724 -0.3955 -0.8585
    4MOL0     C  430   6.427  10.355   9.811  0.3490 -0.1199 -0.3192
    4MOL0     C  431   6.547  10.380   9.887  0.0159 -0.1960 -0.1089
    4MOL0     C  432   6.674  10.322   9.860  1.0430  0.7358 -0.7990
    4MOL0     C  433   6.676  10.220   9.757  0.1086 -0.2490  0.5352
    4MOL0     C  434   6.807  10.140   9.738  0.5589 -0.2403 -0.6680
    4MOL0     O  435   6.899  10.161   9.830  0.0828 -0.5971  0.2961
    4MOL0     C  436   6.998  10.078   9.861 -0.6585  0.4967 -0.4892
    4MOL0     C  437   7.123  10.135   9.827  0.4820  0.2214 -0.0765
    4MOL0     C  438   7.238  10.063   9.840 -0.4020  0.0275  0.1315
    4MOL0     C  439   7.233   9.931   9.896  0.3246  0.5693  1.3276
    4MOL0     O  440   7.354   9.868   9.903 -0.1025  0.3555 -0.5602
    4MOL0     C  441   7.359   9.725   9.935 -0.1555 -0.2141 -0.5631
    4MOL0     C  442   7.507   9.685   9.925  0.0031  0.7093 -0.2128
    4MOL0     C  443   7.526   9.530   9.942  0.1363  0.2650 -0.4947
    4MOL0     C  444   7.677   9.498   9.929  0.2779 -0.0310  0.0843
    4MOL0     C  445   7.720   9.485   9.783  0.5701  0.0150 -1.0718
    4MOL0     C  446   7.868   9.449   9.803 -0.1198  0.0005  0.2878
    4MOL0     C  447   7.932   9.417   9.662  0.6990  0.2552  0.0343
    4MOL0     C  448   8.073   9.357   9.685  0.0421  0.0693 -0.4008
    4MOL0    Cl  449   8.187   9.396   9.545  0.4085  0.4171  0.1764
    4MOL0     C  450   7.107   9.873   9.924 -0.5506 -0.3660  0.1393
    4MOL0     C  451   6.987   9.944   9.902  0.0364 -0.5532 -0.1875
    4MOL0     O  452   6.816  10.057   9.643 -0.1093  0.3342  0.3724
    4MOL0     C  453   6.561  10.195   9.683 -0.1484 -0.4147 -0.4715
    4MOL0     C  454   6.445  10.266   9.707 -0.0461 -0.3558 -0.4279
    4MOL0     N  455   5.824  10.809   9.652  0.0816 -0.0219  1.3200
    4MOL0     N  456   5.729  10.814   9.566 -0.1812  0.1837 -0.0613
    4MOL0     C  457   4.531  10.790   9.480  0.3803  0.4260 -1.3350
    4MOL0     C  458   4.400  10.739   9.466 -0.2288  0.3393  0.1159
    4MOL0     C  459   4.093  10.399   9.389  0.4727  0.1664  0.4809
    4MOL0     C  460   3.988  10.450   9.471 -0.5219  0.1226 -0.3829
    4MOL0     C  461   3.860  10.406   9.461 -0.1468 -0.3987 -0.0380
    4MOL0     C  462   3.814  10.324   9.359 -0.0976  1.3296  0.0923
    4MOL0     O  463   3.683  10.279   9.363  0.0965 -0.3601  0.5181
    4MOL0     C  464   3.628  10.219   9.243  0.1781  0.5825  0.3122
    4MOL0     C  465   3.475  10.253   9.241  0.2466 -0.3422  0.9802
    4MOL0     C  466   3.396  10.240   9.113  0.0769 -0.7251 -0.4887
    4MOL0     C  467   3.236  10.268   9.127  0.6482  0.6343  0.1301
    4MOL0     C  468   3.216  10.414   9.111  0.3667 -0.2390 -0.4513
    4MOL0     C  469   3.213  10.530   9.100 -0.8733 -0.4922 -0.2806
    4MOL0     C  470   3.911  10.293   9.263 -0.2876 -0.2877  0.8669
    4MOL0     C  471   4.052  10.327   9.275  0.3167  0.0111 -0.4503
    4MOL0     C  472   4.149  10.278   9.169 -0.3058 -0.0896 -1.6697
    4MOL0     H  473   4.435  10.443   9.625  0.9128 -0.0770 -0.1098
    4MOL0     H  474   4.659  10.549   9.683 -0.5318  0.5349 -0.3305
    4MOL0     H  475   4.781  10.852   9.397  3.6110 -1.8226 -0.3245
    4MOL0     H  476   4.777  10.966   9.546  0.7295  1.2482 -2.1327
    4MOL0     H  477   4.998  10.939   9.460 -1.1661  1.4197 -0.7481
    4MOL0     H  478   4.986  10.763   9.488  1.3027  0.1863  1.8421
    4MOL0     H  479   4.980  10.794   9.719 -3.9302  1.8756  0.6134
    4MOL0     H  480   4.970  10.974   9.697 -4.1191 -0.4976 -0.8288
    4MOL0     H  481   5.216  10.963   9.647  1.6998  0.1261  1.3757
    4MOL0     H  482   5.180  10.863   9.784 -1.0681  0.9929 -0.5101
    4MOL0     H  483   5.198  10.668   9.682  0.7317 -0.4085  0.9098
    4MOL0     H  484   5.187  10.720   9.518  1.0115  1.4046  0.4617
    4MOL0     H  485   5.395  10.848   9.525 -0.2692 -0.0189  0.3786
    4MOL0     H  486   5.429  10.773   9.683 -0.9750  0.7587  0.3401
    4MOL0     H  487   5.370  10.617   9.431 -0.5405  4.0842 -0.3531
    4MOL0     H  488   5.437  10.542   9.581  2.1050  1.1652 -0.4151
    4MOL0     H  489   5.590  10.555   9.398  1.6607  0.4624  2.5754
    4MOL0     H  490   5.560  10.729   9.369 -1.0011  2.2693  1.3218
    4MOL0     H  491   5.738  10.489   9.618  0.5944 -0.6259 -0.7492
    4MOL0     H  492   5.922  10.668   9.867 -0.7099  0.1269 -0.1170
    4MOL0     H  493   5.902  10.514   9.795  1.1180  0.2881 -0.4734
    4MOL0     H  494   6.074  10.503   9.666 -0.7278  0.9527 -0.6407
    4MOL0     H  495   6.079  10.678   9.631 -1.7452  0.5408 -0.0398
    4MOL0     H  496   6.135  10.588   9.920 -3.9213 -3.0638 -2.9454
    4MOL0     H  497   6.208  10.724   9.818 -3.5258  0.8533 -2.8284
    4MOL0     H  498   6.379  10.614   9.848 -0.0666 -0.4200  0.3496
    4MOL0     H  499   6.325  10.561   9.692  0.7244  0.0670  1.0005
    4MOL0     H  500   6.540  10.464   9.955  1.5828  0.5781 -0.8660
    4MOL0     H  501   6.757  10.349   9.924  0.4362  2.7349 -0.7595
    4MOL0     H  502   7.113  10.236   9.790  1.6099 -0.8162 -3.5678
    4MOL0     H  503   7.338  10.105   9.831 -0.2069  0.0370  1.8656
    4MOL0     H  504   7.315   9.710  10.035  0.0447 -3.4607 -0.8468
    4MOL0     H  505   7.299   9.664   9.867  0.0582 -0.8902 -0.1592
    4MOL0     H  506   7.552   9.712   9.829  0.1645  3.4193  0.5424
    4MOL0     H  507   7.563   9.732  10.007  1.5360 -1.5407  0.1178
    4MOL0     H  508   7.493   9.504  10.043 -0.6250  0.8463 -0.5842
    4MOL0     H  509   7.466   9.475   9.869 -2.1199  0.6013  0.9751
    4MOL0     H  510   7.693   9.408   9.989  2.6732  0.6232  0.5427
    4MOL0     H  511   7.731   9.580   9.979  1.2792  0.5337 -1.8074
    4MOL0     H  512   7.710   9.576   9.724  2.1751 -0.9046 -2.8959
    4MOL0     H  513   7.668   9.408   9.723  1.8121  0.0216 -2.2022
    4MOL0     H  514   7.917   9.534   9.850 -0.8283 -0.7428  2.4736
    4MOL0     H  515   7.885   9.364   9.870  1.0208  1.7084  2.2481
    4MOL0     H  516   7.939   9.516   9.616  0.9875  1.0749  1.7777
    4MOL0     H  517   7.879   9.345   9.598 -0.8406  0.4419  1.0302
    4MOL0     H  518   8.112   9.399   9.779  3.8246  0.9698 -2.1887
    4MOL0     H  519   8.062   9.251   9.706 -1.3639  0.1837 -0.4668
    4MOL0     H  520   7.097   9.766   9.941  1.9881 -1.0727 -2.1110
    4MOL0     H  521   6.890   9.899   9.922 -0.9849  2.0193  1.0662
    4MOL0     H  522   6.559  10.126   9.600  2.2857 -0.9694 -0.1625
    4MOL0     H  523   6.362  10.238   9.643 -0.7826 -3.4838  1.6880
    4MOL0     H  524   4.559  10.887   9.441  0.0855  1.4769  0.8988
    4MOL0     H  525   4.330  10.794   9.404 -2.3323 -0.2019  1.8713
    4MOL0     H  526   4.028  10.522   9.542 -0.7594 -1.2871  1.2607
    4MOL0     H  527   3.786  10.443   9.531 -0.3632  1.8403 -1.3274
    4MOL0     H  528   3.634  10.110   9.232 -0.9082  0.2544  2.5099
    4MOL0     H  529   3.674  10.273   9.159  0.1265  0.5593  0.2689
    4MOL0     H  530   3.462  10.355   9.277  0.8028  0.8301 -1.9185
    4MOL0     H  531   3.419  10.196   9.317 -0.7442  1.0144  1.3166
    4MOL0     H  532   3.400  10.138   9.074  0.3682 -1.0418  0.3364
    4MOL0     H  533   3.447  10.307   9.043 -2.7079  0.4739 -1.5167
    4MOL0     H  534   3.177  10.219   9.049  0.7911  2.4613 -1.2066
    4MOL0     H  535   3.186  10.236   9.219  1.2808  0.9100  0.5757
    4MOL0     H  536   3.204  10.636   9.085  0.9175 -0.4481 -1.3252
    4MOL0     H  537   3.893  10.234   9.173  1.7656  0.1258  0.1203
    4MOL0     H  538   4.219  10.355   9.135  1.3841 -0.7628  0.0564
    4MOL0     H  539   4.210  10.197   9.210  1.0239  1.7233  0.1710
    4MOL0     H  540   4.107  10.238   9.077 -0.3787 -2.3229 -0.7265
    5MOL0     O  541   9.304   8.255   2.954 -0.1737 -0.5810 -0.5384
    5MOL0     C  542   9.216   8.336   2.927 -0.4313  0.1929 -0.2506
    5MOL0     O  543   9.237   8.471   2.938 -0.6609  0.6523 -0.4469
    5MOL0     C  544   9.341   8.533   3.004  0.6402  0.6377 -0.1953
    5MOL0     C  545   9.455   8.563   2.936 -0.9728 -0.6489  0.1215
    5MOL0     C  546   9.552   8.637   3.004 -0.4147  0.4995 -0.2377
    5MOL0     C  547   9.527   8.691   3.125  0.4147  0.3569  0.1668
    5MOL0     O  548   9.613   8.795   3.168 -0.1081  0.0059 -0.0086
    5MOL0     C  549   9.629   8.832   3.305  0.0874 -0.2110  0.2702
    5MOL0     C  550   9.729   8.946   3.320  0.2054 -0.6174 -0.0006
    5MOL0     C  551   9.875   8.888   3.322 -0.3170 -0.3734 -0.1713
    5MOL0     C  552   9.993   8.977   3.364 -0.0926 -0.3596  0.4075
    5MOL0     C  553  10.124   8.890   3.329  0.1743 -0.7295 -0.7239
    5MOL0     C  554  10.257   8.954   3.380  0.5281 -0.9204  0.5256
    5MOL0     C  555  10.378   8.858   3.386  0.3605  0.3078 -0.3382
    5MOL0     C  556  10.501   8.918   3.459 -0.3066  0.4943 -0.3819
    5MOL0     N  557  10.617   8.828   3.444  0.0367 -1.0018 -0.5550
    5MOL0     C  558  10.635   8.693   3.485 -0.3186 -0.3535 -0.7376
    5MOL0     C  559  10.770   8.678   3.459 -1.1490 -0.6389 -0.7803
    5MOL0     C  560  10.862   8.560   3.497  0.8770 -0.0376 -0.1775
    5MOL0     C  561  10.854   8.450   3.386 -0.4676  0.2124 -0.4735
    5MOL0     C  562  10.942   8.338   3.422  0.0703 -0.3494  0.3627
    5MOL0     C  563  11.094   8.369   3.433  0.5519 -0.6109  0.6344
    5MOL0     O  564  11.137   8.453   3.323  0.0256 -0.7607 -1.0072
    5MOL0     C  565  11.269   8.486   3.308 -0.3941 -0.3018  0.6116
    5MOL0     C  566  11.323   8.524   3.180  0.2029 -0.4647 -0.4792
    5MOL0     C  567  11.458   8.539   3.161  0.0358  0.2118 -0.3896
    5MOL0     C  568  11.552   8.530   3.268 -0.4324 -0.1642  0.3460
    5MOL0     C  569  11.698   8.561   3.257  0.4956 -0.1398  0.2460
    5MOL0     O  570  11.732   8.653   3.152 -0.3355 -0.3024 -0.4535
    5MOL0     C  571  11.865   8.696   3.144  0.5107 -0.8583  0.2936
    5MOL0     C  572  11.976   8.602   3.153  0.4831 -0.0422  0.2072
    5MOL0     C  573  12.113   8.648   3.139  0.4516 -0.3425 -0.4295
    5MOL0     C  574  12.138   8.785   3.121  0.4929  0.5103 -0.9254
    5MOL0     O  575  12.261   8.844   3.138 -0.1688 -0.1917 -0.4373
    5MOL0     C  576  12.371   8.758   3.164  0.1841  0.4765  0.3037
    5MOL0     C  577  12.506   8.836   3.166 -0.2065 -0.1624 -0.8266
    5MOL0     C  578  12.633   8.751   3.194  0.2492  0.6457  0.3652
    5MOL0     C  579  12.744   8.818   3.112  0.1031  0.2890  0.0546
    5MOL0     C  580  12.879   8.750   3.149 -0.3268 -0.2255  0.3610
    5MOL0     C  581  13.004   8.826   3.082  0.4161  0.3416  0.8549
    5MOL0     C  582  13.138   8.747   3.092  0.7977 -0.5673 -0.6499
    5MOL0     C  583  13.258   8.843   3.060 -0.2679 -0.9935 -0.2953
    5MOL0    Cl  584  13.267   8.972   3.183  0.6144  0.1816 -0.1982
    5MOL0     C  585  12.032   8.864   3.100 -0.2531 -0.1223 -0.0799
    5MOL0     C  586  11.894   8.824   3.113 -0.6312 -0.3284  0.2154
    5MOL0     O  587  11.769   8.528   3.353  0.0425  0.3074 -0.3615
    5MOL0     C  588  11.501   8.491   3.392 -0.2418 -0.0451 -0.3450
    5MOL0     C  589  11.364   8.467   3.414 -0.3945  0.2335 -0.1372
    5MOL0     N  590  10.827   8.793   3.396  0.4436  0.2367 -0.0846
    5MOL0     N  591  10.734   8.879   3.397 -0.0994 -0.3777 -0.4468
    5MOL0     C  592   9.412   8.657   3.196  0.6895 -0.0129 -0.1380
    5MOL0     C  593   9.327   8.569   3.138 -0.2094 -0.6652 -0.1834
    5MOL0     C  594   9.080   8.286   2.885 -0.1649 -0.1702 -0.8706
    5MOL0     C  595   9.071   8.161   2.825  0.3371  0.2288 -0.5065
    5MOL0     C  596   8.943   8.106   2.792 -0.9365  1.2882 -0.3734
    5MOL0     C  597   8.831   8.178   2.803  0.1409  0.2811 -0.1856
    5MOL0     O  598   8.714   8.114   2.760 -0.5505 -0.4007  0.2669
    5MOL0     C  599   8.595   8.193   2.759 -0.4268 -1.1852 -0.2349
    5MOL0     C  600   8.485   8.125   2.672  1.2682 -0.2396  0.0548
    5MOL0     C  601   8.424   8.007   2.741 -1.1859  0.6816  0.9697
    5MOL0     C  602   8.313   7.931   2.661 -0.9927 -0.6346 -0.1645
    5MOL0     C  603   8.266   7.823   2.745  0.2404  0.4281 -0.4408
    5MOL0     C  604   8.233   7.737   2.824  0.2864  0.1157  0.4217
    5MOL0     C  605   8.838   8.309   2.852  0.3563  0.6188  0.5308
    5MOL0     C  606   8.954   8.363   2.900  0.0340  0.4722 -0.7443
    5MOL0     C  607   8.945   8.502   2.965  0.3979 -0.9155  0.4683
    5MOL0     H  608   9.464   8.538   2.831  1.5912  1.4359 -0.2617
    5MOL0     H  609   9.644   8.680   2.964  0.4390 -1.0246  0.0066
    5MOL0     H  610   9.536   8.871   3.348  0.4835  0.2224  0.7526
    5MOL0     H  611   9.653   8.741   3.360  0.3667 -2.3422 -3.1074
    5MOL0     H  612   9.719   8.988   3.421  0.5633 -0.0680 -0.1888
    5MOL0     H  613   9.708   9.030   3.253  2.6081  1.3466  1.5320
    5MOL0     H  614   9.889   8.840   3.224 -1.1392 -0.8238 -0.0794
    5MOL0     H  615   9.874   8.796   3.382 -0.8195  0.1838  0.6937
    5MOL0     H  616   9.991   9.074   3.312  0.2671 -0.1944  0.7002
    5MOL0     H  617   9.990   8.987   3.472 -0.2434  0.2831  0.3482
    5MOL0     H  618  10.124   8.789   3.372 -1.6166 -0.6488 -0.4424
    5MOL0     H  619  10.118   8.869   3.221 -0.0782  1.7123 -1.2513
    5MOL0     H  620  10.285   9.047   3.330  2.3633  0.1679  3.3345
    5MOL0     H  621  10.241   8.989   3.483 -1.6963  0.0705 -0.0821
    5MOL0     H  622  10.414   8.845   3.284  0.6946 -2.5177  0.0549
    5MOL0     H  623  10.353   8.760   3.428  0.9149  0.8301  1.3196
    5MOL0     H  624  10.523   9.016   3.415  1.8535 -0.6857 -2.1506
    5MOL0     H  625  10.473   8.925   3.565  1.4196 -1.4797  0.2684
    5MOL0     H  626  10.559   8.625   3.523  0.7119 -1.2544 -0.2455
    5MOL0     H  627  10.964   8.599   3.495  1.1427 -0.7155 -0.2473
    5MOL0     H  628  10.846   8.518   3.597  1.1809  0.0320 -0.0978
    5MOL0     H  629  10.753   8.406   3.384  0.7645 -2.8431 -1.9329
    5MOL0     H  630  10.884   8.499   3.294  1.1509 -0.5561 -0.3815
    5MOL0     H  631  10.932   8.269   3.338 -0.0853 -0.8564  0.7999
    5MOL0     H  632  10.906   8.285   3.510  1.9225 -2.5238 -0.0875
    5MOL0     H  633  11.146   8.273   3.422  0.7981 -0.3064 -1.2011
    5MOL0     H  634  11.113   8.407   3.534  1.8540 -0.2529  0.2715
    5MOL0     H  635  11.254   8.514   3.096 -0.7525 -1.3612  0.3732
    5MOL0     H  636  11.488   8.577   3.064 -1.2856 -1.7509 -1.6558
    5MOL0     H  637  11.964   8.499   3.185  1.6391  0.1920  1.5091
    5MOL0     H  638  12.189   8.578   3.173 -1.8449 -2.7147  0.1238
    5MOL0     H  639  12.353   8.714   3.262 -1.7250 -0.9607 -0.6320
    5MOL0     H  640  12.381   8.684   3.084 -2.4647  1.0398 -0.6481
    5MOL0     H  641  12.515   8.878   3.065 -1.1101 -3.6753 -2.5577
    5MOL0     H  642  12.495   8.907   3.248  2.8624 -0.1222 -0.3460
    5MOL0     H  643  12.662   8.741   3.299  0.8359 -3.2872 -0.0211
    5MOL0     H  644  12.616   8.650   3.156  0.3564  0.7138  0.1332
    5MOL0     H  645  12.753   8.922   3.144  0.2177 -0.1299  1.4432
    5MOL0     H  646  12.714   8.815   3.007 -1.7027 -4.1361  0.4813
    5MOL0     H  647  12.880   8.645   3.121 -1.1131  0.6103 -3.3468
    5MOL0     H  648  12.896   8.755   3.257 -1.1422 -5.0262  0.9151
    5MOL0     H  649  12.971   8.836   2.979 -1.4171  0.5111  1.4218
    5MOL0     H  650  13.018   8.928   3.121 -1.1474  1.0262 -0.2725
    5MOL0     H  651  13.122   8.668   3.019 -2.2207 -0.3513 -0.3606
    5MOL0     H  652  13.152   8.705   3.192 -1.1998 -1.4644 -0.6829
    5MOL0     H  653  13.347   8.781   3.048  1.2871  1.2570 -0.9156
    5MOL0     H  654  13.232   8.883   2.961  2.8626 -1.7701 -1.5551
    5MOL0     H  655  12.055   8.969   3.079 -2.1592  0.2186 -0.6624
    5MOL0     H  656  11.813   8.895   3.103 -0.0579  0.2999 -0.1016
    5MOL0     H  657  11.560   8.470   3.480 -4.1741  4.2927  3.9473
    5MOL0     H  658  11.333   8.446   3.516 -0.2690 -0.8078 -0.3023
    5MOL0     H  659   9.363   8.697   3.284 -1.8162 -1.1757 -0.9004
    5MOL0     H  660   9.235   8.541   3.188  0.1895  2.0848  2.3875
    5MOL0     H  661   9.164   8.109   2.803  0.1029  0.6538 -2.7937
    5MOL0     H  662   8.946   8.008   2.746  1.4024  0.3785  1.5301
    5MOL0     H  663   8.612   8.292   2.717  0.2206  0.4256  3.4465
    5MOL0     H  664   8.564   8.213   2.862  3.1330 -1.0818  0.9601
    5MOL0     H  665   8.530   8.101   2.576  1.3704 -0.3330  0.1257
    5MOL0     H  666   8.405   8.199   2.659  0.2064 -1.4721 -0.6283
    5MOL0     H  667   8.368   8.045   2.826 -0.1785  1.2787  1.3793
    5MOL0     H  668   8.496   7.937   2.783  1.3674  2.1059 -0.7614
    5MOL0     H  669   8.233   8.000   2.631  0.0397  0.2476 -0.9741
    5MOL0     H  670   8.353   7.884   2.571  3.8879  0.2206  1.2674
    5MOL0     H  671   8.216   7.658   2.895  0.0547 -0.0340  0.2032
    5MOL0     H  672   8.748   8.368   2.862 -0.2990 -0.3366  0.4747
    5MOL0     H  673   8.965   8.582   2.894 -0.9230  0.7321  1.8633
    5MOL0     H  674   8.840   8.512   2.995  0.0217  0.9102 -1.3026
    5MOL0     H  675   9.017   8.514   3.047  0.7767 -0.6421  0.0957
    6MOL0     O  676   0.906   8.089   7.655 -0.6440  0.6369  0.2673
    6MOL0     C  677   0.879   7.964   7.638  0.2517  0.3120  0.0370
    6MOL0     O  678   0.962   7.865   7.643 -0.2640  0.5114 -0.3700
    6MOL0     C  679   1.098   7.886   7.625  0.5331  0.1824 -0.1173
    6MOL0     C  680   1.159   7.997   7.561 -0.0072  0.3220 -0.6269
    6MOL0     C  681   1.301   8.014   7.563  0.0719 -0.1787 -0.0561
    6MOL0     C  682   1.377   7.912   7.616 -0.1776 -0.2381 -0.5519
    6MOL0     O  683   1.512   7.931   7.624 -0.1720  0.4251 -0.1639
    6MOL0     C  684   1.555   8.049   7.696 -0.0277  0.2560 -0.0037
    6MOL0     C  685   1.688   8.017   7.760 -0.1898 -0.3522 -0.6339
    6MOL0     C  686   1.741   8.139   7.842 -0.1055 -0.8780 -0.2333
    6MOL0     C  687   1.889   8.120   7.887 -0.0144 -1.1573 -0.9089
    6MOL0     C  688   1.941   8.256   7.940 -0.2903  0.2473  0.1080
    6MOL0     C  689   2.086   8.244   7.991  0.8855 -1.0573 -1.0876
    6MOL0     C  690   2.124   8.368   8.052 -0.3451  0.0228 -1.6916
    6MOL0     C  691   2.277   8.368   8.100  0.6852 -0.3863 -0.3688
    6MOL0     N  692   2.312   8.251   8.177  0.5047 -0.1066 -0.3746
    6MOL0     C  693   2.294   8.232   8.306 -1.6719  0.8274  0.3320
    6MOL0     C  694   2.353   8.117   8.332 -0.0975  0.4303 -0.0008
    6MOL0     C  695   2.371   8.069   8.474  0.2968 -0.0630 -0.8745
    6MOL0     C  696   2.480   8.151   8.544 -0.1349 -0.5036  0.1173
    6MOL0     C  697   2.617   8.110   8.489  0.4909 -0.0332  0.2038
    6MOL0     C  698   2.716   8.221   8.529  0.5913  0.8717  0.9355
    6MOL0     O  699   2.746   8.190   8.675  0.4417 -0.1603  0.8355
    6MOL0     C  700   2.869   8.221   8.719  0.4242 -0.3670  0.5664
    6MOL0     C  701   2.907   8.206   8.851 -0.3704  0.4335  0.0521
    6MOL0     C  702   3.031   8.243   8.913  0.7822 -0.0835 -0.4992
    6MOL0     C  703   3.132   8.293   8.835  0.3329  0.2760 -0.6606
    6MOL0     C  704   3.259   8.331   8.891  0.3818  0.0730  0.3721
    6MOL0     O  705   3.259   8.356   9.027  0.0273 -0.2902 -0.0385
    6MOL0     C  706   3.378   8.385   9.091 -0.4956 -0.0267  0.3030
    6MOL0     C  707   3.504   8.330   9.047 -1.4647 -0.0380  0.9196
    6MOL0     C  708   3.629   8.368   9.112  0.6187  0.1339 -0.0375
    6MOL0     C  709   3.623   8.457   9.223  0.5791  0.9049  0.7364
    6MOL0     O  710   3.735   8.512   9.283  0.1131 -0.3218 -1.0218
    6MOL0     C  711   3.857   8.488   9.217  0.6917  0.5706 -0.5165
    6MOL0     C  712   3.980   8.546   9.283 -0.3429  0.2632 -0.7898
    6MOL0     C  713   4.118   8.512   9.213  0.0412 -0.3322  0.3720
    6MOL0     C  714   4.118   8.513   9.060 -0.4612  0.1353 -0.4656
    6MOL0     C  715   4.250   8.533   8.984 -0.4037 -0.1164 -0.0188
    6MOL0     C  716   4.344   8.426   9.023 -0.0308 -0.4066  0.4546
    6MOL0     C  717   4.480   8.446   8.947  0.1853  0.7652 -0.2879
    6MOL0     C  718   4.568   8.553   9.015 -0.3686  0.7162  0.6139
    6MOL0    Cl  719   4.569   8.511   9.186 -0.1262 -0.2166  0.1623
    6MOL0     C  720   3.494   8.488   9.273 -1.0161  0.2363  0.0782
    6MOL0     C  721   3.376   8.452   9.211  0.7465 -0.2308  0.0022
    6MOL0     O  722   3.349   8.357   8.815  0.8471  0.5319  0.2243
    6MOL0     C  723   3.094   8.320   8.702  0.8166 -0.1409  0.8433
    6MOL0     C  724   2.967   8.291   8.639 -0.3437 -0.0649 -0.4950
    6MOL0     N  725   2.408   8.069   8.218  0.6446  0.2624 -0.7536
    6MOL0     N  726   2.373   8.145   8.120 -0.3313 -0.3123  0.2548
    6MOL0     C  727   1.314   7.798   7.665 -0.6351  0.1894  0.2260
    6MOL0     C  728   1.176   7.791   7.677 -0.0735  0.4701 -0.0452
    6MOL0     C  729   0.735   7.921   7.630  0.8036 -0.1711  0.4648
    6MOL0     C  730   0.709   7.813   7.545  0.5770  0.0508  0.6295
    6MOL0     C  731   0.581   7.768   7.525  0.0273  0.4290  0.7301
    6MOL0     C  732   0.472   7.828   7.585  0.4662 -0.4271  0.4052
    6MOL0     O  733   0.352   7.781   7.551  0.5676 -0.3124  0.3033
    6MOL0     C  734   0.241   7.828   7.621 -0.0684  1.3065 -0.5878
    6MOL0     C  735   0.112   7.754   7.562  0.3241  0.4394  0.0167
    6MOL0     C  736   0.052   7.849   7.459  0.7115  0.2977 -0.2525
    6MOL0     C  737  -0.088   7.808   7.413  0.2193  0.2136 -0.1686
    6MOL0     C  738  -0.187   7.791   7.522 -0.0989 -0.4153 -0.1763
    6MOL0     C  739  -0.279   7.774   7.597  0.8615  0.5303  0.2221
    6MOL0     C  740   0.495   7.932   7.675 -0.5168 -1.0782  0.0628
    6MOL0     C  741   0.626   7.982   7.696 -0.3783 -0.2530 -0.4566
    6MOL0     C  742   0.644   8.095   7.788 -1.0762 -0.2497 -0.4833
    6MOL0     H  743   1.101   8.078   7.518  1.3218  0.6921 -1.8030
    6MOL0     H  744   1.348   8.105   7.526 -0.3435 -0.7288 -2.0305
    6MOL0     H  745   1.562   8.133   7.626 -1.1018  1.6315  1.4626
    6MOL0     H  746   1.484   8.075   7.776  0.7831  2.3370  0.1064
    6MOL0     H  747   1.759   7.978   7.686  2.9126  0.8487  1.4635
    6MOL0     H  748   1.672   7.934   7.830  0.8870  1.2785  1.6835
    6MOL0     H  749   1.674   8.165   7.925 -0.3695  0.0344 -0.7230
    6MOL0     H  750   1.737   8.220   7.770  0.9535  0.0291  0.6891
    6MOL0     H  751   1.877   8.041   7.961 -3.3398  1.1217  1.2676
    6MOL0     H  752   1.957   8.089   7.807  0.0473  1.8404 -2.1800
    6MOL0     H  753   1.937   8.336   7.865  1.9397  1.3331  1.0515
    6MOL0     H  754   1.877   8.292   8.020  0.4726  0.6309  0.5619
    6MOL0     H  755   2.103   8.160   8.058  0.5861 -0.5716 -0.3941
    6MOL0     H  756   2.146   8.222   7.902  0.0937 -0.2300 -1.8466
    6MOL0     H  757   2.066   8.394   8.141  0.2702 -0.2294 -1.2072
    6MOL0     H  758   2.093   8.450   7.987 -3.9347  0.9766  0.9341
    6MOL0     H  759   2.328   8.379   8.004 -0.3405  1.1603 -0.7703
    6MOL0     H  760   2.292   8.457   8.163 -2.4775 -0.0500  0.1086
    6MOL0     H  761   2.262   8.312   8.373  0.6663  1.3410  0.9146
    6MOL0     H  762   2.278   8.083   8.530  0.3577 -5.2938  1.1565
    6MOL0     H  763   2.390   7.961   8.484  0.8028  0.0471 -0.6523
    6MOL0     H  764   2.455   8.256   8.527  1.4661 -0.3752 -1.7815
    6MOL0     H  765   2.478   8.138   8.653  0.8464 -1.6147  0.0248
    6MOL0     H  766   2.617   8.092   8.381 -1.3042 -2.1348  0.4746
    6MOL0     H  767   2.637   8.012   8.533  0.8869 -0.5758 -1.1290
    6MOL0     H  768   2.672   8.320   8.513  1.5877  1.0087 -1.2888
    6MOL0     H  769   2.805   8.209   8.466  1.6637 -2.8503  2.8561
    6MOL0     H  770   2.831   8.182   8.925 -0.9920  3.9637  0.7551
    6MOL0     H  771   3.048   8.228   9.019 -0.3582 -1.1930 -0.4528
    6MOL0     H  772   3.501   8.263   8.962 -0.0862  0.0402  0.7866
    6MOL0     H  773   3.722   8.331   9.071  1.7270  1.6498  1.0103
    6MOL0     H  774   3.869   8.380   9.224 -1.2961  0.3083 -0.4653
    6MOL0     H  775   3.841   8.512   9.112 -0.2814 -0.3870 -0.6001
    6MOL0     H  776   3.969   8.655   9.289 -0.0943  0.1982  2.4136
    6MOL0     H  777   3.989   8.505   9.384  1.9024 -1.9699 -1.8000
    6MOL0     H  778   4.199   8.580   9.241 -0.6001  1.1296 -1.1879
    6MOL0     H  779   4.151   8.410   9.236  2.3362 -0.7023 -3.7680
    6MOL0     H  780   4.059   8.600   9.027  3.7427  3.8022  0.7511
    6MOL0     H  781   4.069   8.424   9.019  0.7380 -0.1177 -1.4212
    6MOL0     H  782   4.295   8.632   9.000 -1.0451 -0.0800  1.6789
    6MOL0     H  783   4.240   8.523   8.875  0.2716  0.0413 -0.1006
    6MOL0     H  784   4.340   8.427   9.133 -3.0084  0.1982  0.4438
    6MOL0     H  785   4.300   8.335   8.980 -1.4072 -0.1888  1.3425
    6MOL0     H  786   4.462   8.469   8.842  3.6564  1.3721 -0.8650
    6MOL0     H  787   4.531   8.350   8.950  0.2344  0.6794 -2.5214
    6MOL0     H  788   4.669   8.551   8.973 -0.1695  1.3673  1.0443
    6MOL0     H  789   4.539   8.658   9.000 -1.1397  0.6932  1.8094
    6MOL0     H  790   3.493   8.538   9.369 -1.8217 -2.8869  1.8256
    6MOL0     H  791   3.286   8.487   9.260 -0.3710 -2.3116 -0.4796
    6MOL0     H  792   3.167   8.384   8.653 -0.2123  0.5331  0.1615
    6MOL0     H  793   2.965   8.337   8.540  1.6017 -1.0990 -1.0723
    6MOL0     H  794   1.382   7.733   7.719  0.0679  2.0719  1.7189
    6MOL0     H  795   1.144   7.700   7.726  0.6133  0.4439  0.3659
    6MOL0     H  796   0.792   7.770   7.490  0.1632  2.4622 -2.0777
    6MOL0     H  797   0.567   7.682   7.460 -3.5196  1.1524  0.3461
    6MOL0     H  798   0.226   7.937   7.617  2.0245  1.7055  1.0255
    6MOL0     H  799   0.264   7.797   7.723  1.8870 -3.8443 -2.2734
    6MOL0     H  800   0.039   7.740   7.642  0.0449  0.0121 -0.3147
    6MOL0     H  801   0.127   7.653   7.525  0.9196  0.1808  0.9362
    6MOL0     H  802   0.118   7.855   7.372  0.7404 -3.0359 -0.5973
    6MOL0     H  803   0.045   7.952   7.495 -1.5000  0.5506 -1.2238
    6MOL0     H  804  -0.129   7.884   7.347  0.5058  0.8259  0.3477
    6MOL0     H  805  -0.074   7.714   7.358  3.5098  0.9614 -0.8320
    6MOL0     H  806  -0.368   7.738   7.644  0.1205 -2.1609 -2.8809
    6MOL0     H  807   0.418   7.984   7.730 -0.6895  0.4854 -1.5590
    6MOL0     H  808   0.673   8.188   7.739  1.5045  0.0987  1.4695
    6MOL0     H  809   0.548   8.111   7.839 -1.1699 -2.8673  0.3204
    6MOL0     H  810   0.720   8.074   7.864 -0.7734 -1.3310 -1.0597
    7MOL0     O  811   2.948   4.076   5.707 -0.2028  0.3944 -0.0656
    7MOL0     C  812   2.936   4.024   5.819  0.0073 -0.1575  0.4800
    7MOL0     O  813   3.030   4.010   5.915  0.5035 -0.1649  0.2821
    7MOL0     C  814   3.166   4.049   5.908 -0.0442  0.5649 -0.3637
    7MOL0     C  815   3.232   4.066   6.030  0.6657 -0.0354  0.0691
    7MOL0     C  816   3.361   4.106   6.038 -0.1182 -0.3070  0.6614
    7MOL0     C  817   3.442   4.113   5.921 -0.6844 -0.1880 -0.4708
    7MOL0     O  818   3.574   4.152   5.942  0.6065 -0.2950 -0.5523
    7MOL0     C  819   3.648   4.182   5.821 -0.7007 -0.5376  0.6003
    7MOL0     C  820   3.790   4.221   5.862  0.0588  0.2252 -0.2071
    7MOL0     C  821   3.865   4.100   5.926 -0.7050 -0.4442 -0.1450
    7MOL0     C  822   4.025   4.123   5.941 -0.2942 -0.0024 -0.2429
    7MOL0     C  823   4.110   4.157   5.817 -0.5373 -0.3329  0.5480
    7MOL0     C  824   4.086   4.060   5.701  0.2216 -0.7836 -0.4748
    7MOL0     C  825   4.169   4.074   5.576 -0.6315 -0.3773 -1.1346
    7MOL0     C  826   4.322   4.053   5.603 -0.2173 -0.0888  0.2469
    7MOL0     N  827   4.400   4.022   5.484 -0.2836  0.6263 -1.0538
    7MOL0     C  828   4.409   4.100   5.375  0.3083 -0.5817 -0.3376
    7MOL0     C  829   4.510   4.050   5.302  0.0437  0.2868 -0.0558
    7MOL0     C  830   4.554   4.111   5.181  0.9930  0.1293  0.7406
    7MOL0     C  831   4.701   4.106   5.161 -0.2411  0.0167 -0.3773
    7MOL0     C  832   4.774   4.195   5.261  0.4157  0.8188  0.1863
    7MOL0     C  833   4.922   4.220   5.220 -0.4142 -0.4646 -0.2927
    7MOL0     O  834   4.983   4.093   5.215  0.1271 -0.5905 -0.7674
    7MOL0     C  835   5.107   4.090   5.157 -0.4133  0.4818  0.2607
    7MOL0     C  836   5.149   3.965   5.100  0.0894  0.7096 -0.4316
    7MOL0     C  837   5.271   3.960   5.028  0.4954 -0.2677  0.8105
    7MOL0     C  838   5.349   4.073   5.019 -0.1515  0.0924 -0.2220
    7MOL0     C  839   5.481   4.071   4.951  1.1703  0.2962  0.7876
    7MOL0     O  840   5.561   4.172   4.972 -0.4884  0.2752  0.7676
    7MOL0     C  841   5.689   4.166   4.910  0.2473 -0.2024  0.3087
    7MOL0     C  842   5.721   4.142   4.776  0.1165 -0.0926 -0.7850
    7MOL0     C  843   5.856   4.133   4.734 -0.0546 -0.7776 -0.9234
    7MOL0     C  844   5.964   4.156   4.825 -0.2312  0.2932 -0.3827
    7MOL0     O  845   6.084   4.161   4.767 -0.3858 -0.7219  0.3463
    7MOL0     C  846   6.203   4.188   4.850  1.0903  1.0351  0.2377
    7MOL0     C  847   6.318   4.176   4.749 -0.2464  0.0888 -0.3407
    7MOL0     C  848   6.462   4.160   4.787 -0.0822  0.5383  0.6200
    7MOL0     C  849   6.559   4.125   4.670 -0.5048 -0.0201  0.2385
    7MOL0     C  850   6.697   4.069   4.701  0.2332 -0.6887  0.0153
    7MOL0     C  851   6.782   4.155   4.788 -0.4327  0.3017 -0.7850
    7MOL0     C  852   6.928   4.126   4.781 -0.4322  0.3464 -0.1292
    7MOL0     C  853   6.994   4.182   4.654  0.1233 -0.3417  0.9489
    7MOL0    Cl  854   7.009   4.357   4.635  0.4374  0.0481  0.4390
    7MOL0     C  855   5.935   4.189   4.960  0.4098  0.0465 -0.9106
    7MOL0     C  856   5.798   4.191   4.996 -0.6417 -0.1270  0.9976
    7MOL0     O  857   5.510   3.969   4.892  0.3965  0.3304  0.4358
    7MOL0     C  858   5.312   4.186   5.080 -0.6745 -0.4689 -0.5495
    7MOL0     C  859   5.196   4.196   5.157 -0.4616 -0.0596  0.5288
    7MOL0     N  860   4.538   3.920   5.351  0.3913  0.3024 -0.3343
    7MOL0     N  861   4.459   3.911   5.463 -0.3422 -0.0640 -0.0500
    7MOL0     C  862   3.377   4.094   5.797 -0.5499 -0.5137  0.0934
    7MOL0     C  863   3.243   4.059   5.795  0.2321  0.2773 -0.3624
    7MOL0     C  864   2.809   3.956   5.849 -0.0589  0.1152  0.3126
    7MOL0     C  865   2.812   3.854   5.950 -0.2569  0.6130  0.6349
    7MOL0     C  866   2.695   3.782   5.975 -0.4304 -0.0267  0.5138
    7MOL0     C  867   2.581   3.809   5.894 -0.9998 -1.1645 -0.0987
    7MOL0     O  868   2.479   3.720   5.929  1.0429 -0.9756  0.0909
    7MOL0     C  869   2.364   3.725   5.840  0.5083 -0.3778 -0.4289
    7MOL0     C  870   2.400   3.663   5.696  0.5248 -0.1987  0.4683
    7MOL0     C  871   2.436   3.515   5.719 -0.2117 -0.1660  0.5171
    7MOL0     C  872   2.582   3.501   5.761  0.1345 -0.1828  0.0484
    7MOL0     C  873   2.634   3.401   5.672 -0.5558 -0.3063  0.2736
    7MOL0     C  874   2.695   3.330   5.591 -0.6581  0.3527  0.7770
    7MOL0     C  875   2.576   3.918   5.806 -0.8775 -0.7588  0.3858
    7MOL0     C  876   2.689   3.995   5.781  0.0193 -0.9707  0.5433
    7MOL0     C  877   2.673   4.107   5.686  0.7504 -0.0176  0.1822
    7MOL0     H  878   3.166   4.053   6.115 -1.8812  0.2971 -1.7671
    7MOL0     H  879   3.416   4.128   6.129  1.5070  1.6978 -0.7042
    7MOL0     H  880   3.665   4.094   5.759  4.0038  1.6891 -1.7750
    7MOL0     H  881   3.604   4.246   5.744  0.1913 -2.8719 -2.0240
    7MOL0     H  882   3.764   4.295   5.937 -4.6564 -1.0994 -0.2332
    7MOL0     H  883   3.840   4.275   5.781 -0.8277  0.2555 -0.7525
    7MOL0     H  884   3.851   4.011   5.862  3.3189 -0.1721 -1.7511
    7MOL0     H  885   3.830   4.085   6.028  0.5916 -0.6454  0.2884
    7MOL0     H  886   4.042   4.201   6.016  1.0711 -0.3318 -0.1818
    7MOL0     H  887   4.068   4.032   5.983 -1.6886 -1.4161 -1.7421
    7MOL0     H  888   4.099   4.260   5.783 -0.3337 -0.2646  0.6877
    7MOL0     H  889   4.211   4.156   5.859 -0.7399 -0.5649  1.0373
    7MOL0     H  890   4.102   3.961   5.745  0.8668 -0.0732  0.9725
    7MOL0     H  891   3.981   4.073   5.670  1.0443  0.5731 -2.9972
    7MOL0     H  892   4.150   4.164   5.517 -1.5177 -0.8517 -1.5916
    7MOL0     H  893   4.140   3.986   5.518 -1.0211 -0.7488 -0.3920
    7MOL0     H  894   4.363   4.140   5.656 -2.0957  0.9705  0.0223
    7MOL0     H  895   4.332   3.965   5.667 -2.1640 -0.2947  0.3188
    7MOL0     H  896   4.358   4.192   5.352 -0.3941 -1.2136 -1.3824
    7MOL0     H  897   4.495   4.067   5.100 -1.5942 -0.9979  3.0521
    7MOL0     H  898   4.530   4.218   5.184  0.5017  0.0359  0.3264
    7MOL0     H  899   4.747   4.010   5.186  2.5792  0.8702 -1.8370
    7MOL0     H  900   4.740   4.141   5.065  1.3292 -0.1500  0.1703
    7MOL0     H  901   4.783   4.155   5.363  0.8595 -0.7185 -0.4381
    7MOL0     H  902   4.718   4.289   5.268 -2.5499 -0.6870 -1.6463
    7MOL0     H  903   4.968   4.283   5.297 -0.3630 -1.4802  0.5355
    7MOL0     H  904   4.926   4.280   5.129 -1.5302 -0.1985 -0.1839
    7MOL0     H  905   5.076   3.884   5.098 -2.2828  2.7366 -1.2300
    7MOL0     H  906   5.298   3.877   4.963 -2.5391 -0.3577 -0.4699
    7MOL0     H  907   5.629   4.133   4.718 -2.5449  2.4573  2.5728
    7MOL0     H  908   5.884   4.106   4.633 -0.5152  1.4196 -1.6932
    7MOL0     H  909   6.190   4.285   4.900  2.6438  1.0431  0.6824
    7MOL0     H  910   6.204   4.103   4.919  2.4028  0.3673 -0.5663
    7MOL0     H  911   6.295   4.082   4.697 -0.9585 -1.4518  2.5125
    7MOL0     H  912   6.318   4.260   4.679  1.3370 -0.4563 -1.0312
    7MOL0     H  913   6.494   4.253   4.834  0.0468 -0.0017  1.6457
    7MOL0     H  914   6.478   4.081   4.861 -1.1478 -1.1812 -0.8888
    7MOL0     H  915   6.556   4.216   4.610 -1.4673 -1.2781 -1.7340
    7MOL0     H  916   6.520   4.043   4.609 -0.1614  1.4567 -2.0758
    7MOL0     H  917   6.740   4.058   4.602 -1.7320  1.8500 -1.2663
    7MOL0     H  918   6.679   3.973   4.749  0.1112 -0.1264  1.1384
    7MOL0     H  919   6.759   4.257   4.756 -0.1676  0.9598  1.0080
    7MOL0     H  920   6.751   4.152   4.893  1.8768  0.1471 -0.0403
    7MOL0     H  921   6.945   4.019   4.793  2.9222  0.6317 -1.2868
    7MOL0     H  922   6.975   4.175   4.866 -0.4582 -1.4104  0.9395
    7MOL0     H  923   7.092   4.135   4.642 -0.3148 -0.7018 -2.0513
    7MOL0     H  924   6.933   4.146   4.570  0.3554  1.4987 -0.0634
    7MOL0     H  925   6.010   4.212   5.034 -1.1872 -0.5465  0.9724
    7MOL0     H  926   5.777   4.216   5.100  0.0009  2.1336  0.6316
    7MOL0     H  927   5.371   4.277   5.079 -2.3210  0.6686  0.5271
    7MOL0     H  928   5.174   4.295   5.196 -0.5701 -0.8093  2.4818
    7MOL0     H  929   3.427   4.104   5.701  0.9336  3.3867  1.0989
    7MOL0     H  930   3.204   4.045   5.695 -2.3138  0.2596  0.5546
    7MOL0     H  931   2.893   3.816   6.011  0.7092 -3.3650 -2.6582
    7MOL0     H  932   2.696   3.710   6.057  1.5205  0.4110  0.9124
    7MOL0     H  933   2.317   3.823   5.841  3.7068  1.3125 -1.2522
    7MOL0     H  934   2.287   3.660   5.882 -0.8064 -1.2748 -3.8939
    7MOL0     H  935   2.475   3.722   5.643 -1.3947  0.5978 -1.4836
    7MOL0     H  936   2.312   3.660   5.632  1.9252 -1.1989 -1.5412
    7MOL0     H  937   2.408   3.479   5.619  2.2279 -1.6941  0.3012
    7MOL0     H  938   2.373   3.465   5.793 -1.2803  0.3334 -0.0303
    7MOL0     H  939   2.636   3.594   5.738  0.5626 -0.2686  0.6812
    7MOL0     H  940   2.599   3.480   5.866 -0.2237  0.5937  0.2708
    7MOL0     H  941   2.742   3.268   5.518 -1.6930  0.0170  0.3768
    7MOL0     H  942   2.482   3.955   5.766 -1.3787 -0.6516  1.5992
    7MOL0     H  943   2.731   4.196   5.713  0.2453  1.6931 -3.7347
    7MOL0     H  944   2.697   4.067   5.587  1.8151 -2.3337  1.2943
    7MOL0     H  945   2.568   4.138   5.687  0.9962  0.9238  2.0415
    8MOL0     O  946   8.281   6.883   1.390 -0.2914 -0.2394 -1.2779
    8MOL0     C  947   8.207   6.857   1.481 -0.9993 -0.1470  0.4272
    8MOL0     O  948   8.230   6.773   1.591  0.2391  0.1605 -0.2916
    8MOL0     C  949   8.362   6.719   1.604  0.7597 -0.4057 -0.3160
    8MOL0     C  950   8.478   6.792   1.586 -0.3779 -0.6862 -0.7832
    8MOL0     C  951   8.603   6.725   1.595  0.1337 -0.8981 -0.6621
    8MOL0     C  952   8.607   6.586   1.627  0.2499 -0.5832 -0.3924
    8MOL0     O  953   8.724   6.528   1.662  0.1729 -0.5743 -0.0831
    8MOL0     C  954   8.842   6.578   1.596 -0.2183 -0.4787 -0.2198
    8MOL0     C  955   8.974   6.509   1.643 -0.0394 -0.1978  1.1131
    8MOL0     C  956   9.088   6.546   1.548  0.7425 -0.8388 -0.8156
    8MOL0     C  957   9.142   6.679   1.593  1.1878  0.0189  0.1068
    8MOL0     C  958   9.270   6.720   1.504 -0.3924 -0.3871  0.3798
    8MOL0     C  959   9.388   6.630   1.516 -0.0502 -0.5323 -0.1882
    8MOL0     C  960   9.503   6.693   1.440  0.1541 -0.4149 -0.4054
    8MOL0     C  961   9.610   6.595   1.459  0.3035 -0.1313 -0.0384
    8MOL0     N  962   9.741   6.619   1.405 -0.1971  0.0255  0.4942
    8MOL0     C  963   9.787   6.721   1.324  0.5386  0.6918 -0.0783
    8MOL0     C  964   9.916   6.692   1.297 -0.3209  0.1776  0.5812
    8MOL0     C  965  10.021   6.786   1.233  0.3341 -0.4837  0.1329
    8MOL0     C  966  10.173   6.767   1.264  0.5220  1.0810 -1.1991
    8MOL0     C  967  10.213   6.641   1.185 -0.1921  0.2903  0.1460
    8MOL0     C  968  10.367   6.614   1.197  0.8476  0.6103 -0.0741
    8MOL0     O  969  10.394   6.493   1.125 -0.2381 -1.2295 -0.2514
    8MOL0     C  970  10.523   6.459   1.097 -0.2995  0.2071  0.4377
    8MOL0     C  971  10.640   6.526   1.133 -0.6840  0.7940 -0.0060
    8MOL0     C  972  10.768   6.469   1.107  0.3790 -0.0517 -1.0845
    8MOL0     C  973  10.781   6.354   1.038  0.0259  0.3554 -0.0328
    8MOL0     C  974  10.916   6.302   1.006  0.7994  0.1878 -0.2768
    8MOL0     O  975  11.011   6.399   1.016 -0.4073  0.4936  0.9088
    8MOL0     C  976  11.137   6.371   1.059 -0.2191  0.4406 -0.6736
    8MOL0     C  977  11.196   6.463   1.148 -0.2629 -0.4520 -0.3897
    8MOL0     C  978  11.327   6.435   1.197  0.1792  0.0161  0.1158
    8MOL0     C  979  11.401   6.326   1.145 -0.3722  0.7619 -0.5300
    8MOL0     O  980  11.527   6.309   1.186  0.1293  0.7204 -0.6501
    8MOL0     C  981  11.621   6.206   1.136  0.1133  0.2664 -0.7759
    8MOL0     C  982  11.755   6.252   1.159 -0.3889  0.3041 -0.0612
    8MOL0     C  983  11.784   6.265   1.303 -0.1930 -0.4280 -0.3118
    8MOL0     C  984  11.940   6.278   1.315 -0.4768 -0.5955  0.9103
    8MOL0     C  985  11.990   6.252   1.457 -0.9397  0.9315  0.1359
    8MOL0     C  986  12.128   6.315   1.481 -0.4197 -0.1899 -0.7554
    8MOL0     C  987  12.235   6.256   1.389  0.2326  0.1323 -0.0974
    8MOL0     C  988  12.377   6.290   1.432 -1.1796  0.3673  0.4786
    8MOL0    Cl  989  12.494   6.247   1.300  0.5882 -0.7829  0.2231
    8MOL0     C  990  11.340   6.240   1.050  0.3142 -0.1895  0.6576
    8MOL0     C  991  11.215   6.266   1.004  0.1956  0.1187 -0.0953
    8MOL0     O  992  10.942   6.183   0.987  0.1322 -0.5289 -0.0233
    8MOL0     C  993  10.667   6.286   0.998  0.5828 -0.2355  0.4737
    8MOL0     C  994  10.541   6.336   1.032 -0.7882  0.3655  0.1147
    8MOL0     N  995   9.946   6.571   1.355  0.3716  1.2370 -0.1615
    8MOL0     N  996   9.838   6.529   1.425  0.0365  0.1454 -0.4134
    8MOL0     C  997   8.486   6.516   1.630 -0.2301  0.0781 -0.6764
    8MOL0     C  998   8.363   6.582   1.623 -0.7610  0.0615 -0.1975
    8MOL0     C  999   8.074   6.925   1.472 -0.6339 -0.4585  0.1879
    8MOL0     C 1000   7.974   6.878   1.560 -0.1040  0.3619  0.2413
    8MOL0     C 1001   7.838   6.921   1.549  0.1845  0.5726  0.2763
    8MOL0     C 1002   7.804   7.026   1.457 -0.4499 -0.1741 -1.0175
    8MOL0     O 1003   7.676   7.085   1.449 -0.9686  0.6570  0.1749
    8MOL0     C 1004   7.592   7.052   1.562  0.3983  0.7852  0.4506
    8MOL0     C 1005   7.457   7.112   1.553  0.0082 -0.0952 -0.4823
    8MOL0     C 1006   7.410   7.128   1.414  0.8401 -0.1588  1.2480
    8MOL0     C 1007   7.257   7.156   1.424  0.2461  0.3954 -0.3328
    8MOL0     C 1008   7.199   7.259   1.517 -0.8278 -0.4171 -1.1586
    8MOL0     C 1009   7.136   7.342   1.589 -0.5730  1.2288 -0.1959
    8MOL0     C 1010   7.904   7.066   1.379 -0.2157 -0.1342  0.2653
    8MOL0     C 1011   8.034   7.021   1.381  0.0860  0.6898  0.2487
    8MOL0     C 1012   8.125   7.114   1.305 -0.6388 -0.1497 -0.5347
    8MOL0     H 1013   8.477   6.899   1.571  5.2976 -0.5561 -2.1747
    8MOL0     H 1014   8.695   6.784   1.598 -0.5369  0.1557 -0.3633
    8MOL0     H 1015   8.829   6.576   1.488 -0.0132 -1.9020 -0.2444
    8MOL0     H 1016   8.858   6.681   1.630 -0.3061  0.3031 -2.4422
    8MOL0     H 1017   8.954   6.401   1.638 -0.5196 -0.0829  0.4582
    8MOL0     H 1018   8.988   6.535   1.748  0.6961  0.1525  0.9318
    8MOL0     H 1019   9.056   6.538   1.444 -2.2166  0.4748 -0.0896
    8MOL0     H 1020   9.172   6.476   1.557  0.6279 -0.6999  2.5011
    8MOL0     H 1021   9.059   6.750   1.582  0.8940 -0.1270  1.2409
    8MOL0     H 1022   9.176   6.674   1.697  0.9758 -0.5262  0.1514
    8MOL0     H 1023   9.245   6.722   1.397  0.6427  0.9984  0.1342
    8MOL0     H 1024   9.291   6.826   1.524 -2.0089  0.3906 -1.6123
    8MOL0     H 1025   9.402   6.621   1.624  2.0046  0.3749 -0.3312
    8MOL0     H 1026   9.362   6.533   1.474  2.3180 -2.1352  1.8311
    8MOL0     H 1027   9.534   6.792   1.477  0.2033  0.8596 -3.5573
    8MOL0     H 1028   9.482   6.708   1.334  0.5093 -0.0409 -0.4284
    8MOL0     H 1029   9.614   6.571   1.565 -1.9763 -1.5671 -0.1898
    8MOL0     H 1030   9.580   6.506   1.402 -0.1549  0.8386 -1.3607
    8MOL0     H 1031   9.742   6.816   1.294 -1.3435 -0.0739  0.2036
    8MOL0     H 1032  10.014   6.778   1.124  0.6109 -1.6509  0.1865
    8MOL0     H 1033   9.984   6.886   1.257 -2.4554 -1.5018  0.4121
    8MOL0     H 1034  10.230   6.857   1.237  1.1362  0.4966 -1.8827
    8MOL0     H 1035  10.193   6.757   1.371  2.3300 -0.9154 -1.6655
    8MOL0     H 1036  10.184   6.646   1.080 -0.1299 -3.5321 -0.2052
    8MOL0     H 1037  10.164   6.549   1.220  1.9141  0.7219  5.1063
    8MOL0     H 1038  10.388   6.593   1.302  3.6852 -0.2900 -0.7255
    8MOL0     H 1039  10.425   6.697   1.157  1.9658  0.0688  0.3897
    8MOL0     H 1040  10.630   6.614   1.196 -2.0967 -0.7926  2.1512
    8MOL0     H 1041  10.853   6.532   1.130  0.8706 -1.5886  1.8065
    8MOL0     H 1042  11.146   6.555   1.175  0.7094  0.8800 -2.8837
    8MOL0     H 1043  11.375   6.501   1.269 -0.4626  1.4536 -0.7421
    8MOL0     H 1044  11.599   6.114   1.189  2.3506  1.0387  1.7307
    8MOL0     H 1045  11.609   6.172   1.032  0.4268 -4.9311  0.6207
    8MOL0     H 1046  11.817   6.173   1.117  1.8318  0.9503  1.7943
    8MOL0     H 1047  11.774   6.343   1.100  1.8374  0.1906  0.4013
    8MOL0     H 1048  11.740   6.358   1.339 -0.7094 -1.2493  1.2533
    8MOL0     H 1049  11.743   6.183   1.363  0.0549  0.8474  1.6913
    8MOL0     H 1050  11.971   6.378   1.284  1.0656 -1.1203  0.6767
    8MOL0     H 1051  11.978   6.207   1.241 -0.4934 -0.7630  1.0619
    8MOL0     H 1052  11.996   6.145   1.475 -2.2228  0.3808 -2.3051
    8MOL0     H 1053  11.924   6.291   1.535  1.6461  0.4825  2.7163
    8MOL0     H 1054  12.118   6.421   1.457 -0.9641  0.1067  0.7003
    8MOL0     H 1055  12.152   6.312   1.587  0.9042 -0.5885 -1.0432
    8MOL0     H 1056  12.226   6.293   1.287  0.8035 -2.2708 -1.1110
    8MOL0     H 1057  12.221   6.147   1.385  2.1272 -0.1051 -1.9819
    8MOL0     H 1058  12.397   6.396   1.455 -1.6179  0.9063 -1.4172
    8MOL0     H 1059  12.406   6.233   1.521 -2.4423  0.7370  1.1581
    8MOL0     H 1060  11.382   6.143   1.028  0.8565  0.1489  0.1731
    8MOL0     H 1061  11.172   6.198   0.931 -1.1025 -1.5021  2.0546
    8MOL0     H 1062  10.678   6.193   0.944  1.6119 -0.3390  0.8391
    8MOL0     H 1063  10.455   6.275   1.006  0.0579 -0.7115 -0.2362
    8MOL0     H 1064   8.486   6.408   1.644  0.2689  0.0928 -0.5270
    8MOL0     H 1065   8.267   6.533   1.637 -0.8830 -0.5597 -2.7255
    8MOL0     H 1066   7.995   6.787   1.616  1.4483  0.3475 -0.3209
    8MOL0     H 1067   7.757   6.870   1.600  0.9085 -0.0735  0.8096
    8MOL0     H 1068   7.639   7.086   1.655  0.8130  0.8802  0.2072
    8MOL0     H 1069   7.566   6.946   1.558 -0.1117  0.9418 -0.8648
    8MOL0     H 1070   7.463   7.215   1.592 -2.4656  0.1348 -0.5695
    8MOL0     H 1071   7.391   7.057   1.621  0.5971  1.1590  1.1893
    8MOL0     H 1072   7.430   7.047   1.344 -0.8025 -0.3577  0.9782
    8MOL0     H 1073   7.463   7.212   1.368  0.5538 -0.3471  0.5628
    8MOL0     H 1074   7.229   7.186   1.323 -1.4258 -2.4818 -0.8269
    8MOL0     H 1075   7.208   7.061   1.446 -0.5134  0.9681  0.5535
    8MOL0     H 1076   7.085   7.422   1.639 -0.3693  1.5077 -0.4387
    8MOL0     H 1077   7.884   7.149   1.313  0.6168  0.2691  0.5033
    8MOL0     H 1078   8.141   7.072   1.205 -0.9602 -2.4896  0.3484
    8MOL0     H 1079   8.090   7.217   1.290 -0.3923 -0.1433 -1.1356
    8MOL0     H 1080   8.225   7.128   1.347  0.9127 -0.4666 -3.7819
    9MOL0     O 1081  10.749   6.315  10.766 -0.1179  0.1984 -0.2582
    9MOL0     C 1082  10.683   6.366  10.855  0.4963 -1.0104 -0.2395
    9MOL0     O 1083  10.706   6.489  10.910 -0.2846 -0.2926 -0.1003
    9MOL0     C 1084  10.838   6.520  10.897 -0.3980  0.5863 -0.3669
    9MOL0     C 1085  10.940   6.451  10.971  0.7471 -0.1364  0.0692
    9MOL0     C 1086  11.073   6.493  10.951  0.8777  0.3049  0.0224
    9MOL0     C 1087  11.107   6.597  10.881  0.3125 -0.8910  0.5666
    9MOL0     O 1088  11.240   6.629  10.871  0.0951 -0.5188  0.2256
    9MOL0     C 1089  11.299   6.597  10.753 -1.0056 -0.4441  0.0347
    9MOL0     C 1090  11.341   6.458  10.741  0.4102  0.9318  0.2806
    9MOL0     C 1091  11.408   6.437  10.608  0.4807  0.3224 -0.4921
    9MOL0     C 1092  11.469   6.297  10.609  0.6615  0.2536  0.3961
    9MOL0     C 1093  11.538   6.256  10.477 -0.5176  0.7932 -0.2751
    9MOL0     C 1094  11.666   6.339  10.448 -0.4615 -0.5266  0.4643
    9MOL0     C 1095  11.783   6.292  10.535  0.0235  0.2545  1.0584
    9MOL0     C 1096  11.874   6.200  10.457  0.4918  0.8551 -0.0307
    9MOL0     N 1097  11.986   6.156  10.541 -0.0110 -0.7161  0.1075
    9MOL0     C 1098  11.982   6.061  10.636 -0.5960  0.2971 -0.4059
    9MOL0     C 1099  12.093   6.074  10.714 -0.6897  0.0472 -0.1013
    9MOL0     C 1100  12.136   6.003  10.847  0.6122  0.1688 -0.1714
    9MOL0     C 1101  12.175   5.855  10.816  0.4605 -0.4560 -0.1304
    9MOL0     C 1102  12.278   5.809  10.922  0.1729 -0.4259 -0.7170
    9MOL0     C 1103  12.425   5.842  10.885 -0.0737 -0.8116  0.2924
    9MOL0     O 1104  12.498   5.848  11.006 -0.0447 -0.7913 -0.2245
    9MOL0     C 1105  12.637   5.843  10.996 -0.4316 -0.1487  0.1889
    9MOL0     C 1106  12.701   5.865  10.879 -0.4637 -0.0233  0.5362
    9MOL0     C 1107  12.838   5.868  10.878  0.5624  0.0420  0.4706
    9MOL0     C 1108  12.912   5.846  10.999 -0.9779  0.0390 -0.5784
    9MOL0     C 1109  13.060   5.839  10.998 -0.3077  0.7245 -0.3434
    9MOL0     O 1110  13.123   5.824  11.117 -0.5018  0.1202 -0.0101
    9MOL0     C 1111  13.263   5.822  11.095 -0.0826  0.0570  0.3977
    9MOL0     C 1112  13.331   5.936  11.061  0.0086  0.1810 -0.4175
    9MOL0     C 1113  13.466   5.940  11.071  0.2398 -0.5259  0.6627
    9MOL0     C 1114  13.538   5.827  11.112  0.1932 -0.0834  0.0838
    9MOL0     O 1115  13.676   5.835  11.112 -0.2979  0.1074 -0.1279
    9MOL0     C 1116  13.738   5.963  11.142 -0.2815 -0.1705 -0.5495
    9MOL0     C 1117  13.800   5.937  11.275 -0.7547  0.1821 -0.6580
    9MOL0     C 1118  13.892   6.049  11.307 -0.7160  0.2775  0.2391
    9MOL0     C 1119  13.939   6.027  11.453 -0.1566  0.3220  0.5446
    9MOL0     C 1120  14.016   6.142  11.502  0.4420 -0.7828  0.6340
    9MOL0     C 1121  14.055   6.113  11.651 -0.3596 -0.9049  0.3536
    9MOL0     C 1122  14.135   6.233  11.710  0.0568  0.2788  0.0811
    9MOL0     C 1123  14.155   6.237  11.870 -0.2397 -0.1318  0.2713
    9MOL0    Cl 1124  13.998   6.213  11.963  0.0721  0.0423 -0.4733
    9MOL0     C 1125  13.465   5.710  11.143 -1.1981  0.1643 -0.4497
    9MOL0     C 1126  13.328   5.710  11.134  0.7632 -0.0463  0.1128
    9MOL0     O 1127  13.114   5.858  10.886 -0.6855 -0.4871 -0.0480
    9MOL0     C 1128  12.836   5.823  11.116 -0.3613  0.1130  0.9541
    9MOL0     C 1129  12.702   5.831  11.119  0.0518  1.0136  0.1277
    9MOL0     N 1130  12.157   6.182  10.660 -0.1206 -0.2048 -0.4353
    9MOL0     N 1131  12.095   6.232  10.558  0.1488  0.4375 -0.1982
    9MOL0     C 1132  11.005   6.663  10.807 -0.7554 -0.4446 -0.7655
    9MOL0     C 1133  10.877   6.622  10.817  0.2153  0.1550 -0.6176
    9MOL0     C 1134  10.564   6.293  10.914  0.0963 -0.3966 -0.4596
    9MOL0     C 1135  10.594   6.161  10.955 -0.0684 -0.9996 -0.5878
    9MOL0     C 1136  10.499   6.079  11.019  0.3943 -0.1048  0.3968
    9MOL0     C 1137  10.363   6.128  11.046 -0.0990  0.4248 -0.2663
    9MOL0     O 1138  10.271   6.037  11.101  0.1460  0.8874 -0.0896
    9MOL0     C 1139  10.136   6.074  11.087  0.3457  0.0766 -0.6895
    9MOL0     C 1140  10.053   5.952  11.133 -0.2776  0.3039 -0.1484
    9MOL0     C 1141  10.058   5.946  11.282  0.6548  0.1805  0.3295
    9MOL0     C 1142  10.013   5.815  11.335  0.1719  0.2627  0.8389
    9MOL0     C 1143  10.005   5.822  11.482  0.7756 -0.4745  0.1652
    9MOL0     C 1144   9.993   5.844  11.598  0.1480  0.5135 -0.4289
    9MOL0     C 1145  10.340   6.265  11.012  0.2197  1.3864  0.9002
    9MOL0     C 1146  10.432   6.343  10.942  0.2054  0.5606  0.2493
    9MOL0     C 1147  10.391   6.487  10.908  0.0965 -0.3914  0.0615
    9MOL0     H 1148  10.922   6.373  11.045 -2.4217 -0.7422 -1.1711
    9MOL0     H 1149  11.148   6.444  11.013  1.1553  1.7707  0.9063
    9MOL0     H 1150  11.235   6.618  10.666 -0.3742  0.5298 -0.2054
    9MOL0     H 1151  11.388   6.660  10.749 -1.6551  0.4429 -2.7907
    9MOL0     H 1152  11.255   6.393  10.756  1.2314 -0.5704 -1.1769
    9MOL0     H 1153  11.418   6.443  10.817  1.4389  3.5907 -0.1098
    9MOL0     H 1154  11.476   6.521  10.591  0.5292  0.4850  0.4451
    9MOL0     H 1155  11.340   6.449  10.523 -0.1422  0.3511  0.0046
    9MOL0     H 1156  11.539   6.292  10.692 -1.9587 -0.7192  2.7060
    9MOL0     H 1157  11.389   6.229  10.640  0.1413  1.7362  2.5217
    9MOL0     H 1158  11.564   6.150  10.483  3.9439  1.7439  0.4166
    9MOL0     H 1159  11.455   6.263  10.406 -0.8552  1.3992  0.1722
    9MOL0     H 1160  11.691   6.341  10.342  1.4338 -0.2286  0.8695
    9MOL0     H 1161  11.647   6.445  10.468 -0.6212 -0.7264  1.4243
    9MOL0     H 1162  11.741   6.246  10.625 -1.2539 -2.0362 -0.6091
    9MOL0     H 1163  11.852   6.369  10.571  3.5962 -2.8972  1.5795
    9MOL0     H 1164  11.823   6.108  10.427  1.6400 -0.8707  2.8592
    9MOL0     H 1165  11.921   6.258  10.377  1.0282  0.9726  0.3646
    9MOL0     H 1166  11.898   5.994  10.653 -0.2646  0.5008  2.4808
    9MOL0     H 1167  12.215   6.065  10.892  0.4001  1.6560 -1.7214
    9MOL0     H 1168  12.064   6.008  10.929  1.3662 -0.8523  0.5660
    9MOL0     H 1169  12.079   5.802  10.817 -0.7788  1.6128 -1.3081
    9MOL0     H 1170  12.220   5.836  10.718  1.3806 -1.0934  0.4017
    9MOL0     H 1171  12.271   5.702  10.941  0.6344 -0.4819 -0.8691
    9MOL0     H 1172  12.257   5.853  11.020  1.0619  1.2251 -1.2305
    9MOL0     H 1173  12.442   5.940  10.840 -1.0417 -0.6960  0.1672
    9MOL0     H 1174  12.460   5.771  10.810  0.2707  0.7500 -1.0739
    9MOL0     H 1175  12.663   5.879  10.778  2.9714  1.3414 -0.6980
    9MOL0     H 1176  12.899   5.876  10.789  0.5626  1.9661  0.5921
    9MOL0     H 1177  13.275   6.026  11.039 -0.1652  0.5169  1.2730
    9MOL0     H 1178  13.515   6.033  11.043  1.9994 -1.2378  1.2182
    9MOL0     H 1179  13.812   5.995  11.068 -1.2078  3.9934  0.0862
    9MOL0     H 1180  13.668   6.046  11.147  0.1604  0.3471 -2.4912
    9MOL0     H 1181  13.718   5.925  11.346  0.3112 -1.4736  0.3541
    9MOL0     H 1182  13.859   5.845  11.278  1.5246  1.5760  1.5452
    9MOL0     H 1183  13.970   6.051  11.231 -1.2031  0.5777 -0.2558
    9MOL0     H 1184  13.843   6.146  11.302  1.4599  1.3664 -2.1103
    9MOL0     H 1185  13.996   5.934  11.448 -2.8692 -1.3956 -0.6254
    9MOL0     H 1186  13.853   6.018  11.521  2.2494  1.7889  4.0762
    9MOL0     H 1187  13.948   6.227  11.509  1.6291  0.2816 -0.4402
    9MOL0     H 1188  14.097   6.177  11.438  1.5226  0.5412  2.6170
    9MOL0     H 1189  13.985   6.073  11.725 -1.4058 -1.9037 -1.1246
    9MOL0     H 1190  14.140   6.044  11.642  0.6635 -0.0519  2.7227
    9MOL0     H 1191  14.084   6.325  11.683  2.0670  1.4192 -0.0187
    9MOL0     H 1192  14.230   6.228  11.657 -0.1676 -2.1415 -0.2274
    9MOL0     H 1193  14.229   6.161  11.896 -0.1685 -0.5774 -1.1109
    9MOL0     H 1194  14.202   6.333  11.892 -0.8278  0.8349 -2.3178
    9MOL0     H 1195  13.528   5.627  11.170  3.5757  4.1998  2.6628
    9MOL0     H 1196  13.266   5.627  11.166  0.6337  0.4599  1.2247
    9MOL0     H 1197  12.878   5.791  11.211 -0.5226  0.8591  1.2787
    9MOL0     H 1198  12.646   5.823  11.211 -1.9280  0.6069 -1.0583
    9MOL0     H 1199  11.024   6.741  10.733  1.5467 -1.2417 -1.1124
    9MOL0     H 1200  10.799   6.678  10.767 -0.1065 -0.0640 -0.3672
    9MOL0     H 1201  10.691   6.125  10.924 -0.8436 -2.9965 -0.9094
    9MOL0     H 1202  10.522   5.973  11.019 -2.7295 -0.9669 -2.4544
    9MOL0     H 1203  10.105   6.106  10.988 -0.6660  2.4582  0.3311
    9MOL0     H 1204  10.108   6.165  11.141  0.4649 -0.7243  0.7699
    9MOL0     H 1205  10.094   5.861  11.088 -0.9661  1.3209 -3.0474
    9MOL0     H 1206   9.949   5.954  11.098 -1.2923  0.4105  2.6733
    9MOL0     H 1207   9.995   6.027  11.320 -0.4056 -0.0008 -0.9626
    9MOL0     H 1208  10.161   5.965  11.312  0.4602  2.6162 -0.2844
    9MOL0     H 1209   9.918   5.794  11.285  0.7652 -0.3721 -0.0598
    9MOL0     H 1210  10.085   5.738  11.305  1.8982  1.8848  0.6281
    9MOL0     H 1211   9.997   5.865  11.703  0.6216  1.1246 -0.5623
    9MOL0     H 1212  10.245   6.314  11.033 -1.6263  0.9912 -4.7539
    9MOL0     H 1213  10.429   6.556  10.985 -2.4554  1.2815 -0.0403
    9MOL0     H 1214  10.439   6.520  10.816 -0.0689 -0.6803 -0.1289
    9MOL0     H 1215  10.286   6.515  10.918  0.1683 -0.3034  0.6480
   10MOL0     O 1216   3.772  10.938   3.756 -0.2593 -0.7569  0.2024
   10MOL0     C 1217   3.852  10.864   3.692 -0.3916 -0.1941  0.0976
   10MOL0     O 1218   3.970  10.903   3.634  0.4399  0.5506 -0.7636
   10MOL0     C 1219   4.030  11.017   3.666  0.3680 -0.0418 -1.2726
   10MOL0     C 1220   4.128  11.063   3.575  0.0628 -0.0330  0.1778
   10MOL0     C 1221   4.195  11.184   3.589  0.8102 -0.6728 -0.2346
   10MOL0     C 1222   4.181  11.262   3.705 -0.0488 -0.0630  0.8190
   10MOL0     O 1223   4.264  11.380   3.720  0.7032  0.8387 -0.3703
   10MOL0     C 1224   4.233  11.458   3.829  1.2838  0.5868 -0.1182
   10MOL0     C 1225   4.305  11.598   3.815  0.4129  0.5484 -0.4527
   10MOL0     C 1226   4.443  11.572   3.857 -1.1728 -0.7696 -0.4933
   10MOL0     C 1227   4.514  11.705   3.861  0.4682  0.7126 -0.2612
   10MOL0     C 1228   4.659  11.681   3.900 -1.2673 -0.7173  0.1132
   10MOL0     C 1229   4.730  11.815   3.911 -0.3948 -1.0961  0.0592
   10MOL0     C 1230   4.889  11.819   3.924  0.1907  0.1236 -0.2460
   10MOL0     C 1231   4.934  11.763   4.063  0.3038 -0.5655  0.0414
   10MOL0     N 1232   5.064  11.813   4.103 -0.5363 -0.6985  0.4204
   10MOL0     C 1233   5.185  11.794   4.037 -0.5667  0.2681 -0.4089
   10MOL0     C 1234   5.275  11.872   4.107  0.0357 -0.0890 -0.0653
   10MOL0     C 1235   5.417  11.888   4.071  0.7244 -0.2490 -0.0609
   10MOL0     C 1236   5.500  11.970   4.168  0.1837 -0.2725  0.2020
   10MOL0     C 1237   5.513  11.914   4.303 -0.2152 -0.2515  0.5030
   10MOL0     C 1238   5.659  11.909   4.354 -0.7081  0.0860 -1.2341
   10MOL0     O 1239   5.722  11.790   4.307 -0.1187  0.5077  0.3090
   10MOL0     C 1240   5.844  11.808   4.252 -0.1977 -0.3746  0.5841
   10MOL0     C 1241   5.874  11.793   4.119  0.7339  0.2546  0.5650
   10MOL0     C 1242   6.001  11.813   4.066  0.3245 -0.3034  0.8500
   10MOL0     C 1243   6.110  11.848   4.149  1.0633  0.6104  0.1661
   10MOL0     C 1244   6.243  11.865   4.090  0.6807 -0.2049 -0.2223
   10MOL0     O 1245   6.354  11.900   4.167 -0.4632  0.3328 -0.3202
   10MOL0     C 1246   6.479  11.899   4.109 -0.5373 -0.4990 -0.5522
   10MOL0     C 1247   6.523  11.821   4.006 -0.5744  0.2967  0.6292
   10MOL0     C 1248   6.652  11.846   3.942 -0.4961 -0.2508 -0.1316
   10MOL0     C 1249   6.743  11.936   3.992  1.0001 -0.2402  0.6407
   10MOL0     O 1250   6.873  11.946   3.934  0.6131  0.3142  0.0198
   10MOL0     C 1251   6.968  12.027   4.006  0.9925 -0.0018 -0.0867
   10MOL0     C 1252   7.102  12.035   3.940  0.3319 -0.6178  0.2558
   10MOL0     C 1253   7.170  12.169   3.974 -0.8907 -0.5549  0.3489
   10MOL0     C 1254   7.309  12.149   3.893 -0.9703  0.1539  0.1468
   10MOL0     C 1255   7.400  12.268   3.914 -0.3095  0.1661  0.1961
   10MOL0     C 1256   7.539  12.262   3.844 -0.1386 -0.3754 -0.1306
   10MOL0     C 1257   7.620  12.391   3.886  0.0042 -0.1724  0.3911
   10MOL0     C 1258   7.738  12.415   3.787 -0.3369 -0.6669  0.5301
   10MOL0    Cl 1259   7.856  12.285   3.763  0.1538  0.2234  0.1634
   10MOL0     C 1260   6.696  12.018   4.101  0.4581 -0.2579  0.4749
   10MOL0     C 1261   6.567  12.003   4.152  0.1269 -0.0708 -0.4661
   10MOL0     O 1262   6.247  11.851   3.969  0.0352  0.7937  0.4159
   10MOL0     C 1263   6.078  11.877   4.286  1.2608 -0.0602 -0.1067
   10MOL0     C 1264   5.948  11.851   4.339  0.4838 -0.1205  0.2769
   10MOL0     N 1265   5.203  11.942   4.207  0.0235  0.9695 -0.8939
   10MOL0     N 1266   5.078  11.909   4.197  0.0789  0.5465 -0.4602
   10MOL0     C 1267   4.086  11.210   3.801 -0.7649  0.2942  0.1384
   10MOL0     C 1268   4.013  11.096   3.779  0.0667  0.1939 -0.5775
   10MOL0     C 1269   3.800  10.728   3.660 -0.2151 -0.0269  0.4238
   10MOL0     C 1270   3.702  10.679   3.746 -0.4841  1.1161 -0.1504
   10MOL0     C 1271   3.644  10.555   3.729  0.1543 -0.2885 -0.1597
   10MOL0     C 1272   3.689  10.465   3.628  1.2866 -0.3246 -0.7517
   10MOL0     O 1273   3.639  10.335   3.604 -0.3054 -0.2635  0.8418
   10MOL0     C 1274   3.549  10.277   3.700  0.0349 -0.4615 -0.2116
   10MOL0     C 1275   3.505  10.134   3.667 -0.2863  0.2111  0.3230
   10MOL0     C 1276   3.472  10.067   3.799 -0.5861  0.4518 -1.2306
   10MOL0     C 1277   3.388   9.937   3.780  0.2119 -1.0750 -0.8000
   10MOL0     C 1278   3.243   9.968   3.764  0.4987 -0.0491 -0.2068
   10MOL0     C 1279   3.127   9.991   3.727 -0.3168 -0.3838 -0.3489
   10MOL0     C 1280   3.787  10.519   3.539  1.5858  0.1162 -0.4950
   10MOL0     C 1281   3.845  10.650   3.553 -0.7642  1.2212  0.5346
   10MOL0     C 1282   3.936  10.679   3.435  0.1850 -0.2470  0.9535
   10MOL0     H 1283   4.151  11.008   3.484  2.7411  1.7701 -0.3879
   10MOL0     H 1284   4.269  11.223   3.520  3.0320 -0.3453  2.1812
   10MOL0     H 1285   4.126  11.479   3.820  0.6599 -2.6662 -2.3527
   10MOL0     H 1286   4.246  11.405   3.924 -0.2081  0.7724  0.2151
   10MOL0     H 1287   4.254  11.676   3.874 -1.1732  0.1851 -1.2803
   10MOL0     H 1288   4.294  11.641   3.715  1.9028 -1.5737 -1.6032
   10MOL0     H 1289   4.498  11.508   3.788 -0.9948  0.2083 -1.2771
   10MOL0     H 1290   4.456  11.527   3.956 -2.6995 -1.0472 -0.3950
   10MOL0     H 1291   4.503  11.768   3.772 -2.1148  1.0147  0.1785
   10MOL0     H 1292   4.471  11.770   3.938  0.2399 -0.1602  0.3664
   10MOL0     H 1293   4.671  11.619   3.990 -1.7796  0.7167  1.2034
   10MOL0     H 1294   4.703  11.626   3.817 -0.3644  2.5474 -1.7490
   10MOL0     H 1295   4.726  11.866   3.814 -2.5149 -1.3453 -0.0290
   10MOL0     H 1296   4.674  11.884   3.974 -0.3866  1.7125 -2.7436
   10MOL0     H 1297   4.927  11.922   3.918 -2.6860  1.4374  1.7474
   10MOL0     H 1298   4.933  11.752   3.850  0.2345 -3.7478  2.9905
   10MOL0     H 1299   4.860  11.806   4.132  2.8533  1.8192  1.4719
   10MOL0     H 1300   4.941  11.654   4.060  1.8143 -0.5249  1.1262
   10MOL0     H 1301   5.220  11.733   3.954  1.1913  3.8684 -2.5699
   10MOL0     H 1302   5.476  11.797   4.052  1.5211  0.3250 -0.4173
   10MOL0     H 1303   5.407  11.938   3.975 -3.0755 -1.6834 -0.5820
   10MOL0     H 1304   5.603  11.982   4.131  0.9978 -3.3986  1.1020
   10MOL0     H 1305   5.472  12.075   4.181  1.4022 -0.1008  1.7528
   10MOL0     H 1306   5.474  11.812   4.306  1.6533 -0.9928  1.8756
   10MOL0     H 1307   5.458  11.977   4.373 -3.5240 -3.8036  1.4441
   10MOL0     H 1308   5.668  11.907   4.463  2.1004 -2.2645 -1.3705
   10MOL0     H 1309   5.713  12.001   4.330  3.2486 -0.3585  4.2057
   10MOL0     H 1310   5.804  11.759   4.043  2.4760 -2.0921 -0.1362
   10MOL0     H 1311   6.008  11.797   3.959  3.1970  0.1890  0.8845
   10MOL0     H 1312   6.470  11.733   3.971 -0.6010  0.7552 -0.5396
   10MOL0     H 1313   6.676  11.773   3.866  1.4497 -0.1001  0.2876
   10MOL0     H 1314   6.933  12.130   4.016  1.5204 -0.0561  3.6538
   10MOL0     H 1315   6.994  11.985   4.103 -1.9055  1.5787  1.4738
   10MOL0     H 1316   7.154  11.942   3.966 -1.1200 -1.8526 -0.9961
   10MOL0     H 1317   7.076  12.024   3.834 -0.8431  2.2734  0.1489
   10MOL0     H 1318   7.123  12.259   3.934 -0.5272  0.4697  2.1290
   10MOL0     H 1319   7.196  12.175   4.080  2.9740  2.7344 -0.5499
   10MOL0     H 1320   7.293  12.144   3.785 -0.1547 -0.4477  0.0530
   10MOL0     H 1321   7.356  12.059   3.932 -0.6875 -0.2735 -1.1370
   10MOL0     H 1322   7.410  12.284   4.022 -0.1575  6.9766 -0.3942
   10MOL0     H 1323   7.330  12.344   3.877  0.2765  0.5453 -0.1559
   10MOL0     H 1324   7.589  12.173   3.882  2.0255  0.8633  0.0484
   10MOL0     H 1325   7.516  12.264   3.737 -0.1653  0.4347 -0.1183
   10MOL0     H 1326   7.663  12.390   3.986  3.0908  1.4649 -0.7924
   10MOL0     H 1327   7.558  12.480   3.873 -2.1871 -1.6859 -0.2408
   10MOL0     H 1328   7.700  12.444   3.689 -2.9194  0.3030  1.7382
   10MOL0     H 1329   7.793  12.503   3.819  0.0761  0.0688 -1.9796
   10MOL0     H 1330   6.764  12.080   4.159  0.9437 -2.4994  2.4388
   10MOL0     H 1331   6.510  12.075   4.210 -2.7586 -2.7665  0.2901
   10MOL0     H 1332   6.159  11.889   4.357 -0.3875 -3.1687  2.5437
   10MOL0     H 1333   5.930  11.883   4.441  1.2053 -1.5627  0.8856
   10MOL0     H 1334   4.068  11.266   3.892  0.3127  3.9674 -1.7168
   10MOL0     H 1335   3.944  11.063   3.856  0.9547  0.9681  0.5849
   10MOL0     H 1336   3.668  10.723   3.839 -2.1755 -0.8617  0.2626
   10MOL0     H 1337   3.584  10.523   3.814  1.9478 -2.4551  0.4124
   10MOL0     H 1338   3.460  10.339   3.716 -1.4182 -2.4292 -0.2067
   10MOL0     H 1339   3.602  10.276   3.796  0.7331 -0.0726 -0.5913
   10MOL0     H 1340   3.592  10.086   3.621  0.0070  0.6376  0.4224
   10MOL0     H 1341   3.422  10.128   3.597 -0.1342  3.0768 -0.2076
   10MOL0     H 1342   3.409  10.132   3.861 -0.6033 -0.7244  0.0283
   10MOL0     H 1343   3.567  10.049   3.850 -1.6867 -2.2440  0.0850
   10MOL0     H 1344   3.418   9.889   3.686  1.3567 -0.6823 -0.6511
   10MOL0     H 1345   3.412   9.867   3.861 -0.1954  0.7344  0.9470
   10MOL0     H 1346   3.028  10.005   3.691 -0.8851 -2.0513  0.4776
   10MOL0     H 1347   3.816  10.457   3.455  3.3070 -0.5479  0.5384
   10MOL0     H 1348   4.042  10.679   3.461  0.7772 -1.2723 -1.2274
   10MOL0     H 1349   3.918  10.609   3.352  1.7000 -0.5336  0.8465
   10MOL0     H 1350   3.909  10.780   3.401 -1.3658 -1.0266 -0.2451
   11MOL0     O 1351  10.813   9.469   2.070  0.0999  0.1617 -0.1819
   11MOL0     C 1352  10.730   9.403   2.134  0.4673  0.0718  0.3059
   11MOL0     O 1353  10.732   9.268   2.151 -0.7265  0.0920 -0.5659
   11MOL0     C 1354  10.836   9.196   2.096  0.0635 -0.1394 -0.3746
   11MOL0     C 1355  10.948   9.170   2.163  0.5496 -0.8082 -0.2944
   11MOL0     C 1356  11.061   9.096   2.108 -0.4315 -0.0110  0.6012
   11MOL0     C 1357  11.044   9.053   1.976 -0.0389 -0.1827 -0.3223
   11MOL0     O 1358  11.130   8.976   1.908 -0.4085 -0.3406 -0.6026
   11MOL0     C 1359  11.256   8.924   1.960  0.2014 -0.5330 -0.6026
   11MOL0     C 1360  11.319   8.835   1.847 -0.8173  0.1360  0.2697
   11MOL0     C 1361  11.222   8.729   1.813  0.3143  0.9213  0.6326
   11MOL0     C 1362  11.291   8.611   1.748  0.1632 -0.0259 -0.6335
   11MOL0     C 1363  11.347   8.647   1.606 -0.1356 -0.2587 -0.0107
   11MOL0     C 1364  11.387   8.532   1.519  1.1455 -0.2110 -0.2044
   11MOL0     C 1365  11.516   8.462   1.571  0.6399 -0.5206  0.3102
   11MOL0     C 1366  11.632   8.548   1.589 -1.2043  0.1323 -0.8212
   11MOL0     N 1367  11.750   8.484   1.636  0.6343 -0.1698 -0.1667
   11MOL0     C 1368  11.831   8.400   1.567 -0.3595 -0.2637  0.6244
   11MOL0     C 1369  11.930   8.361   1.660  0.2772  0.5184  0.1365
   11MOL0     C 1370  12.047   8.265   1.631 -0.0331 -0.3780 -0.7613
   11MOL0     C 1371  12.146   8.339   1.546 -0.1327 -0.5047  1.4054
   11MOL0     C 1372  12.240   8.448   1.609 -0.4285  0.0055  0.4001
   11MOL0     C 1373  12.333   8.515   1.513 -0.3440  0.2157 -0.4025
   11MOL0     O 1374  12.415   8.413   1.447 -0.9382  0.2255  0.0544
   11MOL0     C 1375  12.546   8.441   1.408  0.0251  0.5011  0.5375
   11MOL0     C 1376  12.604   8.561   1.403 -0.6285 -0.4056  0.3544
   11MOL0     C 1377  12.744   8.580   1.363  0.0891 -0.6644  0.3659
   11MOL0     C 1378  12.820   8.475   1.338  0.1024 -0.2679  0.2185
   11MOL0     C 1379  12.958   8.489   1.296 -0.0063  0.1151 -1.2379
   11MOL0     O 1380  13.027   8.595   1.335 -0.5754 -0.1733 -0.0615
   11MOL0     C 1381  13.145   8.629   1.275 -0.0891 -1.6487 -0.9762
   11MOL0     C 1382  13.219   8.718   1.352  0.3641  1.0403  0.0245
   11MOL0     C 1383  13.340   8.771   1.314  0.2209  0.4522  0.4803
   11MOL0     C 1384  13.393   8.753   1.189  0.3356  0.2779 -0.4605
   11MOL0     O 1385  13.520   8.800   1.171  0.5970  0.6989  0.1023
   11MOL0     C 1386  13.597   8.767   1.051  0.4092 -0.1880 -0.0124
   11MOL0     C 1387  13.747   8.803   1.077 -0.0603  0.0853  0.6067
   11MOL0     C 1388  13.767   8.946   1.113 -0.6180 -0.4605 -0.0230
   11MOL0     C 1389  13.911   8.991   1.101 -0.4214  0.9201  0.3520
   11MOL0     C 1390  13.941   9.135   1.144 -0.1666 -0.2790  0.4259
   11MOL0     C 1391  14.078   9.188   1.098 -0.4386  0.0638  0.6494
   11MOL0     C 1392  14.078   9.227   0.947  0.5011  0.2533 -0.8854
   11MOL0     C 1393  14.157   9.358   0.931 -0.1429 -0.5117 -0.0787
   11MOL0    Cl 1394  14.313   9.353   1.009 -0.0392  0.4711 -0.4836
   11MOL0     C 1395  13.320   8.659   1.103  0.6723  0.2217  0.0517
   11MOL0     C 1396  13.200   8.598   1.149  1.2531 -0.0950  0.7148
   11MOL0     O 1397  12.993   8.409   1.207  0.2572 -0.3752  0.4360
   11MOL0     C 1398  12.763   8.343   1.344  0.2527 -0.4238 -0.4818
   11MOL0     C 1399  12.628   8.333   1.383  0.0726 -0.3992  0.7088
   11MOL0     N 1400  11.906   8.428   1.773 -0.1106  0.9112 -0.8958
   11MOL0     N 1401  11.799   8.500   1.765 -0.3939 -0.6182 -0.1874
   11MOL0     C 1402  10.925   9.079   1.907 -0.0203  0.0923 -0.2973
   11MOL0     C 1403  10.823   9.150   1.969 -0.1845 -0.6275 -0.5397
   11MOL0     C 1404  10.611   9.476   2.188 -0.3984  0.9423 -1.7139
   11MOL0     C 1405  10.620   9.615   2.188 -0.3772 -0.6762  0.4302
   11MOL0     C 1406  10.503   9.692   2.216 -0.0591 -0.3608 -0.2802
   11MOL0     C 1407  10.383   9.638   2.267 -0.6966 -0.3308  0.0149
   11MOL0     O 1408  10.279   9.724   2.277  0.6033 -0.1442  0.1539
   11MOL0     C 1409  10.154   9.669   2.313 -0.4314 -0.1625 -0.1453
   11MOL0     C 1410  10.057   9.786   2.328 -0.2516  0.2374  0.0390
   11MOL0     C 1411  10.049   9.873   2.202  0.2883  0.8083 -0.3502
   11MOL0     C 1412   9.926   9.954   2.201  0.6421  0.9385  0.2533
   11MOL0     C 1413   9.798   9.880   2.201 -0.2772  0.2812 -0.6482
   11MOL0     C 1414   9.699   9.807   2.196  0.4104  0.0351  0.3729
   11MOL0     C 1415  10.385   9.497   2.271  0.4528  0.5341 -0.8837
   11MOL0     C 1416  10.492   9.417   2.231 -0.6677 -0.2883  0.0156
   11MOL0     C 1417  10.470   9.262   2.241 -0.4273 -0.1696  0.6473
   11MOL0     H 1418  10.943   9.199   2.268  1.0574 -1.3063 -0.1319
   11MOL0     H 1419  11.150   9.066   2.162  0.8201 -0.5568 -1.6080
   11MOL0     H 1420  11.323   9.007   1.985 -1.5289  0.4904  0.8858
   11MOL0     H 1421  11.238   8.871   2.053  1.7007  2.1533  1.3541
   11MOL0     H 1422  11.420   8.811   1.884  0.9534  5.3753 -0.3182
   11MOL0     H 1423  11.327   8.905   1.763 -1.1133  1.1021  1.0364
   11MOL0     H 1424  11.142   8.759   1.744 -0.2672  1.3290  1.4661
   11MOL0     H 1425  11.168   8.697   1.903  0.5553  0.1146  0.5021
   11MOL0     H 1426  11.369   8.566   1.811  0.4336  1.3268  0.0341
   11MOL0     H 1427  11.218   8.532   1.730  1.6236 -1.9574  1.3660
   11MOL0     H 1428  11.270   8.701   1.551 -0.6407 -1.1401 -0.1912
   11MOL0     H 1429  11.430   8.717   1.615 -0.1863 -0.2600  0.5111
   11MOL0     H 1430  11.299   8.468   1.526  0.4116  0.8925  1.6247
   11MOL0     H 1431  11.402   8.569   1.418 -0.3694 -0.3958 -0.5193
   11MOL0     H 1432  11.529   8.378   1.503 -1.7138  1.1462 -2.4563
   11MOL0     H 1433  11.497   8.408   1.664  2.4179  0.2705  1.1717
   11MOL0     H 1434  11.659   8.590   1.492  1.0756 -1.5158 -0.9758
   11MOL0     H 1435  11.614   8.623   1.667  2.9018  0.1750  0.3502
   11MOL0     H 1436  11.812   8.369   1.465  1.2383  2.2866 -0.5365
   11MOL0     H 1437  12.089   8.230   1.725 -2.4179 -1.9196 -0.1974
   11MOL0     H 1438  12.000   8.189   1.568 -2.1278  3.0483 -3.8128
   11MOL0     H 1439  12.204   8.257   1.502 -2.1513 -2.3415  2.0392
   11MOL0     H 1440  12.091   8.386   1.464  1.6936  1.0130  0.9703
   11MOL0     H 1441  12.297   8.398   1.688  0.4339  2.0668  1.1581
   11MOL0     H 1442  12.178   8.527   1.653 -0.6263  0.9778 -1.5065
   11MOL0     H 1443  12.392   8.593   1.563  0.4392 -0.5737 -0.0552
   11MOL0     H 1444  12.274   8.566   1.438  0.0153  3.4575  1.3497
   11MOL0     H 1445  12.540   8.647   1.418 -0.4943  0.1722 -2.0064
   11MOL0     H 1446  12.780   8.682   1.357 -2.5802  0.2681 -1.2717
   11MOL0     H 1447  13.163   8.751   1.439  1.8382  0.9950  1.0067
   11MOL0     H 1448  13.394   8.829   1.389  1.4707  0.5983 -0.4959
   11MOL0     H 1449  13.593   8.662   1.020  3.7354 -0.9365  1.6289
   11MOL0     H 1450  13.561   8.818   0.961  0.3547  0.7491  0.5214
   11MOL0     H 1451  13.769   8.728   1.152 -0.3949 -0.0171  0.6059
   11MOL0     H 1452  13.809   8.778   0.991 -1.2950 -1.7554  0.1992
   11MOL0     H 1453  13.703   9.007   1.048 -1.2867 -1.6540 -0.5167
   11MOL0     H 1454  13.742   8.962   1.218 -1.3470 -0.7127 -0.1505
   11MOL0     H 1455  13.938   8.977   0.996 -0.6846 -1.0670  0.5135
   11MOL0     H 1456  13.970   8.922   1.161 -1.4545 -0.9908 -0.7244
   11MOL0     H 1457  13.933   9.130   1.253 -3.6817 -0.6847  0.2659
   11MOL0     H 1458  13.865   9.209   1.117  1.5372  0.8063 -1.7266
   11MOL0     H 1459  14.095   9.278   1.157  1.7362 -1.8128  3.1820
   11MOL0     H 1460  14.155   9.111   1.111 -1.9917 -2.0699 -1.5772
   11MOL0     H 1461  13.976   9.238   0.910  0.2451 -0.4108 -0.3903
   11MOL0     H 1462  14.134   9.144   0.904 -0.3788 -1.1356  0.5399
   11MOL0     H 1463  14.170   9.361   0.823 -1.1283  0.5405 -0.1975
   11MOL0     H 1464  14.090   9.438   0.965 -1.7782 -0.7262 -2.5328
   11MOL0     H 1465  13.356   8.637   1.003 -2.5960 -2.6625 -0.6733
   11MOL0     H 1466  13.149   8.524   1.088  1.9578  0.0244 -0.0428
   11MOL0     H 1467  12.810   8.247   1.323 -0.0718 -0.8814  0.7688
   11MOL0     H 1468  12.575   8.239   1.396  0.2187 -0.9169 -1.8824
   11MOL0     H 1469  10.923   9.055   1.801 -0.1578  0.7423 -0.4479
   11MOL0     H 1470  10.730   9.169   1.915 -0.2988 -0.5753 -0.3266
   11MOL0     H 1471  10.705   9.669   2.148 -2.1752  0.4405 -2.2457
   11MOL0     H 1472  10.507   9.800   2.204 -0.7227 -0.1852  0.8458
   11MOL0     H 1473  10.158   9.612   2.407 -4.1964  0.7479  0.7296
   11MOL0     H 1474  10.128   9.601   2.231 -0.5680  0.0400 -0.2705
   11MOL0     H 1475  10.069   9.844   2.420  0.2852  1.5111 -0.7980
   11MOL0     H 1476   9.963   9.730   2.336 -0.8838  1.0782 -1.1509
   11MOL0     H 1477  10.053   9.819   2.107  1.3466 -0.2440  0.2609
   11MOL0     H 1478  10.135   9.941   2.213  0.4193  0.2081  4.5082
   11MOL0     H 1479   9.930  10.027   2.283 -1.2003  1.4414 -0.0590
   11MOL0     H 1480   9.923  10.020   2.114  1.9531  2.7024  1.4722
   11MOL0     H 1481   9.606   9.757   2.178  0.4536  0.2824 -0.5887
   11MOL0     H 1482  10.298   9.437   2.296  1.3613 -1.0247 -1.3500
   11MOL0     H 1483  10.538   9.203   2.304  1.3006 -0.3993 -1.3132
   11MOL0     H 1484  10.365   9.237   2.255 -1.1729  2.5132  0.3442
   11MOL0     H 1485  10.494   9.214   2.146 -3.2486 -0.2589 -0.1017
   12MOL0     O 1486   2.067   9.832   3.503 -0.8576 -0.3141  0.1180
   12MOL0     C 1487   2.086   9.734   3.574  0.7310  0.2908  1.1019
   12MOL0     O 1488   2.196   9.702   3.628 -0.9625  0.5593 -0.2287
   12MOL0     C 1489   2.310   9.761   3.568  0.1995  0.2615 -0.7481
   12MOL0     C 1490   2.348   9.741   3.440  0.0161  0.1311 -0.2074
   12MOL0     C 1491   2.471   9.771   3.387 -0.5761 -0.0347 -1.4124
   12MOL0     C 1492   2.570   9.817   3.478  0.9574  0.1769 -0.1524
   12MOL0     O 1493   2.701   9.845   3.445 -0.2419  0.5562 -0.4590
   12MOL0     C 1494   2.751   9.807   3.314  0.0330  0.4857  0.2541
   12MOL0     C 1495   2.906   9.810   3.320 -0.5520 -0.3380 -0.0353
   12MOL0     C 1496   2.964   9.707   3.420 -0.2454  0.7264 -0.0545
   12MOL0     C 1497   3.121   9.714   3.434  0.0831 -0.8669 -0.1226
   12MOL0     C 1498   3.175   9.620   3.538 -0.6126 -0.0218 -0.0796
   12MOL0     C 1499   3.319   9.612   3.501 -1.0453 -0.3467  0.3727
   12MOL0     C 1500   3.390   9.518   3.598 -0.4203 -0.1910  0.1901
   12MOL0     C 1501   3.538   9.487   3.569 -0.0926  0.3827  0.6842
   12MOL0     N 1502   3.600   9.405   3.676 -0.2416 -0.2755  0.7509
   12MOL0     C 1503   3.653   9.456   3.792 -0.2485  0.2310  0.2587
   12MOL0     C 1504   3.735   9.361   3.843  0.6890  0.3751 -0.5815
   12MOL0     C 1505   3.830   9.372   3.955  0.3682 -0.1864  0.9928
   12MOL0     C 1506   3.773   9.307   4.076 -0.0029  0.6511  0.2219
   12MOL0     C 1507   3.763   9.160   4.073  0.0261  0.7275 -0.0578
   12MOL0     C 1508   3.893   9.080   4.091 -0.9131 -0.7808  0.2683
   12MOL0     O 1509   3.986   9.140   4.177  0.2854 -0.3293 -0.7955
   12MOL0     C 1510   4.094   9.056   4.209 -0.1941  0.6936 -0.1119
   12MOL0     C 1511   4.059   8.925   4.259 -0.3260  1.1724 -0.1363
   12MOL0     C 1512   4.159   8.828   4.282  0.5070 -0.4916 -0.1807
   12MOL0     C 1513   4.291   8.853   4.244 -0.3128 -0.1134  0.2367
   12MOL0     C 1514   4.392   8.749   4.253  0.4533  1.2385  0.6484
   12MOL0     O 1515   4.364   8.647   4.339  0.1038  0.4577 -0.1693
   12MOL0     C 1516   4.453   8.544   4.349  0.3549 -0.0316  0.1536
   12MOL0     C 1517   4.572   8.555   4.416 -0.0198  0.6637 -0.0976
   12MOL0     C 1518   4.669   8.462   4.407  0.3695 -1.5183  0.1601
   12MOL0     C 1519   4.650   8.344   4.326 -0.7700  0.9108  0.5945
   12MOL0     O 1520   4.747   8.248   4.303 -0.1377 -0.2256  0.0446
   12MOL0     C 1521   4.828   8.213   4.422 -0.2121 -0.2102 -0.3787
   12MOL0     C 1522   4.881   8.070   4.417 -0.4016  0.6496 -0.0620
   12MOL0     C 1523   4.767   7.970   4.449  0.4243  0.4323  0.3879
   12MOL0     C 1524   4.813   7.845   4.535 -0.3278 -0.6080 -0.0036
   12MOL0     C 1525   4.699   7.760   4.577  0.1473  0.1308 -0.1917
   12MOL0     C 1526   4.746   7.658   4.678  0.6155 -0.5215  0.0961
   12MOL0     C 1527   4.858   7.569   4.627 -0.5393 -0.8298 -0.4720
   12MOL0     C 1528   4.875   7.453   4.724  0.8263  0.8033 -0.4578
   12MOL0    Cl 1529   4.963   7.494   4.876 -0.5008  0.0521 -0.0800
   12MOL0     C 1530   4.523   8.334   4.261 -0.4118  0.6896  0.0769
   12MOL0     C 1531   4.426   8.432   4.271 -0.4403 -0.8791  0.0051
   12MOL0     O 1532   4.497   8.755   4.188  0.4594 -0.3609 -0.1426
   12MOL0     C 1533   4.320   8.983   4.188 -0.2177  0.4103  0.1233
   12MOL0     C 1534   4.224   9.080   4.170 -0.2895 -0.1412  0.4421
   12MOL0     N 1535   3.717   9.254   3.764 -0.0222 -0.3423 -0.4221
   12MOL0     N 1536   3.644   9.280   3.662  0.9002 -0.0777  0.2394
   12MOL0     C 1537   2.535   9.829   3.612 -0.0888 -1.1014  0.8146
   12MOL0     C 1538   2.407   9.811   3.651  0.2195  0.0651 -0.3817
   12MOL0     C 1539   1.967   9.652   3.598  0.4768  1.5014  0.3683
   12MOL0     C 1540   1.955   9.599   3.733  0.5498 -0.2688 -0.8271
   12MOL0     C 1541   1.862   9.506   3.778  0.1083  0.9173 -0.4209
   12MOL0     C 1542   1.765   9.469   3.694  0.0656 -0.6022  0.5393
   12MOL0     O 1543   1.659   9.387   3.728  0.4698  0.0752 -0.4122
   12MOL0     C 1544   1.626   9.356   3.865 -0.4391  0.6934  0.3064
   12MOL0     C 1545   1.480   9.300   3.873 -0.3054  0.7655 -0.0351
   12MOL0     C 1546   1.459   9.180   3.782 -0.0313 -0.4881 -0.2810
   12MOL0     C 1547   1.311   9.113   3.796 -0.7468 -0.7613 -0.0765
   12MOL0     C 1548   1.293   9.013   3.693 -0.3949 -0.2674  0.1803
   12MOL0     C 1549   1.319   8.943   3.600  0.1498  0.3986 -0.4063
   12MOL0     C 1550   1.773   9.516   3.560  0.6648 -0.7918 -1.0765
   12MOL0     C 1551   1.865   9.608   3.506  0.4979 -0.0208  0.2138
   12MOL0     C 1552   1.862   9.637   3.344  0.4959  0.2661 -0.2443
   12MOL0     H 1553   2.281   9.696   3.367  0.2668  1.7658 -1.5187
   12MOL0     H 1554   2.500   9.756   3.283  0.2975  0.2809 -1.2225
   12MOL0     H 1555   2.721   9.707   3.282 -1.3178  0.3079  1.9775
   12MOL0     H 1556   2.714   9.884   3.245  3.8198  0.2365 -2.3516
   12MOL0     H 1557   2.942   9.912   3.339  2.3329 -1.4961  1.3812
   12MOL0     H 1558   2.956   9.785   3.226  3.3872  1.3088  1.3753
   12MOL0     H 1559   2.932   9.608   3.387 -0.5818  1.3170 -1.6094
   12MOL0     H 1560   2.923   9.732   3.519 -0.4273  2.1038 -0.4520
   12MOL0     H 1561   3.163   9.691   3.336  0.2237 -0.2835 -0.1988
   12MOL0     H 1562   3.147   9.818   3.453  2.4860 -1.3418 -0.4883
   12MOL0     H 1563   3.165   9.668   3.636  0.8895  1.2066 -0.4705
   12MOL0     H 1564   3.129   9.521   3.536  1.5671 -1.1602  1.5362
   12MOL0     H 1565   3.339   9.574   3.400  0.4139  0.0650  0.4862
   12MOL0     H 1566   3.362   9.712   3.503 -0.7551 -0.4786  1.7136
   12MOL0     H 1567   3.346   9.420   3.614  1.6523 -0.9106  2.0718
   12MOL0     H 1568   3.394   9.567   3.696  2.0750 -2.7824  1.5192
   12MOL0     H 1569   3.543   9.435   3.473 -0.4365  0.6933  0.4956
   12MOL0     H 1570   3.584   9.586   3.564  0.2380  0.3420  2.3467
   12MOL0     H 1571   3.630   9.554   3.831 -2.1690  1.0089 -2.4782
   12MOL0     H 1572   3.918   9.312   3.930 -1.1848 -1.7542 -1.1540
   12MOL0     H 1573   3.867   9.474   3.968  4.1699 -0.8718 -2.4830
   12MOL0     H 1574   3.847   9.331   4.152  2.8676  0.0184 -2.2041
   12MOL0     H 1575   3.675   9.345   4.107 -0.0351 -2.2996  4.7431
   12MOL0     H 1576   3.701   9.128   3.988 -2.6552 -2.0584  2.7149
   12MOL0     H 1577   3.712   9.118   4.160 -1.3649  1.1037 -0.6739
   12MOL0     H 1578   3.943   9.069   3.995 -1.6472  1.1946 -0.3808
   12MOL0     H 1579   3.869   8.977   4.122 -1.1640 -0.1837  2.1748
   12MOL0     H 1580   3.963   8.887   4.291  0.1086 -0.3953 -0.5904
   12MOL0     H 1581   4.139   8.732   4.328  1.1945 -0.8119 -0.5432
   12MOL0     H 1582   4.595   8.635   4.486 -4.6872  0.9130  1.5174
   12MOL0     H 1583   4.761   8.474   4.465 -1.4307 -0.1282  2.9633
   12MOL0     H 1584   4.920   8.271   4.407 -1.7346  1.7784 -2.8250
   12MOL0     H 1585   4.780   8.236   4.517 -0.5816  1.0856 -0.8503
   12MOL0     H 1586   4.925   8.051   4.319 -0.7351  3.3783 -0.8390
   12MOL0     H 1587   4.952   8.062   4.500  3.0037  0.9622 -2.7340
   12MOL0     H 1588   4.686   8.023   4.499 -0.8478 -1.0661  0.0043
   12MOL0     H 1589   4.720   7.925   4.361 -0.9006 -1.0227  1.7690
   12MOL0     H 1590   4.875   7.882   4.618 -2.7062 -0.2383  1.7130
   12MOL0     H 1591   4.891   7.797   4.475  0.5566  1.5158 -0.6478
   12MOL0     H 1592   4.644   7.714   4.494  2.2874 -3.3519  0.1334
   12MOL0     H 1593   4.617   7.820   4.619  0.1553  0.8743 -1.1915
   12MOL0     H 1594   4.779   7.704   4.772  2.1812 -1.4488  0.0406
   12MOL0     H 1595   4.661   7.594   4.703 -1.2493  1.4743 -0.8337
   12MOL0     H 1596   4.955   7.618   4.619  0.3390 -2.3825  0.1827
   12MOL0     H 1597   4.835   7.533   4.526  1.2525  0.3889 -1.3772
   12MOL0     H 1598   4.783   7.402   4.755  1.7573 -1.7455 -1.5912
   12MOL0     H 1599   4.938   7.388   4.663 -0.6712  0.7951 -2.0993
   12MOL0     H 1600   4.504   8.251   4.194  0.8622 -2.0996  2.9352
   12MOL0     H 1601   4.340   8.431   4.205  0.6271 -2.4000 -1.4230
   12MOL0     H 1602   4.420   9.004   4.153 -0.0455 -3.4412 -2.3181
   12MOL0     H 1603   4.252   9.174   4.125  0.1661  0.3854  1.7666
   12MOL0     H 1604   2.618   9.859   3.675  0.1957 -0.4109  0.1453
   12MOL0     H 1605   2.382   9.819   3.756 -1.5817 -1.7329 -0.5833
   12MOL0     H 1606   2.032   9.613   3.808 -1.9278  1.4649  1.5977
   12MOL0     H 1607   1.879   9.466   3.878  2.2395  1.8437 -0.3438
   12MOL0     H 1608   1.633   9.446   3.928 -1.0260 -0.7145  2.4973
   12MOL0     H 1609   1.707   9.293   3.902 -0.7506 -0.6841 -1.2559
   12MOL0     H 1610   1.412   9.379   3.839  0.7680  1.9430  0.4207
   12MOL0     H 1611   1.463   9.273   3.977 -2.0154 -1.9194 -0.9360
   12MOL0     H 1612   1.539   9.106   3.789  0.6850  0.4110  1.9266
   12MOL0     H 1613   1.458   9.224   3.682  0.2568 -1.0336 -0.5276
   12MOL0     H 1614   1.298   9.076   3.898  1.0761  0.3796  0.6215
   12MOL0     H 1615   1.235   9.191   3.784 -1.5451 -1.6584 -1.0028
   12MOL0     H 1616   1.319   8.870   3.522 -5.2255  2.3154 -2.7007
   12MOL0     H 1617   1.700   9.470   3.495 -1.6642  0.0856  0.7807
   12MOL0     H 1618   1.821   9.737   3.327  0.5932  0.4814  0.7235
   12MOL0     H 1619   1.961   9.641   3.298 -0.1240  0.6969 -1.5757
   12MOL0     H 1620   1.798   9.573   3.283 -0.7055  2.1521 -1.0303
   13MOL0     O 1621  10.238   0.562   2.911 -0.3893  0.0948  0.4901
   13MOL0     C 1622  10.217   0.444   2.908  0.1789 -0.2844  0.5640
   13MOL0     O 1623  10.300   0.352   2.950 -0.3060  0.4611 -0.0689
   13MOL0     C 1624  10.431   0.384   2.964  0.7296 -0.1264  0.2269
   13MOL0     C 1625  10.479   0.445   3.081 -0.0899 -0.2336 -0.3615
   13MOL0     C 1626  10.610   0.492   3.096 -1.0208  0.6888 -0.0493
   13MOL0     C 1627  10.698   0.487   2.980 -0.4093 -0.1717 -0.1384
   13MOL0     O 1628  10.824   0.540   2.989  0.4910  0.2387  0.1593
   13MOL0     C 1629  10.912   0.439   3.035 -0.4277 -0.4345  0.6048
   13MOL0     C 1630  11.060   0.496   3.033 -0.2862 -0.7153 -0.7599
   13MOL0     C 1631  11.082   0.614   3.130 -0.4517  0.3340  0.0428
   13MOL0     C 1632  11.060   0.580   3.278 -0.0816  0.6057 -1.0139
   13MOL0     C 1633  11.128   0.701   3.360  0.3068  0.5631  0.9666
   13MOL0     C 1634  11.120   0.670   3.509  0.1627  0.4333  0.8819
   13MOL0     C 1635  11.214   0.760   3.595 -0.4732 -0.3687 -1.0772
   13MOL0     C 1636  11.170   0.904   3.594 -0.1868 -0.0069  0.2452
   13MOL0     N 1637  11.271   0.989   3.665 -0.1540  0.3316 -0.1046
   13MOL0     C 1638  11.286   1.119   3.630  0.2873  0.2375 -0.2237
   13MOL0     C 1639  11.393   1.155   3.717 -0.1625  0.6630  0.5054
   13MOL0     C 1640  11.467   1.289   3.708 -0.4046 -0.4328  0.3902
   13MOL0     C 1641  11.508   1.347   3.840  0.6609  0.4203 -0.5588
   13MOL0     C 1642  11.611   1.461   3.833  1.4109 -0.4416  0.3634
   13MOL0     C 1643  11.629   1.549   3.955 -0.8717  0.6375 -0.0376
   13MOL0     O 1644  11.692   1.474   4.056  0.5970  0.8107 -0.3570
   13MOL0     C 1645  11.832   1.467   4.067  0.6536  0.0513  0.0671
   13MOL0     C 1646  11.887   1.418   4.193 -0.3904 -0.1297  0.1156
   13MOL0     C 1647  12.027   1.421   4.214  0.3852 -0.5964 -1.1175
   13MOL0     C 1648  12.113   1.485   4.121  0.0040  0.5059 -0.4038
   13MOL0     C 1649  12.256   1.506   4.149 -0.5416 -1.0496  0.9454
   13MOL0     O 1650  12.332   1.590   4.067 -0.1686 -0.5062 -0.3558
   13MOL0     C 1651  12.467   1.591   4.094  0.2042 -0.9419  0.9812
   13MOL0     C 1652  12.505   1.687   4.191  0.5467  0.8045 -0.7690
   13MOL0     C 1653  12.641   1.708   4.211  0.6928  0.2874 -0.2429
   13MOL0     C 1654  12.737   1.635   4.142 -0.5681 -0.4781  0.2003
   13MOL0     O 1655  12.874   1.638   4.168  0.4511 -0.2119  0.0486
   13MOL0     C 1656  12.931   1.738   4.258 -0.4680  0.0711  0.0733
   13MOL0     C 1657  13.085   1.744   4.248 -0.1567 -0.8229 -0.0312
   13MOL0     C 1658  13.123   1.796   4.110 -0.3138 -0.7871 -0.2548
   13MOL0     C 1659  13.275   1.821   4.100  0.3219 -0.7332  0.5248
   13MOL0     C 1660  13.374   1.710   4.132  0.5791  0.1651  0.4911
   13MOL0     C 1661  13.402   1.624   4.016  0.9520  0.2553 -0.4251
   13MOL0     C 1662  13.442   1.483   4.057 -0.5081  0.0442 -0.1587
   13MOL0     C 1663  13.344   1.372   4.020 -0.1797  1.0400  1.2335
   13MOL0    Cl 1664  13.188   1.389   4.108  0.3369  0.0259 -0.1537
   13MOL0     C 1665  12.692   1.542   4.041  0.4162 -0.5919 -0.4611
   13MOL0     C 1666  12.554   1.519   4.021 -0.3301 -0.1999 -0.4019
   13MOL0     O 1667  12.301   1.437   4.240 -0.7217 -0.1971 -0.2360
   13MOL0     C 1668  12.057   1.530   4.001  0.6338 -0.3844  0.9840
   13MOL0     C 1669  11.918   1.516   3.975 -0.0188 -0.2232  0.2024
   13MOL0     N 1670  11.416   1.047   3.803 -0.4352  0.4334 -0.4081
   13MOL0     N 1671  11.350   0.944   3.764  0.0992 -0.2481 -0.2738
   13MOL0     C 1672  10.646   0.435   2.860  0.8345  0.2144 -0.1158
   13MOL0     C 1673  10.516   0.385   2.853 -0.5094 -0.1640  0.1462
   13MOL0     C 1674  10.094   0.396   2.852  1.0696  0.2859  0.0825
   13MOL0     C 1675  10.041   0.286   2.924 -0.0640 -0.4908  0.2575
   13MOL0     C 1676   9.928   0.218   2.874 -0.3989 -0.8383 -0.6143
   13MOL0     C 1677   9.879   0.256   2.744 -0.0741 -0.1964 -0.7894
   13MOL0     O 1678   9.771   0.201   2.681  0.0076  0.5810 -0.6154
   13MOL0     C 1679   9.697   0.110   2.767 -0.1011  0.1895 -0.4662
   13MOL0     C 1680   9.573   0.066   2.690  0.1348 -0.0842 -0.3788
   13MOL0     C 1681   9.475   0.181   2.652 -0.6503  0.7418  0.2732
   13MOL0     C 1682   9.344   0.122   2.601 -0.0189  0.3439 -0.8947
   13MOL0     C 1683   9.265   0.044   2.691 -1.3363  0.3651 -0.9091
   13MOL0     C 1684   9.196  -0.033   2.745 -0.4465  0.8556 -0.3335
   13MOL0     C 1685   9.945   0.358   2.668  0.4701  0.0181 -0.7955
   13MOL0     C 1686  10.042   0.433   2.725 -0.3242  0.0148  0.3754
   13MOL0     C 1687  10.095   0.554   2.646 -0.2716  0.1051  0.7981
   13MOL0     H 1688  10.415   0.461   3.166  0.3675  0.0878 -0.0742
   13MOL0     H 1689  10.635   0.535   3.193 -0.2965 -0.3203  0.2398
   13MOL0     H 1690  10.884   0.411   3.137  0.6688 -0.4319  0.9252
   13MOL0     H 1691  10.906   0.340   2.989 -1.6446 -1.5028  2.8947
   13MOL0     H 1692  11.082   0.524   2.929  1.8493 -1.2618 -0.5055
   13MOL0     H 1693  11.120   0.406   3.052  1.1337 -0.0289 -1.8059
   13MOL0     H 1694  11.022   0.700   3.100 -1.9111 -1.4775 -2.7212
   13MOL0     H 1695  11.188   0.641   3.123 -0.9032  2.2374 -0.0531
   13MOL0     H 1696  10.955   0.574   3.310  0.0590 -1.3542 -0.8013
   13MOL0     H 1697  11.105   0.482   3.295 -4.4604 -1.7646 -1.4461
   13MOL0     H 1698  11.233   0.711   3.331  0.1353 -0.0462  0.0944
   13MOL0     H 1699  11.084   0.798   3.335  0.6129  0.3785 -0.3702
   13MOL0     H 1700  11.017   0.676   3.546  0.0587 -0.0500  0.6717
   13MOL0     H 1701  11.144   0.564   3.517 -3.0801 -0.5748 -1.1503
   13MOL0     H 1702  11.311   0.763   3.546  0.7772  0.6535  1.2568
   13MOL0     H 1703  11.231   0.728   3.699  2.5709  1.3504 -0.9280
   13MOL0     H 1704  11.140   0.930   3.492  0.4698  0.8597  0.2595
   13MOL0     H 1705  11.085   0.901   3.663  0.3614  2.4954  1.1112
   13MOL0     H 1706  11.241   1.185   3.558 -4.0491 -0.0568  1.8940
   13MOL0     H 1707  11.556   1.275   3.646  0.7805  1.6955  1.5110
   13MOL0     H 1708  11.404   1.358   3.651  2.7879  0.3637 -2.5059
   13MOL0     H 1709  11.419   1.384   3.891  1.5655  0.6635  0.9203
   13MOL0     H 1710  11.550   1.267   3.903  0.8053 -0.4460 -1.7246
   13MOL0     H 1711  11.572   1.519   3.748 -1.2530 -1.6978  0.6344
   13MOL0     H 1712  11.708   1.427   3.796  1.5802  1.7369 -1.4298
   13MOL0     H 1713  11.530   1.573   3.995  0.2755  1.3276  2.6306
   13MOL0     H 1714  11.678   1.645   3.938 -0.4296  0.3850 -0.2260
   13MOL0     H 1715  11.814   1.406   4.273  0.6188  1.1913  1.2774
   13MOL0     H 1716  12.066   1.390   4.310 -1.3447  1.9874  0.5331
   13MOL0     H 1717  12.437   1.746   4.251 -1.4614 -1.7034 -0.4101
   13MOL0     H 1718  12.662   1.770   4.297 -1.4255  1.2733 -0.3803
   13MOL0     H 1719  12.886   1.831   4.222  1.2504  0.4199 -1.3033
   13MOL0     H 1720  12.905   1.717   4.363 -1.8388  1.2499  0.0111
   13MOL0     H 1721  13.122   1.809   4.327 -2.2985 -0.4290  0.7108
   13MOL0     H 1722  13.128   1.644   4.258 -0.1469 -1.0342 -1.7502
   13MOL0     H 1723  13.103   1.725   4.029 -3.3593 -0.1088 -0.2215
   13MOL0     H 1724  13.069   1.889   4.092 -1.0115 -0.6870  2.0609
   13MOL0     H 1725  13.294   1.896   4.177  2.9925 -0.9556  0.1620
   13MOL0     H 1726  13.301   1.868   4.005 -1.8690  2.3614  1.2827
   13MOL0     H 1727  13.337   1.661   4.223 -1.4867  3.2030  1.4145
   13MOL0     H 1728  13.469   1.744   4.175 -1.1922  3.2784  2.3108
   13MOL0     H 1729  13.318   1.617   3.946 -1.1892  1.4187  1.8716
   13MOL0     H 1730  13.483   1.669   3.958 -1.2305  1.6463 -2.6426
   13MOL0     H 1731  13.453   1.493   4.165 -1.4496 -2.7804  0.2808
   13MOL0     H 1732  13.537   1.447   4.016  0.7323  1.6539  1.2015
   13MOL0     H 1733  13.325   1.375   3.912 -0.0184 -1.2451  1.0995
   13MOL0     H 1734  13.383   1.273   4.046  0.6333  1.8395  3.2708
   13MOL0     H 1735  12.760   1.470   3.996  2.1368  0.3427  0.5228
   13MOL0     H 1736  12.509   1.450   3.951 -1.8076  0.9314 -0.6242
   13MOL0     H 1737  12.111   1.582   3.923 -0.4888  1.6532  1.4861
   13MOL0     H 1738  11.875   1.559   3.885  1.2117  1.1561  0.2311
   13MOL0     H 1739  10.714   0.448   2.776  0.1612 -1.2627 -0.9266
   13MOL0     H 1740  10.475   0.350   2.759  1.6015  0.0611 -0.9096
   13MOL0     H 1741  10.083   0.242   3.013 -0.8595  0.4973  1.1500
   13MOL0     H 1742   9.881   0.142   2.937  1.2180 -2.1054 -0.8647
   13MOL0     H 1743   9.666   0.156   2.861  0.4374 -0.6549  0.1418
   13MOL0     H 1744   9.761   0.027   2.799  0.0781  1.6114  3.3635
   13MOL0     H 1745   9.523  -0.001   2.761  1.0462 -0.5194 -0.1310
   13MOL0     H 1746   9.606   0.011   2.601 -1.0920 -3.0449  0.8657
   13MOL0     H 1747   9.521   0.235   2.568  0.8008 -1.0262 -0.1202
   13MOL0     H 1748   9.460   0.254   2.733 -0.5199  0.3988  0.6082
   13MOL0     H 1749   9.293   0.212   2.567  1.1646  0.8537 -1.3624
   13MOL0     H 1750   9.370   0.060   2.514 -1.1221 -2.1776  0.4478
   13MOL0     H 1751   9.135  -0.107   2.793 -0.3111 -0.2837 -1.8640
   13MOL0     H 1752   9.918   0.383   2.566  1.8544  0.9098 -0.9688
   13MOL0     H 1753  10.165   0.516   2.571 -0.7091 -1.0403  0.9466
   13MOL0     H 1754  10.016   0.598   2.584 -0.2604  0.2237  0.8682
   13MOL0     H 1755  10.141   0.632   2.707  0.6368 -0.5800  1.0131
   14MOL0     O 1756   0.840   8.632  11.095 -0.2167  0.2809  0.4659
   14MOL0     C 1757   0.848   8.518  11.140 -0.9869  0.0001  0.3597
   14MOL0     O 1758   0.962   8.464  11.187 -0.2156 -0.3495  0.0752
   14MOL0     C 1759   1.073   8.539  11.204 -0.1761 -0.5426  0.5582
   14MOL0     C 1760   1.095   8.613  11.326  0.2386  0.0869  0.2211
   14MOL0     C 1761   1.215   8.686  11.340 -0.6657 -0.4015  0.5547
   14MOL0     C 1762   1.311   8.694  11.234 -0.5365 -0.2456 -0.3859
   14MOL0     O 1763   1.427   8.776  11.243 -0.0411 -0.3043 -0.3996
   14MOL0     C 1764   1.546   8.744  11.170  0.1533  0.1572 -0.2658
   14MOL0     C 1765   1.657   8.843  11.208  0.3633 -0.4938 -0.7939
   14MOL0     C 1766   1.803   8.800  11.179  0.4669  1.2051 -0.4819
   14MOL0     C 1767   1.905   8.900  11.220  0.2904  0.5561 -0.2749
   14MOL0     C 1768   2.037   8.842  11.172 -0.6033  0.1278  0.8527
   14MOL0     C 1769   2.159   8.930  11.215 -0.0369  0.4918  1.3230
   14MOL0     C 1770   2.167   9.082  11.190  0.1993 -0.4287  0.4174
   14MOL0     C 1771   2.164   9.120  11.043 -0.0009 -0.2079  0.4482
   14MOL0     N 1772   2.240   9.028  10.964 -0.5250 -0.6984 -0.6885
   14MOL0     C 1773   2.371   9.001  10.984 -0.6084 -0.3237 -0.0879
   14MOL0     C 1774   2.401   8.926  10.874 -0.8949 -0.4355  0.0608
   14MOL0     C 1775   2.533   8.855  10.843  0.0329 -0.4088  0.3296
   14MOL0     C 1776   2.604   8.892  10.716  0.3251 -0.2569 -0.7501
   14MOL0     C 1777   2.656   9.034  10.704 -0.6700  0.0526 -0.1919
   14MOL0     C 1778   2.799   9.035  10.643 -0.1673  0.2137 -0.6437
   14MOL0     O 1779   2.841   9.170  10.660 -0.9094 -0.1759  0.3694
   14MOL0     C 1780   2.976   9.195  10.679  0.3738 -0.2706  0.5479
   14MOL0     C 1781   3.079   9.102  10.681  0.6032 -0.2936  0.2435
   14MOL0     C 1782   3.208   9.137  10.663 -0.4490 -0.7929 -1.2190
   14MOL0     C 1783   3.237   9.273  10.657 -0.0121 -0.1467 -0.5057
   14MOL0     C 1784   3.384   9.328  10.663 -0.0898 -1.2156 -0.3416
   14MOL0     O 1785   3.399   9.463  10.667  1.0029 -0.2650  0.0694
   14MOL0     C 1786   3.531   9.514  10.651  0.1026  1.3296 -0.4504
   14MOL0     C 1787   3.561   9.597  10.545 -0.0483 -0.2754  0.1795
   14MOL0     C 1788   3.689   9.641  10.529 -0.6159 -0.1198 -0.1290
   14MOL0     C 1789   3.796   9.606  10.621 -0.2200  0.2770 -0.1216
   14MOL0     O 1790   3.933   9.632  10.602 -1.0509 -0.4183  0.2684
   14MOL0     C 1791   3.971   9.706  10.492 -0.8648  0.4833 -0.2468
   14MOL0     C 1792   4.128   9.730  10.480 -0.2527  0.2673 -1.0486
   14MOL0     C 1793   4.194   9.803  10.603  0.4543 -0.3854 -0.2386
   14MOL0     C 1794   4.345   9.804  10.585 -0.7822 -0.6077 -0.2192
   14MOL0     C 1795   4.422   9.859  10.701 -0.1652  0.4271  0.2759
   14MOL0     C 1796   4.573   9.867  10.656 -0.4571  0.2533  0.1837
   14MOL0     C 1797   4.658   9.894  10.784  0.0781  0.5380 -0.2184
   14MOL0     C 1798   4.805   9.911  10.732  0.0441 -0.3116 -0.1950
   14MOL0    Cl 1799   4.912   9.879  10.880 -0.1944  0.3167  0.0061
   14MOL0     C 1800   3.761   9.537  10.737 -0.4356 -0.1710 -0.0402
   14MOL0     C 1801   3.630   9.491  10.747 -0.1430  0.1661  0.4843
   14MOL0     O 1802   3.474   9.252  10.669  0.2422 -0.0513  1.1999
   14MOL0     C 1803   3.137   9.374  10.647 -0.6844  0.2031  0.4676
   14MOL0     C 1804   3.007   9.332  10.669  0.9033  0.6228  0.1632
   14MOL0     N 1805   2.288   8.902  10.800 -0.3647 -0.2203  0.5764
   14MOL0     N 1806   2.193   8.957  10.861  1.2474 -0.1097  0.3278
   14MOL0     C 1807   1.285   8.620  11.118 -0.5088  0.1567 -0.4632
   14MOL0     C 1808   1.170   8.541  11.108  0.0010 -0.6510  0.5253
   14MOL0     C 1809   0.733   8.431  11.142  1.0946  0.4814  0.0429
   14MOL0     C 1810   0.723   8.335  11.239  0.8084 -0.3998  0.3039
   14MOL0     C 1811   0.611   8.257  11.261  0.3209 -0.0145 -0.4683
   14MOL0     C 1812   0.492   8.292  11.197  0.0965 -0.5818  0.3641
   14MOL0     O 1813   0.383   8.234  11.245  0.2777 -0.4148  0.4799
   14MOL0     C 1814   0.267   8.260  11.176  0.4198  0.1481 -0.4232
   14MOL0     C 1815   0.154   8.204  11.263  0.2051 -0.7853 -0.5793
   14MOL0     C 1816   0.015   8.225  11.193  0.1035 -0.0674  0.8277
   14MOL0     C 1817  -0.073   8.334  11.251  0.5370 -0.1971  0.1037
   14MOL0     C 1818  -0.204   8.349  11.195  0.2786 -0.3175  0.6336
   14MOL0     C 1819  -0.310   8.382  11.150  1.2086  0.0890 -0.0782
   14MOL0     C 1820   0.493   8.386  11.094 -1.0202 -0.6973 -0.4170
   14MOL0     C 1821   0.615   8.449  11.066  0.8665 -0.4274  0.4310
   14MOL0     C 1822   0.605   8.543  10.956 -0.2131  0.6502  0.0649
   14MOL0     H 1823   1.022   8.610  11.407  1.0362 -2.6802  0.9587
   14MOL0     H 1824   1.228   8.730  11.439  3.8220  0.6757 -0.3236
   14MOL0     H 1825   1.568   8.643  11.204 -2.5896 -0.4985 -0.2193
   14MOL0     H 1826   1.528   8.729  11.063 -1.7961 -3.3956  0.4145
   14MOL0     H 1827   1.650   8.873  11.312  2.5241  0.3721 -0.8454
   14MOL0     H 1828   1.643   8.935  11.150  0.8584  0.0069 -0.1304
   14MOL0     H 1829   1.819   8.774  11.074  2.1441  2.3018 -0.5436
   14MOL0     H 1830   1.829   8.709  11.234  0.7426  1.0453 -0.8708
   14MOL0     H 1831   1.895   8.991  11.161 -0.1065  2.2353  2.2383
   14MOL0     H 1832   1.899   8.925  11.326 -0.1679  2.9370 -0.8113
   14MOL0     H 1833   2.052   8.738  11.202 -3.9485 -1.1846 -1.3627
   14MOL0     H 1834   2.031   8.842  11.062  0.5240  1.2080  0.7678
   14MOL0     H 1835   2.160   8.915  11.323 -1.9064  2.1677  1.6195
   14MOL0     H 1836   2.239   8.871  11.168 -2.0115 -0.4058 -1.1323
   14MOL0     H 1837   2.257   9.122  11.238  2.3520 -2.5891 -1.5299
   14MOL0     H 1838   2.077   9.131  11.227 -0.5139 -2.6138  1.7577
   14MOL0     H 1839   2.061   9.115  11.008  0.0061 -0.0115  0.3962
   14MOL0     H 1840   2.206   9.220  11.024  0.0461 -0.0060  1.5522
   14MOL0     H 1841   2.440   9.030  11.064  1.3536 -2.4374 -0.9219
   14MOL0     H 1842   2.610   8.877  10.917 -1.1869  0.8961  1.2674
   14MOL0     H 1843   2.512   8.748  10.833 -2.1740 -0.0978  1.1610
   14MOL0     H 1844   2.674   8.813  10.691 -0.4900 -1.7367  1.3879
   14MOL0     H 1845   2.523   8.892  10.642 -0.9095  1.2381  0.4944
   14MOL0     H 1846   2.688   9.075  10.800 -0.8056  0.5106 -0.3416
   14MOL0     H 1847   2.587   9.094  10.644 -0.7175 -1.9745 -2.3076
   14MOL0     H 1848   2.801   9.011  10.536 -0.0739 -0.6637 -0.4538
   14MOL0     H 1849   2.855   8.963  10.703  0.8415  2.2071  0.9359
   14MOL0     H 1850   3.048   8.998  10.674 -0.9643  0.0809  1.2304
   14MOL0     H 1851   3.297   9.074  10.663  0.9048  0.8657  1.9924
   14MOL0     H 1852   3.487   9.630  10.473  0.7589  0.2488 -0.4149
   14MOL0     H 1853   3.712   9.696  10.438  3.2214  0.8619  1.2594
   14MOL0     H 1854   3.925   9.660  10.403 -0.3559  0.3506 -0.4485
   14MOL0     H 1855   3.927   9.806  10.496 -1.0869  0.4227 -0.9676
   14MOL0     H 1856   4.173   9.633  10.459 -2.6555 -0.4206 -3.6747
   14MOL0     H 1857   4.141   9.787  10.388 -2.3113 -0.2170 -1.6920
   14MOL0     H 1858   4.150   9.902  10.621  0.3367 -0.1626 -1.6683
   14MOL0     H 1859   4.183   9.741  10.692  1.0430 -1.1268 -0.6730
   14MOL0     H 1860   4.381   9.857  10.497  3.3146  0.8429  2.0760
   14MOL0     H 1861   4.374   9.699  10.581 -0.1367 -0.4299 -0.1920
   14MOL0     H 1862   4.408   9.793  10.788 -4.5066  0.2264 -0.3315
   14MOL0     H 1863   4.380   9.954  10.737 -2.5621 -0.6657  0.5898
   14MOL0     H 1864   4.612   9.776  10.609  2.2781  1.7284 -0.5809
   14MOL0     H 1865   4.589   9.949  10.585 -0.8242 -1.1287 -1.5599
   14MOL0     H 1866   4.650   9.804  10.846 -4.0939  0.9230  0.1153
   14MOL0     H 1867   4.631   9.976  10.852 -2.1256 -0.4807  0.2414
   14MOL0     H 1868   4.824   9.849  10.644 -2.0318  1.8776 -2.3208
   14MOL0     H 1869   4.819  10.012  10.693 -0.5999  0.1536  0.7365
   14MOL0     H 1870   3.847   9.518  10.800  1.4401  2.8052 -1.4728
   14MOL0     H 1871   3.606   9.433  10.836  2.3044 -0.3519  0.8748
   14MOL0     H 1872   3.155   9.481  10.644 -0.2816  0.1544  1.0508
   14MOL0     H 1873   2.922   9.400  10.659 -1.3254 -1.5405  2.7845
   14MOL0     H 1874   1.352   8.629  11.034  0.6118  2.6640  0.5986
   14MOL0     H 1875   1.149   8.485  11.017  0.0636  0.8272 -0.4406
   14MOL0     H 1876   0.812   8.311  11.298  0.3985 -1.6942  0.4446
   14MOL0     H 1877   0.612   8.194  11.349  2.0953 -1.7506 -1.6495
   14MOL0     H 1878   0.255   8.214  11.078 -3.3710  1.3898 -0.7143
   14MOL0     H 1879   0.250   8.368  11.169 -0.4084  0.0832  0.3711
   14MOL0     H 1880   0.148   8.254  11.361  2.0053  1.5130 -1.5472
   14MOL0     H 1881   0.181   8.101  11.286 -0.3705 -0.5221  1.5528
   14MOL0     H 1882  -0.054   8.140  11.185  1.5024 -1.1590 -0.1872
   14MOL0     H 1883   0.022   8.250  11.087 -0.6320  1.1454  1.0504
   14MOL0     H 1884  -0.090   8.316  11.357  0.9649 -4.0731 -0.3376
   14MOL0     H 1885  -0.016   8.425  11.231  0.4430  0.1038  1.1668
   14MOL0     H 1886  -0.395   8.424  11.100  1.5796 -0.3324 -1.0855
   14MOL0     H 1887   0.412   8.407  11.025 -1.7347  0.3253  0.7025
   14MOL0     H 1888   0.540   8.623  10.992 -0.6380  0.8306 -1.0530
   14MOL0     H 1889   0.698   8.575  10.910 -0.1304 -0.4610 -0.5927
   14MOL0     H 1890   0.556   8.492  10.872 -0.0057  0.9316 -0.2273
   15MOL0     O 1891   2.277   4.133   6.594 -1.2110  0.2453  0.2951
   15MOL0     C 1892   2.215   4.064   6.512 -0.3038  0.1945 -0.7789
   15MOL0     O 1893   2.260   3.975   6.434 -0.6016  0.4729 -0.5297
   15MOL0     C 1894   2.393   3.944   6.447  0.0057 -0.3752 -0.2265
   15MOL0     C 1895   2.448   3.883   6.559  0.7710  0.4481  0.3214
   15MOL0     C 1896   2.580   3.838   6.560  0.0129  0.0294  0.3167
   15MOL0     C 1897   2.660   3.851   6.447 -0.2351  0.1652 -0.1332
   15MOL0     O 1898   2.783   3.789   6.453  0.0515  0.1038  0.0283
   15MOL0     C 1899   2.893   3.814   6.363  0.1835 -0.0493 -0.0064
   15MOL0     C 1900   3.020   3.744   6.404 -0.5797 -0.2159  0.8881
   15MOL0     C 1901   3.136   3.750   6.310  0.2954 -0.8436  0.5219
   15MOL0     C 1902   3.254   3.726   6.398  0.6697  0.8543  0.1562
   15MOL0     C 1903   3.376   3.711   6.317  0.6640 -0.5643 -0.3677
   15MOL0     C 1904   3.495   3.696   6.420 -0.0497 -0.1940  0.1678
   15MOL0     C 1905   3.628   3.704   6.340  0.4354 -0.0215 -0.1091
   15MOL0     C 1906   3.661   3.849   6.295 -1.3447  0.1105 -0.4907
   15MOL0     N 1907   3.803   3.866   6.271 -1.1125 -0.3775  0.1990
   15MOL0     C 1908   3.887   3.773   6.203 -0.0494 -0.0163  0.3239
   15MOL0     C 1909   4.006   3.838   6.204 -0.1916  0.2453 -1.0428
   15MOL0     C 1910   4.132   3.791   6.143  0.4108 -0.6725 -0.0984
   15MOL0     C 1911   4.142   3.640   6.176  0.2722 -0.8268 -0.2070
   15MOL0     C 1912   4.277   3.583   6.128 -0.3307  0.1909  0.5395
   15MOL0     C 1913   4.293   3.434   6.166 -0.5804  0.0381 -0.5396
   15MOL0     O 1914   4.427   3.412   6.207 -0.6299  0.8522  0.4363
   15MOL0     C 1915   4.523   3.397   6.105 -0.5932  0.1974 -1.0005
   15MOL0     C 1916   4.494   3.346   5.977  1.0223 -0.5000 -0.1578
   15MOL0     C 1917   4.589   3.337   5.881  0.2514  0.1236  0.5006
   15MOL0     C 1918   4.726   3.363   5.908  0.0793 -1.1471  0.5216
   15MOL0     C 1919   4.829   3.355   5.797  0.0780 -0.0370 -0.3410
   15MOL0     O 1920   4.795   3.299   5.674 -0.2347  1.0918 -0.3747
   15MOL0     C 1921   4.890   3.256   5.582  0.3717  0.1926 -0.8514
   15MOL0     C 1922   4.848   3.213   5.458 -0.5166 -0.0964 -0.8991
   15MOL0     C 1923   4.943   3.172   5.357  0.1095  0.1563 -0.2913
   15MOL0     C 1924   5.076   3.165   5.383  0.1620  0.0599 -0.7022
   15MOL0     O 1925   5.143   3.110   5.277  0.1079  0.0152  0.7499
   15MOL0     C 1926   5.237   3.201   5.219 -0.3319  0.4000 -0.1716
   15MOL0     C 1927   5.274   3.158   5.079  0.1271  0.4955 -0.0623
   15MOL0     C 1928   5.152   3.137   4.990  0.0406 -0.2056 -0.1813
   15MOL0     C 1929   5.106   3.267   4.928 -0.2992  0.6170  0.2549
   15MOL0     C 1930   4.982   3.241   4.836  0.3704  1.2243 -0.2604
   15MOL0     C 1931   4.856   3.258   4.923 -0.0557  0.3105 -0.0718
   15MOL0     C 1932   4.729   3.247   4.836  0.0805 -0.5264  0.0807
   15MOL0     C 1933   4.604   3.246   4.920  0.0212  0.0822 -0.0958
   15MOL0    Cl 1934   4.482   3.177   4.814 -0.2734  0.4347 -0.1411
   15MOL0     C 1935   5.125   3.203   5.511  0.5713  0.4204  0.2620
   15MOL0     C 1936   5.032   3.253   5.604  0.4002 -0.2669 -0.1806
   15MOL0     O 1937   4.934   3.413   5.826 -0.9589 -0.3290 -0.0742
   15MOL0     C 1938   4.758   3.395   6.037 -0.4212 -0.1293 -0.1836
   15MOL0     C 1939   4.662   3.407   6.135  0.4942  0.2416  0.2836
   15MOL0     N 1940   4.008   3.947   6.277  0.5642  0.4021 -0.0651
   15MOL0     N 1941   3.886   3.962   6.322  0.0395  1.1092 -0.4518
   15MOL0     C 1942   2.605   3.907   6.335 -0.6931  0.2296  0.4719
   15MOL0     C 1943   2.471   3.951   6.330  0.7701 -0.1358  0.8680
   15MOL0     C 1944   2.070   4.096   6.499 -0.0328  0.6823 -0.5702
   15MOL0     C 1945   2.043   4.222   6.465  1.1036 -0.4925  0.8055
   15MOL0     C 1946   1.906   4.276   6.452 -0.1577 -0.3450  0.1542
   15MOL0     C 1947   1.806   4.180   6.462  0.3086  0.3599  0.6887
   15MOL0     O 1948   1.679   4.226   6.446 -0.3497  0.6414  0.7065
   15MOL0     C 1949   1.565   4.170   6.502  0.2086 -0.1421 -0.5151
   15MOL0     C 1950   1.507   4.069   6.402  0.1678 -0.2075 -0.1658
   15MOL0     C 1951   1.480   4.127   6.266 -0.7925 -0.3786  0.0152
   15MOL0     C 1952   1.357   4.216   6.272  0.3300  0.4286 -0.3599
   15MOL0     C 1953   1.325   4.256   6.134 -0.0581 -0.7885  0.3138
   15MOL0     C 1954   1.327   4.274   6.013 -0.4032  0.0133  0.2275
   15MOL0     C 1955   1.833   4.048   6.504 -0.8113 -0.2643 -0.0029
   15MOL0     C 1956   1.962   4.003   6.525 -0.3685  0.7576 -0.3100
   15MOL0     C 1957   1.995   3.862   6.566 -0.5354 -0.5256 -0.1565
   15MOL0     H 1958   2.392   3.865   6.651  0.7745 -0.0466  0.2281
   15MOL0     H 1959   2.615   3.790   6.651  2.1046 -0.4582 -0.6725
   15MOL0     H 1960   2.872   3.787   6.259  1.7481 -2.7637  0.2733
   15MOL0     H 1961   2.927   3.918   6.371  0.4107 -0.2181  1.4994
   15MOL0     H 1962   2.988   3.641   6.420 -2.4970  0.4195  1.3367
   15MOL0     H 1963   3.058   3.782   6.500 -0.7307  1.4434  0.3304
   15MOL0     H 1964   3.147   3.846   6.257 -1.9517  0.3753  2.0413
   15MOL0     H 1965   3.128   3.683   6.224  0.4852  3.2576 -3.0286
   15MOL0     H 1966   3.257   3.813   6.465  0.6837 -0.3279  1.7478
   15MOL0     H 1967   3.239   3.639   6.463  1.2010  1.4148  1.0660
   15MOL0     H 1968   3.365   3.631   6.244  1.0744  1.2782 -2.5520
   15MOL0     H 1969   3.388   3.804   6.261  0.4396 -0.1870  0.1937
   15MOL0     H 1970   3.492   3.782   6.488 -0.0268  1.2524 -1.5884
   15MOL0     H 1971   3.491   3.602   6.476 -2.7056 -0.4000 -0.2284
   15MOL0     H 1972   3.628   3.651   6.244  1.1834  1.9202 -1.2258
   15MOL0     H 1973   3.697   3.661   6.413  2.7827 -2.9821 -3.6767
   15MOL0     H 1974   3.613   3.870   6.200  2.0713  0.7931 -2.2440
   15MOL0     H 1975   3.628   3.922   6.368 -4.1406 -1.5324  0.0170
   15MOL0     H 1976   3.879   3.675   6.156 -0.3759  0.4383 -0.6039
   15MOL0     H 1977   4.121   3.791   6.034 -0.1265 -1.1456 -0.0468
   15MOL0     H 1978   4.222   3.852   6.158  0.0343  0.3132 -1.5486
   15MOL0     H 1979   4.139   3.633   6.285 -2.6604 -3.1217 -0.3175
   15MOL0     H 1980   4.059   3.594   6.122  0.0507 -1.0224  0.2928
   15MOL0     H 1981   4.365   3.640   6.161  1.2025 -0.5229 -2.0307
   15MOL0     H 1982   4.288   3.591   6.020  0.8821 -2.3604  0.4068
   15MOL0     H 1983   4.254   3.359   6.097 -2.9961  1.7060 -1.1128
   15MOL0     H 1984   4.227   3.424   6.253 -0.5021 -0.4576 -0.5359
   15MOL0     H 1985   4.395   3.319   5.942  1.3000 -0.2669 -1.1532
   15MOL0     H 1986   4.581   3.300   5.779  1.2729 -2.8137  1.3594
   15MOL0     H 1987   4.744   3.203   5.428 -0.9789  1.5446 -0.0080
   15MOL0     H 1988   4.904   3.140   5.261 -1.8305 -1.6259  1.0157
   15MOL0     H 1989   5.207   3.306   5.214  1.2055  0.8215 -1.9885
   15MOL0     H 1990   5.325   3.200   5.284 -0.9594  1.3904  0.7172
   15MOL0     H 1991   5.342   3.226   5.027  3.0105 -2.6006 -0.7544
   15MOL0     H 1992   5.316   3.057   5.081 -1.6593 -0.3373 -1.3022
   15MOL0     H 1993   5.175   3.070   4.906  0.6620  2.0817 -1.9317
   15MOL0     H 1994   5.069   3.093   5.046 -1.3003  0.6471 -1.4375
   15MOL0     H 1995   5.197   3.302   4.878 -0.0505  2.9124  2.0991
   15MOL0     H 1996   5.077   3.330   5.013  1.3032 -1.8188  2.7775
   15MOL0     H 1997   4.983   3.136   4.808 -2.0545  1.2684 -0.7986
   15MOL0     H 1998   4.981   3.304   4.747 -2.9079 -1.9768 -2.7804
   15MOL0     H 1999   4.856   3.172   4.990 -0.9898 -1.0206 -1.6898
   15MOL0     H 2000   4.853   3.353   4.976 -0.3195  2.2378 -3.2850
   15MOL0     H 2001   4.735   3.149   4.788 -1.4851 -2.2742  3.1505
   15MOL0     H 2002   4.716   3.325   4.761 -2.6484 -0.9579  0.0175
   15MOL0     H 2003   4.625   3.187   5.010  2.2325  1.5341  0.4248
   15MOL0     H 2004   4.582   3.345   4.961  1.1681 -0.4450  1.9876
   15MOL0     H 2005   5.232   3.207   5.527  0.6721 -0.9419  0.0006
   15MOL0     H 2006   5.073   3.293   5.696  0.4232  0.1388 -0.3670
   15MOL0     H 2007   4.861   3.398   6.072  0.2290  0.3754 -2.0479
   15MOL0     H 2008   4.692   3.426   6.238  2.5664  4.0511 -0.8041
   15MOL0     H 2009   2.667   3.910   6.246  0.9511 -2.5172  1.4081
   15MOL0     H 2010   2.435   3.988   6.234  4.0320 -1.3579 -1.0192
   15MOL0     H 2011   2.123   4.293   6.452 -2.3929  3.5850 -0.7664
   15MOL0     H 2012   1.880   4.375   6.415  3.2058  1.1291  1.2274
   15MOL0     H 2013   1.498   4.243   6.549  3.6595  0.9576  3.2825
   15MOL0     H 2014   1.588   4.113   6.592 -0.0929 -0.4541 -0.6344
   15MOL0     H 2015   1.419   4.026   6.451  0.1105  1.2446  1.0941
   15MOL0     H 2016   1.587   3.997   6.383  0.6864  0.7427 -1.7516
   15MOL0     H 2017   1.465   4.049   6.190  2.8572 -0.7438 -0.5063
   15MOL0     H 2018   1.562   4.191   6.233 -1.9894  1.4202  0.4029
   15MOL0     H 2019   1.281   4.145   6.306  0.1781  0.3939 -0.7688
   15MOL0     H 2020   1.365   4.300   6.341 -0.5294  0.2579 -0.0422
   15MOL0     H 2021   1.334   4.282   5.907  0.5373  1.1030  0.3507
   15MOL0     H 2022   1.759   3.972   6.525 -1.9389  0.5642 -0.8827
   15MOL0     H 2023   2.056   3.852   6.657 -0.6766  1.7406  0.2608
   15MOL0     H 2024   1.907   3.799   6.580  1.1180 -2.8499  0.3479
   15MOL0     H 2025   2.050   3.816   6.484 -0.8130 -0.7043 -0.2413
   16MOL0     O 2026   7.578   1.874   5.186  0.1348  0.4925 -0.2990
   16MOL0     C 2027   7.588   1.753   5.162  0.3386  0.2616  0.1564
   16MOL0     O 2028   7.679   1.696   5.079 -0.3937 -0.4688 -0.2607
   16MOL0     C 2029   7.771   1.780   5.025  0.1042  0.5167  0.6210
   16MOL0     C 2030   7.897   1.797   5.083  0.3581  0.1523 -0.3337
   16MOL0     C 2031   7.997   1.872   5.022 -0.2129  0.3365  0.0016
   16MOL0     C 2032   7.966   1.942   4.903 -0.4993 -0.2717  0.7433
   16MOL0     O 2033   8.072   2.016   4.846  0.2563 -0.7007  0.2693
   16MOL0     C 2034   8.034   2.128   4.759  0.5875 -0.8425 -0.1443
   16MOL0     C 2035   8.149   2.155   4.651  1.0274 -0.3708 -0.3965
   16MOL0     C 2036   8.279   2.195   4.731 -0.3722  0.9705  1.4072
   16MOL0     C 2037   8.397   2.188   4.637  0.1279  0.5188  0.6040
   16MOL0     C 2038   8.524   2.217   4.709 -0.4399 -0.5827  0.6627
   16MOL0     C 2039   8.566   2.109   4.807 -1.4584  0.1990  0.0714
   16MOL0     C 2040   8.723   2.119   4.835  0.2132 -0.0252  0.4086
   16MOL0     C 2041   8.810   2.131   4.705 -0.1993 -0.3654 -0.6149
   16MOL0     N 2042   8.953   2.102   4.721 -0.0086  0.0982  0.1964
   16MOL0     C 2043   9.021   2.105   4.838  0.1002  0.0027 -0.2861
   16MOL0     C 2044   9.123   2.014   4.830  0.1412 -0.7918  0.2558
   16MOL0     C 2045   9.220   1.989   4.944  0.1372  0.2972  0.3838
   16MOL0     C 2046   9.365   2.019   4.906  0.3550 -0.3559  0.4324
   16MOL0     C 2047   9.461   1.988   5.018 -0.5667 -0.0768 -0.5733
   16MOL0     C 2048   9.601   1.994   4.966  0.0590 -0.7955 -0.1299
   16MOL0     O 2049   9.709   1.979   5.069 -0.0228  0.0070  0.7823
   16MOL0     C 2050   9.786   2.091   5.071  0.0240  0.7818 -0.0470
   16MOL0     C 2051   9.929   2.074   5.091  0.3817  0.9044  0.0983
   16MOL0     C 2052  10.013   2.185   5.093 -0.1072 -0.0536 -0.3684
   16MOL0     C 2053   9.971   2.315   5.075 -1.0026  0.1497  0.1072
   16MOL0     C 2054  10.062   2.426   5.081 -0.0537  0.5622 -0.3526
   16MOL0     O 2055  10.003   2.549   5.097  0.4887 -0.3034 -0.5960
   16MOL0     C 2056  10.057   2.671   5.120  0.0262  0.3748  0.3797
   16MOL0     C 2057  10.004   2.776   5.063 -0.0535  0.2396 -0.7420
   16MOL0     C 2058  10.056   2.907   5.082 -0.3664  0.5163 -0.2132
   16MOL0     C 2059  10.160   2.934   5.174 -0.3674 -0.3676 -1.0920
   16MOL0     O 2060  10.198   3.057   5.193  0.6770  0.0336  0.9833
   16MOL0     C 2061  10.327   3.086   5.242  0.4829 -0.2830  0.1794
   16MOL0     C 2062  10.351   3.233   5.200 -0.0033  0.3678 -0.2498
   16MOL0     C 2063  10.471   3.286   5.272  0.5796 -0.0359 -0.2798
   16MOL0     C 2064  10.599   3.219   5.215  0.0335 -0.7068  1.2637
   16MOL0     C 2065  10.728   3.276   5.262  0.2076 -0.3507  0.1727
   16MOL0     C 2066  10.752   3.424   5.234  0.2280 -0.3613 -0.2055
   16MOL0     C 2067  10.903   3.471   5.267  0.1389  0.6348  0.0031
   16MOL0     C 2068  10.918   3.624   5.254  0.2129 -0.1725  0.4405
   16MOL0    Cl 2069  10.840   3.705   5.393  0.2270 -0.0197  0.3964
   16MOL0     C 2070  10.203   2.823   5.250  0.8165  0.4984  0.8567
   16MOL0     C 2071  10.153   2.695   5.217 -0.6650  1.0377  0.3358
   16MOL0     O 2072  10.186   2.401   5.095  0.1292  0.8264  0.5032
   16MOL0     C 2073   9.825   2.336   5.064 -0.1336  0.0162  0.0642
   16MOL0     C 2074   9.740   2.225   5.059  0.1712  0.2598 -0.1092
   16MOL0     N 2075   9.117   1.962   4.703  0.6713  0.0513  0.1383
   16MOL0     N 2076   9.021   2.024   4.639  0.1416  0.3590  0.4940
   16MOL0     C 2077   7.844   1.922   4.840 -0.1301  0.0690  0.4856
   16MOL0     C 2078   7.745   1.843   4.895 -0.1490 -0.5601 -0.0169
   16MOL0     C 2079   7.475   1.679   5.226  0.3468  0.1763 -0.8182
   16MOL0     C 2080   7.454   1.688   5.365 -0.8717 -0.8920  0.3192
   16MOL0     C 2081   7.361   1.607   5.431 -0.1590 -0.8638  0.0058
   16MOL0     C 2082   7.269   1.525   5.356 -0.5224 -0.7718  0.3590
   16MOL0     O 2083   7.171   1.465   5.432 -0.5096  0.0327  0.2863
   16MOL0     C 2084   7.042   1.473   5.377 -0.3031 -0.0201  0.9302
   16MOL0     C 2085   6.954   1.408   5.476  0.7364  0.2955 -0.0052
   16MOL0     C 2086   6.948   1.491   5.608  0.2653  0.0464  0.7471
   16MOL0     C 2087   6.872   1.422   5.727  0.4929  0.6123 -0.2429
   16MOL0     C 2088   6.726   1.444   5.723 -0.3817  0.3005  1.2834
   16MOL0     C 2089   6.609   1.471   5.726  0.3317 -0.3040 -0.0234
   16MOL0     C 2090   7.285   1.528   5.218 -0.2507  0.4236  0.8474
   16MOL0     C 2091   7.387   1.602   5.146  0.0403 -0.5949  0.1460
   16MOL0     C 2092   7.402   1.572   4.999  0.8048 -0.5722  0.4315
   16MOL0     H 2093   7.924   1.750   5.177 -0.6590 -2.2531 -1.1723
   16MOL0     H 2094   8.095   1.870   5.068  0.5158 -0.1334 -1.4904
   16MOL0     H 2095   7.945   2.115   4.697 -0.5657 -0.5630  1.4116
   16MOL0     H 2096   8.009   2.216   4.818  1.7542 -2.0656  2.2954
   16MOL0     H 2097   8.118   2.240   4.590 -1.3995 -0.2808  0.8689
   16MOL0     H 2098   8.154   2.070   4.583 -0.7254 -0.7108 -0.1410
   16MOL0     H 2099   8.295   2.120   4.808  1.1273 -2.3220 -1.7972
   16MOL0     H 2100   8.272   2.299   4.764 -1.5311  1.6383 -0.7286
   16MOL0     H 2101   8.408   2.086   4.600 -1.1445  0.1164  1.2857
   16MOL0     H 2102   8.374   2.257   4.556  0.4941  0.2311  0.2472
   16MOL0     H 2103   8.596   2.230   4.628 -0.2749  0.9029  1.0149
   16MOL0     H 2104   8.514   2.313   4.760  1.6876 -0.0415  0.1571
   16MOL0     H 2105   8.519   2.104   4.905  2.1781  1.5359  2.0699
   16MOL0     H 2106   8.565   2.009   4.762 -1.2793  0.1105  0.2653
   16MOL0     H 2107   8.751   2.028   4.889 -0.6576 -0.2689  0.4686
   16MOL0     H 2108   8.748   2.199   4.905  1.0728 -0.5228  0.6878
   16MOL0     H 2109   8.755   2.072   4.631 -3.1091  1.0850  0.2485
   16MOL0     H 2110   8.797   2.231   4.664  0.8495 -0.2841 -0.7890
   16MOL0     H 2111   8.981   2.174   4.912  0.1338  2.1428 -2.1391
   16MOL0     H 2112   9.187   2.040   5.035 -0.3243  0.3396  0.1929
   16MOL0     H 2113   9.220   1.883   4.971 -0.2269  1.0287  3.6499
   16MOL0     H 2114   9.393   1.962   4.816 -0.3972 -0.8883  0.5300
   16MOL0     H 2115   9.368   2.124   4.873 -0.6377  0.0241  1.5143
   16MOL0     H 2116   9.449   1.889   5.064  0.8640  1.6014  3.8325
   16MOL0     H 2117   9.463   2.062   5.098  1.3346 -0.7172  0.0107
   16MOL0     H 2118   9.613   2.082   4.902 -0.2928 -0.7931 -0.1932
   16MOL0     H 2119   9.615   1.915   4.892 -0.6447 -1.1866  0.1457
   16MOL0     H 2120   9.982   1.982   5.111  1.3151  1.3512 -0.2568
   16MOL0     H 2121  10.120   2.170   5.104 -0.2068 -1.6400 -1.2545
   16MOL0     H 2122   9.925   2.761   4.991  1.0842 -0.4439 -1.8691
   16MOL0     H 2123  10.008   2.986   5.024  1.0291  1.5802  0.0310
   16MOL0     H 2124  10.333   3.079   5.351  1.4226  1.9563  0.3238
   16MOL0     H 2125  10.403   3.027   5.190  0.5882  2.2630 -2.8744
   16MOL0     H 2126  10.369   3.253   5.094  1.3224  2.2840  0.2823
   16MOL0     H 2127  10.261   3.291   5.226  1.1440  1.6594  1.0569
   16MOL0     H 2128  10.481   3.394   5.257  0.0920 -0.2896 -2.7942
   16MOL0     H 2129  10.452   3.266   5.378  0.2176  3.1507  0.3522
   16MOL0     H 2130  10.594   3.234   5.107  2.2901  4.1961  1.5628
   16MOL0     H 2131  10.601   3.114   5.244  2.3977 -0.1410  3.5856
   16MOL0     H 2132  10.809   3.216   5.220 -0.6420 -0.1358 -1.8674
   16MOL0     H 2133  10.725   3.269   5.371 -0.2314  0.7578  0.2459
   16MOL0     H 2134  10.721   3.441   5.131  1.8196 -2.0778 -1.0293
   16MOL0     H 2135  10.694   3.484   5.304  1.6606  0.2883  0.4746
   16MOL0     H 2136  10.970   3.419   5.199 -1.1243  1.2402 -1.7738
   16MOL0     H 2137  10.929   3.446   5.370 -0.8567  0.0689  0.1311
   16MOL0     H 2138  11.021   3.660   5.262 -0.3076  0.9259  3.3464
   16MOL0     H 2139  10.878   3.652   5.156 -1.1433 -0.3964  0.9169
   16MOL0     H 2140  10.277   2.856   5.322  1.0241  0.9040  0.4703
   16MOL0     H 2141  10.188   2.611   5.278 -1.8100  1.2927  1.3987
   16MOL0     H 2142   9.785   2.436   5.052 -1.9430 -0.1446  3.3748
   16MOL0     H 2143   9.632   2.239   5.053  0.3585  1.3640 -1.1925
   16MOL0     H 2144   7.819   1.968   4.745  3.1463  3.4300  1.0025
   16MOL0     H 2145   7.653   1.820   4.842 -0.6060  0.9750  0.0629
   16MOL0     H 2146   7.508   1.753   5.433 -2.3429 -1.2021  1.8572
   16MOL0     H 2147   7.347   1.615   5.538 -2.5859 -0.7456 -0.2463
   16MOL0     H 2148   7.021   1.423   5.282 -0.1958 -1.8038  1.8072
   16MOL0     H 2149   7.029   1.579   5.353 -0.4193 -0.0068  1.0526
   16MOL0     H 2150   6.981   1.304   5.494 -1.8374 -0.6064 -0.8790
   16MOL0     H 2151   6.854   1.410   5.432  1.2533  0.4449 -1.2145
   16MOL0     H 2152   6.913   1.590   5.578 -2.1534 -1.7861 -3.2003
   16MOL0     H 2153   7.052   1.498   5.642  1.3360  0.7485 -2.4110
   16MOL0     H 2154   6.902   1.317   5.727 -2.2645 -0.2638  0.6669
   16MOL0     H 2155   6.910   1.463   5.822 -0.2866  1.0235 -0.0990
   16MOL0     H 2156   6.503   1.489   5.726  0.5487  1.0906  0.4466
   16MOL0     H 2157   7.222   1.464   5.157 -0.1077  0.8806  0.2082
   16MOL0     H 2158   7.504   1.542   4.974  0.4694 -1.0574 -0.3923
   16MOL0     H 2159   7.335   1.490   4.970  0.3973  0.3493 -1.3646
   16MOL0     H 2160   7.375   1.661   4.942  0.8873 -0.0217  1.2501
   17MOL0     O 2161   3.736   1.737   9.349 -0.2510  0.1038 -0.4481
   17MOL0     C 2162   3.718   1.666   9.249  0.1997 -0.2329 -0.2764
   17MOL0     O 2163   3.740   1.539   9.250  0.5298 -0.2792 -0.4338
   17MOL0     C 2164   3.810   1.481   9.351  0.1139  0.2741 -0.1284
   17MOL0     C 2165   3.756   1.379   9.425 -0.0614  0.4513  0.0168
   17MOL0     C 2166   3.831   1.309   9.526 -0.3599 -0.6691 -0.1664
   17MOL0     C 2167   3.969   1.349   9.549 -0.5601 -0.7069  0.2592
   17MOL0     O 2168   4.051   1.290   9.638  0.1625 -0.3740 -0.9789
   17MOL0     C 2169   4.030   1.157   9.673  0.1999  0.5488 -0.7769
   17MOL0     C 2170   4.148   1.100   9.754  0.1213  0.2096  0.5479
   17MOL0     C 2171   4.274   1.095   9.675  0.7106  0.0930 -0.0138
   17MOL0     C 2172   4.391   1.038   9.761  0.5485  0.0172  0.5347
   17MOL0     C 2173   4.533   1.050   9.694 -0.0711 -0.4142 -0.7455
   17MOL0     C 2174   4.632   0.995   9.793  0.2668 -0.0783 -0.1599
   17MOL0     C 2175   4.781   0.994   9.736  0.1042 -0.2351 -0.0591
   17MOL0     C 2176   4.853   0.887   9.815  0.9368  0.3195 -0.6303
   17MOL0     N 2177   5.003   0.896   9.793  0.8059 -0.0753 -0.5683
   17MOL0     C 2178   5.085   0.786   9.781 -0.4215  0.3812  0.2533
   17MOL0     C 2179   5.205   0.839   9.798 -0.3727  0.2163 -0.4022
   17MOL0     C 2180   5.329   0.769   9.780 -0.5367 -0.8643 -0.0227
   17MOL0     C 2181   5.406   0.788   9.921 -0.6050  0.2753  0.2872
   17MOL0     C 2182   5.538   0.706   9.909 -0.2941 -0.0764  0.0108
   17MOL0     C 2183   5.632   0.742  10.029  1.3122 -0.6818  0.1086
   17MOL0     O 2184   5.551   0.709  10.146  0.0284 -0.5919 -0.6006
   17MOL0     C 2185   5.605   0.736  10.268  0.8278  0.0288  0.5161
   17MOL0     C 2186   5.523   0.718  10.385 -0.7900 -0.1946 -0.0868
   17MOL0     C 2187   5.576   0.736  10.512 -0.1767  0.6879  0.1516
   17MOL0     C 2188   5.711   0.786  10.528 -0.1340  0.1411  0.0132
   17MOL0     C 2189   5.760   0.820  10.659 -0.1734 -0.3539 -0.4024
   17MOL0     O 2190   5.668   0.833  10.755  1.2689  0.5401  0.1060
   17MOL0     C 2191   5.686   0.868  10.882 -1.0624  0.9468  0.6489
   17MOL0     C 2192   5.658   0.763  10.973 -0.1094  0.3411  0.3250
   17MOL0     C 2193   5.683   0.785  11.105 -0.9794 -0.9488  0.1486
   17MOL0     C 2194   5.740   0.905  11.154  0.2363 -0.8074  0.5028
   17MOL0     O 2195   5.748   0.924  11.297 -0.3902 -0.1386  0.9887
   17MOL0     C 2196   5.870   0.866  11.343  0.8170 -0.2327 -0.9867
   17MOL0     C 2197   5.866   0.873  11.499 -0.3427  0.2592 -0.7682
   17MOL0     C 2198   5.870   1.022  11.544  0.4462 -0.7048 -0.3441
   17MOL0     C 2199   5.851   1.030  11.701 -0.7908 -0.0201 -0.1805
   17MOL0     C 2200   5.877   1.172  11.745 -0.1759 -0.5323  0.1222
   17MOL0     C 2201   5.869   1.195  11.897 -0.1486  0.7955 -0.6407
   17MOL0     C 2202   5.995   1.157  11.974 -0.7062 -0.5498 -0.5505
   17MOL0     C 2203   6.103   1.267  11.977  0.1291  0.8390  0.1109
   17MOL0    Cl 2204   6.235   1.184  12.065 -0.0520 -0.3138 -0.2604
   17MOL0     C 2205   5.747   1.013  11.065  0.4327  0.4117 -0.3734
   17MOL0     C 2206   5.721   0.998  10.930  0.0241  0.0526  0.2743
   17MOL0     O 2207   5.884   0.839  10.676  0.5564 -0.0724 -0.4234
   17MOL0     C 2208   5.781   0.812  10.414 -0.1355  0.1250  0.1755
   17MOL0     C 2209   5.731   0.786  10.287  0.0453  0.1429  0.0236
   17MOL0     N 2210   5.192   0.982   9.821 -0.1984  0.5299 -0.1287
   17MOL0     N 2211   5.072   1.015   9.804  0.3268  0.5408  0.4506
   17MOL0     C 2212   4.020   1.464   9.479  0.6112  1.0131 -0.0386
   17MOL0     C 2213   3.942   1.529   9.381 -0.1913  0.0987  0.6447
   17MOL0     C 2214   3.648   1.728   9.136 -0.0026 -0.2958 -0.2865
   17MOL0     C 2215   3.599   1.641   9.042 -1.2178  0.5168 -0.7885
   17MOL0     C 2216   3.515   1.684   8.935  0.2903 -0.4360  0.2806
   17MOL0     C 2217   3.487   1.823   8.933  0.5832  0.3054  0.5137
   17MOL0     O 2218   3.412   1.881   8.836 -0.3387 -1.1898  0.1269
   17MOL0     C 2219   3.417   1.822   8.706  0.8588 -0.9286 -0.7322
   17MOL0     C 2220   3.353   1.906   8.595  0.7653 -0.3655 -0.0069
   17MOL0     C 2221   3.199   1.911   8.626 -0.5811 -0.2178  0.5430
   17MOL0     C 2222   3.127   1.938   8.494  0.1905 -0.0541 -0.8186
   17MOL0     C 2223   2.986   1.986   8.521 -0.5063  0.0283 -0.4648
   17MOL0     C 2224   2.874   2.041   8.537 -0.1725  0.6535  0.2045
   17MOL0     C 2225   3.532   1.913   9.027  0.0667 -0.0463 -0.9053
   17MOL0     C 2226   3.611   1.868   9.130  0.1829 -0.2619  0.2298
   17MOL0     C 2227   3.650   1.970   9.233  0.4971  0.3193 -0.5036
   17MOL0     H 2228   3.654   1.352   9.400  0.1504  0.1313 -0.5133
   17MOL0     H 2229   3.780   1.227   9.575 -0.2749  0.4319  1.8376
   17MOL0     H 2230   3.939   1.165   9.733 -0.1657 -0.7412 -1.1245
   17MOL0     H 2231   4.010   1.088   9.590 -1.6572  1.8129 -1.4430
   17MOL0     H 2232   4.137   1.003   9.805  1.3676  1.3255  3.1421
   17MOL0     H 2233   4.158   1.167   9.840 -1.3182  1.1556  0.0131
   17MOL0     H 2234   4.296   1.194   9.635  0.2135 -0.5475 -2.0102
   17MOL0     H 2235   4.253   1.035   9.586 -3.9864  1.5203 -0.1398
   17MOL0     H 2236   4.390   1.101   9.850 -1.0878  3.8302 -1.9439
   17MOL0     H 2237   4.371   0.933   9.784  0.3424 -0.5094 -1.7627
   17MOL0     H 2238   4.536   0.992   9.601 -1.9731  1.9450 -2.4199
   17MOL0     H 2239   4.548   1.153   9.662  1.4192  0.0141  1.1258
   17MOL0     H 2240   4.656   1.063   9.875  1.4945  0.0726 -0.6163
   17MOL0     H 2241   4.594   0.900   9.831  1.1618 -0.1309  0.6569
   17MOL0     H 2242   4.833   1.087   9.759  1.5789 -1.1444  0.4041
   17MOL0     H 2243   4.788   0.986   9.627  0.0436 -2.0456  0.0458
   17MOL0     H 2244   4.832   0.905   9.921 -1.2933 -1.7157 -0.6421
   17MOL0     H 2245   4.822   0.783   9.805 -0.0118  0.6459 -1.2029
   17MOL0     H 2246   5.067   0.680   9.767  4.4788 -1.1251  2.9589
   17MOL0     H 2247   5.324   0.663   9.756  1.9000 -1.1909  0.6566
   17MOL0     H 2248   5.394   0.819   9.706  0.6270  1.1442  2.2082
   17MOL0     H 2249   5.445   0.889   9.938 -1.3377  0.2568  2.3799
   17MOL0     H 2250   5.347   0.758  10.007  2.1003 -0.8480  1.8928
   17MOL0     H 2251   5.592   0.728   9.817  0.0557 -0.2631  0.1717
   17MOL0     H 2252   5.526   0.597   9.916  0.6828 -0.2160 -0.4210
   17MOL0     H 2253   5.660   0.847  10.018  1.6577 -0.7930 -0.0849
   17MOL0     H 2254   5.725   0.684  10.026  2.3914  1.0092 -1.3479
   17MOL0     H 2255   5.418   0.695  10.368 -0.6168 -2.7677  1.6673
   17MOL0     H 2256   5.512   0.715  10.597 -2.1617 -0.4856 -1.5354
   17MOL0     H 2257   5.607   0.671  10.945 -1.8122  0.9766  1.1779
   17MOL0     H 2258   5.671   0.698  11.170  1.5146 -0.6944  1.0746
   17MOL0     H 2259   5.868   0.761  11.312 -1.5004 -0.1367 -1.3268
   17MOL0     H 2260   5.961   0.916  11.309 -0.1147  0.6842 -2.2334
   17MOL0     H 2261   5.775   0.825  11.536  0.6196  0.5403  2.2150
   17MOL0     H 2262   5.950   0.816  11.540 -0.4895 -0.5874 -1.5904
   17MOL0     H 2263   5.969   1.065  11.525 -0.3457  0.5822 -1.7678
   17MOL0     H 2264   5.784   1.080  11.510 -1.0903 -1.1787  2.4540
   17MOL0     H 2265   5.931   0.971  11.746 -0.6246  0.2886 -0.0705
   17MOL0     H 2266   5.756   1.005  11.749 -2.4958  5.1531 -0.1592
   17MOL0     H 2267   5.793   1.226  11.701 -0.0540 -1.6498 -1.5907
   17MOL0     H 2268   5.968   1.219  11.706 -0.0492 -0.0177  1.0161
   17MOL0     H 2269   5.860   1.304  11.911 -2.1350  0.9192 -2.4059
   17MOL0     H 2270   5.784   1.145  11.945  2.3521 -3.7614 -0.4451
   17MOL0     H 2271   6.038   1.069  11.924 -0.4712 -1.7014  1.5766
   17MOL0     H 2272   5.958   1.116  12.068 -1.6307 -0.2811 -0.7855
   17MOL0     H 2273   6.139   1.287  11.876 -3.0889  0.1421 -1.2801
   17MOL0     H 2274   6.073   1.357  12.031  1.0965  0.6615  0.9701
   17MOL0     H 2275   5.770   1.110  11.108 -2.9503  0.8234  0.8297
   17MOL0     H 2276   5.720   1.084  10.864 -1.2595  2.6718  3.4413
   17MOL0     H 2277   5.884   0.848  10.418 -0.5507  1.3133  0.4522
   17MOL0     H 2278   5.795   0.807  10.202 -0.7041 -1.4352 -0.9873
   17MOL0     H 2279   4.119   1.498   9.509  1.2263 -0.4272 -0.3609
   17MOL0     H 2280   3.971   1.613   9.318  2.1777 -0.9234  0.2684
   17MOL0     H 2281   3.629   1.537   9.036 -0.8806  0.6795 -2.3990
   17MOL0     H 2282   3.485   1.614   8.857  0.2815 -0.6070  0.4360
   17MOL0     H 2283   3.369   1.723   8.710  0.6133 -0.7780  0.3367
   17MOL0     H 2284   3.519   1.794   8.680  2.0268  3.2754 -1.4786
   17MOL0     H 2285   3.359   1.852   8.500 -0.9211 -1.4654  0.4719
   17MOL0     H 2286   3.399   2.004   8.580 -0.3250  0.2677  0.7146
   17MOL0     H 2287   3.187   1.995   8.695 -2.6003 -0.1983  0.2336
   17MOL0     H 2288   3.166   1.814   8.664  1.6368 -0.8913  0.9001
   17MOL0     H 2289   3.181   2.020   8.446  0.1827  0.1988 -0.3934
   17MOL0     H 2290   3.130   1.858   8.419 -1.0630  0.9138 -1.9737
   17MOL0     H 2291   2.783   2.097   8.541 -0.7399 -0.3279  2.1565
   17MOL0     H 2292   3.502   2.016   9.011 -3.0047 -0.9444 -1.4679
   17MOL0     H 2293   3.754   1.955   9.262  0.6936  4.3714  1.6729
   17MOL0     H 2294   3.638   2.075   9.203  3.5384  0.5740 -1.1134
   17MOL0     H 2295   3.589   1.944   9.320  1.3565 -1.9996 -0.5365
   18MOL0     O 2296   0.982   4.990   4.394 -0.3898  0.5845 -0.1357
   18MOL0     C 2297   0.867   5.033   4.409  0.2506  0.0510 -0.1734
   18MOL0     O 2298   0.796   5.039   4.524 -0.4361  0.3569 -0.0591
   18MOL0     C 2299   0.822   4.944   4.622 -0.1555 -0.1347  0.4325
   18MOL0     C 2300   0.951   4.933   4.680  0.0703 -0.3420 -0.6717
   18MOL0     C 2301   0.974   4.847   4.786  0.0581  0.1524 -0.1623
   18MOL0     C 2302   0.866   4.776   4.840 -0.4022  0.2462 -0.6819
   18MOL0     O 2303   0.876   4.719   4.965 -1.1827  0.8902  0.5024
   18MOL0     C 2304   0.786   4.609   4.980 -0.5268  1.0091 -0.7579
   18MOL0     C 2305   0.836   4.509   5.084 -0.0979 -0.5236  0.0174
   18MOL0     C 2306   0.975   4.445   5.078 -0.8511  0.3256  0.1049
   18MOL0     C 2307   1.038   4.395   5.203  0.5031  0.1562 -0.4652
   18MOL0     C 2308   1.187   4.345   5.198  1.1353 -0.1372  0.1067
   18MOL0     C 2309   1.294   4.457   5.179  0.6552 -0.5965  0.4568
   18MOL0     C 2310   1.439   4.402   5.180  0.1081  0.1929 -0.0136
   18MOL0     C 2311   1.498   4.427   5.318  0.7394 -0.4202  0.3933
   18MOL0     N 2312   1.626   4.359   5.329  0.7423 -0.0331 -0.0423
   18MOL0     C 2313   1.735   4.397   5.249  0.6584 -0.1364 -0.2616
   18MOL0     C 2314   1.827   4.294   5.276  0.7105 -1.2075 -0.8304
   18MOL0     C 2315   1.962   4.261   5.221  0.2809  0.5827 -0.2692
   18MOL0     C 2316   2.061   4.379   5.236  0.0290  0.3016  0.1719
   18MOL0     C 2317   2.212   4.323   5.237  0.2655  0.2358 -0.0481
   18MOL0     C 2318   2.307   4.437   5.273  0.8850 -0.6106  0.3831
   18MOL0     O 2319   2.302   4.451   5.417 -0.0299 -0.5152  0.6969
   18MOL0     C 2320   2.417   4.488   5.465  0.0307  0.0935 -1.8939
   18MOL0     C 2321   2.455   4.420   5.580 -0.7589 -0.5428  1.0034
   18MOL0     C 2322   2.584   4.442   5.633 -0.0150 -0.6043 -0.5241
   18MOL0     C 2323   2.668   4.543   5.577 -0.2171 -0.7137  0.1105
   18MOL0     C 2324   2.811   4.546   5.625  1.3909 -0.5562  0.7685
   18MOL0     O 2325   2.841   4.472   5.730 -0.1420 -0.1818  0.3855
   18MOL0     C 2326   2.973   4.481   5.763 -0.9936  0.0849  0.1039
   18MOL0     C 2327   3.058   4.380   5.729 -0.6789  0.1031 -0.5174
   18MOL0     C 2328   3.197   4.396   5.743 -0.6586 -0.3506  0.5093
   18MOL0     C 2329   3.251   4.506   5.812  0.9832 -0.4952 -0.1258
   18MOL0     O 2330   3.381   4.491   5.856  0.2582  0.0601  0.4417
   18MOL0     C 2331   3.435   4.591   5.933 -0.0027 -0.3618 -0.2685
   18MOL0     C 2332   3.573   4.544   5.954  0.3920 -0.3232  0.2378
   18MOL0     C 2333   3.651   4.668   6.011 -0.6118  0.0674 -1.0118
   18MOL0     C 2334   3.787   4.614   6.059 -0.0260 -0.1361  0.1693
   18MOL0     C 2335   3.892   4.727   6.060  0.3669  0.1596 -0.7773
   18MOL0     C 2336   4.017   4.703   6.147  0.5579  0.4230  0.5548
   18MOL0     C 2337   4.083   4.561   6.144 -0.1592 -0.7014  0.0627
   18MOL0     C 2338   4.157   4.515   6.014  0.2727  0.9195 -0.1330
   18MOL0    Cl 2339   4.053   4.515   5.867  0.0833  0.1881  0.0098
   18MOL0     C 2340   3.161   4.607   5.855  0.4226  0.5731 -0.5007
   18MOL0     C 2341   3.025   4.595   5.823 -0.1264  0.0952  0.4342
   18MOL0     O 2342   2.896   4.604   5.557 -0.1456  0.2440  0.7284
   18MOL0     C 2343   2.615   4.632   5.484  0.3327  0.9235 -0.7743
   18MOL0     C 2344   2.485   4.598   5.437 -0.2590 -1.2008  0.0704
   18MOL0     N 2345   1.767   4.207   5.368 -0.6756  0.7657  0.6294
   18MOL0     N 2346   1.644   4.243   5.391  0.2670  0.8719 -0.1817
   18MOL0     C 2347   0.743   4.788   4.774  0.5402 -0.3019 -0.4181
   18MOL0     C 2348   0.722   4.870   4.662 -0.1346 -0.3935 -0.2935
   18MOL0     C 2349   0.788   5.065   4.292 -1.0554 -0.1806  0.4939
   18MOL0     C 2350   0.665   5.004   4.279  0.2297 -0.0390  0.2324
   18MOL0     C 2351   0.584   5.025   4.162 -1.3667 -0.0739 -0.7796
   18MOL0     C 2352   0.623   5.113   4.055 -0.3997 -0.5823  0.3024
   18MOL0     O 2353   0.560   5.138   3.936 -0.1989 -0.3575 -0.0094
   18MOL0     C 2354   0.439   5.061   3.908  0.8582 -0.3306 -0.9354
   18MOL0     C 2355   0.473   4.924   3.855  0.1183 -0.3487  0.1044
   18MOL0     C 2356   0.557   4.919   3.724 -0.1477  0.5012 -0.3440
   18MOL0     C 2357   0.697   4.965   3.737 -0.6492  0.2083  0.5098
   18MOL0     C 2358   0.775   4.914   3.624  0.3153  0.7364 -0.8393
   18MOL0     C 2359   0.834   4.863   3.528  0.8533  0.2000 -0.0198
   18MOL0     C 2360   0.739   5.189   4.083  0.4600 -0.2431  0.1969
   18MOL0     C 2361   0.820   5.170   4.196  0.3643  0.1273 -0.3868
   18MOL0     C 2362   0.954   5.238   4.201 -0.0903 -1.7315 -0.3511
   18MOL0     H 2363   1.028   5.001   4.644  2.1294  0.3348  4.1518
   18MOL0     H 2364   1.067   4.822   4.836 -1.0737 -3.8125  0.2870
   18MOL0     H 2365   0.685   4.644   5.002 -1.6499  0.2941 -4.1688
   18MOL0     H 2366   0.780   4.554   4.885  0.7531 -0.2763 -0.1271
   18MOL0     H 2367   0.756   4.436   5.104  0.9283 -1.6124  0.2553
   18MOL0     H 2368   0.846   4.573   5.171 -1.8412 -0.9596  0.5941
   18MOL0     H 2369   1.049   4.515   5.039 -0.0048 -0.4418  0.2924
   18MOL0     H 2370   0.961   4.368   5.001 -4.1956  0.0551  0.8442
   18MOL0     H 2371   1.029   4.473   5.279  0.5773  1.0939 -1.4036
   18MOL0     H 2372   0.974   4.313   5.234 -1.5308  1.5028 -0.9451
   18MOL0     H 2373   1.200   4.294   5.294 -1.5140  0.9250  1.1458
   18MOL0     H 2374   1.192   4.271   5.117  1.0391  0.1673 -0.1809
   18MOL0     H 2375   1.278   4.518   5.090  3.5888  1.1842  1.0098
   18MOL0     H 2376   1.272   4.528   5.260  0.4908 -3.4724  3.1507
   18MOL0     H 2377   1.507   4.440   5.103  0.8000  0.7030  0.8307
   18MOL0     H 2378   1.437   4.293   5.172  0.5349  0.1210  0.7613
   18MOL0     H 2379   1.518   4.535   5.323 -1.9155  0.3806 -2.8912
   18MOL0     H 2380   1.431   4.412   5.402  1.2686  0.9443  1.0931
   18MOL0     H 2381   1.749   4.484   5.186  0.0865  1.1591  1.3383
   18MOL0     H 2382   1.995   4.184   5.291 -5.0131  0.0036  2.0293
   18MOL0     H 2383   1.948   4.222   5.120  1.2120  0.1950 -0.2545
   18MOL0     H 2384   2.044   4.455   5.160 -1.0780 -1.7745 -1.8138
   18MOL0     H 2385   2.032   4.423   5.332 -3.2411  0.9742 -0.9738
   18MOL0     H 2386   2.245   4.302   5.135  1.9574  1.2550  0.2376
   18MOL0     H 2387   2.207   4.234   5.301  1.4203  0.0100 -0.2425
   18MOL0     H 2388   2.267   4.523   5.217 -0.1024 -1.6343 -0.5380
   18MOL0     H 2389   2.407   4.416   5.235  0.1698  0.7485 -2.6260
   18MOL0     H 2390   2.406   4.342   5.637  0.4035 -0.9669  1.4542
   18MOL0     H 2391   2.600   4.376   5.719  1.1030  1.1000  0.6502
   18MOL0     H 2392   3.012   4.313   5.658 -2.9034  0.5848  0.3921
   18MOL0     H 2393   3.262   4.322   5.699 -2.1437  0.4549 -3.4133
   18MOL0     H 2394   3.435   4.687   5.882  1.5192  1.1696  2.3819
   18MOL0     H 2395   3.388   4.591   6.032  0.0499 -3.6742 -0.1279
   18MOL0     H 2396   3.559   4.463   6.027 -1.6323  0.0774  0.3449
   18MOL0     H 2397   3.620   4.500   5.866  1.6269 -0.0715  0.7451
   18MOL0     H 2398   3.664   4.737   5.927 -0.3286  1.4617  0.1421
   18MOL0     H 2399   3.596   4.713   6.094 -0.0165 -1.7822  0.4578
   18MOL0     H 2400   3.814   4.527   5.999  0.8097 -1.0579  1.7974
   18MOL0     H 2401   3.768   4.594   6.165  1.1455 -0.4006  0.3459
   18MOL0     H 2402   3.842   4.814   6.104  0.4108  0.9997 -2.2945
   18MOL0     H 2403   3.904   4.749   5.953 -2.4462  0.1955 -1.1663
   18MOL0     H 2404   4.094   4.763   6.097  0.5589 -0.2165 -0.2386
   18MOL0     H 2405   3.992   4.732   6.249 -2.8317 -1.0372  0.2581
   18MOL0     H 2406   4.012   4.481   6.165 -1.5004  0.5477  0.4536
   18MOL0     H 2407   4.161   4.562   6.221 -0.1663 -0.9796  0.0722
   18MOL0     H 2408   4.237   4.584   5.986 -1.3892  2.8123 -0.4416
   18MOL0     H 2409   4.198   4.414   6.027 -0.4799  0.5236 -0.7265
   18MOL0     H 2410   3.200   4.691   5.911  1.5189 -1.2637  1.6355
   18MOL0     H 2411   2.968   4.682   5.856 -0.4539  0.4049 -0.8946
   18MOL0     H 2412   2.679   4.715   5.457  1.4856  1.4772  3.0892
   18MOL0     H 2413   2.445   4.654   5.354  0.0008  0.1132  0.8103
   18MOL0     H 2414   0.653   4.743   4.814  1.0536  0.4231  1.6762
   18MOL0     H 2415   0.622   4.864   4.622 -1.1691 -0.5996  2.1486
   18MOL0     H 2416   0.643   4.920   4.344 -0.3909 -2.6647 -3.0604
   18MOL0     H 2417   0.503   4.954   4.149 -2.2757  0.4918  1.3620
   18MOL0     H 2418   0.385   5.121   3.835  1.4205  0.9679 -0.3126
   18MOL0     H 2419   0.377   5.055   3.998 -2.8885  2.0364 -3.1052
   18MOL0     H 2420   0.375   4.878   3.836  0.7244 -1.8552  0.4944
   18MOL0     H 2421   0.519   4.870   3.938  3.2190  3.2322  0.9704
   18MOL0     H 2422   0.496   4.970   3.649 -3.1016  0.4536  1.8172
   18MOL0     H 2423   0.556   4.815   3.691  0.0438  0.3923 -0.0141
   18MOL0     H 2424   0.699   5.074   3.740  0.2075  0.1868  3.6399
   18MOL0     H 2425   0.735   4.931   3.834 -0.1080 -0.3839  0.0996
   18MOL0     H 2426   0.888   4.819   3.446  1.0011 -2.4210  1.3793
   18MOL0     H 2427   0.777   5.255   4.006  0.5649 -1.6823 -1.0575
   18MOL0     H 2428   0.941   5.332   4.256  2.7322  0.4345 -3.0006
   18MOL0     H 2429   1.028   5.180   4.257  1.6433 -1.0825 -1.8622
   18MOL0     H 2430   0.993   5.263   4.102 -0.0242  0.5878  0.1854
   19MOL0     O 2431   9.500   6.256   8.826 -0.1563 -0.0434 -0.4591
   19MOL0     C 2432   9.469   6.318   8.720  0.2747  1.1176 -0.5985
   19MOL0     O 2433   9.550   6.424   8.675  0.1029  0.1680 -0.3770
   19MOL0     C 2434   9.684   6.436   8.722 -0.1371  0.0127  0.4073
   19MOL0     C 2435   9.737   6.558   8.738 -0.3369 -0.2031 -0.2662
   19MOL0     C 2436   9.879   6.588   8.749  0.4412  0.6598  0.1270
   19MOL0     C 2437   9.957   6.475   8.762 -0.1442  0.4892  0.1130
   19MOL0     O 2438  10.093   6.501   8.792  0.3209  0.4625  0.7975
   19MOL0     C 2439  10.176   6.405   8.870  0.5144  0.3334 -0.1277
   19MOL0     C 2440  10.303   6.473   8.905  0.0364  0.4285  0.5559
   19MOL0     C 2441  10.395   6.483   8.782 -0.2249 -0.4968  0.1184
   19MOL0     C 2442  10.537   6.513   8.839 -0.2609  0.1160 -0.0946
   19MOL0     C 2443  10.615   6.379   8.877  0.0806 -0.2244 -0.3743
   19MOL0     C 2444  10.763   6.409   8.878 -0.4615  0.2198 -0.0669
   19MOL0     C 2445  10.833   6.278   8.927  0.0576  0.8394 -0.0775
   19MOL0     C 2446  10.986   6.286   8.904 -0.2243 -0.2582  0.3089
   19MOL0     N 2447  11.013   6.314   8.760 -0.2255  0.0898 -0.9821
   19MOL0     C 2448  11.028   6.215   8.669 -1.5679  0.8528  0.4903
   19MOL0     C 2449  11.065   6.279   8.558  1.2627 -1.0836  0.1407
   19MOL0     C 2450  11.113   6.228   8.427  0.5410 -0.2481  0.3819
   19MOL0     C 2451  11.264   6.180   8.435 -0.5759  0.5190  0.1318
   19MOL0     C 2452  11.297   6.089   8.558  0.4487  0.2601 -0.0484
   19MOL0     C 2453  11.427   6.016   8.542 -0.0275  0.0171 -0.9454
   19MOL0     O 2454  11.541   6.101   8.557 -0.0475  0.1531 -0.4717
   19MOL0     C 2455  11.663   6.044   8.574  0.6033 -0.4442 -0.3728
   19MOL0     C 2456  11.687   5.918   8.518  0.4791 -0.1149 -0.4296
   19MOL0     C 2457  11.804   5.850   8.556 -0.6060 -0.0637 -1.2639
   19MOL0     C 2458  11.902   5.917   8.631 -0.3606 -0.4481  0.1255
   19MOL0     C 2459  12.025   5.848   8.681 -0.3268  0.2043 -0.3766
   19MOL0     O 2460  12.107   5.921   8.767  0.7317 -0.5868 -0.3002
   19MOL0     C 2461  12.243   5.901   8.764 -0.5587 -0.2417 -0.4916
   19MOL0     C 2462  12.311   5.864   8.882 -0.1828  0.1597 -0.3326
   19MOL0     C 2463  12.453   5.853   8.885  0.0725  0.1042  1.2685
   19MOL0     C 2464  12.525   5.877   8.769 -0.0873 -0.1427  0.0940
   19MOL0     O 2465  12.660   5.863   8.784 -0.5022  0.8592  0.1027
   19MOL0     C 2466  12.760   5.935   8.709  1.1866 -0.1423  0.3398
   19MOL0     C 2467  12.740   6.085   8.729  0.4380 -0.2805 -0.0818
   19MOL0     C 2468  12.856   6.161   8.663 -0.4963 -0.7034 -0.5448
   19MOL0     C 2469  12.842   6.312   8.698  0.4557  0.2136 -0.3383
   19MOL0     C 2470  12.938   6.405   8.619  0.0916  0.4859  0.6422
   19MOL0     C 2471  13.089   6.394   8.649 -0.9287 -0.4473 -0.8434
   19MOL0     C 2472  13.163   6.299   8.562 -0.2819  0.2934  0.1541
   19MOL0     C 2473  13.301   6.291   8.615  0.2904 -0.6868  0.0175
   19MOL0    Cl 2474  13.395   6.204   8.485 -0.2381 -0.1065 -0.4521
   19MOL0     C 2475  12.459   5.923   8.652 -0.1722 -0.4739 -0.1825
   19MOL0     C 2476  12.318   5.936   8.654 -0.0679  0.8719  1.0880
   19MOL0     O 2477  12.056   5.740   8.640  1.0950  0.2444 -0.2186
   19MOL0     C 2478  11.875   6.045   8.678 -0.1664  0.0147  0.8794
   19MOL0     C 2479  11.751   6.107   8.655  0.2958  0.1316  0.2396
   19MOL0     N 2480  11.068   6.421   8.586 -0.0671 -0.3094 -0.2557
   19MOL0     N 2481  11.040   6.441   8.705  0.0334 -0.1917 -0.3620
   19MOL0     C 2482   9.901   6.343   8.756 -0.6425 -0.9580  0.3676
   19MOL0     C 2483   9.769   6.326   8.725 -0.4273 -0.6840 -0.0038
   19MOL0     C 2484   9.344   6.293   8.649 -0.4624 -0.5587  0.0246
   19MOL0     C 2485   9.286   6.160   8.651 -0.3868 -0.4410 -1.3871
   19MOL0     C 2486   9.157   6.137   8.610  0.1055  0.4624 -0.0790
   19MOL0     C 2487   9.081   6.237   8.553 -0.0726  0.0256  0.6033
   19MOL0     O 2488   8.960   6.215   8.505  0.3003  0.2775  0.7945
   19MOL0     C 2489   8.854   6.302   8.547  0.0766  0.0687 -0.2454
   19MOL0     C 2490   8.815   6.258   8.696 -0.3874 -0.7667 -0.3865
   19MOL0     C 2491   8.770   6.109   8.710  0.2412  0.5169  0.1056
   19MOL0     C 2492   8.642   6.087   8.633  0.3543 -0.1468 -0.8415
   19MOL0     C 2493   8.550   6.001   8.711  0.3868  0.0408  1.3146
   19MOL0     C 2494   8.466   5.937   8.766 -0.4063  0.0342 -1.0259
   19MOL0     C 2495   9.140   6.370   8.548 -0.0850 -0.1038 -0.4332
   19MOL0     C 2496   9.269   6.398   8.593 -0.8654 -0.3010  1.0233
   19MOL0     C 2497   9.309   6.549   8.594 -0.3360 -0.1120  0.5079
   19MOL0     H 2498   9.666   6.639   8.742  0.7992  0.9170 -2.0035
   19MOL0     H 2499   9.915   6.687   8.774 -0.2386  1.1640 -0.8057
   19MOL0     H 2500  10.133   6.390   8.970  1.9636 -0.3150  0.4330
   19MOL0     H 2501  10.187   6.306   8.826 -0.0241 -1.0956  2.7060
   19MOL0     H 2502  10.347   6.413   8.985  1.0398 -0.6996 -0.7852
   19MOL0     H 2503  10.279   6.573   8.942  1.3269  0.9200  0.1378
   19MOL0     H 2504  10.357   6.571   8.730 -0.6325 -0.7642 -0.0349
   19MOL0     H 2505  10.388   6.397   8.716 -1.7609  1.1150 -1.9257
   19MOL0     H 2506  10.584   6.560   8.752 -1.2184  0.9476 -0.1742
   19MOL0     H 2507  10.534   6.591   8.915 -3.5160  1.6028 -1.5797
   19MOL0     H 2508  10.586   6.350   8.978  0.8442  1.3923  0.3559
   19MOL0     H 2509  10.579   6.310   8.801  0.6677  0.7625 -1.5849
   19MOL0     H 2510  10.798   6.427   8.776  3.6880 -2.6317  0.5832
   19MOL0     H 2511  10.784   6.490   8.948  2.1049 -1.1370  0.8527
   19MOL0     H 2512  10.795   6.184   8.886 -1.3043  1.2318  0.2024
   19MOL0     H 2513  10.808   6.261   9.032 -0.5124  0.4831 -0.2633
   19MOL0     H 2514  11.040   6.362   8.960  1.9027 -1.4960  0.0483
   19MOL0     H 2515  11.034   6.192   8.934  1.1327  0.5944  0.8989
   19MOL0     H 2516  11.043   6.107   8.677  0.2795  0.7253 -2.7444
   19MOL0     H 2517  11.040   6.154   8.392  0.1854 -0.8483  2.2823
   19MOL0     H 2518  11.107   6.309   8.354  0.0242  1.2470  2.0043
   19MOL0     H 2519  11.289   6.130   8.341 -0.1498 -1.2580  1.1440
   19MOL0     H 2520  11.338   6.261   8.437  0.6267 -0.5182 -0.4847
   19MOL0     H 2521  11.220   6.013   8.570  0.3385  0.0551 -1.7511
   19MOL0     H 2522  11.311   6.152   8.646  2.6698  1.1679 -0.9731
   19MOL0     H 2523  11.418   5.955   8.452  0.5405 -1.3644 -0.0915
   19MOL0     H 2524  11.432   5.944   8.624  2.8297  1.7982  0.6147
   19MOL0     H 2525  11.622   5.863   8.450 -0.0055  1.7146 -1.5046
   19MOL0     H 2526  11.820   5.749   8.519  1.9728  1.0172 -3.4792
   19MOL0     H 2527  12.248   5.846   8.969 -1.4148  1.3355 -0.9377
   19MOL0     H 2528  12.496   5.823   8.980  0.3620 -1.6067  0.6252
   19MOL0     H 2529  12.861   5.901   8.735  0.6708 -1.5987  0.4906
   19MOL0     H 2530  12.751   5.916   8.602 -0.1660 -1.1100  0.6081
   19MOL0     H 2531  12.647   6.119   8.683 -0.5715 -0.9444  1.3872
   19MOL0     H 2532  12.722   6.122   8.831 -2.2030  2.6240 -1.4084
   19MOL0     H 2533  12.949   6.125   8.710  0.3736  0.2701 -1.4619
   19MOL0     H 2534  12.852   6.148   8.555  5.2621 -0.1580 -1.1759
   19MOL0     H 2535  12.866   6.323   8.804  0.9790 -0.1357 -0.4159
   19MOL0     H 2536  12.742   6.347   8.671  0.8371 -1.4711 -4.8667
   19MOL0     H 2537  12.900   6.505   8.639 -1.1230  0.1773  0.0256
   19MOL0     H 2538  12.925   6.396   8.510 -1.8961 -0.5522  0.9231
   19MOL0     H 2539  13.119   6.500   8.642 -1.6788  0.5292  5.0388
   19MOL0     H 2540  13.108   6.381   8.756  0.1692 -0.1276 -0.9873
   19MOL0     H 2541  13.167   6.338   8.460 -0.0113  1.3725  0.5662
   19MOL0     H 2542  13.110   6.203   8.554 -2.1307  1.3001 -0.1967
   19MOL0     H 2543  13.345   6.390   8.633  0.9935 -1.2812  1.9054
   19MOL0     H 2544  13.306   6.226   8.703  4.7887 -0.8047 -0.1041
   19MOL0     H 2545  12.520   5.951   8.566 -0.7958  1.2543 -0.1000
   19MOL0     H 2546  12.264   5.980   8.570 -0.6267 -1.8152 -0.0572
   19MOL0     H 2547  11.942   6.095   8.748 -0.5419  0.7848  0.6979
   19MOL0     H 2548  11.716   6.202   8.696  0.2594  0.5678 -0.7897
   19MOL0     H 2549   9.969   6.258   8.761  1.3122  0.5422  0.5789
   19MOL0     H 2550   9.738   6.222   8.716 -1.0350 -0.7106  1.9154
   19MOL0     H 2551   9.331   6.073   8.697 -0.8385  0.3889  0.7211
   19MOL0     H 2552   9.116   6.038   8.631  0.3023  0.7134  1.5528
   19MOL0     H 2553   8.772   6.286   8.476  0.6360  0.7466 -1.0662
   19MOL0     H 2554   8.880   6.409   8.544 -1.2490  0.3928 -0.7464
   19MOL0     H 2555   8.738   6.330   8.727  2.6027  2.1745  0.8872
   19MOL0     H 2556   8.904   6.279   8.756 -1.0598 -1.7302  0.9714
   19MOL0     H 2557   8.751   6.102   8.817 -2.4595 -0.7922 -0.3584
   19MOL0     H 2558   8.842   6.030   8.686 -0.5613 -0.4414  0.7565
   19MOL0     H 2559   8.587   6.177   8.605  3.0655  1.5763 -0.9855
   19MOL0     H 2560   8.668   6.028   8.544  0.1225  2.4440 -2.7477
   19MOL0     H 2561   8.387   5.883   8.812  1.0042 -1.8290 -0.6697
   19MOL0     H 2562   9.082   6.447   8.499 -1.3890 -1.5693 -1.3135
   19MOL0     H 2563   9.414   6.566   8.568 -0.1720 -0.4786  0.8954
   19MOL0     H 2564   9.248   6.599   8.519  3.1198  3.1300 -0.4303
   19MOL0     H 2565   9.299   6.603   8.688  1.2786  0.6918  0.2623
   20MOL0     O 2566   4.344   3.401   5.173 -0.6503 -0.1926 -0.7980
   20MOL0     C 2567   4.269   3.501   5.158  0.2918  0.0539  0.7692
   20MOL0     O 2568   4.294   3.607   5.079 -0.5623 -0.7665  0.2414
   20MOL0     C 2569   4.408   3.622   5.008 -0.4610  0.0261 -0.2992
   20MOL0     C 2570   4.423   3.579   4.879  0.3100  0.0465 -0.9789
   20MOL0     C 2571   4.543   3.609   4.811  0.2439  0.0472  0.3921
   20MOL0     C 2572   4.649   3.678   4.869  0.5935  0.2306 -0.2108
   20MOL0     O 2573   4.755   3.695   4.782  0.0439  0.4350 -0.1354
   20MOL0     C 2574   4.887   3.676   4.835 -0.4358  0.6996 -0.0304
   20MOL0     C 2575   4.982   3.771   4.759  0.1956 -0.3952 -0.2778
   20MOL0     C 2576   5.062   3.711   4.650 -0.2337 -0.3661 -0.6112
   20MOL0     C 2577   5.171   3.623   4.714 -0.6839  0.7647  0.0843
   20MOL0     C 2578   5.296   3.625   4.621 -0.0556  0.0459 -0.2520
   20MOL0     C 2579   5.399   3.737   4.646 -0.2192  0.2849  0.7571
   20MOL0     C 2580   5.536   3.728   4.563 -0.1635  0.6297 -0.9168
   20MOL0     C 2581   5.624   3.860   4.573  0.3467  0.4861  0.5025
   20MOL0     N 2582   5.738   3.835   4.486  0.7770 -0.7195  0.1303
   20MOL0     C 2583   5.869   3.848   4.531  0.2727  0.1704  1.0939
   20MOL0     C 2584   5.938   3.869   4.419 -0.6185 -0.4915 -0.8820
   20MOL0     C 2585   6.093   3.895   4.420 -0.8140  0.8354  0.5054
   20MOL0     C 2586   6.126   4.020   4.344  0.6247 -0.1123  0.8176
   20MOL0     C 2587   6.273   4.057   4.359  0.3093 -0.6777 -0.1277
   20MOL0     C 2588   6.378   3.983   4.271  0.9161  0.6375 -0.5419
   20MOL0     O 2589   6.510   4.012   4.315 -0.0324  0.7065  0.2537
   20MOL0     C 2590   6.603   4.047   4.216  0.4163 -0.3800 -0.5069
   20MOL0     C 2591   6.674   4.163   4.242  0.4533  0.1964  0.5967
   20MOL0     C 2592   6.770   4.222   4.153 -0.6636 -0.3980 -0.3088
   20MOL0     C 2593   6.790   4.152   4.026  0.0511 -1.0702  0.0665
   20MOL0     C 2594   6.879   4.217   3.921 -0.2272  0.5812 -0.4287
   20MOL0     O 2595   6.924   4.127   3.828  0.0412 -0.2790  0.1949
   20MOL0     C 2596   6.994   4.169   3.717 -0.6868  0.4254 -0.2863
   20MOL0     C 2597   7.000   4.290   3.649  0.1739 -0.1826  0.4179
   20MOL0     C 2598   7.077   4.310   3.529  0.3975 -0.3333  0.8574
   20MOL0     C 2599   7.153   4.204   3.479 -0.1059  1.1483  0.2533
   20MOL0     O 2600   7.230   4.211   3.369  0.0589 -0.1621 -0.2594
   20MOL0     C 2601   7.164   4.278   3.255 -0.8506  0.1636  0.6026
   20MOL0     C 2602   7.227   4.227   3.119 -0.1166 -0.8292 -0.4562
   20MOL0     C 2603   7.371   4.278   3.112 -0.2918  0.4052  0.2243
   20MOL0     C 2604   7.429   4.227   2.980 -0.4675  0.3535  0.1188
   20MOL0     C 2605   7.567   4.277   2.957  0.0181  0.4292  0.2376
   20MOL0     C 2606   7.595   4.260   2.803 -0.2393 -0.1718  0.1520
   20MOL0     C 2607   7.615   4.115   2.758 -0.0130 -0.5128 -0.5065
   20MOL0     C 2608   7.628   4.103   2.607  0.5607  0.0291 -0.7269
   20MOL0    Cl 2609   7.803   4.074   2.565  0.2002 -0.1096  0.2407
   20MOL0     C 2610   7.158   4.083   3.560  0.6586  0.3989  0.0812
   20MOL0     C 2611   7.074   4.071   3.673  0.1004 -0.0441  0.9027
   20MOL0     O 2612   6.907   4.334   3.931  0.4966  0.2911  0.2541
   20MOL0     C 2613   6.719   4.032   4.007 -1.0785  0.1623  0.2144
   20MOL0     C 2614   6.628   3.980   4.100 -0.2969  0.6018  0.5509
   20MOL0     N 2615   5.852   3.860   4.308 -0.2856 -0.7606  0.2936
   20MOL0     N 2616   5.735   3.839   4.348 -0.2484 -0.2269  0.7425
   20MOL0     C 2617   4.632   3.720   5.002 -0.7582  0.0651  1.2427
   20MOL0     C 2618   4.519   3.684   5.066  0.0314  0.0196 -0.1594
   20MOL0     C 2619   4.137   3.506   5.223  0.5146  0.0134  0.8295
   20MOL0     C 2620   4.050   3.397   5.193 -0.5359 -1.2021 -0.3069
   20MOL0     C 2621   3.915   3.414   5.239 -0.7858 -0.4665  0.3208
   20MOL0     C 2622   3.862   3.528   5.306  0.0997  0.0827 -0.0763
   20MOL0     O 2623   3.730   3.529   5.341  0.7911  0.6418 -0.0605
   20MOL0     C 2624   3.651   3.620   5.261 -0.3390  0.6938  0.2742
   20MOL0     C 2625   3.611   3.731   5.362 -0.2639 -0.6967  0.6309
   20MOL0     C 2626   3.523   3.686   5.471 -0.3996  0.1758 -0.7923
   20MOL0     C 2627   3.471   3.812   5.554  0.2563  0.3841  0.2675
   20MOL0     C 2628   3.372   3.884   5.467  0.6861 -0.4848 -1.2227
   20MOL0     C 2629   3.303   3.945   5.387  0.5464  0.1696  0.3549
   20MOL0     C 2630   3.952   3.631   5.344  1.2729 -0.0717  0.5248
   20MOL0     C 2631   4.089   3.618   5.307  0.3848  0.9656 -0.0584
   20MOL0     C 2632   4.181   3.732   5.355 -0.7741 -0.1737 -0.1168
   20MOL0     H 2633   4.334   3.552   4.822 -1.5312  4.8246 -0.8352
   20MOL0     H 2634   4.552   3.581   4.706  1.1559 -0.7239  0.6700
   20MOL0     H 2635   4.890   3.689   4.943  2.9318  2.3059 -0.2028
   20MOL0     H 2636   4.922   3.574   4.816 -2.4404  0.0362 -0.3485
   20MOL0     H 2637   5.052   3.809   4.835 -0.8528 -0.2124  0.6253
   20MOL0     H 2638   4.937   3.864   4.724  1.4712  0.3525  0.0116
   20MOL0     H 2639   5.118   3.795   4.609  0.2267 -0.4804 -0.2270
   20MOL0     H 2640   5.006   3.663   4.570 -0.7748  1.6537 -1.5051
   20MOL0     H 2641   5.183   3.648   4.820 -0.5353  0.2069  0.2005
   20MOL0     H 2642   5.128   3.522   4.713 -1.2334  1.0007 -0.8797
   20MOL0     H 2643   5.359   3.536   4.634 -2.6808 -1.8124  0.4896
   20MOL0     H 2644   5.259   3.628   4.519 -1.3004  2.7479  0.1943
   20MOL0     H 2645   5.345   3.828   4.618 -1.8452 -1.1322 -0.9827
   20MOL0     H 2646   5.415   3.743   4.754 -0.2712  4.3505  0.7131
   20MOL0     H 2647   5.507   3.717   4.459 -1.1260  0.5069 -0.6444
   20MOL0     H 2648   5.607   3.651   4.592  0.8534  2.5312  2.2555
   20MOL0     H 2649   5.572   3.952   4.544 -2.5235 -0.5879  1.8537
   20MOL0     H 2650   5.657   3.863   4.677  0.0406 -0.5798  0.6363
   20MOL0     H 2651   5.899   3.850   4.635  1.0097 -1.1750  0.9294
   20MOL0     H 2652   6.147   3.888   4.515  1.3580 -2.0400 -0.8137
   20MOL0     H 2653   6.130   3.814   4.357 -1.2534  0.6647  0.4628
   20MOL0     H 2654   6.095   4.011   4.239  0.3181  0.1270  0.8869
   20MOL0     H 2655   6.066   4.099   4.389 -2.2294 -0.7784 -1.5317
   20MOL0     H 2656   6.295   4.040   4.464  0.3464 -2.6970 -0.4250
   20MOL0     H 2657   6.273   4.163   4.334 -0.5538 -0.5178  0.4817
   20MOL0     H 2658   6.363   4.027   4.172  0.7388  3.4705  0.6602
   20MOL0     H 2659   6.358   3.876   4.258  1.2132  0.4526  0.4422
   20MOL0     H 2660   6.647   4.213   4.334 -2.4877  1.8555 -1.0080
   20MOL0     H 2661   6.832   4.308   4.176 -1.5140  0.1300  0.0869
   20MOL0     H 2662   6.935   4.368   3.689  0.1494 -1.0279  2.0811
   20MOL0     H 2663   7.062   4.402   3.474  0.5857 -0.0632  1.2494
   20MOL0     H 2664   7.059   4.252   3.267 -1.2159  2.2014  2.1731
   20MOL0     H 2665   7.175   4.386   3.256 -0.7071  0.1488  1.0004
   20MOL0     H 2666   7.210   4.119   3.104 -0.3983 -0.7463 -0.7491
   20MOL0     H 2667   7.169   4.282   3.044 -1.1799 -0.7161  0.4218
   20MOL0     H 2668   7.364   4.387   3.111  0.3254  0.5070  2.3974
   20MOL0     H 2669   7.435   4.254   3.197  1.8646 -1.6279 -1.8280
   20MOL0     H 2670   7.371   4.263   2.895  0.4173 -1.2508 -1.2545
   20MOL0     H 2671   7.426   4.117   2.984 -0.1615  0.3761  1.0838
   20MOL0     H 2672   7.634   4.214   3.017  0.7223  1.7639  0.9049
   20MOL0     H 2673   7.583   4.381   2.988  4.0913  0.0747 -0.1015
   20MOL0     H 2674   7.517   4.301   2.739  0.4061  2.6438  1.0066
   20MOL0     H 2675   7.694   4.306   2.797 -0.1769 -0.2436  0.5832
   20MOL0     H 2676   7.531   4.059   2.798  0.2819 -0.1664  0.6533
   20MOL0     H 2677   7.702   4.072   2.809 -0.6912 -0.1412  1.0219
   20MOL0     H 2678   7.564   4.026   2.564 -0.7481  1.5152 -1.5798
   20MOL0     H 2679   7.603   4.194   2.552  1.6616  0.0393 -1.2374
   20MOL0     H 2680   7.215   3.996   3.530  1.1567  0.1702  1.5954
   20MOL0     H 2681   7.083   3.976   3.725 -2.5242 -0.2333  1.1333
   20MOL0     H 2682   6.745   3.980   3.915  4.9405  1.1437  0.9548
   20MOL0     H 2683   6.577   3.886   4.083 -1.6275  1.5865 -1.2603
   20MOL0     H 2684   4.712   3.778   5.046 -0.3904 -0.9356  1.9257
   20MOL0     H 2685   4.514   3.720   5.168 -1.3730  2.4218 -1.0086
   20MOL0     H 2686   4.085   3.310   5.139 -0.0304 -1.6156  0.6515
   20MOL0     H 2687   3.842   3.335   5.226 -2.3712  0.9763 -0.0079
   20MOL0     H 2688   3.558   3.576   5.223 -0.3662  0.7151  0.3162
   20MOL0     H 2689   3.715   3.649   5.177  1.9009 -3.9034  0.1056
   20MOL0     H 2690   3.553   3.801   5.300  2.3997  1.3172  0.2284
   20MOL0     H 2691   3.702   3.772   5.407 -1.9066  0.7407  2.8953
   20MOL0     H 2692   3.588   3.622   5.532  0.6995  0.7857 -1.2852
   20MOL0     H 2693   3.441   3.620   5.441 -2.1538 -0.0822  3.7973
   20MOL0     H 2694   3.420   3.774   5.643 -0.5673  0.1317 -0.3057
   20MOL0     H 2695   3.545   3.883   5.592 -0.9216  2.4269 -1.0959
   20MOL0     H 2696   3.233   3.999   5.327  0.3934 -0.4311 -0.0142
   20MOL0     H 2697   3.920   3.718   5.402  0.9974  1.2694 -1.5326
   20MOL0     H 2698   4.284   3.703   5.329  0.0270 -1.3281  3.6081
   20MOL0     H 2699   4.151   3.820   5.298 -2.3198 -0.7255 -0.1867
   20MOL0     H 2700   4.164   3.748   5.462 -2.6282 -1.2312 -0.2199
   21MOL0     O 2701   2.265   2.103  11.258  0.0058 -1.0149 -0.1459
   21MOL0     C 2702   2.311   2.186  11.337 -0.1606 -0.7096 -0.5180
   21MOL0     O 2703   2.440   2.237  11.343 -0.8312  0.1233 -0.5195
   21MOL0     C 2704   2.523   2.196  11.245 -0.3115  0.2085 -1.1127
   21MOL0     C 2705   2.626   2.284  11.193  0.4631 -0.2104 -0.0337
   21MOL0     C 2706   2.728   2.257  11.110  0.2101  0.2256  0.0345
   21MOL0     C 2707   2.732   2.129  11.060 -0.1291  0.2508 -0.6604
   21MOL0     O 2708   2.828   2.101  10.967  1.0480  0.4839 -0.2948
   21MOL0     C 2709   2.831   1.983  10.884  0.2567  0.0243  0.3151
   21MOL0     C 2710   2.922   1.877  10.945  0.4934 -0.0339  0.0536
   21MOL0     C 2711   2.850   1.739  10.988  0.2561 -0.6107 -0.5377
   21MOL0     C 2712   2.956   1.639  11.019  0.7589  0.0463 -0.0998
   21MOL0     C 2713   2.898   1.503  11.063 -0.2209  0.3577  0.1442
   21MOL0     C 2714   3.014   1.401  11.074  0.0337  0.2117  0.0622
   21MOL0     C 2715   2.963   1.293  11.164  0.2673  0.9375  0.4792
   21MOL0     C 2716   3.059   1.172  11.176  0.1716 -0.2313 -0.5892
   21MOL0     N 2717   3.047   1.078  11.065 -0.2473  0.1486  0.1535
   21MOL0     C 2718   2.959   0.969  11.046  0.8898  0.5060 -0.1361
   21MOL0     C 2719   2.984   0.922  10.921 -0.4806 -0.1011  0.0067
   21MOL0     C 2720   2.916   0.808  10.846  0.0327 -0.3854 -0.3583
   21MOL0     C 2721   2.773   0.807  10.876  0.4667  0.2817 -0.3420
   21MOL0     C 2722   2.705   0.722  10.770 -0.3335 -0.1522  0.1162
   21MOL0     C 2723   2.557   0.737  10.785  0.8766  0.0908  0.0561
   21MOL0     O 2724   2.520   0.674  10.908  0.6196  0.6030 -0.2703
   21MOL0     C 2725   2.390   0.643  10.907 -0.3364  0.2219 -0.5903
   21MOL0     C 2726   2.363   0.508  10.920  0.1556 -0.3900 -0.7621
   21MOL0     C 2727   2.234   0.466  10.930  0.7070  0.0749  0.4605
   21MOL0     C 2728   2.126   0.558  10.919 -0.3302  0.6700  0.2148
   21MOL0     C 2729   1.994   0.508  10.927  0.9608  0.4288 -0.4483
   21MOL0     O 2730   1.973   0.371  10.961 -0.2622 -0.9571 -0.1187
   21MOL0     C 2731   1.847   0.339  11.006 -0.3031  0.2449 -0.5313
   21MOL0     C 2732   1.816   0.341  11.142 -0.1369 -0.0018  0.3160
   21MOL0     C 2733   1.684   0.313  11.181  1.0277  0.3020 -0.7691
   21MOL0     C 2734   1.585   0.302  11.086 -0.1911  0.2334 -0.1329
   21MOL0     O 2735   1.454   0.277  11.117  0.3678 -0.0970 -0.5484
   21MOL0     C 2736   1.401   0.287  11.254 -0.3999  1.0611 -0.3252
   21MOL0     C 2737   1.383   0.429  11.301  0.0700  0.3543 -0.2289
   21MOL0     C 2738   1.254   0.495  11.244  0.6509 -0.2292 -0.1274
   21MOL0     C 2739   1.134   0.466  11.340  0.1559  0.1913  1.2291
   21MOL0     C 2740   1.010   0.550  11.299 -0.4175 -0.8070 -1.3565
   21MOL0     C 2741   0.919   0.483  11.192 -0.1420  0.2571  0.4594
   21MOL0     C 2742   0.783   0.557  11.179 -0.1824 -0.3742  0.9469
   21MOL0     C 2743   0.693   0.508  11.282 -0.3349 -0.5778  0.2572
   21MOL0    Cl 2744   0.532   0.579  11.274  0.1569  0.1406  0.2762
   21MOL0     C 2745   1.623   0.297  10.956  1.0180  0.4190  0.3236
   21MOL0     C 2746   1.749   0.317  10.917  0.0709 -0.2809 -0.1495
   21MOL0     O 2747   1.902   0.594  10.931 -1.2620 -0.5582 -0.0946
   21MOL0     C 2748   2.159   0.697  10.922 -0.0294  0.7635 -0.6414
   21MOL0     C 2749   2.290   0.743  10.916  0.6829  0.0470  1.0635
   21MOL0     N 2750   3.092   0.997  10.869  0.1530 -0.4906  0.2070
   21MOL0     N 2751   3.130   1.086  10.954 -0.4941  0.1061 -0.0735
   21MOL0     C 2752   2.641   2.030  11.107 -0.1439 -0.8826  0.1983
   21MOL0     C 2753   2.537   2.060  11.204 -0.5089 -0.6372 -0.3111
   21MOL0     C 2754   2.215   2.251  11.427  0.1209 -1.2416  0.8573
   21MOL0     C 2755   2.261   2.372  11.487  0.2013 -0.4610  0.2956
   21MOL0     C 2756   2.190   2.446  11.575  0.6205  0.0696 -0.3923
   21MOL0     C 2757   2.072   2.400  11.626 -0.1020 -0.3936 -1.2010
   21MOL0     O 2758   2.000   2.478  11.714  0.2695  0.1364 -0.1396
   21MOL0     C 2759   1.892   2.553  11.641 -0.1746  0.1352 -1.0594
   21MOL0     C 2760   1.806   2.637  11.731 -0.4428  0.5576 -0.5872
   21MOL0     C 2761   1.838   2.789  11.723  0.5732  0.6365  0.0737
   21MOL0     C 2762   1.748   2.869  11.818 -0.0255 -0.3074  0.1410
   21MOL0     C 2763   1.643   2.927  11.733  0.2651 -0.6814  0.0612
   21MOL0     C 2764   1.544   2.965  11.669  0.1439  0.4015  0.1423
   21MOL0     C 2765   2.014   2.285  11.570 -0.2709 -0.8311 -0.3031
   21MOL0     C 2766   2.081   2.211  11.465 -0.2290  0.1258  0.1272
   21MOL0     C 2767   2.011   2.080  11.421  0.1741 -0.4682 -1.0776
   21MOL0     H 2768   2.640   2.383  11.236  2.0005  0.9093 -2.8593
   21MOL0     H 2769   2.812   2.322  11.086  1.3473 -1.8495 -2.1552
   21MOL0     H 2770   2.727   1.958  10.860 -0.9090  1.3796  3.4478
   21MOL0     H 2771   2.878   2.020  10.792 -0.9746 -2.5559 -1.4814
   21MOL0     H 2772   2.982   1.915  11.028  0.9346 -0.7750  0.0861
   21MOL0     H 2773   2.996   1.855  10.867 -1.1331 -0.0421 -1.5613
   21MOL0     H 2774   2.783   1.700  10.911  0.5764 -1.7720 -0.2399
   21MOL0     H 2775   2.791   1.745  11.080 -1.4076  0.1655 -1.6114
   21MOL0     H 2776   3.027   1.630  10.937  3.5557 -1.5959  2.3180
   21MOL0     H 2777   3.001   1.675  11.112  0.9531 -0.3788 -0.0277
   21MOL0     H 2778   2.846   1.507  11.160  0.2076 -0.0704  0.3982
   21MOL0     H 2779   2.817   1.471  10.997 -1.4274 -0.3093  1.8787
   21MOL0     H 2780   3.038   1.350  10.981  1.3282 -0.5433  0.7817
   21MOL0     H 2781   3.094   1.465  11.114 -1.1600  3.8396 -2.8428
   21MOL0     H 2782   2.867   1.259  11.124 -0.0938  3.4592 -1.0899
   21MOL0     H 2783   2.954   1.343  11.261 -0.2741  1.3320  0.2339
   21MOL0     H 2784   3.159   1.215  11.169  0.7751 -0.7123  3.1374
   21MOL0     H 2785   3.059   1.117  11.270 -2.0539 -0.7484 -0.8280
   21MOL0     H 2786   2.887   0.941  11.123  2.9838  1.6204  2.4172
   21MOL0     H 2787   2.945   0.806  10.741 -0.1717 -1.1256 -0.4056
   21MOL0     H 2788   2.959   0.714  10.883  1.3196 -0.1137 -1.0903
   21MOL0     H 2789   2.759   0.773  10.979  3.4665  1.4288  0.5471
   21MOL0     H 2790   2.724   0.904  10.861 -0.9138  0.5503  4.3564
   21MOL0     H 2791   2.727   0.615  10.775 -0.1543 -0.1149  0.1228
   21MOL0     H 2792   2.732   0.763  10.673  3.1478 -1.4693  0.3967
   21MOL0     H 2793   2.507   0.705  10.694  2.3883 -0.6193 -0.5627
   21MOL0     H 2794   2.533   0.843  10.786  0.4796  0.0479 -2.0855
   21MOL0     H 2795   2.431   0.423  10.916 -1.9220 -2.4973  2.8109
   21MOL0     H 2796   2.218   0.359  10.922  3.5860 -0.3632 -1.0356
   21MOL0     H 2797   1.898   0.364  11.210 -0.6882  1.5192  0.5011
   21MOL0     H 2798   1.662   0.304  11.286 -2.0763 -0.6873 -1.4088
   21MOL0     H 2799   1.307   0.231  11.258 -0.4911  1.2782  1.1623
   21MOL0     H 2800   1.471   0.231  11.317 -1.8513 -1.1622 -0.6003
   21MOL0     H 2801   1.373   0.431  11.410  0.3723  1.3080 -0.2045
   21MOL0     H 2802   1.467   0.494  11.277  0.5313 -0.0859  0.1633
   21MOL0     H 2803   1.273   0.602  11.248 -0.8626  0.0432  0.4784
   21MOL0     H 2804   1.235   0.462  11.141  0.7278 -2.3598  0.4773
   21MOL0     H 2805   1.152   0.499  11.443  1.4379 -0.2007  1.1506
   21MOL0     H 2806   1.113   0.359  11.341 -0.0979  0.1875 -0.8431
   21MOL0     H 2807   1.048   0.649  11.272 -2.4061  0.0912 -1.0360
   21MOL0     H 2808   0.949   0.567  11.388 -1.1485 -1.8023 -1.6518
   21MOL0     H 2809   0.970   0.487  11.095 -1.0172 -0.3435 -0.0378
   21MOL0     H 2810   0.905   0.375  11.199 -0.3601  0.2954  0.6474
   21MOL0     H 2811   0.739   0.549  11.080 -2.3040 -0.2214  1.8342
   21MOL0     H 2812   0.808   0.663  11.194  0.6422 -0.5947  1.2075
   21MOL0     H 2813   0.693   0.402  11.255  0.2407 -0.4338 -0.3557
   21MOL0     H 2814   0.735   0.519  11.382 -1.4028  3.1617  0.4236
   21MOL0     H 2815   1.552   0.275  10.877 -1.9674  3.4728  1.8728
   21MOL0     H 2816   1.769   0.320  10.810  1.0702  0.6614  0.0474
   21MOL0     H 2817   2.085   0.776  10.919  0.2457  1.0195 -0.8104
   21MOL0     H 2818   2.305   0.849  10.898 -0.6525  0.0655 -0.0810
   21MOL0     H 2819   2.640   1.927  11.074  0.4629 -1.8666  2.9961
   21MOL0     H 2820   2.471   1.985  11.246 -1.7619  1.0400  0.8764
   21MOL0     H 2821   2.359   2.411  11.462 -1.4844  2.6016 -2.2387
   21MOL0     H 2822   2.233   2.540  11.611 -1.4695  0.9495 -0.0705
   21MOL0     H 2823   1.827   2.481  11.591  0.9140 -0.7027 -1.3264
   21MOL0     H 2824   1.930   2.623  11.566  0.9145 -0.6517 -1.2752
   21MOL0     H 2825   1.809   2.595  11.832  1.1806  0.2170 -0.7459
   21MOL0     H 2826   1.701   2.624  11.703 -0.9268 -2.2296  1.9707
   21MOL0     H 2827   1.825   2.833  11.624 -0.3941  1.7432  0.6631
   21MOL0     H 2828   1.942   2.795  11.757  1.2361 -1.5565 -1.3021
   21MOL0     H 2829   1.699   2.802  11.890 -1.5995  2.6529  1.9998
   21MOL0     H 2830   1.805   2.949  11.864  1.1199 -0.8835 -0.2504
   21MOL0     H 2831   1.458   3.008  11.622  0.5944  1.8443  0.5999
   21MOL0     H 2832   1.912   2.259  11.599 -0.6625  1.3684  0.5054
   21MOL0     H 2833   1.936   2.055  11.497  0.6717 -0.4923 -0.5841
   21MOL0     H 2834   1.959   2.103  11.328 -0.7713  2.7701  0.1292
   21MOL0     H 2835   2.082   1.998  11.406  0.0607 -0.6163 -0.8019
   22MOL0     O 2836   7.078   8.079   6.426 -0.1969  0.4563 -0.2897
   22MOL0     C 2837   7.039   7.968   6.456  0.4083  0.1901 -0.2056
   22MOL0     O 2838   7.123   7.874   6.509 -0.5102  0.0893  0.2709
   22MOL0     C 2839   7.228   7.923   6.575 -0.7366 -0.0705 -0.4216
   22MOL0     C 2840   7.350   7.907   6.519 -0.4785 -0.1398 -0.2212
   22MOL0     C 2841   7.466   7.903   6.592  0.0619 -0.1187 -0.1483
   22MOL0     C 2842   7.457   7.940   6.729  0.0163  0.5499  0.6753
   22MOL0     O 2843   7.579   7.960   6.786 -0.0840  0.1628  0.1006
   22MOL0     C 2844   7.625   7.871   6.890  0.3012 -0.4233  0.1666
   22MOL0     C 2845   7.681   7.742   6.827 -0.1424  0.1717 -0.5529
   22MOL0     C 2846   7.820   7.751   6.781 -0.0625  0.6382  0.5901
   22MOL0     C 2847   7.920   7.825   6.862 -0.6059 -0.7683 -0.0465
   22MOL0     C 2848   8.067   7.813   6.800  0.5555 -0.1529 -0.2253
   22MOL0     C 2849   8.166   7.885   6.894  0.4416  0.6249  0.5625
   22MOL0     C 2850   8.312   7.881   6.840  0.1887  0.3589 -1.1711
   22MOL0     C 2851   8.417   7.787   6.910  0.2876 -0.2583  0.4640
   22MOL0     N 2852   8.562   7.828   6.888  0.4310  0.0912 -0.0428
   22MOL0     C 2853   8.641   7.871   6.784 -0.1228  0.1814  0.8538
   22MOL0     C 2854   8.763   7.893   6.839 -0.2911  0.2479 -0.3417
   22MOL0     C 2855   8.896   7.919   6.764  0.3796 -0.4640  1.1262
   22MOL0     C 2856   8.920   7.804   6.664 -0.1287 -0.2128 -0.1300
   22MOL0     C 2857   9.048   7.837   6.585  0.5046 -0.3686 -0.2534
   22MOL0     C 2858   9.058   7.750   6.463 -0.1972 -0.2274 -0.2654
   22MOL0     O 2859   9.193   7.751   6.418 -0.6057 -0.8650 -0.6588
   22MOL0     C 2860   9.244   7.860   6.347  0.3932  0.0603  0.0691
   22MOL0     C 2861   9.164   7.972   6.305  0.2774 -0.3618 -1.6615
   22MOL0     C 2862   9.217   8.076   6.226 -0.1452  0.1503  0.9860
   22MOL0     C 2863   9.349   8.061   6.178  0.1904  0.1867  0.1419
   22MOL0     C 2864   9.399   8.162   6.086  0.2440 -0.8414 -0.7263
   22MOL0     O 2865   9.349   8.289   6.085 -0.4399  0.1312 -0.3276
   22MOL0     C 2866   9.394   8.375   5.995  0.0682  0.0627 -0.2824
   22MOL0     C 2867   9.308   8.420   5.896  0.2276  0.3127 -0.7846
   22MOL0     C 2868   9.358   8.501   5.793 -0.2134 -0.0053  0.1479
   22MOL0     C 2869   9.491   8.544   5.783 -0.5088 -0.0347  0.4673
   22MOL0     O 2870   9.531   8.626   5.684 -0.1676  0.3065  0.5083
   22MOL0     C 2871   9.456   8.641   5.564  0.7334 -0.3168  0.4593
   22MOL0     C 2872   9.548   8.692   5.457 -1.7350 -0.8532  0.4806
   22MOL0     C 2873   9.584   8.849   5.484 -0.2152 -0.2423 -0.0064
   22MOL0     C 2874   9.718   8.886   5.402  0.1910 -0.0298  0.1681
   22MOL0     C 2875   9.841   8.891   5.498  0.1407 -0.2664  0.0097
   22MOL0     C 2876   9.879   8.759   5.555 -0.5883 -0.5077  0.8152
   22MOL0     C 2877   9.953   8.662   5.462  0.1462 -0.7752  0.4175
   22MOL0     C 2878   9.975   8.523   5.519 -0.4647 -0.1847 -0.2754
   22MOL0    Cl 2879   9.813   8.448   5.540 -0.2432 -0.1875  0.2712
   22MOL0     C 2880   9.571   8.503   5.890  0.3753 -0.7141 -0.3475
   22MOL0     C 2881   9.525   8.423   5.994  0.1927 -0.4177 -0.3558
   22MOL0     O 2882   9.493   8.126   6.012  0.1192  0.8720 -0.3336
   22MOL0     C 2883   9.423   7.945   6.221  0.1838 -0.5040  0.0323
   22MOL0     C 2884   9.375   7.850   6.310  0.0335 -0.6001  0.2039
   22MOL0     N 2885   8.752   7.891   6.980 -0.5200  0.3515  0.1495
   22MOL0     N 2886   8.634   7.840   7.004  0.4623  0.4001  0.2277
   22MOL0     C 2887   7.337   7.959   6.792 -0.9976  0.2304 -0.8525
   22MOL0     C 2888   7.225   7.954   6.711 -0.0907  0.0965  0.4248
   22MOL0     C 2889   6.898   7.920   6.415 -0.8009  0.0800 -0.3496
   22MOL0     C 2890   6.882   7.787   6.405 -0.4793  0.9442 -1.6328
   22MOL0     C 2891   6.764   7.728   6.366  0.5183 -0.1362 -0.0083
   22MOL0     C 2892   6.653   7.798   6.327  0.1661  0.3658  0.6587
   22MOL0     O 2893   6.547   7.738   6.265 -0.0706 -0.6459 -0.1446
   22MOL0     C 2894   6.425   7.733   6.346 -0.7073  0.8533 -0.1535
   22MOL0     C 2895   6.318   7.816   6.279 -0.3941  0.7928 -0.1378
   22MOL0     C 2896   6.223   7.728   6.190 -0.8155  0.4791  0.1747
   22MOL0     C 2897   6.129   7.819   6.108  0.1416  0.2808  0.1902
   22MOL0     C 2898   6.074   7.754   5.982 -0.3720  0.2869 -1.0329
   22MOL0     C 2899   6.030   7.706   5.882  1.0543 -0.1439 -0.8535
   22MOL0     C 2900   6.671   7.938   6.331  0.7945  0.6031 -0.5550
   22MOL0     C 2901   6.789   8.002   6.369  0.1479 -0.3768 -0.1601
   22MOL0     C 2902   6.795   8.145   6.358  0.2988  1.0386 -0.1190
   22MOL0     H 2903   7.350   7.874   6.415  0.0739 -0.6941 -0.0479
   22MOL0     H 2904   7.560   7.883   6.543 -0.0129 -1.3448  0.1597
   22MOL0     H 2905   7.708   7.925   6.936 -1.4399  3.3066 -0.7292
   22MOL0     H 2906   7.551   7.844   6.966 -0.2308  0.6803  0.0608
   22MOL0     H 2907   7.617   7.718   6.741 -0.0873  1.5754 -1.0075
   22MOL0     H 2908   7.680   7.656   6.895  0.0175 -0.4446 -1.3176
   22MOL0     H 2909   7.827   7.804   6.685  0.6352 -1.2978 -0.4810
   22MOL0     H 2910   7.858   7.651   6.760 -0.6796  1.0194 -3.0523
   22MOL0     H 2911   7.897   7.928   6.891 -1.0710 -0.7409 -0.5057
   22MOL0     H 2912   7.924   7.770   6.957 -0.7315  0.7753  0.8884
   22MOL0     H 2913   8.091   7.708   6.783 -1.8431 -0.9753  0.9754
   22MOL0     H 2914   8.072   7.876   6.710 -0.7703 -1.0672 -0.9846
   22MOL0     H 2915   8.135   7.990   6.896  3.3949  1.8337 -3.6332
   22MOL0     H 2916   8.160   7.841   6.995  1.6889  2.7471  1.6431
   22MOL0     H 2917   8.361   7.976   6.861  1.5555 -0.2885 -1.3427
   22MOL0     H 2918   8.316   7.866   6.732  3.4483  1.3866 -1.2816
   22MOL0     H 2919   8.402   7.798   7.018  0.3449  1.2366  0.3454
   22MOL0     H 2920   8.399   7.685   6.875 -0.1445  0.3364 -1.1558
   22MOL0     H 2921   8.610   7.867   6.680  4.0957  0.6430 -0.5957
   22MOL0     H 2922   8.885   8.013   6.708 -3.3071 -0.1244  2.1749
   22MOL0     H 2923   8.980   7.917   6.834  0.5249 -0.1916  0.9616
   22MOL0     H 2924   8.928   7.709   6.719 -0.6135 -0.8758 -1.1744
   22MOL0     H 2925   8.836   7.791   6.596  1.7084  1.4396 -2.8810
   22MOL0     H 2926   9.133   7.820   6.653  0.8442 -0.5118 -0.7061
   22MOL0     H 2927   9.041   7.942   6.554 -1.3023 -0.1470  0.7761
   22MOL0     H 2928   8.987   7.773   6.382  1.8130  3.4709 -1.2179
   22MOL0     H 2929   9.025   7.659   6.513 -0.5940 -1.5124 -2.6845
   22MOL0     H 2930   9.058   7.978   6.329  0.5758  0.1984 -0.3766
   22MOL0     H 2931   9.154   8.163   6.222  0.8967  1.0636  3.1280
   22MOL0     H 2932   9.207   8.381   5.892 -0.7850  2.8144 -1.3006
   22MOL0     H 2933   9.281   8.532   5.724  0.3444  0.8576 -0.1131
   22MOL0     H 2934   9.416   8.544   5.534  1.1540 -0.1486 -0.7143
   22MOL0     H 2935   9.378   8.716   5.578  1.3653  0.6325 -0.8949
   22MOL0     H 2936   9.642   8.636   5.448 -0.5946  0.9044  1.0001
   22MOL0     H 2937   9.503   8.680   5.358  0.6972  0.4367 -0.8638
   22MOL0     H 2938   9.503   8.912   5.446  0.3363  1.5542  1.6093
   22MOL0     H 2939   9.599   8.865   5.592 -1.0812  1.1863 -0.0667
   22MOL0     H 2940   9.704   8.984   5.355  3.0594  1.3946  1.9873
   22MOL0     H 2941   9.723   8.817   5.317  0.0485  0.7730 -0.5088
   22MOL0     H 2942   9.812   8.951   5.584 -3.6957 -3.9569  1.6009
   22MOL0     H 2943   9.924   8.939   5.444 -0.7449  0.6541 -0.5689
   22MOL0     H 2944   9.954   8.774   5.634  1.2301  0.4555 -1.0143
   22MOL0     H 2945   9.793   8.711   5.604 -1.7786  0.3285 -0.3831
   22MOL0     H 2946  10.042   8.721   5.437 -1.7466  2.4897  0.7886
   22MOL0     H 2947   9.890   8.645   5.374 -0.7741  0.0330  0.9085
   22MOL0     H 2948  10.039   8.469   5.448 -1.3338  0.4982 -1.6175
   22MOL0     H 2949  10.027   8.533   5.615 -0.9783  3.1286 -0.2204
   22MOL0     H 2950   9.674   8.539   5.895  0.5092 -1.2027  0.6799
   22MOL0     H 2951   9.578   8.402   6.086 -3.5262 -2.0165  1.6169
   22MOL0     H 2952   9.528   7.929   6.198  0.5107  1.0666  0.2915
   22MOL0     H 2953   9.437   7.765   6.337 -1.2396 -1.4461  0.5342
   22MOL0     H 2954   7.343   7.980   6.898  0.2843  1.5502 -1.1678
   22MOL0     H 2955   7.129   7.951   6.762  0.4647 -1.1447  1.4352
   22MOL0     H 2956   6.960   7.715   6.428 -1.7881 -0.1671 -0.4046
   22MOL0     H 2957   6.743   7.621   6.364 -1.4124  0.2027 -2.5430
   22MOL0     H 2958   6.432   7.774   6.447 -1.2810  3.3027 -1.0464
   22MOL0     H 2959   6.394   7.628   6.349 -0.1207  0.4210 -3.7648
   22MOL0     H 2960   6.369   7.898   6.229  1.4689  0.2212  0.7218
   22MOL0     H 2961   6.257   7.855   6.361  0.1205  0.8492  0.2243
   22MOL0     H 2962   6.163   7.658   6.248  0.8402 -0.5611  0.7033
   22MOL0     H 2963   6.289   7.669   6.126  0.4266 -0.1632  1.9828
   22MOL0     H 2964   6.037   7.842   6.164 -0.2984 -1.1220  0.0824
   22MOL0     H 2965   6.179   7.911   6.077  0.1292 -0.5415 -2.5015
   22MOL0     H 2966   6.000   7.651   5.795  0.7444  1.1588 -1.6124
   22MOL0     H 2967   6.589   8.001   6.298  0.1618  0.2217  0.2537
   22MOL0     H 2968   6.829   8.181   6.455  0.5672 -1.4717  0.8116
   22MOL0     H 2969   6.873   8.169   6.285  1.2439 -1.4205 -0.0245
   22MOL0     H 2970   6.695   8.177   6.326 -1.1626 -0.7073  2.3294
   23MOL0     O 2971   8.163   8.266   5.895 -0.5447  0.4332  0.1575
   23MOL0     C 2972   8.185   8.341   5.804 -0.2754 -0.9957  0.4453
   23MOL0     O 2973   8.299   8.349   5.729  0.1165  0.6741 -0.0767
   23MOL0     C 2974   8.404   8.268   5.777  1.1268 -0.4739 -0.5627
   23MOL0     C 2975   8.445   8.263   5.916  0.4980  0.4641  0.2878
   23MOL0     C 2976   8.545   8.170   5.958  0.7203  0.8761 -0.1318
   23MOL0     C 2977   8.619   8.093   5.860  0.6467  0.4152 -0.8959
   23MOL0     O 2978   8.720   8.013   5.900  0.1543  0.0869 -1.1271
   23MOL0     C 2979   8.703   7.880   5.847 -0.4187 -0.0770  0.7561
   23MOL0     C 2980   8.776   7.768   5.919  0.5270 -0.1420 -0.0225
   23MOL0     C 2981   8.925   7.780   5.919 -0.1641 -0.4355  0.1467
   23MOL0     C 2982   9.002   7.667   5.977 -1.7775 -0.3328  0.6535
   23MOL0     C 2983   9.157   7.688   5.997 -0.7750 -0.1026  0.8395
   23MOL0     C 2984   9.221   7.715   5.858 -0.7137 -0.7210 -0.5742
   23MOL0     C 2985   9.370   7.724   5.861 -0.5524 -0.0588 -0.6713
   23MOL0     C 2986   9.425   7.757   5.722 -0.3329 -0.0059 -0.5943
   23MOL0     N 2987   9.570   7.799   5.743 -0.3730 -0.7601 -0.5212
   23MOL0     C 2988   9.604   7.932   5.769 -0.3166 -0.3666  0.8241
   23MOL0     C 2989   9.741   7.929   5.754 -0.6039 -0.4927  0.1982
   23MOL0     C 2990   9.819   8.061   5.747  0.4980  0.0605 -0.8723
   23MOL0     C 2991   9.776   8.161   5.864 -0.2961  0.1961 -0.8598
   23MOL0     C 2992   9.853   8.292   5.858 -0.4499  0.1658 -0.6456
   23MOL0     C 2993  10.007   8.285   5.823 -0.1168  0.7017  0.3245
   23MOL0     O 2994  10.084   8.207   5.919 -0.3900  0.1601 -0.4179
   23MOL0     C 2995  10.224   8.221   5.906  1.0483  1.0174  0.3515
   23MOL0     C 2996  10.283   8.290   5.797  0.1385 -0.2986  0.0524
   23MOL0     C 2997  10.421   8.313   5.793 -0.3920 -0.2187 -0.2176
   23MOL0     C 2998  10.504   8.261   5.893 -0.6290 -0.4743  0.5133
   23MOL0     C 2999  10.652   8.278   5.881  0.4148  0.6733  0.1384
   23MOL0     O 3000  10.726   8.218   5.971 -0.4102  0.4622 -0.5211
   23MOL0     C 3001  10.864   8.218   5.964  1.0602  1.6050  0.8144
   23MOL0     C 3002  10.925   8.223   6.085 -0.4581 -0.0282 -0.1982
   23MOL0     C 3003  11.064   8.210   6.089 -0.5305 -0.3732 -0.6066
   23MOL0     C 3004  11.136   8.199   5.974  0.2810  0.6801 -0.0041
   23MOL0     O 3005  11.271   8.215   5.969 -0.6468 -0.0142 -0.2983
   23MOL0     C 3006  11.349   8.171   6.080  0.0911 -0.7307 -0.6338
   23MOL0     C 3007  11.466   8.093   6.042 -0.4400 -0.7338  0.1923
   23MOL0     C 3008  11.573   8.165   5.958  0.0439 -0.7208  0.0487
   23MOL0     C 3009  11.587   8.316   5.982  0.1612  0.5655  0.6307
   23MOL0     C 3010  11.680   8.379   5.882 -0.9563  0.0426 -0.0412
   23MOL0     C 3011  11.823   8.336   5.912 -0.4836 -0.5972  0.6107
   23MOL0     C 3012  11.918   8.407   5.812 -0.5772  0.0802 -0.3505
   23MOL0     C 3013  12.070   8.389   5.843  0.6642 -0.4319  0.1860
   23MOL0    Cl 3014  12.135   8.212   5.821 -0.1921  0.2477 -0.4601
   23MOL0     C 3015  11.066   8.190   5.852 -0.2809 -0.0369  0.7443
   23MOL0     C 3016  10.927   8.191   5.843  0.6198 -0.2739 -0.1451
   23MOL0     O 3017  10.694   8.361   5.808 -0.1507  0.4223  0.2399
   23MOL0     C 3018  10.444   8.183   5.995  0.1687  0.2506  0.3427
   23MOL0     C 3019  10.303   8.156   6.003 -0.2648  0.0796  1.2061
   23MOL0     N 3020   9.785   7.804   5.720 -0.1228  0.4150 -0.0138
   23MOL0     N 3021   9.682   7.726   5.710  0.0855  0.6648 -0.4690
   23MOL0     C 3022   8.577   8.101   5.727  1.0052 -0.3469  0.8609
   23MOL0     C 3023   8.466   8.183   5.688  0.2605  0.0541 -0.2846
   23MOL0     C 3024   8.090   8.455   5.774  0.7851  0.1462  0.1736
   23MOL0     C 3025   8.133   8.551   5.682  0.4270 -1.0011  0.1726
   23MOL0     C 3026   8.043   8.654   5.639  0.1134  0.6988  0.3251
   23MOL0     C 3027   7.916   8.668   5.693 -0.6214 -0.0396  0.0808
   23MOL0     O 3028   7.830   8.767   5.668  0.8727  0.1941  0.2872
   23MOL0     C 3029   7.866   8.902   5.697 -0.2136  0.8664  0.2549
   23MOL0     C 3030   7.932   8.923   5.838 -0.4332  0.1500 -0.0481
   23MOL0     C 3031   8.085   8.901   5.832  0.0691  0.0184 -0.2993
   23MOL0     C 3032   8.140   9.007   5.929  0.3298 -0.1185 -0.6527
   23MOL0     C 3033   8.141   8.968   6.068  0.4183 -0.1489  0.5924
   23MOL0     C 3034   8.142   8.934   6.187 -0.4145  0.2746 -0.0459
   23MOL0     C 3035   7.881   8.574   5.784 -0.0684 -0.3106 -0.1059
   23MOL0     C 3036   7.956   8.472   5.832  0.2805  0.4714 -0.0626
   23MOL0     C 3037   7.899   8.362   5.923  0.2018 -1.4382 -0.0471
   23MOL0     H 3038   8.402   8.324   5.994  1.5493  0.8149  0.6200
   23MOL0     H 3039   8.562   8.167   6.065 -0.6745  0.2881  0.1008
   23MOL0     H 3040   8.597   7.853   5.843 -0.4077 -0.0490 -2.6088
   23MOL0     H 3041   8.753   7.869   5.750  0.4986 -1.5062  1.3639
   23MOL0     H 3042   8.747   7.668   5.887  0.8010  0.6780 -3.1579
   23MOL0     H 3043   8.735   7.781   6.020 -1.7546 -2.6935 -0.5183
   23MOL0     H 3044   8.942   7.877   5.968  1.6875 -0.9282  0.5717
   23MOL0     H 3045   8.955   7.786   5.814 -3.0822  0.7770 -0.7099
   23MOL0     H 3046   8.967   7.629   6.074 -0.9299 -0.7893  0.7971
   23MOL0     H 3047   9.004   7.584   5.905 -0.2069 -0.9568  1.3546
   23MOL0     H 3048   9.199   7.768   6.059  0.7435  1.0620 -1.5606
   23MOL0     H 3049   9.192   7.592   6.035  0.0319  0.5528  1.8064
   23MOL0     H 3050   9.192   7.628   5.799  1.1553 -2.9760  1.5865
   23MOL0     H 3051   9.187   7.806   5.809  1.5268 -0.8734 -2.5811
   23MOL0     H 3052   9.397   7.623   5.894 -1.0336 -0.4799 -1.5134
   23MOL0     H 3053   9.412   7.799   5.929 -3.8994  1.8109 -0.4448
   23MOL0     H 3054   9.430   7.667   5.661  0.6359 -2.1640  2.4310
   23MOL0     H 3055   9.364   7.837   5.678 -0.6392  0.3727  0.4675
   23MOL0     H 3056   9.536   8.015   5.785  0.8428  0.3526  2.2873
   23MOL0     H 3057   9.923   8.027   5.755  0.0390 -1.3554 -0.6540
   23MOL0     H 3058   9.801   8.112   5.652 -1.2205  0.3775 -0.3996
   23MOL0     H 3059   9.671   8.182   5.845 -0.8951 -2.0590 -0.3367
   23MOL0     H 3060   9.781   8.116   5.964 -0.1324  1.8524 -0.0890
   23MOL0     H 3061   9.843   8.335   5.957 -3.4619 -1.3838 -0.1779
   23MOL0     H 3062   9.800   8.357   5.788 -2.4766 -0.6147  0.0897
   23MOL0     H 3063  10.040   8.389   5.817  2.0376  0.1513  1.5660
   23MOL0     H 3064  10.012   8.239   5.723 -1.4439 -2.7435  1.6722
   23MOL0     H 3065  10.227   8.335   5.715 -0.5437 -0.8007  0.2267
   23MOL0     H 3066  10.455   8.387   5.721 -1.2682  0.3036 -0.1079
   23MOL0     H 3067  10.864   8.238   6.174 -2.0237  2.9340 -1.6104
   23MOL0     H 3068  11.101   8.223   6.190 -1.0332 -1.6317 -0.2394
   23MOL0     H 3069  11.395   8.252   6.137  0.7962  1.8453 -4.4975
   23MOL0     H 3070  11.284   8.105   6.140 -2.4921  0.5282 -1.8863
   23MOL0     H 3071  11.504   8.067   6.141 -2.3899 -1.7314  0.7272
   23MOL0     H 3072  11.435   7.998   5.997 -2.3646  0.2902 -0.7927
   23MOL0     H 3073  11.664   8.109   5.980  1.0531  1.3702  1.5087
   23MOL0     H 3074  11.540   8.149   5.855 -2.3510  0.1628  0.6056
   23MOL0     H 3075  11.618   8.335   6.085  0.8189 -2.2965  1.0464
   23MOL0     H 3076  11.493   8.370   5.966  0.5112  1.0660  0.2547
   23MOL0     H 3077  11.670   8.488   5.873  2.1833  0.3331 -1.2311
   23MOL0     H 3078  11.662   8.339   5.782  1.2794 -3.5184  0.7791
   23MOL0     H 3079  11.846   8.364   6.015 -1.0925 -0.2686  0.6611
   23MOL0     H 3080  11.840   8.229   5.896  1.4341 -0.1231 -0.8852
   23MOL0     H 3081  11.894   8.513   5.826  0.9315  0.2959  0.8468
   23MOL0     H 3082  11.902   8.380   5.707  3.4269  0.7781 -1.3018
   23MOL0     H 3083  12.125   8.461   5.782 -1.4810 -1.5503 -3.3233
   23MOL0     H 3084  12.085   8.430   5.944  1.0150  0.2815 -0.1518
   23MOL0     H 3085  11.125   8.187   5.761 -1.0966 -4.1261  0.1341
   23MOL0     H 3086  10.874   8.182   5.748 -1.1768  2.7754  0.4324
   23MOL0     H 3087  10.508   8.131   6.066 -0.2322 -0.9111 -0.1248
   23MOL0     H 3088  10.271   8.087   6.080  0.6917  0.6820  2.1669
   23MOL0     H 3089   8.632   8.051   5.648  0.6828  0.5907  0.0235
   23MOL0     H 3090   8.442   8.195   5.583 -0.4336  0.8677 -0.0456
   23MOL0     H 3091   8.235   8.553   5.643 -0.0689 -2.3035 -1.2942
   23MOL0     H 3092   8.076   8.732   5.572 -0.0823 -0.1187 -0.7381
   23MOL0     H 3093   7.774   8.962   5.687  0.9658  2.3379 -4.0287
   23MOL0     H 3094   7.931   8.940   5.618  0.6815 -0.6789  0.2105
   23MOL0     H 3095   7.890   8.855   5.912  0.9925  0.0265  0.6847
   23MOL0     H 3096   7.909   9.025   5.871  2.0271  1.1825 -1.2080
   23MOL0     H 3097   8.124   8.926   5.733  1.8236  2.1073  0.8465
   23MOL0     H 3098   8.120   8.801   5.862 -2.5486 -0.4751  1.4765
   23MOL0     H 3099   8.246   9.020   5.906  0.6593 -1.7618 -0.1414
   23MOL0     H 3100   8.103   9.109   5.910 -0.2881 -0.0787  0.6183
   23MOL0     H 3101   8.154   8.892   6.285  0.3912  2.3741  0.8158
   23MOL0     H 3102   7.783   8.607   5.816  0.6368  2.4903 -0.5454
   23MOL0     H 3103   7.794   8.380   5.948  0.7964  0.8276  1.0929
   23MOL0     H 3104   7.904   8.260   5.882 -0.6557 -0.9347 -1.4664
   23MOL0     H 3105   7.947   8.362   6.022 -2.7149 -0.8943  1.4965
   24MOL0     O 3106   7.403   8.281  10.456  0.2532  0.4215 -0.2406
   24MOL0     C 3107   7.419   8.199  10.544  0.6519 -0.3589  0.2245
   24MOL0     O 3108   7.320   8.113  10.581  0.9134  0.3333 -0.5254
   24MOL0     C 3109   7.188   8.158  10.589  0.1054 -0.3530  0.7967
   24MOL0     C 3110   7.107   8.213  10.479  0.1902  0.6977  0.3635
   24MOL0     C 3111   6.970   8.247  10.493 -0.0670  0.4641  0.4542
   24MOL0     C 3112   6.906   8.216  10.608  0.4211  0.2878  0.5092
   24MOL0     O 3113   6.773   8.234  10.615  0.2093 -0.5578  0.3985
   24MOL0     C 3114   6.694   8.131  10.545  0.1263  0.4712 -1.0341
   24MOL0     C 3115   6.546   8.165  10.554 -0.1633  0.4781  0.4461
   24MOL0     C 3116   6.467   8.053  10.484  0.4082  1.0190 -0.4693
   24MOL0     C 3117   6.319   8.084  10.499  0.6664 -0.0977 -0.7973
   24MOL0     C 3118   6.219   7.968  10.465 -0.3176  0.1753 -0.2442
   24MOL0     C 3119   6.218   7.902  10.321  0.6442  0.0222 -0.3433
   24MOL0     C 3120   6.125   7.788  10.317  0.1443  0.8273  0.0801
   24MOL0     C 3121   6.118   7.717  10.184 -0.8621 -0.0507  1.0360
   24MOL0     N 3122   6.009   7.628  10.180  0.3734 -0.0313  0.4212
   24MOL0     C 3123   5.881   7.648  10.145 -0.0342  0.2986  0.5183
   24MOL0     C 3124   5.810   7.530  10.154  1.1185 -0.4472  0.0872
   24MOL0     C 3125   5.660   7.515  10.124 -0.4809  0.1134  0.1808
   24MOL0     C 3126   5.618   7.365  10.105  0.3589 -0.2826 -0.4742
   24MOL0     C 3127   5.679   7.309   9.975 -0.4850  0.7002 -0.0790
   24MOL0     C 3128   5.614   7.178   9.933  0.1423 -0.2762  0.1511
   24MOL0     O 3129   5.665   7.072  10.019  0.1446 -1.0198 -0.6422
   24MOL0     C 3130   5.734   6.966   9.973  0.2378 -0.7790  1.1827
   24MOL0     C 3131   5.838   6.912  10.054  0.5076  0.8884 -0.8294
   24MOL0     C 3132   5.908   6.802  10.018  0.1709 -0.3060 -0.1000
   24MOL0     C 3133   5.874   6.739   9.898  0.0278  0.8509 -0.7137
   24MOL0     C 3134   5.926   6.603   9.862 -0.2823 -0.3999 -0.8391
   24MOL0     O 3135   6.036   6.571   9.934 -0.1695  0.5587  0.1801
   24MOL0     C 3136   6.069   6.442   9.952  0.1152  0.3658  0.3472
   24MOL0     C 3137   6.203   6.416   9.965 -0.2180 -0.2036  0.2071
   24MOL0     C 3138   6.248   6.289   9.995  0.3702 -0.1415 -0.4226
   24MOL0     C 3139   6.165   6.182   9.995  0.6523  1.2940 -0.0334
   24MOL0     O 3140   6.208   6.050  10.018  0.0337 -0.7983 -0.2878
   24MOL0     C 3141   6.336   6.034  10.067 -0.8744  0.3935 -0.1295
   24MOL0     C 3142   6.427   6.021   9.941 -0.2349  0.5299 -0.8445
   24MOL0     C 3143   6.573   5.985   9.990 -0.4540  0.4935  0.8830
   24MOL0     C 3144   6.666   5.959   9.876 -0.7099 -1.0423  0.5985
   24MOL0     C 3145   6.804   5.926   9.916 -0.8667 -0.8198 -0.7578
   24MOL0     C 3146   6.906   5.904   9.799  0.7847  0.1198 -0.2234
   24MOL0     C 3147   7.054   5.920   9.844  0.0808 -0.2077 -0.2472
   24MOL0     C 3148   7.089   5.816   9.951  0.2219 -0.0543 -0.1207
   24MOL0    Cl 3149   7.062   5.643   9.887  0.1710 -0.0895 -0.5566
   24MOL0     C 3150   6.027   6.207   9.985  0.0990 -0.0245  1.2504
   24MOL0     C 3151   5.979   6.338   9.961  0.2409  0.5031  0.1234
   24MOL0     O 3152   5.861   6.532   9.782 -0.2739  0.1168 -0.3155
   24MOL0     C 3153   5.774   6.789   9.815 -0.3235 -0.1479  0.1581
   24MOL0     C 3154   5.702   6.904   9.849 -0.2302 -0.0651 -0.1807
   24MOL0     N 3155   5.897   7.448  10.219 -0.3426 -0.0890  0.3994
   24MOL0     N 3156   6.012   7.499  10.222 -0.3597  0.3296  0.4387
   24MOL0     C 3157   6.987   8.173  10.718 -0.2262  0.1248 -0.4767
   24MOL0     C 3158   7.121   8.141  10.707 -0.4004  0.5383 -0.0686
   24MOL0     C 3159   7.554   8.169  10.599  0.8345 -0.4581  0.2075
   24MOL0     C 3160   7.557   8.064  10.692  0.1024 -0.2497  0.1571
   24MOL0     C 3161   7.675   8.039  10.765  0.5581  0.1043 -0.7433
   24MOL0     C 3162   7.792   8.118  10.751 -0.0129 -0.1333 -0.3308
   24MOL0     O 3163   7.908   8.086  10.812 -0.4213 -0.0656 -1.5460
   24MOL0     C 3164   8.037   8.105  10.754 -0.4270  0.7408 -0.3041
   24MOL0     C 3165   8.117   8.219  10.820 -0.1513  0.7129  0.1152
   24MOL0     C 3166   8.250   8.244  10.748  0.2258 -0.3586 -0.2615
   24MOL0     C 3167   8.249   8.323  10.622  0.0413  0.0606  0.5281
   24MOL0     C 3168   8.187   8.451  10.643  0.7000  0.6740 -0.0664
   24MOL0     C 3169   8.126   8.555  10.664  0.3485  0.1506  0.0707
   24MOL0     C 3170   7.784   8.223  10.656  0.6562  0.3155  0.0476
   24MOL0     C 3171   7.668   8.248  10.578 -0.9344  0.5124 -0.9842
   24MOL0     C 3172   7.681   8.353  10.475 -0.1497 -0.4883 -0.6026
   24MOL0     H 3173   7.159   8.225  10.385 -1.6983 -0.3182 -0.8778
   24MOL0     H 3174   6.914   8.310  10.424 -0.0997  1.8220  1.6801
   24MOL0     H 3175   6.721   8.118  10.440  0.8279 -3.3996 -0.5180
   24MOL0     H 3176   6.712   8.034  10.593 -0.3095  0.2104 -1.3979
   24MOL0     H 3177   6.533   8.259  10.498  1.7723 -0.1495 -1.1903
   24MOL0     H 3178   6.525   8.180  10.660  0.9375  2.8240  0.4143
   24MOL0     H 3179   6.481   7.961  10.542 -1.4844 -0.4997 -2.2429
   24MOL0     H 3180   6.490   8.030  10.380  0.2027 -0.6116 -0.1770
   24MOL0     H 3181   6.308   8.098  10.607  0.0358 -1.4276 -0.6708
   24MOL0     H 3182   6.297   8.178  10.447 -2.2732 -0.5285 -0.5125
   24MOL0     H 3183   6.235   7.883  10.532  1.1967 -0.1671 -1.0043
   24MOL0     H 3184   6.121   8.013  10.486 -1.9089 -2.7837 -0.7841
   24MOL0     H 3185   6.184   7.964  10.238 -0.3821 -2.3761 -1.8402
   24MOL0     H 3186   6.318   7.869  10.293  0.8578  0.8257 -0.5468
   24MOL0     H 3187   6.029   7.825  10.356  1.5277  2.0005  2.6553
   24MOL0     H 3188   6.163   7.713  10.388 -2.1211  0.5984  1.1480
   24MOL0     H 3189   6.108   7.779  10.094 -1.6069 -1.6345 -0.0299
   24MOL0     H 3190   6.217   7.676  10.160  0.0826  2.4787  0.3210
   24MOL0     H 3191   5.842   7.741  10.106 -1.7476 -1.1447 -1.4092
   24MOL0     H 3192   5.613   7.561  10.212 -0.9876 -1.4349  0.7465
   24MOL0     H 3193   5.624   7.575  10.040 -0.6575  0.5641  0.5743
   24MOL0     H 3194   5.648   7.299  10.186  1.5200  1.1297  0.2876
   24MOL0     H 3195   5.510   7.360  10.086  0.8429 -1.3136 -3.6468
   24MOL0     H 3196   5.786   7.293   9.988  0.2904  4.2461 -1.0772
   24MOL0     H 3197   5.651   7.377   9.894 -1.2265 -0.4881 -0.8679
   24MOL0     H 3198   5.639   7.159   9.828  0.0832  3.1393 -0.6058
   24MOL0     H 3199   5.506   7.190   9.946 -0.0103 -2.1307  0.8687
   24MOL0     H 3200   5.848   6.967  10.147 -2.7558  2.8353 -1.4406
   24MOL0     H 3201   5.979   6.757  10.088  1.6612 -0.2062 -1.4867
   24MOL0     H 3202   6.270   6.497   9.939 -0.7528  0.7141  1.5864
   24MOL0     H 3203   6.354   6.277  10.013  0.3669 -1.0027 -0.9155
   24MOL0     H 3204   6.367   6.112  10.137 -0.4514  0.8706 -0.8339
   24MOL0     H 3205   6.352   5.939  10.119  2.7078  1.7283  1.5370
   24MOL0     H 3206   6.403   5.930   9.885  0.7327 -0.4284  0.2529
   24MOL0     H 3207   6.427   6.116   9.887 -0.2198  0.6953 -0.5547
   24MOL0     H 3208   6.610   6.063  10.057 -1.4894  0.6964  1.2426
   24MOL0     H 3209   6.561   5.895  10.052  2.4021 -0.1552  0.6497
   24MOL0     H 3210   6.669   6.047   9.812 -0.7699 -0.9444  0.7289
   24MOL0     H 3211   6.635   5.877   9.811  0.4382 -1.2015  0.2260
   24MOL0     H 3212   6.806   5.831   9.970  0.2597 -0.2111  0.3079
   24MOL0     H 3213   6.835   6.010   9.979 -1.1664  0.0609 -1.7588
   24MOL0     H 3214   6.875   5.817   9.741  1.7126 -0.0878 -0.4300
   24MOL0     H 3215   6.895   5.988   9.731  0.7134 -0.6620 -1.2020
   24MOL0     H 3216   7.065   6.026   9.872 -1.4104 -0.2555  0.6275
   24MOL0     H 3217   7.115   5.891   9.758 -3.1222  0.4630 -2.9695
   24MOL0     H 3218   7.197   5.828   9.961  0.1804  0.4562 -0.2495
   24MOL0     H 3219   7.046   5.837  10.050  1.8152 -1.6595  0.9829
   24MOL0     H 3220   5.965   6.120  10.004  2.2114 -2.4165 -1.7374
   24MOL0     H 3221   5.872   6.346   9.980  0.5261  1.9281  1.3016
   24MOL0     H 3222   5.756   6.753   9.715 -0.9292  4.1421 -1.5095
   24MOL0     H 3223   5.611   6.934   9.796 -0.3120 -3.1815 -2.1243
   24MOL0     H 3224   6.942   8.167  10.817 -0.2462 -2.3111 -0.5632
   24MOL0     H 3225   7.178   8.108  10.794 -0.2130  0.0284 -0.3799
   24MOL0     H 3226   7.471   8.001  10.715 -0.1152  1.0406  3.6117
   24MOL0     H 3227   7.676   7.957  10.837 -0.3643 -0.3816 -1.2700
   24MOL0     H 3228   8.020   8.125  10.648 -4.4828 -1.4214 -0.2656
   24MOL0     H 3229   8.086   8.008  10.764 -0.1612  0.8475 -0.5351
   24MOL0     H 3230   8.131   8.184  10.923  2.1383  1.7592  0.1978
   24MOL0     H 3231   8.059   8.310  10.803 -0.5820  0.1349 -1.7804
   24MOL0     H 3232   8.290   8.146  10.722 -2.4516 -1.4620 -0.4960
   24MOL0     H 3233   8.320   8.288  10.820 -1.2696 -0.2097  1.1447
   24MOL0     H 3234   8.349   8.336  10.580  0.2572  2.5981  1.6502
   24MOL0     H 3235   8.178   8.277  10.551 -0.6310  0.9517  0.6092
   24MOL0     H 3236   8.053   8.632  10.679  0.1539 -0.2077  1.0553
   24MOL0     H 3237   7.865   8.295  10.642 -1.3459  2.5464 -0.7796
   24MOL0     H 3238   7.779   8.399  10.464 -0.9533  1.7103  0.8285
   24MOL0     H 3239   7.644   8.311  10.381 -0.6313  0.2246 -0.7424
   24MOL0     H 3240   7.617   8.436  10.507  0.4509 -0.1666 -0.2229
   25MOL0     O 3241   2.484   1.992   1.946 -0.4677 -0.3304 -0.1909
   25MOL0     C 3242   2.434   1.927   1.858 -0.4595  0.2870  0.3291
   25MOL0     O 3243   2.315   1.853   1.875  1.0006  0.0695  0.4871
   25MOL0     C 3244   2.249   1.858   1.997 -0.8420 -0.8172 -0.4749
   25MOL0     C 3245   2.155   1.956   2.022 -0.1697 -0.2808 -0.4492
   25MOL0     C 3246   2.076   1.956   2.142  0.6827  0.2193 -0.1989
   25MOL0     C 3247   2.089   1.845   2.224  0.4196 -0.5689 -0.5157
   25MOL0     O 3248   2.005   1.833   2.334 -0.7606 -0.3837 -0.1171
   25MOL0     C 3249   2.074   1.857   2.463  0.0488 -0.0474  0.8061
   25MOL0     C 3250   2.034   1.756   2.557 -0.0518  0.1713 -0.4114
   25MOL0     C 3251   2.080   1.786   2.698 -0.2885 -0.5795  0.3668
   25MOL0     C 3252   2.226   1.734   2.709 -0.2189 -0.6707  0.0415
   25MOL0     C 3253   2.286   1.799   2.835 -0.5558  0.5615  0.3126
   25MOL0     C 3254   2.418   1.723   2.860 -0.4812  0.1936 -0.0542
   25MOL0     C 3255   2.538   1.790   2.799 -0.8460  0.3638 -0.4341
   25MOL0     C 3256   2.672   1.716   2.833  0.0195 -0.1708 -0.2120
   25MOL0     N 3257   2.741   1.774   2.950 -0.0695 -0.3321  0.2418
   25MOL0     C 3258   2.874   1.756   2.980 -0.0399  0.2251  0.3770
   25MOL0     C 3259   2.891   1.772   3.117  0.2302  0.1154  0.1049
   25MOL0     C 3260   3.002   1.768   3.209 -0.0727  0.1386  0.9114
   25MOL0     C 3261   3.134   1.703   3.153 -0.1539  0.3926 -0.6137
   25MOL0     C 3262   3.261   1.712   3.238  0.0714  1.1348 -0.4849
   25MOL0     C 3263   3.369   1.629   3.180  0.5117 -0.0936 -0.1777
   25MOL0     O 3264   3.457   1.591   3.286  0.8943  0.1546  0.1752
   25MOL0     C 3265   3.597   1.624   3.281 -0.3570 -0.1891  0.2476
   25MOL0     C 3266   3.672   1.643   3.396 -0.1833 -0.3119  0.0320
   25MOL0     C 3267   3.809   1.669   3.400  0.0943 -0.3597 -0.1795
   25MOL0     C 3268   3.873   1.678   3.278 -0.1590  0.1610 -0.3295
   25MOL0     C 3269   4.016   1.688   3.265 -0.1511  0.6504  0.0404
   25MOL0     O 3270   4.090   1.673   3.384  0.3917 -0.3483  0.9879
   25MOL0     C 3271   4.225   1.667   3.359 -0.0753 -0.1262  0.9654
   25MOL0     C 3272   4.284   1.544   3.376 -0.3611  0.3093 -0.4628
   25MOL0     C 3273   4.417   1.527   3.359 -0.1828 -0.0275  0.7069
   25MOL0     C 3274   4.497   1.627   3.316  0.7387 -0.3002  0.6844
   25MOL0     O 3275   4.632   1.611   3.321 -0.4786  0.0707  0.3000
   25MOL0     C 3276   4.717   1.721   3.294  0.2704 -0.3630  0.2923
   25MOL0     C 3277   4.860   1.678   3.294 -0.3285  0.1239 -0.7685
   25MOL0     C 3278   4.889   1.584   3.181  0.3137 -0.6516  0.2219
   25MOL0     C 3279   5.030   1.516   3.184  0.6045  0.3181 -0.0608
   25MOL0     C 3280   5.137   1.609   3.136  0.0650 -0.3436 -0.3079
   25MOL0     C 3281   5.272   1.537   3.137 -0.5932 -0.5578  1.0426
   25MOL0     C 3282   5.398   1.617   3.108 -0.4183 -0.0226  0.7693
   25MOL0     C 3283   5.392   1.684   2.978  0.5769 -0.2750 -0.7537
   25MOL0    Cl 3284   5.553   1.719   2.917  0.0610 -0.0970 -0.1313
   25MOL0     C 3285   4.441   1.758   3.300  0.3769 -0.2262 -0.4021
   25MOL0     C 3286   4.302   1.776   3.320  0.1488  0.7984  0.0936
   25MOL0     O 3287   4.066   1.705   3.148 -0.2068 -0.7573 -0.1887
   25MOL0     C 3288   3.804   1.661   3.155  0.6940  0.5588  0.7730
   25MOL0     C 3289   3.665   1.629   3.157  0.8201 -0.7140 -0.6627
   25MOL0     N 3290   2.764   1.807   3.167 -0.9615  0.0877  0.3493
   25MOL0     N 3291   2.679   1.803   3.068  0.0805  0.2183 -1.1667
   25MOL0     C 3292   2.178   1.738   2.195  0.8133 -0.0466 -0.2918
   25MOL0     C 3293   2.263   1.755   2.090  0.4882  0.0443  0.5157
   25MOL0     C 3294   2.509   1.923   1.724 -0.0355 -0.0240 -0.4602
   25MOL0     C 3295   2.601   2.025   1.690  0.7157 -0.6403 -0.4026
   25MOL0     C 3296   2.671   2.015   1.571 -0.2747  0.3473  1.2219
   25MOL0     C 3297   2.657   1.906   1.484 -0.4205 -0.5470  0.3592
   25MOL0     O 3298   2.738   1.899   1.375  0.4934  0.1595 -0.1751
   25MOL0     C 3299   2.776   1.771   1.326  0.0125 -0.5471  0.5738
   25MOL0     C 3300   2.865   1.704   1.426 -0.2773 -0.6750 -0.5278
   25MOL0     C 3301   2.974   1.791   1.505 -0.9789  0.8029 -0.8964
   25MOL0     C 3302   3.073   1.851   1.400  0.0227 -0.0922 -0.2934
   25MOL0     C 3303   3.139   1.745   1.322  0.1920  0.2726 -0.2079
   25MOL0     C 3304   3.190   1.659   1.256 -0.5989 -0.1957  0.1467
   25MOL0     C 3305   2.568   1.806   1.521  0.1039  0.0628 -0.4052
   25MOL0     C 3306   2.490   1.810   1.634 -0.6035  0.2068  0.3226
   25MOL0     C 3307   2.400   1.691   1.655 -0.0732  0.0826 -0.7996
   25MOL0     H 3308   2.155   2.043   1.958 -0.7662 -1.3899 -2.0141
   25MOL0     H 3309   1.997   2.027   2.165  1.4225  1.8480 -2.3957
   25MOL0     H 3310   2.182   1.862   2.449  0.0749 -0.6822  0.7800
   25MOL0     H 3311   2.043   1.958   2.492 -0.0110  0.6929 -1.6056
   25MOL0     H 3312   2.068   1.653   2.540 -2.1207 -1.0991  2.3687
   25MOL0     H 3313   1.927   1.738   2.548  0.1626 -0.2598 -2.5333
   25MOL0     H 3314   2.027   1.737   2.780 -0.0597  1.2967  1.7167
   25MOL0     H 3315   2.088   1.894   2.712 -1.0281  0.1132 -3.4612
   25MOL0     H 3316   2.220   1.625   2.709  1.8106 -0.8273 -0.6731
   25MOL0     H 3317   2.286   1.766   2.624  2.8093  0.7758  2.5301
   25MOL0     H 3318   2.299   1.907   2.823  0.3582  0.4019 -0.2088
   25MOL0     H 3319   2.216   1.792   2.919 -1.4793  0.4853 -0.4401
   25MOL0     H 3320   2.447   1.714   2.965 -2.4710  0.7459  0.5836
   25MOL0     H 3321   2.405   1.619   2.829 -0.0768 -0.2471  1.1889
   25MOL0     H 3322   2.545   1.896   2.827 -2.3899  0.5312 -0.5447
   25MOL0     H 3323   2.526   1.783   2.691 -1.4455 -1.3595 -0.2857
   25MOL0     H 3324   2.657   1.612   2.861  0.1459 -0.1755 -0.1623
   25MOL0     H 3325   2.726   1.713   2.738  2.2151  0.6954  0.9262
   25MOL0     H 3326   2.955   1.744   2.909  0.4170 -0.5249  1.0008
   25MOL0     H 3327   3.022   1.873   3.232  1.7173  0.7600 -2.8049
   25MOL0     H 3328   2.966   1.720   3.301  0.9885  1.1948  1.9155
   25MOL0     H 3329   3.122   1.596   3.131  1.6998  0.5189 -2.5917
   25MOL0     H 3330   3.147   1.748   3.054 -2.5269  2.2511 -0.1622
   25MOL0     H 3331   3.222   1.684   3.337  0.5887  0.3515 -0.4952
   25MOL0     H 3332   3.308   1.811   3.246  0.9943  0.9276 -2.7205
   25MOL0     H 3333   3.416   1.685   3.099 -1.0232 -1.4264 -2.0792
   25MOL0     H 3334   3.331   1.536   3.136  1.6669  0.8363 -3.3778
   25MOL0     H 3335   3.626   1.637   3.495  1.3353  1.7829  0.9510
   25MOL0     H 3336   3.859   1.692   3.494 -5.2415  2.0669  2.5067
   25MOL0     H 3337   4.225   1.461   3.414 -0.4451  0.7646  0.4506
   25MOL0     H 3338   4.461   1.433   3.392 -1.4967  0.1069  3.0810
   25MOL0     H 3339   4.702   1.754   3.190 -0.6005 -2.1805 -0.1848
   25MOL0     H 3340   4.701   1.814   3.349  0.2047  0.2931 -0.8004
   25MOL0     H 3341   4.912   1.774   3.286 -1.4760  0.9123  0.7197
   25MOL0     H 3342   4.885   1.638   3.392  0.2154  1.6264 -0.2666
   25MOL0     H 3343   4.814   1.505   3.190 -0.6873  0.2838  0.3813
   25MOL0     H 3344   4.878   1.637   3.085  2.1624  0.1443  0.3924
   25MOL0     H 3345   5.019   1.435   3.111 -1.5605  0.8526 -0.3914
   25MOL0     H 3346   5.061   1.473   3.280  0.0627 -2.4297 -1.0234
   25MOL0     H 3347   5.125   1.700   3.195  0.3518  0.6442 -1.7080
   25MOL0     H 3348   5.117   1.637   3.032  1.2524  0.8445 -0.2457
   25MOL0     H 3349   5.285   1.495   3.237 -1.3694 -0.7396  1.0680
   25MOL0     H 3350   5.259   1.451   3.071 -2.6116  0.2618  0.2979
   25MOL0     H 3351   5.485   1.550   3.109  0.2654  0.8586  0.9212
   25MOL0     H 3352   5.416   1.694   3.184  2.0761  0.0435  0.1970
   25MOL0     H 3353   5.346   1.616   2.905  1.0701 -0.1175 -1.2235
   25MOL0     H 3354   5.333   1.775   2.974  1.9452  0.6431 -0.6426
   25MOL0     H 3355   4.505   1.837   3.262  2.1867 -2.7966 -3.1380
   25MOL0     H 3356   4.246   1.868   3.305  0.3343  0.5604 -2.4859
   25MOL0     H 3357   3.858   1.665   3.061 -0.1957  1.3271  0.2744
   25MOL0     H 3358   3.617   1.623   3.060  0.5687  0.8660 -0.6657
   25MOL0     H 3359   2.182   1.658   2.268 -0.3349  0.5469  0.4521
   25MOL0     H 3360   2.349   1.689   2.081  0.3113 -0.0734 -0.3569
   25MOL0     H 3361   2.614   2.118   1.745 -0.0155 -0.3275 -0.7539
   25MOL0     H 3362   2.740   2.097   1.557  0.1014 -0.1465  0.1256
   25MOL0     H 3363   2.838   1.796   1.240  0.7305 -0.8524  1.0018
   25MOL0     H 3364   2.690   1.711   1.294  0.9790 -1.8753  0.4334
   25MOL0     H 3365   2.904   1.618   1.370 -0.7273 -0.7538 -0.7191
   25MOL0     H 3366   2.797   1.668   1.503 -0.4792  1.1668  0.2011
   25MOL0     H 3367   3.038   1.740   1.578  0.2157  1.8529 -1.1522
   25MOL0     H 3368   2.925   1.872   1.560 -0.2935  0.3333  0.4553
   25MOL0     H 3369   3.022   1.929   1.344 -0.0413  0.3887  0.4143
   25MOL0     H 3370   3.151   1.897   1.462  0.4781 -2.1285  0.7363
   25MOL0     H 3371   3.239   1.585   1.196 -2.6043  0.1569 -2.0875
   25MOL0     H 3372   2.556   1.726   1.449 -2.1592 -0.4489  0.4736
   25MOL0     H 3373   2.440   1.599   1.610  2.3523  1.1612 -1.0340
   25MOL0     H 3374   2.388   1.664   1.761  0.6789 -1.4047 -1.0739
   25MOL0     H 3375   2.300   1.708   1.615 -0.7418  0.7643  1.0271
   26MOL0     O 3376   5.882   0.138  10.463 -0.4880  0.6808  0.5826
   26MOL0     C 3377   5.927   0.020  10.454  0.1703 -0.5352 -0.2792
   26MOL0     O 3378   6.058  -0.014  10.462  0.0464 -0.5590  0.0746
   26MOL0     C 3379   6.143   0.060  10.538  0.4981 -0.0277 -0.2544
   26MOL0     C 3380   6.218   0.004  10.644  0.1225 -0.3841  0.1024
   26MOL0     C 3381   6.308   0.088  10.710 -0.2232  0.4487  0.3027
   26MOL0     C 3382   6.334   0.220  10.675 -0.0129 -0.0435  0.7738
   26MOL0     O 3383   6.427   0.281  10.757  0.2261 -0.4291 -0.4557
   26MOL0     C 3384   6.416   0.431  10.761 -0.4545  0.9400 -0.2360
   26MOL0     C 3385   6.547   0.502  10.775  0.2568  0.3254  0.2191
   26MOL0     C 3386   6.630   0.476  10.644 -0.5053  0.2067  0.2878
   26MOL0     C 3387   6.752   0.571  10.662 -0.1879 -0.7625  0.5044
   26MOL0     C 3388   6.853   0.532  10.545 -0.3717  0.1747 -0.8125
   26MOL0     C 3389   7.001   0.574  10.562 -0.4721 -0.9873 -1.1918
   26MOL0     C 3390   7.071   0.498  10.675 -0.4386 -0.1861  0.3363
   26MOL0     C 3391   7.205   0.575  10.709 -0.3442  0.0841 -0.1786
   26MOL0     N 3392   7.295   0.608  10.592  0.0216 -0.0487  0.3113
   26MOL0     C 3393   7.418   0.541  10.560 -0.0924  0.3383 -0.3024
   26MOL0     C 3394   7.467   0.621  10.456  0.4690 -0.4262  0.3016
   26MOL0     C 3395   7.593   0.594  10.377  0.1778  0.4277  0.2994
   26MOL0     C 3396   7.603   0.453  10.327  0.4143  0.6529 -0.0554
   26MOL0     C 3397   7.738   0.437  10.249  0.7630 -0.0730 -0.3584
   26MOL0     C 3398   7.766   0.292  10.197 -0.2144  0.6604 -0.6769
   26MOL0     O 3399   7.903   0.277  10.149 -0.2527 -0.6066 -0.4733
   26MOL0     C 3400   8.005   0.255  10.241 -0.1610 -0.0961 -0.9554
   26MOL0     C 3401   8.126   0.208  10.197 -0.2332 -0.0822 -0.3549
   26MOL0     C 3402   8.237   0.206  10.285  0.2178 -0.1516 -0.3957
   26MOL0     C 3403   8.235   0.242  10.421 -0.6155 -0.2023  0.0214
   26MOL0     C 3404   8.362   0.254  10.492 -0.0697  0.2783  0.2627
   26MOL0     O 3405   8.478   0.217  10.429 -0.0974 -0.3516 -0.5475
   26MOL0     C 3406   8.598   0.270  10.464  0.3370  0.0972  0.5917
   26MOL0     C 3407   8.706   0.196  10.414  0.2187  0.0126  0.4601
   26MOL0     C 3408   8.835   0.245  10.405  0.4505 -0.2498  0.3186
   26MOL0     C 3409   8.861   0.373  10.453 -0.2046 -0.9422  0.0302
   26MOL0     O 3410   8.988   0.417  10.437 -0.7637  0.2130 -0.0736
   26MOL0     C 3411   9.039   0.524  10.516  0.4098  0.1190 -0.4047
   26MOL0     C 3412   9.193   0.527  10.528 -0.4849  0.2224  0.3026
   26MOL0     C 3413   9.255   0.388  10.540  0.7987 -0.9879  0.1820
   26MOL0     C 3414   9.408   0.409  10.559 -0.6795 -0.2202 -0.2142
   26MOL0     C 3415   9.477   0.279  10.518 -0.1516  0.4878 -0.6392
   26MOL0     C 3416   9.631   0.287  10.520 -0.4508 -0.4245  0.3528
   26MOL0     C 3417   9.684   0.329  10.651 -0.1591  0.3271  0.4281
   26MOL0     C 3418   9.835   0.301  10.682 -0.0041  0.7642 -0.3165
   26MOL0    Cl 3419   9.940   0.377  10.573 -0.2625 -0.2291 -0.3422
   26MOL0     C 3420   8.755   0.452  10.500 -0.4211 -0.6249 -0.6490
   26MOL0     C 3421   8.626   0.400  10.507  0.7353 -0.9314 -1.1557
   26MOL0     O 3422   8.352   0.296  10.607  0.3021  0.6830  0.5433
   26MOL0     C 3423   8.104   0.272  10.469 -0.6200  0.3240 -0.3730
   26MOL0     C 3424   7.990   0.278  10.383  0.1082  0.4060 -0.5756
   26MOL0     N 3425   7.372   0.714  10.418  0.8814 -0.1298 -0.0478
   26MOL0     N 3426   7.278   0.712  10.502 -0.2202 -0.3012 -0.5151
   26MOL0     C 3427   6.266   0.268  10.561  0.6332 -0.0392  0.0803
   26MOL0     C 3428   6.170   0.192  10.494 -0.2507  0.2901 -0.8528
   26MOL0     C 3429   5.816  -0.082  10.432 -0.0993 -0.6889 -0.5528
   26MOL0     C 3430   5.686  -0.050  10.474 -0.2112 -0.2175  0.4311
   26MOL0     C 3431   5.586  -0.142  10.455 -0.0050  1.2655  0.1765
   26MOL0     C 3432   5.606  -0.270  10.408 -0.2116  0.3022  0.4029
   26MOL0     O 3433   5.511  -0.365  10.400 -0.3919  0.4659  0.1029
   26MOL0     C 3434   5.366  -0.320  10.389 -0.8540 -0.4293  0.0594
   26MOL0     C 3435   5.274  -0.433  10.343  0.1641 -0.4276  0.1738
   26MOL0     C 3436   5.250  -0.533  10.461  0.4820 -0.1792  0.6358
   26MOL0     C 3437   5.277  -0.678  10.429 -0.5870  0.0313 -0.2705
   26MOL0     C 3438   5.190  -0.732  10.328 -0.4714  0.2510 -0.0483
   26MOL0     C 3439   5.123  -0.777  10.244  1.3289  0.3671  0.4699
   26MOL0     C 3440   5.735  -0.304  10.361 -0.2982  0.1552 -0.5127
   26MOL0     C 3441   5.833  -0.212  10.367  0.7055 -0.6422  0.1921
   26MOL0     C 3442   5.958  -0.243  10.308  0.0086  0.0062 -0.4304
   26MOL0     H 3443   6.192  -0.090  10.692 -0.5021 -1.1864 -1.7213
   26MOL0     H 3444   6.360   0.063  10.802 -0.8378 -3.0985 -0.1574
   26MOL0     H 3445   6.362   0.476  10.677  0.4396  2.0942 -0.2225
   26MOL0     H 3446   6.358   0.450  10.851  0.9871 -0.3544  1.0189
   26MOL0     H 3447   6.602   0.446  10.851  0.9056 -1.2612 -1.3539
   26MOL0     H 3448   6.536   0.608  10.801 -0.6433  0.7334 -1.6466
   26MOL0     H 3449   6.580   0.505  10.551  0.5813 -1.0342 -0.7201
   26MOL0     H 3450   6.652   0.369  10.649 -3.7521 -0.5347  1.3152
   26MOL0     H 3451   6.720   0.676  10.650 -1.8669 -1.2370  0.5805
   26MOL0     H 3452   6.797   0.554  10.760  1.7735 -1.4002 -0.4548
   26MOL0     H 3453   6.853   0.426  10.518  0.7979  0.6746 -3.0708
   26MOL0     H 3454   6.831   0.585  10.451 -0.4957 -1.6773 -1.8613
   26MOL0     H 3455   7.060   0.553  10.473  3.5905  3.4625  0.0308
   26MOL0     H 3456   7.014   0.681  10.583  0.5535 -1.2069 -0.6525
   26MOL0     H 3457   7.092   0.398  10.636  1.0783 -0.0807  0.8108
   26MOL0     H 3458   7.012   0.490  10.766 -1.2886  0.5807 -0.1296
   26MOL0     H 3459   7.186   0.671  10.759  0.6826 -0.8613  2.1763
   26MOL0     H 3460   7.258   0.518  10.786 -1.3392 -2.2359 -1.1105
   26MOL0     H 3461   7.471   0.462  10.613  1.5656  2.7657  1.8849
   26MOL0     H 3462   7.594   0.662  10.291  0.1498  1.1448  0.8568
   26MOL0     H 3463   7.681   0.617  10.438 -0.7132  0.4666  1.6096
   26MOL0     H 3464   7.607   0.374  10.404  2.7534 -1.4212 -2.1222
   26MOL0     H 3465   7.524   0.447  10.252  0.4068  2.5897 -0.2477
   26MOL0     H 3466   7.818   0.477  10.313  0.1883  0.4747  0.0360
   26MOL0     H 3467   7.730   0.510  10.168  0.6235  0.7607  0.3878
   26MOL0     H 3468   7.692   0.268  10.120 -0.1671 -1.4849 -0.1401
   26MOL0     H 3469   7.741   0.215  10.272  0.0397  0.6156 -0.6389
   26MOL0     H 3470   8.136   0.189  10.091  0.0255 -3.2701  0.1336
   26MOL0     H 3471   8.336   0.188  10.243  0.4605 -0.4461  0.2866
   26MOL0     H 3472   8.694   0.097  10.370  0.8339 -0.2204  0.8074
   26MOL0     H 3473   8.918   0.180  10.379 -0.0076 -2.4105  3.6275
   26MOL0     H 3474   9.012   0.619  10.470 -1.7032 -1.0566 -1.7541
   26MOL0     H 3475   9.000   0.525  10.619 -3.4724 -0.3521 -1.7084
   26MOL0     H 3476   9.234   0.585  10.444 -3.1185 -0.2346 -1.4014
   26MOL0     H 3477   9.216   0.580  10.621  4.7013 -1.3737  0.2158
   26MOL0     H 3478   9.205   0.342  10.626  0.8516  0.3380  0.9447
   26MOL0     H 3479   9.241   0.326  10.451  2.9113 -1.0795 -0.1535
   26MOL0     H 3480   9.424   0.438  10.663  0.3739  2.7973 -1.1168
   26MOL0     H 3481   9.444   0.487  10.491 -0.8567 -0.3180 -0.4229
   26MOL0     H 3482   9.443   0.254  10.417 -2.0995  2.4039 -0.5411
   26MOL0     H 3483   9.454   0.193  10.582  1.0862 -0.3841 -1.3293
   26MOL0     H 3484   9.676   0.194  10.485  2.6671  2.0052 -2.9405
   26MOL0     H 3485   9.654   0.364  10.445 -0.8598 -0.7607 -0.1188
   26MOL0     H 3486   9.624   0.277  10.727  1.5428 -1.5680  0.5569
   26MOL0     H 3487   9.659   0.434  10.671  0.1703  0.1769  1.7629
   26MOL0     H 3488   9.851   0.351  10.778  2.4697 -2.7263  1.3245
   26MOL0     H 3489   9.857   0.195  10.703  0.1310  1.1119  1.5367
   26MOL0     H 3490   8.779   0.540  10.558 -0.7118 -1.1522  0.2964
   26MOL0     H 3491   8.547   0.469  10.535  1.0639 -1.2415  0.6162
   26MOL0     H 3492   8.095   0.297  10.574  0.4949  0.6833 -0.3434
   26MOL0     H 3493   7.892   0.300  10.424  0.7630  1.0029  0.7458
   26MOL0     H 3494   6.270   0.374  10.539 -2.4336  0.2374  0.4013
   26MOL0     H 3495   6.110   0.244  10.420 -1.5487 -1.2719 -0.9675
   26MOL0     H 3496   5.655   0.046  10.515 -4.4432  0.5854 -3.8048
   26MOL0     H 3497   5.484  -0.124  10.488 -1.4049 -1.0960 -2.4148
   26MOL0     H 3498   5.357  -0.234  10.322  0.6339 -0.0076  0.3623
   26MOL0     H 3499   5.322  -0.291  10.485 -0.0878  1.9826 -0.2534
   26MOL0     H 3500   5.318  -0.481  10.256  0.2784  0.4608 -0.2687
   26MOL0     H 3501   5.177  -0.389  10.314  0.5166  0.2001 -0.0787
   26MOL0     H 3502   5.146  -0.529  10.493  1.2749  0.2558  3.5180
   26MOL0     H 3503   5.303  -0.506  10.553  0.1028 -0.5517  0.9660
   26MOL0     H 3504   5.380  -0.705  10.407  0.9883  1.6871  4.0039
   26MOL0     H 3505   5.250  -0.728  10.523  2.4943  0.8678  1.1698
   26MOL0     H 3506   5.079  -0.820  10.157 -0.7061 -0.0716  1.6450
   26MOL0     H 3507   5.751  -0.405  10.326  0.7168 -0.2512  1.0256
   26MOL0     H 3508   5.988  -0.158  10.247 -0.8042  1.1612  0.7285
   26MOL0     H 3509   6.040  -0.263  10.378 -1.0225  2.5373  1.6811
   26MOL0     H 3510   5.947  -0.332  10.245 -0.3994 -2.3491  2.6905
   27MOL0     O 3511   8.056   5.683   2.329  0.1305  0.6868  0.4005
   27MOL0     C 3512   8.003   5.646   2.431  0.9196 -0.2172 -0.0462
   27MOL0     O 3513   8.060   5.650   2.560  0.0077  0.1248 -0.2338
   27MOL0     C 3514   8.165   5.728   2.577  0.4064 -0.6994 -0.1573
   27MOL0     C 3515   8.298   5.692   2.541  0.6687 -0.3330 -0.0867
   27MOL0     C 3516   8.413   5.762   2.563 -0.0450 -0.2823 -0.1625
   27MOL0     C 3517   8.400   5.869   2.656 -1.2385  1.0475 -0.3103
   27MOL0     O 3518   8.516   5.941   2.698  0.3361  0.3601  0.5123
   27MOL0     C 3519   8.550   5.911   2.836 -0.1953 -0.4460  0.1524
   27MOL0     C 3520   8.620   5.771   2.845 -0.4301 -0.0724  0.5456
   27MOL0     C 3521   8.768   5.766   2.796  0.5291 -0.9003  0.0974
   27MOL0     C 3522   8.862   5.688   2.882 -0.8370  0.1786  0.2510
   27MOL0     C 3523   9.007   5.730   2.862  0.5967  0.0057  0.2318
   27MOL0     C 3524   9.073   5.702   2.728  0.4944  0.0564 -0.0362
   27MOL0     C 3525   9.224   5.738   2.729 -0.7355 -0.1232 -0.5818
   27MOL0     C 3526   9.296   5.718   2.599  1.0647 -0.2795  0.3549
   27MOL0     N 3527   9.439   5.737   2.612 -0.7696  0.3814 -0.0394
   27MOL0     C 3528   9.544   5.653   2.598 -0.3637 -0.2069  0.0636
   27MOL0     C 3529   9.651   5.726   2.630  0.7067  0.8703  0.3206
   27MOL0     C 3530   9.782   5.650   2.639  0.3454 -0.0432 -0.0146
   27MOL0     C 3531   9.888   5.721   2.566 -0.4716 -0.2242  0.0107
   27MOL0     C 3532  10.013   5.636   2.591  0.6132 -0.7108 -0.0575
   27MOL0     C 3533  10.150   5.702   2.559 -0.5781  0.1521  0.9108
   27MOL0     O 3534  10.249   5.612   2.622 -0.9849  0.0352 -0.0405
   27MOL0     C 3535  10.387   5.620   2.598 -0.0925 -0.7677  0.0712
   27MOL0     C 3536  10.467   5.616   2.710 -0.0990 -0.1048 -0.9263
   27MOL0     C 3537  10.611   5.634   2.691  0.7973 -0.5602 -0.0803
   27MOL0     C 3538  10.675   5.643   2.568  0.0724  0.2037 -0.3553
   27MOL0     C 3539  10.820   5.651   2.554  0.4361 -0.3210  0.6100
   27MOL0     O 3540  10.891   5.627   2.658 -0.3853 -0.3809 -0.0350
   27MOL0     C 3541  11.032   5.621   2.658  0.1979  0.2338  0.9154
   27MOL0     C 3542  11.094   5.743   2.634  0.4837 -0.0986 -0.3736
   27MOL0     C 3543  11.233   5.749   2.647  0.8064 -0.1952  0.1917
   27MOL0     C 3544  11.308   5.640   2.693  0.7516 -0.8462  0.1665
   27MOL0     O 3545  11.437   5.665   2.714 -0.3090 -0.1531 -0.8574
   27MOL0     C 3546  11.465   5.702   2.853  0.0029  0.2905  0.4198
   27MOL0     C 3547  11.611   5.728   2.883  0.2224  0.1759  0.3020
   27MOL0     C 3548  11.721   5.652   2.807  0.1284  0.3118  1.0356
   27MOL0     C 3549  11.849   5.638   2.881 -0.6757 -0.4206  0.2719
   27MOL0     C 3550  11.973   5.618   2.792  0.8619 -0.4301  0.4980
   27MOL0     C 3551  12.112   5.650   2.858  1.4783  0.6205  0.2090
   27MOL0     C 3552  12.133   5.582   2.990 -0.1466  0.5141 -0.9850
   27MOL0     C 3553  12.258   5.649   3.057  0.0581 -0.0232 -0.2584
   27MOL0    Cl 3554  12.416   5.613   2.968 -0.0395  0.1789  0.1149
   27MOL0     C 3555  11.244   5.525   2.729 -0.1638 -0.0319  0.5320
   27MOL0     C 3556  11.107   5.509   2.702 -0.2243 -0.0885 -0.4402
   27MOL0     O 3557  10.861   5.656   2.438  0.5603 -0.7439 -0.8610
   27MOL0     C 3558  10.583   5.649   2.458  0.0284  0.1441  0.3745
   27MOL0     C 3559  10.439   5.639   2.469 -0.6789 -0.1062 -0.0934
   27MOL0     N 3560   9.606   5.847   2.665  1.2351 -0.3435  0.1487
   27MOL0     N 3561   9.486   5.858   2.647  0.2214  0.3803  1.2700
   27MOL0     C 3562   8.271   5.896   2.713  0.1991 -0.6074 -0.2036
   27MOL0     C 3563   8.159   5.826   2.673  0.1292 -0.1064  0.0387
   27MOL0     C 3564   7.864   5.607   2.425  0.0372 -0.0309 -0.4427
   27MOL0     C 3565   7.796   5.605   2.546  0.3902  0.0432  0.0078
   27MOL0     C 3566   7.668   5.553   2.550  0.4090 -0.8034 -0.2949
   27MOL0     C 3567   7.603   5.520   2.435  0.1761 -0.1749 -0.0139
   27MOL0     O 3568   7.472   5.488   2.439 -0.0777 -0.5997 -0.2937
   27MOL0     C 3569   7.413   5.397   2.344  0.5507  0.4007  0.5616
   27MOL0     C 3570   7.297   5.335   2.421 -0.4759  0.3767 -0.4393
   27MOL0     C 3571   7.199   5.271   2.321  0.4702  0.4783 -0.6427
   27MOL0     C 3572   7.113   5.356   2.218  0.2368 -0.4479 -0.3339
   27MOL0     C 3573   7.018   5.446   2.276 -1.4070 -0.0959 -0.0087
   27MOL0     C 3574   6.936   5.531   2.303  1.0950  0.4603  0.2230
   27MOL0     C 3575   7.675   5.515   2.312 -0.2765  0.0892  0.5081
   27MOL0     C 3576   7.812   5.548   2.310 -0.2580  0.0567 -0.2143
   27MOL0     C 3577   7.890   5.522   2.178  0.6390  0.3666 -0.5457
   27MOL0     H 3578   8.305   5.598   2.488  0.8192  0.9089 -2.3703
   27MOL0     H 3579   8.508   5.751   2.512  0.9055  1.1136  1.2055
   27MOL0     H 3580   8.609   5.992   2.880  0.1643 -1.8062  2.2912
   27MOL0     H 3581   8.456   5.908   2.892 -0.5473  0.4668 -0.3631
   27MOL0     H 3582   8.564   5.701   2.783  0.1523  1.1018 -1.3734
   27MOL0     H 3583   8.612   5.736   2.949 -0.2862 -0.5365  0.4052
   27MOL0     H 3584   8.810   5.867   2.796 -1.3029 -0.0886 -0.8243
   27MOL0     H 3585   8.783   5.733   2.693 -1.2987  0.9875 -0.8492
   27MOL0     H 3586   8.828   5.706   2.984 -2.8235  0.5481 -0.4399
   27MOL0     H 3587   8.857   5.581   2.856 -0.0727  0.3309 -0.5764
   27MOL0     H 3588   9.020   5.838   2.870  1.1132  0.0580 -1.0600
   27MOL0     H 3589   9.053   5.673   2.943  2.1388  1.5527  0.5018
   27MOL0     H 3590   9.060   5.599   2.694  0.0561  0.4340 -1.0374
   27MOL0     H 3591   9.031   5.768   2.651  0.1832  0.3539  0.3812
   27MOL0     H 3592   9.272   5.669   2.800 -1.1877 -0.9593 -1.0696
   27MOL0     H 3593   9.247   5.839   2.764  0.6154  0.3075 -2.5817
   27MOL0     H 3594   9.277   5.617   2.563  0.1875 -0.0627  0.1646
   27MOL0     H 3595   9.260   5.787   2.521  0.2214  0.1349  1.0811
   27MOL0     H 3596   9.536   5.553   2.557  0.7838 -1.0441  1.8177
   27MOL0     H 3597   9.804   5.645   2.746 -2.7073 -6.4314  0.8010
   27MOL0     H 3598   9.780   5.547   2.602  1.0897  0.1446 -0.6007
   27MOL0     H 3599   9.875   5.729   2.458 -0.5126 -1.3580 -0.0824
   27MOL0     H 3600   9.897   5.823   2.604 -0.7659 -0.3717  0.4850
   27MOL0     H 3601  10.001   5.535   2.549  1.2967 -1.2370  0.9840
   27MOL0     H 3602  10.022   5.622   2.699 -1.0217  1.3337  0.4044
   27MOL0     H 3603  10.159   5.807   2.586 -0.3021  0.6189 -0.8442
   27MOL0     H 3604  10.160   5.709   2.450 -1.2614  1.0274  0.9005
   27MOL0     H 3605  10.428   5.609   2.811 -0.3900 -3.6163 -1.1751
   27MOL0     H 3606  10.666   5.649   2.784 -0.3224  3.0785  0.1638
   27MOL0     H 3607  11.028   5.826   2.609 -1.7983 -1.9744 -0.9478
   27MOL0     H 3608  11.287   5.843   2.657 -1.0062  0.8479  0.6919
   27MOL0     H 3609  11.411   5.793   2.882  1.6410  2.7820 -3.4640
   27MOL0     H 3610  11.425   5.629   2.924  0.3939  0.1636  0.5166
   27MOL0     H 3611  11.620   5.835   2.861  0.5169  0.1438  0.2572
   27MOL0     H 3612  11.643   5.702   2.985  3.2440 -2.3699 -1.1275
   27MOL0     H 3613  11.676   5.555   2.783  2.7365 -1.3423  2.4000
   27MOL0     H 3614  11.732   5.700   2.710 -0.8059 -2.7823 -0.7503
   27MOL0     H 3615  11.851   5.559   2.957  0.7219  0.4427  1.1749
   27MOL0     H 3616  11.873   5.735   2.925 -0.4545 -0.2285 -0.2657
   27MOL0     H 3617  11.965   5.693   2.713 -0.8164  1.3304  2.2400
   27MOL0     H 3618  11.985   5.517   2.751 -0.0439 -0.7815  1.0874
   27MOL0     H 3619  12.195   5.606   2.802  1.0862  0.5419 -0.3230
   27MOL0     H 3620  12.119   5.759   2.864 -2.4313  1.3783 -3.7875
   27MOL0     H 3621  12.173   5.482   2.971  0.8073  0.0069  2.9764
   27MOL0     H 3622  12.047   5.574   3.056  0.8267  0.8030  0.3753
   27MOL0     H 3623  12.243   5.757   3.060  1.5032  0.4972 -4.6121
   27MOL0     H 3624  12.269   5.602   3.155  2.6331 -0.3605 -0.6579
   27MOL0     H 3625  11.301   5.443   2.770 -1.0834 -0.4441  1.0061
   27MOL0     H 3626  11.063   5.415   2.733 -0.0730 -0.0957 -0.2411
   27MOL0     H 3627  10.627   5.658   2.359  0.4682 -0.6743  0.4892
   27MOL0     H 3628  10.385   5.627   2.375  3.1107  0.2428 -2.5660
   27MOL0     H 3629   8.252   5.969   2.791 -0.6140 -1.6884  0.6546
   27MOL0     H 3630   8.062   5.854   2.714 -0.0581  3.7432 -2.4889
   27MOL0     H 3631   7.835   5.646   2.639 -1.0471  1.2137  0.1334
   27MOL0     H 3632   7.610   5.557   2.642 -1.7111  1.3117 -1.5951
   27MOL0     H 3633   7.476   5.310   2.321 -0.1589 -0.2383  0.9851
   27MOL0     H 3634   7.383   5.458   2.258 -2.4381 -0.7990  0.6148
   27MOL0     H 3635   7.245   5.405   2.486  0.8338  0.6649  0.3181
   27MOL0     H 3636   7.341   5.259   2.486 -1.2496  0.0885 -0.2367
   27MOL0     H 3637   7.124   5.205   2.367 -1.6459  0.6468 -3.5913
   27MOL0     H 3638   7.262   5.219   2.248  1.4128  3.1224 -1.8232
   27MOL0     H 3639   7.167   5.406   2.137  1.4881  1.7416  1.7238
   27MOL0     H 3640   7.055   5.277   2.169  0.5116 -1.0641  0.3164
   27MOL0     H 3641   6.862   5.602   2.333  0.5209  0.6428 -1.5217
   27MOL0     H 3642   7.629   5.478   2.221 -2.1522 -0.3042  1.5650
   27MOL0     H 3643   7.981   5.465   2.198  1.5247  1.7160 -0.5785
   27MOL0     H 3644   7.820   5.466   2.115 -0.8818  3.4023 -1.7956
   27MOL0     H 3645   7.908   5.616   2.124 -0.3203  1.8267  1.5276
   28MOL0     O 3646   5.112   7.836  11.200 -0.0478  0.4028  0.0257
   28MOL0     C 3647   5.023   7.819  11.120  0.4328  0.0349  0.6036
   28MOL0     O 3648   5.041   7.835  10.986 -0.1733 -0.3251 -0.0546
   28MOL0     C 3649   5.165   7.847  10.927 -0.6359 -0.6663 -0.8813
   28MOL0     C 3650   5.161   7.905  10.803  0.3350 -0.6891 -0.2027
   28MOL0     C 3651   5.275   7.951  10.731 -0.0813  0.7881  0.2576
   28MOL0     C 3652   5.399   7.926  10.788 -0.5614  0.1085  0.9565
   28MOL0     O 3653   5.510   7.965  10.708  0.2881  0.1717  0.3434
   28MOL0     C 3654   5.625   7.880  10.710  1.1199  0.5249  0.4313
   28MOL0     C 3655   5.666   7.868  10.564  0.0551 -0.1884  0.1979
   28MOL0     C 3656   5.794   7.783  10.531 -0.8313 -0.2291  0.3946
   28MOL0     C 3657   5.805   7.634  10.581  0.1090 -0.9627  0.3178
   28MOL0     C 3658   5.711   7.531  10.501 -0.6729  0.1797  0.0028
   28MOL0     C 3659   5.736   7.382  10.518 -0.7186 -0.2190 -0.1653
   28MOL0     C 3660   5.753   7.339  10.668  0.4719 -0.3393 -0.1493
   28MOL0     C 3661   5.784   7.188  10.688 -0.4653 -0.9137 -0.6231
   28MOL0     N 3662   5.935   7.169  10.692  0.5457  0.0015  0.7248
   28MOL0     C 3663   6.030   7.210  10.599 -0.7961 -0.6030 -0.1166
   28MOL0     C 3664   6.156   7.200  10.658 -0.2546  0.3981  0.0367
   28MOL0     C 3665   6.290   7.234  10.593  0.8014  0.2887 -0.0119
   28MOL0     C 3666   6.344   7.370  10.615 -0.1865 -1.1715  0.6421
   28MOL0     C 3667   6.241   7.489  10.585  0.1000  0.5808 -0.1031
   28MOL0     C 3668   6.296   7.620  10.625 -0.0752  0.1957  0.6228
   28MOL0     O 3669   6.387   7.681  10.534  0.0795 -0.4157 -0.1714
   28MOL0     C 3670   6.516   7.681  10.556  0.7297 -0.7653  0.3855
   28MOL0     C 3671   6.600   7.721  10.452  0.3294 -0.2554  0.8089
   28MOL0     C 3672   6.737   7.734  10.468 -1.0703 -0.0714 -0.6882
   28MOL0     C 3673   6.800   7.710  10.593  0.3260 -0.6319  0.3934
   28MOL0     C 3674   6.943   7.735  10.619 -0.5090  0.5309  0.4098
   28MOL0     O 3675   7.021   7.748  10.505  0.3283 -0.1705  0.0175
   28MOL0     C 3676   7.158   7.724  10.522 -0.4962  0.7058  0.6271
   28MOL0     C 3677   7.216   7.649  10.411 -0.7372  0.1799 -0.7194
   28MOL0     C 3678   7.355   7.614  10.424 -0.2192  0.6750  0.1669
   28MOL0     C 3679   7.438   7.652  10.527  0.0266 -0.2313 -1.0740
   28MOL0     O 3680   7.570   7.613  10.538  0.5028 -0.4383  0.0206
   28MOL0     C 3681   7.649   7.679  10.639 -0.5330 -0.0821  0.0966
   28MOL0     C 3682   7.797   7.649  10.620 -0.0674  0.5875 -0.1614
   28MOL0     C 3683   7.881   7.722  10.721 -0.1585  0.0303  0.6220
   28MOL0     C 3684   7.898   7.642  10.850  1.2474 -0.5982 -0.2544
   28MOL0     C 3685   7.987   7.718  10.943 -0.4277 -0.5905 -0.3767
   28MOL0     C 3686   8.121   7.722  10.881  0.2018 -0.3255 -1.1600
   28MOL0     C 3687   8.219   7.771  10.991  0.7829 -0.0100 -0.4337
   28MOL0     C 3688   8.359   7.792  10.947 -0.6484  0.4301 -0.1753
   28MOL0    Cl 3689   8.415   7.647  10.855 -0.2799  0.3174 -0.0102
   28MOL0     C 3690   7.374   7.741  10.624 -0.0710  0.1544  0.2001
   28MOL0     C 3691   7.239   7.779  10.619  0.1186 -0.3911  0.7145
   28MOL0     O 3692   6.979   7.729  10.741  0.5349  0.6461 -0.5693
   28MOL0     C 3693   6.719   7.666  10.693 -0.1898  0.1521 -0.7743
   28MOL0     C 3694   6.581   7.654  10.680  0.3634  0.5106 -0.2181
   28MOL0     N 3695   6.126   7.145  10.783  0.6064 -0.6961 -0.4701
   28MOL0     N 3696   5.998   7.128  10.798 -0.1192  0.0329  0.2881
   28MOL0     C 3697   5.414   7.869  10.912 -0.3460  1.2817  0.1191
   28MOL0     C 3698   5.297   7.827  10.988 -0.2650  0.3833  0.3489
   28MOL0     C 3699   4.887   7.822  11.164 -0.1744  0.9197  0.0228
   28MOL0     C 3700   4.795   7.894  11.089  2.0464 -0.1958  0.3327
   28MOL0     C 3701   4.663   7.896  11.133  0.0204 -0.2103 -0.1740
   28MOL0     C 3702   4.616   7.822  11.241  0.1948  1.1654  0.6206
   28MOL0     O 3703   4.485   7.818  11.275  0.4772 -0.0157  0.2607
   28MOL0     C 3704   4.377   7.878  11.202 -0.2241 -0.4422 -0.1666
   28MOL0     C 3705   4.368   8.031  11.238  0.5947 -1.0534 -0.6936
   28MOL0     C 3706   4.264   8.107  11.159 -0.0129  0.5963  0.9838
   28MOL0     C 3707   4.282   8.081  11.004 -1.0100 -0.2960 -0.1669
   28MOL0     C 3708   4.190   8.154  10.918  0.3150  0.7874  0.6360
   28MOL0     C 3709   4.100   8.199  10.846 -0.6319  0.6611  0.0363
   28MOL0     C 3710   4.710   7.752  11.323  0.7775 -0.3012  1.1357
   28MOL0     C 3711   4.847   7.753  11.287  0.6481  0.4649 -0.0940
   28MOL0     C 3712   4.948   7.675  11.371 -0.6415 -0.2888 -0.2108
   28MOL0     H 3713   5.060   7.914  10.764 -0.1146 -3.7442 -0.0529
   28MOL0     H 3714   5.271   7.995  10.632 -0.8823  1.9803  0.7986
   28MOL0     H 3715   5.707   7.930  10.762  0.1743 -0.1613  2.7487
   28MOL0     H 3716   5.611   7.783  10.759  0.2152 -0.8594 -2.3766
   28MOL0     H 3717   5.668   7.966  10.514 -0.7374 -0.1054  0.3070
   28MOL0     H 3718   5.580   7.815  10.521 -1.5466  1.2445  1.4458
   28MOL0     H 3719   5.875   7.849  10.563 -1.3453  1.3262 -1.3266
   28MOL0     H 3720   5.809   7.775  10.423 -2.5378 -0.6804  0.1588
   28MOL0     H 3721   5.907   7.600  10.561  0.3914  0.3263 -0.5238
   28MOL0     H 3722   5.784   7.633  10.689  2.1940 -1.6637  0.7714
   28MOL0     H 3723   5.613   7.557  10.541 -0.2168  3.1468 -0.5234
   28MOL0     H 3724   5.716   7.570  10.399 -0.4859  1.0452  0.3337
   28MOL0     H 3725   5.642   7.336  10.486  0.2162 -0.9607 -2.0205
   28MOL0     H 3726   5.823   7.358  10.457  0.7333  1.9057  0.9470
   28MOL0     H 3727   5.664   7.365  10.727  0.5651 -1.3277  0.4456
   28MOL0     H 3728   5.842   7.386  10.710  0.3686 -0.7930  0.5916
   28MOL0     H 3729   5.739   7.160  10.784 -0.2609 -1.9054 -0.8046
   28MOL0     H 3730   5.728   7.129  10.614 -0.7522 -1.2254 -0.1627
   28MOL0     H 3731   6.015   7.238  10.496 -2.7329 -0.5375  0.1504
   28MOL0     H 3732   6.355   7.152  10.625 -0.1026 -1.2698 -1.9915
   28MOL0     H 3733   6.271   7.232  10.486 -2.3533  0.2473  0.4666
   28MOL0     H 3734   6.382   7.381  10.717  0.4380  4.0382  0.1573
   28MOL0     H 3735   6.427   7.387  10.547 -2.5559 -0.2147 -2.2256
   28MOL0     H 3736   6.151   7.464  10.642  1.2676 -0.4131  1.3782
   28MOL0     H 3737   6.219   7.483  10.478  1.6759 -3.8862 -0.3806
   28MOL0     H 3738   6.328   7.616  10.730 -0.2519  0.5268  0.6939
   28MOL0     H 3739   6.213   7.689  10.642 -0.4471 -0.2058  0.4518
   28MOL0     H 3740   6.558   7.748  10.356  0.4249  2.1617  1.3654
   28MOL0     H 3741   6.782   7.770  10.376 -0.1788  1.0393  0.1524
   28MOL0     H 3742   7.156   7.608  10.331  0.2878  0.5298 -1.7008
   28MOL0     H 3743   7.416   7.549  10.361 -0.2591 -0.7882  1.5747
   28MOL0     H 3744   7.628   7.786  10.637 -2.7425 -0.4811  0.3353
   28MOL0     H 3745   7.621   7.647  10.740 -0.6801 -1.2823 -0.3049
   28MOL0     H 3746   7.823   7.545  10.637  1.2651  1.0445  0.6601
   28MOL0     H 3747   7.817   7.671  10.514 -1.1849  0.6808 -0.3704
   28MOL0     H 3748   7.972   7.731  10.662  1.3368 -2.5345  2.3356
   28MOL0     H 3749   7.851   7.826  10.741  1.0164  0.1065  2.1865
   28MOL0     H 3750   7.934   7.539  10.838  0.6530 -0.7345 -0.9507
   28MOL0     H 3751   7.798   7.639  10.894  1.1437  1.4031 -0.2553
   28MOL0     H 3752   7.984   7.676  11.044  0.3540 -1.0850 -0.5536
   28MOL0     H 3753   7.945   7.818  10.960  0.6108  0.0782 -1.5734
   28MOL0     H 3754   8.146   7.617  10.863 -0.5819 -1.1063  1.7865
   28MOL0     H 3755   8.139   7.788  10.796  0.8806 -2.2632 -2.5822
   28MOL0     H 3756   8.222   7.697  11.071  3.1604 -1.7418 -2.0045
   28MOL0     H 3757   8.180   7.861  11.039 -1.8598 -1.1697 -0.2411
   28MOL0     H 3758   8.367   7.871  10.871  0.9583 -1.0381 -1.6421
   28MOL0     H 3759   8.425   7.827  11.026 -0.1654 -2.4993  0.8103
   28MOL0     H 3760   7.425   7.789  10.707 -0.3441 -2.7440  2.1648
   28MOL0     H 3761   7.199   7.844  10.696 -0.9196 -3.2838  2.7702
   28MOL0     H 3762   6.761   7.652  10.793  1.5876  1.4467 -1.2920
   28MOL0     H 3763   6.521   7.623  10.766 -2.0338  0.6647 -1.7325
   28MOL0     H 3764   5.513   7.846  10.950 -1.1902 -0.8394  1.1665
   28MOL0     H 3765   5.313   7.780  11.084  1.0268  1.4883  0.6936
   28MOL0     H 3766   4.828   7.952  11.003  3.0246 -1.6113 -0.2909
   28MOL0     H 3767   4.598   7.964  11.079 -0.2496 -1.2306 -1.1668
   28MOL0     H 3768   4.276   7.839  11.218 -0.9525  0.9829 -1.0962
   28MOL0     H 3769   4.406   7.864  11.098  2.3305  0.2404  0.3923
   28MOL0     H 3770   4.462   8.081  11.215  0.5528 -0.0065  1.2215
   28MOL0     H 3771   4.353   8.032  11.346  2.0045  1.1809 -0.4651
   28MOL0     H 3772   4.265   8.216  11.166 -1.4337  1.2458 -4.1451
   28MOL0     H 3773   4.170   8.059  11.187  0.3919 -2.3477 -2.0637
   28MOL0     H 3774   4.385   8.096  10.971 -0.4217  1.9225  2.3117
   28MOL0     H 3775   4.261   7.977  10.977 -1.3119 -0.5336  0.9466
   28MOL0     H 3776   4.029   8.232  10.773 -1.1846 -0.7104 -0.0703
   28MOL0     H 3777   4.669   7.704  11.411  1.9242 -0.6483  1.4933
   28MOL0     H 3778   5.016   7.745  11.421 -0.3094 -3.1024  3.7610
   28MOL0     H 3779   4.906   7.620  11.456 -1.2299  1.3183  0.5671
   28MOL0     H 3780   5.006   7.617  11.298  0.6287  4.0279 -3.0602
   29MOL0     O 3781   1.915   1.128   6.248 -0.0848 -0.1425  0.6471
   29MOL0     C 3782   1.865   1.028   6.205 -0.1576 -0.0207  0.1988
   29MOL0     O 3783   1.939   0.916   6.200 -0.2611  0.0756  0.0939
   29MOL0     C 3784   2.068   0.909   6.184 -0.3510 -0.6488  0.1789
   29MOL0     C 3785   2.110   0.789   6.120  0.1963 -0.0105  0.1380
   29MOL0     C 3786   2.239   0.769   6.074  0.3698  0.5319  0.2813
   29MOL0     C 3787   2.335   0.869   6.097  0.0635 -0.1419 -0.1469
   29MOL0     O 3788   2.457   0.863   6.038  0.3341  0.3644  0.1771
   29MOL0     C 3789   2.565   0.955   6.050 -0.5246  0.5140 -0.5475
   29MOL0     C 3790   2.679   0.877   5.985 -0.9273 -0.4801 -0.3007
   29MOL0     C 3791   2.711   0.754   6.075 -0.3440 -0.2628  0.8116
   29MOL0     C 3792   2.862   0.720   6.077 -0.3136  0.5838  0.0427
   29MOL0     C 3793   2.889   0.574   6.047 -0.5148 -0.0356  0.4635
   29MOL0     C 3794   3.042   0.548   6.031  0.0667  0.5879  0.3361
   29MOL0     C 3795   3.108   0.463   6.137 -0.5397 -0.2713 -0.0544
   29MOL0     C 3796   3.255   0.494   6.172 -0.2859  0.2349  0.3816
   29MOL0     N 3797   3.336   0.486   6.043 -0.1806 -0.0761  0.7441
   29MOL0     C 3798   3.419   0.379   6.012 -0.6071 -0.7541  0.1826
   29MOL0     C 3799   3.486   0.424   5.902 -0.4540  0.8193 -0.1618
   29MOL0     C 3800   3.583   0.349   5.816 -0.0148  0.2146 -0.0059
   29MOL0     C 3801   3.704   0.291   5.899  0.0188 -0.2770 -0.4593
   29MOL0     C 3802   3.780   0.396   5.983 -0.3670 -0.2003 -0.6891
   29MOL0     C 3803   3.820   0.529   5.911  0.0961  0.5282 -0.4292
   29MOL0     O 3804   3.906   0.506   5.798 -0.4655  0.3656  0.5212
   29MOL0     C 3805   4.043   0.487   5.816  0.7287  1.1898  0.5127
   29MOL0     C 3806   4.110   0.434   5.711 -0.6537  0.0467 -0.4484
   29MOL0     C 3807   4.247   0.400   5.722  0.8538  0.4000  0.1947
   29MOL0     C 3808   4.324   0.425   5.838  0.7073 -0.6913  0.5007
   29MOL0     C 3809   4.469   0.404   5.846  0.6354  0.0478  0.4770
   29MOL0     O 3810   4.526   0.412   5.967 -0.3769 -0.3482  0.1675
   29MOL0     C 3811   4.655   0.362   5.977  0.1369  0.2276 -0.2494
   29MOL0     C 3812   4.764   0.444   5.998  0.7072  0.6808 -0.1519
   29MOL0     C 3813   4.890   0.381   6.011 -0.4089  0.1263 -0.6598
   29MOL0     C 3814   4.912   0.247   5.991 -0.7407  0.2067 -0.2401
   29MOL0     O 3815   5.032   0.181   6.002 -0.2651  0.1677 -0.0785
   29MOL0     C 3816   5.154   0.261   5.995  0.4751  0.1959  0.3872
   29MOL0     C 3817   5.265   0.162   5.980 -0.0615 -0.1625  0.3141
   29MOL0     C 3818   5.391   0.238   5.953  0.2132  0.4311 -0.4398
   29MOL0     C 3819   5.505   0.129   5.926  0.1578  0.1798 -0.5346
   29MOL0     C 3820   5.640   0.166   5.993 -0.2137  0.1491  0.1726
   29MOL0     C 3821   5.751   0.079   5.947  0.0458  0.1406 -0.9022
   29MOL0     C 3822   5.743  -0.062   6.017  0.5288 -0.2047  0.5350
   29MOL0     C 3823   5.880  -0.134   6.039 -0.6208 -0.5240 -0.2429
   29MOL0    Cl 3824   5.931  -0.235   5.887 -0.7652 -0.1961  0.3759
   29MOL0     C 3825   4.802   0.167   5.971 -0.3245  0.4604  0.4454
   29MOL0     C 3826   4.672   0.220   5.964 -0.7849 -0.4147 -0.3792
   29MOL0     O 3827   4.525   0.372   5.739 -0.2164  0.0901  0.1732
   29MOL0     C 3828   4.252   0.481   5.946 -0.3234  0.2970 -0.2002
   29MOL0     C 3829   4.112   0.504   5.938  0.0436 -0.3611 -0.5483
   29MOL0     N 3830   3.443   0.551   5.877  1.0412  0.6676  1.4187
   29MOL0     N 3831   3.357   0.592   5.967  0.1529  0.0763  0.4813
   29MOL0     C 3832   2.295   0.984   6.160 -0.1093 -0.0646 -0.4581
   29MOL0     C 3833   2.163   1.014   6.197 -0.9125  0.0005  0.7670
   29MOL0     C 3834   1.721   1.039   6.163  0.1510 -0.5141 -0.5300
   29MOL0     C 3835   1.653   1.162   6.168  0.1786 -0.1048  0.1800
   29MOL0     C 3836   1.521   1.169   6.136  0.2014  0.7183  0.2768
   29MOL0     C 3837   1.449   1.056   6.096  0.6518 -0.5727  1.1972
   29MOL0     O 3838   1.319   1.048   6.064  0.2744 -0.3550  0.2107
   29MOL0     C 3839   1.240   1.074   6.173 -0.0673  0.4254  0.1066
   29MOL0     C 3840   1.102   1.006   6.162 -0.6581 -0.0305 -0.4841
   29MOL0     C 3841   1.023   1.048   6.034  0.2867 -0.0489  0.2752
   29MOL0     C 3842   0.873   1.028   6.041  0.1684 -0.0519 -0.8522
   29MOL0     C 3843   0.833   0.890   6.007  0.6194  0.1978  0.0763
   29MOL0     C 3844   0.796   0.776   5.977  0.2259 -0.0975  0.1249
   29MOL0     C 3845   1.520   0.942   6.082 -0.3119  0.3114 -0.3018
   29MOL0     C 3846   1.651   0.927   6.125  0.3685  0.9326  0.4482
   29MOL0     C 3847   1.694   0.781   6.134 -0.2436  0.1754  0.1798
   29MOL0     H 3848   2.039   0.709   6.103  0.3700  0.0848 -1.1979
   29MOL0     H 3849   2.268   0.680   6.020 -1.8186 -0.3377  0.4402
   29MOL0     H 3850   2.555   1.045   5.988 -2.7779  0.3989 -0.4286
   29MOL0     H 3851   2.582   0.994   6.151  2.1536 -3.3141  0.6966
   29MOL0     H 3852   2.765   0.944   5.969 -0.3962 -1.3183 -1.0726
   29MOL0     H 3853   2.643   0.847   5.886  1.8808 -1.4802 -1.1138
   29MOL0     H 3854   2.645   0.669   6.051  0.1734 -0.7412  1.0688
   29MOL0     H 3855   2.696   0.784   6.179  0.8185  0.5803  0.7456
   29MOL0     H 3856   2.926   0.784   6.016 -0.4155  0.5728 -0.0759
   29MOL0     H 3857   2.894   0.744   6.179 -0.8890 -0.0201  0.3716
   29MOL0     H 3858   2.868   0.506   6.130  5.1383  1.4841  3.6689
   29MOL0     H 3859   2.834   0.549   5.956  1.2289 -0.8479 -0.4127
   29MOL0     H 3860   3.048   0.492   5.937 -0.9387  1.1865 -0.1021
   29MOL0     H 3861   3.109   0.634   6.029 -1.0992  1.5189 -1.3153
   29MOL0     H 3862   3.105   0.362   6.096 -3.6770  1.1429 -3.8970
   29MOL0     H 3863   3.060   0.468   6.235 -2.5344  0.8885 -1.0268
   29MOL0     H 3864   3.286   0.593   6.209  1.5435 -0.7938  1.8101
   29MOL0     H 3865   3.292   0.420   6.244  0.9582 -1.0766 -1.5213
   29MOL0     H 3866   3.419   0.281   6.057  1.5151 -2.2718 -2.7899
   29MOL0     H 3867   3.529   0.267   5.768  1.2773 -0.6661  0.0323
   29MOL0     H 3868   3.627   0.415   5.741 -0.2969  0.4234  0.0087
   29MOL0     H 3869   3.670   0.219   5.974  1.6693  1.8305  2.5749
   29MOL0     H 3870   3.773   0.233   5.837 -0.3209 -0.2468 -0.8704
   29MOL0     H 3871   3.870   0.354   6.028  0.7986  1.3807 -1.4589
   29MOL0     H 3872   3.719   0.424   6.070  1.1110 -1.5870  0.8611
   29MOL0     H 3873   3.855   0.592   5.994 -1.6179  3.1415 -1.5263
   29MOL0     H 3874   3.729   0.583   5.883 -1.6542 -1.7670  0.5850
   29MOL0     H 3875   4.053   0.400   5.625 -0.8297  1.5707 -0.9827
   29MOL0     H 3876   4.289   0.350   5.636 -2.2102  0.5311 -1.5224
   29MOL0     H 3877   4.743   0.550   5.989  0.2971  0.5995 -0.1822
   29MOL0     H 3878   4.976   0.445   6.028 -0.0566 -0.9446  2.2596
   29MOL0     H 3879   5.154   0.324   5.906  2.9869 -0.9740 -0.5510
   29MOL0     H 3880   5.161   0.329   6.080  1.2381  1.5810 -0.7454
   29MOL0     H 3881   5.267   0.112   6.078 -1.2296  0.6098  0.7597
   29MOL0     H 3882   5.233   0.097   5.898  0.2935  0.3443 -0.2344
   29MOL0     H 3883   5.375   0.303   5.866 -1.2565 -0.0679 -0.5724
   29MOL0     H 3884   5.416   0.301   6.038  1.9823  3.2040 -2.8062
   29MOL0     H 3885   5.530   0.118   5.820  0.8403 -0.3358 -0.3301
   29MOL0     H 3886   5.474   0.030   5.961 -0.9099  0.8154  0.4034
   29MOL0     H 3887   5.623   0.165   6.101  0.8240 -1.1670  0.3589
   29MOL0     H 3888   5.671   0.269   5.975  1.0015 -0.3173 -0.5201
   29MOL0     H 3889   5.759   0.071   5.838  0.8673  2.9143 -1.1268
   29MOL0     H 3890   5.842   0.124   5.985 -0.8783  1.3955 -0.1086
   29MOL0     H 3891   5.669  -0.128   5.969 -1.5648  2.2639  0.1739
   29MOL0     H 3892   5.696  -0.050   6.115 -1.5297 -1.2811 -0.2537
   29MOL0     H 3893   5.956  -0.058   6.059  0.2034 -0.8371 -1.9480
   29MOL0     H 3894   5.876  -0.195   6.130 -0.0634  1.1061  0.9151
   29MOL0     H 3895   4.806   0.059   5.961 -0.4919  0.6534 -3.6402
   29MOL0     H 3896   4.597   0.148   5.933 -1.8987  0.0449  1.1546
   29MOL0     H 3897   4.310   0.482   6.037 -0.0043  0.6883 -0.4019
   29MOL0     H 3898   4.068   0.535   6.032  0.6841 -0.5734 -0.1723
   29MOL0     H 3899   2.367   1.065   6.155 -1.5343  1.4189  1.6199
   29MOL0     H 3900   2.141   1.110   6.242  0.8519  0.6082  0.4191
   29MOL0     H 3901   1.715   1.249   6.185 -0.7814  0.4811  0.7792
   29MOL0     H 3902   1.467   1.263   6.124  0.1811  0.3283 -5.2453
   29MOL0     H 3903   1.224   1.181   6.184 -5.0979 -0.2862  3.1756
   29MOL0     H 3904   1.296   1.038   6.259  1.9242  0.0904 -1.2618
   29MOL0     H 3905   1.046   1.032   6.253 -1.4597 -0.1288 -0.9409
   29MOL0     H 3906   1.129   0.900   6.160 -0.3994 -0.1612  2.9731
   29MOL0     H 3907   1.052   0.987   5.948 -3.4929  0.0863 -1.3033
   29MOL0     H 3908   1.041   1.151   6.001 -1.6015  0.2226 -0.0028
   29MOL0     H 3909   0.839   1.064   6.138 -0.9216  0.7748 -1.5169
   29MOL0     H 3910   0.836   1.089   5.958  0.6568 -0.7819 -1.6271
   29MOL0     H 3911   0.762   0.680   5.943 -0.8503  0.1810  0.3653
   29MOL0     H 3912   1.470   0.851   6.050  3.6677 -2.7359  1.2299
   29MOL0     H 3913   1.741   0.732   6.049 -0.6900  0.3851 -0.1956
   29MOL0     H 3914   1.754   0.761   6.224 -0.3608 -0.9282  0.0212
   29MOL0     H 3915   1.599   0.726   6.143  0.8940 -2.2628 -1.7033
   30MOL0     O 3916   4.449   5.688   3.370 -0.4623  0.4172  0.0696
   30MOL0     C 3917   4.406   5.619   3.459 -0.1901  0.6813  0.2300
   30MOL0     O 3918   4.439   5.485   3.482 -0.3942 -0.4654 -0.5002
   30MOL0     C 3919   4.542   5.432   3.407  0.5176 -0.1544  0.0230
   30MOL0     C 3920   4.669   5.410   3.454  0.2944 -0.1126 -0.1554
   30MOL0     C 3921   4.759   5.339   3.374  0.9012 -0.4566 -0.6845
   30MOL0     C 3922   4.720   5.299   3.243 -0.0832 -0.3275 -0.2439
   30MOL0     O 3923   4.809   5.240   3.156  0.3848 -0.2949  0.1650
   30MOL0     C 3924   4.918   5.168   3.203 -0.4396  0.5071  0.0693
   30MOL0     C 3925   4.946   5.062   3.095  0.1432  0.1676 -0.0635
   30MOL0     C 3926   5.064   4.973   3.111  0.2053 -0.1265 -0.2711
   30MOL0     C 3927   5.194   5.038   3.072  0.7895  0.7293 -0.2701
   30MOL0     C 3928   5.320   4.947   3.086  0.1736  0.4071 -0.1392
   30MOL0     C 3929   5.453   5.005   3.055  0.1350 -0.0685 -0.0742
   30MOL0     C 3930   5.561   4.906   3.045  0.0587  0.1369 -0.0852
   30MOL0     C 3931   5.690   4.985   3.016  0.0793  0.0931  0.7563
   30MOL0     N 3932   5.805   4.916   3.081  0.0267  0.4073 -0.4316
   30MOL0     C 3933   5.838   4.913   3.217  0.3654  0.1979  0.4049
   30MOL0     C 3934   5.922   4.812   3.231  0.1662 -0.3646 -0.9522
   30MOL0     C 3935   5.972   4.760   3.360  0.0696  0.3911 -0.3561
   30MOL0     C 3936   6.123   4.765   3.361 -0.4582 -0.4104  0.2171
   30MOL0     C 3937   6.174   4.910   3.364  0.2464 -0.1847  0.1802
   30MOL0     C 3938   6.327   4.915   3.357 -0.2404 -0.6297 -0.2530
   30MOL0     O 3939   6.387   4.797   3.411  0.1901  0.5583  0.4572
   30MOL0     C 3940   6.511   4.772   3.350  0.2000  1.2059  0.0132
   30MOL0     C 3941   6.606   4.868   3.317  0.5724 -0.0799 -0.8875
   30MOL0     C 3942   6.742   4.834   3.284  0.2580 -0.1258  0.8048
   30MOL0     C 3943   6.779   4.704   3.285 -1.2940 -0.3849  0.3675
   30MOL0     C 3944   6.927   4.663   3.264  0.0926 -0.2685  0.3432
   30MOL0     O 3945   7.016   4.763   3.236  0.1832  0.1525 -0.1938
   30MOL0     C 3946   7.146   4.730   3.216 -0.0875 -0.1893  1.0217
   30MOL0     C 3947   7.192   4.695   3.083  0.4751  0.8292  0.7448
   30MOL0     C 3948   7.322   4.651   3.056 -0.8171  0.1410  0.1581
   30MOL0     C 3949   7.418   4.650   3.156 -0.1438 -0.1923  0.0207
   30MOL0     O 3950   7.547   4.616   3.116  0.5904 -0.2107  0.1326
   30MOL0     C 3951   7.637   4.581   3.212  0.7961 -0.1592  0.7717
   30MOL0     C 3952   7.766   4.559   3.133  0.5405 -0.7649  0.7311
   30MOL0     C 3953   7.877   4.529   3.233  0.2392 -0.5876 -0.3599
   30MOL0     C 3954   8.011   4.506   3.166 -0.5909  0.3992 -0.1567
   30MOL0     C 3955   8.011   4.363   3.110 -0.0437  1.2024  0.2467
   30MOL0     C 3956   8.150   4.313   3.068  0.4168 -1.1315 -0.3370
   30MOL0     C 3957   8.216   4.398   2.960 -0.3857  0.2410  0.7863
   30MOL0     C 3958   8.362   4.360   2.936 -0.1720  0.2596  0.2475
   30MOL0    Cl 3959   8.386   4.184   2.919  0.1997 -0.0670  0.1747
   30MOL0     C 3960   7.382   4.690   3.291  0.0584 -0.5730  0.3677
   30MOL0     C 3961   7.241   4.718   3.322 -0.3673 -0.3130  0.1253
   30MOL0     O 3962   6.955   4.542   3.290 -0.3034  1.1627 -0.2211
   30MOL0     C 3963   6.683   4.601   3.311 -0.1505 -0.0625  0.0390
   30MOL0     C 3964   6.542   4.633   3.344 -0.6933  0.6665 -0.0771
   30MOL0     N 3965   5.947   4.755   3.110 -0.1099  0.4000 -0.4665
   30MOL0     N 3966   5.877   4.817   3.023 -0.1071  0.9903  0.1266
   30MOL0     C 3967   4.601   5.339   3.192 -0.6747  0.2589  0.4164
   30MOL0     C 3968   4.507   5.389   3.273  0.1229  0.0394 -0.7258
   30MOL0     C 3969   4.314   5.674   3.560 -0.7450  0.8418 -0.0417
   30MOL0     C 3970   4.192   5.612   3.583  0.3951  0.7080  0.1442
   30MOL0     C 3971   4.095   5.669   3.667 -0.5347 -0.1171 -0.2256
   30MOL0     C 3972   4.127   5.790   3.728  0.0565  0.4723 -0.9204
   30MOL0     O 3973   4.038   5.858   3.802 -0.6123 -0.1237 -1.2366
   30MOL0     C 3974   3.939   5.781   3.881 -0.1575 -0.0370 -0.1752
   30MOL0     C 3975   4.017   5.700   3.991  0.0839 -0.1027  0.0699
   30MOL0     C 3976   3.919   5.611   4.063 -0.6641  0.7045 -0.6215
   30MOL0     C 3977   3.981   5.521   4.171 -0.1096  0.3879 -0.2714
   30MOL0     C 3978   3.900   5.402   4.183 -0.5406  0.7261 -0.2516
   30MOL0     C 3979   3.829   5.300   4.197  0.2943  0.9045 -0.6088
   30MOL0     C 3980   4.252   5.847   3.708 -0.0376 -0.0189 -0.5165
   30MOL0     C 3981   4.351   5.785   3.640  0.2717  0.2585  0.3089
   30MOL0     C 3982   4.494   5.841   3.639  0.6287 -0.8665 -0.1979
   30MOL0     H 3983   4.706   5.449   3.548  0.7993  1.8293 -1.1235
   30MOL0     H 3984   4.860   5.339   3.412  0.4961  1.7680  0.6323
   30MOL0     H 3985   4.998   5.240   3.223 -0.2667  0.0922  0.9068
   30MOL0     H 3986   4.884   5.109   3.288 -0.5893 -2.0909 -1.6583
   30MOL0     H 3987   4.938   5.098   2.992 -1.3817  0.7033  0.2140
   30MOL0     H 3988   4.864   4.990   3.101  0.7205 -0.4719  0.2249
   30MOL0     H 3989   5.065   4.874   3.065  3.2721  0.1843 -1.1300
   30MOL0     H 3990   5.076   4.941   3.215  3.7870 -1.1339 -0.8482
   30MOL0     H 3991   5.180   5.060   2.966  0.5002  1.2489 -0.1283
   30MOL0     H 3992   5.208   5.127   3.133 -1.6226  0.3674  0.9337
   30MOL0     H 3993   5.340   4.926   3.192  2.0662 -3.4354 -1.0619
   30MOL0     H 3994   5.312   4.848   3.040  0.7169  0.9970 -1.5399
   30MOL0     H 3995   5.440   5.052   2.957 -0.0047  0.8651  0.3801
   30MOL0     H 3996   5.467   5.077   3.136  0.6313  1.6764 -1.6376
   30MOL0     H 3997   5.542   4.832   2.967 -0.2770 -0.1366  0.2551
   30MOL0     H 3998   5.565   4.857   3.143 -4.2073  3.0420  1.8698
   30MOL0     H 3999   5.710   4.987   2.909  1.4386 -0.2589  0.9788
   30MOL0     H 4000   5.700   5.089   3.050 -0.1076  0.0646  0.8983
   30MOL0     H 4001   5.780   4.960   3.296 -2.0397 -0.2295 -1.0032
   30MOL0     H 4002   5.917   4.819   3.433 -0.9393  1.0226 -1.5795
   30MOL0     H 4003   5.954   4.653   3.372  0.8317  0.4078  1.2010
   30MOL0     H 4004   6.153   4.711   3.452  0.1352  1.8745  1.4615
   30MOL0     H 4005   6.161   4.720   3.269 -1.6374  0.0125 -0.4992
   30MOL0     H 4006   6.143   4.956   3.459  0.7193  0.0942  0.2026
   30MOL0     H 4007   6.149   4.979   3.283 -0.0537 -1.2800 -0.6763
   30MOL0     H 4008   6.365   5.003   3.410  0.1312 -1.8267  1.5454
   30MOL0     H 4009   6.348   4.923   3.249 -0.5202 -0.3499 -0.2883
   30MOL0     H 4010   6.570   4.970   3.319  0.4072 -0.1325 -1.1034
   30MOL0     H 4011   6.812   4.909   3.249  1.6130 -0.9992  1.5924
   30MOL0     H 4012   7.123   4.719   3.003  4.8827  0.2525 -3.6965
   30MOL0     H 4013   7.361   4.629   2.957  1.8483 -0.6668  1.2838
   30MOL0     H 4014   7.649   4.661   3.285 -0.3600  2.1511 -1.4153
   30MOL0     H 4015   7.602   4.484   3.248 -3.6175  1.0841  0.3946
   30MOL0     H 4016   7.754   4.480   3.058  1.7791 -1.3106  1.0765
   30MOL0     H 4017   7.786   4.654   3.082  2.5073 -0.6297  1.6583
   30MOL0     H 4018   7.884   4.605   3.311 -0.8883  0.5344 -1.3158
   30MOL0     H 4019   7.848   4.436   3.283 -3.4546  1.9845  2.8476
   30MOL0     H 4020   8.102   4.509   3.227 -0.2516  1.6858 -0.6898
   30MOL0     H 4021   8.024   4.573   3.081  0.0584 -1.1574 -1.3469
   30MOL0     H 4022   7.948   4.364   3.021 -0.7556  0.3658  0.7249
   30MOL0     H 4023   7.979   4.286   3.181  1.4995 -1.1861 -1.5200
   30MOL0     H 4024   8.220   4.297   3.151  0.4002  1.7430  0.3325
   30MOL0     H 4025   8.140   4.214   3.022  2.9581 -0.8282 -1.7570
   30MOL0     H 4026   8.216   4.506   2.973  4.7482  0.3194  2.4660
   30MOL0     H 4027   8.172   4.384   2.861  1.7131 -1.7861  0.0424
   30MOL0     H 4028   8.399   4.403   2.842  1.1387 -2.0555 -0.3724
   30MOL0     H 4029   8.424   4.401   3.016  2.5910  2.5587 -2.7567
   30MOL0     H 4030   7.450   4.707   3.374 -2.0565  1.6860  1.7699
   30MOL0     H 4031   7.214   4.738   3.425  3.8684  2.3478  0.9771
   30MOL0     H 4032   6.706   4.499   3.283 -0.1521 -0.5374  1.6695
   30MOL0     H 4033   6.474   4.552   3.369  0.9246 -0.6250  0.3471
   30MOL0     H 4034   4.581   5.307   3.090  0.8042  1.9083 -0.4412
   30MOL0     H 4035   4.406   5.404   3.236 -0.0367  0.0657 -0.2853
   30MOL0     H 4036   4.167   5.516   3.538 -2.0707  0.7355  1.3391
   30MOL0     H 4037   4.006   5.608   3.681 -0.1905 -1.5073 -3.3192
   30MOL0     H 4038   3.883   5.715   3.815  0.6982 -0.8446 -0.1046
   30MOL0     H 4039   3.875   5.857   3.928  0.2493 -1.0419  2.1689
   30MOL0     H 4040   4.062   5.776   4.056  2.6113 -1.1817 -0.3162
   30MOL0     H 4041   4.097   5.642   3.946  2.0241  1.4452  1.3686
   30MOL0     H 4042   3.867   5.548   3.990 -0.2519  0.9549 -1.1432
   30MOL0     H 4043   3.855   5.680   4.119 -1.2321 -0.8389  0.6928
   30MOL0     H 4044   4.084   5.487   4.156 -0.2870 -1.4488  2.0937
   30MOL0     H 4045   3.978   5.573   4.267  0.1528 -0.8907  0.4506
   30MOL0     H 4046   3.760   5.219   4.207  1.1119  0.2128 -0.4234
   30MOL0     H 4047   4.283   5.937   3.761 -2.2561 -0.3571  1.5444
   30MOL0     H 4048   4.515   5.912   3.719  0.2036 -1.0708  0.1018
   30MOL0     H 4049   4.576   5.768   3.645  4.2335  2.6782 -2.1485
   30MOL0     H 4050   4.496   5.898   3.546 -2.6799  0.8852  0.6444
   31MOL0     O 4051  10.753   4.046   2.511  0.0060  0.1652  0.0220
   31MOL0     C 4052  10.723   4.133   2.428  0.2250  1.0091 -0.0506
   31MOL0     O 4053  10.600   4.159   2.393 -0.1997 -0.1844  0.4929
   31MOL0     C 4054  10.497   4.075   2.407 -0.0161 -0.2467 -1.0900
   31MOL0     C 4055  10.459   4.028   2.530 -0.3382  0.1850  0.2524
   31MOL0     C 4056  10.350   3.941   2.549  0.1652 -0.4417 -0.5840
   31MOL0     C 4057  10.264   3.905   2.443 -0.9210 -0.2412 -0.2654
   31MOL0     O 4058  10.165   3.820   2.464  0.0248 -0.0898  0.2407
   31MOL0     C 4059  10.039   3.862   2.408 -0.3069 -0.1636 -0.2036
   31MOL0     C 4060   9.992   3.996   2.470 -0.8890  0.1183  0.2349
   31MOL0     C 4061   9.946   3.979   2.619 -0.6161 -0.0258  0.6962
   31MOL0     C 4062   9.907   4.119   2.672 -0.4641 -0.2412  0.3568
   31MOL0     C 4063   9.832   4.097   2.803 -0.6897 -0.3338 -0.1878
   31MOL0     C 4064   9.753   4.209   2.862  0.4208  0.4301 -0.2782
   31MOL0     C 4065   9.677   4.171   2.993 -0.5047  0.7917  0.4840
   31MOL0     C 4066   9.531   4.221   2.994  0.3793  0.2779 -0.4223
   31MOL0     N 4067   9.517   4.335   3.086  0.0726  0.1912  0.2252
   31MOL0     C 4068   9.568   4.459   3.071 -0.8530 -0.1439  0.5680
   31MOL0     C 4069   9.513   4.527   3.175  0.0409  0.1543 -0.0299
   31MOL0     C 4070   9.504   4.679   3.173 -0.5840 -0.0232  0.1467
   31MOL0     C 4071   9.654   4.718   3.186 -0.3013  0.6733  1.4267
   31MOL0     C 4072   9.651   4.870   3.194 -1.1728 -0.2892  0.4307
   31MOL0     C 4073   9.780   4.917   3.123  0.1254 -0.0474  0.7069
   31MOL0     O 4074   9.896   4.846   3.169  0.0812 -0.1292  0.1402
   31MOL0     C 4075  10.020   4.888   3.131  0.3004  0.8020  0.0624
   31MOL0     C 4076  10.118   4.802   3.183 -0.4525  0.5875 -0.1731
   31MOL0     C 4077  10.248   4.839   3.174  0.2806  0.1085  0.3889
   31MOL0     C 4078  10.287   4.954   3.103  0.6462  0.1177 -0.0496
   31MOL0     C 4079  10.423   4.982   3.090 -0.4554 -0.1848  0.3760
   31MOL0     O 4080  10.448   5.078   3.000 -0.1168  0.3091  0.0033
   31MOL0     C 4081  10.573   5.099   2.949 -0.1818 -0.9486 -1.2716
   31MOL0     C 4082  10.616   5.233   2.935 -0.5291  0.4586 -0.0770
   31MOL0     C 4083  10.739   5.262   2.870  0.3492 -0.4250 -0.1847
   31MOL0     C 4084  10.822   5.162   2.823 -0.2045  0.2319 -0.3824
   31MOL0     O 4085  10.935   5.189   2.758  0.7828  0.6849 -0.2154
   31MOL0     C 4086  10.978   5.093   2.660 -0.2436 -0.1541 -0.3908
   31MOL0     C 4087  11.084   5.164   2.569 -0.4981  0.7273 -0.8402
   31MOL0     C 4088  11.222   5.162   2.634 -0.0663 -0.9857  0.9859
   31MOL0     C 4089  11.317   5.243   2.549 -0.3532 -0.6999 -0.3846
   31MOL0     C 4090  11.453   5.248   2.618 -0.0626  0.1429  0.2820
   31MOL0     C 4091  11.552   5.322   2.527 -0.2651 -0.3171  0.2284
   31MOL0     C 4092  11.694   5.315   2.582  0.0684 -0.7201  0.1037
   31MOL0     C 4093  11.777   5.416   2.503  0.0660  0.1610  0.4944
   31MOL0    Cl 4094  11.954   5.378   2.529 -0.1229  0.1882  0.0385
   31MOL0     C 4095  10.778   5.030   2.839 -0.2402  0.1681 -0.6615
   31MOL0     C 4096  10.653   4.997   2.893 -0.6284 -0.8776 -0.4037
   31MOL0     O 4097  10.511   4.912   3.144 -0.3895  0.3780  0.4180
   31MOL0     C 4098  10.185   5.029   3.034 -0.1541  0.0402  0.1058
   31MOL0     C 4099  10.052   5.000   3.054  0.5342  0.4612 -0.0512
   31MOL0     N 4100   9.433   4.440   3.249 -1.0332  0.5614 -0.3697
   31MOL0     N 4101   9.445   4.319   3.199  0.5768 -0.6363  0.0907
   31MOL0     C 4102  10.303   3.959   2.318  0.3526  0.2177  0.0147
   31MOL0     C 4103  10.413   4.048   2.301 -0.6298  0.2695  0.5808
   31MOL0     C 4104  10.829   4.232   2.386 -0.6467  0.5263  0.5213
   31MOL0     C 4105  10.790   4.322   2.284  1.1052  0.8590  0.0476
   31MOL0     C 4106  10.868   4.409   2.223 -0.3843 -0.8793  0.8045
   31MOL0     C 4107  11.005   4.413   2.251  0.1740  0.2861  0.3255
   31MOL0     O 4108  11.096   4.489   2.190 -0.7924  0.1063  0.8555
   31MOL0     C 4109  11.101   4.491   2.048 -0.7036  0.0285  0.1315
   31MOL0     C 4110  11.218   4.580   2.004 -0.2038 -0.4844 -0.2622
   31MOL0     C 4111  11.350   4.565   2.080  0.1472  0.1926  0.1011
   31MOL0     C 4112  11.433   4.684   2.042 -0.3908  0.1622 -0.4037
   31MOL0     C 4113  11.565   4.690   2.113  0.1329  0.4427  1.0439
   31MOL0     C 4114  11.674   4.698   2.162  1.7485 -0.1225 -0.8072
   31MOL0     C 4115  11.050   4.332   2.356  0.1212  0.1963 -0.2094
   31MOL0     C 4116  10.969   4.236   2.417 -0.3833  0.7073  0.0827
   31MOL0     C 4117  11.025   4.157   2.540  0.3643  0.6959  0.1065
   31MOL0     H 4118  10.516   4.059   2.618  0.2667 -1.6200  0.5339
   31MOL0     H 4119  10.329   3.894   2.645 -0.1906  2.6103  0.9407
   31MOL0     H 4120  10.037   3.855   2.299  1.6877 -3.4448 -0.1426
   31MOL0     H 4121   9.974   3.784   2.448  0.8822 -2.5361 -2.5970
   31MOL0     H 4122   9.904   4.026   2.412  1.2457  0.9081 -2.8235
   31MOL0     H 4123  10.068   4.073   2.457  0.4974 -0.3323  4.2267
   31MOL0     H 4124  10.020   3.939   2.689 -1.4252 -0.1272  1.5096
   31MOL0     H 4125   9.861   3.910   2.615  0.9754 -2.0621  0.2237
   31MOL0     H 4126   9.989   4.191   2.682 -0.0756 -0.0200 -3.1729
   31MOL0     H 4127   9.843   4.162   2.594 -1.0315 -2.3157 -0.3870
   31MOL0     H 4128   9.758   4.019   2.782 -0.6068 -0.3513 -0.4227
   31MOL0     H 4129   9.903   4.070   2.882 -1.5230 -1.5868  0.1697
   31MOL0     H 4130   9.807   4.298   2.895 -0.5893  0.5540  1.1554
   31MOL0     H 4131   9.681   4.231   2.783 -0.5214  0.9697  0.7017
   31MOL0     H 4132   9.734   4.202   3.081  0.1125  0.1805  0.3065
   31MOL0     H 4133   9.670   4.062   2.997 -0.6425  0.8534  3.3176
   31MOL0     H 4134   9.484   4.237   2.897  0.0191 -0.3421 -0.3605
   31MOL0     H 4135   9.474   4.137   3.036  1.8141 -1.7518 -2.2841
   31MOL0     H 4136   9.618   4.503   2.984  1.0312  0.4703  1.9074
   31MOL0     H 4137   9.454   4.710   3.081  1.3414  1.4552 -0.4887
   31MOL0     H 4138   9.439   4.718   3.252 -0.1883  0.5779  0.1808
   31MOL0     H 4139   9.698   4.683   3.279 -0.3160 -0.2969  1.0782
   31MOL0     H 4140   9.717   4.684   3.103 -1.3448 -1.4443  1.4478
   31MOL0     H 4141   9.664   4.902   3.298  3.9508 -1.1922  0.3190
   31MOL0     H 4142   9.565   4.918   3.148  0.6556  1.4769 -1.3379
   31MOL0     H 4143   9.799   5.024   3.135  2.5255 -0.1135 -1.5969
   31MOL0     H 4144   9.770   4.905   3.015  0.9682  2.4691  0.2661
   31MOL0     H 4145  10.085   4.721   3.247  0.5474  2.3280  2.8033
   31MOL0     H 4146  10.316   4.777   3.232  1.4035 -1.4715 -2.4155
   31MOL0     H 4147  10.548   5.307   2.977  0.6878  0.0409  2.8500
   31MOL0     H 4148  10.762   5.365   2.844 -0.9747 -0.3545 -1.1863
   31MOL0     H 4149  11.026   4.998   2.687  0.5399  0.8315  1.8513
   31MOL0     H 4150  10.887   5.060   2.608 -1.6125  1.5865  0.8050
   31MOL0     H 4151  11.089   5.113   2.473 -1.0723  1.4831 -1.2833
   31MOL0     H 4152  11.052   5.267   2.555 -0.1200  1.9307  4.6972
   31MOL0     H 4153  11.223   5.199   2.737 -2.4984  3.3655 -0.3193
   31MOL0     H 4154  11.266   5.062   2.636  3.7977  0.2232 -4.1714
   31MOL0     H 4155  11.287   5.347   2.537  0.1623 -0.2555  1.7599
   31MOL0     H 4156  11.321   5.199   2.449 -1.2664 -1.9403  0.0865
   31MOL0     H 4157  11.488   5.145   2.626  0.9003  0.4214 -0.1568
   31MOL0     H 4158  11.457   5.284   2.721  2.6845 -1.7054  0.9189
   31MOL0     H 4159  11.553   5.294   2.422 -1.0390 -0.4208  0.2451
   31MOL0     H 4160  11.514   5.425   2.522 -1.7727 -0.8870 -0.6723
   31MOL0     H 4161  11.741   5.217   2.568  2.6296  0.6642 -1.7899
   31MOL0     H 4162  11.708   5.336   2.689  2.0300  1.7223 -0.5407
   31MOL0     H 4163  11.765   5.396   2.396  1.7567 -0.8631  0.4512
   31MOL0     H 4164  11.765   5.524   2.516  1.6286  0.3737  0.3171
   31MOL0     H 4165  10.831   4.949   2.790  0.3990  1.1495 -1.6561
   31MOL0     H 4166  10.605   4.900   2.884 -4.7422  0.7830  1.2161
   31MOL0     H 4167  10.216   5.119   2.982 -0.9448  1.8883  2.6214
   31MOL0     H 4168   9.978   5.071   3.018  1.0029  0.2804 -1.4582
   31MOL0     H 4169  10.246   3.923   2.233  1.0108 -1.4859  0.2588
   31MOL0     H 4170  10.453   4.078   2.205  1.0647 -1.2933  0.7501
   31MOL0     H 4171  10.684   4.326   2.263  0.7908 -0.0121  1.3384
   31MOL0     H 4172  10.833   4.471   2.141 -0.2967  2.5002  3.1093
   31MOL0     H 4173  11.003   4.514   2.005 -0.5293  2.0724  0.7509
   31MOL0     H 4174  11.123   4.390   2.010  0.8495 -1.4215  4.2458
   31MOL0     H 4175  11.177   4.680   2.018  0.0771 -0.5107  0.8626
   31MOL0     H 4176  11.232   4.582   1.895  1.4604  1.2733 -0.0701
   31MOL0     H 4177  11.407   4.473   2.062 -0.2931 -0.5211  2.0913
   31MOL0     H 4178  11.334   4.577   2.187  2.4672  2.1713  0.3063
   31MOL0     H 4179  11.461   4.677   1.936  3.7412 -2.1404  0.6264
   31MOL0     H 4180  11.390   4.780   2.073 -0.6478 -0.2457  0.5138
   31MOL0     H 4181  11.769   4.699   2.212  1.3467  2.4058  0.0107
   31MOL0     H 4182  11.151   4.338   2.397 -0.1752  1.2683  0.4008
   31MOL0     H 4183  10.959   4.171   2.626 -0.9895 -4.2643  0.1781
   31MOL0     H 4184  11.025   4.049   2.524 -0.4992  0.9225 -1.6186
   31MOL0     H 4185  11.122   4.191   2.576  0.7096 -1.3515  1.3023
   32MOL0     O 4186   1.537   6.628   4.358  0.3110  0.8604  0.3021
   32MOL0     C 4187   1.498   6.577   4.467  0.1534  0.2793  0.5525
   32MOL0     O 4188   1.579   6.580   4.586  0.3142  0.6884  0.2418
   32MOL0     C 4189   1.673   6.681   4.604 -1.0209 -0.5994  0.1161
   32MOL0     C 4190   1.802   6.639   4.629 -0.2911 -0.1341  1.0100
   32MOL0     C 4191   1.896   6.740   4.635 -0.7673  0.3317  0.0446
   32MOL0     C 4192   1.866   6.876   4.613  0.4673  0.6110  0.5451
   32MOL0     O 4193   1.952   6.985   4.621 -0.0993  0.9432 -0.5410
   32MOL0     C 4194   2.091   6.952   4.651 -0.1512 -1.0838 -0.5304
   32MOL0     C 4195   2.159   7.083   4.690 -0.0089  0.4394  0.2199
   32MOL0     C 4196   2.317   7.070   4.711 -0.0595 -0.3692  0.0656
   32MOL0     C 4197   2.378   7.165   4.804 -0.7505  0.3072 -0.0515
   32MOL0     C 4198   2.529   7.160   4.815  0.4168 -0.6061 -0.3806
   32MOL0     C 4199   2.583   7.266   4.913  0.0232  0.1622  0.2616
   32MOL0     C 4200   2.727   7.239   4.958  0.6535  0.0518 -0.5737
   32MOL0     C 4201   2.834   7.243   4.848 -0.0095  0.4077 -0.4245
   32MOL0     N 4202   2.966   7.234   4.911 -0.6781 -0.5496 -0.0126
   32MOL0     C 4203   3.073   7.175   4.869  0.8035  0.3036 -0.2871
   32MOL0     C 4204   3.179   7.236   4.925  0.5112 -0.7366  0.4202
   32MOL0     C 4205   3.328   7.186   4.920  0.3916  0.3298  0.5577
   32MOL0     C 4206   3.344   7.058   5.002  0.3486 -0.1184 -0.2186
   32MOL0     C 4207   3.427   6.949   4.926  0.5228  0.3727  0.0411
   32MOL0     C 4208   3.444   6.821   5.003 -0.2201 -0.2914 -0.9571
   32MOL0     O 4209   3.502   6.729   4.911 -0.3798  0.0327  0.4702
   32MOL0     C 4210   3.637   6.741   4.874 -1.0355 -0.5907 -0.4686
   32MOL0     C 4211   3.736   6.810   4.947  0.7633 -0.0820  0.3807
   32MOL0     C 4212   3.874   6.809   4.912  0.5785 -0.9148  0.2413
   32MOL0     C 4213   3.911   6.741   4.795  0.5559 -0.6836  0.2236
   32MOL0     C 4214   4.054   6.725   4.762  0.5982  0.4383 -0.5463
   32MOL0     O 4215   4.090   6.632   4.663  0.1105  0.2068 -0.5231
   32MOL0     C 4216   4.233   6.636   4.633  1.0767  0.2544  0.6576
   32MOL0     C 4217   4.284   6.663   4.509  0.1433  0.4191 -0.2058
   32MOL0     C 4218   4.416   6.646   4.481 -0.9868  0.2984 -0.5739
   32MOL0     C 4219   4.506   6.620   4.581 -0.0682 -0.1356  0.8501
   32MOL0     O 4220   4.640   6.602   4.547  0.9001  0.1108  0.5646
   32MOL0     C 4221   4.687   6.480   4.600  0.0742 -0.5412 -0.7231
   32MOL0     C 4222   4.843   6.492   4.616 -0.7544  0.3947  0.2806
   32MOL0     C 4223   4.902   6.358   4.663 -0.1982  0.7882  0.1078
   32MOL0     C 4224   5.055   6.379   4.682  0.9844  1.0824  0.1507
   32MOL0     C 4225   5.130   6.261   4.750 -0.5881  0.7766  0.3022
   32MOL0     C 4226   5.280   6.285   4.748 -0.7999  0.6698  0.5053
   32MOL0     C 4227   5.342   6.290   4.609 -0.0431  0.4348  0.2353
   32MOL0     C 4228   5.313   6.169   4.510  0.3088  0.2464  0.8768
   32MOL0    Cl 4229   5.391   6.206   4.341  0.3074  0.0775  0.0648
   32MOL0     C 4230   4.463   6.602   4.707 -0.3441  0.7594 -0.8410
   32MOL0     C 4231   4.328   6.610   4.735 -0.0039  0.2490 -0.1925
   32MOL0     O 4232   4.131   6.790   4.832  0.1917 -0.5722  0.1334
   32MOL0     C 4233   3.813   6.668   4.720 -0.5752 -0.2879 -0.5863
   32MOL0     C 4234   3.680   6.671   4.758  0.0278  0.0383 -0.0238
   32MOL0     N 4235   3.126   7.337   5.006 -0.3737 -0.6552 -0.0756
   32MOL0     N 4236   2.995   7.329   5.003 -0.6115  0.0139 -0.3497
   32MOL0     C 4237   1.738   6.912   4.588  0.4514  1.0360 -0.6619
   32MOL0     C 4238   1.640   6.814   4.593 -0.3627 -0.3612 -0.0599
   32MOL0     C 4239   1.375   6.494   4.468 -0.4005 -0.0714 -0.0541
   32MOL0     C 4240   1.367   6.400   4.562 -0.5802 -1.0599 -0.2516
   32MOL0     C 4241   1.251   6.329   4.575 -0.0959  0.8292  1.0092
   32MOL0     C 4242   1.139   6.355   4.500  1.1521  0.2682 -0.4272
   32MOL0     O 4243   1.017   6.304   4.514  0.1074  0.1112 -0.1647
   32MOL0     C 4244   1.004   6.205   4.612  0.4893  0.9846 -0.1651
   32MOL0     C 4245   0.855   6.178   4.612  0.3577  1.1202 -0.2761
   32MOL0     C 4246   0.817   6.056   4.697 -0.2603 -0.3460 -0.2374
   32MOL0     C 4247   0.668   6.023   4.670 -0.6031  0.3702 -0.6677
   32MOL0     C 4248   0.572   6.114   4.736 -0.3395 -0.5893 -1.1029
   32MOL0     C 4249   0.496   6.188   4.805  0.5554  0.4075 -0.6700
   32MOL0     C 4250   1.139   6.457   4.403 -0.0618  0.3426  0.1796
   32MOL0     C 4251   1.264   6.524   4.382 -0.2198  0.0561  0.2817
   32MOL0     C 4252   1.260   6.640   4.281 -1.3278 -0.4517 -0.3145
   32MOL0     H 4253   1.832   6.535   4.629  2.6533  0.6207  1.5738
   32MOL0     H 4254   1.992   6.703   4.671  0.7685  4.2319  0.4649
   32MOL0     H 4255   2.112   6.869   4.719 -0.1837 -1.3698 -0.8632
   32MOL0     H 4256   2.138   6.923   4.557  0.8186  2.6570 -1.3817
   32MOL0     H 4257   2.109   7.110   4.783 -0.0211  2.0845 -0.2267
   32MOL0     H 4258   2.141   7.156   4.610  1.2872 -1.0129 -1.5059
   32MOL0     H 4259   2.359   7.065   4.610  0.9437  0.0550  0.4461
   32MOL0     H 4260   2.330   6.971   4.756  0.4936 -0.3469 -0.0331
   32MOL0     H 4261   2.339   7.261   4.768 -1.9258  0.7513  2.2114
   32MOL0     H 4262   2.328   7.152   4.900 -0.8831  1.9478  0.1425
   32MOL0     H 4263   2.556   7.058   4.845  3.5965  0.7941  2.0710
   32MOL0     H 4264   2.581   7.185   4.723 -0.1117 -0.0841 -0.5418
   32MOL0     H 4265   2.581   7.362   4.860  2.5167  0.2030  0.0975
   32MOL0     H 4266   2.510   7.276   4.993 -1.2931  1.4795 -1.0447
   32MOL0     H 4267   2.733   7.139   5.001  0.8743  0.7115  1.0046
   32MOL0     H 4268   2.743   7.308   5.041  0.0865 -0.6046  0.1010
   32MOL0     H 4269   2.826   7.147   4.797  0.0756  0.0933  0.1399
   32MOL0     H 4270   2.825   7.325   4.777  1.6233  3.1880  2.3089
   32MOL0     H 4271   3.080   7.097   4.794  0.3217  1.5922 -1.7216
   32MOL0     H 4272   3.361   7.160   4.819  0.0107 -2.2044  1.0147
   32MOL0     H 4273   3.393   7.262   4.965  0.4284 -0.1322  1.3014
   32MOL0     H 4274   3.395   7.082   5.096 -0.2984 -2.3507  0.7537
   32MOL0     H 4275   3.243   7.019   5.017  0.9056 -3.0856 -3.1283
   32MOL0     H 4276   3.526   6.989   4.905  0.8381 -0.6964 -0.5470
   32MOL0     H 4277   3.371   6.926   4.835  0.4322  0.3690  0.0974
   32MOL0     H 4278   3.349   6.775   5.031  0.8061 -2.3166 -0.6094
   32MOL0     H 4279   3.498   6.835   5.097 -0.8108  2.0637 -0.9127
   32MOL0     H 4280   3.711   6.881   5.026 -1.7836  0.3021 -0.6564
   32MOL0     H 4281   3.939   6.880   4.961  0.7702  0.6896 -2.1557
   32MOL0     H 4282   4.208   6.695   4.438 -1.2929 -0.3279  0.9325
   32MOL0     H 4283   4.456   6.666   4.382 -0.0215  2.4035  0.1662
   32MOL0     H 4284   4.639   6.451   4.694 -2.0252  1.6183 -1.0434
   32MOL0     H 4285   4.664   6.405   4.523  0.0257 -1.2822  0.0016
   32MOL0     H 4286   4.894   6.530   4.527 -1.7990  1.3282  0.0565
   32MOL0     H 4287   4.867   6.555   4.702 -0.0636 -1.4688  1.5224
   32MOL0     H 4288   4.846   6.320   4.749  0.9603 -1.7359 -0.1456
   32MOL0     H 4289   4.900   6.270   4.598  1.8647 -0.4304  1.5595
   32MOL0     H 4290   5.092   6.476   4.716 -0.3715  1.4551  0.6000
   32MOL0     H 4291   5.093   6.375   4.579 -1.1991  2.8416 -0.7835
   32MOL0     H 4292   5.112   6.161   4.710 -1.4855 -0.6731  3.8954
   32MOL0     H 4293   5.101   6.261   4.856 -1.2099  0.1902  0.1355
   32MOL0     H 4294   5.304   6.376   4.803 -0.8757 -0.9386  3.4198
   32MOL0     H 4295   5.335   6.207   4.801 -0.1769  0.4550 -0.4219
   32MOL0     H 4296   5.450   6.287   4.631 -0.0259  0.7604  0.1884
   32MOL0     H 4297   5.331   6.382   4.552 -0.1428  0.3916  0.1837
   32MOL0     H 4298   5.364   6.082   4.552 -3.4590 -1.9458  1.3569
   32MOL0     H 4299   5.205   6.155   4.502  0.0284  2.0101  1.0918
   32MOL0     H 4300   4.527   6.580   4.792  1.2166  1.5275 -1.7591
   32MOL0     H 4301   4.301   6.579   4.835  0.1273  0.0371 -0.2215
   32MOL0     H 4302   3.853   6.595   4.650 -2.6535 -1.1764 -0.9198
   32MOL0     H 4303   3.626   6.593   4.705 -2.0544  0.7223  0.9997
   32MOL0     H 4304   1.731   7.017   4.562 -1.1944  0.8884 -0.9661
   32MOL0     H 4305   1.537   6.841   4.575  0.3689  3.1406  0.3127
   32MOL0     H 4306   1.460   6.388   4.616  0.1306  1.4212 -0.7531
   32MOL0     H 4307   1.254   6.259   4.658  0.3063 -2.4883 -1.5764
   32MOL0     H 4308   1.044   6.229   4.712  1.2899 -0.3327 -0.1408
   32MOL0     H 4309   1.059   6.115   4.581  0.8367  1.3094 -0.4918
   32MOL0     H 4310   0.819   6.161   4.510  0.9484  0.0627 -0.3244
   32MOL0     H 4311   0.794   6.263   4.643  0.9116  1.4989 -0.1983
   32MOL0     H 4312   0.840   6.078   4.802  3.5249 -0.4783 -0.9265
   32MOL0     H 4313   0.885   5.974   4.672  0.2218 -0.5010  1.4774
   32MOL0     H 4314   0.636   6.011   4.566 -1.4703 -1.2439 -0.2551
   32MOL0     H 4315   0.654   5.919   4.703  1.6823 -0.3090 -1.6102
   32MOL0     H 4316   0.442   6.256   4.868  1.0578  2.2429 -2.1416
   32MOL0     H 4317   1.044   6.494   4.367 -0.4512  0.0524  0.8818
   32MOL0     H 4318   1.179   6.628   4.208  0.0604 -0.2171 -1.9423
   32MOL0     H 4319   1.250   6.738   4.328  0.8185 -1.2537  2.0522
   32MOL0     H 4320   1.349   6.633   4.219  0.5120 -0.3592  2.1495
   33MOL0     O 4321   6.667  10.026   1.194 -0.2862 -0.4803  0.4915
   33MOL0     C 4322   6.719  10.092   1.284  0.5113  0.5018  1.0775
   33MOL0     O 4323   6.659  10.195   1.343 -0.0232 -0.0104  0.3755
   33MOL0     C 4324   6.530  10.226   1.295 -0.3898  0.1098  0.1536
   33MOL0     C 4325   6.419  10.167   1.358  0.8256 -0.6464 -0.5223
   33MOL0     C 4326   6.287  10.201   1.315 -0.6628  0.6968  0.1845
   33MOL0     C 4327   6.266  10.287   1.201 -0.3329 -0.3817 -0.1623
   33MOL0     O 4328   6.150  10.324   1.138  0.2209  0.3755  0.0468
   33MOL0     C 4329   6.026  10.283   1.192  1.0555  0.0906 -0.1647
   33MOL0     C 4330   5.904  10.345   1.112 -0.3875  0.4970 -0.0517
   33MOL0     C 4331   5.922  10.316   0.961  1.1454 -0.2555  0.5033
   33MOL0     C 4332   5.806  10.377   0.873  0.3768  0.0692 -0.6416
   33MOL0     C 4333   5.813  10.320   0.735 -0.0890 -0.6429  0.3246
   33MOL0     C 4334   5.714  10.388   0.631  0.1334 -0.5045  0.4289
   33MOL0     C 4335   5.679  10.282   0.524 -0.0326  0.2398 -0.7429
   33MOL0     C 4336   5.719  10.320   0.382  0.0772 -0.4031 -0.0220
   33MOL0     N 4337   5.865  10.328   0.370  0.2245 -0.3435  0.1101
   33MOL0     C 4338   5.954  10.222   0.393  0.0414  0.6448 -0.5486
   33MOL0     C 4339   6.072  10.282   0.420 -0.0679  0.1063  0.4468
   33MOL0     C 4340   6.195  10.205   0.454  0.9188  0.1022 -0.0253
   33MOL0     C 4341   6.171  10.109   0.577  0.5616 -0.9637  0.5852
   33MOL0     C 4342   6.231  10.170   0.697  0.1608  0.6475 -0.7326
   33MOL0     C 4343   6.212  10.078   0.824 -0.0456  0.5090  0.6652
   33MOL0     O 4344   6.297   9.956   0.805  0.0921 -0.3803 -0.1107
   33MOL0     C 4345   6.434   9.978   0.790 -0.2368  0.9727 -0.2790
   33MOL0     C 4346   6.505  10.032   0.893 -0.9978 -0.6381  0.5609
   33MOL0     C 4347   6.644  10.037   0.886 -0.1943  0.0449 -0.9634
   33MOL0     C 4348   6.706   9.993   0.768  0.1729 -0.5411 -0.5443
   33MOL0     C 4349   6.848   9.984   0.748  0.6949 -0.7557 -0.7096
   33MOL0     O 4350   6.912  10.020   0.862 -0.1236  0.0143 -0.9883
   33MOL0     C 4351   7.047  10.025   0.862 -0.7678 -0.6346 -0.1139
   33MOL0     C 4352   7.134   9.929   0.824  0.3459 -0.2015  0.1956
   33MOL0     C 4353   7.270   9.939   0.806 -0.7049  0.1347 -0.8468
   33MOL0     C 4354   7.331  10.059   0.843 -1.0168 -0.4649 -0.5480
   33MOL0     O 4355   7.465  10.080   0.849  0.1987 -0.5185  0.5599
   33MOL0     C 4356   7.556   9.983   0.813  0.3721  1.1770  0.3146
   33MOL0     C 4357   7.686  10.014   0.871  0.1615  0.0375 -0.2602
   33MOL0     C 4358   7.792   9.936   0.813 -0.5301 -0.3901  0.3317
   33MOL0     C 4359   7.929   9.996   0.848  0.3033 -0.0697 -0.3898
   33MOL0     C 4360   8.029   9.936   0.746 -0.3447 -0.4271 -0.0179
   33MOL0     C 4361   8.176   9.992   0.775 -1.2324 -0.4541  0.9748
   33MOL0     C 4362   8.279   9.939   0.681 -0.1641  0.1834 -0.7831
   33MOL0     C 4363   8.400  10.029   0.675  0.7479 -0.1659 -0.6157
   33MOL0    Cl 4364   8.521   9.966   0.554 -0.0040  0.0717  0.3028
   33MOL0     C 4365   7.247  10.166   0.887 -0.5104  0.4799  0.1902
   33MOL0     C 4366   7.106  10.149   0.898  0.0183 -0.1907  0.2916
   33MOL0     O 4367   6.898   9.962   0.640 -0.3923  0.3723 -0.1418
   33MOL0     C 4368   6.626   9.946   0.661 -0.8910  0.2997 -0.4103
   33MOL0     C 4369   6.491   9.923   0.677  0.2066 -0.2674  0.6505
   33MOL0     N 4370   6.053  10.419   0.416 -0.2933  0.5990 -0.1285
   33MOL0     N 4371   5.929  10.452   0.382  0.2832 -0.5951  0.8125
   33MOL0     C 4372   6.375  10.340   1.144  0.1216 -0.3724 -0.0963
   33MOL0     C 4373   6.511  10.308   1.186 -0.1715 -0.8109  0.1942
   33MOL0     C 4374   6.857  10.063   1.324  0.1460 -0.2588  0.4195
   33MOL0     C 4375   6.953  10.025   1.232 -0.9132 -1.2363 -0.0385
   33MOL0     C 4376   7.086   9.998   1.273  0.8039 -0.0562 -0.0013
   33MOL0     C 4377   7.132  10.011   1.395 -1.1127 -0.4747  0.1385
   33MOL0     O 4378   7.262   9.985   1.416 -0.6365  0.0092 -0.1892
   33MOL0     C 4379   7.326  10.075   1.513  0.6942  0.9082  0.1425
   33MOL0     C 4380   7.482  10.047   1.522  0.5381 -0.0719  0.9112
   33MOL0     C 4381   7.542  10.014   1.382  0.7153 -0.5244  0.2667
   33MOL0     C 4382   7.697   9.999   1.401 -0.0331 -0.2187  0.0716
   33MOL0     C 4383   7.775   9.957   1.286  0.2030  0.0793 -0.2055
   33MOL0     C 4384   7.844   9.903   1.197  0.7165  0.2066 -0.6870
   33MOL0     C 4385   7.031  10.048   1.489 -1.0913 -0.0023 -0.4895
   33MOL0     C 4386   6.896  10.078   1.453 -0.9530 -0.5709  0.0818
   33MOL0     C 4387   6.818  10.133   1.568  0.8456  0.1869 -0.1230
   33MOL0     H 4388   6.442  10.101   1.441  1.5132  1.2949  0.9235
   33MOL0     H 4389   6.211  10.134   1.353 -0.4263  1.0326  1.2946
   33MOL0     H 4390   6.023  10.174   1.185  1.1970  0.1423 -1.1217
   33MOL0     H 4391   6.011  10.327   1.292 -0.4801  1.8443 -1.1009
   33MOL0     H 4392   5.883  10.452   1.128 -1.0833  0.4136 -0.4054
   33MOL0     H 4393   5.810  10.297   1.139  0.8903 -1.3103  1.4050
   33MOL0     H 4394   5.936  10.207   0.966 -2.2622 -0.7942  0.9908
   33MOL0     H 4395   6.000  10.380   0.920 -0.1145 -0.2082 -1.9732
   33MOL0     H 4396   5.708  10.358   0.919  0.2237  0.7239 -0.6816
   33MOL0     H 4397   5.799  10.486   0.868 -1.4450 -0.0342 -1.3320
   33MOL0     H 4398   5.917  10.322   0.702 -0.2195 -3.1614 -0.4009
   33MOL0     H 4399   5.790  10.213   0.743 -1.0039 -0.8642 -3.4129
   33MOL0     H 4400   5.625  10.421   0.685  0.1421  4.9169 -2.1279
   33MOL0     H 4401   5.768  10.472   0.586  1.3345 -1.7218 -0.4577
   33MOL0     H 4402   5.573  10.257   0.531 -0.0337  0.7306  3.1132
   33MOL0     H 4403   5.723  10.185   0.548  1.7312  0.5968 -2.2823
   33MOL0     H 4404   5.687  10.241   0.314  2.5309 -1.2491 -0.2785
   33MOL0     H 4405   5.674  10.417   0.359  1.5675  0.3715  0.1915
   33MOL0     H 4406   5.939  10.115   0.396  0.3567  0.6209  0.2655
   33MOL0     H 4407   6.230  10.132   0.380  1.0816  0.5128 -0.3584
   33MOL0     H 4408   6.274  10.277   0.476  0.4096  0.3816  0.8945
   33MOL0     H 4409   6.065  10.088   0.595 -0.0908  0.4326 -1.2926
   33MOL0     H 4410   6.224  10.016   0.555  0.9001 -1.4864  3.2619
   33MOL0     H 4411   6.177  10.263   0.714 -1.1414  0.6132 -4.0127
   33MOL0     H 4412   6.333  10.206   0.682 -0.8484  4.5425  0.6830
   33MOL0     H 4413   6.105  10.056   0.837  0.0916  0.6853  2.2938
   33MOL0     H 4414   6.237  10.120   0.922  0.1765  1.1107  0.3509
   33MOL0     H 4415   6.451  10.072   0.979  0.4968  0.0998  1.1958
   33MOL0     H 4416   6.704  10.072   0.970  0.9840 -1.7418 -0.9976
   33MOL0     H 4417   7.089   9.831   0.811 -0.8944  0.5047 -1.1068
   33MOL0     H 4418   7.320   9.857   0.755 -0.1905 -1.1730  1.5974
   33MOL0     H 4419   7.537   9.889   0.866  4.8577 -0.3676 -0.3939
   33MOL0     H 4420   7.566   9.972   0.704 -0.4999  1.0261  0.2389
   33MOL0     H 4421   7.693  10.121   0.851 -1.5788  0.0442 -0.9961
   33MOL0     H 4422   7.681   9.998   0.979  3.5233 -0.9094 -0.1404
   33MOL0     H 4423   7.785   9.833   0.849  2.8503 -0.8227  0.1194
   33MOL0     H 4424   7.779   9.938   0.705  0.8177  1.5362  0.1393
   33MOL0     H 4425   7.953   9.959   0.948 -1.6016 -2.5480 -0.7521
   33MOL0     H 4426   7.936  10.105   0.836  1.7866 -0.1982 -0.9213
   33MOL0     H 4427   7.998   9.945   0.642 -1.1701 -2.7254 -0.0363
   33MOL0     H 4428   8.038   9.831   0.776  3.1869  0.4883  2.9477
   33MOL0     H 4429   8.170  10.102   0.776  0.0151 -0.3773  1.0082
   33MOL0     H 4430   8.212   9.975   0.877  1.8831  1.4788  0.3360
   33MOL0     H 4431   8.232   9.932   0.583  0.6161  1.9851 -1.3191
   33MOL0     H 4432   8.315   9.845   0.724  2.0220  1.3022 -0.0287
   33MOL0     H 4433   8.366  10.133   0.664 -0.4428 -0.3742  0.8555
   33MOL0     H 4434   8.442  10.026   0.776  1.4041  1.5461 -0.7911
   33MOL0     H 4435   7.298  10.249   0.935 -0.5193  0.0925  0.8919
   33MOL0     H 4436   7.042  10.229   0.934 -2.9646 -1.4182 -1.8056
   33MOL0     H 4437   6.668   9.918   0.565  1.7839 -1.3201  1.1247
   33MOL0     H 4438   6.448   9.882   0.586  1.3283  0.2617 -0.1403
   33MOL0     H 4439   6.366  10.411   1.062  0.1870 -2.0468 -1.6106
   33MOL0     H 4440   6.588  10.347   1.120 -4.0983  2.6504 -2.9363
   33MOL0     H 4441   6.916  10.020   1.130 -0.0950  0.4399 -0.4446
   33MOL0     H 4442   7.160   9.974   1.198 -0.8152 -2.6709 -0.9008
   33MOL0     H 4443   7.295  10.048   1.614  1.6056 -0.4974  0.0747
   33MOL0     H 4444   7.296  10.179   1.494 -1.0875  0.4333  0.1888
   33MOL0     H 4445   7.508   9.962   1.585  2.8088  0.9562  1.4594
   33MOL0     H 4446   7.528  10.130   1.576  0.1625  1.4257 -0.9239
   33MOL0     H 4447   7.519  10.094   1.311  0.2135  0.5654  1.5927
   33MOL0     H 4448   7.509   9.922   1.334  0.3157  0.4614 -1.4049
   33MOL0     H 4449   7.741  10.089   1.445  0.3785  1.7155 -3.8517
   33MOL0     H 4450   7.702   9.922   1.478 -1.4780  1.3657  1.8372
   33MOL0     H 4451   7.901   9.852   1.122  1.3140  2.7490 -2.0792
   33MOL0     H 4452   7.069  10.055   1.590  2.4524  1.8613 -1.7934
   33MOL0     H 4453   6.744  10.212   1.557  1.9826  0.9763 -2.9900
   33MOL0     H 4454   6.762  10.050   1.613  2.1160  0.0055  1.2099
   33MOL0     H 4455   6.891  10.159   1.645  0.5474 -0.3024  0.3269
   34MOL0     O 4456   3.804   2.982   1.561 -0.6099 -0.0351 -0.1927
   34MOL0     C 4457   3.782   3.102   1.577 -0.3131 -0.2460  1.0208
   34MOL0     O 4458   3.870   3.208   1.557 -1.1974 -0.2644  1.0409
   34MOL0     C 4459   4.008   3.193   1.542  1.1263 -0.0919 -0.1413
   34MOL0     C 4460   4.081   3.076   1.580 -0.5820 -0.2186  0.2868
   34MOL0     C 4461   4.219   3.074   1.563  0.0481 -0.2503  0.3833
   34MOL0     C 4462   4.282   3.183   1.500 -0.1957 -0.1751 -0.0474
   34MOL0     O 4463   4.417   3.179   1.487  0.1866 -0.2592 -0.1721
   34MOL0     C 4464   4.484   3.059   1.481  0.3357 -0.0383 -0.4006
   34MOL0     C 4465   4.633   3.079   1.447  0.2840  0.4196  0.4344
   34MOL0     C 4466   4.649   3.111   1.296  0.1987  0.1572  0.2021
   34MOL0     C 4467   4.797   3.082   1.250 -0.5798  0.4706 -1.0526
   34MOL0     C 4468   4.825   3.097   1.103 -0.5413  0.1575  0.0759
   34MOL0     C 4469   4.970   3.080   1.057 -0.2576 -0.1239 -0.4657
   34MOL0     C 4470   4.992   2.938   0.997  0.3480 -0.0005 -0.8699
   34MOL0     C 4471   4.978   2.829   1.106 -0.4888  0.1238 -0.5159
   34MOL0     N 4472   5.010   2.704   1.039 -0.4267  0.1883 -0.3057
   34MOL0     C 4473   5.145   2.667   1.047  0.1456  0.0946  0.2491
   34MOL0     C 4474   5.151   2.534   1.015 -0.0709  0.2777 -0.4017
   34MOL0     C 4475   5.262   2.436   1.021  0.2102 -0.3438 -0.0037
   34MOL0     C 4476   5.317   2.435   1.158 -0.5938  1.1651 -0.3479
   34MOL0     C 4477   5.407   2.311   1.190  0.1454 -0.7602 -0.8846
   34MOL0     C 4478   5.517   2.302   1.093 -0.4357 -0.5096  0.4609
   34MOL0     O 4479   5.618   2.207   1.137  0.4370  0.3731 -0.7976
   34MOL0     C 4480   5.729   2.255   1.186 -0.4586  0.6742  0.4498
   34MOL0     C 4481   5.746   2.374   1.264  0.1870  0.0795 -0.0813
   34MOL0     C 4482   5.878   2.420   1.293 -0.3932  0.4163  0.9493
   34MOL0     C 4483   5.991   2.354   1.240  0.1323 -0.3016 -0.3996
   34MOL0     C 4484   6.134   2.389   1.277  0.2971 -0.9863 -0.3144
   34MOL0     O 4485   6.210   2.290   1.323  0.2881 -0.4367 -0.7408
   34MOL0     C 4486   6.335   2.323   1.373 -1.3562 -1.2006 -0.4934
   34MOL0     C 4487   6.353   2.427   1.474  0.0627 -0.6189 -1.1060
   34MOL0     C 4488   6.480   2.450   1.539  0.1187  0.2476 -0.4215
   34MOL0     C 4489   6.585   2.360   1.514 -0.2590  0.3371 -0.2157
   34MOL0     O 4490   6.700   2.389   1.587 -1.2310  0.3821  0.4774
   34MOL0     C 4491   6.819   2.319   1.547  0.4316 -0.1896  0.6299
   34MOL0     C 4492   6.927   2.351   1.660 -0.0728 -0.1862  0.7682
   34MOL0     C 4493   7.061   2.289   1.656  0.4976 -0.4439  0.9625
   34MOL0     C 4494   7.149   2.360   1.760  0.0617  0.5153  0.4455
   34MOL0     C 4495   7.289   2.297   1.761  0.0885  1.0155 -0.3500
   34MOL0     C 4496   7.372   2.326   1.641 -0.6954  1.0082 -0.5738
   34MOL0     C 4497   7.520   2.273   1.652 -0.5629  1.4647  0.0608
   34MOL0     C 4498   7.615   2.329   1.547  0.9012 -0.6498 -0.4373
   34MOL0    Cl 4499   7.765   2.227   1.558 -0.8930  0.0103 -0.1993
   34MOL0     C 4500   6.567   2.261   1.423  0.7959  0.0227  0.2521
   34MOL0     C 4501   6.448   2.241   1.351 -0.2644 -0.2453 -0.5416
   34MOL0     O 4502   6.167   2.510   1.254  0.4693 -0.4169 -0.4837
   34MOL0     C 4503   5.968   2.231   1.166 -0.3959 -0.5011 -0.1118
   34MOL0     C 4504   5.843   2.193   1.136  0.0611 -0.0301  0.5099
   34MOL0     N 4505   5.020   2.502   0.983 -0.1463  0.7310 -1.0584
   34MOL0     N 4506   4.936   2.598   1.005 -0.1769  0.1814  0.3289
   34MOL0     C 4507   4.213   3.297   1.457 -0.6644  0.4779 -0.9643
   34MOL0     C 4508   4.070   3.299   1.478  0.3269 -0.6480 -0.3182
   34MOL0     C 4509   3.656   3.140   1.638 -0.5455 -0.5645  0.3921
   34MOL0     C 4510   3.539   3.124   1.568  0.4057  0.0797  1.3295
   34MOL0     C 4511   3.421   3.159   1.626  0.9094 -0.5173  0.5194
   34MOL0     C 4512   3.411   3.198   1.761 -0.3236 -0.7627  0.0293
   34MOL0     O 4513   3.290   3.232   1.810  0.2464  0.1768  0.3161
   34MOL0     C 4514   3.185   3.137   1.799 -0.7230  0.6535  0.6317
   34MOL0     C 4515   3.054   3.220   1.797 -0.9470  0.4934  0.3470
   34MOL0     C 4516   3.029   3.309   1.921 -0.1363  0.3205 -0.0387
   34MOL0     C 4517   2.888   3.367   1.927  0.1842  0.3029 -0.5459
   34MOL0     C 4518   2.795   3.251   1.934 -0.9945  0.8321  0.3993
   34MOL0     C 4519   2.721   3.156   1.933 -0.8380 -0.6332  0.1391
   34MOL0     C 4520   3.528   3.216   1.837 -0.2188  0.1410  0.4741
   34MOL0     C 4521   3.648   3.181   1.771 -0.3528  0.9808 -0.3310
   34MOL0     C 4522   3.766   3.184   1.856  0.5232  0.4100  0.0978
   34MOL0     H 4523   4.045   2.986   1.629  0.5010 -1.8746 -1.7550
   34MOL0     H 4524   4.273   2.989   1.602 -0.4309 -0.9373 -0.4340
   34MOL0     H 4525   4.478   3.009   1.579 -0.7055 -0.9759 -0.9200
   34MOL0     H 4526   4.450   2.983   1.411  1.8521 -0.0895 -1.1175
   34MOL0     H 4527   4.675   2.979   1.460 -1.6651 -0.9707 -2.8604
   34MOL0     H 4528   4.690   3.137   1.520  0.2705 -1.6217  2.1830
   34MOL0     H 4529   4.603   3.209   1.282  3.7362  1.9397  0.0232
   34MOL0     H 4530   4.588   3.044   1.235  1.0995 -0.1760 -0.3510
   34MOL0     H 4531   4.861   3.155   1.301 -1.3300 -0.2372  1.0141
   34MOL0     H 4532   4.836   2.986   1.285  1.0442  1.2166 -0.7267
   34MOL0     H 4533   4.763   3.021   1.054 -0.3383 -1.6773  2.4832
   34MOL0     H 4534   4.792   3.199   1.081  0.5000  0.3967 -0.4601
   34MOL0     H 4535   4.991   3.158   0.983  0.3976  0.8522  0.7026
   34MOL0     H 4536   5.029   3.098   1.148 -0.4628  0.9305 -0.5213
   34MOL0     H 4537   5.098   2.933   0.971  0.9436  1.3376  1.0274
   34MOL0     H 4538   4.923   2.924   0.913 -0.2835  2.1912 -0.7792
   34MOL0     H 4539   5.063   2.852   1.171  0.2097 -1.1049 -0.9444
   34MOL0     H 4540   4.877   2.832   1.147  0.1939 -1.5316  1.4318
   34MOL0     H 4541   5.234   2.726   1.068  1.0542 -0.4545 -1.7374
   34MOL0     H 4542   5.220   2.347   0.974 -1.5459 -0.2215  1.2249
   34MOL0     H 4543   5.348   2.474   0.965  0.7210  0.1600  1.0880
   34MOL0     H 4544   5.386   2.518   1.174  0.3326  0.7963 -2.1883
   34MOL0     H 4545   5.243   2.444   1.239  0.5999  2.0140  0.6792
   34MOL0     H 4546   5.358   2.213   1.190 -0.8918 -0.3194  1.2072
   34MOL0     H 4547   5.445   2.324   1.292  0.0106 -3.0143 -0.4917
   34MOL0     H 4548   5.568   2.396   1.067 -2.4396  1.0539  1.8459
   34MOL0     H 4549   5.473   2.272   0.998  0.1693 -0.5419  0.1877
   34MOL0     H 4550   5.659   2.422   1.308  1.8079  0.5066  2.9873
   34MOL0     H 4551   5.884   2.507   1.359 -3.5330  2.1490 -0.7633
   34MOL0     H 4552   6.267   2.488   1.501 -0.8523 -2.5726  0.5951
   34MOL0     H 4553   6.480   2.532   1.610 -1.4475  0.1822 -0.3083
   34MOL0     H 4554   6.803   2.211   1.551  1.3221 -0.4256 -1.2336
   34MOL0     H 4555   6.855   2.342   1.447  0.2370 -3.0623 -0.2020
   34MOL0     H 4556   6.931   2.461   1.656 -4.2760  0.1288  0.6712
   34MOL0     H 4557   6.893   2.321   1.759  1.5368  0.9246  1.7167
   34MOL0     H 4558   7.049   2.183   1.679 -2.3148 -0.0629  1.5412
   34MOL0     H 4559   7.099   2.300   1.554  1.8701  1.8104  1.6368
   34MOL0     H 4560   7.108   2.345   1.860 -0.0507 -0.1527  0.3062
   34MOL0     H 4561   7.151   2.467   1.738 -1.8787  0.9784  2.2265
   34MOL0     H 4562   7.290   2.189   1.778 -0.1009  0.8540 -1.3221
   34MOL0     H 4563   7.335   2.339   1.851  0.3831 -1.3281  0.6766
   34MOL0     H 4564   7.327   2.278   1.553 -2.1187  1.3752 -0.0841
   34MOL0     H 4565   7.384   2.432   1.617 -1.3330  0.8169 -1.8496
   34MOL0     H 4566   7.524   2.165   1.642  2.9942  1.5626 -1.0464
   34MOL0     H 4567   7.553   2.296   1.754  5.7475  0.2139 -1.2744
   34MOL0     H 4568   7.575   2.318   1.445 -0.6423  2.0552 -0.2151
   34MOL0     H 4569   7.640   2.431   1.575  4.5594 -1.3654 -0.5170
   34MOL0     H 4570   6.633   2.182   1.390 -1.7147 -1.3100 -1.9699
   34MOL0     H 4571   6.447   2.175   1.265  1.0960  2.3159 -2.6699
   34MOL0     H 4572   6.058   2.178   1.137  1.3270  2.7769 -1.2881
   34MOL0     H 4573   5.837   2.101   1.078  0.9442 -0.9577  1.8234
   34MOL0     H 4574   4.262   3.381   1.409 -0.3202  0.9907  0.2482
   34MOL0     H 4575   4.000   3.374   1.444  0.3281 -0.4637  0.0781
   34MOL0     H 4576   3.555   3.101   1.463 -0.8470  2.3220  0.5759
   34MOL0     H 4577   3.327   3.156   1.573  1.0533 -1.9066  0.2934
   34MOL0     H 4578   3.190   3.057   1.873  1.9086 -0.5572 -0.6985
   34MOL0     H 4579   3.185   3.094   1.698 -1.3258 -0.2384  1.0055
   34MOL0     H 4580   2.969   3.152   1.787  0.1939 -1.1866  1.4295
   34MOL0     H 4581   3.060   3.281   1.707  0.2337 -1.1389 -0.7380
   34MOL0     H 4582   3.108   3.384   1.908  0.7298 -0.7574 -1.2733
   34MOL0     H 4583   3.045   3.247   2.010 -2.4485 -2.2918 -1.2704
   34MOL0     H 4584   2.885   3.431   2.016  0.5620 -0.1986 -0.1676
   34MOL0     H 4585   2.869   3.430   1.840 -2.2345  1.1568  0.5142
   34MOL0     H 4586   2.661   3.068   1.941  3.1941 -3.5371  1.6301
   34MOL0     H 4587   3.521   3.273   1.930  1.9496 -1.1924  1.5445
   34MOL0     H 4588   3.824   3.274   1.833  2.2537 -1.2781 -2.7232
   34MOL0     H 4589   3.733   3.184   1.960 -0.5083 -2.2633 -0.1575
   34MOL0     H 4590   3.823   3.093   1.837  1.7618  1.2601 -0.3485
   35MOL0     O 4591   3.844   1.671   6.088 -0.1382 -0.3651 -0.5674
   35MOL0     C 4592   3.857   1.783   6.038  0.7981  0.0966 -0.5604
   35MOL0     O 4593   3.973   1.833   5.987  0.0493  0.2452  0.0202
   35MOL0     C 4594   4.089   1.762   5.995  0.1225  0.2034 -0.3584
   35MOL0     C 4595   4.150   1.765   6.123 -0.8975 -0.1042 -0.0476
   35MOL0     C 4596   4.270   1.689   6.136 -0.1737  0.0750 -0.0855
   35MOL0     C 4597   4.335   1.624   6.030  0.5977 -0.5213  0.3821
   35MOL0     O 4598   4.457   1.560   6.047  0.3202  0.2482 -0.1126
   35MOL0     C 4599   4.557   1.642   6.112 -0.1751 -0.0898  0.1142
   35MOL0     C 4600   4.680   1.546   6.133  0.0242 -0.2945 -0.4458
   35MOL0     C 4601   4.782   1.630   6.203 -0.2774  0.5540 -0.8272
   35MOL0     C 4602   4.912   1.549   6.225 -0.0673 -0.6765  0.5242
   35MOL0     C 4603   5.026   1.628   6.282 -0.4344  0.5350  0.1185
   35MOL0     C 4604   5.127   1.524   6.332  0.7899  0.0284  0.2982
   35MOL0     C 4605   5.247   1.602   6.403  0.3468  0.3507  0.3871
   35MOL0     C 4606   5.343   1.495   6.462  0.4474  0.6002 -0.3739
   35MOL0     N 4607   5.461   1.562   6.513 -1.0600  0.4301 -0.3625
   35MOL0     C 4608   5.550   1.632   6.435  0.0221 -1.0162 -0.4367
   35MOL0     C 4609   5.633   1.683   6.524 -0.2605  0.1129 -0.3708
   35MOL0     C 4610   5.770   1.752   6.498  0.9888  0.3160 -0.0165
   35MOL0     C 4611   5.886   1.658   6.549 -0.4631 -0.6183 -0.6081
   35MOL0     C 4612   6.020   1.729   6.502 -0.2816  0.1379 -0.0367
   35MOL0     C 4613   6.054   1.681   6.359  0.3194  0.7098  0.3518
   35MOL0     O 4614   6.190   1.718   6.330  0.6863  0.5009  0.9472
   35MOL0     C 4615   6.285   1.622   6.318 -1.0424  0.0556 -0.1522
   35MOL0     C 4616   6.276   1.498   6.399 -0.2982 -0.0717  0.4544
   35MOL0     C 4617   6.367   1.393   6.387 -0.2507 -0.3650  0.1742
   35MOL0     C 4618   6.459   1.397   6.291 -0.1191  0.4407  0.2819
   35MOL0     C 4619   6.537   1.274   6.260  0.6572  1.0472  0.1865
   35MOL0     O 4620   6.618   1.284   6.153  0.0394 -0.3174  0.2883
   35MOL0     C 4621   6.700   1.183   6.108  0.6709 -0.1991 -0.8027
   35MOL0     C 4622   6.750   1.074   6.181  0.3731  0.1943  0.3102
   35MOL0     C 4623   6.845   0.984   6.131  0.0062 -0.0134  0.1625
   35MOL0     C 4624   6.886   0.995   6.001 -0.3409 -0.1125  0.5181
   35MOL0     O 4625   6.977   0.909   5.943 -0.2534 -0.2703  0.4868
   35MOL0     C 4626   7.026   0.796   6.013 -0.6708  0.3406  0.1957
   35MOL0     C 4627   7.118   0.712   5.921  0.8650  0.0152  0.4277
   35MOL0     C 4628   7.046   0.665   5.784 -0.0827 -0.6088 -0.1700
   35MOL0     C 4629   6.965   0.544   5.824  0.2059  0.2347  0.3270
   35MOL0     C 4630   6.887   0.491   5.702 -0.2959 -0.0542  0.0806
   35MOL0     C 4631   6.806   0.373   5.747  0.6569  0.1590 -0.2297
   35MOL0     C 4632   6.709   0.327   5.639 -0.0848 -0.7081 -0.4474
   35MOL0     C 4633   6.593   0.419   5.602 -0.6528  0.2814 -0.3271
   35MOL0    Cl 4634   6.448   0.332   5.543 -0.2054 -0.3127 -0.2968
   35MOL0     C 4635   6.837   1.099   5.921  0.9492 -1.0159 -0.1558
   35MOL0     C 4636   6.743   1.191   5.973 -0.4259 -0.6536  0.9599
   35MOL0     O 4637   6.513   1.172   6.327 -0.3589  0.5982  0.6834
   35MOL0     C 4638   6.468   1.508   6.209  0.0333  0.1606  0.0428
   35MOL0     C 4639   6.383   1.616   6.218 -0.1441 -0.1287  0.0109
   35MOL0     N 4640   5.591   1.655   6.653  0.3160  0.6437  0.3909
   35MOL0     N 4641   5.477   1.589   6.644  0.0516  0.0371 -0.2797
   35MOL0     C 4642   4.272   1.618   5.904 -0.0931 -0.4625 -0.1366
   35MOL0     C 4643   4.155   1.688   5.884 -0.3844 -0.1007 -0.3638
   35MOL0     C 4644   3.732   1.862   6.020  0.5467  0.5025 -0.5079
   35MOL0     C 4645   3.715   1.933   5.895  0.0860 -0.5838  0.0832
   35MOL0     C 4646   3.604   2.007   5.870  0.1095  1.2244 -0.2361
   35MOL0     C 4647   3.508   2.021   5.974  1.2840 -0.7415  0.0741
   35MOL0     O 4648   3.403   2.114   5.943 -0.1019  0.0202  0.0989
   35MOL0     C 4649   3.285   2.100   6.021  0.5278 -0.2423 -0.2976
   35MOL0     C 4650   3.174   2.187   5.945 -0.9562  0.0955 -0.1236
   35MOL0     C 4651   3.043   2.175   6.027  0.5070  0.3211  0.3306
   35MOL0     C 4652   2.907   2.201   5.960 -0.6297  0.1534  0.0226
   35MOL0     C 4653   2.797   2.172   6.046  0.8854 -0.0702  0.1431
   35MOL0     C 4654   2.701   2.140   6.108  0.6137 -0.7119 -0.3529
   35MOL0     C 4655   3.524   1.955   6.089 -0.5913 -0.5594  0.4201
   35MOL0     C 4656   3.632   1.878   6.120  0.1816 -0.1295 -0.0113
   35MOL0     C 4657   3.646   1.825   6.260 -0.1635 -0.3553 -0.1401
   35MOL0     H 4658   4.108   1.810   6.213 -0.0719 -0.5546  0.5754
   35MOL0     H 4659   4.296   1.678   6.240  0.7841  1.9008 -0.0915
   35MOL0     H 4660   4.574   1.723   6.041 -2.2803 -0.9074 -1.4366
   35MOL0     H 4661   4.533   1.678   6.213  4.3520 -2.6488  2.4103
   35MOL0     H 4662   4.720   1.502   6.041  1.9497 -0.5243  0.4714
   35MOL0     H 4663   4.648   1.463   6.196  2.5347 -0.8501  0.1927
   35MOL0     H 4664   4.764   1.670   6.303  1.0261 -2.6671  0.8478
   35MOL0     H 4665   4.813   1.712   6.137 -0.9155  2.8454  1.5597
   35MOL0     H 4666   4.897   1.469   6.297 -0.0464  0.5407  1.9364
   35MOL0     H 4667   4.938   1.505   6.128 -1.3468 -1.9574  0.7328
   35MOL0     H 4668   5.080   1.686   6.207 -1.5301  0.5432 -0.6902
   35MOL0     H 4669   5.003   1.697   6.364 -0.5634  0.0655  0.4819
   35MOL0     H 4670   5.081   1.450   6.397  1.8344 -1.7639 -0.9161
   35MOL0     H 4671   5.159   1.469   6.242 -0.1833  2.7637 -1.8682
   35MOL0     H 4672   5.206   1.677   6.471  0.6313  1.1248 -0.2865
   35MOL0     H 4673   5.289   1.663   6.323  0.7632 -2.9273 -2.1327
   35MOL0     H 4674   5.295   1.443   6.545  1.9246  0.3878  0.3839
   35MOL0     H 4675   5.370   1.437   6.373  0.1007  1.4819 -1.0669
   35MOL0     H 4676   5.562   1.636   6.328 -3.0743 -3.0432 -0.9635
   35MOL0     H 4677   5.780   1.764   6.390  0.8805 -2.0989 -0.3673
   35MOL0     H 4678   5.768   1.848   6.551  1.3985  0.6132 -0.5327
   35MOL0     H 4679   5.889   1.647   6.658  1.3164  0.7739 -0.4741
   35MOL0     H 4680   5.871   1.559   6.505 -0.2134  0.0356 -2.2246
   35MOL0     H 4681   6.110   1.707   6.561 -0.6116 -0.6733  0.1750
   35MOL0     H 4682   6.012   1.838   6.503  1.6784  0.3180  0.3921
   35MOL0     H 4683   5.989   1.733   6.289  1.5245  1.8889  0.0821
   35MOL0     H 4684   6.042   1.572   6.356  2.1904  0.4760  0.1691
   35MOL0     H 4685   6.208   1.486   6.483  1.3877  1.7113  2.1746
   35MOL0     H 4686   6.361   1.299   6.442  0.1477 -1.3214 -1.3579
   35MOL0     H 4687   6.721   1.053   6.283 -1.5045  1.0255 -0.0016
   35MOL0     H 4688   6.886   0.904   6.192 -1.3489 -0.5675  0.3845
   35MOL0     H 4689   7.089   0.828   6.097 -4.1346 -0.1139  3.1998
   35MOL0     H 4690   6.943   0.734   6.047 -0.6022  1.7289  3.2227
   35MOL0     H 4691   7.205   0.773   5.895  2.3281 -1.8077  0.8781
   35MOL0     H 4692   7.152   0.620   5.969  1.1718  0.1437  0.4566
   35MOL0     H 4693   6.978   0.737   5.737  1.6840  0.6282 -0.9350
   35MOL0     H 4694   7.128   0.635   5.718  0.3539 -1.3714  0.7060
   35MOL0     H 4695   6.900   0.573   5.907 -0.7828  0.8090 -0.6052
   35MOL0     H 4696   7.027   0.463   5.863 -0.9929 -0.0471  1.7423
   35MOL0     H 4697   6.958   0.460   5.625 -2.4028 -0.4905 -1.7919
   35MOL0     H 4698   6.822   0.569   5.661 -0.0882 -0.2024 -0.5313
   35MOL0     H 4699   6.879   0.293   5.762 -1.3582 -2.8374 -4.4171
   35MOL0     H 4700   6.759   0.394   5.844  0.6496  0.4873 -0.3022
   35MOL0     H 4701   6.670   0.229   5.668 -2.9861 -0.1758 -2.1877
   35MOL0     H 4702   6.765   0.291   5.552 -1.1503 -4.3533  0.2276
   35MOL0     H 4703   6.570   0.475   5.693 -0.7805 -0.1707 -0.0744
   35MOL0     H 4704   6.640   0.488   5.532  1.2458  1.0000  1.5612
   35MOL0     H 4705   6.870   1.120   5.819  2.4079 -3.3656 -0.2412
   35MOL0     H 4706   6.689   1.266   5.916 -0.1932 -0.8429  0.4785
   35MOL0     H 4707   6.541   1.498   6.129  0.4828  1.9754  0.2063
   35MOL0     H 4708   6.405   1.708   6.165  2.1281  0.0946  1.1936
   35MOL0     H 4709   4.325   1.563   5.827  0.0810 -2.4204  1.2980
   35MOL0     H 4710   4.114   1.683   5.784  1.6831  1.9400 -1.3961
   35MOL0     H 4711   3.779   1.918   5.809 -0.1846  0.6840 -0.3514
   35MOL0     H 4712   3.603   2.052   5.772  1.2780  0.5833 -0.5565
   35MOL0     H 4713   3.295   2.136   6.123 -3.7986  0.3063  0.0996
   35MOL0     H 4714   3.240   2.000   6.017  0.4182 -0.3331  2.0654
   35MOL0     H 4715   3.166   2.141   5.846  2.6750 -2.7333  0.6968
   35MOL0     H 4716   3.211   2.290   5.941  0.5318 -0.4239 -0.3396
   35MOL0     H 4717   3.058   2.242   6.112  1.7732 -0.5999  0.8716
   35MOL0     H 4718   3.037   2.070   6.056  0.6009  0.0526 -0.5881
   35MOL0     H 4719   2.897   2.309   5.943 -1.9131  0.2137  1.0045
   35MOL0     H 4720   2.891   2.146   5.867 -1.6751  2.1041 -1.0049
   35MOL0     H 4721   2.628   2.094   6.171  0.0040 -0.9562 -1.2172
   35MOL0     H 4722   3.460   1.980   6.173  0.9977  0.0113  1.5036
   35MOL0     H 4723   3.651   1.716   6.251  1.2138 -0.5589  2.2199
   35MOL0     H 4724   3.738   1.857   6.308  2.2613 -3.3534 -2.3868
   35MOL0     H 4725   3.561   1.837   6.328 -0.9014 -0.2639 -1.0577
   36MOL0     O 4726   8.539   8.994   4.150  0.2082  0.7295  0.8297
   36MOL0     C 4727   8.604   8.887   4.140  0.4676 -0.4739 -0.6479
   36MOL0     O 4728   8.539   8.768   4.130  0.6118 -0.0981 -0.3329
   36MOL0     C 4729   8.399   8.752   4.113 -0.9045 -0.0078 -0.3349
   36MOL0     C 4730   8.361   8.649   4.034 -0.7220  0.0053  0.8768
   36MOL0     C 4731   8.226   8.617   4.017  0.6150 -1.0772 -0.5166
   36MOL0     C 4732   8.124   8.681   4.090  0.1231 -0.7036 -0.5894
   36MOL0     O 4733   8.001   8.633   4.079 -0.3308 -0.3527 -0.1060
   36MOL0     C 4734   7.902   8.728   4.060  1.2943 -0.0435  1.2107
   36MOL0     C 4735   7.764   8.664   4.029  0.2249 -0.0104  0.0975
   36MOL0     C 4736   7.773   8.573   3.905  0.1502  0.1062  0.3249
   36MOL0     C 4737   7.637   8.489   3.899  0.6884 -0.2003  0.6732
   36MOL0     C 4738   7.604   8.413   3.772 -0.3525  0.0148  0.5499
   36MOL0     C 4739   7.706   8.289   3.754 -0.4697  0.4073 -0.3823
   36MOL0     C 4740   7.673   8.157   3.837  0.1136 -0.1603 -0.9816
   36MOL0     C 4741   7.783   8.049   3.844 -0.9591 -0.3335  1.0451
   36MOL0     N 4742   7.900   8.083   3.929 -0.6017 -0.1893  0.1887
   36MOL0     C 4743   7.909   8.103   4.065 -0.4167  0.1290  0.4067
   36MOL0     C 4744   8.038   8.145   4.091  0.1759  0.3440 -0.1149
   36MOL0     C 4745   8.100   8.171   4.229  0.9075 -0.2750 -0.0181
   36MOL0     C 4746   8.132   8.322   4.234  0.4263 -0.7748 -0.1165
   36MOL0     C 4747   8.282   8.343   4.281  0.5176  0.2741  0.1603
   36MOL0     C 4748   8.391   8.284   4.192  0.0486  0.0405  0.2592
   36MOL0     O 4749   8.494   8.250   4.284 -0.4371  0.9531  0.0443
   36MOL0     C 4750   8.609   8.201   4.237 -0.1613 -0.9769  0.5465
   36MOL0     C 4751   8.627   8.143   4.110  0.3222  0.4584  1.1960
   36MOL0     C 4752   8.753   8.103   4.074 -0.9172  0.4148  0.0721
   36MOL0     C 4753   8.865   8.131   4.146 -0.1129 -0.0981 -0.2787
   36MOL0     C 4754   9.000   8.103   4.092 -1.3407 -0.4752 -0.0757
   36MOL0     O 4755   9.112   8.127   4.171  0.1066  0.8759 -0.5302
   36MOL0     C 4756   9.230   8.088   4.125  0.1308  0.6203 -0.0813
   36MOL0     C 4757   9.303   7.985   4.187 -0.1025  0.4649  0.1813
   36MOL0     C 4758   9.429   7.944   4.143 -0.9864 -0.4749  0.0258
   36MOL0     C 4759   9.473   7.994   4.029 -0.7246  0.4887 -0.1103
   36MOL0     O 4760   9.590   7.958   3.978 -0.9101 -0.6969  0.2554
   36MOL0     C 4761   9.615   7.820   3.942  0.4708 -0.3718 -0.3779
   36MOL0     C 4762   9.714   7.817   3.838  0.1299 -0.4248 -0.0948
   36MOL0     C 4763   9.857   7.874   3.888  0.2787 -0.1282 -0.3388
   36MOL0     C 4764   9.962   7.856   3.775 -0.0372 -0.2123 -0.3925
   36MOL0     C 4765  10.096   7.922   3.809  0.2464  0.1299 -0.5202
   36MOL0     C 4766  10.179   7.973   3.689  0.1380 -0.8216 -0.0845
   36MOL0     C 4767  10.229   7.846   3.609  0.0255 -0.2541  0.1807
   36MOL0     C 4768  10.341   7.893   3.509 -0.2567 -0.2702  0.0500
   36MOL0    Cl 4769  10.270   7.975   3.368  0.5093  0.3729 -0.1719
   36MOL0     C 4770   9.402   8.097   3.964 -0.0423  0.4911  0.3986
   36MOL0     C 4771   9.280   8.150   4.011 -0.4031  0.7680 -0.6541
   36MOL0     O 4772   9.002   8.056   3.976 -0.0254  0.2486  0.6897
   36MOL0     C 4773   8.848   8.208   4.260 -0.2362 -0.7720 -0.7354
   36MOL0     C 4774   8.720   8.239   4.312 -0.0543  0.2422 -0.9750
   36MOL0     N 4775   8.105   8.142   3.965  0.5922 -0.1234 -0.0412
   36MOL0     N 4776   8.018   8.115   3.871  0.5132 -0.1960  0.2070
   36MOL0     C 4777   8.170   8.792   4.173 -0.3321  0.7035 -1.2956
   36MOL0     C 4778   8.306   8.825   4.182 -1.0781 -0.1375  0.0281
   36MOL0     C 4779   8.748   8.885   4.119  0.5552 -0.0775 -0.3967
   36MOL0     C 4780   8.819   8.794   4.035  0.4286 -0.3187 -0.6867
   36MOL0     C 4781   8.958   8.790   4.030 -0.0375  1.0782 -0.6180
   36MOL0     C 4782   9.031   8.877   4.107 -0.0893 -0.3061 -0.1709
   36MOL0     O 4783   9.165   8.861   4.106 -0.6400  0.5340 -0.5508
   36MOL0     C 4784   9.243   8.959   4.169 -0.3524  0.2994  0.3963
   36MOL0     C 4785   9.384   8.913   4.162 -0.1946  0.5858 -0.2425
   36MOL0     C 4786   9.475   9.014   4.236 -0.1845  0.4091  0.2581
   36MOL0     C 4787   9.622   8.985   4.218 -0.2006 -0.2712  0.0105
   36MOL0     C 4788   9.683   8.865   4.273  0.3702  0.6770  0.1888
   36MOL0     C 4789   9.742   8.775   4.329  0.3113 -0.3199 -0.0982
   36MOL0     C 4790   8.964   8.980   4.183 -0.7801  0.2808  0.3821
   36MOL0     C 4791   8.825   8.982   4.189 -0.3023  0.1926  0.2466
   36MOL0     C 4792   8.768   9.085   4.276 -0.5909 -0.1153  0.0985
   36MOL0     H 4793   8.440   8.600   3.978 -0.1096 -0.5129  2.1336
   36MOL0     H 4794   8.198   8.536   3.950 -1.4995 -0.1109 -0.8902
   36MOL0     H 4795   7.892   8.792   4.148  0.9146 -0.7081  1.6590
   36MOL0     H 4796   7.935   8.798   3.982  1.5219  2.5211  3.4604
   36MOL0     H 4797   7.685   8.736   4.009 -2.1817 -2.4524  0.1508
   36MOL0     H 4798   7.740   8.603   4.116  4.0551 -0.4101  1.0541
   36MOL0     H 4799   7.854   8.502   3.923 -0.3377 -0.2518  1.1887
   36MOL0     H 4800   7.794   8.630   3.814  1.9881 -1.0778 -0.0421
   36MOL0     H 4801   7.628   8.428   3.989  2.5267  1.1906  1.8466
   36MOL0     H 4802   7.556   8.562   3.909  0.2852 -0.7932  1.8909
   36MOL0     H 4803   7.501   8.380   3.788 -0.0200 -1.2641  0.2112
   36MOL0     H 4804   7.614   8.477   3.684  3.8853 -2.0486 -0.7709
   36MOL0     H 4805   7.697   8.250   3.653  1.1446 -1.9267  0.3047
   36MOL0     H 4806   7.807   8.330   3.760  0.2300 -0.0972 -5.1065
   36MOL0     H 4807   7.585   8.107   3.796  0.0882 -0.5681 -0.4314
   36MOL0     H 4808   7.649   8.182   3.941 -1.6920  1.9041 -1.8036
   36MOL0     H 4809   7.732   7.960   3.882 -0.9720 -0.5143  0.6046
   36MOL0     H 4810   7.813   8.030   3.741 -0.5265  1.3505  0.8305
   36MOL0     H 4811   7.822   8.080   4.125  1.1744 -3.3478  1.6968
   36MOL0     H 4812   8.033   8.137   4.309  0.8614 -1.5976 -0.5908
   36MOL0     H 4813   8.199   8.125   4.235  1.2374  0.1008 -1.9227
   36MOL0     H 4814   8.121   8.361   4.132 -0.1913 -2.1474 -0.6023
   36MOL0     H 4815   8.061   8.368   4.303  0.9179 -0.7626  0.3846
   36MOL0     H 4816   8.281   8.310   4.385  1.0655  1.8786  0.7048
   36MOL0     H 4817   8.308   8.449   4.273  0.3726  0.6664  3.3793
   36MOL0     H 4818   8.428   8.364   4.127  0.1569 -1.3565 -1.4566
   36MOL0     H 4819   8.353   8.198   4.136 -1.3791 -0.6165  2.1471
   36MOL0     H 4820   8.544   8.119   4.044  0.1831  2.2909  0.6522
   36MOL0     H 4821   8.755   8.057   3.976  4.8471  0.4978 -0.1988
   36MOL0     H 4822   9.255   7.940   4.274  0.2539 -0.9198 -0.3063
   36MOL0     H 4823   9.483   7.877   4.209 -0.4255 -0.2689 -0.2121
   36MOL0     H 4824   9.645   7.778   4.039  0.8849 -0.5242 -0.5708
   36MOL0     H 4825   9.522   7.774   3.908  2.0927 -2.5370 -2.2147
   36MOL0     H 4826   9.729   7.710   3.823 -1.8263 -1.1299  2.4023
   36MOL0     H 4827   9.684   7.870   3.747  1.9369  0.4653 -0.2331
   36MOL0     H 4828   9.841   7.980   3.906 -2.1646 -0.1432 -1.8978
   36MOL0     H 4829   9.886   7.818   3.977 -0.5773  1.8600  1.2399
   36MOL0     H 4830   9.916   7.897   3.685 -1.4882  2.0236  1.2590
   36MOL0     H 4831   9.975   7.749   3.756 -3.3147 -1.4006  2.9054
   36MOL0     H 4832  10.154   7.856   3.874  1.7409  0.8824 -1.0445
   36MOL0     H 4833  10.078   8.018   3.859 -0.0634  0.4203 -1.1724
   36MOL0     H 4834  10.113   8.037   3.630 -1.2169 -0.6515  1.5338
   36MOL0     H 4835  10.258   8.044   3.716 -1.5245  1.4702 -0.9130
   36MOL0     H 4836  10.150   7.785   3.565 -1.4821 -0.0802  2.4683
   36MOL0     H 4837  10.280   7.783   3.683  1.7290  1.7251  0.7918
   36MOL0     H 4838  10.398   7.971   3.562 -0.9657  0.3900 -0.1545
   36MOL0     H 4839  10.404   7.810   3.476  1.7673  1.3732 -0.4288
   36MOL0     H 4840   9.448   8.125   3.869 -0.9937 -1.6373 -0.7593
   36MOL0     H 4841   9.218   8.234   3.980 -0.6906  0.1923 -1.6802
   36MOL0     H 4842   8.938   8.243   4.310  1.0290  0.1945 -3.4726
   36MOL0     H 4843   8.709   8.294   4.405  1.3751 -2.2294  0.7437
   36MOL0     H 4844   8.110   8.851   4.241 -1.6173 -0.2816 -1.5555
   36MOL0     H 4845   8.328   8.904   4.253 -1.6799 -0.2541  0.3450
   36MOL0     H 4846   8.765   8.724   3.973  0.0703 -1.1578  0.5420
   36MOL0     H 4847   9.011   8.718   3.968 -1.8873 -0.2354 -0.7840
   36MOL0     H 4848   9.208   8.963   4.273 -3.8820 -0.2905 -0.6354
   36MOL0     H 4849   9.240   9.058   4.124  0.6974 -0.8024 -2.2976
   36MOL0     H 4850   9.419   8.890   4.061  3.4460 -3.3041  1.5939
   36MOL0     H 4851   9.376   8.814   4.207 -2.1916 -0.9634 -3.5935
   36MOL0     H 4852   9.460   9.010   4.344  1.8703  0.8865  0.6198
   36MOL0     H 4853   9.443   9.115   4.207 -0.2208  0.6762  1.1735
   36MOL0     H 4854   9.647   8.983   4.112  2.1117  4.4364  0.1647
   36MOL0     H 4855   9.677   9.077   4.244  0.6721 -0.7365 -0.1462
   36MOL0     H 4856   9.790   8.689   4.370  0.2807 -0.6155 -0.6623
   36MOL0     H 4857   9.019   9.056   4.237  1.9562 -0.1732 -1.5193
   36MOL0     H 4858   8.721   9.166   4.219  0.2305  0.9805  0.9514
   36MOL0     H 4859   8.705   9.034   4.349 -2.3968  0.9746 -0.6321
   36MOL0     H 4860   8.840   9.124   4.347 -0.1653 -3.8144  1.9583
   37MOL0     O 4861   4.071   6.046   1.064  0.0056  0.0965 -0.2920
   37MOL0     C 4862   4.025   5.940   1.020 -0.3413 -0.3314 -0.4794
   37MOL0     O 4863   4.084   5.862   0.926 -0.4983  0.6250  0.0268
   37MOL0     C 4864   4.191   5.898   0.844 -0.0181  0.0795 -0.7456
   37MOL0     C 4865   4.303   5.925   0.911  0.7776 -0.1415  0.2099
   37MOL0     C 4866   4.419   5.954   0.839  0.4769  0.3292  0.0085
   37MOL0     C 4867   4.424   5.962   0.699  0.0629 -0.6343  0.1876
   37MOL0     O 4868   4.524   5.999   0.611  0.6733  0.2438 -0.2612
   37MOL0     C 4869   4.660   5.996   0.662 -0.3546 -0.7767  0.1605
   37MOL0     C 4870   4.760   5.948   0.551 -0.4629  0.9588 -0.0354
   37MOL0     C 4871   4.911   5.964   0.583 -0.5146  0.6699 -0.1025
   37MOL0     C 4872   4.948   5.894   0.714 -0.3263 -0.5463  0.3764
   37MOL0     C 4873   5.095   5.905   0.750 -0.4790 -0.1314 -0.0358
   37MOL0     C 4874   5.142   5.786   0.835  0.1400 -0.6135 -0.7526
   37MOL0     C 4875   5.281   5.823   0.883 -0.2572  0.3837  0.1336
   37MOL0     C 4876   5.373   5.730   0.964  0.1893 -0.5422  0.8410
   37MOL0     N 4877   5.503   5.783   0.984 -0.4822  0.0787  0.0256
   37MOL0     C 4878   5.600   5.816   0.894  0.2616 -0.9173  0.0838
   37MOL0     C 4879   5.717   5.858   0.968  0.2359 -0.0393  0.9305
   37MOL0     C 4880   5.839   5.938   0.921  0.4194  0.6614  0.7311
   37MOL0     C 4881   5.819   5.982   0.776 -0.1533  0.3723  0.6423
   37MOL0     C 4882   5.924   6.085   0.729 -0.0082  0.2675  0.2700
   37MOL0     C 4883   5.965   6.194   0.818 -0.1364 -0.2604  0.6945
   37MOL0     O 4884   6.022   6.309   0.764  0.1589  0.4426 -0.1030
   37MOL0     C 4885   6.147   6.305   0.708  0.0744  0.7902  0.1304
   37MOL0     C 4886   6.192   6.412   0.634  0.3729 -0.2909 -0.4745
   37MOL0     C 4887   6.313   6.415   0.569  0.6667 -0.0334  0.2477
   37MOL0     C 4888   6.404   6.315   0.570 -0.2994  0.8256 -0.4643
   37MOL0     C 4889   6.528   6.314   0.490 -0.3078 -0.2116  0.4435
   37MOL0     O 4890   6.555   6.423   0.409 -0.5210 -0.8946  0.4747
   37MOL0     C 4891   6.660   6.425   0.325  0.0282 -0.3629  0.0424
   37MOL0     C 4892   6.636   6.433   0.186  0.4375 -0.2582 -0.7717
   37MOL0     C 4893   6.747   6.432   0.101  0.5768 -0.0750  1.0883
   37MOL0     C 4894   6.872   6.430   0.154 -0.4405  0.5456 -0.6423
   37MOL0     O 4895   6.990   6.442   0.087 -0.5622  0.0712 -0.3336
   37MOL0     C 4896   7.008   6.379  -0.046  0.8223  0.4129 -0.7531
   37MOL0     C 4897   7.145   6.426  -0.107  0.6693 -0.1143  0.3308
   37MOL0     C 4898   7.259   6.360  -0.025  0.4251 -0.0735 -0.0840
   37MOL0     C 4899   7.400   6.381  -0.101  0.6969 -0.1536 -0.2427
   37MOL0     C 4900   7.512   6.312  -0.018  0.0050 -0.3922  0.7865
   37MOL0     C 4901   7.650   6.315  -0.083  0.0812 -0.1586 -0.1492
   37MOL0     C 4902   7.749   6.217  -0.015  0.6634 -0.6729 -0.4719
   37MOL0     C 4903   7.801   6.257   0.121 -0.1783  0.3969 -0.4559
   37MOL0    Cl 4904   7.910   6.125   0.185  0.1799 -0.0637  0.4605
   37MOL0     C 4905   6.894   6.422   0.298  0.5296 -0.5597 -0.6297
   37MOL0     C 4906   6.780   6.421   0.383 -0.5589  0.8565  0.3383
   37MOL0     O 4907   6.592   6.208   0.487 -0.6445  0.4246 -0.6521
   37MOL0     C 4908   6.370   6.206   0.654 -0.0281  1.4665  0.4037
   37MOL0     C 4909   6.246   6.198   0.728 -0.8016  0.4206  0.0581
   37MOL0     N 4910   5.683   5.836   1.095 -0.0578 -0.1499  0.1453
   37MOL0     N 4911   5.556   5.793   1.108 -0.1288 -0.5960 -0.5149
   37MOL0     C 4912   4.305   5.921   0.637 -1.0337  0.7156  0.2073
   37MOL0     C 4913   4.186   5.895   0.705  0.6959  0.5118  0.4187
   37MOL0     C 4914   3.905   5.870   1.084  0.3415  0.6053  0.6415
   37MOL0     C 4915   3.861   5.751   1.028 -0.1001 -0.3504 -0.4494
   37MOL0     C 4916   3.756   5.678   1.091 -0.9150  1.8824  0.3014
   37MOL0     C 4917   3.690   5.720   1.205 -0.3603 -0.2736  0.1446
   37MOL0     O 4918   3.589   5.643   1.254 -0.6400 -0.0627  0.0845
   37MOL0     C 4919   3.466   5.647   1.180 -0.0348  0.7151 -0.0524
   37MOL0     C 4920   3.407   5.787   1.141 -0.0852  0.3753 -0.4571
   37MOL0     C 4921   3.373   5.883   1.268 -0.9503 -0.5828  0.4201
   37MOL0     C 4922   3.270   5.825   1.366 -0.9783 -0.0836 -0.3331
   37MOL0     C 4923   3.141   5.823   1.300  0.5355  0.0122 -0.8008
   37MOL0     C 4924   3.038   5.821   1.241  0.4273 -0.8148  0.1789
   37MOL0     C 4925   3.735   5.837   1.262  0.8015  0.0619 -0.9856
   37MOL0     C 4926   3.838   5.917   1.203  0.3106  0.6993  0.0270
   37MOL0     C 4927   3.888   6.034   1.285  0.1810 -0.2057 -0.7868
   37MOL0     H 4928   4.304   5.919   1.020 -1.7196 -1.4080  0.2220
   37MOL0     H 4929   4.503   5.965   0.907  1.1608 -1.1065 -0.5869
   37MOL0     H 4930   4.704   6.094   0.685  2.0980 -1.2850 -2.0012
   37MOL0     H 4931   4.669   5.944   0.758  0.7695 -1.1352 -0.1237
   37MOL0     H 4932   4.740   5.999   0.456  1.2371  1.5386 -0.1146
   37MOL0     H 4933   4.748   5.840   0.537  0.5693  0.9919 -1.4622
   37MOL0     H 4934   4.930   6.072   0.579 -1.3641  0.8838  0.9190
   37MOL0     H 4935   4.965   5.921   0.499  0.3514  0.0574  0.7422
   37MOL0     H 4936   4.894   5.942   0.797  1.1296  1.3719  0.2834
   37MOL0     H 4937   4.916   5.790   0.706  0.2030 -0.5724 -1.9164
   37MOL0     H 4938   5.147   5.904   0.654 -3.1805  0.1046 -1.5979
   37MOL0     H 4939   5.116   6.003   0.793 -1.9235 -0.1104  0.6975
   37MOL0     H 4940   5.081   5.769   0.925  1.7804 -0.8165  0.3748
   37MOL0     H 4941   5.137   5.698   0.770 -0.9644 -1.5893  0.5716
   37MOL0     H 4942   5.267   5.905   0.954  1.3694 -0.8602  2.0014
   37MOL0     H 4943   5.330   5.857   0.791 -1.4043 -1.3849 -1.1962
   37MOL0     H 4944   5.330   5.716   1.063 -0.8056  1.2179  0.7061
   37MOL0     H 4945   5.384   5.635   0.910  2.3139  0.0420  0.1540
   37MOL0     H 4946   5.608   5.812   0.785  1.6738  1.1388  0.0655
   37MOL0     H 4947   5.860   6.026   0.983  2.3688  1.1456 -0.5374
   37MOL0     H 4948   5.929   5.876   0.917 -0.4810 -0.6005 -2.4920
   37MOL0     H 4949   5.830   5.896   0.709  0.8652  1.0944 -0.1546
   37MOL0     H 4950   5.722   6.030   0.758  0.5521  0.8575 -2.4570
   37MOL0     H 4951   5.892   6.130   0.635  1.5294  0.5404 -0.1484
   37MOL0     H 4952   6.004   6.030   0.679 -1.7006 -0.1331 -2.1674
   37MOL0     H 4953   6.026   6.161   0.902  0.2407  0.9095  0.9092
   37MOL0     H 4954   5.875   6.244   0.856 -0.5313 -1.1020  0.8857
   37MOL0     H 4955   6.128   6.499   0.629  1.7828  0.7828 -0.3693
   37MOL0     H 4956   6.325   6.497   0.498 -2.5136 -0.7548 -1.3382
   37MOL0     H 4957   6.530   6.448   0.165  0.8290  4.2395 -0.4667
   37MOL0     H 4958   6.726   6.451  -0.004 -3.0404  2.0620  2.0490
   37MOL0     H 4959   6.993   6.271  -0.040  0.5912  0.3681 -1.8847
   37MOL0     H 4960   6.932   6.403  -0.121 -0.7425 -2.0060 -0.0446
   37MOL0     H 4961   7.166   6.407  -0.212  0.7521 -1.7050  0.6092
   37MOL0     H 4962   7.151   6.535  -0.099 -0.2021 -0.1138  1.1002
   37MOL0     H 4963   7.264   6.395   0.078  0.9704 -1.9457  0.5616
   37MOL0     H 4964   7.229   6.257  -0.009 -1.1611  0.4868  0.7193
   37MOL0     H 4965   7.420   6.486  -0.127 -0.3256  0.4156  1.1458
   37MOL0     H 4966   7.401   6.343  -0.204 -0.8523  2.3056 -1.2574
   37MOL0     H 4967   7.477   6.211   0.005 -2.5876 -0.2837 -2.0424
   37MOL0     H 4968   7.520   6.376   0.071 -1.1947  2.5997 -1.0785
   37MOL0     H 4969   7.645   6.269  -0.182  1.7831  0.0036 -0.3517
   37MOL0     H 4970   7.688   6.417  -0.090 -0.8287  0.0962 -1.8257
   37MOL0     H 4971   7.834   6.192  -0.080  0.0152 -2.6850 -0.6184
   37MOL0     H 4972   7.707   6.118   0.003  1.7330 -1.1603 -0.5257
   37MOL0     H 4973   7.861   6.347   0.103 -0.9301  0.8439 -0.7915
   37MOL0     H 4974   7.726   6.277   0.199  0.9312  1.1414  0.4394
   37MOL0     H 4975   6.994   6.434   0.338  0.1398 -2.9333  1.3120
   37MOL0     H 4976   6.795   6.415   0.490 -1.0372 -1.4794  0.3318
   37MOL0     H 4977   6.437   6.121   0.662 -1.6667 -0.1117 -1.4587
   37MOL0     H 4978   6.236   6.116   0.799 -0.7359  3.2781  3.7051
   37MOL0     H 4979   4.298   5.913   0.529 -2.2230  1.6712  0.1963
   37MOL0     H 4980   4.095   5.864   0.654  1.3554 -0.4011 -0.2208
   37MOL0     H 4981   3.901   5.703   0.940  2.2453  2.2242 -0.9461
   37MOL0     H 4982   3.724   5.602   1.020  1.0035  0.9983  0.3226
   37MOL0     H 4983   3.397   5.584   1.238 -0.6270 -0.1843 -1.6726
   37MOL0     H 4984   3.482   5.600   1.083 -0.8079  0.2506  0.0344
   37MOL0     H 4985   3.320   5.768   1.078 -0.3117  1.1344 -0.3849
   37MOL0     H 4986   3.480   5.839   1.078 -0.0969  0.7498 -0.1676
   37MOL0     H 4987   3.335   5.974   1.221 -0.0869 -0.9086 -0.9733
   37MOL0     H 4988   3.458   5.908   1.332 -1.8541  0.0862  1.3855
   37MOL0     H 4989   3.300   5.727   1.404  2.0949  0.5448 -0.9195
   37MOL0     H 4990   3.272   5.889   1.456  1.6345 -1.2597  0.5233
   37MOL0     H 4991   2.943   5.805   1.195  0.6184 -2.5816  0.3071
   37MOL0     H 4992   3.692   5.862   1.359  2.2055  0.4520 -0.4388
   37MOL0     H 4993   3.872   6.132   1.239 -0.3578  0.4552  0.7698
   37MOL0     H 4994   3.837   6.043   1.381 -0.5067 -2.5121 -0.8767
   37MOL0     H 4995   3.992   6.017   1.315 -0.7196 -4.3349  0.6458
   38MOL0     O 4996   6.331   4.976   2.949  0.4464  0.4672  0.2530
   38MOL0     C 4997   6.319   5.045   2.852  0.6715  0.2545 -0.0459
   38MOL0     O 4998   6.419   5.088   2.780 -0.0733 -0.1479 -0.1959
   38MOL0     C 4999   6.545   5.043   2.819  0.5282 -0.7727 -0.2688
   38MOL0     C 5000   6.578   4.907   2.809 -0.2075  0.3614  0.3471
   38MOL0     C 5001   6.710   4.871   2.841  0.0275  0.4114  0.3481
   38MOL0     C 5002   6.803   4.969   2.873 -0.5035 -0.4294 -0.0918
   38MOL0     O 5003   6.937   4.959   2.870 -0.3732  0.2076  0.0796
   38MOL0     C 5004   6.985   4.900   2.750  0.1820 -0.4110  0.7760
   38MOL0     C 5005   7.137   4.909   2.744 -0.5207  0.1747 -0.7620
   38MOL0     C 5006   7.179   4.892   2.589 -0.2493 -0.1871  0.2631
   38MOL0     C 5007   7.328   4.899   2.554  0.0753 -0.1571 -0.1753
   38MOL0     C 5008   7.348   4.900   2.405  0.8534 -0.0045  0.0400
   38MOL0     C 5009   7.488   4.915   2.372  0.1315  0.2030  1.4689
   38MOL0     C 5010   7.512   4.894   2.219 -0.8904  0.1450  0.4616
   38MOL0     C 5011   7.663   4.891   2.178  0.7553 -0.6040 -0.1518
   38MOL0     N 5012   7.733   5.007   2.221  0.2295 -0.4813 -0.4823
   38MOL0     C 5013   7.815   5.008   2.334  0.0293  0.0875  0.2976
   38MOL0     C 5014   7.853   5.138   2.333 -0.2603 -0.3006 -0.2102
   38MOL0     C 5015   7.951   5.193   2.430 -0.4365  0.0791 -0.4096
   38MOL0     C 5016   8.081   5.221   2.361 -0.7327  0.0232 -0.3475
   38MOL0     C 5017   8.166   5.331   2.435 -0.5348  0.6179 -0.8152
   38MOL0     C 5018   8.307   5.334   2.383  0.2229  0.0783 -0.0887
   38MOL0     O 5019   8.405   5.385   2.476 -0.4327  0.6644  0.2398
   38MOL0     C 5020   8.536   5.394   2.450 -0.2851 -0.8201 -0.5022
   38MOL0     C 5021   8.620   5.415   2.560  0.0090  0.0103  0.4048
   38MOL0     C 5022   8.763   5.434   2.538 -0.2511  0.3723  0.2394
   38MOL0     C 5023   8.819   5.428   2.413  0.5561 -0.2418  0.8146
   38MOL0     C 5024   8.969   5.434   2.401  0.5086  0.0928  0.1401
   38MOL0     O 5025   9.010   5.425   2.273  0.5363  0.0865  0.2589
   38MOL0     C 5026   9.145   5.438   2.258 -0.0447 -0.4899 -0.2335
   38MOL0     C 5027   9.221   5.327   2.216  0.9706  0.0203  0.0544
   38MOL0     C 5028   9.358   5.354   2.209 -0.4860  0.6131  0.5306
   38MOL0     C 5029   9.419   5.478   2.241 -0.1829 -0.6107 -0.0225
   38MOL0     O 5030   9.555   5.492   2.239 -0.8747  0.7419 -0.0495
   38MOL0     C 5031   9.604   5.621   2.187 -0.7095  0.2676  0.7327
   38MOL0     C 5032   9.724   5.601   2.096 -0.0396  1.1380 -0.2139
   38MOL0     C 5033   9.703   5.504   1.975  0.7054 -0.0335 -0.1040
   38MOL0     C 5034   9.827   5.500   1.891 -0.7514 -0.0744  0.3056
   38MOL0     C 5035   9.816   5.392   1.791 -0.1894 -0.6601  0.9145
   38MOL0     C 5036   9.951   5.388   1.718 -0.2158 -0.3635 -0.0842
   38MOL0     C 5037   9.992   5.509   1.631  0.1335 -0.0451 -0.8859
   38MOL0     C 5038  10.077   5.466   1.520  0.0776 -0.2058  0.6307
   38MOL0    Cl 5039  10.214   5.374   1.569  0.0543 -0.0557  0.5499
   38MOL0     C 5040   9.343   5.583   2.286 -0.3133 -0.1939  0.0120
   38MOL0     C 5041   9.203   5.562   2.286 -0.5236 -0.1087 -0.3497
   38MOL0     O 5042   9.041   5.454   2.499  0.1151  0.2889 -0.0301
   38MOL0     C 5043   8.733   5.400   2.307  0.5321  0.4091  0.3973
   38MOL0     C 5044   8.595   5.382   2.325 -0.1559 -0.0267  0.6720
   38MOL0     N 5045   7.786   5.207   2.234 -0.4306  0.8260 -0.9216
   38MOL0     N 5046   7.718   5.125   2.165 -0.6151 -0.5458 -0.2123
   38MOL0     C 5047   6.758   5.102   2.905  0.6002 -0.1873  0.2502
   38MOL0     C 5048   6.624   5.134   2.886 -0.8931  0.2332  0.8600
   38MOL0     C 5049   6.184   5.071   2.799  0.0353 -0.4935  0.5393
   38MOL0     C 5050   6.161   5.065   2.656  0.9692 -0.3318 -0.0621
   38MOL0     C 5051   6.038   5.089   2.593  0.2742 -0.6194 -0.1864
   38MOL0     C 5052   5.925   5.111   2.673 -0.3035 -0.9397  0.1393
   38MOL0     O 5053   5.802   5.141   2.624 -0.4933  0.4939  0.4666
   38MOL0     C 5054   5.768   5.095   2.490 -0.5489 -0.7768 -0.3709
   38MOL0     C 5055   5.627   5.126   2.450  0.4725  0.0116 -0.2040
   38MOL0     C 5056   5.526   5.057   2.552  0.1082  0.3634  0.2848
   38MOL0     C 5057   5.384   5.078   2.504 -0.1963  0.8402  0.0571
   38MOL0     C 5058   5.293   5.026   2.598  0.4021 -0.5449  0.5773
   38MOL0     C 5059   5.207   4.980   2.674 -0.9553  0.2726 -0.3086
   38MOL0     C 5060   5.936   5.120   2.810 -0.4259 -0.5219 -1.4944
   38MOL0     C 5061   6.066   5.099   2.874 -0.0181 -0.8303  0.8850
   38MOL0     C 5062   6.073   5.120   3.018 -0.2520 -0.4142 -0.2964
   38MOL0     H 5063   6.520   4.826   2.768  1.1230 -0.3300 -0.2369
   38MOL0     H 5064   6.734   4.768   2.820  3.4832 -0.1519  5.4324
   38MOL0     H 5065   6.946   4.800   2.730  0.4227 -0.5834  1.1720
   38MOL0     H 5066   6.948   4.974   2.679 -0.5272 -0.0842  1.4761
   38MOL0     H 5067   7.182   4.825   2.798 -6.5437 -2.0674  1.6972
   38MOL0     H 5068   7.166   5.003   2.790 -0.5861 -1.1704  2.2227
   38MOL0     H 5069   7.120   4.965   2.532  0.4876  1.6235  1.6832
   38MOL0     H 5070   7.151   4.794   2.551  0.8568 -1.2573  2.0788
   38MOL0     H 5071   7.355   4.994   2.600 -4.1684  0.5044  1.3759
   38MOL0     H 5072   7.386   4.823   2.607 -0.7057  2.8774  5.8066
   38MOL0     H 5073   7.311   4.802   2.374 -0.3861  0.0284  1.2886
   38MOL0     H 5074   7.282   4.979   2.367 -0.1868 -0.7124  0.3465
   38MOL0     H 5075   7.520   5.014   2.407  1.5428  0.9094 -1.4568
   38MOL0     H 5076   7.548   4.844   2.430 -1.8643 -2.3140  0.6378
   38MOL0     H 5077   7.478   4.986   2.169  0.9127  0.5042 -0.1922
   38MOL0     H 5078   7.455   4.805   2.193 -3.1485  1.5985  0.1200
   38MOL0     H 5079   7.699   4.799   2.224 -0.7658 -1.4032 -0.4786
   38MOL0     H 5080   7.679   4.869   2.072  0.6499  1.6580 -0.6913
   38MOL0     H 5081   7.863   4.932   2.395  2.7323  1.5198  0.1275
   38MOL0     H 5082   7.919   5.291   2.469 -1.7312 -1.1418  1.7807
   38MOL0     H 5083   7.974   5.134   2.518  0.4728 -0.2677 -0.8684
   38MOL0     H 5084   8.136   5.128   2.349  0.9752  0.8370  0.8046
   38MOL0     H 5085   8.063   5.258   2.259  1.6097  2.5083  0.0304
   38MOL0     H 5086   8.176   5.295   2.538  0.7389 -0.9245 -1.4404
   38MOL0     H 5087   8.118   5.429   2.426 -0.1597  0.9688  0.6819
   38MOL0     H 5088   8.299   5.393   2.291 -0.5697 -1.3702 -0.9799
   38MOL0     H 5089   8.333   5.231   2.358 -1.1302 -0.2907 -0.0294
   38MOL0     H 5090   8.581   5.429   2.660  1.6630 -0.6581  1.1963
   38MOL0     H 5091   8.817   5.453   2.630 -2.1341 -1.3499  1.7919
   38MOL0     H 5092   9.176   5.232   2.190 -0.5770  0.0421  2.3076
   38MOL0     H 5093   9.431   5.278   2.182 -1.4538 -0.7709  1.6401
   38MOL0     H 5094   9.528   5.674   2.128  1.4833  4.5199  1.3461
   38MOL0     H 5095   9.633   5.684   2.272 -0.0247  1.6278 -0.4610
   38MOL0     H 5096   9.752   5.700   2.059  3.8112 -0.6564 -2.6152
   38MOL0     H 5097   9.797   5.557   2.165 -2.9010 -2.6423  0.7434
   38MOL0     H 5098   9.665   5.410   2.016  1.2373  0.3218  1.2536
   38MOL0     H 5099   9.629   5.560   1.916 -0.7467 -0.3080  1.3717
   38MOL0     H 5100   9.913   5.477   1.955 -1.8405  0.6787  2.1256
   38MOL0     H 5101   9.841   5.599   1.847 -1.5719  0.3061  0.8697
   38MOL0     H 5102   9.744   5.413   1.710 -1.1922  0.7933  2.1215
   38MOL0     H 5103   9.786   5.298   1.837 -2.9598 -0.0962  0.4407
   38MOL0     H 5104  10.031   5.368   1.789 -1.6483 -1.6900  1.2473
   38MOL0     H 5105   9.943   5.308   1.643  1.7153  1.0964 -1.9719
   38MOL0     H 5106  10.038   5.586   1.694 -1.3161  0.7255 -0.7324
   38MOL0     H 5107   9.900   5.548   1.588 -0.3207 -0.5938 -0.4230
   38MOL0     H 5108  10.018   5.409   1.447 -2.3119  0.2355  2.0886
   38MOL0     H 5109  10.112   5.563   1.485  0.5300  0.9899  4.0016
   38MOL0     H 5110   9.384   5.680   2.312  0.1954 -0.5047  0.3975
   38MOL0     H 5111   9.144   5.652   2.298 -1.4715 -0.6767 -0.6514
   38MOL0     H 5112   8.766   5.393   2.204 -2.4107 -1.7243 -0.5556
   38MOL0     H 5113   8.528   5.363   2.242  0.1381  0.2948  0.3627
   38MOL0     H 5114   6.829   5.172   2.948  0.6485 -0.5431  0.7570
   38MOL0     H 5115   6.592   5.237   2.895  0.5621  0.9318 -1.3025
   38MOL0     H 5116   6.237   5.037   2.584 -0.5721 -1.2993 -1.3982
   38MOL0     H 5117   6.038   5.072   2.486  0.7468 -0.8245 -0.1569
   38MOL0     H 5118   5.772   4.987   2.470 -1.5832 -0.9553  0.3317
   38MOL0     H 5119   5.830   5.156   2.423 -0.9277  2.0701  1.6958
   38MOL0     H 5120   5.615   5.086   2.349  1.9446 -0.9931 -0.0006
   38MOL0     H 5121   5.610   5.235   2.449 -0.9653 -0.1786 -1.6700
   38MOL0     H 5122   5.541   5.093   2.654 -0.2785 -0.9961  0.8381
   38MOL0     H 5123   5.553   4.952   2.559 -0.8614  0.1442  0.8878
   38MOL0     H 5124   5.357   5.183   2.488  1.4786  1.5581  1.6711
   38MOL0     H 5125   5.370   5.021   2.411  0.5773  0.1627  0.3465
   38MOL0     H 5126   5.134   4.961   2.749 -1.5487  0.4423 -0.8343
   38MOL0     H 5127   5.854   5.155   2.873  1.0434  2.0565 -0.8591
   38MOL0     H 5128   6.097   5.029   3.074 -3.7923 -2.0521 -1.1637
   38MOL0     H 5129   6.151   5.195   3.031  1.6752 -1.9860 -2.0224
   38MOL0     H 5130   5.978   5.158   3.057  1.1291  1.7412  1.1646
   39MOL0     O 5131   4.274   0.664   2.668  0.5944  0.0847 -0.2700
   39MOL0     C 5132   4.251   0.684   2.787 -0.4371 -0.3007  0.0183
   39MOL0     O 5133   4.158   0.778   2.834 -0.1528  0.3573 -0.0829
   39MOL0     C 5134   4.084   0.851   2.749 -0.2310 -0.0874 -0.6104
   39MOL0     C 5135   4.064   0.985   2.786 -0.6289  0.3934 -0.0656
   39MOL0     C 5136   3.979   1.060   2.709 -0.2024  1.5485  0.4869
   39MOL0     C 5137   3.901   1.007   2.600 -0.5145 -0.5292 -0.3732
   39MOL0     O 5138   3.805   1.082   2.535 -0.4862  0.2803 -0.8659
   39MOL0     C 5139   3.724   1.176   2.611 -0.0745  0.8842 -0.3833
   39MOL0     C 5140   3.586   1.187   2.541 -0.4641 -0.1786 -0.2749
   39MOL0     C 5141   3.578   1.296   2.425  0.0389 -0.6635  0.4317
   39MOL0     C 5142   3.470   1.249   2.328 -0.4673 -0.5854  0.9934
   39MOL0     C 5143   3.423   1.341   2.223 -0.3372 -0.8681  0.3261
   39MOL0     C 5144   3.360   1.471   2.278  0.3645 -0.5444  0.0262
   39MOL0     C 5145   3.339   1.577   2.172 -0.1594 -0.3269 -0.3773
   39MOL0     C 5146   3.463   1.619   2.090 -0.9886 -0.1901 -0.2565
   39MOL0     N 5147   3.583   1.666   2.162 -0.2896 -0.4485  0.2147
   39MOL0     C 5148   3.703   1.594   2.182 -0.1400  0.2839 -0.2840
   39MOL0     C 5149   3.773   1.667   2.268 -0.0396 -0.2166 -0.4255
   39MOL0     C 5150   3.898   1.625   2.338  0.2646  0.0198 -0.5103
   39MOL0     C 5151   4.005   1.734   2.314 -0.1645  0.2908  0.1272
   39MOL0     C 5152   4.120   1.730   2.417 -0.1928 -0.5111 -0.4672
   39MOL0     C 5153   4.239   1.822   2.381  0.9007 -0.1934  0.0859
   39MOL0     O 5154   4.346   1.819   2.475  0.4354  0.5856 -0.5203
   39MOL0     C 5155   4.466   1.875   2.455 -1.1409 -0.1375  0.0906
   39MOL0     C 5156   4.503   1.940   2.339  1.2352  0.4379 -0.6309
   39MOL0     C 5157   4.635   1.990   2.326  0.6650 -0.4098 -0.8928
   39MOL0     C 5158   4.728   1.987   2.433  0.3743  0.2463  0.7696
   39MOL0     C 5159   4.866   2.038   2.421  0.1511 -0.4414 -0.1279
   39MOL0     O 5160   4.908   2.071   2.292 -0.3947 -0.5485 -0.2039
   39MOL0     C 5161   5.041   2.115   2.271  0.6983  0.3290  0.7987
   39MOL0     C 5162   5.112   2.060   2.156  0.6108 -0.7715 -0.2070
   39MOL0     C 5163   5.245   2.090   2.129 -0.4520  0.4401 -0.7785
   39MOL0     C 5164   5.305   2.190   2.207 -0.4985  0.0565  0.5016
   39MOL0     O 5165   5.427   2.240   2.163  0.0110  0.6291 -0.2419
   39MOL0     C 5166   5.439   2.378   2.177 -0.1392 -0.1315  0.0581
   39MOL0     C 5167   5.565   2.414   2.102  0.4605  0.0724  0.5577
   39MOL0     C 5168   5.603   2.552   2.134 -0.4590 -0.4200  0.4809
   39MOL0     C 5169   5.739   2.585   2.067 -0.5768 -0.2723 -0.6114
   39MOL0     C 5170   5.758   2.740   2.080  0.0924 -0.0050  0.0731
   39MOL0     C 5171   5.897   2.802   2.027 -0.1038 -0.1357 -0.3018
   39MOL0     C 5172   6.019   2.722   2.083  0.2148  0.6389  0.3274
   39MOL0     C 5173   6.146   2.801   2.070  0.1846 -0.0289  0.0481
   39MOL0    Cl 5174   6.134   2.926   2.207 -0.2752  0.1403 -0.0550
   39MOL0     C 5175   5.241   2.237   2.321 -0.0010  0.0617  0.4094
   39MOL0     C 5176   5.106   2.216   2.347 -0.7438  0.5301  0.0781
   39MOL0     O 5177   4.933   2.050   2.527 -0.0007  1.3913  1.0905
   39MOL0     C 5178   4.676   1.937   2.551 -0.1446 -0.2581 -0.1467
   39MOL0     C 5179   4.551   1.885   2.564  0.0529 -0.5420 -0.5434
   39MOL0     N 5180   3.693   1.778   2.306  0.4664  0.4552  0.5246
   39MOL0     N 5181   3.587   1.783   2.235 -0.3427  0.8341  0.1219
   39MOL0     C 5182   3.930   0.876   2.564 -1.0318 -0.6558 -0.3650
   39MOL0     C 5183   4.018   0.797   2.639 -0.6240 -0.9440  0.1273
   39MOL0     C 5184   4.320   0.589   2.881  0.6899  0.2630 -0.3440
   39MOL0     C 5185   4.387   0.479   2.833  0.1778 -0.3082 -0.7798
   39MOL0     C 5186   4.448   0.383   2.918 -0.7928 -0.1384 -0.7413
   39MOL0     C 5187   4.447   0.398   3.052  0.7511 -0.3876  0.9487
   39MOL0     O 5188   4.499   0.297   3.122 -0.3559  0.3356  0.9394
   39MOL0     C 5189   4.476   0.293   3.265  0.3844  0.6687  0.0997
   39MOL0     C 5190   4.523   0.146   3.301 -0.0484  0.0641  0.8034
   39MOL0     C 5191   4.545   0.106   3.449 -0.1354  0.1594  0.1434
   39MOL0     C 5192   4.552  -0.051   3.466  1.1104  0.2262 -0.6672
   39MOL0     C 5193   4.666  -0.130   3.417  0.4210  0.1330 -0.1099
   39MOL0     C 5194   4.758  -0.191   3.371 -0.5652  0.6443  0.4484
   39MOL0     C 5195   4.383   0.506   3.102  0.3350 -0.0321 -0.1558
   39MOL0     C 5196   4.312   0.604   3.020 -0.3188  0.6008  0.0745
   39MOL0     C 5197   4.257   0.725   3.087  1.0524  0.1071  0.0091
   39MOL0     H 5198   4.120   1.029   2.867  2.3155 -1.5711 -0.8478
   39MOL0     H 5199   3.968   1.166   2.730  0.1598  1.8285 -0.6841
   39MOL0     H 5200   3.708   1.125   2.706  3.0818  1.2939  0.4794
   39MOL0     H 5201   3.773   1.272   2.631  1.4190 -0.2503  1.8580
   39MOL0     H 5202   3.517   1.223   2.619 -1.2970 -0.6166 -0.7888
   39MOL0     H 5203   3.543   1.090   2.516 -1.6810 -0.2694  1.8758
   39MOL0     H 5204   3.677   1.317   2.383 -0.3596 -1.3379 -0.8845
   39MOL0     H 5205   3.552   1.391   2.474  1.0503 -0.0177 -0.2498
   39MOL0     H 5206   3.497   1.154   2.282  3.9402  0.1778  1.6087
   39MOL0     H 5207   3.374   1.241   2.380 -1.7517  2.3408 -0.6379
   39MOL0     H 5208   3.509   1.361   2.157  1.1009 -0.3850  2.2523
   39MOL0     H 5209   3.339   1.300   2.166 -0.7381  0.8840 -0.4120
   39MOL0     H 5210   3.264   1.439   2.318  1.4074 -1.4094  2.0016
   39MOL0     H 5211   3.416   1.515   2.362 -2.5395 -1.5514  2.6947
   39MOL0     H 5212   3.307   1.669   2.220 -0.8447  0.7617 -2.7708
   39MOL0     H 5213   3.261   1.546   2.101 -0.3428  1.1463 -0.8492
   39MOL0     H 5214   3.494   1.538   2.024  0.2170 -0.4082  0.5541
   39MOL0     H 5215   3.430   1.695   2.019 -0.4064  1.1124  0.8154
   39MOL0     H 5216   3.738   1.501   2.137  3.2492  0.8833  0.8281
   39MOL0     H 5217   3.877   1.595   2.441  0.4263 -2.2502 -1.1042
   39MOL0     H 5218   3.934   1.536   2.286 -0.4704  1.0366 -2.8844
   39MOL0     H 5219   4.048   1.730   2.213  1.7803  1.3862  0.8474
   39MOL0     H 5220   3.957   1.831   2.329 -2.6442 -0.8986  0.3016
   39MOL0     H 5221   4.162   1.631   2.432  0.5504 -0.1081  0.2059
   39MOL0     H 5222   4.076   1.759   2.512  0.4441  0.2860 -0.4021
   39MOL0     H 5223   4.193   1.921   2.376 -0.0171 -0.5959  0.3455
   39MOL0     H 5224   4.279   1.795   2.283  0.9853 -0.8235  0.2901
   39MOL0     H 5225   4.444   1.950   2.249 -0.1075  0.0028  0.1840
   39MOL0     H 5226   4.666   2.042   2.236  0.7027  0.5130 -0.3640
   39MOL0     H 5227   5.059   1.977   2.110 -1.6817 -1.7140  3.6628
   39MOL0     H 5228   5.305   2.034   2.058  2.4445  1.7906  0.4571
   39MOL0     H 5229   5.351   2.423   2.130 -0.9955 -1.7270  0.0618
   39MOL0     H 5230   5.445   2.407   2.282 -0.5508  0.6147 -0.1185
   39MOL0     H 5231   5.648   2.345   2.119  2.5926  1.6933 -2.3481
   39MOL0     H 5232   5.536   2.402   1.998 -3.0987 -0.0951  1.4482
   39MOL0     H 5233   5.534   2.618   2.080  0.9955  1.1902  0.4694
   39MOL0     H 5234   5.616   2.574   2.240 -0.9012 -0.7283  0.5999
   39MOL0     H 5235   5.740   2.558   1.961  0.5747  1.0474 -0.9655
   39MOL0     H 5236   5.819   2.526   2.113  0.2375 -0.4505 -2.1897
   39MOL0     H 5237   5.748   2.769   2.185  1.5167  1.2051 -0.0929
   39MOL0     H 5238   5.679   2.788   2.023  1.6270  1.2324 -1.1243
   39MOL0     H 5239   5.899   2.799   1.918  1.9833  0.3740 -0.3168
   39MOL0     H 5240   5.913   2.905   2.060 -1.0484 -0.3854  1.0622
   39MOL0     H 5241   6.020   2.635   2.016 -2.7069  0.1340  0.7842
   39MOL0     H 5242   6.005   2.702   2.190 -1.9540  2.2398  0.4243
   39MOL0     H 5243   6.231   2.733   2.074  0.2094 -0.3022 -2.9114
   39MOL0     H 5244   6.170   2.862   1.983 -0.6678  0.1173 -0.0928
   39MOL0     H 5245   5.297   2.298   2.391  2.5758 -2.8099  1.0802
   39MOL0     H 5246   5.070   2.258   2.440 -0.4787  1.4791 -0.2289
   39MOL0     H 5247   4.739   1.930   2.639 -1.4696 -0.3199  0.8347
   39MOL0     H 5248   4.505   1.851   2.656  1.4828 -1.6963 -0.2124
   39MOL0     H 5249   3.874   0.843   2.477 -2.6492  2.3918 -0.6153
   39MOL0     H 5250   4.036   0.698   2.598 -0.9290 -0.8535 -0.2377
   39MOL0     H 5251   4.395   0.455   2.728 -0.5796 -1.9949 -0.4940
   39MOL0     H 5252   4.494   0.290   2.885 -1.5524 -0.0344 -2.1695
   39MOL0     H 5253   4.369   0.301   3.283  0.6225  1.4691  1.2877
   39MOL0     H 5254   4.529   0.369   3.323  0.3365  1.3415 -0.7145
   39MOL0     H 5255   4.623   0.129   3.260 -0.6716 -2.6283  0.2557
   39MOL0     H 5256   4.451   0.076   3.257  2.0165 -0.3011 -2.3398
   39MOL0     H 5257   4.461   0.145   3.508  2.2062  0.0233  3.9062
   39MOL0     H 5258   4.633   0.154   3.493 -1.5722  4.2969 -1.0629
   39MOL0     H 5259   4.542  -0.079   3.571  0.2269 -1.2024 -1.0982
   39MOL0     H 5260   4.460  -0.087   3.418  0.1223 -0.8028  1.8024
   39MOL0     H 5261   4.831  -0.262   3.339  0.6858  1.9883  0.2001
   39MOL0     H 5262   4.390   0.524   3.209 -0.2269  1.9686 -0.3975
   39MOL0     H 5263   4.299   0.737   3.187  0.7373 -0.5184  0.2198
   39MOL0     H 5264   4.272   0.817   3.029 -2.6871  0.2034 -1.0592
   39MOL0     H 5265   4.148   0.710   3.092  1.1479 -0.3900  0.6679
   40MOL0     O 5266  11.046   0.299   2.377  0.0455  0.1623 -0.6445
   40MOL0     C 5267  10.955   0.360   2.321  0.7636  1.1670 -0.4974
   40MOL0     O 5268  10.969   0.456   2.232  0.2121 -0.1914 -0.0761
   40MOL0     C 5269  11.094   0.508   2.190 -0.1135 -0.2370 -0.8773
   40MOL0     C 5270  11.193   0.544   2.277 -0.0331 -0.4740 -0.3871
   40MOL0     C 5271  11.312   0.610   2.233  0.2611  0.1560 -0.7042
   40MOL0     C 5272  11.324   0.635   2.100  0.7354 -0.0820  0.4283
   40MOL0     O 5273  11.435   0.703   2.063 -0.0851  0.3403 -0.0679
   40MOL0     C 5274  11.440   0.802   1.963  0.2230  0.5504 -0.0001
   40MOL0     C 5275  11.584   0.835   1.914 -0.6057  0.2430  0.5848
   40MOL0     C 5276  11.660   0.899   2.026  0.0901 -0.7833 -1.0251
   40MOL0     C 5277  11.823   0.889   2.006  0.1593 -0.3962 -0.4204
   40MOL0     C 5278  11.891   0.935   2.132 -0.2311 -0.7455 -0.3004
   40MOL0     C 5279  11.856   1.078   2.186 -0.2277 -0.4085  0.0468
   40MOL0     C 5280  11.967   1.133   2.278  0.1997 -0.4551  0.2081
   40MOL0     C 5281  12.079   1.181   2.190 -0.1652 -0.3968 -0.3457
   40MOL0     N 5282  12.191   1.242   2.272  0.3331  0.2369  0.1530
   40MOL0     C 5283  12.306   1.293   2.219  0.6252  0.3385 -0.0313
   40MOL0     C 5284  12.360   1.347   2.327 -0.0646 -0.0341  0.9976
   40MOL0     C 5285  12.483   1.439   2.315  0.3141  0.0188 -0.0031
   40MOL0     C 5286  12.609   1.350   2.330 -0.2222  0.3425  0.4346
   40MOL0     C 5287  12.637   1.242   2.223 -0.1558  0.0727  0.4062
   40MOL0     C 5288  12.752   1.147   2.268  0.3575  0.6498  0.0259
   40MOL0     O 5289  12.758   1.046   2.162 -0.6180  0.0066 -0.0615
   40MOL0     C 5290  12.836   1.065   2.048 -0.2124  0.2324  0.3911
   40MOL0     C 5291  12.923   1.171   2.025 -0.2347 -0.4667 -0.6488
   40MOL0     C 5292  13.011   1.155   1.921 -0.0250  0.5135  0.2443
   40MOL0     C 5293  13.019   1.041   1.840  0.0600  0.1973 -0.7136
   40MOL0     C 5294  13.128   1.008   1.741 -0.4860 -1.1456  0.7821
   40MOL0     O 5295  13.127   0.887   1.681  0.2207 -0.8110 -0.0708
   40MOL0     C 5296  13.232   0.835   1.603  0.2157 -0.2130 -0.5027
   40MOL0     C 5297  13.278   0.911   1.500  0.1606  0.1627  0.2754
   40MOL0     C 5298  13.364   0.860   1.407 -0.6162  0.0806 -0.2405
   40MOL0     C 5299  13.411   0.733   1.413 -1.0131  0.1528 -0.0417
   40MOL0     O 5300  13.490   0.667   1.318 -0.0097 -0.2751 -0.4630
   40MOL0     C 5301  13.548   0.745   1.216 -1.1753 -0.2587  0.4667
   40MOL0     C 5302  13.654   0.664   1.143 -0.2449  0.3552  0.3755
   40MOL0     C 5303  13.696   0.751   1.017 -0.3395  0.4947  0.2774
   40MOL0     C 5304  13.792   0.685   0.927 -0.5682  0.9590 -0.1382
   40MOL0     C 5305  13.716   0.582   0.835 -0.7234  0.0671  0.3978
   40MOL0     C 5306  13.794   0.465   0.756  0.0275 -0.6279 -0.4775
   40MOL0     C 5307  13.802   0.329   0.829 -0.0380  0.2505  0.5961
   40MOL0     C 5308  13.665   0.271   0.871 -0.5915  0.5872 -0.1247
   40MOL0    Cl 5309  13.542   0.252   0.726  0.1411 -0.0487  0.0708
   40MOL0     C 5310  13.372   0.651   1.517 -0.7649 -0.1765  0.1537
   40MOL0     C 5311  13.285   0.704   1.616 -0.2993 -0.2070  0.2556
   40MOL0     O 5312  13.217   1.096   1.729 -0.2436 -0.5397  0.0858
   40MOL0     C 5313  12.906   0.956   1.843  0.4653  0.1734 -0.7229
   40MOL0     C 5314  12.815   0.968   1.949 -1.0937 -0.3676 -0.1506
   40MOL0     N 5315  12.289   1.314   2.441 -0.4069 -0.5210  0.3308
   40MOL0     N 5316  12.191   1.253   2.404  0.2087  0.4982  0.2398
   40MOL0     C 5317  11.220   0.599   2.009  0.4282  0.5197  0.6694
   40MOL0     C 5318  11.107   0.535   2.052  0.2030  0.6960 -0.6809
   40MOL0     C 5319  10.821   0.321   2.370  0.4831  0.2954 -0.5827
   40MOL0     C 5320  10.801   0.268   2.496 -0.8245  0.6923 -0.4127
   40MOL0     C 5321  10.674   0.262   2.550  0.0812  0.7844  0.1147
   40MOL0     C 5322  10.556   0.290   2.478 -0.3634 -0.9570  0.1943
   40MOL0     O 5323  10.438   0.268   2.537 -0.0996 -0.5109 -0.3080
   40MOL0     C 5324  10.310   0.249   2.464 -1.1009 -0.4148 -0.9477
   40MOL0     C 5325  10.228   0.137   2.526 -0.3182 -0.7038  0.1991
   40MOL0     C 5326  10.133   0.078   2.424  0.9363 -0.0467 -0.2300
   40MOL0     C 5327  10.087  -0.062   2.470 -0.4064  0.7282 -0.2830
   40MOL0     C 5328  10.001  -0.114   2.370  1.2912  0.5731  0.2972
   40MOL0     C 5329   9.937  -0.174   2.286  0.1364 -0.8183 -0.3421
   40MOL0     C 5330  10.578   0.328   2.351 -0.0477 -0.4813 -0.1647
   40MOL0     C 5331  10.706   0.345   2.291  0.4191 -0.7817  0.0548
   40MOL0     C 5332  10.701   0.414   2.156 -0.8584 -0.0111 -0.2692
   40MOL0     H 5333  11.195   0.515   2.382  4.3436 -1.6207 -0.5714
   40MOL0     H 5334  11.398   0.625   2.297  0.3146 -1.1142 -0.4527
   40MOL0     H 5335  11.381   0.783   1.873  0.0723  3.1007 -0.5239
   40MOL0     H 5336  11.404   0.890   2.018  0.8505 -0.4001  2.0505
   40MOL0     H 5337  11.587   0.893   1.821 -0.4375 -0.1919  0.3169
   40MOL0     H 5338  11.645   0.751   1.879  0.3558  1.2291 -0.1487
   40MOL0     H 5339  11.641   0.841   2.116  1.3350  0.0619 -0.1792
   40MOL0     H 5340  11.627   1.001   2.044  0.5121 -0.9597  0.8844
   40MOL0     H 5341  11.853   0.790   1.970 -1.1639 -0.1565 -2.2893
   40MOL0     H 5342  11.843   0.958   1.924 -1.2911 -0.0428 -0.5076
   40MOL0     H 5343  11.868   0.867   2.214 -0.7500  2.1406  2.1538
   40MOL0     H 5344  11.999   0.926   2.119  0.1398  1.4357  0.6663
   40MOL0     H 5345  11.843   1.145   2.101 -1.8026 -1.4135 -0.5374
   40MOL0     H 5346  11.760   1.073   2.238 -1.9646 -2.5929 -3.0626
   40MOL0     H 5347  12.003   1.062   2.354  1.2421 -1.6295 -1.3162
   40MOL0     H 5348  11.916   1.214   2.330 -1.5453  0.4544 -2.7044
   40MOL0     H 5349  12.114   1.101   2.124 -0.3707 -1.4947  0.8419
   40MOL0     H 5350  12.047   1.263   2.124 -1.4918 -1.2312 -0.7680
   40MOL0     H 5351  12.337   1.300   2.115  0.3684  1.0049 -0.0700
   40MOL0     H 5352  12.484   1.484   2.215 -1.8726  0.2179  0.0117
   40MOL0     H 5353  12.475   1.515   2.394 -0.6537 -1.0098  0.9244
   40MOL0     H 5354  12.693   1.419   2.342  0.9087 -1.0595  0.8428
   40MOL0     H 5355  12.604   1.305   2.429 -1.6905 -0.9051 -0.1664
   40MOL0     H 5356  12.665   1.300   2.135  2.8421  1.1280  1.9023
   40MOL0     H 5357  12.553   1.174   2.206  1.6916 -2.6360  1.3165
   40MOL0     H 5358  12.722   1.099   2.362 -0.6070 -0.8177 -0.9834
   40MOL0     H 5359  12.848   1.196   2.288 -0.7792  3.0744 -0.1371
   40MOL0     H 5360  12.940   1.253   2.094 -2.8772  0.8042 -1.3542
   40MOL0     H 5361  13.094   1.225   1.920  2.2733 -2.0316  0.5779
   40MOL0     H 5362  13.252   1.015   1.481 -0.4734  0.2464  1.4567
   40MOL0     H 5363  13.388   0.914   1.316  0.5670 -0.9400 -0.5538
   40MOL0     H 5364  13.479   0.775   1.137  2.5869  0.5224 -2.8450
   40MOL0     H 5365  13.597   0.827   1.270 -0.2416 -1.4761  1.5385
   40MOL0     H 5366  13.735   0.651   1.215 -0.3531  1.1608  0.6542
   40MOL0     H 5367  13.617   0.563   1.121 -0.8667  0.6283  0.1559
   40MOL0     H 5368  13.615   0.782   0.951 -1.8114  0.7008  2.0896
   40MOL0     H 5369  13.742   0.842   1.055  0.8506 -0.5233  1.3626
   40MOL0     H 5370  13.866   0.631   0.986  0.9644 -1.3290 -3.7843
   40MOL0     H 5371  13.856   0.747   0.862 -0.3830 -0.4251 -1.3420
   40MOL0     H 5372  13.646   0.625   0.763  1.2573 -1.2138 -2.5379
   40MOL0     H 5373  13.649   0.533   0.906 -0.1778  1.1090  1.6737
   40MOL0     H 5374  13.735   0.445   0.666  0.9247  1.2183 -1.5451
   40MOL0     H 5375  13.900   0.484   0.735  0.5230  1.3402  2.9585
   40MOL0     H 5376  13.863   0.343   0.918  0.4761 -1.4391  0.5509
   40MOL0     H 5377  13.857   0.255   0.769 -0.9419 -0.2925  0.4238
   40MOL0     H 5378  13.680   0.170   0.910 -1.2004 -0.7941 -3.1787
   40MOL0     H 5379  13.616   0.325   0.952 -0.0820 -0.3189  0.8113
   40MOL0     H 5380  13.388   0.543   1.520 -1.2460 -0.2897 -0.9293
   40MOL0     H 5381  13.251   0.625   1.682 -1.3677 -2.0378 -2.3028
   40MOL0     H 5382  12.889   0.882   1.766 -1.4424  0.0320 -0.2128
   40MOL0     H 5383  12.751   0.883   1.973  1.4534 -2.9634 -1.7660
   40MOL0     H 5384  11.226   0.623   1.903  0.8424 -0.8675  0.3508
   40MOL0     H 5385  11.024   0.518   1.985  2.5654  1.4850 -4.1223
   40MOL0     H 5386  10.886   0.236   2.555 -1.7152 -2.2009 -0.5794
   40MOL0     H 5387  10.652   0.229   2.651 -1.3013  1.2264 -0.0127
   40MOL0     H 5388  10.328   0.216   2.362 -0.4546  0.3073 -1.0742
   40MOL0     H 5389  10.266   0.349   2.477  0.4761  0.2303 -0.3532
   40MOL0     H 5390  10.179   0.171   2.617  0.7912  2.0126 -0.1157
   40MOL0     H 5391  10.305   0.066   2.556  1.4773  1.2184  0.4136
   40MOL0     H 5392  10.177   0.074   2.324 -0.0474 -2.5108 -0.6338
   40MOL0     H 5393  10.040   0.137   2.416  0.5425 -0.7168 -0.6381
   40MOL0     H 5394  10.182  -0.116   2.469 -1.0124 -0.4426  0.9850
   40MOL0     H 5395  10.032  -0.067   2.565 -1.6821  0.9632 -0.9877
   40MOL0     H 5396   9.869  -0.228   2.223  0.2913  0.5617 -1.7593
   40MOL0     H 5397  10.495   0.362   2.290 -1.1327  2.5883  2.7318
   40MOL0     H 5398  10.785   0.386   2.090 -0.8821 -0.8492  0.0440
   40MOL0     H 5399  10.624   0.372   2.090  1.3294 -2.8823 -1.2275
   40MOL0     H 5400  10.709   0.522   2.171  0.4645 -0.1800  0.3376
   41MOL0     O 5401   5.915   0.162   1.767  0.1747 -0.0502  0.2743
   41MOL0     C 5402   5.966   0.257   1.827  0.4505  0.0456 -0.6713
   41MOL0     O 5403   6.099   0.282   1.859  0.0947 -0.1041 -0.1495
   41MOL0     C 5404   6.187   0.191   1.810  0.6067  0.3845  0.0204
   41MOL0     C 5405   6.296   0.242   1.751 -0.6276  0.4566 -0.0602
   41MOL0     C 5406   6.392   0.161   1.691 -0.4744  0.0305  0.0903
   41MOL0     C 5407   6.381   0.034   1.695  0.0125 -0.0043  0.3226
   41MOL0     O 5408   6.483  -0.042   1.644 -0.4551  0.4611 -0.6869
   41MOL0     C 5409   6.450  -0.180   1.621 -0.6007 -0.2567  0.5398
   41MOL0     C 5410   6.565  -0.245   1.547 -0.1803 -0.0062  0.2049
   41MOL0     C 5411   6.628  -0.165   1.436  0.1654 -0.2714  0.3306
   41MOL0     C 5412   6.699  -0.254   1.325 -0.3105 -0.0184 -0.3783
   41MOL0     C 5413   6.838  -0.306   1.371  0.1466  0.0945 -0.3252
   41MOL0     C 5414   6.919  -0.192   1.401 -0.2495  0.1990  0.1391
   41MOL0     C 5415   7.063  -0.225   1.388  0.2293 -0.0998 -0.2154
   41MOL0     C 5416   7.148  -0.097   1.417  0.3597 -0.5369 -0.6387
   41MOL0     N 5417   7.281  -0.132   1.416 -1.2161  0.3726  0.2940
   41MOL0     C 5418   7.379  -0.037   1.384 -0.0058  0.3146 -1.0749
   41MOL0     C 5419   7.491  -0.112   1.364  1.2068  0.3517 -0.0358
   41MOL0     C 5420   7.623  -0.070   1.317  0.1433 -0.5861  0.4503
   41MOL0     C 5421   7.672  -0.168   1.208 -0.7384  0.2045 -0.1247
   41MOL0     C 5422   7.797  -0.120   1.134 -0.5764 -0.4439 -0.6993
   41MOL0     C 5423   7.928  -0.173   1.196 -0.4350  0.2782 -0.4482
   41MOL0     O 5424   8.023  -0.065   1.177 -0.8346 -0.6252  0.0727
   41MOL0     C 5425   8.163  -0.099   1.168 -0.2652 -0.1810  0.4219
   41MOL0     C 5426   8.214  -0.232   1.191 -0.5864 -0.1943 -0.2480
   41MOL0     C 5427   8.350  -0.256   1.177 -0.9351  0.0820 -0.2866
   41MOL0     C 5428   8.451  -0.155   1.156  1.3182  0.2942  0.1855
   41MOL0     C 5429   8.582  -0.185   1.135 -0.1828  0.4326  0.6606
   41MOL0     O 5430   8.610  -0.321   1.106  0.6482 -0.1958  0.0614
   41MOL0     C 5431   8.731  -0.368   1.100 -0.1040 -0.3062  0.2431
   41MOL0     C 5432   8.747  -0.477   1.009  0.0152  0.4474 -0.2079
   41MOL0     C 5433   8.867  -0.545   1.011  0.4101 -0.4023  0.0939
   41MOL0     C 5434   8.967  -0.519   1.109 -0.7693  0.5707  0.5783
   41MOL0     O 5435   9.069  -0.614   1.114 -0.4916  0.1712 -0.1246
   41MOL0     C 5436   9.159  -0.610   1.228  0.9088 -0.3431  0.4940
   41MOL0     C 5437   9.227  -0.743   1.238 -0.0939 -0.0298 -0.9310
   41MOL0     C 5438   9.309  -0.781   1.110  0.0689  0.3477  0.0127
   41MOL0     C 5439   9.427  -0.872   1.146  0.9077 -0.2452  0.3760
   41MOL0     C 5440   9.514  -0.880   1.024 -0.4746  0.2324  0.0065
   41MOL0     C 5441   9.635  -0.976   1.046 -0.1067 -0.5021 -0.0583
   41MOL0     C 5442   9.730  -0.953   0.932 -0.2952 -0.3229  0.0794
   41MOL0     C 5443   9.853  -1.028   0.965  0.3615  0.7496 -0.1028
   41MOL0    Cl 5444   9.938  -0.948   1.102  0.4182  0.6793  0.1963
   41MOL0     C 5445   8.948  -0.410   1.192  1.2378  0.1178  0.2902
   41MOL0     C 5446   8.831  -0.326   1.186 -0.7596 -0.6682  0.1446
   41MOL0     O 5447   8.663  -0.098   1.151  0.2517 -0.1190  0.2556
   41MOL0     C 5448   8.397  -0.025   1.148 -0.0401 -0.8169 -0.0235
   41MOL0     C 5449   8.258   0.009   1.161 -0.0851 -0.3528  0.0300
   41MOL0     N 5450   7.467  -0.243   1.406 -0.0869 -0.2059 -0.1277
   41MOL0     N 5451   7.337  -0.252   1.434 -0.1720  0.0741  0.0407
   41MOL0     C 5452   6.274  -0.031   1.757  0.8294 -0.5006 -0.3496
   41MOL0     C 5453   6.172   0.049   1.819 -0.2778  0.3506 -0.8146
   41MOL0     C 5454   5.874   0.369   1.859  0.7538  0.3321  0.6738
   41MOL0     C 5455   5.937   0.491   1.890 -0.0288  0.3315 -0.2387
   41MOL0     C 5456   5.861   0.596   1.937  0.0616 -0.4963  0.4230
   41MOL0     C 5457   5.717   0.589   1.950  0.2708  0.3851 -0.3960
   41MOL0     O 5458   5.630   0.684   1.989  0.6779  0.6069  0.3751
   41MOL0     C 5459   5.679   0.823   1.965  0.2870  0.0750  0.4522
   41MOL0     C 5460   5.566   0.928   1.963  0.4906 -0.1416  0.0063
   41MOL0     C 5461   5.457   0.903   2.071 -0.1364 -0.7687  0.8691
   41MOL0     C 5462   5.497   0.960   2.205 -0.7213  0.4349 -0.6438
   41MOL0     C 5463   5.526   1.097   2.201  0.8278  0.0565  0.0463
   41MOL0     C 5464   5.552   1.209   2.169  0.0997 -0.3722 -0.5944
   41MOL0     C 5465   5.658   0.465   1.918 -0.1643  0.4192 -0.2265
   41MOL0     C 5466   5.732   0.360   1.871 -0.2883  0.7319  0.0228
   41MOL0     C 5467   5.655   0.241   1.851 -1.0803  0.1328 -0.2449
   41MOL0     H 5468   6.320   0.347   1.738  0.8976  0.4068  1.9158
   41MOL0     H 5469   6.470   0.202   1.627 -0.8363 -1.6628 -1.5028
   41MOL0     H 5470   6.428  -0.251   1.702  2.1523 -2.4468 -0.4253
   41MOL0     H 5471   6.365  -0.176   1.553 -0.1938  1.5274  0.0919
   41MOL0     H 5472   6.531  -0.335   1.493  0.5782 -0.2020  0.0428
   41MOL0     H 5473   6.636  -0.273   1.625 -0.4477  4.8149  2.5024
   41MOL0     H 5474   6.701  -0.089   1.466 -0.2390  0.3637 -0.2700
   41MOL0     H 5475   6.545  -0.114   1.386  0.2775  1.0959  1.4715
   41MOL0     H 5476   6.639  -0.341   1.297 -1.0627  0.4175 -0.1301
   41MOL0     H 5477   6.706  -0.196   1.233  0.4665  0.3318 -0.1087
   41MOL0     H 5478   6.830  -0.371   1.459  1.1496  1.8794  1.1471
   41MOL0     H 5479   6.884  -0.369   1.294 -1.5536 -3.8959  1.6300
   41MOL0     H 5480   6.893  -0.106   1.339  0.9904 -0.3197 -1.1515
   41MOL0     H 5481   6.906  -0.159   1.505 -2.4340  0.3595 -0.1413
   41MOL0     H 5482   7.090  -0.276   1.295  1.1863 -1.1401  0.6003
   41MOL0     H 5483   7.084  -0.297   1.468  1.1819  0.1167 -0.2611
   41MOL0     H 5484   7.130  -0.016   1.346  2.1180  0.6319  0.1678
   41MOL0     H 5485   7.130  -0.053   1.515  2.6228  1.6039 -1.0898
   41MOL0     H 5486   7.375   0.071   1.375  0.8520  0.2189 -3.2663
   41MOL0     H 5487   7.620   0.029   1.270 -1.1023 -1.9312 -2.6263
   41MOL0     H 5488   7.686  -0.053   1.404 -1.2851 -0.5777  1.5095
   41MOL0     H 5489   7.694  -0.257   1.267 -1.1034  1.7891  2.5780
   41MOL0     H 5490   7.594  -0.191   1.135  0.1574  1.9162 -1.7221
   41MOL0     H 5491   7.794  -0.013   1.112  1.0436 -0.6853 -2.3048
   41MOL0     H 5492   7.786  -0.159   1.033 -0.4783  0.6711 -1.1526
   41MOL0     H 5493   7.959  -0.268   1.152  0.8144  1.3783 -2.0296
   41MOL0     H 5494   7.915  -0.170   1.305 -0.1446  3.5145 -0.4268
   41MOL0     H 5495   8.154  -0.316   1.223  1.3949 -0.9172  1.8870
   41MOL0     H 5496   8.371  -0.361   1.195 -2.9423 -0.1399  1.2219
   41MOL0     H 5497   8.675  -0.501   0.932 -1.2498 -3.0671  1.8424
   41MOL0     H 5498   8.899  -0.628   0.949  1.7589  1.4974 -1.8896
   41MOL0     H 5499   9.232  -0.529   1.224 -0.3339  0.8273  0.5421
   41MOL0     H 5500   9.092  -0.587   1.312  1.1967  1.7258  0.2194
   41MOL0     H 5501   9.293  -0.734   1.325 -2.3489  1.1299  0.7946
   41MOL0     H 5502   9.154  -0.821   1.265 -0.1880  0.0898 -0.8369
   41MOL0     H 5503   9.245  -0.849   1.052  1.8293 -2.7898  1.5087
   41MOL0     H 5504   9.341  -0.686   1.066  1.5291  0.6439  1.6031
   41MOL0     H 5505   9.386  -0.973   1.151 -3.1948  1.2670  2.1414
   41MOL0     H 5506   9.474  -0.849   1.242 -2.4224  2.2560  1.6322
   41MOL0     H 5507   9.545  -0.781   0.989  0.7071  0.7586  2.3603
   41MOL0     H 5508   9.444  -0.923   0.952 -1.0995  0.9985  0.1424
   41MOL0     H 5509   9.680  -0.945   1.141 -2.5518 -1.6574  1.5791
   41MOL0     H 5510   9.607  -1.081   1.048 -0.3367 -0.4330  0.4313
   41MOL0     H 5511   9.753  -0.846   0.923 -0.1027 -0.2202  1.5362
   41MOL0     H 5512   9.689  -0.991   0.838  0.1431 -0.4809 -0.0468
   41MOL0     H 5513   9.826  -1.129   0.998 -1.7062  1.8656  1.9267
   41MOL0     H 5514   9.925  -1.017   0.884  1.9153 -0.3203  1.0669
   41MOL0     H 5515   9.017  -0.390   1.273  0.5261  0.8037  0.7434
   41MOL0     H 5516   8.810  -0.246   1.256 -3.6412  2.5458 -3.9146
   41MOL0     H 5517   8.468   0.056   1.136  1.5405 -1.6960  2.5176
   41MOL0     H 5518   8.241   0.113   1.133  1.1494 -0.0950  0.2099
   41MOL0     H 5519   6.251  -0.137   1.757 -0.7386 -0.1875 -0.5521
   41MOL0     H 5520   6.096  -0.001   1.879  0.5478  0.0193 -0.0119
   41MOL0     H 5521   6.041   0.511   1.866 -0.4521 -0.3198 -2.9242
   41MOL0     H 5522   5.911   0.689   1.963 -0.3861  0.0019 -0.4585
   41MOL0     H 5523   5.721   0.837   1.865  0.3935  2.3978  0.7785
   41MOL0     H 5524   5.756   0.840   2.041 -0.3493  2.3568  0.6588
   41MOL0     H 5525   5.517   0.927   1.866 -0.9894  1.9203  0.6627
   41MOL0     H 5526   5.603   1.031   1.970 -1.1011  0.5018 -0.6801
   41MOL0     H 5527   5.443   0.795   2.081  5.1426 -1.7246  0.9575
   41MOL0     H 5528   5.365   0.951   2.037 -0.0571 -2.1148 -1.4670
   41MOL0     H 5529   5.422   0.946   2.283  1.6900  0.0691  1.7489
   41MOL0     H 5530   5.587   0.915   2.249 -0.1337  2.9643  0.9778
   41MOL0     H 5531   5.583   1.301   2.125  1.3193  0.0168  0.9923
   41MOL0     H 5532   5.552   0.447   1.932  0.3372 -2.1648  0.7595
   41MOL0     H 5533   5.665   0.205   1.748 -1.8174  1.9512 -0.9850
   41MOL0     H 5534   5.687   0.174   1.932 -0.4560  2.0995  1.2030
   41MOL0     H 5535   5.551   0.258   1.880 -0.8425 -0.0068  0.7471
   42MOL0     O 5536   4.329   8.332   0.993 -0.0361  0.4993  0.4478
   42MOL0     C 5537   4.332   8.275   0.885  0.0263 -0.9672  0.2432
   42MOL0     O 5538   4.440   8.227   0.823 -0.1465 -0.0495 -0.0259
   42MOL0     C 5539   4.554   8.224   0.895 -0.4835 -0.5697  0.8248
   42MOL0     C 5540   4.604   8.108   0.948 -0.1340  0.3328 -0.2450
   42MOL0     C 5541   4.708   8.117   1.037 -0.1934 -0.5282  0.4915
   42MOL0     C 5542   4.778   8.232   1.063 -0.4838 -0.1335  0.2301
   42MOL0     O 5543   4.888   8.221   1.143 -0.8186  0.5938  0.6015
   42MOL0     C 5544   4.969   8.326   1.179 -0.5667 -0.4465  0.3573
   42MOL0     C 5545   5.092   8.262   1.236 -0.3235  0.1768 -0.3742
   42MOL0     C 5546   5.192   8.212   1.131  0.6210 -0.0184  0.6511
   42MOL0     C 5547   5.335   8.195   1.180 -0.3167 -0.4817  0.6430
   42MOL0     C 5548   5.438   8.168   1.063  0.1547 -0.3863  0.2154
   42MOL0     C 5549   5.568   8.228   1.102 -0.3237 -0.3704 -0.0069
   42MOL0     C 5550   5.687   8.181   1.004  0.3472  0.0189  0.4094
   42MOL0     C 5551   5.672   8.234   0.862 -1.1656  0.4090  0.1473
   42MOL0     N 5552   5.755   8.169   0.765  0.1674  0.3038  0.1698
   42MOL0     C 5553   5.888   8.157   0.782 -0.5560 -0.1534 -0.6866
   42MOL0     C 5554   5.931   8.089   0.672  0.4531 -0.1353  0.7361
   42MOL0     C 5555   6.072   8.056   0.641 -0.5352  0.5634 -0.3256
   42MOL0     C 5556   6.166   8.174   0.658 -0.5495 -0.6449  0.3114
   42MOL0     C 5557   6.297   8.155   0.574  0.4736 -0.8026 -0.9796
   42MOL0     C 5558   6.380   8.035   0.632  0.9434 -0.6016 -0.0023
   42MOL0     O 5559   6.505   8.030   0.559 -0.3051  0.0241 -0.0659
   42MOL0     C 5560   6.613   8.107   0.584  0.6767 -0.3548  0.8157
   42MOL0     C 5561   6.723   8.066   0.510 -0.1593  0.6567  0.2194
   42MOL0     C 5562   6.843   8.138   0.513 -0.3119 -0.6585  0.1102
   42MOL0     C 5563   6.855   8.251   0.597  0.0920 -0.8748 -0.3574
   42MOL0     C 5564   6.982   8.327   0.606 -0.1902  0.6383  0.2473
   42MOL0     O 5565   7.090   8.268   0.550  0.5637  0.3105  0.2355
   42MOL0     C 5566   7.200   8.343   0.515 -0.4252  0.1293 -0.4636
   42MOL0     C 5567   7.213   8.395   0.390 -0.7583 -0.6586  1.1067
   42MOL0     C 5568   7.320   8.482   0.356 -0.1765 -0.3511 -0.1353
   42MOL0     C 5569   7.432   8.489   0.442  0.4660 -0.6850  0.1344
   42MOL0     O 5570   7.534   8.572   0.400  0.3389  0.2958 -0.1109
   42MOL0     C 5571   7.669   8.526   0.416 -0.1273 -0.1779 -0.6154
   42MOL0     C 5572   7.766   8.592   0.311  0.2453  0.1405 -1.1388
   42MOL0     C 5573   7.743   8.535   0.168  0.1893 -0.0793  0.2068
   42MOL0     C 5574   7.618   8.592   0.104 -0.5222  0.2888  0.1252
   42MOL0     C 5575   7.624   8.594  -0.051 -0.2086 -0.6578 -0.2060
   42MOL0     C 5576   7.503   8.655  -0.113  1.0011  0.5339  0.4311
   42MOL0     C 5577   7.440   8.788  -0.061  0.0049  0.4757 -0.7491
   42MOL0     C 5578   7.354   8.872  -0.166 -0.0579  1.0628  0.5387
   42MOL0    Cl 5579   7.241   8.769  -0.251  0.0567  0.5756  0.3991
   42MOL0     C 5580   7.423   8.419   0.562 -1.1463  0.0526 -0.6482
   42MOL0     C 5581   7.308   8.343   0.599  0.4612 -0.5883 -0.3884
   42MOL0     O 5582   6.977   8.436   0.659 -0.1342  0.5005  0.0851
   42MOL0     C 5583   6.741   8.293   0.673 -0.1001 -0.6211  0.8618
   42MOL0     C 5584   6.621   8.222   0.666  0.2941  0.6996  0.2386
   42MOL0     N 5585   5.819   8.053   0.596 -0.4106 -0.8117  0.3328
   42MOL0     N 5586   5.711   8.090   0.666 -0.1415  0.0107  0.2696
   42MOL0     C 5587   4.735   8.352   1.001  0.6673 -0.8759 -1.2712
   42MOL0     C 5588   4.623   8.349   0.918  0.4939  0.4904  0.2320
   42MOL0     C 5589   4.206   8.285   0.804 -0.9409 -0.2422 -1.1768
   42MOL0     C 5590   4.125   8.174   0.773 -0.2874 -0.4814 -0.0554
   42MOL0     C 5591   4.016   8.183   0.687  1.2198  0.3585 -0.2029
   42MOL0     C 5592   3.973   8.303   0.630 -0.2574  0.9052  0.4868
   42MOL0     O 5593   3.877   8.297   0.525  0.0036  0.0949  0.0127
   42MOL0     C 5594   3.859   8.420   0.443  0.5869  0.4329  0.5313
   42MOL0     C 5595   3.743   8.386   0.350  0.7983  0.2390  0.6916
   42MOL0     C 5596   3.668   8.501   0.283 -0.3245 -0.5526  0.1157
   42MOL0     C 5597   3.591   8.452   0.162 -0.5675  0.1086 -0.5061
   42MOL0     C 5598   3.495   8.343   0.194 -0.0375  0.7255  0.0794
   42MOL0     C 5599   3.413   8.262   0.237  0.2816  0.2700 -0.2092
   42MOL0     C 5600   4.048   8.422   0.665 -0.0022  0.4164 -0.0101
   42MOL0     C 5601   4.152   8.408   0.763  0.0131 -0.2539 -0.1278
   42MOL0     C 5602   4.219   8.532   0.807 -0.2866 -0.5951 -0.1282
   42MOL0     H 5603   4.567   8.010   0.921  1.3533 -1.1101  2.5590
   42MOL0     H 5604   4.740   8.022   1.078  2.3236 -0.3361 -0.8353
   42MOL0     H 5605   4.989   8.406   1.107 -0.4762  1.6631  2.5701
   42MOL0     H 5606   4.909   8.373   1.257  0.0388  0.5499  0.2435
   42MOL0     H 5607   5.070   8.179   1.304 -2.4638  0.6381 -0.4090
   42MOL0     H 5608   5.138   8.340   1.297 -0.2557 -1.7661  2.1942
   42MOL0     H 5609   5.209   8.297   1.065  0.6999  1.5121  2.5690
   42MOL0     H 5610   5.155   8.121   1.081  1.0293 -0.7134  1.5840
   42MOL0     H 5611   5.361   8.287   1.233  2.0430 -0.8535  0.2449
   42MOL0     H 5612   5.335   8.108   1.245  3.7972 -0.9609  0.2737
   42MOL0     H 5613   5.451   8.062   1.038 -0.2124  0.0161 -1.7914
   42MOL0     H 5614   5.391   8.196   0.968 -3.4089 -3.4801  0.8144
   42MOL0     H 5615   5.558   8.337   1.092 -1.6512 -0.6157 -2.2031
   42MOL0     H 5616   5.596   8.200   1.203 -3.7323  0.6321  1.3493
   42MOL0     H 5617   5.694   8.072   1.000 -0.5843 -0.1452  2.1863
   42MOL0     H 5618   5.778   8.226   1.044  0.2661  0.4417  0.1193
   42MOL0     H 5619   5.571   8.238   0.821 -0.9107  0.5312 -0.4713
   42MOL0     H 5620   5.706   8.338   0.867 -0.3738  0.2034 -0.7664
   42MOL0     H 5621   5.952   8.179   0.866 -2.1510  1.3996  0.1928
   42MOL0     H 5622   6.105   7.963   0.689  0.5332  0.6131 -0.9453
   42MOL0     H 5623   6.073   8.028   0.535 -3.1169  0.0980 -0.2887
   42MOL0     H 5624   6.113   8.262   0.620  0.3498  0.3292  1.2342
   42MOL0     H 5625   6.184   8.201   0.763 -2.5144 -0.4769  0.6355
   42MOL0     H 5626   6.356   8.246   0.575  0.5758 -0.8577  0.6584
   42MOL0     H 5627   6.276   8.139   0.468 -0.6228  2.6468 -1.3979
   42MOL0     H 5628   6.325   7.943   0.613  1.9086 -0.4919 -4.2065
   42MOL0     H 5629   6.405   8.039   0.739  2.3898 -1.1565 -0.2950
   42MOL0     H 5630   6.710   7.979   0.446  0.3459  1.5052 -1.0632
   42MOL0     H 5631   6.933   8.099   0.466  0.1433  1.0598 -0.5304
   42MOL0     H 5632   7.137   8.370   0.318 -0.2703 -0.7704  0.6216
   42MOL0     H 5633   7.321   8.534   0.261 -0.4587  1.1411  0.6576
   42MOL0     H 5634   7.716   8.546   0.513 -1.5909  1.9523 -0.2685
   42MOL0     H 5635   7.676   8.421   0.387  2.9770 -0.0129 -0.7749
   42MOL0     H 5636   7.760   8.701   0.307 -1.6888  0.2871  2.0529
   42MOL0     H 5637   7.865   8.565   0.347  0.4178 -0.5093 -2.0712
   42MOL0     H 5638   7.827   8.567   0.106 -0.7727 -1.7993 -2.1146
   42MOL0     H 5639   7.753   8.427   0.163 -0.2216 -0.0812 -1.1279
   42MOL0     H 5640   7.596   8.692   0.143 -1.0824 -0.2021  1.1206
   42MOL0     H 5641   7.534   8.529   0.136  0.7548 -1.2630  0.5877
   42MOL0     H 5642   7.631   8.494  -0.095  1.9360 -1.3220  1.4511
   42MOL0     H 5643   7.719   8.640  -0.079 -0.9972 -0.5321 -2.9657
   42MOL0     H 5644   7.525   8.658  -0.220  1.7005 -0.4953  0.5280
   42MOL0     H 5645   7.431   8.573  -0.105 -1.2898  2.5221  1.0255
   42MOL0     H 5646   7.510   8.857  -0.013 -0.1065 -0.4048  0.7333
   42MOL0     H 5647   7.372   8.758   0.019  0.0063 -2.0626 -1.6188
   42MOL0     H 5648   7.318   8.965  -0.120  3.5418  4.0062 -1.9694
   42MOL0     H 5649   7.423   8.917  -0.238 -0.4961  0.4117 -0.2979
   42MOL0     H 5650   7.510   8.427   0.626 -0.3052  0.1378 -1.7669
   42MOL0     H 5651   7.301   8.290   0.694  2.3711  0.1014  0.1773
   42MOL0     H 5652   6.748   8.388   0.725  2.5609  0.8597 -1.8912
   42MOL0     H 5653   6.534   8.249   0.726 -0.2469  2.8993 -1.3971
   42MOL0     H 5654   4.785   8.442   1.034  0.8456 -1.6450  0.7029
   42MOL0     H 5655   4.586   8.442   0.877  1.7472  1.2567  0.8127
   42MOL0     H 5656   4.170   8.082   0.808  3.4712  0.9386 -0.6454
   42MOL0     H 5657   3.953   8.100   0.658 -0.2919  1.4564 -0.1302
   42MOL0     H 5658   3.946   8.444   0.380 -0.8767 -3.4713 -3.5838
   42MOL0     H 5659   3.832   8.508   0.501 -2.4100  0.3891 -0.6053
   42MOL0     H 5660   3.669   8.321   0.398  1.8511 -2.5237 -1.2254
   42MOL0     H 5661   3.787   8.316   0.279  0.2248 -0.1604  0.7254
   42MOL0     H 5662   3.747   8.572   0.256 -1.5183  0.6179 -0.3965
   42MOL0     H 5663   3.598   8.547   0.354  0.1869 -0.0586  0.3084
   42MOL0     H 5664   3.539   8.530   0.107  0.4914 -1.5124 -4.1225
   42MOL0     H 5665   3.672   8.407   0.103 -2.0808 -0.4252 -2.2664
   42MOL0     H 5666   3.323   8.215   0.271  0.5435 -0.8000 -0.9625
   42MOL0     H 5667   4.020   8.522   0.633 -1.4504 -0.0580 -0.3022
   42MOL0     H 5668   4.174   8.581   0.894  2.0744  2.7798 -0.6241
   42MOL0     H 5669   4.327   8.522   0.824 -0.1509  2.7814  1.9410
   42MOL0     H 5670   4.203   8.612   0.733 -2.7580 -1.1826 -0.3123
   43MOL0     O 5671   6.113   7.969   4.065 -0.1832  0.3667  0.2221
   43MOL0     C 5672   6.173   8.071   4.032  0.6282 -0.0968  0.1996
   43MOL0     O 5673   6.143   8.151   3.925 -0.2854 -0.2506 -0.0537
   43MOL0     C 5674   6.063   8.102   3.823 -0.5582  0.3852 -0.6238
   43MOL0     C 5675   5.921   8.103   3.845  0.0947 -0.5898  1.5143
   43MOL0     C 5676   5.834   8.054   3.748 -0.2204 -0.3990 -0.0894
   43MOL0     C 5677   5.885   8.004   3.629 -0.1884  0.3809  0.4550
   43MOL0     O 5678   5.815   7.942   3.528 -0.0401  0.3512 -0.3474
   43MOL0     C 5679   5.702   8.013   3.469 -0.5257  0.4355  0.4758
   43MOL0     C 5680   5.595   7.914   3.410 -0.7939 -0.5584  0.8065
   43MOL0     C 5681   5.479   7.993   3.348  0.4231 -0.7313  0.1384
   43MOL0     C 5682   5.361   7.905   3.307 -0.6191 -0.7424 -0.0669
   43MOL0     C 5683   5.266   7.985   3.202  0.3189 -0.2561 -0.0520
   43MOL0     C 5684   5.319   8.000   3.057 -0.1009 -0.6102 -1.1602
   43MOL0     C 5685   5.221   8.086   2.964  0.0647 -0.4402 -0.0132
   43MOL0     C 5686   5.091   8.018   2.936  0.4293 -0.0388 -0.9745
   43MOL0     N 5687   5.029   8.097   2.830  0.8143 -0.0706  0.7135
   43MOL0     C 5688   4.899   8.128   2.829 -0.2567  0.5815  0.7760
   43MOL0     C 5689   4.869   8.168   2.705  0.7458 -0.1259 -0.3364
   43MOL0     C 5690   4.733   8.216   2.660 -0.3427  0.5214  0.3800
   43MOL0     C 5691   4.721   8.248   2.507 -0.0527  0.1107  0.3848
   43MOL0     C 5692   4.708   8.120   2.421 -0.3357 -0.5139 -0.2016
   43MOL0     C 5693   4.732   8.137   2.276  1.0000  0.0329  0.7650
   43MOL0     O 5694   4.818   8.031   2.219  0.2852  0.7122  0.3169
   43MOL0     C 5695   4.954   8.049   2.206 -0.0580 -0.7628  0.1972
   43MOL0     C 5696   5.022   7.947   2.143 -0.1021 -0.3031 -1.0400
   43MOL0     C 5697   5.161   7.960   2.121 -0.4686  0.6069 -0.6187
   43MOL0     C 5698   5.230   8.077   2.158 -0.5389 -0.7721  0.0950
   43MOL0     C 5699   5.375   8.098   2.136  0.8399 -0.7995  0.9570
   43MOL0     O 5700   5.427   8.017   2.039  0.5761 -0.3955 -0.6359
   43MOL0     C 5701   5.559   8.030   1.997  0.7987  0.4809  0.5446
   43MOL0     C 5702   5.645   8.136   1.986  0.4925  0.2692 -0.1043
   43MOL0     C 5703   5.756   8.144   1.905  0.3592  0.3979 -0.3324
   43MOL0     C 5704   5.800   8.030   1.840  0.4776  0.1656  0.2670
   43MOL0     O 5705   5.924   8.044   1.776 -0.0327  0.3572 -0.6034
   43MOL0     C 5706   5.956   7.936   1.686  0.2567 -0.4626  0.4873
   43MOL0     C 5707   6.048   7.986   1.563  0.6946 -0.0868 -0.0920
   43MOL0     C 5708   6.178   8.018   1.613 -0.4101 -0.5410 -0.1271
   43MOL0     C 5709   6.274   8.024   1.489 -0.5534 -0.7625 -0.7737
   43MOL0     C 5710   6.422   8.063   1.509 -1.0521  0.2386  0.3092
   43MOL0     C 5711   6.495   8.081   1.370 -0.3523 -0.3907  0.5716
   43MOL0     C 5712   6.652   8.077   1.388 -0.9166 -0.3127  0.0464
   43MOL0     C 5713   6.706   8.206   1.442  0.1835  0.4897 -0.2266
   43MOL0    Cl 5714   6.886   8.197   1.429  0.0241 -0.3643 -0.2321
   43MOL0     C 5715   5.724   7.920   1.860  0.2063  0.9996  0.1950
   43MOL0     C 5716   5.610   7.911   1.943 -0.2851 -0.4550  0.4271
   43MOL0     O 5717   5.436   8.178   2.206 -0.4130 -0.4880 -0.9097
   43MOL0     C 5718   5.157   8.173   2.232  0.0921 -0.2412 -0.7591
   43MOL0     C 5719   5.018   8.159   2.257 -0.1583 -0.7037 -0.2254
   43MOL0     N 5720   4.987   8.175   2.631 -0.6475  0.1439  0.1413
   43MOL0     N 5721   5.081   8.125   2.705 -0.6011 -0.2827 -0.0022
   43MOL0     C 5722   6.026   8.011   3.603 -0.5689  0.2222 -0.4994
   43MOL0     C 5723   6.116   8.051   3.700  0.1450  0.3393 -0.0640
   43MOL0     C 5724   6.281   8.137   4.119 -0.2735  0.1476  0.1868
   43MOL0     C 5725   6.289   8.273   4.129 -0.6216  0.2764  0.2613
   43MOL0     C 5726   6.398   8.329   4.197  0.6511 -0.2091  0.7325
   43MOL0     C 5727   6.499   8.262   4.258  0.4087 -0.4697 -0.0969
   43MOL0     O 5728   6.611   8.322   4.315  0.0760 -0.0973 -0.2878
   43MOL0     C 5729   6.624   8.470   4.327 -0.6207  0.2119  0.7714
   43MOL0     C 5730   6.681   8.538   4.201  0.3231 -1.1573  0.3433
   43MOL0     C 5731   6.813   8.475   4.161  0.4502  0.5764  0.1946
   43MOL0     C 5732   6.887   8.543   4.051  0.7468 -0.2156  0.5117
   43MOL0     C 5733   7.027   8.495   4.027 -0.4663  0.2336  0.0785
   43MOL0     C 5734   7.142   8.454   4.009  0.4294  0.1542  0.2980
   43MOL0     C 5735   6.500   8.125   4.237  0.1915  0.0445 -0.3385
   43MOL0     C 5736   6.392   8.061   4.169 -0.9621 -0.1927  0.0164
   43MOL0     C 5737   6.394   7.913   4.151  0.1556  0.3110  0.3270
   43MOL0     H 5738   5.888   8.147   3.938 -0.1667 -0.9743  1.6077
   43MOL0     H 5739   5.728   8.048   3.771 -1.0375 -0.3938 -3.4035
   43MOL0     H 5740   5.656   8.088   3.534  2.4096  1.4924  1.4926
   43MOL0     H 5741   5.738   8.073   3.385 -1.0933 -1.4888 -1.2382
   43MOL0     H 5742   5.549   7.853   3.489 -2.4001 -1.8900 -1.0568
   43MOL0     H 5743   5.632   7.849   3.331  0.2868  2.2587 -1.1388
   43MOL0     H 5744   5.528   8.043   3.264  1.3117  0.7377  1.4759
   43MOL0     H 5745   5.442   8.074   3.411  0.1951  1.6875 -2.8433
   43MOL0     H 5746   5.404   7.818   3.256  1.7133 -0.0197  0.5626
   43MOL0     H 5747   5.301   7.874   3.393 -1.4856  0.2323 -0.2986
   43MOL0     H 5748   5.168   7.936   3.196 -0.4430  1.3467 -3.8213
   43MOL0     H 5749   5.244   8.083   3.245 -3.4458 -1.1626  0.4486
   43MOL0     H 5750   5.421   8.040   3.058 -0.1378 -0.4949 -1.6286
   43MOL0     H 5751   5.332   7.905   3.004 -2.9690 -1.2681 -0.8762
   43MOL0     H 5752   5.277   8.099   2.871  0.5162  0.6168  0.3972
   43MOL0     H 5753   5.197   8.181   3.013 -2.5877 -0.6507 -0.7210
   43MOL0     H 5754   5.109   7.921   2.888 -1.3751  0.6589 -3.2081
   43MOL0     H 5755   5.023   8.021   3.022 -1.9422  0.2522 -2.7551
   43MOL0     H 5756   4.835   8.144   2.915 -1.2846  1.3820 -0.0992
   43MOL0     H 5757   4.655   8.146   2.689  2.7851 -3.8601 -0.8093
   43MOL0     H 5758   4.711   8.313   2.708  1.9711  1.0136  0.5820
   43MOL0     H 5759   4.634   8.312   2.489 -0.3544 -0.9584 -2.2897
   43MOL0     H 5760   4.816   8.301   2.492  0.2839 -0.4927  0.3540
   43MOL0     H 5761   4.609   8.074   2.429 -0.4111 -0.2307  0.6467
   43MOL0     H 5762   4.778   8.051   2.469 -2.4288 -2.3263  0.4260
   43MOL0     H 5763   4.765   8.237   2.246 -0.7618  0.2152 -0.7505
   43MOL0     H 5764   4.632   8.127   2.233  1.6087  1.1108 -0.9964
   43MOL0     H 5765   4.966   7.858   2.117 -1.0271 -1.3824  3.7566
   43MOL0     H 5766   5.214   7.878   2.073  0.0340  1.1511 -1.0103
   43MOL0     H 5767   5.613   8.231   2.029 -0.8143 -0.3758  0.4200
   43MOL0     H 5768   5.815   8.235   1.898  1.4589 -0.4240 -3.0091
   43MOL0     H 5769   6.009   7.860   1.744  1.6892 -0.4112 -0.7001
   43MOL0     H 5770   5.865   7.903   1.635 -0.0043  2.3198 -1.0674
   43MOL0     H 5771   6.036   7.906   1.490 -1.2865  0.6774 -0.6593
   43MOL0     H 5772   6.011   8.072   1.506  3.6967  0.4119 -1.4919
   43MOL0     H 5773   6.168   8.114   1.663 -1.0590 -0.5415 -0.2493
   43MOL0     H 5774   6.218   7.945   1.683 -2.1624 -2.0630 -0.6229
   43MOL0     H 5775   6.231   8.092   1.416 -0.4641  0.1884  0.0343
   43MOL0     H 5776   6.275   7.924   1.445  1.1232 -1.3142  0.3914
   43MOL0     H 5777   6.473   7.981   1.561 -3.1125  0.0890  2.2827
   43MOL0     H 5778   6.429   8.161   1.557 -2.2717  0.1785  0.6380
   43MOL0     H 5779   6.470   7.995   1.308 -1.1429 -1.7861  2.7240
   43MOL0     H 5780   6.470   8.177   1.325  0.5814 -1.1528 -1.7326
   43MOL0     H 5781   6.702   8.071   1.291 -1.1073  1.4914 -0.1894
   43MOL0     H 5782   6.678   7.990   1.449 -0.2867  0.5153  0.9903
   43MOL0     H 5783   6.663   8.293   1.391 -3.8381 -1.6316 -0.8761
   43MOL0     H 5784   6.681   8.214   1.548 -2.0638  2.7438 -0.8100
   43MOL0     H 5785   5.765   7.824   1.827  1.3235  1.2634  0.7599
   43MOL0     H 5786   5.561   7.815   1.949 -0.8418 -0.1953  0.0539
   43MOL0     H 5787   5.193   8.275   2.248  0.3126 -0.5260  0.6718
   43MOL0     H 5788   4.971   8.248   2.298 -0.2348  0.1115 -2.0009
   43MOL0     H 5789   6.054   7.970   3.506 -0.3176 -2.2894  0.5478
   43MOL0     H 5790   6.224   8.054   3.691  0.1755 -1.0842 -0.3707
   43MOL0     H 5791   6.206   8.329   4.086 -4.0224 -1.9615  3.3579
   43MOL0     H 5792   6.405   8.437   4.188 -1.1014 -0.2679 -3.0214
   43MOL0     H 5793   6.686   8.494   4.414 -3.1969  1.0510  2.5274
   43MOL0     H 5794   6.527   8.512   4.355 -1.9597 -4.2136  3.8356
   43MOL0     H 5795   6.693   8.639   4.241  0.0414 -0.6732 -0.7558
   43MOL0     H 5796   6.603   8.546   4.124 -0.4971 -0.7642  1.1928
   43MOL0     H 5797   6.786   8.370   4.142  2.9276 -0.0595 -0.0829
   43MOL0     H 5798   6.881   8.474   4.247  0.6244  0.9144  0.0577
   43MOL0     H 5799   6.827   8.526   3.961  0.5275  1.1421  0.3763
   43MOL0     H 5800   6.889   8.651   4.070  0.8891 -0.2344  0.5977
   43MOL0     H 5801   7.235   8.408   3.981  0.9751  2.0697 -1.1794
   43MOL0     H 5802   6.576   8.062   4.283 -2.5313 -1.9300  1.8445
   43MOL0     H 5803   6.475   7.878   4.215  0.8142  0.9844 -0.1106
   43MOL0     H 5804   6.301   7.864   4.181 -0.5906  2.5721  1.9744
   43MOL0     H 5805   6.426   7.888   4.049  1.0926 -0.1207  0.7118
   44MOL0     O 5806   9.641   5.689   4.613  0.1522 -0.8350  0.1729
   44MOL0     C 5807   9.624   5.568   4.607 -0.2986 -0.5831  0.7349
   44MOL0     O 5808   9.710   5.472   4.652  0.4862 -0.3820 -0.2280
   44MOL0     C 5809   9.829   5.513   4.703  0.7201 -0.2865 -0.3994
   44MOL0     C 5810   9.829   5.572   4.836 -0.2296  0.6119 -0.0096
   44MOL0     C 5811   9.952   5.596   4.899 -0.0177  0.0868  0.5524
   44MOL0     C 5812  10.081   5.569   4.837 -0.6730 -0.7461 -0.6082
   44MOL0     O 5813  10.200   5.592   4.902  0.5875  0.1450  0.0619
   44MOL0     C 5814  10.212   5.684   5.019  0.3640  0.4503  0.5232
   44MOL0     C 5815  10.333   5.642   5.092  0.2106 -0.1589 -0.3049
   44MOL0     C 5816  10.357   5.722   5.217  0.1732  0.0977 -0.3008
   44MOL0     C 5817  10.387   5.874   5.192  0.7132 -0.0314 -0.4794
   44MOL0     C 5818  10.421   5.944   5.323 -0.4891  0.0525 -0.4176
   44MOL0     C 5819  10.310   5.930   5.432  0.3579  0.1383 -0.0075
   44MOL0     C 5820  10.361   5.976   5.574 -0.7280  0.8839  0.2237
   44MOL0     C 5821  10.254   6.060   5.650  0.5376 -0.2570 -0.0846
   44MOL0     N 5822  10.305   6.090   5.782  0.7881 -0.2579  0.7168
   44MOL0     C 5823  10.398   6.189   5.807 -0.3179 -0.2561 -0.4937
   44MOL0     C 5824  10.415   6.187   5.941  0.5217  0.4774 -0.3706
   44MOL0     C 5825  10.514   6.271   6.016 -0.4789  0.8435  0.8926
   44MOL0     C 5826  10.460   6.318   6.144 -0.3826  0.0016  0.4219
   44MOL0     C 5827  10.540   6.436   6.197  0.2551  1.1716 -0.1936
   44MOL0     C 5828  10.681   6.405   6.237  0.2460  0.8091  0.7034
   44MOL0     O 5829  10.742   6.523   6.290 -0.0374 -0.7300  0.4379
   44MOL0     C 5830  10.869   6.528   6.347 -0.0849 -0.2014  0.1632
   44MOL0     C 5831  10.950   6.414   6.380  0.2757  0.1044 -0.6683
   44MOL0     C 5832  11.084   6.428   6.402 -0.1876  0.4018 -0.3869
   44MOL0     C 5833  11.141   6.552   6.408 -0.2633 -0.3732  0.2235
   44MOL0     C 5834  11.283   6.573   6.435 -0.0915 -0.4089  0.0011
   44MOL0     O 5835  11.336   6.694   6.409 -0.2584  0.0665 -0.1225
   44MOL0     C 5836  11.473   6.729   6.405 -1.0007 -0.6867 -0.0248
   44MOL0     C 5837  11.498   6.868   6.422  0.0619  0.6629  0.0477
   44MOL0     C 5838  11.630   6.910   6.420  0.3164 -0.4673  0.3332
   44MOL0     C 5839  11.733   6.821   6.382 -0.1871  0.3217 -0.8041
   44MOL0     O 5840  11.860   6.883   6.375 -0.0071 -0.6835 -0.7195
   44MOL0     C 5841  11.974   6.820   6.331 -0.5006  0.2427  0.0274
   44MOL0     C 5842  12.070   6.936   6.292 -0.3741  0.3625  0.3959
   44MOL0     C 5843  12.205   6.888   6.234  0.3125  0.6973  0.0020
   44MOL0     C 5844  12.312   6.998   6.225 -0.3615  0.0746 -0.7222
   44MOL0     C 5845  12.444   6.950   6.156  0.3493  0.4573  0.4000
   44MOL0     C 5846  12.511   6.829   6.239  0.1613 -0.8855 -0.7978
   44MOL0     C 5847  12.533   6.868   6.390 -0.0112  0.3177 -0.3152
   44MOL0     C 5848  12.599   7.004   6.423  0.0497 -0.5438 -0.7641
   44MOL0    Cl 5849  12.706   6.994   6.574 -0.0941  0.1364  0.1298
   44MOL0     C 5850  11.711   6.689   6.366  0.0568  0.1842 -0.2979
   44MOL0     C 5851  11.582   6.640   6.381  1.0670 -0.0851 -0.9016
   44MOL0     O 5852  11.341   6.476   6.493 -0.3215 -0.2094  0.5056
   44MOL0     C 5853  11.058   6.665   6.394 -0.8620 -0.2354  0.0273
   44MOL0     C 5854  10.931   6.652   6.354 -0.2963 -0.8131 -0.5274
   44MOL0     N 5855  10.313   6.103   5.995 -0.1904  0.1397  0.7665
   44MOL0     N 5856  10.241   6.049   5.896 -0.3523 -0.0564 -0.6215
   44MOL0     C 5857  10.073   5.521   4.703  1.1451 -1.1546  0.3849
   44MOL0     C 5858   9.948   5.491   4.640 -1.0012 -0.1004  0.4734
   44MOL0     C 5859   9.505   5.527   4.539 -0.2129 -0.2985 -1.1220
   44MOL0     C 5860   9.520   5.415   4.455 -0.5683  0.1128 -0.4248
   44MOL0     C 5861   9.416   5.373   4.377  0.3489 -0.4593  0.0382
   44MOL0     C 5862   9.292   5.435   4.384  0.4020  0.6921  0.2361
   44MOL0     O 5863   9.201   5.401   4.292  0.2993  0.1423 -0.2126
   44MOL0     C 5864   9.060   5.425   4.307  0.2210  0.0818  0.3241
   44MOL0     C 5865   8.997   5.328   4.409 -1.2140 -0.3075 -0.4907
   44MOL0     C 5866   9.018   5.171   4.384  0.3364  0.0827 -0.1511
   44MOL0     C 5867   8.984   5.115   4.239 -1.0771  0.6805 -0.2829
   44MOL0     C 5868   8.872   5.178   4.182 -0.2154 -0.6061 -0.0061
   44MOL0     C 5869   8.778   5.236   4.133 -0.2428 -0.1219 -0.1227
   44MOL0     C 5870   9.269   5.542   4.484 -0.6908  0.0497  0.1903
   44MOL0     C 5871   9.378   5.588   4.562  0.4230  0.3468  0.3746
   44MOL0     C 5872   9.345   5.701   4.669 -0.4721  0.1231 -0.1780
   44MOL0     H 5873   9.745   5.587   4.903  0.9968 -0.4677  1.9051
   44MOL0     H 5874   9.954   5.625   5.003 -1.9266 -0.5561  0.7898
   44MOL0     H 5875  10.204   5.786   4.978  1.0334 -0.0871 -1.0241
   44MOL0     H 5876  10.126   5.671   5.085 -1.8825 -1.3331 -2.5033
   44MOL0     H 5877  10.418   5.647   5.024  0.0522 -0.5637 -0.5354
   44MOL0     H 5878  10.322   5.536   5.120  3.4939 -0.3236  0.7167
   44MOL0     H 5879  10.433   5.680   5.283  0.8720 -0.9195 -1.6975
   44MOL0     H 5880  10.262   5.707   5.268  0.8488  0.1753  1.0183
   44MOL0     H 5881  10.472   5.876   5.124  0.1640 -2.2603 -1.3101
   44MOL0     H 5882  10.303   5.925   5.143 -1.6350 -0.9155  2.2924
   44MOL0     H 5883  10.516   5.897   5.352 -1.5589 -1.6258  0.5594
   44MOL0     H 5884  10.436   6.050   5.299  1.4792  0.2613  1.4578
   44MOL0     H 5885  10.232   6.000   5.402  1.4948  1.1390 -0.7413
   44MOL0     H 5886  10.274   5.828   5.442 -1.6038  1.0135  3.4113
   44MOL0     H 5887  10.454   6.033   5.563  0.5131 -0.7551  1.6350
   44MOL0     H 5888  10.388   5.883   5.626 -1.4193 -1.3240 -3.1151
   44MOL0     H 5889  10.214   6.148   5.599 -1.1720  0.0840  1.7487
   44MOL0     H 5890  10.163   5.999   5.654 -0.9194  1.5337 -2.6590
   44MOL0     H 5891  10.450   6.240   5.727  1.0244 -2.6691 -1.2545
   44MOL0     H 5892  10.596   6.201   6.034  0.6007  2.0717  0.8577
   44MOL0     H 5893  10.545   6.355   5.953 -0.3773  1.0067  1.1600
   44MOL0     H 5894  10.359   6.358   6.130  0.3792  1.4262 -1.5222
   44MOL0     H 5895  10.462   6.237   6.217  3.6519 -0.8944 -0.4632
   44MOL0     H 5896  10.484   6.483   6.278  1.8796  2.8298  0.0218
   44MOL0     H 5897  10.536   6.515   6.122  1.9742  0.7493 -0.7707
   44MOL0     H 5898  10.739   6.362   6.154 -2.8727  0.8155 -1.6336
   44MOL0     H 5899  10.668   6.332   6.317  2.5589 -1.4181 -0.8021
   44MOL0     H 5900  10.904   6.316   6.373 -2.7616  1.4951 -2.0325
   44MOL0     H 5901  11.147   6.341   6.418  1.6337  1.4869 -1.3689
   44MOL0     H 5902  11.418   6.938   6.440 -1.7661 -1.3594  0.2096
   44MOL0     H 5903  11.661   7.011   6.443 -0.6011 -0.0833 -0.0489
   44MOL0     H 5904  12.014   6.750   6.405  1.7358  0.7158 -0.6423
   44MOL0     H 5905  11.967   6.760   6.240 -1.4616  0.7134 -0.2315
   44MOL0     H 5906  12.034   6.996   6.207 -1.4820 -0.9005 -0.0691
   44MOL0     H 5907  12.089   6.997   6.381 -1.7498  0.5890  0.5568
   44MOL0     H 5908  12.250   6.799   6.279 -1.1943  0.3321  0.8563
   44MOL0     H 5909  12.185   6.868   6.128  0.1832  4.0418 -0.6930
   44MOL0     H 5910  12.352   7.039   6.319  0.9914 -0.2129 -1.1589
   44MOL0     H 5911  12.271   7.091   6.184  1.6756  1.1565 -0.4418
   44MOL0     H 5912  12.515   7.034   6.147  1.7130 -0.5621  1.2122
   44MOL0     H 5913  12.420   6.913   6.057  0.4036 -3.8958  1.8088
   44MOL0     H 5914  12.448   6.740   6.234  0.2080 -1.0672  1.0623
   44MOL0     H 5915  12.612   6.805   6.204  0.6326 -3.6095  1.9852
   44MOL0     H 5916  12.603   6.789   6.416  0.8924  0.4243 -2.2455
   44MOL0     H 5917  12.439   6.850   6.444  0.1779  2.1446  0.7092
   44MOL0     H 5918  12.666   7.022   6.338  1.3986 -2.9664 -0.3129
   44MOL0     H 5919  12.529   7.087   6.430  0.2189 -0.3145 -1.5684
   44MOL0     H 5920  11.789   6.626   6.326 -3.0218 -2.8811 -2.0872
   44MOL0     H 5921  11.566   6.535   6.359  0.0438 -0.9300  3.0708
   44MOL0     H 5922  11.097   6.766   6.395 -1.8289  0.1605 -0.8639
   44MOL0     H 5923  10.876   6.740   6.322  3.1601  0.2402 -4.5748
   44MOL0     H 5924  10.154   5.510   4.632  1.2196  1.9033 -0.1580
   44MOL0     H 5925   9.949   5.451   4.539 -0.0552 -0.5070  0.6377
   44MOL0     H 5926   9.620   5.374   4.448 -0.0120  1.3562  0.0503
   44MOL0     H 5927   9.431   5.293   4.305 -0.8403  0.0990 -0.8743
   44MOL0     H 5928   9.010   5.414   4.210  1.6960 -2.2628 -0.2852
   44MOL0     H 5929   9.044   5.529   4.335 -0.3919 -0.2784  1.3469
   44MOL0     H 5930   8.893   5.361   4.413 -0.3464  2.5815  0.8429
   44MOL0     H 5931   9.029   5.350   4.512 -1.7184 -2.4778  0.1837
   44MOL0     H 5932   8.960   5.119   4.460  0.4683 -2.8100 -1.8629
   44MOL0     H 5933   9.121   5.141   4.405  0.5132  1.3389  0.9189
   44MOL0     H 5934   9.063   5.153   4.174 -2.3381  2.9328 -0.5960
   44MOL0     H 5935   8.995   5.006   4.238  1.8304  0.8588 -2.7746
   44MOL0     H 5936   8.680   5.276   4.111 -0.5173 -0.6197  0.1890
   44MOL0     H 5937   9.170   5.586   4.484 -1.4842 -1.6527  1.2330
   44MOL0     H 5938   9.249   5.674   4.712 -1.1083  0.6813 -1.2119
   44MOL0     H 5939   9.420   5.726   4.744  1.4471  0.4083 -2.0790
   44MOL0     H 5940   9.328   5.794   4.614  0.7781  1.0112  0.8739
   45MOL0     O 5941   7.509  10.963   0.666  0.5953  0.4212 -0.5470
   45MOL0     C 5942   7.445  10.966   0.775 -0.2900  0.5122  0.1886
   45MOL0     O 5943   7.490  10.913   0.895 -0.3467  0.8136 -0.5129
   45MOL0     C 5944   7.619  10.881   0.921  0.9320 -0.6028  0.0576
   45MOL0     C 5945   7.640  10.796   1.028  0.7204 -0.3054  0.4797
   45MOL0     C 5946   7.762  10.765   1.078 -0.1627  1.1497  0.6063
   45MOL0     C 5947   7.876  10.800   1.010 -0.0506  0.4919  0.6257
   45MOL0     O 5948   7.994  10.764   1.058 -0.3746  0.1371  0.7422
   45MOL0     C 5949   8.028  10.624   1.087 -0.4880 -0.3513 -0.2034
   45MOL0     C 5950   8.108  10.651   1.212 -0.1577 -0.9694 -0.5509
   45MOL0     C 5951   8.252  10.651   1.190  0.0552 -0.8795 -0.0432
   45MOL0     C 5952   8.329  10.684   1.322 -0.8631  0.1385  0.5554
   45MOL0     C 5953   8.483  10.698   1.298 -0.3331 -0.1886  0.3792
   45MOL0     C 5954   8.548  10.552   1.312  0.3649 -0.0644  1.1566
   45MOL0     C 5955   8.705  10.545   1.284 -0.4622  0.1362  0.2740
   45MOL0     C 5956   8.781  10.649   1.368  0.0001 -0.0523 -0.2063
   45MOL0     N 5957   8.747  10.645   1.509 -1.3471  0.1266 -0.5029
   45MOL0     C 5958   8.783  10.551   1.609  0.5401 -0.2860  0.4192
   45MOL0     C 5959   8.737  10.609   1.718  0.0270  0.3953 -0.2816
   45MOL0     C 5960   8.748  10.547   1.857 -0.4891 -0.0345 -0.5183
   45MOL0     C 5961   8.866  10.603   1.933 -0.2991  1.0765  0.1316
   45MOL0     C 5962   8.874  10.548   2.075 -0.0590 -0.4862 -0.5823
   45MOL0     C 5963   8.998  10.588   2.155 -0.3211  0.1839  1.2591
   45MOL0     O 5964   9.110  10.512   2.110 -0.2327  0.1304  0.0977
   45MOL0     C 5965   9.215  10.488   2.192  0.7260 -0.7366 -1.0313
   45MOL0     C 5966   9.218  10.559   2.317 -0.1663 -0.0716  0.3015
   45MOL0     C 5967   9.331  10.542   2.403 -0.0273 -0.0459 -1.2059
   45MOL0     C 5968   9.423  10.449   2.374 -0.1728  0.1979 -0.5826
   45MOL0     C 5969   9.547  10.436   2.453 -0.0825 -0.9664 -0.8760
   45MOL0     O 5970   9.561  10.533   2.549 -0.4421  0.1594 -0.4439
   45MOL0     C 5971   9.654  10.530   2.649  0.6706  0.0314  0.3768
   45MOL0     C 5972   9.694  10.661   2.700  0.2515 -0.1432 -0.5072
   45MOL0     C 5973   9.787  10.664   2.803 -0.4530 -0.2335  0.7160
   45MOL0     C 5974   9.822  10.544   2.869  0.4732  0.4366  0.4920
   45MOL0     O 5975   9.904  10.550   2.980  0.0211 -0.3662 -0.7382
   45MOL0     C 5976   9.860  10.643   3.082  0.6303  1.1215  0.4899
   45MOL0     C 5977   9.875  10.567   3.217  0.2784  0.0624 -0.1995
   45MOL0     C 5978  10.015  10.557   3.261  0.3589  0.7352 -0.9619
   45MOL0     C 5979  10.012  10.526   3.411  0.6760  0.1517 -0.1583
   45MOL0     C 5980  10.154  10.529   3.464  0.5454 -0.0490  0.4852
   45MOL0     C 5981  10.143  10.518   3.620  0.1413  0.2093  0.5029
   45MOL0     C 5982  10.278  10.516   3.687 -0.0264 -0.1862  0.0484
   45MOL0     C 5983  10.278  10.474   3.829  0.3672 -0.9246 -0.2383
   45MOL0    Cl 5984  10.450  10.506   3.869 -0.2808  0.3108  0.2540
   45MOL0     C 5985   9.800  10.419   2.812  1.4332  0.1154  0.6814
   45MOL0     C 5986   9.706  10.411   2.703 -0.2393  0.3994  0.4473
   45MOL0     O 5987   9.623  10.337   2.433  1.2748 -0.6527 -0.1763
   45MOL0     C 5988   9.409  10.372   2.253  0.3398 -0.6227 -0.6490
   45MOL0     C 5989   9.304  10.393   2.169  0.3793  0.0689 -0.4663
   45MOL0     N 5990   8.676  10.725   1.696  1.0112  0.2423 -0.1095
   45MOL0     N 5991   8.676  10.745   1.570  0.2411  0.6610  0.3192
   45MOL0     C 5992   7.861  10.893   0.897 -0.0083  1.2279 -0.1739
   45MOL0     C 5993   7.730  10.939   0.861 -0.4678  0.2453  0.2853
   45MOL0     C 5994   7.303  10.996   0.772  0.7413 -0.1179  0.0812
   45MOL0     C 5995   7.240  10.983   0.646  0.6749 -0.4163  0.8713
   45MOL0     C 5996   7.105  11.007   0.632 -0.3716 -0.3377  0.3652
   45MOL0     C 5997   7.029  11.047   0.742 -0.0544 -0.7424  0.1243
   45MOL0     O 5998   6.887  11.053   0.738  0.7244 -0.0237  0.1836
   45MOL0     C 5999   6.811  10.955   0.672 -0.1654  1.1504  0.9477
   45MOL0     C 6000   6.669  10.994   0.682 -0.0136  0.8263  0.5438
   45MOL0     C 6001   6.564  10.892   0.631  0.0305 -0.9850  0.7585
   45MOL0     C 6002   6.422  10.927   0.646 -0.2651 -0.8081 -0.6621
   45MOL0     C 6003   6.383  11.053   0.593  0.0234 -0.0304  0.0103
   45MOL0     C 6004   6.356  11.163   0.546 -0.5323  0.4290 -0.1374
   45MOL0     C 6005   7.091  11.072   0.856  0.1397  0.3780 -0.5402
   45MOL0     C 6006   7.225  11.044   0.881  0.5569 -0.7513  0.3599
   45MOL0     C 6007   7.279  11.071   1.013 -0.2786  0.0332 -0.4698
   45MOL0     H 6008   7.550  10.753   1.072 -0.8118  1.9930 -0.1993
   45MOL0     H 6009   7.778  10.693   1.158 -0.8425 -0.8564 -0.9832
   45MOL0     H 6010   7.940  10.563   1.109 -1.0518  0.8233  0.9101
   45MOL0     H 6011   8.095  10.567   1.023 -0.7323  0.9404 -1.6573
   45MOL0     H 6012   8.093  10.563   1.275 -1.7624 -1.5205 -1.6494
   45MOL0     H 6013   8.068  10.734   1.272 -0.5217 -2.2636  1.0784
   45MOL0     H 6014   8.275  10.725   1.112 -1.2153  3.3643  3.2362
   45MOL0     H 6015   8.271  10.549   1.157 -1.0117 -1.8686  2.2098
   45MOL0     H 6016   8.306  10.787   1.351  3.2486  1.1766  0.7670
   45MOL0     H 6017   8.306  10.618   1.405  0.3173  0.4646  1.1692
   45MOL0     H 6018   8.490  10.730   1.194 -0.8427  0.2390  0.4675
   45MOL0     H 6019   8.535  10.773   1.359  1.5132 -1.7957  0.8617
   45MOL0     H 6020   8.532  10.516   1.414  2.9956 -0.9763  1.3219
   45MOL0     H 6021   8.504  10.480   1.243 -0.1689 -0.1706  1.6030
   45MOL0     H 6022   8.734  10.564   1.180  0.4437  1.6318  0.7645
   45MOL0     H 6023   8.744  10.446   1.309  0.6503  0.4007 -0.3451
   45MOL0     H 6024   8.888  10.645   1.349  0.0636 -0.9578  0.2614
   45MOL0     H 6025   8.758  10.751   1.336  3.9869  1.0661  0.0517
   45MOL0     H 6026   8.844  10.461   1.601  0.8934  0.0292 -0.7375
   45MOL0     H 6027   8.658  10.562   1.916 -0.6097  0.0371 -0.7213
   45MOL0     H 6028   8.774  10.441   1.846  1.2025  0.2857  0.1192
   45MOL0     H 6029   8.961  10.575   1.886  0.0358 -0.1438  1.4917
   45MOL0     H 6030   8.843  10.709   1.950 -0.4263  1.0781 -0.0428
   45MOL0     H 6031   8.868  10.441   2.053 -0.1595 -0.0018 -3.3623
   45MOL0     H 6032   8.786  10.579   2.133 -0.2006 -1.1723 -0.4312
   45MOL0     H 6033   8.989  10.571   2.263  3.2020 -0.0781  1.6263
   45MOL0     H 6034   9.008  10.697   2.149  0.0410  0.2251  2.3350
   45MOL0     H 6035   9.153  10.640   2.349  2.3232  1.6933  1.2413
   45MOL0     H 6036   9.339  10.597   2.496  1.3919 -0.7863 -0.8573
   45MOL0     H 6037   9.641  10.751   2.669 -1.2936 -1.4443 -1.8839
   45MOL0     H 6038   9.821  10.759   2.842  0.3473 -0.3546  0.3192
   45MOL0     H 6039   9.932  10.725   3.085 -0.2943  1.9318  2.9581
   45MOL0     H 6040   9.763  10.689   3.064  0.6003  0.3002 -1.8317
   45MOL0     H 6041   9.816  10.624   3.289  2.9654  2.0253  0.5942
   45MOL0     H 6042   9.824  10.470   3.225  0.3677  0.0249 -0.0857
   45MOL0     H 6043  10.065  10.468   3.220 -0.3016 -0.6075  1.0195
   45MOL0     H 6044  10.068  10.652   3.247  0.5797  0.5532 -1.3733
   45MOL0     H 6045   9.981  10.424   3.433  2.4251 -0.0758  1.4787
   45MOL0     H 6046   9.955  10.603   3.464  1.9134  0.7859  0.2852
   45MOL0     H 6047  10.200  10.624   3.434 -0.7785  0.1500 -1.0473
   45MOL0     H 6048  10.206  10.445   3.418 -0.7834 -2.2022  2.6747
   45MOL0     H 6049  10.076  10.593   3.663  0.6287 -0.3282  2.2688
   45MOL0     H 6050  10.111  10.416   3.644  2.4175 -0.4547  0.8686
   45MOL0     H 6051  10.315  10.619   3.685  0.4731 -0.3776 -0.5407
   45MOL0     H 6052  10.344  10.454   3.626  3.0021  1.9243  0.9364
   45MOL0     H 6053  10.219  10.550   3.880  1.8701 -0.4382  0.8272
   45MOL0     H 6054  10.257  10.369   3.850 -0.7295 -0.8569 -0.9301
   45MOL0     H 6055   9.845  10.339   2.869 -2.2682 -1.3515  1.9020
   45MOL0     H 6056   9.676  10.314   2.666 -2.3094  1.4445 -0.7692
   45MOL0     H 6057   9.488  10.302   2.228  2.4547  1.0598  0.9648
   45MOL0     H 6058   9.288  10.328   2.083 -1.8360  1.0175 -0.8471
   45MOL0     H 6059   7.940  10.940   0.840 -0.4004  2.4153  0.2415
   45MOL0     H 6060   7.721  11.022   0.793 -0.8314  1.6138  1.9303
   45MOL0     H 6061   7.306  10.958   0.564  0.8613 -2.8626  1.7118
   45MOL0     H 6062   7.047  10.985   0.543 -0.0108 -0.0235  0.0471
   45MOL0     H 6063   6.818  10.859   0.723 -0.1471 -0.1522 -1.3807
   45MOL0     H 6064   6.829  10.945   0.564  0.5179 -1.3897  1.2415
   45MOL0     H 6065   6.655  11.086   0.623 -1.1375 -0.2164 -0.9072
   45MOL0     H 6066   6.641  11.028   0.782 -1.8201  1.9715 -0.2923
   45MOL0     H 6067   6.591  10.806   0.692 -1.6622 -3.4044 -1.6328
   45MOL0     H 6068   6.569  10.871   0.524  1.1335  0.2575  0.5482
   45MOL0     H 6069   6.363  10.846   0.602 -0.7736 -0.9562  0.2655
   45MOL0     H 6070   6.405  10.934   0.754  3.3358  2.0619 -0.0822
   45MOL0     H 6071   6.341  11.261   0.505  0.2147  0.5522 -0.1376
   45MOL0     H 6072   7.026  11.106   0.935  1.3397  0.7273  0.3225
   45MOL0     H 6073   7.383  11.104   1.009  0.0922 -0.7696  1.2390
   45MOL0     H 6074   7.226  11.151   1.067  0.4695  1.0016 -1.1291
   45MOL0     H 6075   7.276  10.981   1.075 -2.4141 -0.2744 -0.9515
   46MOL0     O 6076   8.455   4.147   9.600  0.0143 -0.9877  0.7729
   46MOL0     C 6077   8.518   4.178   9.699 -0.8848 -0.2084  0.2269
   46MOL0     O 6078   8.461   4.208   9.812 -0.0801  0.4317  0.1995
   46MOL0     C 6079   8.322   4.186   9.814 -0.5428  0.3346  0.4466
   46MOL0     C 6080   8.226   4.278   9.762 -0.5695  0.0167 -0.4410
   46MOL0     C 6081   8.087   4.249   9.770 -0.4587  0.2636  0.5909
   46MOL0     C 6082   8.040   4.132   9.825 -0.7203  0.4776 -0.4601
   46MOL0     O 6083   7.910   4.097   9.838 -0.0682 -0.0639 -0.5277
   46MOL0     C 6084   7.806   4.184   9.792  0.3079  0.0592  0.0490
   46MOL0     C 6085   7.681   4.100   9.791 -0.2593  0.4031 -0.8451
   46MOL0     C 6086   7.562   4.180   9.748  0.5344  0.1186 -0.6360
   46MOL0     C 6087   7.430   4.091   9.749  0.3607 -0.5819  0.8858
   46MOL0     C 6088   7.301   4.167   9.756  0.2804 -0.1494 -0.8990
   46MOL0     C 6089   7.179   4.083   9.734 -0.3569  0.5118 -0.2672
   46MOL0     C 6090   7.056   4.162   9.741  1.0574  0.3148 -0.2096
   46MOL0     C 6091   6.976   4.134   9.860  0.0256 -0.1288  0.0345
   46MOL0     N 6092   7.027   4.204   9.984  0.2744 -0.7442 -0.0298
   46MOL0     C 6093   7.103   4.142  10.084 -0.2708 -0.3117  0.6768
   46MOL0     C 6094   7.136   4.243  10.165 -1.6910 -0.3574  0.4767
   46MOL0     C 6095   7.219   4.225  10.285  0.5178  0.0350  0.1717
   46MOL0     C 6096   7.358   4.286  10.259 -0.2419 -0.2297  0.0701
   46MOL0     C 6097   7.415   4.227  10.132 -0.9447 -0.3466 -0.5798
   46MOL0     C 6098   7.564   4.268  10.127  0.1345 -0.5970  0.7172
   46MOL0     O 6099   7.641   4.167  10.193 -0.1591 -0.1710  0.6202
   46MOL0     C 6100   7.775   4.187  10.207 -0.3712  0.5182 -0.3641
   46MOL0     C 6101   7.866   4.077  10.214  0.4360  0.5068 -0.3162
   46MOL0     C 6102   8.004   4.092  10.201  0.3920 -0.1871 -0.9433
   46MOL0     C 6103   8.058   4.217  10.224 -0.1504  1.2339  0.5427
   46MOL0     C 6104   8.204   4.220  10.247 -0.0039 -0.3699 -0.1015
   46MOL0     O 6105   8.267   4.337  10.259 -0.5791  0.2920 -0.6825
   46MOL0     C 6106   8.406   4.351  10.263  0.3092  0.1774 -0.9806
   46MOL0     C 6107   8.474   4.434  10.352 -0.0063 -0.2387 -0.2821
   46MOL0     C 6108   8.616   4.448  10.341 -0.8035  0.4576 -0.3159
   46MOL0     C 6109   8.700   4.377  10.257 -0.4792  0.2773 -0.1474
   46MOL0     O 6110   8.835   4.400  10.247  0.1355  0.6394 -0.4756
   46MOL0     C 6111   8.903   4.394  10.121 -0.0218  0.3764  0.2087
   46MOL0     C 6112   9.048   4.370  10.169 -0.0336 -0.2034 -0.7315
   46MOL0     C 6113   9.099   4.237  10.124  0.3319  0.3658  0.0146
   46MOL0     C 6114   9.048   4.138  10.230 -0.4750  0.2585  0.4109
   46MOL0     C 6115   9.077   3.994  10.184  0.6561 -0.0487  0.2532
   46MOL0     C 6116   9.026   3.885  10.276  0.9860  0.4458 -0.5696
   46MOL0     C 6117   9.099   3.748  10.254  0.0361 -0.2976 -0.5406
   46MOL0     C 6118   9.057   3.642  10.357 -0.8735 -0.3578 -0.2306
   46MOL0    Cl 6119   8.887   3.591  10.323  0.4667  0.3919  0.2641
   46MOL0     C 6120   8.633   4.291  10.167  0.5905  0.0069 -0.0043
   46MOL0     C 6121   8.487   4.281  10.173 -0.5156  0.1055 -0.3975
   46MOL0     O 6122   8.261   4.112  10.252 -0.7740 -0.0083 -0.1584
   46MOL0     C 6123   7.970   4.331  10.231 -0.5300 -0.8987 -0.2304
   46MOL0     C 6124   7.835   4.312  10.231  0.5338 -0.1365  0.6589
   46MOL0     N 6125   7.094   4.360  10.119  0.3858  0.2697 -0.4944
   46MOL0     N 6126   7.031   4.343  10.004 -0.2564  0.6752 -0.0823
   46MOL0     C 6127   8.132   4.042   9.871 -0.0135  0.2177 -0.4238
   46MOL0     C 6128   8.271   4.064   9.878 -0.5970 -0.8770 -0.1558
   46MOL0     C 6129   8.659   4.214   9.689 -0.3529 -0.1740  0.8603
   46MOL0     C 6130   8.707   4.321   9.768  0.4337 -0.5136 -0.6092
   46MOL0     C 6131   8.836   4.356   9.756  0.8225 -0.0489 -0.2464
   46MOL0     C 6132   8.933   4.276   9.691  0.7680  0.2426  0.1237
   46MOL0     O 6133   9.072   4.298   9.690  0.2041  0.6358 -0.4523
   46MOL0     C 6134   9.129   4.436   9.668  1.0232  1.1673 -0.0235
   46MOL0     C 6135   9.235   4.458   9.772  0.9064 -0.0324 -0.0902
   46MOL0     C 6136   9.350   4.356   9.772 -0.5288 -0.5564  0.6078
   46MOL0     C 6137   9.433   4.371   9.895  1.1011  0.2965  0.4812
   46MOL0     C 6138   9.492   4.502   9.889 -0.1092  1.0905 -0.1399
   46MOL0     C 6139   9.533   4.615   9.885  0.3882 -0.2710  0.7353
   46MOL0     C 6140   8.882   4.165   9.621 -0.1500  0.6198  0.1114
   46MOL0     C 6141   8.746   4.127   9.618 -0.1321 -0.8738  0.6883
   46MOL0     C 6142   8.705   3.999   9.547  0.1295 -0.2791 -0.1360
   46MOL0     H 6143   8.268   4.370   9.720 -0.4478  0.7179  1.1644
   46MOL0     H 6144   8.022   4.321   9.722  2.9552  3.2253  0.0012
   46MOL0     H 6145   7.802   4.284   9.837  1.6549  0.1930 -0.0807
   46MOL0     H 6146   7.820   4.206   9.686  2.6528  1.8305  0.6450
   46MOL0     H 6147   7.669   4.052   9.889  1.4603  3.1191  0.8438
   46MOL0     H 6148   7.707   4.022   9.719 -0.9015  1.0109 -1.7592
   46MOL0     H 6149   7.578   4.226   9.651 -0.7890  1.6336 -0.1850
   46MOL0     H 6150   7.540   4.264   9.815  1.4835  1.9060 -2.4761
   46MOL0     H 6151   7.431   4.035   9.655  2.4347  2.4328 -1.0988
   46MOL0     H 6152   7.431   4.015   9.828 -1.4547 -0.9223  0.6268
   46MOL0     H 6153   7.286   4.231   9.843  0.7929  1.9478 -2.2766
   46MOL0     H 6154   7.310   4.237   9.672  2.8231  2.9369  1.6651
   46MOL0     H 6155   7.187   4.034   9.637 -0.8355 -0.7171  0.3016
   46MOL0     H 6156   7.169   4.004   9.809 -1.6296 -0.7907 -1.7495
   46MOL0     H 6157   6.998   4.138   9.652 -0.2155  0.4331  0.5650
   46MOL0     H 6158   7.069   4.270   9.726 -1.2609  0.6766  0.1015
   46MOL0     H 6159   6.881   4.175   9.824  0.9071 -0.5645 -3.0330
   46MOL0     H 6160   6.956   4.029   9.881 -0.4139  0.0650  0.6385
   46MOL0     H 6161   7.121   4.036  10.093 -1.6321 -0.4593  2.2868
   46MOL0     H 6162   7.166   4.255  10.376 -1.5924  2.2458 -1.6368
   46MOL0     H 6163   7.238   4.120  10.307 -0.5288  0.1330  1.7259
   46MOL0     H 6164   7.358   4.394  10.242 -4.1076 -0.4100 -2.0256
   46MOL0     H 6165   7.417   4.265  10.349  0.5690  2.1320  0.1833
   46MOL0     H 6166   7.356   4.250  10.043 -3.7365 -2.5648  0.5561
   46MOL0     H 6167   7.415   4.118  10.137 -0.0858 -0.4033 -1.3815
   46MOL0     H 6168   7.582   4.367  10.171 -0.1023 -0.0033 -0.5006
   46MOL0     H 6169   7.603   4.285  10.027  1.9866  2.9318  1.8655
   46MOL0     H 6170   7.816   3.983  10.193  0.1671  1.3489 -4.2029
   46MOL0     H 6171   8.061   4.003  10.176 -0.4882 -0.4877 -1.9734
   46MOL0     H 6172   8.415   4.494  10.420 -0.8784 -0.5108 -0.7835
   46MOL0     H 6173   8.670   4.524  10.396 -0.6207 -1.4532  2.2989
   46MOL0     H 6174   8.871   4.318  10.049  1.6794  0.9847 -1.2730
   46MOL0     H 6175   8.893   4.494  10.078  3.1381  1.4359  1.6360
   46MOL0     H 6176   9.116   4.447  10.130 -0.3760  0.4475 -0.0523
   46MOL0     H 6177   9.066   4.386  10.275 -2.2588 -0.0295 -0.3399
   46MOL0     H 6178   9.065   4.211  10.024  2.1336 -1.4037 -0.1989
   46MOL0     H 6179   9.208   4.228  10.128  0.1659 -2.6971  0.1601
   46MOL0     H 6180   8.940   4.149  10.246 -0.6279  0.1180 -0.4423
   46MOL0     H 6181   9.091   4.160  10.328  1.3221  0.4836 -0.4004
   46MOL0     H 6182   9.186   3.981  10.186  0.4980 -1.6486 -0.2182
   46MOL0     H 6183   9.044   3.972  10.082 -2.4933 -1.9570  1.5458
   46MOL0     H 6184   9.037   3.923  10.378  2.1196  1.6014 -1.1049
   46MOL0     H 6185   8.920   3.867  10.257  1.2362 -1.3673 -0.4797
   46MOL0     H 6186   9.208   3.757  10.260 -0.0048 -0.5476  0.8106
   46MOL0     H 6187   9.067   3.702  10.160  0.4465  2.2556 -2.0135
   46MOL0     H 6188   9.124   3.556  10.358 -0.2192  0.1263 -1.0127
   46MOL0     H 6189   9.063   3.694  10.453  0.1792  1.0624 -1.0245
   46MOL0     H 6190   8.687   4.230  10.096 -0.4503 -3.0215  1.6181
   46MOL0     H 6191   8.439   4.208  10.107 -0.1247 -0.9874  0.5038
   46MOL0     H 6192   8.019   4.426  10.251 -0.7611 -0.9591  0.6845
   46MOL0     H 6193   7.783   4.405  10.254  2.4330  0.8329  1.2389
   46MOL0     H 6194   8.094   3.951   9.915 -1.5361  1.3365  0.6765
   46MOL0     H 6195   8.358   4.014   9.920  2.4759  2.0088 -2.4544
   46MOL0     H 6196   8.640   4.385   9.825  1.0999 -1.0989  0.8585
   46MOL0     H 6197   8.871   4.437   9.820 -0.2979  1.1636 -1.1434
   46MOL0     H 6198   9.051   4.512   9.676 -2.6477 -1.9287 -2.2026
   46MOL0     H 6199   9.167   4.448   9.566  5.1329  3.3561  1.5605
   46MOL0     H 6200   9.192   4.449   9.872  0.4103  3.2267  0.0932
   46MOL0     H 6201   9.264   4.564   9.766  0.5810  0.0810  0.3692
   46MOL0     H 6202   9.406   4.359   9.678 -2.3043 -1.3146 -0.5206
   46MOL0     H 6203   9.314   4.254   9.782  0.4860 -1.0752 -0.7445
   46MOL0     H 6204   9.366   4.355   9.980  0.3975  0.3605 -0.0606
   46MOL0     H 6205   9.514   4.298   9.896 -1.1624 -2.3554  0.4686
   46MOL0     H 6206   9.548   4.720   9.871 -2.3584 -0.0227 -1.2893
   46MOL0     H 6207   8.961   4.104   9.579 -0.7694 -2.0919  2.5794
   46MOL0     H 6208   8.765   3.912   9.574 -0.9743 -1.0013  0.0905
   46MOL0     H 6209   8.603   3.973   9.579 -1.2858  1.8570 -2.5307
   46MOL0     H 6210   8.705   4.006   9.437  0.8986  1.9437 -0.0392
   47MOL0     O 6211   1.540   6.415   5.248  0.1062 -0.7974  0.7532
   47MOL0     C 6212   1.512   6.418   5.364 -0.3216  0.5832  0.3713
   47MOL0     O 6213   1.595   6.406   5.466  0.2825  0.0917  0.0380
   47MOL0     C 6214   1.731   6.383   5.447 -0.4795 -0.0828 -0.2060
   47MOL0     C 6215   1.771   6.283   5.359 -0.2959 -0.3130 -0.9599
   47MOL0     C 6216   1.902   6.254   5.339 -0.3877  0.1170 -0.4236
   47MOL0     C 6217   2.004   6.314   5.415  0.0362  0.3800 -0.7603
   47MOL0     O 6218   2.134   6.277   5.391 -0.0054 -0.2729  0.1844
   47MOL0     C 6219   2.235   6.313   5.485 -0.1616 -0.0670 -0.5080
   47MOL0     C 6220   2.349   6.215   5.444  0.0711 -0.0372  1.1342
   47MOL0     C 6221   2.476   6.243   5.523  0.2687  0.0520 -0.6239
   47MOL0     C 6222   2.488   6.210   5.671  0.1169 -0.0448 -0.7850
   47MOL0     C 6223   2.624   6.217   5.721  0.8480  0.2661 -0.3466
   47MOL0     C 6224   2.645   6.144   5.852  1.0294 -1.3035  0.2432
   47MOL0     C 6225   2.794   6.150   5.885  0.6619 -0.2469 -0.0242
   47MOL0     C 6226   2.828   6.095   6.026  0.4684  0.2259  0.8176
   47MOL0     N 6227   2.962   6.142   6.056 -0.5350  0.5040 -0.3432
   47MOL0     C 6228   3.080   6.078   6.016 -0.0787  0.5545 -0.0585
   47MOL0     C 6229   3.177   6.148   6.078  0.8425 -0.4588  0.0870
   47MOL0     C 6230   3.318   6.101   6.073  0.0912 -0.8198 -0.1837
   47MOL0     C 6231   3.420   6.214   6.058 -0.1505 -0.6090 -0.2607
   47MOL0     C 6232   3.421   6.263   5.912 -0.5155 -0.6636 -0.4571
   47MOL0     C 6233   3.511   6.183   5.817  0.8972 -0.3942  0.1866
   47MOL0     O 6234   3.466   6.057   5.782  0.1375  0.5481 -0.1508
   47MOL0     C 6235   3.357   6.057   5.701  0.1387  0.2741  1.0281
   47MOL0     C 6236   3.340   6.148   5.589  0.4933 -0.1312 -0.6880
   47MOL0     C 6237   3.228   6.142   5.509 -0.2071 -0.1945  0.5978
   47MOL0     C 6238   3.128   6.046   5.534 -1.1746 -0.8460 -0.1493
   47MOL0     C 6239   3.016   6.035   5.440  0.3022 -0.5599 -0.5910
   47MOL0     O 6240   2.917   5.955   5.486  0.8012 -0.1583 -0.4149
   47MOL0     C 6241   2.812   5.911   5.409  0.2300  0.1475 -0.0921
   47MOL0     C 6242   2.782   5.781   5.412  0.2009  0.4090 -0.1066
   47MOL0     C 6243   2.687   5.728   5.315  0.3913  0.3788 -0.0180
   47MOL0     C 6244   2.617   5.831   5.239  0.0376 -0.5624 -0.2763
   47MOL0     O 6245   2.504   5.787   5.167  0.1851 -0.1756  0.2509
   47MOL0     C 6246   2.379   5.810   5.239 -0.4623 -0.0377  0.1910
   47MOL0     C 6247   2.257   5.737   5.179  0.1638  0.1629 -0.2267
   47MOL0     C 6248   2.131   5.793   5.247 -0.1302 -0.2221  0.0828
   47MOL0     C 6249   2.007   5.712   5.203  0.8893 -0.1072 -0.9863
   47MOL0     C 6250   1.875   5.758   5.276 -0.4630  0.2644 -0.4339
   47MOL0     C 6251   1.857   5.692   5.411 -0.4845 -0.1831  0.0532
   47MOL0     C 6252   1.714   5.711   5.470 -0.4108 -0.8660 -0.2172
   47MOL0     C 6253   1.685   5.601   5.567  0.0742  0.0904  0.0753
   47MOL0    Cl 6254   1.511   5.601   5.621  0.3998  0.1387  0.3570
   47MOL0     C 6255   2.645   5.967   5.241 -0.0298  0.1532 -0.4018
   47MOL0     C 6256   2.739   6.008   5.335  0.0091  0.3669  0.4486
   47MOL0     O 6257   3.026   6.085   5.330 -0.5431 -0.4237 -0.1892
   47MOL0     C 6258   3.143   5.965   5.645  0.1083  0.2779  0.8513
   47MOL0     C 6259   3.261   5.968   5.725  0.3520  0.0033  0.4867
   47MOL0     N 6260   3.121   6.254   6.153  0.3316  0.7341 -0.1356
   47MOL0     N 6261   2.992   6.251   6.141 -0.3332  0.9402  0.1157
   47MOL0     C 6262   1.965   6.408   5.520 -0.8592 -0.0246 -0.3079
   47MOL0     C 6263   1.832   6.447   5.531  0.3438 -0.1812 -0.5546
   47MOL0     C 6264   1.366   6.445   5.387 -0.2083 -0.0180 -1.2605
   47MOL0     C 6265   1.340   6.487   5.515 -0.3161  0.5247 -0.2690
   47MOL0     C 6266   1.213   6.528   5.561 -0.2391 -0.1943 -0.3396
   47MOL0     C 6267   1.107   6.529   5.468 -0.9846  1.2189 -0.4466
   47MOL0     O 6268   0.991   6.588   5.513  0.4536 -0.4550 -0.5857
   47MOL0     C 6269   0.871   6.509   5.470  0.1307  0.2230 -1.0769
   47MOL0     C 6270   0.763   6.549   5.564  0.7864  0.4156  0.8811
   47MOL0     C 6271   0.624   6.509   5.533 -0.2432  0.5230  0.0918
   47MOL0     C 6272   0.604   6.353   5.561  0.4686 -0.4578  0.0440
   47MOL0     C 6273   0.467   6.294   5.546 -0.6631 -0.3469  0.3227
   47MOL0     C 6274   0.361   6.232   5.545  0.5895  0.4762  1.9341
   47MOL0     C 6275   1.135   6.478   5.335  0.8150  0.1521  0.9228
   47MOL0     C 6276   1.262   6.439   5.293 -0.5212 -0.2253 -0.9441
   47MOL0     C 6277   1.286   6.372   5.166 -1.0458  0.2021 -0.2447
   47MOL0     H 6278   1.696   6.229   5.302 -0.0217 -0.0900 -1.5398
   47MOL0     H 6279   1.940   6.191   5.259  2.6652 -2.9627  3.0578
   47MOL0     H 6280   2.275   6.415   5.484 -1.0166  0.2839 -0.0520
   47MOL0     H 6281   2.202   6.289   5.586 -0.6868  0.4331 -0.5501
   47MOL0     H 6282   2.362   6.224   5.336 -0.0553 -1.3947  0.9840
   47MOL0     H 6283   2.311   6.113   5.453 -1.0004  0.2343 -0.0967
   47MOL0     H 6284   2.504   6.348   5.515 -2.4586  0.9612  0.6239
   47MOL0     H 6285   2.553   6.183   5.473  1.2048 -1.3087  2.2022
   47MOL0     H 6286   2.423   6.264   5.742 -0.3868 -1.9995  0.3080
   47MOL0     H 6287   2.452   6.107   5.664  0.2826 -0.2116  0.4959
   47MOL0     H 6288   2.692   6.168   5.650  3.0851 -4.1718  4.2171
   47MOL0     H 6289   2.658   6.320   5.734  1.3101 -0.2070  2.7108
   47MOL0     H 6290   2.594   6.206   5.926  2.7872  1.7977 -0.9893
   47MOL0     H 6291   2.596   6.046   5.853 -1.7856 -0.0396 -1.0234
   47MOL0     H 6292   2.817   6.257   5.884  1.4681 -0.3216  2.6315
   47MOL0     H 6293   2.859   6.101   5.811  0.9606 -1.8571  1.2377
   47MOL0     H 6294   2.758   6.129   6.103  0.3234  2.4611 -0.2124
   47MOL0     H 6295   2.832   5.986   6.029  0.8283  0.2121  0.1342
   47MOL0     H 6296   3.089   5.983   5.963 -2.0460  0.8619 -1.0314
   47MOL0     H 6297   3.338   6.044   6.165  1.0857 -1.0282 -0.5175
   47MOL0     H 6298   3.336   6.028   5.994  0.5366 -0.7868 -0.1164
   47MOL0     H 6299   3.387   6.291   6.128  0.0188 -1.7255  1.1062
   47MOL0     H 6300   3.519   6.182   6.094  0.0435  0.0650 -0.1872
   47MOL0     H 6301   3.450   6.368   5.915 -1.0039 -0.5476  1.1361
   47MOL0     H 6302   3.319   6.259   5.870 -0.7236 -2.7001  0.1186
   47MOL0     H 6303   3.606   6.168   5.869  1.0339 -2.1361 -0.4924
   47MOL0     H 6304   3.547   6.241   5.732  1.8382 -1.9488 -0.5347
   47MOL0     H 6305   3.419   6.222   5.572  0.0799  0.3838 -0.3766
   47MOL0     H 6306   3.211   6.206   5.423  1.3667 -2.2831 -1.3833
   47MOL0     H 6307   2.833   5.711   5.477 -1.9098 -2.2169 -1.0697
   47MOL0     H 6308   2.668   5.622   5.310  0.6061  0.3494 -0.2104
   47MOL0     H 6309   2.383   5.787   5.346  0.3130 -0.2504  0.1189
   47MOL0     H 6310   2.359   5.917   5.233 -3.4821 -0.5730 -1.8104
   47MOL0     H 6311   2.256   5.755   5.071  1.0801  0.9858 -0.1205
   47MOL0     H 6312   2.274   5.629   5.188  2.6197  0.5104  0.1517
   47MOL0     H 6313   2.145   5.799   5.355  0.8449 -3.4997  0.2288
   47MOL0     H 6314   2.129   5.897   5.213  1.0840  0.0496  0.7861
   47MOL0     H 6315   2.012   5.603   5.195  0.8026 -0.1380 -0.6421
   47MOL0     H 6316   1.990   5.739   5.098 -1.9543 -0.4082 -0.6793
   47MOL0     H 6317   1.787   5.729   5.218 -0.4821 -0.1431 -0.1981
   47MOL0     H 6318   1.871   5.868   5.273 -0.9769  0.2351 -1.4245
   47MOL0     H 6319   1.876   5.584   5.410  0.1170 -0.1775  2.7738
   47MOL0     H 6320   1.939   5.722   5.477 -0.3198 -0.8490  0.1580
   47MOL0     H 6321   1.641   5.699   5.389 -2.3179  0.5760  1.1950
   47MOL0     H 6322   1.698   5.813   5.506  1.4304  0.1649 -2.0693
   47MOL0     H 6323   1.707   5.510   5.510  1.5844  1.5306 -1.7715
   47MOL0     H 6324   1.751   5.602   5.653 -1.3623 -0.0997  1.2264
   47MOL0     H 6325   2.579   6.026   5.178 -0.3498 -0.0301 -0.2413
   47MOL0     H 6326   2.778   6.109   5.327 -0.4024  0.5662  0.9001
   47MOL0     H 6327   3.066   5.896   5.677 -2.2353  0.9630 -2.7582
   47MOL0     H 6328   3.268   5.891   5.801 -1.2552 -0.7614 -0.0955
   47MOL0     H 6329   2.039   6.440   5.592 -1.2655  0.9534 -0.3065
   47MOL0     H 6330   1.808   6.523   5.606  1.0574 -1.5590  1.1390
   47MOL0     H 6331   1.417   6.482   5.591  0.4467  1.1687 -0.9708
   47MOL0     H 6332   1.194   6.560   5.663 -1.8463  2.3479 -1.3344
   47MOL0     H 6333   0.878   6.400   5.477 -0.3244  0.2983  3.5266
   47MOL0     H 6334   0.824   6.532   5.374 -1.7064  3.2510  0.4122
   47MOL0     H 6335   0.770   6.658   5.572  2.0413  0.5517 -1.3818
   47MOL0     H 6336   0.791   6.499   5.658  1.6297 -1.7664 -0.4429
   47MOL0     H 6337   0.599   6.535   5.430 -1.3778  0.8919  0.4489
   47MOL0     H 6338   0.573   6.578   5.601  2.5544  3.3169 -0.3972
   47MOL0     H 6339   0.667   6.293   5.495  2.0858  0.7404  0.4191
   47MOL0     H 6340   0.633   6.331   5.664 -1.1777 -4.3967 -0.1521
   47MOL0     H 6341   0.273   6.172   5.551  0.3786  0.3915 -0.8987
   47MOL0     H 6342   1.046   6.475   5.273  1.2360 -0.1307  0.3254
   47MOL0     H 6343   1.334   6.276   5.189  1.6473  1.3545 -0.7044
   47MOL0     H 6344   1.189   6.355   5.118 -1.9455 -1.8574  2.0680
   47MOL0     H 6345   1.351   6.424   5.096  1.4696 -0.8314  1.1852
   48MOL0     O 6346  10.294   1.871   8.929 -0.8864 -0.6152 -0.3034
   48MOL0     C 6347  10.283   1.757   8.984  0.6992  0.4286  0.1041
   48MOL0     O 6348  10.316   1.640   8.932  0.3724 -0.4743 -0.7558
   48MOL0     C 6349  10.362   1.632   8.802 -0.2127 -0.3390  0.7218
   48MOL0     C 6350  10.505   1.623   8.797 -0.4711 -0.1227  0.2764
   48MOL0     C 6351  10.569   1.634   8.676  0.4186  0.4837  0.2298
   48MOL0     C 6352  10.501   1.627   8.552 -0.1376 -0.1810  1.0618
   48MOL0     O 6353  10.577   1.629   8.434  0.7922 -0.0322  0.5383
   48MOL0     C 6354  10.694   1.542   8.419  0.1739 -0.1867 -0.0831
   48MOL0     C 6355  10.823   1.618   8.385 -0.3956 -0.0414 -0.5233
   48MOL0     C 6356  10.951   1.531   8.405 -0.9450  0.6993  0.4328
   48MOL0     C 6357  11.073   1.597   8.349 -0.6855 -0.3872 -0.3667
   48MOL0     C 6358  11.201   1.508   8.336  0.3400  0.3489 -0.3489
   48MOL0     C 6359  11.316   1.579   8.269  0.0503  0.0160  0.2337
   48MOL0     C 6360  11.413   1.483   8.181 -0.5895  0.4094 -0.1231
   48MOL0     C 6361  11.508   1.569   8.085  0.4313  0.3825 -0.2096
   48MOL0     N 6362  11.585   1.479   7.999 -0.1515 -0.1271  0.0154
   48MOL0     C 6363  11.720   1.458   7.991  0.2273 -0.6499  0.2640
   48MOL0     C 6364  11.738   1.356   7.910 -0.6105  0.3151  1.0549
   48MOL0     C 6365  11.868   1.285   7.880  0.0080  0.7767 -0.2534
   48MOL0     C 6366  11.869   1.141   7.939 -0.5606  0.1832  0.1252
   48MOL0     C 6367  11.987   1.063   7.875 -0.4793 -0.4093 -0.9401
   48MOL0     C 6368  12.128   1.113   7.874  0.0616 -0.1262  0.0348
   48MOL0     O 6369  12.198   1.001   7.823 -0.0712 -0.5927 -0.2067
   48MOL0     C 6370  12.329   1.017   7.803 -0.5906  1.2207  0.1221
   48MOL0     C 6371  12.409   1.100   7.877 -0.3455 -0.2773 -0.1415
   48MOL0     C 6372  12.547   1.110   7.848  0.2908  0.0799  0.5529
   48MOL0     C 6373  12.602   1.041   7.736  0.8348  0.1439  0.1375
   48MOL0     C 6374  12.743   1.052   7.688  0.7605 -0.1334 -1.4786
   48MOL0     O 6375  12.787   0.984   7.580  0.8225  0.8575 -0.2646
   48MOL0     C 6376  12.922   0.989   7.548  0.1932  0.5649 -0.2548
   48MOL0     C 6377  12.969   1.053   7.436  0.3575  0.3212 -0.5878
   48MOL0     C 6378  13.110   1.069   7.417  0.3783  1.0296 -0.2004
   48MOL0     C 6379  13.202   1.025   7.513 -0.6032 -0.0190 -0.2350
   48MOL0     O 6380  13.332   1.064   7.501 -0.1068  0.2912 -0.2882
   48MOL0     C 6381  13.396   1.077   7.373  0.9301 -0.5383 -0.2037
   48MOL0     C 6382  13.543   1.029   7.408 -0.2695  0.5632  0.5554
   48MOL0     C 6383  13.628   0.982   7.287  0.0390 -0.2974  0.0878
   48MOL0     C 6384  13.763   0.951   7.330  0.4310  0.1435  0.4604
   48MOL0     C 6385  13.827   0.861   7.218  0.6027  0.3610 -0.1982
   48MOL0     C 6386  13.975   0.837   7.243  0.7676 -0.2924 -0.0785
   48MOL0     C 6387  14.059   0.959   7.290 -0.2646  0.0700 -0.2616
   48MOL0     C 6388  14.212   0.938   7.283  0.0517 -0.0863  0.0979
   48MOL0    Cl 6389  14.265   1.098   7.326 -0.2184  0.0361 -0.2169
   48MOL0     C 6390  13.155   0.958   7.625  0.3667 -0.9780  0.7066
   48MOL0     C 6391  13.020   0.946   7.645 -0.1908  0.3698  0.3813
   48MOL0     O 6392  12.815   1.124   7.763 -0.1456 -0.0799 -0.7249
   48MOL0     C 6393  12.525   0.961   7.660 -0.8951  0.3369  0.6670
   48MOL0     C 6394  12.388   0.942   7.696  1.1017 -0.0043  0.1842
   48MOL0     N 6395  11.615   1.328   7.856 -0.3502 -0.3773 -0.0305
   48MOL0     N 6396  11.522   1.401   7.913 -0.3592  0.1158 -0.1579
   48MOL0     C 6397  10.360   1.630   8.555 -0.0995  0.0783 -0.4240
   48MOL0     C 6398  10.296   1.642   8.685 -0.4855  0.3205  0.6660
   48MOL0     C 6399  10.191   1.758   9.111 -0.2390  1.1589  0.4258
   48MOL0     C 6400  10.171   1.621   9.168  1.2361 -0.3130 -0.2753
   48MOL0     C 6401  10.080   1.606   9.276 -0.2078  0.0663  0.4246
   48MOL0     C 6402  10.023   1.714   9.338  0.1773 -0.1859  0.2692
   48MOL0     O 6403   9.941   1.708   9.444  0.1577 -0.1903  0.1538
   48MOL0     C 6404   9.843   1.604   9.463 -0.1143 -0.0036  0.1717
   48MOL0     C 6405   9.771   1.654   9.586  0.4782 -0.9384  0.4847
   48MOL0     C 6406   9.852   1.676   9.713 -0.1972 -0.2938  0.1388
   48MOL0     C 6407   9.773   1.701   9.838  0.2300  0.1665 -0.4864
   48MOL0     C 6408   9.688   1.590   9.877  0.1823 -0.4541 -0.0770
   48MOL0     C 6409   9.612   1.505   9.897 -0.5403  1.3154  0.1770
   48MOL0     C 6410  10.057   1.842   9.296  0.6675 -0.5501 -0.6407
   48MOL0     C 6411  10.136   1.863   9.183 -0.4994  0.5594 -0.4677
   48MOL0     C 6412  10.154   2.003   9.135 -0.4594  0.4000  0.3337
   48MOL0     H 6413  10.557   1.614   8.892 -0.6456  0.9765  0.4923
   48MOL0     H 6414  10.676   1.623   8.671  0.2088 -2.1909  0.2493
   48MOL0     H 6415  10.697   1.485   8.512 -0.7373 -0.2965 -0.1173
   48MOL0     H 6416  10.681   1.468   8.339  2.3489  0.3014 -0.9683
   48MOL0     H 6417  10.827   1.705   8.452 -0.3068 -0.1706 -0.3590
   48MOL0     H 6418  10.818   1.659   8.284 -1.1910 -0.8265 -0.8140
   48MOL0     H 6419  10.943   1.432   8.359 -0.9894 -1.6228  4.8697
   48MOL0     H 6420  10.961   1.509   8.512 -0.9385 -0.6025  0.1775
   48MOL0     H 6421  11.045   1.637   8.251 -2.6557 -1.2543 -0.2059
   48MOL0     H 6422  11.090   1.677   8.421 -0.7693 -0.8668  0.1915
   48MOL0     H 6423  11.228   1.465   8.433 -0.7336  1.2116  0.3521
   48MOL0     H 6424  11.173   1.429   8.267  0.3997  1.4276 -1.6414
   48MOL0     H 6425  11.266   1.658   8.211  1.0354  1.7929  1.6919
   48MOL0     H 6426  11.389   1.627   8.335 -1.4359  1.4639  0.9037
   48MOL0     H 6427  11.349   1.411   8.128  0.5387  0.4458 -1.5909
   48MOL0     H 6428  11.474   1.425   8.250  0.6634  1.4707 -0.3006
   48MOL0     H 6429  11.448   1.641   8.028  1.3471  2.5614  1.4100
   48MOL0     H 6430  11.580   1.628   8.142  2.0379 -1.3065 -0.4246
   48MOL0     H 6431  11.784   1.514   8.058 -0.7863  0.7512  0.1028
   48MOL0     H 6432  11.879   1.281   7.771  0.5350  0.8428 -0.2038
   48MOL0     H 6433  11.953   1.337   7.926  0.9546 -1.7916  1.0976
   48MOL0     H 6434  11.870   1.148   8.048  1.2378 -1.3209  0.2678
   48MOL0     H 6435  11.774   1.095   7.912 -0.5039  0.1307  0.0134
   48MOL0     H 6436  11.969   1.064   7.767 -0.7199 -0.1693 -0.8987
   48MOL0     H 6437  11.988   0.960   7.912  2.9568  0.0682  0.6048
   48MOL0     H 6438  12.148   1.141   7.978 -0.0014  0.0717 -0.0068
   48MOL0     H 6439  12.139   1.206   7.817  0.6193 -0.0792  0.2168
   48MOL0     H 6440  12.367   1.148   7.965 -3.4483 -3.2289  0.2293
   48MOL0     H 6441  12.617   1.169   7.906  0.7442  1.5483 -1.3903
   48MOL0     H 6442  12.898   1.088   7.361 -0.9449 -0.6037  0.1614
   48MOL0     H 6443  13.145   1.115   7.326 -0.6329 -0.1360 -1.2091
   48MOL0     H 6444  13.349   1.020   7.292 -0.7293 -0.6976  0.8441
   48MOL0     H 6445  13.400   1.180   7.337  0.7293 -0.4348  0.0708
   48MOL0     H 6446  13.593   1.105   7.468 -1.0131  0.7075  1.0130
   48MOL0     H 6447  13.528   0.946   7.479  0.0538  0.1250  0.1224
   48MOL0     H 6448  13.580   0.896   7.241  1.7657 -0.2018 -2.0359
   48MOL0     H 6449  13.632   1.072   7.224  3.0319  0.2709  0.9144
   48MOL0     H 6450  13.780   0.913   7.431 -0.1818 -4.2610 -0.9012
   48MOL0     H 6451  13.802   1.053   7.336 -0.1239  0.4835 -1.0979
   48MOL0     H 6452  13.814   0.897   7.116 -4.9628  2.2493  0.8558
   48MOL0     H 6453  13.785   0.761   7.228  1.3237  0.0998  0.3139
   48MOL0     H 6454  13.980   0.756   7.317 -1.3052 -0.7848 -0.4042
   48MOL0     H 6455  14.021   0.797   7.153  2.8208  1.0189  0.3380
   48MOL0     H 6456  14.037   0.964   7.397  1.1737  1.3506 -0.0020
   48MOL0     H 6457  14.034   1.051   7.236  1.3416  0.1069 -0.9863
   48MOL0     H 6458  14.250   0.868   7.359  1.7931 -0.1054 -0.7266
   48MOL0     H 6459  14.244   0.914   7.180  0.7294  2.3774 -0.3197
   48MOL0     H 6460  13.215   0.941   7.714 -2.7917  0.3836  3.2816
   48MOL0     H 6461  12.991   0.910   7.743 -0.8399  0.4722  0.2360
   48MOL0     H 6462  12.553   0.916   7.565 -0.8930  0.6147  0.5379
   48MOL0     H 6463  12.319   0.878   7.642 -0.3863  0.4177  1.4953
   48MOL0     H 6464  10.301   1.621   8.464 -0.9187 -0.8565  0.1715
   48MOL0     H 6465  10.187   1.641   8.682 -0.5103  2.0925 -0.1883
   48MOL0     H 6466  10.228   1.533   9.139  1.8035 -0.0257 -0.0602
   48MOL0     H 6467  10.066   1.503   9.306  0.6714 -0.0696  0.4004
   48MOL0     H 6468   9.894   1.512   9.493  1.3405 -0.1382 -2.3955
   48MOL0     H 6469   9.778   1.591   9.375  1.4504 -0.8330 -0.9083
   48MOL0     H 6470   9.690   1.583   9.604 -0.3343 -1.1076 -3.1166
   48MOL0     H 6471   9.733   1.755   9.566 -0.5812 -1.6016 -0.9684
   48MOL0     H 6472   9.928   1.746   9.677 -0.1791 -1.3096 -1.9880
   48MOL0     H 6473   9.914   1.586   9.727  1.6039  0.1995 -3.4055
   48MOL0     H 6474   9.848   1.727   9.913  0.1189  0.6031 -0.5218
   48MOL0     H 6475   9.718   1.795   9.825  1.0387  1.7064  4.6276
   48MOL0     H 6476   9.546   1.424   9.922  0.7470 -0.4679 -1.8399
   48MOL0     H 6477  10.025   1.932   9.348 -0.7668 -1.6007  0.3781
   48MOL0     H 6478  10.116   2.073   9.210  0.8172  0.6205  0.8036
   48MOL0     H 6479  10.262   2.021   9.129 -0.3591  0.0941  1.0487
   48MOL0     H 6480  10.111   2.024   9.037 -0.1136 -2.5161 -0.5596
   49MOL0     O 6481   8.417  11.251   6.506 -0.1063  0.1485 -0.1605
   49MOL0     C 6482   8.364  11.167   6.578 -0.5973  0.0598  0.3641
   49MOL0     O 6483   8.411  11.132   6.700  0.0981 -0.1712 -0.3749
   49MOL0     C 6484   8.542  11.131   6.744  0.0891  0.3242  0.3557
   49MOL0     C 6485   8.561  11.120   6.882 -0.2959 -0.5805 -0.8080
   49MOL0     C 6486   8.684  11.122   6.933 -0.0325  0.5850  0.6679
   49MOL0     C 6487   8.800  11.117   6.853  0.3831  0.4738  0.2189
   49MOL0     O 6488   8.929  11.124   6.887 -0.1112  0.4637  0.3291
   49MOL0     C 6489   8.956  11.165   7.018 -0.1845  0.2247  0.3865
   49MOL0     C 6490   9.107  11.153   7.049 -0.3943 -0.0131  0.2799
   49MOL0     C 6491   9.195  11.217   6.943 -0.9223 -0.6878 -0.0834
   49MOL0     C 6492   9.346  11.191   6.985  0.2081  0.3867 -0.3792
   49MOL0     C 6493   9.433  11.253   6.885 -0.8907  0.0323 -0.5415
   49MOL0     C 6494   9.588  11.245   6.922 -0.0011 -0.7262  0.2838
   49MOL0     C 6495   9.676  11.320   6.824 -1.1123 -0.2473  0.5977
   49MOL0     C 6496   9.675  11.256   6.684  0.4293  0.7668 -0.1350
   49MOL0     N 6497   9.756  11.319   6.583  0.1423  0.9032  0.5694
   49MOL0     C 6498   9.876  11.373   6.607 -0.4515 -0.1923  0.7217
   49MOL0     C 6499   9.913  11.432   6.490  1.4235 -0.7148  0.2989
   49MOL0     C 6500  10.036  11.511   6.463  0.2853 -0.3741  0.4416
   49MOL0     C 6501  10.114  11.471   6.333  0.7158  0.2843 -0.4189
   49MOL0     C 6502  10.231  11.561   6.303  0.1587 -0.3492  0.4084
   49MOL0     C 6503  10.352  11.523   6.380 -0.1927 -0.2475 -0.0310
   49MOL0     O 6504  10.431  11.636   6.429  0.8172  0.2242 -0.3788
   49MOL0     C 6505  10.529  11.691   6.347 -0.5526  0.1115  0.1544
   49MOL0     C 6506  10.541  11.663   6.207 -0.3612  0.1942 -1.5601
   49MOL0     C 6507  10.650  11.709   6.144 -0.6005  0.7009  0.3330
   49MOL0     C 6508  10.760  11.779   6.203  0.6131 -0.0812 -1.0237
   49MOL0     C 6509  10.860  11.835   6.124  0.5703 -0.1466  0.0950
   49MOL0     O 6510  10.926  11.948   6.169  0.1627  1.3537 -0.1174
   49MOL0     C 6511  11.010  12.021   6.094 -0.8012 -0.9187 -0.0366
   49MOL0     C 6512  11.032  12.153   6.139  0.9322  0.7178 -0.0269
   49MOL0     C 6513  11.113  12.247   6.068  0.2943 -0.2449 -0.5254
   49MOL0     C 6514  11.178  12.214   5.949 -0.0549 -1.1754  0.5286
   49MOL0     O 6515  11.251  12.320   5.895 -0.3510  0.1196  0.2903
   49MOL0     C 6516  11.344  12.275   5.795  0.0253 -0.0327 -0.6006
   49MOL0     C 6517  11.409  12.395   5.735 -0.2273 -0.1136  0.8730
   49MOL0     C 6518  11.552  12.371   5.677  0.4147 -0.4391  0.2900
   49MOL0     C 6519  11.632  12.499   5.673  0.4572 -0.4878 -0.4947
   49MOL0     C 6520  11.769  12.473   5.609  1.2465 -0.3001 -0.9407
   49MOL0     C 6521  11.841  12.600   5.573  0.3130  0.4481 -0.2079
   49MOL0     C 6522  11.849  12.692   5.688  0.4051  0.2790  0.3098
   49MOL0     C 6523  11.941  12.815   5.662 -0.1939 -0.2919  0.0698
   49MOL0    Cl 6524  12.081  12.802   5.557 -0.0338 -0.0440  0.7444
   49MOL0     C 6525  11.151  12.083   5.899 -0.3512 -0.1533  0.1917
   49MOL0     C 6526  11.066  11.994   5.963 -0.3757 -0.0605  0.0775
   49MOL0     O 6527  10.888  11.760   6.024 -0.6478 -0.4476  0.1066
   49MOL0     C 6528  10.742  11.803   6.344  0.0923 -0.4341 -0.9419
   49MOL0     C 6529  10.630  11.755   6.407 -0.2024 -0.2855 -0.6728
   49MOL0     N 6530   9.813  11.407   6.390 -1.0896  0.7226 -0.0987
   49MOL0     N 6531   9.719  11.341   6.451  0.2752 -0.0920 -0.2127
   49MOL0     C 6532   8.779  11.115   6.715  0.0131  0.3126 -0.0353
   49MOL0     C 6533   8.650  11.113   6.658  0.2917  0.5624  0.6240
   49MOL0     C 6534   8.231  11.113   6.544  0.3131  0.3708  0.4552
   49MOL0     C 6535   8.197  10.991   6.608 -0.1251  0.3591  0.1227
   49MOL0     C 6536   8.084  10.927   6.580  0.7945 -0.7386  0.0707
   49MOL0     C 6537   7.997  10.965   6.484 -0.0961  0.5327 -0.1888
   49MOL0     O 6538   7.887  10.890   6.454  0.0993  0.4727 -0.6156
   49MOL0     C 6539   7.805  10.909   6.339  0.4476 -0.5210 -0.6710
   49MOL0     C 6540   7.684  10.991   6.378  0.0099 -0.0039  0.0329
   49MOL0     C 6541   7.567  10.907   6.450 -1.5090  0.6383 -0.2493
   49MOL0     C 6542   7.446  10.993   6.486 -0.4998 -0.3947 -0.1448
   49MOL0     C 6543   7.463  11.087   6.599  0.3732 -0.5425  0.1552
   49MOL0     C 6544   7.478  11.170   6.682  0.1670 -0.6984 -0.6207
   49MOL0     C 6545   8.029  11.086   6.416 -0.1415  0.4451 -0.7847
   49MOL0     C 6546   8.144  11.161   6.444  0.1902 -0.8716 -0.0302
   49MOL0     C 6547   8.160  11.307   6.380 -0.1617 -0.5863 -0.3392
   49MOL0     H 6548   8.473  11.129   6.944 -0.9487  0.3264 -1.8347
   49MOL0     H 6549   8.704  11.130   7.040 -1.6816 -0.9146  1.1531
   49MOL0     H 6550   8.934  11.272   7.022 -2.7305 -0.2968  3.3877
   49MOL0     H 6551   8.904  11.111   7.097  3.0838 -1.1929  1.7545
   49MOL0     H 6552   9.131  11.046   7.044 -2.6574 -0.5951  0.7677
   49MOL0     H 6553   9.127  11.182   7.153 -0.6925 -1.8612  0.8924
   49MOL0     H 6554   9.166  11.323   6.935 -0.5898 -0.7200 -2.2615
   49MOL0     H 6555   9.167  11.175   6.846  0.8933 -0.7630 -0.5953
   49MOL0     H 6556   9.371  11.242   7.079  1.6064 -0.7772 -0.0755
   49MOL0     H 6557   9.378  11.088   7.003  0.1365  0.5099  0.5160
   49MOL0     H 6558   9.416  11.195   6.794  1.4167 -0.8299 -0.4915
   49MOL0     H 6559   9.407  11.358   6.870 -1.6261 -0.2146 -1.0590
   49MOL0     H 6560   9.604  11.291   7.020  0.2028 -1.0861  0.4179
   49MOL0     H 6561   9.626  11.143   6.920  1.9648 -0.2550  4.0124
   49MOL0     H 6562   9.780  11.299   6.853 -0.5709 -0.8511 -1.5652
   49MOL0     H 6563   9.657  11.427   6.819  1.5769  0.4487  2.6147
   49MOL0     H 6564   9.711  11.153   6.695  0.0910  0.6202 -0.3568
   49MOL0     H 6565   9.574  11.246   6.642  0.1599  0.3712  0.5953
   49MOL0     H 6566   9.936  11.376   6.697 -0.5035 -0.6264  0.7737
   49MOL0     H 6567  10.013  11.617   6.459  1.5502 -0.1002 -3.0941
   49MOL0     H 6568  10.105  11.499   6.547 -0.7943  2.0699  1.7841
   49MOL0     H 6569  10.153  11.369   6.330 -0.6658 -0.2582 -0.8267
   49MOL0     H 6570  10.042  11.464   6.250  2.2237  0.3704 -1.7848
   49MOL0     H 6571  10.205  11.665   6.327 -2.6861 -1.1159  0.9861
   49MOL0     H 6572  10.256  11.556   6.196  1.0167  0.2757  0.5610
   49MOL0     H 6573  10.412  11.453   6.321  0.4266  0.6043 -0.4429
   49MOL0     H 6574  10.315  11.470   6.467 -1.4717 -0.5890 -0.7601
   49MOL0     H 6575  10.478  11.597   6.148  0.3501 -1.8832 -0.1413
   49MOL0     H 6576  10.664  11.681   6.040 -0.4878  1.0498  0.2536
   49MOL0     H 6577  10.979  12.181   6.230 -0.9165  0.3323 -0.9540
   49MOL0     H 6578  11.129  12.349   6.101  0.5130 -0.7551  1.0198
   49MOL0     H 6579  11.416  12.214   5.852  2.9456  3.0071 -0.7305
   49MOL0     H 6580  11.302  12.218   5.712  0.2480  0.5856 -1.1395
   49MOL0     H 6581  11.339  12.423   5.655 -0.1952 -2.7442 -0.1845
   49MOL0     H 6582  11.412  12.473   5.811  0.8641 -0.2270  0.9572
   49MOL0     H 6583  11.607  12.299   5.738 -0.8787  0.0303  2.0918
   49MOL0     H 6584  11.554  12.335   5.573 -0.9533  1.4445 -0.4446
   49MOL0     H 6585  11.642  12.552   5.769 -0.9876 -2.5814  0.8965
   49MOL0     H 6586  11.583  12.562   5.597  1.4448  0.1082 -0.6556
   49MOL0     H 6587  11.759  12.405   5.524  0.4296 -0.5727 -0.6344
   49MOL0     H 6588  11.837  12.428   5.681  1.4036 -0.3637 -1.1296
   49MOL0     H 6589  11.944  12.569   5.551  0.9952 -0.9943  4.1122
   49MOL0     H 6590  11.795  12.638   5.482 -0.0987 -0.5101 -0.4080
   49MOL0     H 6591  11.880  12.631   5.773 -3.2378 -1.1558  0.8051
   49MOL0     H 6592  11.748  12.730   5.707 -0.2343  0.1489 -2.3713
   49MOL0     H 6593  11.882  12.885   5.602  2.0922  1.4523 -0.2922
   49MOL0     H 6594  11.964  12.869   5.754 -1.8461  1.8825 -0.7241
   49MOL0     H 6595  11.197  12.049   5.807 -0.8249 -2.2445  0.6752
   49MOL0     H 6596  11.062  11.895   5.920  1.0243 -0.6859  1.2954
   49MOL0     H 6597  10.821  11.850   6.402 -1.5197  1.0007  0.1791
   49MOL0     H 6598  10.619  11.758   6.514 -1.1221 -0.6960 -0.7535
   49MOL0     H 6599   8.858  11.107   6.641 -0.1495  2.8734 -0.5603
   49MOL0     H 6600   8.650  11.113   6.549  1.4603  0.6047  0.6087
   49MOL0     H 6601   8.258  10.933   6.677 -0.2213 -0.7313 -0.6759
   49MOL0     H 6602   8.055  10.839   6.636  0.9328 -0.7555  0.1155
   49MOL0     H 6603   7.766  10.812   6.310 -4.6635 -0.9371  5.4726
   49MOL0     H 6604   7.867  10.957   6.262  0.6445  0.0516 -0.1699
   49MOL0     H 6605   7.639  11.026   6.285 -2.4805 -1.5801  0.5471
   49MOL0     H 6606   7.711  11.073   6.445  0.0604 -2.0793  2.7109
   49MOL0     H 6607   7.615  10.863   6.538 -0.0682  1.1600 -0.7509
   49MOL0     H 6608   7.536  10.826   6.383  0.1903  2.0885 -3.0051
   49MOL0     H 6609   7.403  11.047   6.401 -0.6992  2.2593  1.5153
   49MOL0     H 6610   7.361  10.932   6.518 -0.6843  0.7665  1.7292
   49MOL0     H 6611   7.477  11.242   6.761 -0.5720 -1.3484 -0.0192
   49MOL0     H 6612   7.969  11.124   6.333  1.5469 -2.2110 -3.3919
   49MOL0     H 6613   8.227  11.310   6.294 -2.1534 -2.5857 -2.0909
   49MOL0     H 6614   8.064  11.346   6.346  0.9334  1.6497 -1.0190
   49MOL0     H 6615   8.198  11.378   6.453 -2.0234  1.8090 -1.5538
   50MOL0     O 6616   6.179   5.911   2.095 -0.0315 -0.5574  0.1112
   50MOL0     C 6617   6.095   5.990   2.141 -0.2623 -0.0440 -0.4295
   50MOL0     O 6618   6.136   6.108   2.215  0.0742  0.1412 -0.4583
   50MOL0     C 6619   6.270   6.138   2.205  0.9156 -0.0056  0.9853
   50MOL0     C 6620   6.334   6.141   2.083 -0.3271 -0.3440 -0.5434
   50MOL0     C 6621   6.474   6.162   2.075  0.1015 -0.5103 -0.1983
   50MOL0     C 6622   6.549   6.193   2.186  0.5803  0.4199 -0.1262
   50MOL0     O 6623   6.680   6.210   2.182 -0.4199  0.5093  0.5262
   50MOL0     C 6624   6.729   6.313   2.107 -0.4830  0.2293  0.2110
   50MOL0     C 6625   6.881   6.339   2.122 -0.1173  0.1390  0.0330
   50MOL0     C 6626   6.962   6.227   2.060 -0.8201  0.3210  0.3757
   50MOL0     C 6627   7.115   6.274   2.058  0.8963 -0.4093  0.2992
   50MOL0     C 6628   7.198   6.151   2.012  0.0351 -0.4010  0.9543
   50MOL0     C 6629   7.347   6.187   2.008  0.3908  0.1317 -1.3148
   50MOL0     C 6630   7.438   6.076   1.932 -0.2612 -0.7943  0.4593
   50MOL0     C 6631   7.586   6.132   1.920  0.7446 -0.0963  0.0829
   50MOL0     N 6632   7.678   6.034   1.858 -0.3737  0.6468  0.0654
   50MOL0     C 6633   7.813   6.012   1.891 -0.6852 -0.4584  0.4137
   50MOL0     C 6634   7.858   5.927   1.799 -0.1251  0.8660  0.1765
   50MOL0     C 6635   8.003   5.892   1.787  0.0084 -0.3487 -0.5848
   50MOL0     C 6636   8.021   5.775   1.884 -0.0536  0.1183  0.5724
   50MOL0     C 6637   8.171   5.729   1.873  0.3150  0.0721 -0.2332
   50MOL0     C 6638   8.202   5.609   1.966  0.0386  0.3974 -0.5537
   50MOL0     O 6639   8.337   5.557   1.952  0.0537 -0.6441 -0.3021
   50MOL0     C 6640   8.439   5.626   2.008  0.8766  0.4077 -0.2799
   50MOL0     C 6641   8.549   5.655   1.923  1.1020 -0.6639 -0.1271
   50MOL0     C 6642   8.660   5.720   1.970 -0.6111  0.0993 -0.2218
   50MOL0     C 6643   8.682   5.730   2.106 -0.0335 -0.4404 -0.2306
   50MOL0     C 6644   8.813   5.774   2.167  0.0441  0.7426 -1.1816
   50MOL0     O 6645   8.900   5.815   2.068  0.0185  0.1481 -0.0511
   50MOL0     C 6646   9.027   5.845   2.119 -0.0154 -0.5145  0.3663
   50MOL0     C 6647   9.065   5.926   2.229  0.7372  0.1707  0.0309
   50MOL0     C 6648   9.196   5.950   2.268  0.2821 -0.1040  0.3912
   50MOL0     C 6649   9.297   5.907   2.179  0.1483 -0.5761  0.7270
   50MOL0     O 6650   9.433   5.904   2.202 -0.2252  0.2707 -0.5604
   50MOL0     C 6651   9.490   6.009   2.273  0.1293 -0.5995 -0.5536
   50MOL0     C 6652   9.634   5.976   2.290 -0.1204  0.3121 -0.0920
   50MOL0     C 6653   9.715   6.096   2.347 -0.8936  0.6765  0.9919
   50MOL0     C 6654   9.856   6.053   2.376  0.0616  0.3534  0.3408
   50MOL0     C 6655   9.952   6.177   2.359 -0.3788  0.4857  0.4222
   50MOL0     C 6656  10.093   6.123   2.398 -0.8178 -0.0757  0.1096
   50MOL0     C 6657  10.152   6.011   2.312 -0.2861 -0.1276 -0.1417
   50MOL0     C 6658  10.301   6.002   2.345 -0.1132 -0.5706  1.0321
   50MOL0    Cl 6659  10.410   6.101   2.242 -0.2220  0.0504  0.0449
   50MOL0     C 6660   9.259   5.861   2.057 -0.4357 -0.1496  1.0751
   50MOL0     C 6661   9.129   5.827   2.024  0.6708  0.0507 -0.2300
   50MOL0     O 6662   8.824   5.776   2.290 -0.2404 -0.1153 -0.3903
   50MOL0     C 6663   8.573   5.699   2.192 -0.4063 -0.4690  0.3588
   50MOL0     C 6664   8.453   5.652   2.141  0.2307  0.3018 -0.6193
   50MOL0     N 6665   7.763   5.887   1.708  0.4766  0.0728 -0.7790
   50MOL0     N 6666   7.657   5.946   1.749  0.3457 -1.2300 -0.0678
   50MOL0     C 6667   6.485   6.191   2.315 -0.0373  0.8614 -0.3282
   50MOL0     C 6668   6.347   6.164   2.320  0.0736  0.1622 -0.5303
   50MOL0     C 6669   5.956   5.982   2.105 -0.1302  0.3677 -0.4202
   50MOL0     C 6670   5.908   5.885   2.008 -0.6016  0.0463 -0.1494
   50MOL0     C 6671   5.774   5.862   1.976  0.6323  0.6429 -0.8665
   50MOL0     C 6672   5.679   5.958   2.020  0.9347 -0.1375  0.0937
   50MOL0     O 6673   5.544   5.953   1.988 -0.6555  0.3845 -0.0301
   50MOL0     C 6674   5.477   5.826   1.971  0.2871 -0.2133 -0.0640
   50MOL0     C 6675   5.330   5.821   2.019 -0.3441 -0.4483  0.3014
   50MOL0     C 6676   5.228   5.883   1.925  0.0748 -0.1165 -0.3959
   50MOL0     C 6677   5.268   6.035   1.903 -0.1282 -0.3001 -0.4981
   50MOL0     C 6678   5.148   6.111   1.857 -1.3442 -0.3532  0.0242
   50MOL0     C 6679   5.055   6.185   1.830  0.1691 -0.5822 -0.3510
   50MOL0     C 6680   5.718   6.056   2.112  0.3500  0.7130  0.0347
   50MOL0     C 6681   5.852   6.071   2.155 -0.3979 -0.8200 -0.3205
   50MOL0     C 6682   5.881   6.173   2.264  0.2011  0.4810 -0.5369
   50MOL0     H 6683   6.293   6.120   1.985 -1.4313  0.1540 -0.2061
   50MOL0     H 6684   6.528   6.163   1.981  0.2401 -0.8667 -0.1274
   50MOL0     H 6685   6.711   6.281   2.004 -0.2185 -3.1695  1.1128
   50MOL0     H 6686   6.680   6.409   2.127 -2.1791 -0.7419  0.9472
   50MOL0     H 6687   6.912   6.354   2.226 -0.3107 -3.3947  0.7373
   50MOL0     H 6688   6.901   6.431   2.067  3.5024 -0.7823 -0.4567
   50MOL0     H 6689   6.923   6.191   1.964  3.5129 -0.8472 -1.2150
   50MOL0     H 6690   6.960   6.140   2.125 -1.6897 -0.4585 -0.6501
   50MOL0     H 6691   7.101   6.359   1.991 -0.2409 -2.4484 -2.2567
   50MOL0     H 6692   7.144   6.302   2.159 -0.9821  0.1236  0.7386
   50MOL0     H 6693   7.189   6.057   2.067 -3.1896 -0.9512 -0.3053
   50MOL0     H 6694   7.163   6.138   1.909 -0.5641  0.4442  1.0412
   50MOL0     H 6695   7.372   6.287   1.974  1.1590  0.1448 -0.7456
   50MOL0     H 6696   7.370   6.188   2.115 -1.1253  0.8319 -0.9656
   50MOL0     H 6697   7.400   6.050   1.833  2.0630  1.4636 -1.1631
   50MOL0     H 6698   7.442   5.982   1.987  0.5651 -0.1314  1.5633
   50MOL0     H 6699   7.588   6.229   1.868  2.6435 -1.8644 -3.5106
   50MOL0     H 6700   7.633   6.151   2.016  0.2805  0.2636  0.2424
   50MOL0     H 6701   7.872   6.064   1.966 -0.9640 -0.0605  0.3601
   50MOL0     H 6702   8.022   5.866   1.683  2.0689 -0.5256 -0.2095
   50MOL0     H 6703   8.069   5.975   1.813 -1.3187 -0.3689  3.7034
   50MOL0     H 6704   8.008   5.796   1.991  0.5835  0.2826  0.6253
   50MOL0     H 6705   7.954   5.694   1.855 -0.0839  0.2233  0.3533
   50MOL0     H 6706   8.239   5.812   1.894 -0.2763  0.9074 -1.4722
   50MOL0     H 6707   8.184   5.720   1.764 -2.1412  4.5760 -1.1606
   50MOL0     H 6708   8.136   5.529   1.930  1.5021 -1.0084 -0.2755
   50MOL0     H 6709   8.175   5.636   2.068  0.2616 -1.9200  0.1869
   50MOL0     H 6710   8.541   5.624   1.819  0.8424  0.1573 -0.3582
   50MOL0     H 6711   8.737   5.753   1.900 -0.3828 -0.1794 -0.1023
   50MOL0     H 6712   8.979   5.959   2.285  1.2310  0.4614  0.6234
   50MOL0     H 6713   9.208   5.991   2.368 -0.7073 -0.1011  0.5245
   50MOL0     H 6714   9.473   6.092   2.203 -2.9686  1.6884  2.5823
   50MOL0     H 6715   9.440   6.043   2.364 -0.8699  3.5501 -2.3888
   50MOL0     H 6716   9.634   5.896   2.365  0.3562  2.4084  2.3200
   50MOL0     H 6717   9.693   5.948   2.202  0.9513  2.8577 -0.2724
   50MOL0     H 6718   9.712   6.173   2.270  0.4277 -2.0889 -2.0891
   50MOL0     H 6719   9.674   6.130   2.443  1.7841 -0.2607  2.5695
   50MOL0     H 6720   9.884   5.975   2.304  0.2690 -1.1521  1.9964
   50MOL0     H 6721   9.873   6.001   2.470  3.6406 -2.0008 -1.3942
   50MOL0     H 6722   9.921   6.249   2.436  0.4571  2.3215 -0.8878
   50MOL0     H 6723   9.949   6.220   2.259  2.9066 -0.7381 -0.3417
   50MOL0     H 6724  10.164   6.205   2.392 -2.6200  1.4549 -2.3902
   50MOL0     H 6725  10.094   6.088   2.501 -1.1011 -0.2078  0.0684
   50MOL0     H 6726  10.140   6.035   2.206  0.1177  0.8623  0.0173
   50MOL0     H 6727  10.106   5.913   2.325  3.2472 -2.1228 -1.1457
   50MOL0     H 6728  10.317   6.014   2.453 -1.2128  0.6622  1.0904
   50MOL0     H 6729  10.324   5.899   2.319 -1.7260 -0.7761  0.3048
   50MOL0     H 6730   9.333   5.831   1.984 -1.3126  3.1536 -1.3908
   50MOL0     H 6731   9.111   5.782   1.927 -2.2387  0.0974  0.1863
   50MOL0     H 6732   8.594   5.706   2.298 -0.0643  0.0904  0.2570
   50MOL0     H 6733   8.367   5.627   2.202  0.1336 -1.3732 -1.3946
   50MOL0     H 6734   6.538   6.205   2.409  0.8680  1.3881 -0.9011
   50MOL0     H 6735   6.294   6.158   2.415  0.5475  4.6673  0.2250
   50MOL0     H 6736   5.989   5.822   1.972 -0.5151 -0.9539  1.6708
   50MOL0     H 6737   5.745   5.774   1.920 -0.0845  0.1784  0.2057
   50MOL0     H 6738   5.532   5.758   2.037  0.1664 -1.9424 -1.6801
   50MOL0     H 6739   5.500   5.786   1.872  0.5551  0.2892 -0.2126
   50MOL0     H 6740   5.312   5.868   2.115  0.0914  3.0166 -1.1760
   50MOL0     H 6741   5.307   5.714   2.019  0.9095 -0.7554 -0.8280
   50MOL0     H 6742   5.127   5.868   1.963  0.7477  0.6821  1.9054
   50MOL0     H 6743   5.236   5.838   1.826  0.7661 -0.0655 -0.3666
   50MOL0     H 6744   5.301   6.092   1.990 -3.0598 -0.7777  1.0604
   50MOL0     H 6745   5.341   6.035   1.821  0.2991 -1.5388 -0.1394
   50MOL0     H 6746   4.983   6.264   1.831  2.4277  1.6754  1.9658
   50MOL0     H 6747   5.647   6.136   2.133  1.6743  2.3150 -1.2146
   50MOL0     H 6748   5.939   6.256   2.222 -1.1607  1.5557 -0.3505
   50MOL0     H 6749   5.790   6.220   2.301  1.1208 -1.0254  4.4117
   50MOL0     H 6750   5.933   6.128   2.350 -0.3857  0.9312  0.0696
   51MOL0     O 6751   1.741   7.909   0.593 -0.1161 -0.1293  0.1369
   51MOL0     C 6752   1.699   8.017   0.558 -0.6610  0.5609  0.0998
   51MOL0     O 6753   1.770   8.106   0.487  0.3086 -0.2852 -0.5074
   51MOL0     C 6754   1.908   8.095   0.470 -0.3451  0.5758 -0.2027
   51MOL0     C 6755   1.996   8.041   0.569 -0.6219 -0.8169  0.2525
   51MOL0     C 6756   2.131   8.036   0.546 -0.2701 -0.7984  0.3344
   51MOL0     C 6757   2.187   8.088   0.428 -0.2537 -0.0889  1.1055
   51MOL0     O 6758   2.319   8.070   0.414  0.5170 -0.0492  0.2891
   51MOL0     C 6759   2.385   8.138   0.311  0.1623 -0.0499  1.0110
   51MOL0     C 6760   2.531   8.108   0.309 -0.4490  0.1015 -0.4705
   51MOL0     C 6761   2.612   8.199   0.220  0.0559  0.6058 -1.0810
   51MOL0     C 6762   2.721   8.117   0.149 -0.8095  0.3648 -0.1465
   51MOL0     C 6763   2.812   8.199   0.060 -1.1504 -0.2947 -0.1007
   51MOL0     C 6764   2.926   8.117  -0.004 -0.5445  0.3369  0.1209
   51MOL0     C 6765   3.025   8.187  -0.086  0.3889 -0.8529 -0.0090
   51MOL0     C 6766   3.093   8.298  -0.000 -0.3506 -0.0729 -0.0117
   51MOL0     N 6767   3.200   8.365  -0.066 -0.4696  0.1961  0.0804
   51MOL0     C 6768   3.298   8.302  -0.140 -0.3302  0.4151  0.9779
   51MOL0     C 6769   3.376   8.404  -0.189 -0.1547  0.2018  0.2176
   51MOL0     C 6770   3.492   8.374  -0.280 -0.8129 -1.4304  0.2081
   51MOL0     C 6771   3.611   8.469  -0.269  0.1054 -0.7759 -0.3790
   51MOL0     C 6772   3.680   8.480  -0.401 -1.2025 -0.4273  0.5024
   51MOL0     C 6773   3.835   8.514  -0.398 -0.1519 -0.1113 -0.6679
   51MOL0     O 6774   3.865   8.633  -0.318 -0.3599 -0.4519  0.7727
   51MOL0     C 6775   3.990   8.666  -0.275  0.0849 -0.2106  0.8433
   51MOL0     C 6776   4.009   8.793  -0.225  0.2452 -0.2131  0.1100
   51MOL0     C 6777   4.140   8.830  -0.176  0.7494 -0.6530  0.3067
   51MOL0     C 6778   4.245   8.742  -0.162  0.3411  0.1960  0.2757
   51MOL0     C 6779   4.378   8.792  -0.101  0.0981  0.5886 -0.4461
   51MOL0     O 6780   4.458   8.692  -0.049  0.3018 -0.2803  0.3664
   51MOL0     C 6781   4.585   8.697  -0.004  0.6451  0.2745  0.3945
   51MOL0     C 6782   4.629   8.598   0.078 -0.3865 -0.4035 -1.1579
   51MOL0     C 6783   4.754   8.594   0.141  0.4851 -0.0445  0.6504
   51MOL0     C 6784   4.851   8.693   0.122 -0.0263  0.5652 -0.1555
   51MOL0     O 6785   4.979   8.694   0.166 -0.3921 -0.3125  0.3752
   51MOL0     C 6786   5.010   8.604   0.275 -0.0475  0.2521 -0.7051
   51MOL0     C 6787   5.106   8.491   0.237  0.0565 -0.4768  0.4216
   51MOL0     C 6788   5.180   8.423   0.348  0.5379  0.2324 -1.0274
   51MOL0     C 6789   5.296   8.511   0.391 -0.0453 -0.0072 -0.3284
   51MOL0     C 6790   5.394   8.438   0.480 -0.9340 -0.9267  0.7475
   51MOL0     C 6791   5.498   8.538   0.527 -0.6209 -0.1537  0.2258
   51MOL0     C 6792   5.617   8.486   0.614  0.1770  0.3434 -0.3990
   51MOL0     C 6793   5.744   8.571   0.595 -0.0411 -0.6620  0.0071
   51MOL0    Cl 6794   5.876   8.525   0.710 -0.1283 -0.2507  0.3865
   51MOL0     C 6795   4.806   8.808   0.052 -0.7596  1.1888 -0.8404
   51MOL0     C 6796   4.680   8.809  -0.019  0.6511 -0.6914  0.7003
   51MOL0     O 6797   4.406   8.915  -0.096  0.1704  0.4095 -0.3664
   51MOL0     C 6798   4.221   8.611  -0.217 -0.5274 -0.6603  0.2515
   51MOL0     C 6799   4.102   8.572  -0.278 -0.4765  0.0171  0.1734
   51MOL0     N 6800   3.328   8.526  -0.138 -0.3425  0.2834 -0.1650
   51MOL0     N 6801   3.218   8.496  -0.072  0.0992 -0.6908  1.0646
   51MOL0     C 6802   2.095   8.135   0.325 -0.3200  0.1186 -0.1514
   51MOL0     C 6803   1.961   8.143   0.357 -0.2089 -0.0606  0.6874
   51MOL0     C 6804   1.558   8.046   0.566 -0.5298  0.0537  0.4488
   51MOL0     C 6805   1.512   8.161   0.491  0.7016  0.2280 -0.0261
   51MOL0     C 6806   1.371   8.194   0.482 -0.1095 -0.4130 -0.0835
   51MOL0     C 6807   1.277   8.121   0.555 -0.5496 -0.1584  0.1228
   51MOL0     O 6808   1.140   8.158   0.551  0.2501 -0.3917  0.4932
   51MOL0     C 6809   1.046   8.091   0.635 -0.0729 -1.0686  0.6645
   51MOL0     C 6810   0.902   8.154   0.619 -0.0377  0.0991 -0.2074
   51MOL0     C 6811   0.888   8.292   0.683 -0.0278  0.2399 -0.6506
   51MOL0     C 6812   0.813   8.392   0.593  0.5465  0.7752 -0.5635
   51MOL0     C 6813   0.671   8.360   0.569  0.6594 -0.2179  0.5926
   51MOL0     C 6814   0.554   8.317   0.562 -0.4122 -0.2352  0.0118
   51MOL0     C 6815   1.324   8.019   0.638  0.5820 -0.0643  0.1688
   51MOL0     C 6816   1.462   7.973   0.644  0.0668  0.1932  0.3962
   51MOL0     C 6817   1.496   7.865   0.729 -0.9164 -0.4870 -0.8835
   51MOL0     H 6818   1.948   8.020   0.664 -1.6559 -0.2606 -0.1261
   51MOL0     H 6819   2.196   7.988   0.617  2.5286  0.9939 -0.8553
   51MOL0     H 6820   2.339   8.110   0.216  0.3616  1.8377  0.3129
   51MOL0     H 6821   2.376   8.246   0.327  3.9802  0.7612 -1.0456
   51MOL0     H 6822   2.550   8.004   0.283  1.0264  0.5036 -1.1464
   51MOL0     H 6823   2.561   8.113   0.414 -0.3260 -2.2789 -0.3431
   51MOL0     H 6824   2.648   8.281   0.283 -0.2969  0.2552 -0.4073
   51MOL0     H 6825   2.550   8.247   0.144 -1.4504  1.4513  0.6054
   51MOL0     H 6826   2.796   8.071   0.214  2.6718  2.3430 -2.3841
   51MOL0     H 6827   2.677   8.032   0.097 -0.7173 -1.1088  2.0955
   51MOL0     H 6828   2.749   8.248  -0.014  0.1942  1.8550  0.0918
   51MOL0     H 6829   2.850   8.280   0.123  0.9576 -0.3610 -1.2045
   51MOL0     H 6830   2.981   8.057   0.069  0.9398  0.1900 -1.0705
   51MOL0     H 6831   2.877   8.047  -0.073  1.2180 -1.5827  0.6960
   51MOL0     H 6832   2.980   8.218  -0.180  2.1352 -1.8578 -1.2355
   51MOL0     H 6833   3.098   8.118  -0.128 -1.8199 -1.7206 -2.6772
   51MOL0     H 6834   3.023   8.378   0.029  0.4496 -0.0406  1.9670
   51MOL0     H 6835   3.132   8.255   0.092  2.2450  0.1926 -0.9217
   51MOL0     H 6836   3.304   8.199  -0.173 -0.3136  0.5513  0.5451
   51MOL0     H 6837   3.525   8.274  -0.250 -0.1660 -2.0185 -2.1853
   51MOL0     H 6838   3.457   8.372  -0.384 -1.3855  1.4996  0.2684
   51MOL0     H 6839   3.577   8.569  -0.240 -0.0238 -0.0606 -2.7895
   51MOL0     H 6840   3.676   8.445  -0.184  0.0332  0.8593  0.1693
   51MOL0     H 6841   3.628   8.547  -0.471  1.8276  1.0553 -0.5380
   51MOL0     H 6842   3.676   8.381  -0.449  0.1979  0.9025 -2.7004
   51MOL0     H 6843   3.872   8.529  -0.500 -1.6874  2.4657 -0.9441
   51MOL0     H 6844   3.880   8.429  -0.345  1.2764  0.6061 -0.6669
   51MOL0     H 6845   3.936   8.872  -0.218 -0.3970 -0.9328  3.6349
   51MOL0     H 6846   4.164   8.930  -0.141 -0.8742 -0.1360  0.0230
   51MOL0     H 6847   4.561   8.514   0.090  0.6409 -1.3260 -1.6109
   51MOL0     H 6848   4.770   8.502   0.197  0.5037 -0.1732  0.4328
   51MOL0     H 6849   5.060   8.664   0.351 -3.4530  2.4441  0.0137
   51MOL0     H 6850   4.931   8.553   0.331  0.6518  0.7681  0.8045
   51MOL0     H 6851   5.037   8.418   0.193  0.5049 -0.1697 -0.8278
   51MOL0     H 6852   5.176   8.528   0.162  1.5368 -1.9117  1.0261
   51MOL0     H 6853   5.121   8.421   0.440  0.9494  1.7041 -0.7015
   51MOL0     H 6854   5.212   8.321   0.326  1.5598  0.2546  0.1974
   51MOL0     H 6855   5.255   8.601   0.436  0.7740  0.8516 -1.2414
   51MOL0     H 6856   5.339   8.545   0.296  0.0463  2.0552  0.4077
   51MOL0     H 6857   5.439   8.353   0.428  1.8813 -0.0300  1.5199
   51MOL0     H 6858   5.341   8.388   0.563 -0.4752  0.0752  1.6655
   51MOL0     H 6859   5.532   8.594   0.440 -1.9428 -2.5593 -1.9641
   51MOL0     H 6860   5.446   8.603   0.598  3.9469  0.4023  3.5229
   51MOL0     H 6861   5.649   8.386   0.584  1.1786 -0.2364  2.3136
   51MOL0     H 6862   5.591   8.489   0.720 -0.7055  4.1985 -0.5836
   51MOL0     H 6863   5.772   8.564   0.490 -0.1267 -0.5220 -0.0246
   51MOL0     H 6864   5.712   8.673   0.619  0.2289 -0.6963  0.5406
   51MOL0     H 6865   4.881   8.886   0.037  0.3373  0.1829 -0.7684
   51MOL0     H 6866   4.642   8.892  -0.077  0.6003 -2.0740 -1.3299
   51MOL0     H 6867   4.305   8.543  -0.201 -1.1723 -1.8113 -1.0461
   51MOL0     H 6868   4.095   8.472  -0.320 -0.5562 -0.5381  1.4282
   51MOL0     H 6869   2.134   8.167   0.229  0.2361 -1.4000 -0.4628
   51MOL0     H 6870   1.887   8.181   0.288  0.0643  1.4128  1.1562
   51MOL0     H 6871   1.574   8.235   0.442 -1.3567  2.8043  0.9770
   51MOL0     H 6872   1.341   8.282   0.426  1.0307 -0.8004 -1.3647
   51MOL0     H 6873   1.088   8.101   0.736  3.5486  0.4963 -0.8489
   51MOL0     H 6874   1.040   7.983   0.619  2.2506 -1.4898  2.0997
   51MOL0     H 6875   0.827   8.091   0.668 -0.5093  1.1958  0.5241
   51MOL0     H 6876   0.876   8.150   0.513 -1.0395 -0.1774  0.0400
   51MOL0     H 6877   0.991   8.322   0.701  0.4262  0.3613 -3.1676
   51MOL0     H 6878   0.833   8.293   0.778 -1.3712  0.7052 -1.4039
   51MOL0     H 6879   0.815   8.495   0.629 -0.5217  0.4415  0.5162
   51MOL0     H 6880   0.861   8.401   0.495  2.5736  1.3312  0.4307
   51MOL0     H 6881   0.451   8.290   0.553 -0.4707  0.4771 -1.6989
   51MOL0     H 6882   1.246   7.971   0.696  1.4239 -2.2334 -0.3828
   51MOL0     H 6883   1.585   7.889   0.788 -0.4675 -2.1136 -0.8417
   51MOL0     H 6884   1.425   7.855   0.812  0.3941 -1.6798  0.1584
   51MOL0     H 6885   1.522   7.768   0.685  1.4630  0.4394 -1.6528
   52MOL0     O 6886  10.002   9.744   0.758  0.0193  0.5022 -0.0520
   52MOL0     C 6887   9.954   9.644   0.813 -0.5284  0.1237  0.6469
   52MOL0     O 6888  10.015   9.521   0.800  0.6045  0.3611  0.2029
   52MOL0     C 6889  10.133   9.505   0.728 -0.2181  1.0318 -0.2862
   52MOL0     C 6890  10.253   9.565   0.760  0.1077 -0.1873 -0.8128
   52MOL0     C 6891  10.372   9.516   0.696  0.3150  0.2571  0.5223
   52MOL0     C 6892  10.370   9.415   0.603 -0.7236 -0.0037  0.1117
   52MOL0     O 6893  10.476   9.360   0.533 -0.2251 -0.3721 -0.2266
   52MOL0     C 6894  10.593   9.326   0.611 -0.3601 -0.8524 -0.2668
   52MOL0     C 6895  10.709   9.424   0.579 -0.3252 -0.2300 -0.0703
   52MOL0     C 6896  10.840   9.365   0.627  0.0684  0.0568  1.1045
   52MOL0     C 6897  10.964   9.403   0.543 -0.0783 -0.7513  0.3580
   52MOL0     C 6898  11.094   9.330   0.588  0.5094 -0.5499 -0.1805
   52MOL0     C 6899  11.112   9.171   0.567 -0.6397 -0.1911 -0.1424
   52MOL0     C 6900  11.088   9.132   0.421 -0.4553  0.2043  0.5405
   52MOL0     C 6901  11.117   8.986   0.396 -0.0372  0.2107  0.4615
   52MOL0     N 6902  11.251   8.953   0.438  0.9143  0.4055 -0.5000
   52MOL0     C 6903  11.365   8.998   0.375  1.1030  0.8943 -1.5162
   52MOL0     C 6904  11.464   8.939   0.443  0.1479  0.2147  0.5291
   52MOL0     C 6905  11.609   8.980   0.413  0.7379 -0.2086 -0.0193
   52MOL0     C 6906  11.660   9.051   0.540 -0.4230  0.1627 -0.6594
   52MOL0     C 6907  11.579   9.177   0.574  0.6568  0.1065  0.0314
   52MOL0     C 6908  11.645   9.259   0.684  0.1809  0.3589  0.5127
   52MOL0     O 6909  11.769   9.311   0.640  0.6421 -0.0815  0.4790
   52MOL0     C 6910  11.877   9.298   0.711 -0.4950 -0.8427 -0.6545
   52MOL0     C 6911  11.995   9.335   0.648  0.7300 -0.8907  0.0945
   52MOL0     C 6912  12.118   9.327   0.711  0.4267 -0.3452 -0.4049
   52MOL0     C 6913  12.129   9.271   0.839 -0.2909  0.6430 -0.3555
   52MOL0     C 6914  12.263   9.250   0.911 -0.6672 -1.6487  0.9694
   52MOL0     O 6915  12.377   9.301   0.846  0.2113  0.2893 -0.2024
   52MOL0     C 6916  12.500   9.313   0.907 -0.3500  0.5634  0.8985
   52MOL0     C 6917  12.541   9.282   1.041  0.3406  0.7545  0.8365
   52MOL0     C 6918  12.672   9.313   1.088 -0.0467  0.8161  0.5383
   52MOL0     C 6919  12.767   9.363   1.003  0.1380  0.1439 -0.0916
   52MOL0     O 6920  12.897   9.377   1.052 -0.1000 -0.8039 -0.5364
   52MOL0     C 6921  12.909   9.514   1.096  0.1402 -0.0354 -0.3450
   52MOL0     C 6922  13.035   9.511   1.170  0.5046  0.3794 -0.7407
   52MOL0     C 6923  13.081   9.652   1.193  0.3489 -0.0870  0.0651
   52MOL0     C 6924  12.977   9.759   1.232  0.2630 -0.0854 -0.7090
   52MOL0     C 6925  13.041   9.896   1.234  0.2119 -0.2447 -0.8607
   52MOL0     C 6926  13.119   9.918   1.368 -0.2334 -0.3341 -0.0897
   52MOL0     C 6927  13.133  10.068   1.398 -0.2231 -0.1797  0.1905
   52MOL0     C 6928  13.250  10.094   1.495 -0.4740 -0.0367 -0.4590
   52MOL0    Cl 6929  13.257   9.981   1.637 -0.1503  0.1372  0.1795
   52MOL0     C 6930  12.736   9.368   0.869 -0.6205 -0.4769  0.1562
   52MOL0     C 6931  12.608   9.356   0.819  0.3086  0.6520 -0.0256
   52MOL0     O 6932  12.260   9.198   1.021  0.4185 -0.8349 -0.5612
   52MOL0     C 6933  12.007   9.228   0.895  0.1346  1.6548  0.5031
   52MOL0     C 6934  11.885   9.253   0.841  0.6383 -0.3228 -1.1586
   52MOL0     N 6935  11.406   8.857   0.542 -0.0025 -0.8552  0.1230
   52MOL0     N 6936  11.277   8.877   0.544  0.0096  0.7814  0.6604
   52MOL0     C 6937  10.245   9.371   0.561  0.3241 -0.4420 -0.1366
   52MOL0     C 6938  10.128   9.406   0.629 -0.5350  0.1081 -0.0254
   52MOL0     C 6939   9.815   9.659   0.877  0.5647  0.3090  0.9757
   52MOL0     C 6940   9.751   9.537   0.923 -0.0122 -0.4357 -0.1017
   52MOL0     C 6941   9.623   9.544   0.991 -0.0756  0.7379 -0.5556
   52MOL0     C 6942   9.544   9.659   0.976  0.3095 -0.0217  0.1363
   52MOL0     O 6943   9.415   9.665   1.005  0.2270  0.1349  0.1948
   52MOL0     C 6944   9.347   9.551   1.069  0.2825  0.1741 -0.0829
   52MOL0     C 6945   9.209   9.609   1.103  0.4711 -0.0844  0.3797
   52MOL0     C 6946   9.104   9.520   1.157  0.2972  0.3886  0.1548
   52MOL0     C 6947   8.974   9.590   1.204 -0.4417 -0.6084 -0.0587
   52MOL0     C 6948   8.936   9.701   1.108 -0.4156 -0.5347 -0.3432
   52MOL0     C 6949   8.907   9.788   1.031 -0.1753  0.4338  0.1711
   52MOL0     C 6950   9.607   9.772   0.928  0.3520 -0.3890  0.7255
   52MOL0     C 6951   9.737   9.783   0.879  0.1330  0.6636  0.1529
   52MOL0     C 6952   9.788   9.909   0.832 -1.1734 -0.6195  0.5398
   52MOL0     H 6953  10.256   9.642   0.836 -1.4151 -0.3644 -0.5412
   52MOL0     H 6954  10.458   9.568   0.736 -2.4236  4.2306  1.9218
   52MOL0     H 6955  10.564   9.325   0.716 -1.2357 -1.0447 -0.4986
   52MOL0     H 6956  10.620   9.221   0.594  2.9534 -0.2510  0.6316
   52MOL0     H 6957  10.687   9.523   0.622  0.3257  0.5006 -1.3397
   52MOL0     H 6958  10.710   9.441   0.471 -1.3011 -3.0635 -0.5817
   52MOL0     H 6959  10.837   9.257   0.615 -1.7861  0.0954  0.9322
   52MOL0     H 6960  10.860   9.373   0.735 -2.4779  1.4559  1.5617
   52MOL0     H 6961  10.931   9.377   0.442  0.2204  0.6297 -0.1199
   52MOL0     H 6962  10.971   9.512   0.544  0.0753 -0.7632  0.6532
   52MOL0     H 6963  11.166   9.378   0.521  0.9023  0.6609  1.0560
   52MOL0     H 6964  11.123   9.364   0.689  0.7592 -3.4646  0.8243
   52MOL0     H 6965  11.216   9.153   0.592  0.4317  1.0903 -3.1838
   52MOL0     H 6966  11.043   9.119   0.634  0.1544  1.6346  2.2037
   52MOL0     H 6967  11.158   9.187   0.357  2.6576 -2.7036  1.1478
   52MOL0     H 6968  10.986   9.160   0.393 -0.8855 -1.7352 -0.0211
   52MOL0     H 6969  11.038   8.929   0.446  0.5981 -1.2090 -0.0940
   52MOL0     H 6970  11.108   8.952   0.292 -3.1185  0.3899  0.5659
   52MOL0     H 6971  11.380   9.075   0.300  0.4902  2.0065 -0.5347
   52MOL0     H 6972  11.665   8.891   0.382 -0.0063  0.3381 -3.2939
   52MOL0     H 6973  11.616   9.054   0.332 -1.3350 -1.2782 -1.2733
   52MOL0     H 6974  11.639   8.989   0.628 -0.2550  4.6470  2.9429
   52MOL0     H 6975  11.767   9.071   0.525  0.1152 -2.8700 -1.6130
   52MOL0     H 6976  11.484   9.151   0.621  0.9066 -2.5597 -0.7876
   52MOL0     H 6977  11.564   9.240   0.485 -0.5118 -1.4436 -0.9340
   52MOL0     H 6978  11.657   9.197   0.773 -1.5550 -0.8649 -0.0480
   52MOL0     H 6979  11.577   9.340   0.711  1.4385  1.4464  0.5042
   52MOL0     H 6980  11.994   9.377   0.548  3.8364 -0.4584  0.1390
   52MOL0     H 6981  12.210   9.369   0.671 -0.6860  2.9628  0.1733
   52MOL0     H 6982  12.460   9.246   1.104  0.5398 -0.6226  0.3290
   52MOL0     H 6983  12.691   9.284   1.191  3.3800  0.3675 -0.1281
   52MOL0     H 6984  12.918   9.570   1.002 -0.4795 -1.5879 -1.3767
   52MOL0     H 6985  12.826   9.546   1.159  0.5081 -1.7737  1.0894
   52MOL0     H 6986  13.021   9.461   1.266  1.1239 -1.6739 -1.6526
   52MOL0     H 6987  13.109   9.460   1.106 -0.8359 -0.5385 -1.6124
   52MOL0     H 6988  13.165   9.648   1.263  1.2147  1.4051 -0.8382
   52MOL0     H 6989  13.135   9.682   1.103  0.7245  1.4875  0.7810
   52MOL0     H 6990  12.922   9.732   1.323  2.2875  2.9389  1.6021
   52MOL0     H 6991  12.902   9.764   1.153 -2.3023 -0.5986  1.5322
   52MOL0     H 6992  12.957   9.966   1.231  0.1147 -0.2623  0.7835
   52MOL0     H 6993  13.114   9.905   1.153  1.8744  1.6698  0.7328
   52MOL0     H 6994  13.071   9.874   1.455 -4.5943 -0.6733 -2.3880
   52MOL0     H 6995  13.219   9.875   1.366  0.2394  0.6630  0.9268
   52MOL0     H 6996  13.040  10.093   1.450 -0.2904 -1.4194  0.6889
   52MOL0     H 6997  13.145  10.133   1.311  0.9417 -0.9582 -0.2561
   52MOL0     H 6998  13.348  10.091   1.447  0.7244  0.2970  1.8535
   52MOL0     H 6999  13.248  10.199   1.523  1.0042  0.3853 -1.8480
   52MOL0     H 7000  12.815   9.405   0.804  0.6407 -1.1125  1.2851
   52MOL0     H 7001  12.588   9.366   0.712  0.3819 -3.6236 -0.6071
   52MOL0     H 7002  12.004   9.173   0.989 -1.8049  0.2558 -0.3103
   52MOL0     H 7003  11.814   9.226   0.918  1.4177  2.6077  0.7195
   52MOL0     H 7004  10.235   9.294   0.485  1.7015 -1.2046  0.4161
   52MOL0     H 7005  10.039   9.344   0.621  0.1672 -1.0341  0.6660
   52MOL0     H 7006   9.805   9.443   0.916  1.6626  0.5034 -0.2935
   52MOL0     H 7007   9.579   9.448   1.015  0.6806  0.5112 -0.0578
   52MOL0     H 7008   9.408   9.523   1.156  2.7961  2.3102 -1.0588
   52MOL0     H 7009   9.337   9.466   1.001 -2.6352  0.9962 -0.8179
   52MOL0     H 7010   9.162   9.655   1.015 -3.0542  0.4222  2.3334
   52MOL0     H 7011   9.223   9.688   1.177  1.4143 -0.9416  1.1435
   52MOL0     H 7012   9.136   9.470   1.249 -3.5479  0.8408  1.9260
   52MOL0     H 7013   9.076   9.447   1.080 -1.6286  1.2184  0.0215
   52MOL0     H 7014   8.889   9.527   1.229  1.3614 -1.5442  4.9240
   52MOL0     H 7015   9.000   9.637   1.300 -0.8938  1.7493 -1.0192
   52MOL0     H 7016   8.871   9.869   0.971 -1.3044  1.5908  2.3051
   52MOL0     H 7017   9.545   9.861   0.928 -0.8819 -1.2126 -0.5832
   52MOL0     H 7018   9.707   9.982   0.823  1.0143  1.6761 -3.2862
   52MOL0     H 7019   9.870   9.955   0.889 -0.1085 -0.6309 -0.9166
   52MOL0     H 7020   9.823   9.897   0.729 -0.6157  0.0591  0.6412
   53MOL0     O 7021   9.251   2.642   0.477  1.2637 -0.6983 -0.4213
   53MOL0     C 7022   9.164   2.641   0.386 -0.7111 -0.6930  0.0478
   53MOL0     O 7023   9.038   2.683   0.407  0.9926 -0.0732  0.0217
   53MOL0     C 7024   8.994   2.701   0.534  0.4891 -0.7014 -0.1065
   53MOL0     C 7025   8.934   2.598   0.605 -0.1193  0.0247  0.1904
   53MOL0     C 7026   8.869   2.628   0.727  1.1417 -0.6126 -0.2830
   53MOL0     C 7027   8.871   2.763   0.793  0.0590  0.9850  0.2774
   53MOL0     O 7028   8.803   2.772   0.916 -0.1507  0.2883 -0.9946
   53MOL0     C 7029   8.791   2.898   0.976 -0.4850  0.9844 -0.3442
   53MOL0     C 7030   8.907   2.940   1.078  0.2836  0.8863  0.0440
   53MOL0     C 7031   8.904   3.095   1.122 -0.2612 -0.3395  0.2944
   53MOL0     C 7032   8.974   3.171   1.012  0.9525 -0.3513  0.1479
   53MOL0     C 7033   8.949   3.317   1.026 -1.3549  0.1893  0.0304
   53MOL0     C 7034   9.052   3.401   0.958 -1.2370  0.5472 -0.1808
   53MOL0     C 7035   9.027   3.551   0.965 -0.3317  0.6977 -0.5018
   53MOL0     C 7036   9.077   3.611   1.096 -0.3451 -0.0399 -0.0793
   53MOL0     N 7037   9.021   3.745   1.112 -1.5700  0.1347 -0.2375
   53MOL0     C 7038   9.080   3.871   1.078 -0.2652 -0.5993  0.7039
   53MOL0     C 7039   8.984   3.963   1.086  0.6604 -0.6394 -0.5393
   53MOL0     C 7040   8.990   4.115   1.072  0.6193  0.5898  0.1072
   53MOL0     C 7041   9.041   4.189   1.204 -0.8409 -0.2318  0.3553
   53MOL0     C 7042   9.070   4.337   1.153  0.7915  0.0078 -0.2099
   53MOL0     C 7043   9.215   4.356   1.094 -0.5327  0.3093  0.1247
   53MOL0     O 7044   9.307   4.352   1.200  0.7165  0.2147 -0.2977
   53MOL0     C 7045   9.442   4.375   1.188  0.4214  1.2168 -1.0745
   53MOL0     C 7046   9.515   4.305   1.286 -0.6876 -0.6265 -0.1224
   53MOL0     C 7047   9.653   4.330   1.294 -0.5464  0.0869  0.2144
   53MOL0     C 7048   9.716   4.419   1.203  0.3032  0.4006 -0.2230
   53MOL0     C 7049   9.861   4.448   1.200 -0.5727  0.4641  1.0219
   53MOL0     O 7050   9.895   4.565   1.137  0.5973 -0.2033  0.4755
   53MOL0     C 7051  10.029   4.606   1.122  0.4074 -0.5588  0.0955
   53MOL0     C 7052  10.075   4.646   0.993  0.7130  0.4625 -0.3216
   53MOL0     C 7053  10.206   4.695   0.975  0.0040  0.5552 -0.0454
   53MOL0     C 7054  10.284   4.717   1.090  0.3634  0.3751 -0.2521
   53MOL0     O 7055  10.406   4.773   1.091 -0.5205  0.4048 -0.0383
   53MOL0     C 7056  10.474   4.816   0.973  0.6355  0.1631  0.2982
   53MOL0     C 7057  10.581   4.923   1.003  0.3898 -0.1516  0.3063
   53MOL0     C 7058  10.703   4.855   1.071 -0.3254  0.0444 -0.7951
   53MOL0     C 7059  10.810   4.960   1.092  0.5169  0.5205  0.0556
   53MOL0     C 7060  10.926   4.919   1.180  0.2554 -0.1826 -0.7014
   53MOL0     C 7061  11.053   5.013   1.151 -0.3292  0.2766 -0.2223
   53MOL0     C 7062  11.180   4.964   1.235 -0.3532  0.1626 -0.9131
   53MOL0     C 7063  11.283   5.081   1.253  0.1871  0.1887  0.5343
   53MOL0    Cl 7064  11.434   5.012   1.292  0.0874 -0.3182 -0.0590
   53MOL0     C 7065  10.244   4.657   1.210 -0.3625  0.0997 -0.5975
   53MOL0     C 7066  10.119   4.610   1.228 -0.3849  1.1915  0.6253
   53MOL0     O 7067   9.939   4.369   1.256 -0.6814 -0.0967  0.6636
   53MOL0     C 7068   9.639   4.467   1.094  0.0736 -0.0109 -0.0758
   53MOL0     C 7069   9.501   4.441   1.085 -0.2151  0.0226  0.1433
   53MOL0     N 7070   8.863   3.885   1.106 -0.3760 -1.0311  0.2324
   53MOL0     N 7071   8.892   3.764   1.125 -0.2797  0.9525  0.5137
   53MOL0     C 7072   8.928   2.864   0.715 -0.2071  0.6670 -0.2127
   53MOL0     C 7073   8.995   2.834   0.600 -0.0762  0.5266 -0.7650
   53MOL0     C 7074   9.212   2.580   0.260  0.4713  0.0767 -0.4031
   53MOL0     C 7075   9.346   2.542   0.248 -0.7844 -0.6390 -0.0832
   53MOL0     C 7076   9.400   2.502   0.121  0.0397  0.7238 -0.6166
   53MOL0     C 7077   9.309   2.489   0.014 -0.1169 -0.2734 -0.0728
   53MOL0     O 7078   9.378   2.453  -0.094  0.1910 -0.4717 -0.0002
   53MOL0     C 7079   9.327   2.484  -0.222 -0.4053 -0.3817  0.6150
   53MOL0     C 7080   9.264   2.359  -0.280 -0.4773 -0.5643  0.0416
   53MOL0     C 7081   9.165   2.393  -0.390 -0.4153 -0.3331 -1.0099
   53MOL0     C 7082   9.224   2.473  -0.511  0.6197 -1.0382 -1.0393
   53MOL0     C 7083   9.119   2.497  -0.611 -0.5361  0.1182  0.4798
   53MOL0     C 7084   9.040   2.515  -0.696 -0.0533 -0.4484  0.0297
   53MOL0     C 7085   9.169   2.503   0.033  0.2410 -0.4201 -0.3134
   53MOL0     C 7086   9.121   2.556   0.157  0.6673  1.2629  0.2156
   53MOL0     C 7087   8.965   2.582   0.164  0.0556 -0.1998 -0.3998
   53MOL0     H 7088   8.933   2.500   0.559 -1.6826  0.2860 -0.3730
   53MOL0     H 7089   8.816   2.551   0.783 -0.6589  0.7333 -0.0371
   53MOL0     H 7090   8.773   2.975   0.900  0.8114 -1.1029 -2.9012
   53MOL0     H 7091   8.697   2.889   1.032 -0.0110  0.2793  0.3583
   53MOL0     H 7092   9.005   2.918   1.034  1.0949  4.2098 -0.1239
   53MOL0     H 7093   8.893   2.879   1.168 -0.0527  0.5110 -0.2595
   53MOL0     H 7094   8.953   3.114   1.218 -1.1080  0.7218  0.5213
   53MOL0     H 7095   8.801   3.128   1.138 -0.1672 -0.0966  0.3957
   53MOL0     H 7096   9.081   3.152   1.019  1.0928  0.2473 -0.3786
   53MOL0     H 7097   8.925   3.153   0.916 -2.4835  2.7896  1.0462
   53MOL0     H 7098   8.852   3.347   0.985 -2.0383  0.5005  1.8009
   53MOL0     H 7099   8.949   3.342   1.132 -1.0002 -0.1075  0.1053
   53MOL0     H 7100   9.153   3.378   0.994 -1.0065  0.3984 -0.9058
   53MOL0     H 7101   9.058   3.374   0.853 -1.0836  0.5031 -0.1613
   53MOL0     H 7102   8.921   3.571   0.948 -0.3925 -0.1532 -1.1792
   53MOL0     H 7103   9.086   3.592   0.883 -0.5369  1.1560 -0.4205
   53MOL0     H 7104   9.033   3.544   1.169 -3.5955 -0.2112 -1.9863
   53MOL0     H 7105   9.187   3.611   1.096 -0.3052 -0.5729 -2.0451
   53MOL0     H 7106   9.183   3.899   1.062 -0.7789  0.9209 -0.1489
   53MOL0     H 7107   9.066   4.138   0.996 -0.4849  1.8366 -0.6612
   53MOL0     H 7108   8.888   4.145   1.046  0.6945  0.1197 -0.7673
   53MOL0     H 7109   8.957   4.177   1.272 -0.5687  0.1619  0.7651
   53MOL0     H 7110   9.133   4.150   1.249 -0.4888  2.1156  1.8448
   53MOL0     H 7111   9.041   4.414   1.226 -1.0101 -1.0794  0.2792
   53MOL0     H 7112   9.007   4.356   1.066 -0.1674 -2.5311 -0.1656
   53MOL0     H 7113   9.217   4.456   1.051 -0.6115  0.8464  1.3338
   53MOL0     H 7114   9.240   4.279   1.021 -0.9053  1.6327 -1.4657
   53MOL0     H 7115   9.464   4.243   1.359 -0.6892 -0.4089  0.0654
   53MOL0     H 7116   9.716   4.283   1.369  1.3830  1.4458 -0.4871
   53MOL0     H 7117  10.016   4.653   0.902 -2.6213  0.1758  1.6565
   53MOL0     H 7118  10.238   4.725   0.876 -3.3156 -1.4264 -1.8947
   53MOL0     H 7119  10.532   4.741   0.919  0.7126  0.8494 -0.6047
   53MOL0     H 7120  10.391   4.856   0.913  0.1620  0.3320  1.0567
   53MOL0     H 7121  10.611   4.961   0.905  0.3102 -3.5544 -1.1658
   53MOL0     H 7122  10.525   5.000   1.057 -0.6702 -1.0151  0.4631
   53MOL0     H 7123  10.667   4.827   1.171  0.2787  1.5023 -0.1402
   53MOL0     H 7124  10.740   4.771   1.013  0.0096  0.3803 -1.0693
   53MOL0     H 7125  10.766   5.057   1.119 -1.9967 -0.6084  0.3406
   53MOL0     H 7126  10.855   4.980   0.994  1.1205 -1.5992 -0.1437
   53MOL0     H 7127  10.952   4.814   1.165 -1.0363 -0.6865  0.4076
   53MOL0     H 7128  10.902   4.939   1.284  0.2822  0.4712 -0.8175
   53MOL0     H 7129  11.078   5.010   1.044 -0.8682  2.0853 -0.4300
   53MOL0     H 7130  11.033   5.118   1.173  0.9964  0.5797 -0.3872
   53MOL0     H 7131  11.224   4.884   1.174 -1.2756 -1.2829  0.2620
   53MOL0     H 7132  11.156   4.919   1.332 -0.7371 -0.3419 -1.2355
   53MOL0     H 7133  11.296   5.132   1.158  3.4710  1.0037  1.2830
   53MOL0     H 7134  11.261   5.151   1.335  2.0583  0.7296  0.6208
   53MOL0     H 7135  10.319   4.646   1.288 -1.9306 -3.5348  0.6661
   53MOL0     H 7136  10.096   4.570   1.326  2.9174 -0.5793  0.8255
   53MOL0     H 7137   9.674   4.514   1.003 -3.8552 -2.2972 -3.0839
   53MOL0     H 7138   9.455   4.451   0.987  0.8535 -1.6756 -0.5622
   53MOL0     H 7139   8.931   2.961   0.764  1.0998 -0.8642  3.0502
   53MOL0     H 7140   9.048   2.915   0.550  1.1593 -0.5443 -1.2760
   53MOL0     H 7141   9.424   2.567   0.319  0.9060 -0.9781 -1.7366
   53MOL0     H 7142   9.505   2.492   0.098 -0.4689  0.8480 -3.2330
   53MOL0     H 7143   9.404   2.520  -0.291  1.7825 -0.7120  2.7442
   53MOL0     H 7144   9.252   2.564  -0.221 -0.2850 -0.2204 -0.8401
   53MOL0     H 7145   9.202   2.310  -0.204  0.8264  0.4365  1.8280
   53MOL0     H 7146   9.335   2.284  -0.314 -0.4614 -0.3869 -0.3181
   53MOL0     H 7147   9.083   2.443  -0.338  0.7673 -0.5523  1.1767
   53MOL0     H 7148   9.143   2.290  -0.419  1.4131 -0.8134 -0.7901
   53MOL0     H 7149   9.256   2.572  -0.477 -0.3213 -0.3174 -2.1923
   53MOL0     H 7150   9.309   2.421  -0.557 -0.4721 -2.4090 -1.5646
   53MOL0     H 7151   8.972   2.534  -0.776 -2.2595 -0.3237  1.8412
   53MOL0     H 7152   9.113   2.498  -0.060  2.8404 -3.3855 -1.8824
   53MOL0     H 7153   8.910   2.513   0.229  0.1997 -2.1469 -2.2608
   53MOL0     H 7154   8.957   2.685   0.201 -0.3614 -0.6353  0.7824
   53MOL0     H 7155   8.921   2.573   0.065 -2.7424  0.0031  0.7267
   54MOL0     O 7156   8.417  10.643   9.581  0.2337  0.7984  0.2114
   54MOL0     C 7157   8.314  10.708   9.590 -0.3782 -0.5661 -0.8090
   54MOL0     O 7158   8.316  10.833   9.648 -0.1912  0.3180  0.1479
   54MOL0     C 7159   8.427  10.882   9.707  0.4589 -0.1607  0.4202
   54MOL0     C 7160   8.410  10.937   9.841  0.2156 -0.2724  0.5649
   54MOL0     C 7161   8.523  11.002   9.891 -0.7818  0.0782  0.0448
   54MOL0     C 7162   8.643  11.022   9.820  0.9788 -0.5232  0.2699
   54MOL0     O 7163   8.743  11.102   9.862 -0.1077 -0.7997 -0.3766
   54MOL0     C 7164   8.714  11.202   9.957  0.0473  0.3271  0.3164
   54MOL0     C 7165   8.829  11.300   9.953 -0.2317 -0.0132 -0.6846
   54MOL0     C 7166   8.799  11.442  10.000  0.3482  0.0879  0.4899
   54MOL0     C 7167   8.886  11.556   9.957  0.2747 -0.5672  0.3464
   54MOL0     C 7168   9.024  11.549  10.022  0.6459 -0.2096  0.2531
   54MOL0     C 7169   9.126  11.522   9.914 -0.4831 -0.2531  0.5227
   54MOL0     C 7170   9.263  11.485   9.973  1.0357 -0.1337  0.6723
   54MOL0     C 7171   9.352  11.611  10.000 -0.0254 -0.1590  0.0195
   54MOL0     N 7172   9.486  11.578  10.040 -0.6336  0.4413 -0.2973
   54MOL0     C 7173   9.597  11.650  10.006  0.5922  0.0556  0.2052
   54MOL0     C 7174   9.698  11.577  10.052 -0.3149  0.7452  0.1687
   54MOL0     C 7175   9.837  11.615  10.053 -0.6601 -0.4896  0.6681
   54MOL0     C 7176   9.861  11.702  10.171 -1.0083 -0.4549  0.9911
   54MOL0     C 7177   9.998  11.775  10.153 -0.1527 -0.3270  0.0622
   54MOL0     C 7178  10.022  11.865  10.267  0.3438  0.2133  1.1779
   54MOL0     O 7179  10.127  11.961  10.229  0.3929 -0.0498  0.4667
   54MOL0     C 7180  10.234  11.956  10.317  0.3849 -0.0594 -0.1977
   54MOL0     C 7181  10.254  12.070  10.393  0.0322  0.4163 -0.7927
   54MOL0     C 7182  10.360  12.072  10.485 -0.1064 -0.4060 -0.3393
   54MOL0     C 7183  10.455  11.968  10.483  0.2979 -0.9391  0.2441
   54MOL0     C 7184  10.579  11.986  10.566  0.6927  0.2939 -0.2141
   54MOL0     O 7185  10.679  11.896  10.539  0.0419  0.6948  0.2903
   54MOL0     C 7186  10.789  11.907  10.619 -0.0849 -1.0394  0.1829
   54MOL0     C 7187  10.891  11.990  10.580  1.0210 -0.1263 -0.4823
   54MOL0     C 7188  11.016  11.997  10.648 -0.0855 -0.0978 -0.5038
   54MOL0     C 7189  11.040  11.911  10.759  0.3820  0.2674 -0.7543
   54MOL0     O 7190  11.154  11.898  10.829 -0.8182 -0.1707  0.7203
   54MOL0     C 7191  11.282  11.916  10.754 -0.0842 -0.1711  0.2744
   54MOL0     C 7192  11.410  11.870  10.829 -0.2211  0.0169  0.3368
   54MOL0     C 7193  11.528  11.831  10.741  0.2674 -0.1837  0.4188
   54MOL0     C 7194  11.630  11.766  10.828  0.0598 -0.6285  0.1067
   54MOL0     C 7195  11.748  11.749  10.738  0.0861  0.2206 -0.4087
   54MOL0     C 7196  11.842  11.873  10.724 -0.2580  0.3575  0.7563
   54MOL0     C 7197  11.974  11.841  10.656 -0.5882 -0.0522  0.5667
   54MOL0     C 7198  12.074  11.961  10.677 -0.0402  0.1500 -0.6523
   54MOL0    Cl 7199  12.017  12.128  10.633  0.3634 -0.1294 -0.3998
   54MOL0     C 7200  10.935  11.828  10.804  0.8203  0.3691  0.3140
   54MOL0     C 7201  10.809  11.823  10.733  0.5110  0.7099 -0.7716
   54MOL0     O 7202  10.579  12.066  10.654  0.0764  0.1937 -0.4386
   54MOL0     C 7203  10.439  11.855  10.403 -0.1435  0.5451 -0.4422
   54MOL0     C 7204  10.320  11.846  10.325 -0.2219  0.1684  0.6073
   54MOL0     N 7205   9.651  11.465  10.112 -0.0539 -0.7911 -0.1807
   54MOL0     N 7206   9.525  11.460  10.099 -0.9620 -0.8857  0.1348
   54MOL0     C 7207   8.657  10.958   9.693  0.5694 -0.4505  0.5599
   54MOL0     C 7208   8.549  10.891   9.639  0.3563 -0.5113 -0.9612
   54MOL0     C 7209   8.191  10.645   9.547  0.3836  0.4988  0.2737
   54MOL0     C 7210   8.155  10.520   9.594 -0.6171 -0.3997  0.0366
   54MOL0     C 7211   8.030  10.469   9.561  0.2404  0.2878  0.5809
   54MOL0     C 7212   7.952  10.534   9.469 -0.0467 -0.7389  0.5266
   54MOL0     O 7213   7.829  10.492   9.433  0.4860  0.3446 -0.1219
   54MOL0     C 7214   7.810  10.349   9.389 -0.0458 -0.2294 -0.6661
   54MOL0     C 7215   7.900  10.309   9.268  0.9181 -0.3476  0.4115
   54MOL0     C 7216   7.876  10.404   9.151  0.7296  0.0952  0.1252
   54MOL0     C 7217   7.911  10.336   9.016  0.4659  0.6739 -0.6042
   54MOL0     C 7218   7.809  10.236   8.990 -0.1363 -0.0517  0.6193
   54MOL0     C 7219   7.723  10.150   8.958  0.1101  0.2983  0.2642
   54MOL0     C 7220   7.992  10.657   9.420 -0.1094 -0.0453 -0.2712
   54MOL0     C 7221   8.110  10.723   9.466 -0.2382 -0.0937 -1.0139
   54MOL0     C 7222   8.131  10.865   9.422  0.7708  0.3848  0.2449
   54MOL0     H 7223   8.315  10.927   9.893  0.4321  3.2645  1.8965
   54MOL0     H 7224   8.516  11.046   9.990  0.2062 -2.6477  1.4266
   54MOL0     H 7225   8.628  11.260   9.922  1.9375  3.1975  0.1049
   54MOL0     H 7226   8.698  11.168  10.060  2.2665  2.3719  1.4499
   54MOL0     H 7227   8.868  11.301   9.850 -1.5828 -0.5999 -1.2246
   54MOL0     H 7228   8.905  11.244  10.009 -0.5706 -1.7149 -1.8355
   54MOL0     H 7229   8.786  11.448  10.108 -1.3509  0.3820  0.2840
   54MOL0     H 7230   8.702  11.470   9.958  0.1048  2.0391  2.1917
   54MOL0     H 7231   8.893  11.542   9.849  1.7298 -1.6347  0.5490
   54MOL0     H 7232   8.843  11.652   9.986  0.8496 -0.6468  1.5223
   54MOL0     H 7233   9.063  11.639  10.070  0.7539  0.0967 -0.4023
   54MOL0     H 7234   9.025  11.459  10.085  1.5580 -1.7530 -1.8161
   54MOL0     H 7235   9.089  11.442   9.850  2.2900  0.0123 -1.6037
   54MOL0     H 7236   9.141  11.608   9.848  2.3721 -2.4131 -1.9030
   54MOL0     H 7237   9.309  11.432   9.888 -0.3348  2.1274 -1.6248
   54MOL0     H 7238   9.263  11.415  10.057 -0.9745 -1.2027 -0.1586
   54MOL0     H 7239   9.360  11.659   9.903  0.6543 -0.5289 -0.1199
   54MOL0     H 7240   9.302  11.676  10.071 -0.6144  0.1719 -0.6929
   54MOL0     H 7241   9.608  11.736   9.941 -1.3146  0.0886 -0.1235
   54MOL0     H 7242   9.897  11.523  10.053 -1.1793 -0.8326  0.7712
   54MOL0     H 7243   9.867  11.666   9.960  0.1042 -0.3078  1.0065
   54MOL0     H 7244   9.783  11.778  10.180  0.5796  1.4792 -0.6548
   54MOL0     H 7245   9.844  11.641  10.260  1.0143 -2.5405  0.0327
   54MOL0     H 7246   9.997  11.834  10.061 -2.5225 -1.5508 -0.7879
   54MOL0     H 7247  10.081  11.703  10.153 -1.4661 -1.9623 -2.0776
   54MOL0     H 7248  10.045  11.809  10.358  2.0537  0.6895  1.0738
   54MOL0     H 7249   9.935  11.929  10.288  0.3835  0.3982  0.7769
   54MOL0     H 7250  10.195  12.160  10.381  0.6932  1.7829  4.1295
   54MOL0     H 7251  10.391  12.153  10.551  2.0237  0.1445 -1.8824
   54MOL0     H 7252  10.858  12.051  10.497 -0.5482  0.4811  0.5354
   54MOL0     H 7253  11.096  12.062  10.616 -0.0717  1.3377  2.1638
   54MOL0     H 7254  11.283  11.862  10.659  1.7884  0.0032  0.1487
   54MOL0     H 7255  11.291  12.025  10.742  2.6210 -0.3318  0.1989
   54MOL0     H 7256  11.449  11.953  10.889  2.6030 -2.2419  1.8955
   54MOL0     H 7257  11.385  11.793  10.903 -0.4115  0.6393  0.9295
   54MOL0     H 7258  11.490  11.761  10.666  2.0548 -0.6509 -0.1154
   54MOL0     H 7259  11.553  11.930  10.701 -0.5569 -0.1134  0.0541
   54MOL0     H 7260  11.593  11.667  10.857 -2.0243  0.2504  0.6348
   54MOL0     H 7261  11.663  11.823  10.915 -1.1046  1.6147 -0.8524
   54MOL0     H 7262  11.715  11.724  10.637 -2.2682  2.1124 -0.1976
   54MOL0     H 7263  11.804  11.663  10.775 -2.0916 -1.7407 -1.4171
   54MOL0     H 7264  11.790  11.945  10.661 -2.0835 -2.2433 -0.9363
   54MOL0     H 7265  11.866  11.916  10.822  0.2899  1.0370  0.3336
   54MOL0     H 7266  11.960  11.806  10.553  1.2515 -2.3427  0.9999
   54MOL0     H 7267  12.017  11.756  10.710  1.3663  1.2297  1.1683
   54MOL0     H 7268  12.106  11.946  10.781  1.5822 -2.5008 -1.4249
   54MOL0     H 7269  12.167  11.943  10.623 -0.1162  4.5072 -2.5855
   54MOL0     H 7270  10.946  11.764  10.890  0.8744 -1.0850 -0.7402
   54MOL0     H 7271  10.728  11.761  10.770  0.3793  0.8014 -0.9096
   54MOL0     H 7272  10.509  11.774  10.413  1.1510  1.3142 -2.5983
   54MOL0     H 7273  10.299  11.761  10.261 -0.7496  1.9827 -1.7751
   54MOL0     H 7274   8.745  10.964   9.631  2.4027 -0.4356  2.9936
   54MOL0     H 7275   8.547  10.857   9.536 -0.6374 -1.1884 -0.7323
   54MOL0     H 7276   8.226  10.468   9.657  2.5790  1.9775 -1.2693
   54MOL0     H 7277   8.001  10.377   9.610  0.9043 -0.0491  0.3548
   54MOL0     H 7278   7.708  10.328   9.356 -0.9838  0.5097  1.5643
   54MOL0     H 7279   7.817  10.286   9.477 -2.1093 -0.6466 -0.7611
   54MOL0     H 7280   7.890  10.205   9.238 -1.8398  0.6238 -2.5972
   54MOL0     H 7281   8.005  10.324   9.295  1.0147 -0.4703  0.1034
   54MOL0     H 7282   7.948  10.486   9.151  0.4269  0.4722 -2.5911
   54MOL0     H 7283   7.773  10.439   9.160 -0.6464 -2.3822 -3.4931
   54MOL0     H 7284   7.912  10.408   8.933  3.2230  0.0473 -1.2087
   54MOL0     H 7285   8.010  10.291   9.021 -0.4660 -1.5746 -1.3066
   54MOL0     H 7286   7.649  10.079   8.927 -1.1424  2.1351 -1.1727
   54MOL0     H 7287   7.923  10.704   9.352 -1.6239 -0.9647  0.5750
   54MOL0     H 7288   8.093  10.935   9.498  3.1955  1.7338  0.3292
   54MOL0     H 7289   8.233  10.897   9.399 -0.0681  2.6060 -0.6991
   54MOL0     H 7290   8.079  10.884   9.328  1.6896 -0.8140 -0.5305
   55MOL0     O 7291   1.524   1.678   5.895 -0.1649  0.1541  0.8909
   55MOL0     C 7292   1.581   1.708   5.790 -0.1290 -0.1381 -1.0598
   55MOL0     O 7293   1.518   1.746   5.685  0.3990  0.3182 -0.1348
   55MOL0     C 7294   1.379   1.775   5.678 -0.8761  0.5282  1.0746
   55MOL0     C 7295   1.273   1.718   5.749  0.1993  0.2321  0.4696
   55MOL0     C 7296   1.141   1.770   5.735  0.6114 -0.0334 -0.0560
   55MOL0     C 7297   1.112   1.856   5.628  0.2594 -0.8456  0.4815
   55MOL0     O 7298   0.986   1.900   5.587 -0.1098 -0.2204 -0.3027
   55MOL0     C 7299   0.885   1.929   5.686 -0.4986 -0.8004  0.1184
   55MOL0     C 7300   0.766   1.830   5.682 -0.0960  0.5635  0.0081
   55MOL0     C 7301   0.642   1.895   5.743 -0.2628  0.3522 -0.0283
   55MOL0     C 7302   0.510   1.828   5.697 -0.2187  0.7715 -0.9659
   55MOL0     C 7303   0.382   1.910   5.740  0.0220  0.0211  0.1814
   55MOL0     C 7304   0.373   1.901   5.887  0.7448  0.6276  0.3249
   55MOL0     C 7305   0.281   2.006   5.943  0.5719 -0.0354 -0.8332
   55MOL0     C 7306   0.295   2.027   6.095  0.6147  0.1610  0.1599
   55MOL0     N 7307   0.213   2.140   6.144  0.2911 -0.6405  0.1481
   55MOL0     C 7308   0.265   2.274   6.162  0.2927 -0.6509  0.1759
   55MOL0     C 7309   0.177   2.344   6.238  1.2419  0.5517 -0.5346
   55MOL0     C 7310   0.197   2.483   6.296  0.5481  0.1381 -0.4875
   55MOL0     C 7311   0.349   2.501   6.328 -0.0582  0.1428 -0.2378
   55MOL0     C 7312   0.369   2.636   6.417 -0.4215  0.3505 -0.3230
   55MOL0     C 7313   0.516   2.672   6.415 -0.8601  0.1581  0.3293
   55MOL0     O 7314   0.560   2.702   6.278 -0.0722 -0.1490  0.2269
   55MOL0     C 7315   0.695   2.720   6.264  0.7139  0.6156  0.1070
   55MOL0     C 7316   0.779   2.775   6.355 -0.7217 -0.2317  1.1574
   55MOL0     C 7317   0.914   2.806   6.330 -0.2180  0.0972 -1.0159
   55MOL0     C 7318   0.977   2.753   6.209  0.0610 -0.6397  0.9931
   55MOL0     C 7319   1.128   2.775   6.184 -0.8000  0.8914  0.4879
   55MOL0     O 7320   1.165   2.704   6.075 -0.0556 -0.3494 -0.3714
   55MOL0     C 7321   1.286   2.723   6.018  0.7267  0.2701  0.0034
   55MOL0     C 7322   1.402   2.772   6.073  0.2861 -0.2093 -0.3217
   55MOL0     C 7323   1.518   2.787   5.994 -0.4561  1.2539  0.1495
   55MOL0     C 7324   1.510   2.764   5.850 -0.2883 -0.5146 -0.3994
   55MOL0     O 7325   1.618   2.792   5.769  0.2317 -0.6023 -0.4855
   55MOL0     C 7326   1.739   2.752   5.825  0.5646  0.1321  0.2054
   55MOL0     C 7327   1.834   2.696   5.706 -0.6173 -1.2576  0.5845
   55MOL0     C 7328   1.980   2.678   5.756 -0.1866  0.4775  0.3133
   55MOL0     C 7329   2.067   2.620   5.645  0.2454  0.1826  0.1003
   55MOL0     C 7330   2.200   2.581   5.703  0.1356 -0.5516  0.6521
   55MOL0     C 7331   2.264   2.488   5.593  0.6978 -0.5308  0.0249
   55MOL0     C 7332   2.389   2.423   5.658 -0.2236 -0.6978 -0.3522
   55MOL0     C 7333   2.427   2.298   5.589  0.1726 -0.3017 -0.5354
   55MOL0    Cl 7334   2.557   2.230   5.699  0.3768 -0.2660 -0.0452
   55MOL0     C 7335   1.388   2.720   5.798  0.2480 -0.3857 -0.4771
   55MOL0     C 7336   1.275   2.697   5.880  0.3117  0.2717 -0.8373
   55MOL0     O 7337   1.193   2.849   6.250  0.2799  0.2513 -0.0491
   55MOL0     C 7338   0.896   2.677   6.125 -0.5652 -0.1420 -0.5278
   55MOL0     C 7339   0.753   2.657   6.151  0.9660  0.1224  0.1601
   55MOL0     N 7340   0.067   2.253   6.259  0.3187 -0.2873 -0.5156
   55MOL0     N 7341   0.093   2.137   6.200 -0.0102 -0.1417  0.3171
   55MOL0     C 7342   1.225   1.897   5.546  0.4782 -0.2610 -0.3497
   55MOL0     C 7343   1.352   1.860   5.568  0.4115  0.6716 -0.4712
   55MOL0     C 7344   1.737   1.710   5.788  0.3135 -0.0251  0.7207
   55MOL0     C 7345   1.797   1.782   5.894 -0.1132  0.0461  0.1684
   55MOL0     C 7346   1.931   1.788   5.906 -0.4261  0.0305  0.5275
   55MOL0     C 7347   2.015   1.731   5.810 -1.2764  0.7757 -0.1300
   55MOL0     O 7348   2.149   1.740   5.833  0.0639 -0.5638 -0.8266
   55MOL0     C 7349   2.256   1.677   5.756  0.8537 -0.0597  0.7525
   55MOL0     C 7350   2.257   1.527   5.789 -1.0612 -0.3522 -0.2203
   55MOL0     C 7351   2.265   1.501   5.940 -0.2797  0.6117  0.2853
   55MOL0     C 7352   2.315   1.367   5.967 -0.6606  1.1902 -0.0071
   55MOL0     C 7353   2.453   1.350   5.919  0.4816 -0.0114  0.1533
   55MOL0     C 7354   2.560   1.342   5.867 -0.2389  0.0223  0.0818
   55MOL0     C 7355   1.958   1.657   5.705 -0.3209  0.5913  1.2463
   55MOL0     C 7356   1.819   1.645   5.687 -0.6621 -0.3792  0.0084
   55MOL0     C 7357   1.759   1.570   5.571  0.3344  0.1848  0.3125
   55MOL0     H 7358   1.294   1.653   5.833 -1.4576 -1.0190 -0.0196
   55MOL0     H 7359   1.058   1.748   5.802 -1.1239  0.4020 -1.9734
   55MOL0     H 7360   0.938   1.941   5.781  1.3383  2.1507 -1.1339
   55MOL0     H 7361   0.859   2.027   5.646  0.5035 -0.7657 -0.5030
   55MOL0     H 7362   0.805   1.742   5.734 -0.7150  0.1901 -0.1435
   55MOL0     H 7363   0.744   1.801   5.578  1.3552  0.4188 -0.2826
   55MOL0     H 7364   0.638   1.998   5.708 -0.6864  0.1101 -0.7198
   55MOL0     H 7365   0.655   1.897   5.852 -1.3313  0.5292  0.1025
   55MOL0     H 7366   0.501   1.818   5.588 -0.5029 -3.6278 -0.7432
   55MOL0     H 7367   0.513   1.727   5.739  0.7484  0.7352 -1.1046
   55MOL0     H 7368   0.395   2.014   5.707  0.4186  0.4264  1.5605
   55MOL0     H 7369   0.287   1.874   5.700  0.1829 -0.6989  0.4388
   55MOL0     H 7370   0.338   1.805   5.926  2.5946 -0.4576 -0.5531
   55MOL0     H 7371   0.472   1.923   5.929  2.3873  3.3499 -4.2807
   55MOL0     H 7372   0.176   1.984   5.921  0.3946 -2.1586  1.6623
   55MOL0     H 7373   0.303   2.101   5.893 -1.0399  1.0743  0.4491
   55MOL0     H 7374   0.260   1.934   6.141 -1.2410 -0.4721 -2.3076
   55MOL0     H 7375   0.401   2.052   6.105  0.7305 -0.0159 -0.5384
   55MOL0     H 7376   0.365   2.306   6.134 -1.2169  3.7713 -0.7932
   55MOL0     H 7377   0.156   2.550   6.221  0.7525 -0.5068 -1.1832
   55MOL0     H 7378   0.142   2.493   6.390 -0.5797 -0.0303 -1.1119
   55MOL0     H 7379   0.379   2.410   6.380 -0.9797 -0.3013 -0.4520
   55MOL0     H 7380   0.390   2.502   6.227  0.4761 -2.2924 -0.1144
   55MOL0     H 7381   0.344   2.615   6.521 -0.6387 -2.9495 -0.9201
   55MOL0     H 7382   0.305   2.715   6.376 -1.3304 -1.0691 -1.7547
   55MOL0     H 7383   0.557   2.582   6.461  1.7938  1.6963  1.1845
   55MOL0     H 7384   0.541   2.752   6.486  0.9621  0.2526 -0.3803
   55MOL0     H 7385   0.738   2.806   6.450 -0.2194  0.1608  1.2503
   55MOL0     H 7386   0.981   2.849   6.403  2.1587 -3.1538 -1.0764
   55MOL0     H 7387   1.398   2.774   6.181 -2.1849 -0.0455 -0.3379
   55MOL0     H 7388   1.609   2.815   6.046 -0.3063 -1.4167  1.5022
   55MOL0     H 7389   1.783   2.840   5.872 -0.3358  0.6141  0.1584
   55MOL0     H 7390   1.735   2.678   5.905  0.6613  1.4490  1.4658
   55MOL0     H 7391   1.794   2.601   5.671 -0.7324 -0.8653 -0.4143
   55MOL0     H 7392   1.841   2.764   5.620 -0.1387  1.4813  2.6561
   55MOL0     H 7393   2.025   2.770   5.793 -1.1906  1.1077  0.0150
   55MOL0     H 7394   1.983   2.607   5.839  1.9370 -1.5092 -1.3211
   55MOL0     H 7395   2.074   2.682   5.556  4.4235 -2.0923 -1.4264
   55MOL0     H 7396   2.017   2.527   5.614  0.5667  0.3186 -0.8567
   55MOL0     H 7397   2.182   2.541   5.804 -0.1888  1.4169  1.4193
   55MOL0     H 7398   2.255   2.675   5.708 -3.8424  2.1787 -1.6657
   55MOL0     H 7399   2.192   2.407   5.581  0.9032 -1.0528  1.8741
   55MOL0     H 7400   2.281   2.548   5.504 -3.5017  1.8344  0.5715
   55MOL0     H 7401   2.369   2.409   5.765  1.0274 -1.8847 -0.2526
   55MOL0     H 7402   2.474   2.492   5.654 -0.2383 -0.3007  3.1228
   55MOL0     H 7403   2.341   2.232   5.600 -1.3396  1.9361  3.3141
   55MOL0     H 7404   2.458   2.317   5.486  1.4689 -1.8171 -0.4644
   55MOL0     H 7405   1.384   2.713   5.690 -1.0233  1.3572 -0.5971
   55MOL0     H 7406   1.179   2.667   5.840  0.4753 -1.2942 -0.1136
   55MOL0     H 7407   0.932   2.637   6.031  0.2491 -1.0812  0.1710
   55MOL0     H 7408   0.689   2.603   6.084 -0.9677  1.1337  1.1105
   55MOL0     H 7409   1.204   1.976   5.475 -1.0238  0.0460  0.4129
   55MOL0     H 7410   1.433   1.897   5.505 -1.0926  1.5195 -1.9946
   55MOL0     H 7411   1.734   1.830   5.968  1.9441 -0.3496  2.2854
   55MOL0     H 7412   1.978   1.835   5.992 -1.4965 -0.5273  1.4414
   55MOL0     H 7413   2.347   1.726   5.793  0.0908  0.1154  2.4669
   55MOL0     H 7414   2.238   1.698   5.650  0.2831 -0.1136  0.8363
   55MOL0     H 7415   2.344   1.491   5.732 -1.6869 -1.1947 -0.6627
   55MOL0     H 7416   2.174   1.469   5.748 -0.3467  0.4986 -3.1173
   55MOL0     H 7417   2.164   1.505   5.984 -1.6835  3.0732 -2.7698
   55MOL0     H 7418   2.321   1.579   5.991  0.6519  0.3479 -0.3218
   55MOL0     H 7419   2.304   1.345   6.074  1.1224  0.8346  0.1348
   55MOL0     H 7420   2.249   1.300   5.911 -0.4955  1.2006 -0.2166
   55MOL0     H 7421   2.655   1.341   5.817  0.3547  0.0101  1.1654
   55MOL0     H 7422   2.009   1.592   5.634 -1.8100 -2.4935  2.8571
   55MOL0     H 7423   1.710   1.481   5.611  1.3257  0.2543  1.7821
   55MOL0     H 7424   1.683   1.631   5.520  1.8390  0.6346 -1.4868
   55MOL0     H 7425   1.838   1.550   5.498  1.8013  2.9994  0.9788
   56MOL0     O 7426  10.651   1.106   8.336  0.0874 -0.1878  0.4670
   56MOL0     C 7427  10.667   1.087   8.214  0.0989 -0.1960 -0.8120
   56MOL0     O 7428  10.575   1.040   8.137 -0.6220 -0.5454  0.0790
   56MOL0     C 7429  10.455   0.986   8.168  0.3760  0.2889 -0.2853
   56MOL0     C 7430  10.368   0.965   8.063  0.8217  0.0815  0.0624
   56MOL0     C 7431  10.246   0.894   8.069  0.7902  0.4527  0.5616
   56MOL0     C 7432  10.202   0.853   8.194 -0.0405 -0.3536  0.7185
   56MOL0     O 7433  10.081   0.786   8.197 -0.3402  0.2958  0.9115
   56MOL0     C 7434  10.109   0.644   8.223 -0.4062  0.4622  0.1100
   56MOL0     C 7435   9.969   0.578   8.229 -0.0395 -0.2264 -0.2316
   56MOL0     C 7436   9.889   0.595   8.104  0.4911  0.8380  0.6914
   56MOL0     C 7437   9.774   0.495   8.093  0.2959 -0.2120 -0.4919
   56MOL0     C 7438   9.712   0.489   7.955 -0.0635 -0.3831 -0.1087
   56MOL0     C 7439   9.788   0.392   7.854  0.8063 -1.1013 -0.5912
   56MOL0     C 7440   9.727   0.399   7.717  0.2520  1.2619  0.7429
   56MOL0     C 7441   9.756   0.266   7.646 -0.0351 -0.0838 -0.4995
   56MOL0     N 7442   9.903   0.246   7.632  0.0564 -0.2170  0.2213
   56MOL0     C 7443   9.997   0.346   7.620 -0.1142 -0.2647  0.1254
   56MOL0     C 7444  10.115   0.286   7.643 -0.1243 -0.1466 -0.2909
   56MOL0     C 7445  10.245   0.370   7.653  0.8840  0.6188  0.0466
   56MOL0     C 7446  10.293   0.427   7.521 -0.0768 -0.3755  0.2209
   56MOL0     C 7447  10.439   0.474   7.545 -0.6484 -0.4815  0.4018
   56MOL0     C 7448  10.517   0.455   7.418 -0.2360  0.3431 -0.6253
   56MOL0     O 7449  10.469   0.559   7.329 -0.2672  0.1033 -0.0675
   56MOL0     C 7450  10.548   0.648   7.260  0.1882 -0.8058 -0.4728
   56MOL0     C 7451  10.684   0.638   7.243 -0.2669  0.1602  1.1018
   56MOL0     C 7452  10.755   0.733   7.174 -0.3171  0.5462  1.6692
   56MOL0     C 7453  10.693   0.853   7.142 -0.2534  0.5032  0.1139
   56MOL0     C 7454  10.771   0.957   7.073  0.5308  0.4567 -0.4541
   56MOL0     O 7455  10.893   0.924   7.027 -0.1092 -0.1696  0.0823
   56MOL0     C 7456  10.965   1.017   6.961  0.4660  0.8948 -0.5385
   56MOL0     C 7457  10.965   1.153   6.973 -0.4454  0.2171 -0.2552
   56MOL0     C 7458  11.072   1.225   6.926  0.3363 -0.0650  0.3078
   56MOL0     C 7459  11.175   1.168   6.846  0.6694 -0.4331 -0.1224
   56MOL0     O 7460  11.278   1.241   6.781  0.9921  0.2956 -0.5088
   56MOL0     C 7461  11.315   1.360   6.839  0.5707 -1.0288  0.0892
   56MOL0     C 7462  11.445   1.407   6.779 -0.3353  0.0638 -0.2766
   56MOL0     C 7463  11.480   1.562   6.805  1.3149  0.8646 -0.2690
   56MOL0     C 7464  11.525   1.597   6.954 -0.0548  0.8022  0.2035
   56MOL0     C 7465  11.560   1.744   6.976 -0.2791 -0.7378 -0.1769
   56MOL0     C 7466  11.694   1.778   6.911  0.7997 -0.2539 -0.7685
   56MOL0     C 7467  11.750   1.910   6.958  0.6307 -0.1491 -0.3252
   56MOL0     C 7468  11.887   1.954   6.891 -0.2422  0.1957 -0.0723
   56MOL0    Cl 7469  12.020   1.861   6.972 -0.2737 -0.1893  0.3501
   56MOL0     C 7470  11.156   1.037   6.819  0.0434  0.5002 -0.1103
   56MOL0     C 7471  11.060   0.957   6.883  0.0534 -0.6580  0.4508
   56MOL0     O 7472  10.708   1.062   7.069 -0.4753  0.1479  0.2680
   56MOL0     C 7473  10.555   0.865   7.165  0.0678 -1.1179 -0.4582
   56MOL0     C 7474  10.482   0.765   7.216 -0.3338 -0.2026  0.1516
   56MOL0     N 7475  10.087   0.157   7.671 -0.1222  0.3212 -1.0838
   56MOL0     N 7476   9.967   0.129   7.651 -0.7654  0.0750 -0.3447
   56MOL0     C 7477  10.290   0.865   8.302 -0.3911  0.2611 -0.6383
   56MOL0     C 7478  10.403   0.935   8.290 -0.4309 -0.1763 -0.1613
   56MOL0     C 7479  10.803   1.117   8.158  0.1625 -0.2282  0.1564
   56MOL0     C 7480  10.897   1.168   8.254 -0.2272 -0.0214 -0.2294
   56MOL0     C 7481  11.033   1.184   8.213  0.4419  0.7375  0.2548
   56MOL0     C 7482  11.063   1.176   8.071  0.8141  0.0768  0.1456
   56MOL0     O 7483  11.181   1.203   8.014  0.1119 -0.3458 -0.4784
   56MOL0     C 7484  11.284   1.111   8.043  0.1950  0.0316  0.2920
   56MOL0     C 7485  11.306   1.037   7.911  0.2851  1.2959 -1.3575
   56MOL0     C 7486  11.459   1.009   7.895  0.2167 -0.2112 -0.5765
   56MOL0     C 7487  11.482   0.938   7.759  0.1045  0.1812  0.0812
   56MOL0     C 7488  11.624   0.894   7.763  0.4593 -0.4076  0.0876
   56MOL0     C 7489  11.737   0.844   7.774  0.5869  0.2527 -0.1161
   56MOL0     C 7490  10.961   1.135   7.982 -0.8013 -0.4338 -0.6904
   56MOL0     C 7491  10.827   1.112   8.018 -0.2225  0.4944  0.3359
   56MOL0     C 7492  10.736   1.107   7.900  0.2613  0.6619  0.7726
   56MOL0     H 7493  10.400   0.993   7.963  0.4366  0.7637  0.1259
   56MOL0     H 7494  10.180   0.883   7.983  1.6994 -0.3385 -0.0687
   56MOL0     H 7495  10.168   0.598   8.144  0.6965  0.1587  1.0863
   56MOL0     H 7496  10.169   0.617   8.310  0.1968  1.0045 -0.1276
   56MOL0     H 7497   9.911   0.629   8.307  0.7968  1.4107 -0.6341
   56MOL0     H 7498   9.982   0.470   8.247 -0.0328 -0.2695 -0.5011
   56MOL0     H 7499   9.950   0.596   8.013 -1.3720 -0.6755 -0.6498
   56MOL0     H 7500   9.851   0.697   8.105  0.5231  1.0008 -2.4501
   56MOL0     H 7501   9.794   0.390   8.110 -2.1448 -0.5748  0.6119
   56MOL0     H 7502   9.699   0.516   8.170 -1.8345  0.3828 -2.5744
   56MOL0     H 7503   9.611   0.445   7.953  0.3951 -1.6152  1.5801
   56MOL0     H 7504   9.706   0.591   7.914 -0.6516 -0.0743  0.7104
   56MOL0     H 7505   9.888   0.434   7.844  0.0710  0.2876 -2.8848
   56MOL0     H 7506   9.794   0.288   7.886  0.6888  0.1976  4.5903
   56MOL0     H 7507   9.765   0.478   7.652  2.9512 -1.4351 -1.2276
   56MOL0     H 7508   9.618   0.404   7.723 -0.0152 -1.6657 -0.0118
   56MOL0     H 7509   9.711   0.178   7.693  0.3544 -0.3761 -0.6647
   56MOL0     H 7510   9.712   0.258   7.546  1.8647 -0.0513 -1.3668
   56MOL0     H 7511   9.991   0.448   7.585  0.2278 -0.4049 -0.3656
   56MOL0     H 7512  10.219   0.435   7.737 -0.0138 -5.0424  4.8358
   56MOL0     H 7513  10.324   0.307   7.695  2.3330  2.9352  0.9940
   56MOL0     H 7514  10.285   0.347   7.447 -2.9193  1.5178 -1.7100
   56MOL0     H 7515  10.224   0.508   7.496 -0.6967  0.0532  2.9652
   56MOL0     H 7516  10.495   0.419   7.620  0.8600  1.7090  0.9777
   56MOL0     H 7517  10.444   0.577   7.583 -0.7573 -0.4115  0.2332
   56MOL0     H 7518  10.503   0.353   7.382 -2.3386  0.1436  0.5353
   56MOL0     H 7519  10.624   0.469   7.435  0.2902 -3.1563 -0.4148
   56MOL0     H 7520  10.746   0.555   7.273 -0.1357  0.6623  2.2709
   56MOL0     H 7521  10.861   0.726   7.152 -0.6266  0.2904  0.0753
   56MOL0     H 7522  10.884   1.202   7.026 -0.8457 -3.1744  2.6109
   56MOL0     H 7523  11.072   1.332   6.943 -0.7985  0.0638 -0.3636
   56MOL0     H 7524  11.239   1.437   6.826  3.0307  1.9027  1.7663
   56MOL0     H 7525  11.321   1.348   6.947 -1.0279 -0.7146  0.2375
   56MOL0     H 7526  11.519   1.339   6.820  1.4437  1.0048 -1.7942
   56MOL0     H 7527  11.438   1.381   6.673 -2.4184 -2.4797  0.3732
   56MOL0     H 7528  11.560   1.596   6.739  0.2103  1.0239 -1.5702
   56MOL0     H 7529  11.393   1.620   6.775  0.3212 -0.7771 -0.6941
   56MOL0     H 7530  11.621   1.552   6.981  0.8090  1.8695 -0.9440
   56MOL0     H 7531  11.455   1.552   7.025 -3.0190  2.4199 -1.5469
   56MOL0     H 7532  11.559   1.773   7.081 -2.2645  0.3115 -0.4487
   56MOL0     H 7533  11.485   1.807   6.929 -0.4993 -1.6913 -1.1548
   56MOL0     H 7534  11.775   1.705   6.925  3.3106  2.3088 -0.9423
   56MOL0     H 7535  11.682   1.780   6.802 -0.6467 -0.8070 -0.6333
   56MOL0     H 7536  11.765   1.911   7.066 -1.5274 -2.2647  0.0602
   56MOL0     H 7537  11.675   1.986   6.935  0.5964 -0.1628 -0.2590
   56MOL0     H 7538  11.878   1.940   6.783 -4.9910 -1.7780  0.3786
   56MOL0     H 7539  11.912   2.059   6.910 -1.1024  0.1804  1.3231
   56MOL0     H 7540  11.220   0.973   6.759 -0.3859 -1.0460  0.9927
   56MOL0     H 7541  11.074   0.850   6.877 -0.7341 -0.8380  1.5376
   56MOL0     H 7542  10.500   0.954   7.135  1.4834 -0.0729 -0.0766
   56MOL0     H 7543  10.377   0.781   7.237 -0.1364 -0.8764  1.7404
   56MOL0     H 7544  10.269   0.831   8.404 -0.5580  1.7610 -0.1486
   56MOL0     H 7545  10.457   0.947   8.383 -1.9119  0.0529  0.6963
   56MOL0     H 7546  10.876   1.168   8.361 -2.0840  0.1423 -0.5551
   56MOL0     H 7547  11.113   1.208   8.282  1.5479  1.9583 -1.3726
   56MOL0     H 7548  11.260   1.036   8.119 -0.2687 -1.0059 -0.8456
   56MOL0     H 7549  11.369   1.172   8.073 -1.8975  2.9559  0.7643
   56MOL0     H 7550  11.268   1.100   7.830  1.2840  0.0813 -2.8255
   56MOL0     H 7551  11.265   0.938   7.933  0.5082  1.0061 -2.2182
   56MOL0     H 7552  11.484   0.945   7.981  0.2370 -0.3752 -0.7034
   56MOL0     H 7553  11.505   1.108   7.901  0.3668 -0.3572  1.2357
   56MOL0     H 7554  11.430   0.842   7.749 -0.7558  0.8095 -1.8024
   56MOL0     H 7555  11.465   1.005   7.674 -2.5199 -0.8004 -0.2706
   56MOL0     H 7556  11.835   0.803   7.792  1.1251  2.3768  2.4821
   56MOL0     H 7557  10.993   1.135   7.878  0.1632  0.8305 -0.4255
   56MOL0     H 7558  10.779   1.148   7.808 -0.4475 -0.4239 -0.0704
   56MOL0     H 7559  10.723   0.999   7.891  2.3357  0.4151  0.2878
   56MOL0     H 7560  10.642   1.157   7.926  0.3810  1.9814 -1.1458
   57MOL0     O 7561   3.331   4.573  10.232  0.1232  0.5628 -0.3428
   57MOL0     C 7562   3.279   4.570  10.341  0.3987 -0.1196  0.1149
   57MOL0     O 7563   3.345   4.606  10.461 -0.2275  0.0601  0.0671
   57MOL0     C 7564   3.468   4.670  10.446  0.2578 -0.2803 -0.2995
   57MOL0     C 7565   3.473   4.807  10.464  0.7628  0.2842 -0.4561
   57MOL0     C 7566   3.595   4.875  10.456 -0.6022  0.2490  0.0921
   57MOL0     C 7567   3.711   4.799  10.435  0.3175  0.2657  0.1160
   57MOL0     O 7568   3.832   4.858  10.416 -0.5661  0.4422 -0.3537
   57MOL0     C 7569   3.942   4.807  10.504  0.0999 -0.1665 -0.0139
   57MOL0     C 7570   4.052   4.726  10.433  0.6508 -0.1884 -0.4359
   57MOL0     C 7571   4.187   4.792  10.401  0.8173 -0.1104 -0.2301
   57MOL0     C 7572   4.290   4.695  10.361 -0.0999 -0.4266  0.6164
   57MOL0     C 7573   4.423   4.751  10.370 -1.1477 -1.5346 -0.1163
   57MOL0     C 7574   4.446   4.869  10.275 -0.3949  0.1667 -0.1467
   57MOL0     C 7575   4.581   4.927  10.287 -0.1306  0.8205 -0.1941
   57MOL0     C 7576   4.692   4.849  10.208 -0.2074  0.5722 -0.0613
   57MOL0     N 7577   4.827   4.902  10.233  0.5487 -0.9020 -0.0808
   57MOL0     C 7578   4.880   5.009  10.170  0.0056  0.0628 -0.5001
   57MOL0     C 7579   4.998   5.037  10.227 -0.3011 -0.1695 -0.3045
   57MOL0     C 7580   5.078   5.159  10.192 -0.2060  0.5469 -0.5121
   57MOL0     C 7581   5.048   5.274  10.294  0.3745  0.1068 -0.8828
   57MOL0     C 7582   5.156   5.299  10.402  0.2616  0.7922  0.3161
   57MOL0     C 7583   5.260   5.411  10.376 -0.0192 -0.1204 -0.1967
   57MOL0     O 7584   5.326   5.373  10.247  0.2898  0.2648 -0.6173
   57MOL0     C 7585   5.444   5.306  10.252 -0.5543  1.1411  0.1130
   57MOL0     C 7586   5.511   5.248  10.365 -0.4716 -0.2294  0.2186
   57MOL0     C 7587   5.629   5.177  10.334  0.2148 -0.2571  0.1141
   57MOL0     C 7588   5.689   5.173  10.210  0.3226 -0.4580 -0.2955
   57MOL0     C 7589   5.820   5.102  10.192 -1.0570 -0.3303  0.9483
   57MOL0     O 7590   5.878   5.101  10.072 -0.2865 -0.5933  0.6007
   57MOL0     C 7591   6.001   5.043  10.049  0.5129  0.7112 -0.3598
   57MOL0     C 7592   6.101   5.113   9.992 -0.2263  0.3815  0.5724
   57MOL0     C 7593   6.217   5.043   9.971 -0.1831 -0.4083 -0.1925
   57MOL0     C 7594   6.243   4.905   9.997  0.0380  0.2538  0.2788
   57MOL0     O 7595   6.360   4.839   9.974 -0.6232  0.6678 -0.2392
   57MOL0     C 7596   6.429   4.881   9.859  0.5948 -0.8911  0.6265
   57MOL0     C 7597   6.558   4.798   9.844 -1.1607  0.6084 -0.2230
   57MOL0     C 7598   6.653   4.848   9.736 -0.2551 -0.0739  0.3080
   57MOL0     C 7599   6.786   4.769   9.759  0.6721  0.1161  0.0270
   57MOL0     C 7600   6.877   4.809   9.643 -0.4618 -0.0162  0.2133
   57MOL0     C 7601   6.969   4.691   9.606 -0.1531 -1.2388 -0.0333
   57MOL0     C 7602   7.082   4.723   9.514  0.3364 -0.8255  0.0775
   57MOL0     C 7603   7.184   4.602   9.526 -0.1328 -0.5336 -0.9588
   57MOL0    Cl 7604   7.333   4.661   9.461  0.0343 -0.1061 -0.0784
   57MOL0     C 7605   6.131   4.834  10.057 -0.2148 -0.3304 -0.7056
   57MOL0     C 7606   6.013   4.904  10.091  0.3269 -0.2558 -0.2587
   57MOL0     O 7607   5.879   5.058  10.293 -0.2003 -0.7197  0.3792
   57MOL0     C 7608   5.618   5.219  10.104 -0.0552  0.1661  0.4356
   57MOL0     C 7609   5.496   5.278  10.126 -0.0577  0.3305 -0.2072
   57MOL0     N 7610   5.011   4.943  10.334 -0.4609 -0.5655  0.4327
   57MOL0     N 7611   4.907   4.865  10.332 -0.6676  0.4082  0.1007
   57MOL0     C 7612   3.708   4.656  10.422 -0.1702 -0.0677 -0.4304
   57MOL0     C 7613   3.584   4.595  10.434  0.1522  0.2164 -0.3428
   57MOL0     C 7614   3.133   4.542  10.352  0.2794  0.6235  0.9470
   57MOL0     C 7615   3.081   4.525  10.480  0.9184  0.6210 -0.2270
   57MOL0     C 7616   2.953   4.481  10.503  0.1848  0.1058 -0.1567
   57MOL0     C 7617   2.863   4.457  10.394  0.7348  0.0365  0.4835
   57MOL0     O 7618   2.729   4.437  10.414 -0.1532  0.1424 -0.1103
   57MOL0     C 7619   2.631   4.452  10.309 -0.0300 -0.2565 -0.8899
   57MOL0     C 7620   2.609   4.325  10.224  0.7123  0.8022 -0.1881
   57MOL0     C 7621   2.497   4.235  10.275  0.4508  0.1378 -0.5798
   57MOL0     C 7622   2.509   4.089  10.217  0.4516  0.4887  0.0832
   57MOL0     C 7623   2.601   4.000  10.295  0.3790 -0.2712  0.2506
   57MOL0     C 7624   2.663   3.924  10.365  0.4565  0.1089  0.0436
   57MOL0     C 7625   2.913   4.465  10.269  0.2414 -0.3771  0.6542
   57MOL0     C 7626   3.044   4.509  10.241  0.0618  0.5037  0.4112
   57MOL0     C 7627   3.088   4.530  10.102 -0.0913  0.4099  0.6043
   57MOL0     H 7628   3.383   4.866  10.472  0.9296  1.0388 -3.1742
   57MOL0     H 7629   3.601   4.981  10.478 -1.7454  1.1279 -3.2566
   57MOL0     H 7630   3.991   4.891  10.554  0.6595  0.6790 -1.9039
   57MOL0     H 7631   3.891   4.755  10.586  0.6218  2.3884  2.0641
   57MOL0     H 7632   4.002   4.690  10.342  2.5594 -0.4377 -1.4387
   57MOL0     H 7633   4.074   4.636  10.491 -0.5285 -0.7642 -0.8376
   57MOL0     H 7634   4.229   4.840  10.490 -1.3361  1.9224 -0.2095
   57MOL0     H 7635   4.171   4.868  10.324 -0.8635 -0.7477 -0.5470
   57MOL0     H 7636   4.283   4.615  10.435  2.4608 -2.8701 -1.5069
   57MOL0     H 7637   4.268   4.652  10.263 -1.8356 -2.4325  1.7862
   57MOL0     H 7638   4.439   4.790  10.471 -0.6081 -1.0457 -0.3833
   57MOL0     H 7639   4.498   4.681  10.333  0.4241 -0.3680  0.7131
   57MOL0     H 7640   4.441   4.842  10.169 -0.6025  2.0327 -0.6606
   57MOL0     H 7641   4.381   4.952  10.305 -0.3184 -0.3602  1.5814
   57MOL0     H 7642   4.600   4.943  10.394 -0.7307  2.0538 -0.2573
   57MOL0     H 7643   4.565   5.026  10.244 -2.1211  1.2512  1.3892
   57MOL0     H 7644   4.692   4.749  10.250  0.8964 -0.6659 -2.7551
   57MOL0     H 7645   4.654   4.829  10.107 -3.2036  1.7958  0.7194
   57MOL0     H 7646   4.846   5.062  10.082 -0.7524  1.7481  0.7386
   57MOL0     H 7647   5.182   5.124  10.197 -0.2598  0.5540  2.1876
   57MOL0     H 7648   5.058   5.196  10.091 -2.4098  0.5085 -0.1414
   57MOL0     H 7649   5.057   5.361  10.228  1.3060 -0.6305 -1.7748
   57MOL0     H 7650   4.955   5.253  10.347 -0.3129  0.5722 -1.8813
   57MOL0     H 7651   5.210   5.207  10.425 -1.5125 -0.7079 -1.2063
   57MOL0     H 7652   5.096   5.322  10.491 -1.0394 -1.4158  0.0910
   57MOL0     H 7653   5.320   5.419  10.467  1.7734 -1.9941 -1.1274
   57MOL0     H 7654   5.193   5.496  10.363 -1.9632 -1.2695  1.5584
   57MOL0     H 7655   5.473   5.260  10.466 -0.9342 -2.3966  0.3477
   57MOL0     H 7656   5.673   5.137  10.424 -2.3578 -1.8244  0.7909
   57MOL0     H 7657   6.083   5.216   9.961  2.8656  0.8362 -0.0624
   57MOL0     H 7658   6.295   5.100   9.921  1.1231 -2.2313 -0.3147
   57MOL0     H 7659   6.366   4.860   9.771 -0.3984 -0.8544  1.3145
   57MOL0     H 7660   6.452   4.988   9.856  1.9056 -1.1711 -0.1365
   57MOL0     H 7661   6.612   4.804   9.940 -1.7127 -0.2345  0.1502
   57MOL0     H 7662   6.517   4.701   9.817 -0.1820 -0.0878  0.6976
   57MOL0     H 7663   6.618   4.808   9.640  0.8969  0.0243 -0.1629
   57MOL0     H 7664   6.662   4.957   9.740 -2.9548  0.1819  2.4708
   57MOL0     H 7665   6.752   4.666   9.755 -0.9751  0.6453 -0.5270
   57MOL0     H 7666   6.835   4.786   9.855 -1.9880  1.1244  1.3302
   57MOL0     H 7667   6.940   4.891   9.681  1.8028 -2.1068  1.2415
   57MOL0     H 7668   6.823   4.848   9.556 -0.6513  0.5465  0.5774
   57MOL0     H 7669   7.011   4.648   9.697 -0.9267  0.5914  1.2483
   57MOL0     H 7670   6.909   4.610   9.563 -2.9996  0.6123  0.1728
   57MOL0     H 7671   7.139   4.808   9.553 -0.7769 -0.2794  0.5733
   57MOL0     H 7672   7.048   4.747   9.413  1.1292  3.9412  0.7043
   57MOL0     H 7673   7.213   4.576   9.629  2.6539 -0.0841 -1.5634
   57MOL0     H 7674   7.139   4.512   9.483  2.2948 -0.2482 -4.4101
   57MOL0     H 7675   6.146   4.730  10.083  0.8572  0.0782  0.4389
   57MOL0     H 7676   5.925   4.852  10.128 -1.3552  0.3518 -3.0860
   57MOL0     H 7677   5.652   5.211  10.002  1.5358  1.8945  0.7747
   57MOL0     H 7678   5.438   5.318  10.044 -0.9247 -2.8816 -1.3023
   57MOL0     H 7679   3.796   4.599  10.395  1.3963  0.5239  2.9714
   57MOL0     H 7680   3.562   4.490  10.419 -1.8287 -0.3101  4.3059
   57MOL0     H 7681   3.136   4.544  10.572 -0.5890 -1.9490  1.3348
   57MOL0     H 7682   2.921   4.465  10.605 -0.6086 -0.9386 -0.5456
   57MOL0     H 7683   2.661   4.534  10.244  0.7762  1.9230  2.0271
   57MOL0     H 7684   2.537   4.492  10.348  0.7539  0.8898 -0.1378
   57MOL0     H 7685   2.704   4.273  10.212 -0.2359 -0.3462 -3.7072
   57MOL0     H 7686   2.588   4.358  10.122 -2.1958  0.6653  0.3043
   57MOL0     H 7687   2.398   4.265  10.240 -0.2325 -1.6133 -0.2531
   57MOL0     H 7688   2.496   4.226  10.384 -1.1444  0.6562 -0.5235
   57MOL0     H 7689   2.413   4.037  10.229 -0.8060  2.6045 -0.3094
   57MOL0     H 7690   2.531   4.091  10.110 -2.2176 -1.0971 -0.5930
   57MOL0     H 7691   2.711   3.857  10.433 -0.1254 -3.2306 -2.5851
   57MOL0     H 7692   2.865   4.438  10.176  0.9982 -0.0630  0.1619
   57MOL0     H 7693   3.132   4.629  10.088  1.0805  0.0912  1.8350
   57MOL0     H 7694   3.159   4.449  10.082 -0.9585 -0.0279 -0.8659
   57MOL0     H 7695   2.998   4.520  10.041 -0.4972  0.1037  1.2478
   58MOL0     O 7696   5.106   7.249   9.753  0.1507  0.2918  0.4683
   58MOL0     C 7697   5.189   7.237   9.838  0.0094 -0.0784  1.1064
   58MOL0     O 7698   5.266   7.132   9.864 -0.6484 -0.4846  0.2277
   58MOL0     C 7699   5.260   7.014   9.796  0.2035  0.2337 -0.6650
   58MOL0     C 7700   5.213   6.992   9.665 -0.4299  0.9220  0.6258
   58MOL0     C 7701   5.205   6.859   9.619  0.1118 -0.2428 -0.6174
   58MOL0     C 7702   5.254   6.755   9.697 -0.0134  1.0883 -0.0713
   58MOL0     O 7703   5.246   6.619   9.667  0.5836  0.3449 -0.0435
   58MOL0     C 7704   5.120   6.586   9.606 -0.2166  0.8494 -0.3607
   58MOL0     C 7705   5.078   6.475   9.698  0.5752 -0.0973  0.7655
   58MOL0     C 7706   4.946   6.409   9.654  0.6942  0.8527  1.3480
   58MOL0     C 7707   4.827   6.500   9.661  1.1419  0.1008  0.5489
   58MOL0     C 7708   4.702   6.440   9.589  0.0856 -0.4262 -1.0275
   58MOL0     C 7709   4.629   6.339   9.675 -0.2936  1.1121  1.3241
   58MOL0     C 7710   4.527   6.262   9.589 -0.2966 -0.4270 -0.5528
   58MOL0     C 7711   4.413   6.336   9.522  0.5880  0.0554 -0.3152
   58MOL0     N 7712   4.284   6.254   9.531  0.3172  0.5228 -0.1666
   58MOL0     C 7713   4.168   6.281   9.596  0.0891 -0.6684  0.4304
   58MOL0     C 7714   4.083   6.197   9.541  0.1399  0.7305  1.0961
   58MOL0     C 7715   3.940   6.170   9.565 -0.5232 -0.8488 -0.5274
   58MOL0     C 7716   3.929   6.066   9.672 -0.1898  1.1013  1.1358
   58MOL0     C 7717   3.774   6.048   9.697  0.0536  0.0707  0.2365
   58MOL0     C 7718   3.754   5.965   9.822 -0.5955 -0.2261  0.6887
   58MOL0     O 7719   3.623   5.927   9.849  0.4029 -0.9468 -0.0425
   58MOL0     C 7720   3.600   5.867   9.972  0.4604  0.1421 -0.1728
   58MOL0     C 7721   3.685   5.805  10.071 -0.8464 -0.0263  0.2598
   58MOL0     C 7722   3.633   5.738  10.186 -0.5408 -0.2484 -0.1266
   58MOL0     C 7723   3.497   5.717  10.204 -0.1889 -0.1427 -0.9262
   58MOL0     C 7724   3.436   5.633  10.314  0.1001 -0.3829 -0.6357
   58MOL0     O 7725   3.295   5.622  10.311  0.5222 -0.3165 -0.5020
   58MOL0     C 7726   3.222   5.572  10.418 -0.4944  0.4721 -0.4515
   58MOL0     C 7727   3.256   5.444  10.485 -0.5284  0.4498 -0.5586
   58MOL0     C 7728   3.149   5.398  10.567  0.4118  0.4466 -0.0059
   58MOL0     C 7729   3.032   5.472  10.598 -0.8588  0.6107  0.6854
   58MOL0     O 7730   2.934   5.399  10.665 -0.2014  0.7234 -0.6235
   58MOL0     C 7731   2.856   5.479  10.767  0.0809 -0.7835 -0.8001
   58MOL0     C 7732   2.707   5.436  10.769 -0.3898  0.1353  0.5687
   58MOL0     C 7733   2.657   5.413  10.627 -0.4845 -0.7619  0.5146
   58MOL0     C 7734   2.528   5.343  10.625 -0.6394 -0.8455 -0.5601
   58MOL0     C 7735   2.487   5.315  10.471 -0.7254  0.3177  0.2806
   58MOL0     C 7736   2.396   5.189  10.448  0.6594 -0.3317 -0.0549
   58MOL0     C 7737   2.264   5.219  10.526 -0.0182  0.1051  0.7734
   58MOL0     C 7738   2.154   5.178  10.432 -0.5050  0.2427 -0.0350
   58MOL0    Cl 7739   2.001   5.250  10.508 -0.5616 -0.0632 -0.1749
   58MOL0     C 7740   3.015   5.598  10.532  0.0294  0.4160  0.0935
   58MOL0     C 7741   3.101   5.641  10.438 -0.0538 -1.0910 -0.5397
   58MOL0     O 7742   3.505   5.589  10.410  0.3147 -0.2961  0.2583
   58MOL0     C 7743   3.414   5.766  10.108  0.2424  0.2891 -0.1951
   58MOL0     C 7744   3.462   5.849  10.001 -1.1131 -0.2634 -0.3532
   58MOL0     N 7745   4.147   6.112   9.452  0.4788 -0.2390  0.0614
   58MOL0     N 7746   4.267   6.144   9.447 -0.5139 -0.1434 -0.2330
   58MOL0     C 7747   5.306   6.781   9.819 -1.1516  0.5023  0.2440
   58MOL0     C 7748   5.310   6.906   9.873 -0.8843  0.1428 -0.3116
   58MOL0     C 7749   5.229   7.351   9.921  0.3880  0.6393  0.2259
   58MOL0     C 7750   5.228   7.340  10.059  0.2942 -0.0657  0.2045
   58MOL0     C 7751   5.237   7.453  10.144  0.0538 -0.2096 -0.0005
   58MOL0     C 7752   5.279   7.571  10.081  0.2287  0.2139  0.3237
   58MOL0     O 7753   5.321   7.672  10.161 -0.7034 -0.1142  1.3265
   58MOL0     C 7754   5.406   7.779  10.123 -0.5329 -0.0084  0.5043
   58MOL0     C 7755   5.472   7.848  10.235  0.9285  0.1663 -0.2063
   58MOL0     C 7756   5.362   7.896  10.338  1.0845 -0.4509  0.5383
   58MOL0     C 7757   5.251   7.993  10.281 -0.7843  0.6137 -0.3964
   58MOL0     C 7758   5.323   8.108  10.227  0.4537 -0.7577 -0.2715
   58MOL0     C 7759   5.388   8.193  10.165 -0.3362 -0.4649  0.7825
   58MOL0     C 7760   5.299   7.583   9.938  0.9550  0.2419  0.6205
   58MOL0     C 7761   5.265   7.473   9.855 -0.2433  0.2045 -0.8869
   58MOL0     C 7762   5.273   7.482   9.704 -0.0903 -0.4014  0.1888
   58MOL0     H 7763   5.188   7.078   9.604  0.0795  0.3001 -0.4937
   58MOL0     H 7764   5.158   6.827   9.526  1.1752  1.1705 -1.6818
   58MOL0     H 7765   5.042   6.664   9.603 -0.4543  0.6814  1.0122
   58MOL0     H 7766   5.141   6.542   9.508  3.5768 -1.2819  1.2190
   58MOL0     H 7767   5.055   6.524   9.793  0.1432  0.8844  0.1844
   58MOL0     H 7768   5.169   6.417   9.715  0.7600  0.1477  0.6314
   58MOL0     H 7769   4.925   6.309   9.693  1.0562 -0.2167 -0.9754
   58MOL0     H 7770   4.958   6.397   9.545 -0.7526 -0.4004  1.2997
   58MOL0     H 7771   4.806   6.511   9.768  2.8649  2.9008  0.6753
   58MOL0     H 7772   4.846   6.596   9.613  3.2273 -1.0891 -1.1749
   58MOL0     H 7773   4.626   6.517   9.571 -0.8477 -1.2360 -0.6244
   58MOL0     H 7774   4.721   6.415   9.484 -1.3844 -1.4863 -1.0680
   58MOL0     H 7775   4.706   6.271   9.712  1.7358  2.1396 -0.7654
   58MOL0     H 7776   4.585   6.393   9.760 -0.4598  1.8551  0.7732
   58MOL0     H 7777   4.487   6.200   9.670 -1.6685  1.7882  0.5622
   58MOL0     H 7778   4.571   6.192   9.517  0.8012  1.7027 -2.0509
   58MOL0     H 7779   4.410   6.436   9.566  3.8714 -0.3231  1.0409
   58MOL0     H 7780   4.439   6.337   9.416 -0.5576 -2.8267 -0.7235
   58MOL0     H 7781   4.136   6.349   9.675 -1.1781  0.4705 -0.9929
   58MOL0     H 7782   3.882   6.257   9.597  0.4220 -1.6418  3.9431
   58MOL0     H 7783   3.889   6.150   9.470  0.5165 -0.3249 -1.2207
   58MOL0     H 7784   3.959   5.968   9.634  0.5443  0.5728  2.9560
   58MOL0     H 7785   3.997   6.081   9.757  1.7264 -0.3959 -0.0415
   58MOL0     H 7786   3.740   5.991   9.609 -0.8325  0.9374 -0.0033
   58MOL0     H 7787   3.711   6.137   9.703 -0.1072 -0.1482  2.7880
   58MOL0     H 7788   3.782   6.019   9.913 -1.8561 -1.4114  1.8405
   58MOL0     H 7789   3.813   5.873   9.813  0.2877  0.4264 -0.4124
   58MOL0     H 7790   3.791   5.786  10.060 -0.6185  0.8323  0.8375
   58MOL0     H 7791   3.707   5.708  10.259  0.3803  1.9964 -0.0673
   58MOL0     H 7792   3.344   5.381  10.474  1.5436  3.0513  0.1866
   58MOL0     H 7793   3.160   5.306  10.623  3.9532  0.1186 -1.0252
   58MOL0     H 7794   2.894   5.451  10.866 -0.1227 -1.1789 -0.8334
   58MOL0     H 7795   2.860   5.587  10.745 -2.5841 -0.5602 -0.5249
   58MOL0     H 7796   2.692   5.352  10.838  1.1442  0.1317  0.9380
   58MOL0     H 7797   2.651   5.521  10.809 -2.1585 -0.1411 -1.1969
   58MOL0     H 7798   2.652   5.511  10.578  0.7804 -0.2456  1.3652
   58MOL0     H 7799   2.730   5.348  10.578 -0.1469 -1.3174  1.7225
   58MOL0     H 7800   2.458   5.412  10.675 -0.2034  1.5509 -3.0311
   58MOL0     H 7801   2.531   5.248  10.680 -1.3874 -0.3013  0.4603
   58MOL0     H 7802   2.581   5.299  10.419  1.4062 -0.8775  4.1288
   58MOL0     H 7803   2.433   5.396  10.420 -0.2753  0.7224  0.4342
   58MOL0     H 7804   2.379   5.169  10.342 -0.4182  0.0312  0.0377
   58MOL0     H 7805   2.442   5.097  10.484  0.0047 -0.6394  0.0015
   58MOL0     H 7806   2.261   5.322  10.561 -0.3891  0.6466 -0.7935
   58MOL0     H 7807   2.262   5.153  10.614 -2.2967 -0.7193  0.1665
   58MOL0     H 7808   2.170   5.231  10.338 -1.5754  0.7200  0.0340
   58MOL0     H 7809   2.137   5.070  10.418 -1.8069  0.4523 -0.2251
   58MOL0     H 7810   2.919   5.647  10.543 -1.9476 -3.2406  0.9660
   58MOL0     H 7811   3.060   5.721  10.377 -3.8776 -1.4524  1.2286
   58MOL0     H 7812   3.306   5.757  10.118  0.5217 -1.2221  2.2014
   58MOL0     H 7813   3.392   5.880   9.924 -0.5437  0.3240 -0.6473
   58MOL0     H 7814   5.335   6.701   9.886  1.9749 -0.2752 -1.7999
   58MOL0     H 7815   5.346   6.913   9.975  1.3280 -0.7241 -0.9566
   58MOL0     H 7816   5.204   7.241  10.096 -1.5049  0.3754  0.3206
   58MOL0     H 7817   5.245   7.453  10.252 -1.1010  1.1663  0.1078
   58MOL0     H 7818   5.355   7.852  10.060  0.0747  1.1126  1.2823
   58MOL0     H 7819   5.492   7.732  10.074 -0.2911 -1.7738  2.4724
   58MOL0     H 7820   5.527   7.931  10.190 -2.8552  2.4062 -1.1473
   58MOL0     H 7821   5.539   7.775  10.281  0.7401 -0.9133 -1.5995
   58MOL0     H 7822   5.408   7.933  10.431 -2.5708  0.9161  2.0108
   58MOL0     H 7823   5.305   7.807  10.367  0.5685 -0.1124  0.5779
   58MOL0     H 7824   5.187   7.953  10.202 -0.8786  1.5282 -0.7880
   58MOL0     H 7825   5.180   8.016  10.361 -0.7258 -2.9909  0.8892
   58MOL0     H 7826   5.445   8.265  10.111  0.9995  0.2771  3.0639
   58MOL0     H 7827   5.330   7.677   9.893 -0.7862  0.9100  0.7516
   58MOL0     H 7828   5.362   7.542   9.684  1.7252 -2.5186  1.4901
   58MOL0     H 7829   5.287   7.388   9.650 -1.0579 -0.5001  0.0782
   58MOL0     H 7830   5.184   7.535   9.667  0.1048  0.5908  1.0682
   59MOL0     O 7831   1.874   0.300   3.882 -0.5741  0.3938 -0.0269
   59MOL0     C 7832   1.917   0.187   3.911  1.1195  0.3868 -0.2059
   59MOL0     O 7833   1.996   0.151   4.024 -0.0689 -0.0531  0.2964
   59MOL0     C 7834   2.049   0.250   4.106 -0.9196  0.2093 -0.7235
   59MOL0     C 7835   2.139   0.343   4.049 -0.0457  0.2760 -0.1171
   59MOL0     C 7836   2.209   0.437   4.131 -0.0352 -0.0321  0.3207
   59MOL0     C 7837   2.196   0.420   4.266 -0.5753  0.6479 -0.0230
   59MOL0     O 7838   2.276   0.493   4.354  0.3500 -0.3865 -0.2127
   59MOL0     C 7839   2.297   0.638   4.327 -0.4463 -0.0675  0.5162
   59MOL0     C 7840   2.228   0.720   4.430 -0.1628 -0.1851  0.0811
   59MOL0     C 7841   2.284   0.683   4.575 -0.1182  0.2893  0.7516
   59MOL0     C 7842   2.440   0.710   4.575 -0.4581  0.6621  0.0340
   59MOL0     C 7843   2.483   0.733   4.727  0.5756  0.9647  0.2166
   59MOL0     C 7844   2.447   0.611   4.817 -0.2142  0.4130  0.1284
   59MOL0     C 7845   2.517   0.636   4.956 -0.7647  0.2209 -0.3476
   59MOL0     C 7846   2.668   0.594   4.959  0.3033  0.6389 -0.4447
   59MOL0     N 7847   2.712   0.451   4.949 -0.2077 -0.4449  0.2827
   59MOL0     C 7848   2.629   0.350   4.962  0.2217  0.0944 -0.5431
   59MOL0     C 7849   2.707   0.242   4.970 -1.0022 -0.6382  0.0241
   59MOL0     C 7850   2.663   0.107   4.993 -0.4933  1.4574 -0.1782
   59MOL0     C 7851   2.543   0.063   4.912 -0.5698 -0.7023  0.0370
   59MOL0     C 7852   2.410   0.074   4.989 -0.1035  0.5369 -0.6686
   59MOL0     C 7853   2.287   0.036   4.908  0.0556  0.4248  0.1705
   59MOL0     O 7854   2.167   0.063   4.969  0.3898  1.1438 -0.6158
   59MOL0     C 7855   2.062   0.025   4.892  0.0162  0.0390 -0.1322
   59MOL0     C 7856   2.040   0.101   4.776 -0.5919  0.3755 -0.9811
   59MOL0     C 7857   1.941   0.066   4.681  1.3438  1.3401 -0.2173
   59MOL0     C 7858   1.866  -0.057   4.691 -0.4556  0.2952 -0.0745
   59MOL0     C 7859   1.771  -0.096   4.594  0.3826  0.4717  0.5913
   59MOL0     O 7860   1.741  -0.002   4.496 -0.0657 -0.0427  0.2096
   59MOL0     C 7861   1.673  -0.057   4.389  0.5687  0.1097 -0.1500
   59MOL0     C 7862   1.560   0.005   4.339 -0.5868  0.7694 -0.0695
   59MOL0     C 7863   1.493  -0.050   4.227  0.5769  0.9295  0.1765
   59MOL0     C 7864   1.541  -0.154   4.161 -0.4119 -0.4026 -0.2055
   59MOL0     O 7865   1.495  -0.189   4.038 -0.1812  0.5099 -0.2185
   59MOL0     C 7866   1.453  -0.323   4.006  0.8182 -0.7787 -0.3528
   59MOL0     C 7867   1.301  -0.318   4.036  0.5910 -0.0087  0.4595
   59MOL0     C 7868   1.240  -0.438   3.960  0.4387 -0.2456 -0.6073
   59MOL0     C 7869   1.081  -0.449   3.978 -0.6620  0.0068  0.5037
   59MOL0     C 7870   1.034  -0.594   3.949  0.6380 -0.1998  0.1416
   59MOL0     C 7871   1.107  -0.713   4.016  0.7891  0.6458 -0.4491
   59MOL0     C 7872   1.108  -0.694   4.168 -0.4322  0.1609 -0.0151
   59MOL0     C 7873   1.121  -0.827   4.247 -0.0418  0.2427 -0.3592
   59MOL0    Cl 7874   1.013  -0.968   4.193  0.1924  0.0938 -0.0598
   59MOL0     C 7875   1.657  -0.220   4.208 -0.1400  0.0798 -0.2582
   59MOL0     C 7876   1.725  -0.165   4.318 -0.1218 -0.5698 -0.8076
   59MOL0     O 7877   1.720  -0.204   4.597  0.4776  0.0435  0.1242
   59MOL0     C 7878   1.905  -0.136   4.793  0.6149 -0.2010  0.1955
   59MOL0     C 7879   1.998  -0.102   4.892 -0.7208 -0.2044 -0.0467
   59MOL0     N 7880   2.839   0.283   4.956 -0.5003  0.9228 -0.5405
   59MOL0     N 7881   2.841   0.416   4.935  0.9370 -0.8405 -0.4533
   59MOL0     C 7882   2.107   0.330   4.324 -0.3305  0.2429 -0.0587
   59MOL0     C 7883   2.034   0.249   4.247 -0.0058  0.1189  0.1090
   59MOL0     C 7884   1.878   0.068   3.823  0.0176 -1.2331 -1.4089
   59MOL0     C 7885   1.841  -0.049   3.889  0.5888 -0.5086  0.4468
   59MOL0     C 7886   1.788  -0.160   3.815  0.3795  0.0380  0.6643
   59MOL0     C 7887   1.756  -0.150   3.680 -0.4702  0.2767  0.6081
   59MOL0     O 7888   1.693  -0.260   3.623  0.1286  0.3224 -0.4140
   59MOL0     C 7889   1.649  -0.245   3.494  0.4401 -0.2503  0.0766
   59MOL0     C 7890   1.524  -0.342   3.471  0.5019  1.0830  0.4158
   59MOL0     C 7891   1.399  -0.334   3.554 -0.7768 -0.3953 -0.3963
   59MOL0     C 7892   1.310  -0.450   3.532  1.6760  0.0864 -0.6045
   59MOL0     C 7893   1.259  -0.470   3.398  0.8168 -0.3353 -0.0776
   59MOL0     C 7894   1.210  -0.508   3.294 -0.6608  0.3639 -0.7707
   59MOL0     C 7895   1.795  -0.028   3.614 -0.2938 -0.0446  0.3265
   59MOL0     C 7896   1.860   0.079   3.688  0.1937  0.1353 -0.4970
   59MOL0     C 7897   1.885   0.205   3.618 -0.4352  0.1230 -0.1538
   59MOL0     H 7898   2.145   0.350   3.941 -0.6957 -0.2792 -0.1981
   59MOL0     H 7899   2.268   0.517   4.086 -0.1746 -0.7430 -1.2113
   59MOL0     H 7900   2.401   0.670   4.326 -0.4971  0.1768  1.7246
   59MOL0     H 7901   2.248   0.665   4.232 -0.1708  1.0089  0.6707
   59MOL0     H 7902   2.119   0.716   4.425 -0.5879  1.6392  4.0189
   59MOL0     H 7903   2.256   0.823   4.406  1.7370 -1.2687 -2.8930
   59MOL0     H 7904   2.279   0.576   4.597 -1.7721 -0.0865 -1.1414
   59MOL0     H 7905   2.215   0.743   4.635 -0.7704 -0.2384  0.5478
   59MOL0     H 7906   2.501   0.629   4.536  1.2446  0.7492  2.2724
   59MOL0     H 7907   2.466   0.803   4.522  0.1010  0.3078 -0.3232
   59MOL0     H 7908   2.589   0.753   4.743 -0.0305  3.0664  2.1750
   59MOL0     H 7909   2.428   0.820   4.763 -0.4164 -0.4640  2.3432
   59MOL0     H 7910   2.338   0.604   4.821 -0.2280  1.0887  1.2777
   59MOL0     H 7911   2.487   0.516   4.779  1.8012  0.8052  1.1119
   59MOL0     H 7912   2.473   0.581   5.039  1.3692 -1.1981 -0.0782
   59MOL0     H 7913   2.504   0.740   4.984 -2.4938  0.0096 -0.2529
   59MOL0     H 7914   2.719   0.643   4.876 -0.3085 -0.8293 -1.7299
   59MOL0     H 7915   2.704   0.618   5.060  0.6127 -0.9354 -0.1525
   59MOL0     H 7916   2.521   0.347   4.971  0.3715 -4.0636  4.1373
   59MOL0     H 7917   2.735   0.028   4.970  0.2819  1.6950  1.3300
   59MOL0     H 7918   2.655   0.094   5.101  1.5500  1.4492  0.0230
   59MOL0     H 7919   2.533   0.131   4.827  1.2273 -2.4340 -1.6641
   59MOL0     H 7920   2.559  -0.038   4.874  0.8828 -0.1441 -0.9286
   59MOL0     H 7921   2.398   0.181   5.010  3.6631  1.3521 -1.8600
   59MOL0     H 7922   2.404   0.017   5.082  1.0887  0.0793 -0.8547
   59MOL0     H 7923   2.295  -0.069   4.878  1.7595  1.2169 -2.6225
   59MOL0     H 7924   2.305   0.083   4.811  1.8762  0.5223  0.5220
   59MOL0     H 7925   2.097   0.192   4.765  0.6935 -0.1401  0.9268
   59MOL0     H 7926   1.928   0.139   4.602  1.4287  1.1186 -0.4362
   59MOL0     H 7927   1.524   0.092   4.393 -1.6286 -2.0616  4.3833
   59MOL0     H 7928   1.407   0.000   4.185 -1.2198  1.1011  3.7120
   59MOL0     H 7929   1.468  -0.342   3.899 -2.7936  3.3811 -1.9113
   59MOL0     H 7930   1.493  -0.395   4.077 -3.4980 -2.5235  0.6371
   59MOL0     H 7931   1.283  -0.333   4.143 -1.9213 -2.0433 -0.1377
   59MOL0     H 7932   1.257  -0.225   4.000  1.3936 -0.5545 -2.1152
   59MOL0     H 7933   1.259  -0.430   3.852 -1.7036  1.5726 -0.9191
   59MOL0     H 7934   1.296  -0.522   4.002 -0.5004 -0.5275  0.1006
   59MOL0     H 7935   1.037  -0.379   3.907  1.2495  1.2570  0.4714
   59MOL0     H 7936   1.043  -0.415   4.075  0.2347 -0.1638  0.9277
   59MOL0     H 7937   1.030  -0.599   3.840  1.8464 -1.6952  0.1203
   59MOL0     H 7938   0.928  -0.595   3.975  0.1251 -1.9587 -1.7628
   59MOL0     H 7939   1.053  -0.804   3.988  0.8035  0.7119 -0.6908
   59MOL0     H 7940   1.209  -0.730   3.979  1.3494  2.6223  0.0563
   59MOL0     H 7941   1.017  -0.643   4.200  0.6241  1.3101  1.2730
   59MOL0     H 7942   1.192  -0.631   4.197 -1.0721  0.6125  0.9203
   59MOL0     H 7943   1.219  -0.875   4.244 -0.8831 -1.5338 -0.7249
   59MOL0     H 7944   1.102  -0.810   4.353  0.9101  1.2349 -0.3234
   59MOL0     H 7945   1.696  -0.313   4.167  0.9839 -0.1620  1.2689
   59MOL0     H 7946   1.812  -0.218   4.353 -0.1754 -0.0384  0.1648
   59MOL0     H 7947   1.869  -0.238   4.780 -2.3829  0.9935 -2.0480
   59MOL0     H 7948   2.029  -0.183   4.957  0.6062 -1.5590 -2.2441
   59MOL0     H 7949   2.101   0.321   4.432 -2.4818 -0.7970 -0.2070
   59MOL0     H 7950   1.967   0.178   4.295  0.1553  0.7061  1.2497
   59MOL0     H 7951   1.844  -0.062   3.997 -1.2933 -0.2956  0.5591
   59MOL0     H 7952   1.762  -0.256   3.860 -1.6110  0.3615  0.2583
   59MOL0     H 7953   1.726  -0.277   3.424  2.4348 -0.3390  2.1831
   59MOL0     H 7954   1.621  -0.143   3.467  0.7194  0.2588  1.6037
   59MOL0     H 7955   1.563  -0.443   3.463  4.0110  2.3510 -0.4004
   59MOL0     H 7956   1.481  -0.313   3.375 -0.7162  0.1662  0.6588
   59MOL0     H 7957   1.347  -0.241   3.531 -1.5843 -0.5443  0.7337
   59MOL0     H 7958   1.424  -0.328   3.660  0.1497  0.5933 -0.6589
   59MOL0     H 7959   1.370  -0.536   3.561 -0.2228 -1.9299 -2.2775
   59MOL0     H 7960   1.220  -0.433   3.592  0.1013 -0.5343 -2.6898
   59MOL0     H 7961   1.197  -0.556   3.200  1.3821 -1.8405 -0.0438
   59MOL0     H 7962   1.778  -0.016   3.508  3.5682 -0.2766 -0.4429
   59MOL0     H 7963   1.885   0.183   3.511 -2.5200  0.0357 -0.1760
   59MOL0     H 7964   1.805   0.278   3.632  1.4685  2.5776 -1.2835
   59MOL0     H 7965   1.985   0.231   3.655  0.6679 -2.8281 -0.7247
   60MOL0     O 7966   0.841   5.122  10.021 -0.7368 -0.1914  1.1294
   60MOL0     C 7967   0.775   5.220  10.034 -0.1422 -0.5310 -0.2522
   60MOL0     O 7968   0.824   5.338  10.089 -0.0171 -0.8445 -0.4471
   60MOL0     C 7969   0.959   5.362  10.118 -0.2001  0.4460  0.8038
   60MOL0     C 7970   1.020   5.478  10.047 -0.0454  0.7164 -0.3827
   60MOL0     C 7971   1.157   5.502  10.073 -0.1925  0.1745  0.4928
   60MOL0     C 7972   1.234   5.428  10.163  0.2777  0.0569 -0.3174
   60MOL0     O 7973   1.365   5.456  10.194  0.0522 -0.1689  0.4206
   60MOL0     C 7974   1.454   5.405  10.094 -0.2597  0.1356 -0.0472
   60MOL0     C 7975   1.478   5.499   9.970  0.9027  1.0878 -0.3664
   60MOL0     C 7976   1.525   5.644  10.012  0.2863  0.4517  0.6398
   60MOL0     C 7977   1.572   5.721   9.888  0.2950 -0.0629  0.1999
   60MOL0     C 7978   1.712   5.679   9.834  0.1361 -0.7290 -0.2221
   60MOL0     C 7979   1.746   5.742   9.700  0.3254  0.3151  0.0053
   60MOL0     C 7980   1.793   5.885   9.719  0.1028  0.4821 -0.3670
   60MOL0     C 7981   1.800   5.964   9.580  0.1343  0.8764  0.1379
   60MOL0     N 7982   1.897   5.932   9.482  0.2704 -0.6628  0.4946
   60MOL0     C 7983   1.908   5.815   9.419 -0.0620  0.9564  0.0889
   60MOL0     C 7984   2.026   5.803   9.360 -0.1324  0.1577  0.1613
   60MOL0     C 7985   2.083   5.686   9.290 -0.1478 -0.6263  0.3578
   60MOL0     C 7986   1.999   5.561   9.279  0.9687 -1.1000 -0.1345
   60MOL0     C 7987   2.092   5.445   9.238  0.1048  0.3624  0.8558
   60MOL0     C 7988   2.008   5.314   9.224  0.5819 -1.2724  0.5710
   60MOL0     O 7989   1.890   5.353   9.144  0.7993 -0.3120 -0.1421
   60MOL0     C 7990   1.764   5.291   9.161 -0.4278 -0.0122 -0.0288
   60MOL0     C 7991   1.765   5.155   9.152 -0.4002  0.0527  0.9750
   60MOL0     C 7992   1.646   5.083   9.161  0.2741 -0.2555  0.8634
   60MOL0     C 7993   1.525   5.152   9.193  0.5733  0.9010  0.2391
   60MOL0     C 7994   1.409   5.068   9.209  0.5386 -0.5969  0.0241
   60MOL0     O 7995   1.291   5.129   9.178 -0.4692 -0.0391 -0.2226
   60MOL0     C 7996   1.172   5.058   9.159  0.2601  0.2370  0.3736
   60MOL0     C 7997   1.174   4.933   9.086  0.5320  0.3118  1.1138
   60MOL0     C 7998   1.051   4.869   9.066  0.5180  0.1495 -0.0913
   60MOL0     C 7999   0.925   4.918   9.107  0.3395  0.6785  0.6396
   60MOL0     O 8000   0.807   4.844   9.101 -0.2614 -0.3670 -0.5378
   60MOL0     C 8001   0.754   4.831   8.968  0.9305  0.0128  0.5134
   60MOL0     C 8002   0.642   4.725   8.971  0.7024 -0.6761 -0.1062
   60MOL0     C 8003   0.691   4.596   9.036 -0.6166 -0.5913 -0.2906
   60MOL0     C 8004   0.612   4.471   9.023 -0.1123  0.3606  0.2256
   60MOL0     C 8005   0.610   4.424   8.883  0.3151  0.6796  0.5306
   60MOL0     C 8006   0.541   4.285   8.874 -0.7126 -0.3092  0.1532
   60MOL0     C 8007   0.394   4.286   8.847  0.2072  0.4228  1.4100
   60MOL0     C 8008   0.331   4.142   8.858 -0.1255  0.1123  0.1099
   60MOL0    Cl 8009   0.159   4.165   8.879  0.2424  0.1102  0.2094
   60MOL0     C 8010   0.925   5.043   9.171  0.1235  0.6875  0.1637
   60MOL0     C 8011   1.043   5.114   9.195  0.1695  0.8086  0.1402
   60MOL0     O 8012   1.418   4.946   9.238 -0.6487  0.6053 -0.1992
   60MOL0     C 8013   1.531   5.299   9.198  0.1004  0.2114 -0.2142
   60MOL0     C 8014   1.654   5.367   9.172  0.2124  0.1536  0.0134
   60MOL0     N 8015   2.092   5.929   9.379  0.0752  0.6296  0.5020
   60MOL0     N 8016   2.019   5.996   9.450  0.1825  0.0803 -0.3438
   60MOL0     C 8017   1.176   5.317  10.229 -0.0411  0.4728  0.7421
   60MOL0     C 8018   1.041   5.279  10.203  0.1813 -0.6906 -0.6935
   60MOL0     C 8019   0.633   5.207   9.988  0.6338 -0.9528 -0.9258
   60MOL0     C 8020   0.576   5.076   9.987 -0.1650 -0.8160  0.1572
   60MOL0     C 8021   0.446   5.044   9.964  0.1344 -0.3017 -0.6620
   60MOL0     C 8022   0.354   5.149   9.941 -0.1353 -0.1816  0.1556
   60MOL0     O 8023   0.225   5.131   9.897 -0.5474 -0.1752  0.5032
   60MOL0     C 8024   0.164   5.005   9.883  0.0097 -0.2933 -0.5437
   60MOL0     C 8025   0.032   5.009   9.823 -0.0458  0.0628  0.2231
   60MOL0     C 8026   0.052   5.055   9.680  0.5222 -0.0890  0.5164
   60MOL0     C 8027  -0.076   5.114   9.616  0.3160  0.2972 -0.4849
   60MOL0     C 8028  -0.137   5.220   9.696 -0.7446 -0.5011 -0.4580
   60MOL0     C 8029  -0.184   5.305   9.777 -0.1637  0.1515  0.4151
   60MOL0     C 8030   0.409   5.277   9.940  0.0316 -0.5393 -0.4132
   60MOL0     C 8031   0.544   5.313   9.959  0.2569  0.7186 -0.0384
   60MOL0     C 8032   0.586   5.458   9.937 -0.0512  0.7755 -0.3931
   60MOL0     H 8033   0.957   5.541   9.984 -0.7067 -0.6950 -1.1903
   60MOL0     H 8034   1.205   5.594  10.040 -0.9345 -0.0169 -1.2708
   60MOL0     H 8035   1.547   5.392  10.150 -1.5221 -3.1208  1.4979
   60MOL0     H 8036   1.433   5.304  10.059 -0.0340 -0.0261  0.2906
   60MOL0     H 8037   1.384   5.500   9.913  0.2205  0.3027  0.6990
   60MOL0     H 8038   1.553   5.450   9.908  0.0508 -1.3016  0.4013
   60MOL0     H 8039   1.603   5.639  10.089 -0.7635  1.6909  1.8375
   60MOL0     H 8040   1.441   5.689  10.067  0.5679 -0.2231  1.6687
   60MOL0     H 8041   1.501   5.709   9.806  1.6183 -2.4542 -0.6964
   60MOL0     H 8042   1.576   5.826   9.920  1.8645 -0.3055  0.8914
   60MOL0     H 8043   1.795   5.715   9.895  1.3626 -0.4523 -1.9936
   60MOL0     H 8044   1.718   5.572   9.811 -0.6443 -0.4776 -1.7253
   60MOL0     H 8045   1.818   5.685   9.640 -2.3344 -0.2495 -2.9450
   60MOL0     H 8046   1.658   5.743   9.635 -0.4218 -0.0995  1.0059
   60MOL0     H 8047   1.892   5.887   9.765 -0.1216 -0.4403  0.1750
   60MOL0     H 8048   1.718   5.939   9.777  1.8774  2.0728  0.5300
   60MOL0     H 8049   1.703   5.954   9.532  0.6512  0.0449 -0.7716
   60MOL0     H 8050   1.822   6.069   9.600  0.8387  0.6387  0.6387
   60MOL0     H 8051   1.833   5.736   9.423  0.7420  0.2014  0.6282
   60MOL0     H 8052   2.093   5.717   9.186  3.3601 -3.3290 -0.2895
   60MOL0     H 8053   2.186   5.661   9.318 -1.1930 -1.1113  4.5353
   60MOL0     H 8054   1.959   5.543   9.379  0.8354  1.1162  0.2695
   60MOL0     H 8055   1.926   5.569   9.197 -0.5682 -3.5109  0.8949
   60MOL0     H 8056   2.179   5.434   9.303  0.3817  0.2113  0.4661
   60MOL0     H 8057   2.130   5.459   9.136 -1.6397 -0.5621  0.0438
   60MOL0     H 8058   1.971   5.284   9.322  1.9148  0.7246  1.7471
   60MOL0     H 8059   2.066   5.235   9.174  1.1689  1.2754 -3.1517
   60MOL0     H 8060   1.857   5.097   9.149 -0.4153 -0.0576  2.1227
   60MOL0     H 8061   1.635   4.977   9.139  2.0140 -0.0054 -1.6261
   60MOL0     H 8062   1.264   4.889   9.045  0.6698  1.6710 -0.1220
   60MOL0     H 8063   1.038   4.768   9.028 -1.0091  0.4734 -0.4652
   60MOL0     H 8064   0.726   4.930   8.931 -0.4209  0.1755  1.9021
   60MOL0     H 8065   0.831   4.794   8.900  0.2147 -0.7791  0.1119
   60MOL0     H 8066   0.557   4.762   9.029  0.8519  1.9143 -1.3863
   60MOL0     H 8067   0.606   4.711   8.869 -1.5641  0.8370  0.4093
   60MOL0     H 8068   0.793   4.571   9.004 -0.5217 -1.7709  0.8455
   60MOL0     H 8069   0.686   4.621   9.143 -0.6522 -0.6645 -0.2754
   60MOL0     H 8070   0.509   4.491   9.053  0.4423 -0.7496  3.1813
   60MOL0     H 8071   0.651   4.396   9.093 -1.4228  2.8199  3.9049
   60MOL0     H 8072   0.717   4.412   8.863 -0.2854 -0.7471 -2.3824
   60MOL0     H 8073   0.558   4.490   8.813 -0.1846  0.3591  0.5986
   60MOL0     H 8074   0.597   4.236   8.794 -1.8727 -0.2377 -0.7376
   60MOL0     H 8075   0.551   4.236   8.971  0.6201  0.1894  0.2817
   60MOL0     H 8076   0.370   4.322   8.746  0.8240 -3.9547 -0.5483
   60MOL0     H 8077   0.343   4.343   8.925 -2.1475  0.0386  0.2517
   60MOL0     H 8078   0.347   4.095   8.760  2.9203  1.6914 -0.2503
   60MOL0     H 8079   0.377   4.083   8.937  2.0872  2.7245  0.9079
   60MOL0     H 8080   0.829   5.088   9.193 -0.1604  0.2615 -0.1844
   60MOL0     H 8081   1.047   5.211   9.243  2.0980  1.5893 -1.4695
   60MOL0     H 8082   1.448   5.357   9.235  0.3543 -0.7955  2.0818
   60MOL0     H 8083   1.657   5.474   9.187 -1.2597  0.2572 -0.3099
   60MOL0     H 8084   1.249   5.258  10.283  2.0770  0.4570 -1.9216
   60MOL0     H 8085   0.999   5.196  10.259 -1.4486  1.8889  2.2280
   60MOL0     H 8086   0.630   4.984  10.008 -1.0163 -1.4682 -0.4232
   60MOL0     H 8087   0.432   4.937   9.967  2.1007 -0.5914 -0.5966
   60MOL0     H 8088   0.144   4.971   9.985 -1.6428  1.8412 -0.0905
   60MOL0     H 8089   0.219   4.928   9.827 -2.3710 -1.6269 -1.1887
   60MOL0     H 8090  -0.028   5.086   9.871 -0.8000  2.1689 -3.6561
   60MOL0     H 8091  -0.017   4.911   9.829 -0.1650  0.0070 -1.2371
   60MOL0     H 8092   0.078   4.971   9.616 -0.4265  1.1689 -1.6541
   60MOL0     H 8093   0.128   5.133   9.667  0.9294 -0.7321 -1.2908
   60MOL0     H 8094  -0.054   5.158   9.519  1.8891  1.9397  0.5497
   60MOL0     H 8095  -0.146   5.031   9.599 -0.0230  0.8365 -1.8610
   60MOL0     H 8096  -0.232   5.383   9.832 -0.2122  1.9218 -1.9592
   60MOL0     H 8097   0.337   5.353   9.910 -0.7774 -1.8023 -1.7850
   60MOL0     H 8098   0.653   5.467   9.851 -1.2599 -2.2147 -1.8028
   60MOL0     H 8099   0.498   5.517   9.910  0.6512  3.2324  2.2266
   60MOL0     H 8100   0.629   5.492  10.031 -1.6404  0.1788  0.5939
   61MOL0     O 8101   4.463   6.876   5.301 -0.3091 -0.1821 -0.4831
   61MOL0     C 8102   4.560   6.805   5.288  0.1310  0.9935  0.7738
   61MOL0     O 8103   4.557   6.676   5.245 -0.0678  0.5528 -0.0648
   61MOL0     C 8104   4.438   6.607   5.195 -0.3743  0.0184 -1.2496
   61MOL0     C 8105   4.424   6.466   5.217 -0.4776 -0.5078  0.3655
   61MOL0     C 8106   4.313   6.397   5.183 -0.2034  0.6691 -0.3748
   61MOL0     C 8107   4.211   6.467   5.124  1.2647 -0.3859 -0.3289
   61MOL0     O 8108   4.088   6.405   5.107 -0.5266 -0.0945  0.0014
   61MOL0     C 8109   4.026   6.440   4.981  0.2435 -0.2795 -0.8976
   61MOL0     C 8110   3.931   6.318   4.953 -0.1471  0.4613  0.1159
   61MOL0     C 8111   3.843   6.331   4.824  0.3915 -0.2039 -0.2373
   61MOL0     C 8112   3.734   6.225   4.811  0.9500  0.1093  0.0151
   61MOL0     C 8113   3.633   6.264   4.691 -0.3513  0.3926  0.2271
   61MOL0     C 8114   3.694   6.216   4.550  0.1645 -0.0089 -0.6696
   61MOL0     C 8115   3.588   6.187   4.447 -0.1730 -0.5287  0.6413
   61MOL0     C 8116   3.485   6.075   4.489 -1.0639  0.7002 -0.2278
   61MOL0     N 8117   3.551   5.937   4.495  0.8583  0.1585  0.1682
   61MOL0     C 8118   3.608   5.865   4.396  0.5181  0.1220  0.1730
   61MOL0     C 8119   3.606   5.742   4.439 -0.4759  0.3178  0.5385
   61MOL0     C 8120   3.663   5.622   4.366 -0.5180  0.7594  0.7359
   61MOL0     C 8121   3.573   5.568   4.253  0.1880  0.0529  0.1103
   61MOL0     C 8122   3.544   5.687   4.157 -0.0645  0.3564  0.1300
   61MOL0     C 8123   3.499   5.639   4.015 -0.3962  0.3228  0.3297
   61MOL0     O 8124   3.438   5.744   3.933  0.1906 -0.2441 -0.4783
   61MOL0     C 8125   3.515   5.845   3.907  0.0562 -0.2467  0.0575
   61MOL0     C 8126   3.609   5.846   3.797  0.2822 -0.7766  0.1449
   61MOL0     C 8127   3.690   5.957   3.770  0.2176 -0.4651  1.3651
   61MOL0     C 8128   3.684   6.071   3.859  0.4026 -0.4032  0.5089
   61MOL0     C 8129   3.755   6.193   3.815  0.0275  0.2287  0.6658
   61MOL0     O 8130   3.850   6.179   3.714 -0.1365 -0.8254  0.1760
   61MOL0     C 8131   3.936   6.274   3.676  0.2963 -0.4423 -0.7649
   61MOL0     C 8132   3.988   6.386   3.752 -0.3424  1.4260 -0.2991
   61MOL0     C 8133   4.084   6.469   3.698 -0.0064 -0.2531 -0.0989
   61MOL0     C 8134   4.119   6.466   3.560  0.5117  0.2388  0.5539
   61MOL0     O 8135   4.210   6.548   3.498  0.1925 -0.5326  0.0937
   61MOL0     C 8136   4.215   6.679   3.539  0.2563  0.3571 -0.5925
   61MOL0     C 8137   4.308   6.758   3.451 -0.0019  0.4496 -0.5755
   61MOL0     C 8138   4.455   6.703   3.433 -0.2211 -0.2367  0.5568
   61MOL0     C 8139   4.564   6.813   3.402 -0.2070 -0.4803  0.2233
   61MOL0     C 8140   4.701   6.750   3.366 -0.5748 -0.4514 -0.4542
   61MOL0     C 8141   4.819   6.848   3.342 -0.2548 -0.1624 -0.1979
   61MOL0     C 8142   4.833   6.963   3.444  0.4337  0.1242 -0.1384
   61MOL0     C 8143   4.887   6.938   3.581 -0.7067  1.0895 -0.5636
   61MOL0    Cl 8144   4.872   7.083   3.692 -0.1206  0.2546 -0.1593
   61MOL0     C 8145   4.069   6.357   3.486 -0.8404  0.6120  0.9548
   61MOL0     C 8146   3.985   6.262   3.541 -0.0201  1.0309 -0.1289
   61MOL0     O 8147   3.732   6.293   3.878  0.6849 -0.3156 -0.4047
   61MOL0     C 8148   3.593   6.078   3.961  0.9527 -0.2096 -0.4075
   61MOL0     C 8149   3.518   5.962   3.993  0.8613  0.1272  0.4194
   61MOL0     N 8150   3.554   5.729   4.561  0.6593 -0.3229  0.4276
   61MOL0     N 8151   3.525   5.850   4.601  0.2176  0.5834  0.4723
   61MOL0     C 8152   4.224   6.610   5.092  0.3111  0.3413  0.2647
   61MOL0     C 8153   4.346   6.676   5.124  0.9146  0.3947  0.4251
   61MOL0     C 8154   4.690   6.868   5.318 -0.5662  0.3294  0.0695
   61MOL0     C 8155   4.810   6.798   5.272 -0.3948 -0.6354 -0.1721
   61MOL0     C 8156   4.930   6.854   5.291  0.4486 -0.5646  0.8036
   61MOL0     C 8157   4.943   6.981   5.352  0.0943  0.1771  0.2593
   61MOL0     O 8158   5.068   7.048   5.359 -0.7239 -0.1876 -0.0547
   61MOL0     C 8159   5.157   7.026   5.251  0.5292  0.2799 -0.7035
   61MOL0     C 8160   5.244   7.142   5.218 -0.7285 -0.4321  0.2001
   61MOL0     C 8161   5.169   7.270   5.179  0.5091  0.0730  0.1006
   61MOL0     C 8162   5.248   7.366   5.094  0.0601  0.3195  0.2460
   61MOL0     C 8163   5.260   7.312   4.956  0.2121  0.2538  0.1768
   61MOL0     C 8164   5.279   7.256   4.847 -0.3210  0.4596 -0.7911
   61MOL0     C 8165   4.843   7.039   5.418  0.7015  0.3518 -0.3530
   61MOL0     C 8166   4.712   6.979   5.414  0.1530 -0.0549  0.2147
   61MOL0     C 8167   4.602   7.047   5.492 -0.3134  0.2181 -0.6758
   61MOL0     H 8168   4.502   6.418   5.277  0.8104  0.5650 -0.3825
   61MOL0     H 8169   4.291   6.292   5.199 -2.1451  0.8387 -1.5985
   61MOL0     H 8170   3.978   6.538   4.981  2.5559  0.9685  1.8546
   61MOL0     H 8171   4.103   6.441   4.903 -0.1569  1.0897 -1.2981
   61MOL0     H 8172   3.870   6.309   5.044 -0.5069  2.0346  0.0403
   61MOL0     H 8173   3.995   6.229   4.942 -0.7792  0.0914 -0.6258
   61MOL0     H 8174   3.900   6.327   4.732 -1.8349  2.4766 -1.8999
   61MOL0     H 8175   3.797   6.430   4.836  1.9940  0.8020 -1.8818
   61MOL0     H 8176   3.787   6.134   4.784  1.3480  0.7612 -1.4881
   61MOL0     H 8177   3.687   6.218   4.910 -2.3014 -1.0386 -1.4420
   61MOL0     H 8178   3.540   6.209   4.711 -0.4272  0.4040 -0.0848
   61MOL0     H 8179   3.611   6.371   4.698 -1.8493  0.0060  2.8614
   61MOL0     H 8180   3.758   6.297   4.513  2.3967 -1.3498  0.0506
   61MOL0     H 8181   3.756   6.126   4.561  1.2647  0.8949  0.9911
   61MOL0     H 8182   3.630   6.154   4.351 -0.4716  0.5604  0.1210
   61MOL0     H 8183   3.542   6.284   4.426  1.1987 -0.0059 -0.1058
   61MOL0     H 8184   3.437   6.095   4.585  1.3576 -0.8055  1.4351
   61MOL0     H 8185   3.405   6.076   4.415 -1.1574  2.2833 -0.1320
   61MOL0     H 8186   3.656   5.895   4.303  0.0189 -3.0913 -1.2654
   61MOL0     H 8187   3.758   5.654   4.322 -0.3067 -1.3480 -0.4853
   61MOL0     H 8188   3.691   5.539   4.431  1.4000 -1.3017 -2.4227
   61MOL0     H 8189   3.635   5.489   4.211  1.9736  1.1562  0.5758
   61MOL0     H 8190   3.483   5.528   4.302  0.2481  0.6808  0.7493
   61MOL0     H 8191   3.631   5.752   4.144 -0.4114  0.6211 -1.0127
   61MOL0     H 8192   3.458   5.743   4.195 -0.6392  1.0777 -2.0533
   61MOL0     H 8193   3.425   5.560   4.032 -0.1922  0.0257 -0.1440
   61MOL0     H 8194   3.577   5.590   3.957 -2.0212 -0.6123 -1.1975
   61MOL0     H 8195   3.619   5.755   3.738 -0.4480 -1.5223  1.1219
   61MOL0     H 8196   3.766   5.955   3.692  0.6389  2.6544  1.5978
   61MOL0     H 8197   3.963   6.395   3.857  0.2297 -0.9991  0.1193
   61MOL0     H 8198   4.136   6.551   3.747 -1.5383  0.9756 -0.4448
   61MOL0     H 8199   4.123   6.738   3.528 -0.0639 -0.0334 -0.0267
   61MOL0     H 8200   4.244   6.683   3.645 -0.0195 -2.0838 -0.3838
   61MOL0     H 8201   4.256   6.770   3.355 -5.4179 -1.9841  1.5922
   61MOL0     H 8202   4.313   6.861   3.488 -0.3669  0.1688  0.2789
   61MOL0     H 8203   4.479   6.644   3.522  0.4734 -0.5473  0.1708
   61MOL0     H 8204   4.446   6.640   3.344 -0.2710 -0.1530  0.5024
   61MOL0     H 8205   4.569   6.883   3.486  0.8225  0.9277 -0.9652
   61MOL0     H 8206   4.520   6.874   3.322 -0.9360  1.7404  2.1919
   61MOL0     H 8207   4.691   6.695   3.272  1.1901 -0.5311 -0.6180
   61MOL0     H 8208   4.724   6.674   3.441  0.8115  0.1268 -0.2613
   61MOL0     H 8209   4.919   6.803   3.337  0.4080  1.3277 -1.2309
   61MOL0     H 8210   4.800   6.896   3.246 -0.1173  0.7334  0.2129
   61MOL0     H 8211   4.730   7.000   3.442  0.5195  0.3514 -1.7764
   61MOL0     H 8212   4.905   7.034   3.401  1.5412 -1.4522 -0.9673
   61MOL0     H 8213   4.830   6.860   3.632  1.0223  0.2411  0.1307
   61MOL0     H 8214   4.993   6.911   3.574 -0.6720  1.1697 -0.3450
   61MOL0     H 8215   4.108   6.334   3.387 -2.1704 -2.0961  0.9556
   61MOL0     H 8216   3.945   6.182   3.480  3.4949 -2.2066  1.4047
   61MOL0     H 8217   3.588   6.165   4.025  1.1143  0.7333 -1.6490
   61MOL0     H 8218   3.457   5.954   4.082  1.7487 -1.3135  0.9392
   61MOL0     H 8219   4.141   6.666   5.050  0.0529  0.3161  0.7419
   61MOL0     H 8220   4.367   6.779   5.099  0.1628  0.2841 -0.7264
   61MOL0     H 8221   4.803   6.706   5.215 -1.3932  0.2664 -1.5433
   61MOL0     H 8222   5.014   6.793   5.260 -0.1677 -1.7148  1.3576
   61MOL0     H 8223   5.098   6.997   5.164 -0.7344  1.0898 -0.1386
   61MOL0     H 8224   5.221   6.940   5.273  1.5753  0.9885 -0.8469
   61MOL0     H 8225   5.301   7.123   5.127 -3.7965  0.3380 -2.0361
   61MOL0     H 8226   5.311   7.167   5.301  0.5660  1.2612 -1.2861
   61MOL0     H 8227   5.134   7.320   5.270  0.5408  0.7365 -0.2465
   61MOL0     H 8228   5.080   7.244   5.121  1.0612  1.6881 -1.5761
   61MOL0     H 8229   5.186   7.456   5.089 -2.5385 -1.3470  0.6741
   61MOL0     H 8230   5.345   7.376   5.143  0.0749  0.2959  0.2210
   61MOL0     H 8231   5.302   7.227   4.747 -1.8960  1.6304 -1.5351
   61MOL0     H 8232   4.870   7.121   5.483 -0.5062  1.8550 -1.6503
   61MOL0     H 8233   4.639   7.119   5.566 -0.3848 -0.3440 -0.0841
   61MOL0     H 8234   4.536   7.102   5.425 -1.0080  1.0714  0.6592
   61MOL0     H 8235   4.534   6.979   5.544  0.4526  0.2502  0.4128
   62MOL0     O 8236   9.433   8.607   4.966 -0.4714 -0.7413  0.2147
   62MOL0     C 8237   9.436   8.549   5.074 -0.1663  0.9195  0.7704
   62MOL0     O 8238   9.536   8.461   5.117  0.0497  0.1558  0.3223
   62MOL0     C 8239   9.672   8.490   5.116  0.0369  0.3566 -0.6503
   62MOL0     C 8240   9.756   8.389   5.162  0.2421  0.1084  0.6338
   62MOL0     C 8241   9.889   8.418   5.169 -0.8663  0.3413  0.2047
   62MOL0     C 8242   9.950   8.537   5.112 -0.2040  0.8739 -0.4641
   62MOL0     O 8243  10.078   8.575   5.138 -1.2272 -0.1411 -0.5983
   62MOL0     C 8244  10.181   8.474   5.136 -0.1508  0.2924 -0.1319
   62MOL0     C 8245  10.313   8.556   5.119  0.6074  1.0077 -0.0768
   62MOL0     C 8246  10.432   8.479   5.070 -0.0418 -0.6282 -0.1099
   62MOL0     C 8247  10.485   8.392   5.180 -0.6881 -0.2397  0.4402
   62MOL0     C 8248  10.628   8.346   5.155 -0.6128 -0.1073  0.3594
   62MOL0     C 8249  10.645   8.252   5.034 -0.3895 -0.4834  0.9171
   62MOL0     C 8250  10.789   8.194   5.007 -0.7526 -0.4306  0.2663
   62MOL0     C 8251  10.900   8.294   4.950  0.4498  0.1369 -0.5920
   62MOL0     N 8252  10.939   8.271   4.814 -0.6614  0.5725  0.2241
   62MOL0     C 8253  10.858   8.263   4.697  0.9059 -0.3928 -0.3457
   62MOL0     C 8254  10.952   8.239   4.604  0.1734  0.4199 -0.5451
   62MOL0     C 8255  10.922   8.204   4.458  0.5558 -0.4394 -0.1958
   62MOL0     C 8256  10.939   8.329   4.375  0.0948 -0.1866  0.3099
   62MOL0     C 8257  11.077   8.407   4.387 -0.8884 -0.1655  0.5316
   62MOL0     C 8258  11.200   8.326   4.350 -0.7404 -0.0748  0.1962
   62MOL0     O 8259  11.313   8.395   4.399 -0.1662 -0.3147 -0.2764
   62MOL0     C 8260  11.397   8.466   4.314  0.5546  0.0008 -0.0811
   62MOL0     C 8261  11.354   8.537   4.200  0.2114 -0.6044 -0.3020
   62MOL0     C 8262  11.445   8.604   4.115  0.3551 -0.1032 -0.4595
   62MOL0     C 8263  11.584   8.585   4.146 -0.1481 -0.6361  0.6479
   62MOL0     C 8264  11.673   8.660   4.055  0.4670  0.1499 -0.6153
   62MOL0     O 8265  11.635   8.768   3.997  0.2111  0.0983  0.6002
   62MOL0     C 8266  11.711   8.838   3.911  0.7139  0.2877 -0.4928
   62MOL0     C 8267  11.754   8.774   3.793  0.4770  0.6881 -0.1398
   62MOL0     C 8268  11.824   8.846   3.696  0.7374 -0.3478  0.7397
   62MOL0     C 8269  11.849   8.983   3.708  0.0897 -0.3124  0.8289
   62MOL0     O 8270  11.902   9.060   3.605  0.3578 -0.5693 -0.7504
   62MOL0     C 8271  11.934   8.999   3.479 -0.7093  0.4757 -0.1880
   62MOL0     C 8272  11.973   9.102   3.377  0.5151  0.3159 -0.2598
   62MOL0     C 8273  12.120   9.147   3.397 -0.4349  0.5788 -1.1242
   62MOL0     C 8274  12.176   9.207   3.270 -1.0381 -0.3915 -0.3437
   62MOL0     C 8275  12.304   9.283   3.313 -0.1325 -0.0434  0.8561
   62MOL0     C 8276  12.430   9.198   3.306  0.1112 -0.2152 -0.5533
   62MOL0     C 8277  12.555   9.279   3.330  0.5317 -0.1867  0.2985
   62MOL0     C 8278  12.669   9.186   3.323 -0.7922  0.4052 -0.9897
   62MOL0    Cl 8279  12.824   9.283   3.362  0.4925  0.3163 -0.4133
   62MOL0     C 8280  11.797   9.048   3.824  0.0206 -0.1587  0.2399
   62MOL0     C 8281  11.730   8.975   3.927 -1.0704 -0.5307 -0.5403
   62MOL0     O 8282  11.790   8.615   4.048  0.0038 -0.0029 -0.4764
   62MOL0     C 8283  11.626   8.504   4.250  0.5735  0.0641 -0.6713
   62MOL0     C 8284  11.528   8.448   4.336 -0.1831 -0.3644 -0.0977
   62MOL0     N 8285  11.069   8.227   4.661  0.2336 -0.7378 -0.1658
   62MOL0     N 8286  11.070   8.241   4.784 -0.2513  0.2212 -0.6863
   62MOL0     C 8287   9.863   8.628   5.054 -0.5801 -0.0175  0.3714
   62MOL0     C 8288   9.722   8.609   5.071  0.7569 -0.4333  0.8858
   62MOL0     C 8289   9.320   8.574   5.165  0.5351  0.6247 -0.3840
   62MOL0     C 8290   9.316   8.499   5.286 -0.0402 -0.1950 -0.3362
   62MOL0     C 8291   9.214   8.517   5.377 -0.3168  0.0576  0.1748
   62MOL0     C 8292   9.131   8.621   5.365  0.5598 -0.8361 -0.5706
   62MOL0     O 8293   9.041   8.647   5.475 -0.4642 -0.5418 -0.6342
   62MOL0     C 8294   8.943   8.754   5.467 -0.5352  0.2224  0.9491
   62MOL0     C 8295   8.894   8.813   5.604 -0.3868 -0.2738 -1.2339
   62MOL0     C 8296   9.015   8.875   5.684 -0.3946  0.1232  0.7640
   62MOL0     C 8297   9.046   9.015   5.647 -0.6214 -0.4230 -0.8787
   62MOL0     C 8298   9.187   9.048   5.696  0.5978  0.7183  0.1846
   62MOL0     C 8299   9.297   9.082   5.726  0.1737 -0.6154  0.3767
   62MOL0     C 8300   9.130   8.697   5.244  1.2232  0.3400  0.1739
   62MOL0     C 8301   9.215   8.670   5.136 -0.3841 -0.2652 -0.4179
   62MOL0     C 8302   9.195   8.752   5.012 -0.0831  0.8183 -0.7856
   62MOL0     H 8303   9.717   8.290   5.184 -1.2979  0.7189  0.7945
   62MOL0     H 8304   9.943   8.336   5.215 -3.5600 -2.3621 -1.0493
   62MOL0     H 8305  10.174   8.418   5.231  0.5577 -0.0657 -0.2787
   62MOL0     H 8306  10.168   8.401   5.056 -1.8009 -0.4904  0.8019
   62MOL0     H 8307  10.331   8.589   5.221  0.6381 -0.4772  0.4190
   62MOL0     H 8308  10.299   8.645   5.056 -0.1377  1.9057  1.3171
   62MOL0     H 8309  10.503   8.555   5.038  0.8005 -1.5679 -0.5238
   62MOL0     H 8310  10.400   8.416   4.985  1.4109 -2.2887  0.5248
   62MOL0     H 8311  10.488   8.443   5.277 -1.3324 -1.9791  1.4127
   62MOL0     H 8312  10.410   8.314   5.197 -1.7782  0.6146 -0.2382
   62MOL0     H 8313  10.690   8.434   5.142 -1.0123  0.1152 -0.0422
   62MOL0     H 8314  10.657   8.285   5.241 -0.4735 -0.0200  0.3739
   62MOL0     H 8315  10.573   8.172   5.055  0.0052 -1.0988 -0.0016
   62MOL0     H 8316  10.603   8.307   4.949 -0.0476  2.2149  2.3747
   62MOL0     H 8317  10.780   8.118   4.929 -1.1885  0.0803 -0.1973
   62MOL0     H 8318  10.838   8.140   5.089  0.3581  0.3994  0.1738
   62MOL0     H 8319  10.862   8.397   4.950  0.7371  0.2529 -1.6174
   62MOL0     H 8320  10.985   8.296   5.018  0.7521 -0.3320 -0.9517
   62MOL0     H 8321  10.750   8.267   4.697  0.6927 -3.1888  1.5334
   62MOL0     H 8322  10.997   8.129   4.431  0.1466 -1.0771  0.3796
   62MOL0     H 8323  10.820   8.165   4.449  0.3792 -0.7238  2.2754
   62MOL0     H 8324  10.936   8.286   4.275  2.3384  0.9753 -0.3321
   62MOL0     H 8325  10.851   8.390   4.398 -1.0726 -1.9089  0.5861
   62MOL0     H 8326  11.100   8.439   4.489 -0.3892  0.3559  0.2597
   62MOL0     H 8327  11.091   8.493   4.322  3.3832  0.7958  2.3935
   62MOL0     H 8328  11.204   8.320   4.241  2.0261  0.7043  0.1849
   62MOL0     H 8329  11.195   8.225   4.392  0.6783 -0.2800 -0.0796
   62MOL0     H 8330  11.246   8.542   4.193  0.2754  0.2107 -1.0513
   62MOL0     H 8331  11.412   8.661   4.028  2.1335 -1.3073 -2.0086
   62MOL0     H 8332  11.745   8.668   3.774 -1.3061  0.2701  2.4644
   62MOL0     H 8333  11.855   8.782   3.615  0.3342 -0.4015  0.6224
   62MOL0     H 8334  12.020   8.935   3.504 -0.1870  0.6690 -1.4224
   62MOL0     H 8335  11.847   8.942   3.445 -2.0965  4.2050 -3.6535
   62MOL0     H 8336  11.964   9.046   3.283 -1.2279  0.1606 -0.0366
   62MOL0     H 8337  11.899   9.182   3.378  0.1270  0.0072  2.1620
   62MOL0     H 8338  12.126   9.221   3.478  3.3139 -0.5467 -0.2147
   62MOL0     H 8339  12.192   9.073   3.431  0.4294  2.1157  0.5533
   62MOL0     H 8340  12.101   9.281   3.241  0.0863  0.6276 -0.7417
   62MOL0     H 8341  12.194   9.131   3.193 -0.5746 -1.2173  0.5632
   62MOL0     H 8342  12.286   9.329   3.411  1.4638  0.8741  0.7582
   62MOL0     H 8343  12.316   9.369   3.246  1.0803 -0.1764  0.8852
   62MOL0     H 8344  12.420   9.113   3.373  3.5695  1.2140  2.1280
   62MOL0     H 8345  12.442   9.154   3.206 -0.6539 -1.1374 -0.2493
   62MOL0     H 8346  12.551   9.333   3.425  0.5828  3.3664 -1.5704
   62MOL0     H 8347  12.567   9.350   3.248  0.1142 -0.7946 -0.3038
   62MOL0     H 8348  12.647   9.116   3.404 -1.3935 -0.3301 -1.7757
   62MOL0     H 8349  12.671   9.125   3.233 -1.0583 -1.1644  0.0303
   62MOL0     H 8350  11.802   9.154   3.844  3.0790  0.0024 -0.8723
   62MOL0     H 8351  11.680   9.022   4.011 -0.9931 -3.3606  1.2141
   62MOL0     H 8352  11.733   8.500   4.269  0.4067 -0.4647  0.2164
   62MOL0     H 8353  11.572   8.402   4.423  1.2683  2.1388  0.5847
   62MOL0     H 8354   9.909   8.717   5.012  0.6183 -1.1307 -0.7872
   62MOL0     H 8355   9.661   8.692   5.036 -0.8681 -1.3850  1.3547
   62MOL0     H 8356   9.396   8.428   5.304  1.4513  1.5843  0.2586
   62MOL0     H 8357   9.222   8.463   5.471  0.4983 -1.1153 -0.5514
   62MOL0     H 8358   8.858   8.719   5.407  1.1953 -1.5340 -0.6314
   62MOL0     H 8359   8.978   8.844   5.416 -1.5842 -0.4333 -1.0425
   62MOL0     H 8360   8.844   8.742   5.671  0.5861  0.1410 -0.0363
   62MOL0     H 8361   8.824   8.896   5.594 -0.6950 -0.2751  0.5355
   62MOL0     H 8362   9.097   8.805   5.665 -0.2756  0.9585 -2.4793
   62MOL0     H 8363   8.987   8.873   5.789 -2.1194 -2.8324  0.3759
   62MOL0     H 8364   9.037   9.029   5.538 -0.1419 -2.2720 -1.1985
   62MOL0     H 8365   8.966   9.079   5.685  0.1398 -0.1248  0.2542
   62MOL0     H 8366   9.394   9.113   5.761  0.4807 -0.5618 -0.4962
   62MOL0     H 8367   9.050   8.769   5.230 -1.7891 -1.9921  3.6847
   62MOL0     H 8368   9.275   8.827   5.004 -0.7158  1.6031  0.0413
   62MOL0     H 8369   9.194   8.693   4.920 -1.7757 -0.7484  0.1639
   62MOL0     H 8370   9.096   8.797   5.010 -1.3572 -1.4763  2.4400
   63MOL0     O 8371   4.097   7.710   9.554 -0.4198  0.7192 -0.3112
   63MOL0     C 8372   4.077   7.722   9.671 -1.4010 -0.1687  0.2573
   63MOL0     O 8373   4.169   7.754   9.766 -0.9606 -0.0648  0.1161
   63MOL0     C 8374   4.299   7.757   9.725  0.4598 -0.0827 -0.0131
   63MOL0     C 8375   4.394   7.853   9.776  0.1223 -0.0614 -0.3914
   63MOL0     C 8376   4.532   7.839   9.758  0.2657  0.3742  0.8870
   63MOL0     C 8377   4.576   7.736   9.675  0.1128 -0.8847  0.3595
   63MOL0     O 8378   4.706   7.724   9.643  0.2857 -0.2071 -0.6033
   63MOL0     C 8379   4.739   7.754   9.509 -0.5356 -0.7737 -0.5261
   63MOL0     C 8380   4.883   7.808   9.517  0.4192  0.3548 -1.0752
   63MOL0     C 8381   4.908   7.932   9.600  0.3797 -0.7117 -0.3103
   63MOL0     C 8382   5.054   7.976   9.584  0.2832 -0.6928  0.3580
   63MOL0     C 8383   5.151   7.871   9.633 -0.2807 -0.0356  0.1378
   63MOL0     C 8384   5.272   7.942   9.702 -0.1105  0.2944  0.4965
   63MOL0     C 8385   5.368   7.996   9.601 -0.8140 -0.6910  1.0601
   63MOL0     C 8386   5.493   8.055   9.673 -0.2183  0.1498 -0.5114
   63MOL0     N 8387   5.562   7.956   9.754  0.2169  0.3623  0.1862
   63MOL0     C 8388   5.619   7.843   9.703 -0.2449 -0.4421 -0.6831
   63MOL0     C 8389   5.692   7.793   9.806 -0.4288 -0.3284 -0.0561
   63MOL0     C 8390   5.778   7.667   9.797 -0.6686 -0.5428  0.6603
   63MOL0     C 8391   5.919   7.694   9.733  1.0394  0.6443 -0.1002
   63MOL0     C 8392   6.003   7.798   9.795  0.5852 -0.2451 -0.7834
   63MOL0     C 8393   6.149   7.788   9.756 -0.3081  0.2934  0.3052
   63MOL0     O 8394   6.221   7.846   9.860  0.8427 -0.5987  0.1909
   63MOL0     C 8395   6.352   7.820   9.883 -0.4363 -0.4301 -0.3305
   63MOL0     C 8396   6.418   7.703   9.845 -0.3632 -0.1752  0.9019
   63MOL0     C 8397   6.549   7.683   9.894  0.4626  0.6564 -1.4818
   63MOL0     C 8398   6.606   7.769   9.990 -0.2993  0.2464  0.3613
   63MOL0     C 8399   6.744   7.736  10.042  0.5612 -0.8424  0.2287
   63MOL0     O 8400   6.816   7.644   9.974  1.0414 -0.7570  0.2102
   63MOL0     C 8401   6.946   7.615  10.016 -0.3016 -0.2161  0.9121
   63MOL0     C 8402   7.002   7.487   9.990  1.0936 -0.2890  0.5621
   63MOL0     C 8403   7.136   7.462   9.999 -0.1552  1.4156  1.3917
   63MOL0     C 8404   7.228   7.551  10.045  0.6755 -0.6930  0.1474
   63MOL0     O 8405   7.363   7.524  10.072  0.5564 -0.0708  0.2855
   63MOL0     C 8406   7.395   7.378  10.086 -1.2403 -0.6015  0.6823
   63MOL0     C 8407   7.552   7.368  10.069  0.9945  0.4545  0.1152
   63MOL0     C 8408   7.618   7.435  10.193 -0.9625  0.0320 -0.4677
   63MOL0     C 8409   7.771   7.434  10.175 -0.0456  0.2184 -0.0814
   63MOL0     C 8410   7.834   7.482  10.304  0.0275  0.1963 -0.7478
   63MOL0     C 8411   7.986   7.457  10.292  1.1362 -0.4736  0.5654
   63MOL0     C 8412   8.059   7.492  10.425  0.4638  0.5481  0.5022
   63MOL0     C 8413   8.209   7.491  10.402 -0.3749  0.0611 -0.3853
   63MOL0    Cl 8414   8.256   7.632  10.288  0.2373  0.1665  0.4462
   63MOL0     C 8415   7.174   7.676  10.080 -0.2505 -0.4901 -0.3402
   63MOL0     C 8416   7.038   7.709  10.064 -0.1783  0.5886 -0.3891
   63MOL0     O 8417   6.783   7.815  10.134  0.4140  0.5410 -0.1249
   63MOL0     C 8418   6.548   7.893  10.008 -0.1623 -0.3720 -0.0502
   63MOL0     C 8419   6.424   7.916   9.958  0.5726 -0.1919 -0.2554
   63MOL0     N 8420   5.691   7.881   9.911 -0.5031 -0.2138 -0.0934
   63MOL0     N 8421   5.622   7.986   9.871 -0.2864  0.3685 -0.3294
   63MOL0     C 8422   4.491   7.633   9.631 -0.6511  0.3209 -0.1914
   63MOL0     C 8423   4.355   7.645   9.653  0.7906 -0.8999  0.4678
   63MOL0     C 8424   3.942   7.698   9.720 -0.2608  0.7168 -0.2914
   63MOL0     C 8425   3.923   7.638   9.851 -0.4411  0.2484  0.0155
   63MOL0     C 8426   3.796   7.604   9.892 -0.4147  0.4841  0.1886
   63MOL0     C 8427   3.681   7.629   9.816 -0.0945 -0.4045  0.2324
   63MOL0     O 8428   3.566   7.576   9.859  0.0361  0.0205  0.3799
   63MOL0     C 8429   3.441   7.606   9.786  0.0286 -0.0098 -0.3726
   63MOL0     C 8430   3.421   7.504   9.667  0.5818  0.8626 -0.6392
   63MOL0     C 8431   3.330   7.382   9.702 -0.4829 -0.0841  1.3681
   63MOL0     C 8432   3.197   7.421   9.760 -0.3369 -0.8417 -0.4719
   63MOL0     C 8433   3.125   7.525   9.680  0.3898 -0.7181  0.1936
   63MOL0     C 8434   3.068   7.612   9.623  0.8432 -0.2230  0.0296
   63MOL0     C 8435   3.701   7.685   9.687 -0.3807 -0.1522 -0.2500
   63MOL0     C 8436   3.827   7.727   9.648 -0.0024 -0.1739  1.3586
   63MOL0     C 8437   3.831   7.807   9.516 -0.0110 -1.0977  0.1819
   63MOL0     H 8438   4.358   7.938   9.833  1.5214 -0.1473  0.6971
   63MOL0     H 8439   4.603   7.918   9.780  0.9087 -0.5730  2.3485
   63MOL0     H 8440   4.731   7.657   9.459 -3.1744 -1.4964  1.0714
   63MOL0     H 8441   4.678   7.831   9.461 -1.0487  1.0704  2.8287
   63MOL0     H 8442   4.920   7.829   9.416 -0.4744 -2.9151 -2.1851
   63MOL0     H 8443   4.957   7.731   9.539  3.1162  2.6554 -1.4803
   63MOL0     H 8444   4.880   7.914   9.704 -0.0892  1.0174 -0.1003
   63MOL0     H 8445   4.842   8.016   9.575 -1.1178 -1.5746  0.6195
   63MOL0     H 8446   5.073   8.010   9.482 -1.1797  2.4086  1.0188
   63MOL0     H 8447   5.070   8.065   9.645  1.1571 -1.3592  1.1423
   63MOL0     H 8448   5.096   7.821   9.713 -0.6739  1.5206  0.8584
   63MOL0     H 8449   5.177   7.795   9.558  0.1591  0.3823 -0.1349
   63MOL0     H 8450   5.243   8.025   9.768  0.3344  0.4168  0.5397
   63MOL0     H 8451   5.324   7.868   9.763 -2.0057 -0.4229  1.3163
   63MOL0     H 8452   5.326   8.072   9.535 -1.8070 -0.0556  2.3592
   63MOL0     H 8453   5.401   7.915   9.536 -1.3659  0.6466 -0.9575
   63MOL0     H 8454   5.558   8.095   9.594  2.3580 -0.6524  1.0667
   63MOL0     H 8455   5.478   8.146   9.733  3.5943 -0.0457  1.0210
   63MOL0     H 8456   5.605   7.799   9.605 -0.2044  0.4802 -1.1161
   63MOL0     H 8457   5.793   7.626   9.898  0.0793 -1.2894  0.2620
   63MOL0     H 8458   5.719   7.588   9.750  0.7573 -0.4360 -1.4422
   63MOL0     H 8459   5.973   7.599   9.730 -2.9884 -1.9290  1.4367
   63MOL0     H 8460   5.907   7.711   9.626  0.9019 -2.8497 -0.7700
   63MOL0     H 8461   5.999   7.800   9.904  1.2085 -0.0441 -0.7585
   63MOL0     H 8462   5.964   7.894   9.760 -0.6541 -0.4555 -0.0403
   63MOL0     H 8463   6.175   7.835   9.661  0.5588 -3.6928 -1.6328
   63MOL0     H 8464   6.181   7.684   9.748  2.2585  1.0564 -0.1729
   63MOL0     H 8465   6.373   7.637   9.773 -0.1373  1.1112 -0.4748
   63MOL0     H 8466   6.606   7.598   9.858 -1.1579 -0.7526 -0.8907
   63MOL0     H 8467   6.928   7.415   9.955  1.4047 -1.5110  2.2866
   63MOL0     H 8468   7.160   7.357   9.987  0.7302  1.6287  1.2394
   63MOL0     H 8469   7.359   7.358  10.188 -0.7249 -2.4529  0.5363
   63MOL0     H 8470   7.360   7.313  10.005  2.4457 -0.9857 -0.7960
   63MOL0     H 8471   7.590   7.267  10.051  0.8354  0.6822 -1.6277
   63MOL0     H 8472   7.573   7.416   9.973  0.7892  0.9603  0.3225
   63MOL0     H 8473   7.583   7.537  10.213  0.1765  0.0154  2.0056
   63MOL0     H 8474   7.602   7.382  10.287 -0.2033 -0.4358 -0.5934
   63MOL0     H 8475   7.814   7.489  10.091  2.0168 -0.5383  0.4333
   63MOL0     H 8476   7.809   7.335  10.152 -0.5258 -0.1165  0.5464
   63MOL0     H 8477   7.795   7.425  10.389  0.1365  0.9198 -0.2047
   63MOL0     H 8478   7.809   7.588  10.315 -2.7984 -0.5056  0.4952
   63MOL0     H 8479   8.021   7.357  10.264  4.5747  0.3516  1.3864
   63MOL0     H 8480   8.010   7.530  10.214 -2.2165 -1.3768 -1.4874
   63MOL0     H 8481   8.048   7.404  10.489  0.4822  0.9078  1.0046
   63MOL0     H 8482   8.013   7.578  10.475 -2.7629 -0.6320 -0.1682
   63MOL0     H 8483   8.251   7.498  10.503  0.4530 -2.9231 -0.4251
   63MOL0     H 8484   8.243   7.396  10.359  1.4663 -0.2701  1.6191
   63MOL0     H 8485   7.240   7.738  10.141 -0.3429  0.7147 -1.4120
   63MOL0     H 8486   7.006   7.810  10.089  0.6736  0.9522 -0.7342
   63MOL0     H 8487   6.604   7.962  10.070 -1.5918 -0.6894  1.6753
   63MOL0     H 8488   6.370   8.005   9.988 -0.9558 -0.5685 -1.7392
   63MOL0     H 8489   4.536   7.550   9.577  1.4225 -0.5354  2.6651
   63MOL0     H 8490   4.286   7.575   9.606  1.3570 -1.9914  1.2125
   63MOL0     H 8491   4.012   7.609   9.907 -0.2823 -1.3675 -1.0018
   63MOL0     H 8492   3.781   7.564   9.992 -2.0832 -0.3063 -0.3478
   63MOL0     H 8493   3.432   7.711   9.757 -0.8167  0.8088  2.5290
   63MOL0     H 8494   3.368   7.601   9.868  0.0521 -1.3665 -0.4115
   63MOL0     H 8495   3.515   7.458   9.635 -0.8364 -2.5102 -0.4608
   63MOL0     H 8496   3.383   7.562   9.582 -0.7575  0.3949 -0.3803
   63MOL0     H 8497   3.384   7.307   9.761  0.9973  0.5538  0.8606
   63MOL0     H 8498   3.302   7.328   9.612  0.3627  2.6193 -0.6626
   63MOL0     H 8499   3.135   7.331   9.767 -0.0200 -1.1716 -1.7043
   63MOL0     H 8500   3.205   7.462   9.861 -3.0228 -1.3012  0.0150
   63MOL0     H 8501   3.008   7.692   9.583 -0.4360 -1.0828  0.1648
   63MOL0     H 8502   3.616   7.693   9.621 -2.1913 -0.9069  1.8749
   63MOL0     H 8503   3.736   7.853   9.487  1.4281  1.1622 -1.2482
   63MOL0     H 8504   3.903   7.887   9.535  0.5209 -1.8273  1.3085
   63MOL0     H 8505   3.870   7.757   9.426 -2.5318 -0.8649 -1.1297
   64MOL0     O 8506   7.722   1.266   0.265 -0.1504 -0.6371  0.5865
   64MOL0     C 8507   7.695   1.269   0.384 -0.0756 -0.0633 -0.7613
   64MOL0     O 8508   7.758   1.201   0.478  0.7255  0.2799  0.0707
   64MOL0     C 8509   7.856   1.113   0.440  0.1458  1.0173  0.3169
   64MOL0     C 8510   7.985   1.160   0.394 -0.4807 -0.8082 -0.4366
   64MOL0     C 8511   8.093   1.070   0.370  0.4052 -0.0915  0.7621
   64MOL0     C 8512   8.073   0.937   0.382  0.7090  0.4018  0.1625
   64MOL0     O 8513   8.166   0.849   0.353 -0.3960 -0.0513 -0.8045
   64MOL0     C 8514   8.216   0.844   0.221  0.1631 -0.3401 -0.9054
   64MOL0     C 8515   8.368   0.879   0.222  0.2626  0.3097  0.7467
   64MOL0     C 8516   8.422   0.870   0.078 -0.4378 -0.0162 -0.1791
   64MOL0     C 8517   8.431   0.718   0.038  0.0878 -0.2636 -0.5727
   64MOL0     C 8518   8.553   0.640   0.075 -0.9808 -0.1031 -0.6187
   64MOL0     C 8519   8.545   0.491   0.043  0.5640  0.2163 -0.0499
   64MOL0     C 8520   8.662   0.405   0.092 -0.1038 -0.6693 -0.4650
   64MOL0     C 8521   8.789   0.421   0.004  0.0724 -0.5228  0.1975
   64MOL0     N 8522   8.905   0.343   0.048 -0.1424  0.2305 -0.0582
   64MOL0     C 8523   8.928   0.208   0.024  0.4908 -0.4937  0.6450
   64MOL0     C 8524   9.055   0.177   0.066  0.5538 -0.0885  0.4971
   64MOL0     C 8525   9.109   0.042   0.049  0.2713  0.1449 -0.4602
   64MOL0     C 8526   9.123   0.018  -0.104  0.3008 -0.3115 -0.5123
   64MOL0     C 8527   9.259  -0.026  -0.147 -0.3177  0.3177  1.0395
   64MOL0     C 8528   9.295  -0.160  -0.090 -0.7446 -0.0716 -0.4602
   64MOL0     O 8529   9.410  -0.211  -0.148 -0.3819  0.1580 -0.6579
   64MOL0     C 8530   9.525  -0.206  -0.075 -0.0545  0.3529 -0.2980
   64MOL0     C 8531   9.621  -0.299  -0.110 -0.4577 -0.8597  0.3237
   64MOL0     C 8532   9.745  -0.292  -0.056 -0.3732  0.2309 -0.0621
   64MOL0     C 8533   9.779  -0.200   0.047  0.2956 -0.9443  0.1624
   64MOL0     C 8534   9.920  -0.194   0.099  0.2911 -0.4421 -0.1964
   64MOL0     O 8535   9.944  -0.102   0.198 -0.3292 -0.3695 -0.2723
   64MOL0     C 8536  10.073  -0.107   0.242 -0.7719 -0.9820  0.3802
   64MOL0     C 8537  10.122  -0.220   0.306 -0.7469 -0.3791 -0.5000
   64MOL0     C 8538  10.259  -0.223   0.341  0.4212 -0.0527  0.0178
   64MOL0     C 8539  10.351  -0.122   0.306  1.2434  0.6000 -0.5855
   64MOL0     O 8540  10.486  -0.142   0.335 -0.1682  0.3704 -0.2623
   64MOL0     C 8541  10.577  -0.033   0.305  0.6107  0.7247  0.1199
   64MOL0     C 8542  10.721  -0.078   0.321  0.0816  0.0268  0.3633
   64MOL0     C 8543  10.764  -0.072   0.471  0.7542  0.3232  0.0290
   64MOL0     C 8544  10.913  -0.099   0.468  0.0872 -0.8017 -1.0287
   64MOL0     C 8545  10.985  -0.065   0.603 -0.1882  0.0198  0.4304
   64MOL0     C 8546  11.137  -0.045   0.586  0.5153 -0.3138 -0.4321
   64MOL0     C 8547  11.199  -0.014   0.727 -0.0505 -0.5367 -0.5695
   64MOL0     C 8548  11.350  -0.026   0.718 -0.4898 -0.4008  0.6200
   64MOL0    Cl 8549  11.437   0.027   0.871 -0.2767  0.0543  0.1544
   64MOL0     C 8550  10.288  -0.009   0.248 -0.9767 -0.6688  0.9907
   64MOL0     C 8551  10.155  -0.001   0.211  0.0432  0.2683  0.7570
   64MOL0     O 8552  10.003  -0.253   0.044 -0.0901  1.0385 -0.8258
   64MOL0     C 8553   9.682  -0.104   0.081  0.3358 -0.4223 -0.2739
   64MOL0     C 8554   9.555  -0.108   0.018 -0.1529 -0.5662  0.1358
   64MOL0     N 8555   9.094   0.289   0.143  0.2731  0.7046 -0.1148
   64MOL0     N 8556   9.010   0.384   0.123  0.2316  0.1763  0.2394
   64MOL0     C 8557   7.944   0.888   0.407 -0.0122  0.3350 -0.3362
   64MOL0     C 8558   7.844   0.974   0.440  0.0138  0.1811 -0.7210
   64MOL0     C 8559   7.579   1.347   0.427 -0.8386  0.6209 -0.0556
   64MOL0     C 8560   7.478   1.271   0.490 -0.1727  0.4748  1.3894
   64MOL0     C 8561   7.359   1.335   0.531 -0.1310  0.0976 -0.0798
   64MOL0     C 8562   7.334   1.466   0.490 -0.0119 -0.9713 -0.7678
   64MOL0     O 8563   7.217   1.535   0.518 -0.4054 -0.1599 -1.0937
   64MOL0     C 8564   7.090   1.475   0.525  0.5523 -0.9617 -0.6893
   64MOL0     C 8565   7.014   1.467   0.388  0.1009 -0.1314 -0.3712
   64MOL0     C 8566   6.951   1.602   0.363 -0.9819 -0.4330 -0.0698
   64MOL0     C 8567   6.874   1.623   0.230  0.2830 -0.1916 -1.4018
   64MOL0     C 8568   6.958   1.642   0.113 -0.1407  0.5125 -0.3608
   64MOL0     C 8569   7.017   1.664   0.011  0.1529  0.2790  0.0532
   64MOL0     C 8570   7.433   1.531   0.419  0.1510 -0.8054  0.2870
   64MOL0     C 8571   7.562   1.475   0.392 -0.5447  0.0885 -0.2959
   64MOL0     C 8572   7.659   1.565   0.315  0.6984 -0.8435 -0.0886
   64MOL0     H 8573   7.995   1.267   0.383 -2.4183 -0.2940  1.8575
   64MOL0     H 8574   8.193   1.097   0.338  0.6787 -1.8938 -0.0409
   64MOL0     H 8575   8.191   0.742   0.191 -1.3102  0.1177 -1.3191
   64MOL0     H 8576   8.163   0.918   0.161  0.8664  1.8284  0.9604
   64MOL0     H 8577   8.417   0.807   0.288 -0.2204  1.2047  2.1219
   64MOL0     H 8578   8.385   0.974   0.272  2.6997 -0.6472  1.9099
   64MOL0     H 8579   8.521   0.914   0.088 -1.2671  1.4122  2.8092
   64MOL0     H 8580   8.367   0.928   0.004 -0.5303 -0.2779 -0.3183
   64MOL0     H 8581   8.343   0.665   0.076 -1.6434  1.9241 -1.3363
   64MOL0     H 8582   8.409   0.703  -0.069 -1.3568  2.6153 -0.7609
   64MOL0     H 8583   8.640   0.683   0.026 -1.9379  1.7986 -0.7339
   64MOL0     H 8584   8.574   0.649   0.182 -2.2996  0.4256 -0.3790
   64MOL0     H 8585   8.454   0.449   0.087  2.3497 -1.5709  2.1825
   64MOL0     H 8586   8.534   0.483  -0.065  0.3845 -1.0495  0.0547
   64MOL0     H 8587   8.625   0.302   0.095 -3.4007  0.3233 -2.0576
   64MOL0     H 8588   8.682   0.437   0.195  1.0962 -0.4256 -0.7587
   64MOL0     H 8589   8.760   0.388  -0.096 -1.6971  0.6633  0.2741
   64MOL0     H 8590   8.821   0.525   0.005 -0.5929 -0.2184 -2.5789
   64MOL0     H 8591   8.871   0.137  -0.035  1.5402 -1.5809  0.8929
   64MOL0     H 8592   9.200   0.032   0.109 -1.3960  0.0023  2.2131
   64MOL0     H 8593   9.036  -0.030   0.089 -0.8879  1.2035 -0.5881
   64MOL0     H 8594   9.050  -0.056  -0.137  0.7420 -1.5234  1.1342
   64MOL0     H 8595   9.098   0.105  -0.166  1.4585  0.8407  0.5949
   64MOL0     H 8596   9.332   0.052  -0.122 -0.7729  1.6105 -1.3999
   64MOL0     H 8597   9.267  -0.039  -0.255 -1.1656  1.4286  0.8197
   64MOL0     H 8598   9.206  -0.214  -0.123 -1.3103 -0.0973  1.0229
   64MOL0     H 8599   9.295  -0.154   0.019  1.3487  0.0658 -0.4429
   64MOL0     H 8600   9.590  -0.371  -0.185  0.4015 -0.0015 -0.8988
   64MOL0     H 8601   9.812  -0.369  -0.093 -0.3641  1.0764 -1.9480
   64MOL0     H 8602  10.049  -0.293   0.339 -0.0546  0.1276  2.5066
   64MOL0     H 8603  10.293  -0.316   0.386 -1.4087 -0.4231  0.7315
   64MOL0     H 8604  10.555  -0.009   0.201  0.7727 -1.4056 -0.4525
   64MOL0     H 8605  10.541   0.043   0.375 -0.6728 -0.4678  0.7960
   64MOL0     H 8606  10.727  -0.182   0.289  0.1486 -0.5671  2.1798
   64MOL0     H 8607  10.790  -0.016   0.264 -0.4233 -0.0240 -0.3190
   64MOL0     H 8608  10.755   0.027   0.516  3.2860  0.1567  1.1097
   64MOL0     H 8609  10.717  -0.151   0.530 -0.0779  0.0351 -0.9951
   64MOL0     H 8610  10.947  -0.036   0.385 -1.5527 -0.0741 -1.1847
   64MOL0     H 8611  10.933  -0.204   0.443 -1.8041 -2.0116  2.0435
   64MOL0     H 8612  10.962  -0.146   0.673 -5.6770  1.1951  0.3894
   64MOL0     H 8613  10.941   0.024   0.649  2.3084  0.9877  1.0944
   64MOL0     H 8614  11.183  -0.126   0.528  1.1653  0.5791 -1.1992
   64MOL0     H 8615  11.158   0.042   0.523 -1.8488 -2.5341 -4.7425
   64MOL0     H 8616  11.168  -0.084   0.805  0.3620  0.7863  0.8240
   64MOL0     H 8617  11.172   0.085   0.764  2.0405 -1.0169  2.6508
   64MOL0     H 8618  11.372  -0.133   0.709  2.7202  0.0179  2.0917
   64MOL0     H 8619  11.397   0.033   0.639 -0.1099 -0.4489  0.8080
   64MOL0     H 8620  10.341   0.085   0.238 -2.0279 -0.3025 -2.9377
   64MOL0     H 8621  10.116   0.078   0.148 -0.3952 -3.1160 -3.7046
   64MOL0     H 8622   9.691  -0.019   0.147  0.3426 -0.9650  0.4414
   64MOL0     H 8623   9.487  -0.030   0.050  0.2808 -0.6602  1.3402
   64MOL0     H 8624   7.940   0.780   0.400  2.8960  0.2080 -1.3127
   64MOL0     H 8625   7.748   0.928   0.462 -0.3514  2.1673  2.5473
   64MOL0     H 8626   7.499   1.167   0.512  0.9163 -0.0366 -1.5852
   64MOL0     H 8627   7.285   1.276   0.585 -0.3310 -0.0104 -0.4652
   64MOL0     H 8628   7.035   1.541   0.592  0.1468 -1.2768 -0.7066
   64MOL0     H 8629   7.088   1.374   0.568  1.5812 -1.7441 -2.3462
   64MOL0     H 8630   6.937   1.389   0.388  0.3293 -0.3774 -1.5597
   64MOL0     H 8631   7.091   1.461   0.311  1.1225  2.2186  0.3819
   64MOL0     H 8632   7.034   1.672   0.349 -1.6886  0.3434 -0.4751
   64MOL0     H 8633   6.882   1.628   0.444 -1.7773  0.4120 -0.9911
   64MOL0     H 8634   6.807   1.537   0.220 -0.2561  0.4414 -4.0314
   64MOL0     H 8635   6.807   1.710   0.236  2.4396  1.4760  1.5483
   64MOL0     H 8636   7.071   1.699  -0.075 -3.7934 -1.5016 -3.5590
   64MOL0     H 8637   7.420   1.636   0.392 -0.3405 -0.1184  2.9134
   64MOL0     H 8638   7.647   1.567   0.207  1.5935  2.3711 -0.2210
   64MOL0     H 8639   7.648   1.667   0.354 -3.0111 -1.5529  1.0959
   64MOL0     H 8640   7.766   1.548   0.331  0.8775 -0.6152 -1.0205
   65MOL0     O 8641   3.289   2.900   8.311  0.3869  0.0400 -0.2088
   65MOL0     C 8642   3.242   2.845   8.209 -1.0330 -0.4316  0.6401
   65MOL0     O 8643   3.312   2.778   8.114  0.7989 -0.2877  0.0644
   65MOL0     C 8644   3.440   2.768   8.130  0.3584  0.3275 -0.3466
   65MOL0     C 8645   3.539   2.868   8.118  0.5169 -0.3802  0.9768
   65MOL0     C 8646   3.674   2.839   8.144  0.0543  0.6995 -0.7295
   65MOL0     C 8647   3.719   2.710   8.177  0.4611  0.6167 -0.8190
   65MOL0     O 8648   3.850   2.677   8.197 -0.2908  0.1770  0.0304
   65MOL0     C 8649   3.948   2.765   8.141 -0.4353  0.2483  0.2520
   65MOL0     C 8650   4.086   2.695   8.171 -0.2906  0.3337  0.6563
   65MOL0     C 8651   4.200   2.770   8.091  0.9557  0.3717  0.0304
   65MOL0     C 8652   4.336   2.694   8.127 -0.8451  0.0548 -0.4313
   65MOL0     C 8653   4.464   2.774   8.086  0.6333 -1.0136  0.4219
   65MOL0     C 8654   4.583   2.688   8.079 -0.1979 -0.0207 -0.1535
   65MOL0     C 8655   4.678   2.725   7.975  0.0604 -0.1637 -0.2605
   65MOL0     C 8656   4.814   2.649   7.990 -0.6056  0.0745 -0.2066
   65MOL0     N 8657   4.918   2.712   7.906  0.2983  0.2149 -0.5678
   65MOL0     C 8658   5.051   2.731   7.945 -0.7455 -0.2151  0.1637
   65MOL0     C 8659   5.113   2.759   7.830  0.3743 -0.5133  0.8677
   65MOL0     C 8660   5.261   2.779   7.806 -0.3003  0.0288 -0.0470
   65MOL0     C 8661   5.347   2.650   7.830  0.1672  0.0777 -1.4807
   65MOL0     C 8662   5.493   2.689   7.852 -0.3317 -0.3402 -0.6123
   65MOL0     C 8663   5.592   2.585   7.785  0.2883 -0.5018 -0.0671
   65MOL0     O 8664   5.725   2.642   7.781  0.2703 -0.0305  0.5010
   65MOL0     C 8665   5.830   2.561   7.763  0.0467  0.2004 -0.1311
   65MOL0     C 8666   5.826   2.440   7.708  0.2409  0.4627  0.0244
   65MOL0     C 8667   5.952   2.364   7.695  0.6040  0.1743 -0.6437
   65MOL0     C 8668   6.072   2.403   7.746 -0.3123 -0.3498  0.0770
   65MOL0     C 8669   6.182   2.308   7.756  0.4861  0.0198 -0.1908
   65MOL0     O 8670   6.301   2.359   7.790  0.1143 -0.4141  0.2637
   65MOL0     C 8671   6.404   2.270   7.804 -0.0173  0.6042  0.3225
   65MOL0     C 8672   6.459   2.255   7.930  0.0796 -0.2971  0.1156
   65MOL0     C 8673   6.591   2.195   7.946  0.0532 -0.7752  0.3464
   65MOL0     C 8674   6.660   2.154   7.832 -0.1136 -1.2914  0.5263
   65MOL0     O 8675   6.787   2.099   7.842 -0.0323  0.2559 -0.3450
   65MOL0     C 8676   6.791   1.958   7.817  0.0812 -0.1188 -0.2669
   65MOL0     C 8677   6.919   1.903   7.878 -0.0530  0.7328 -0.3011
   65MOL0     C 8678   6.939   1.747   7.851 -0.6902  0.2864 -0.1518
   65MOL0     C 8679   7.071   1.691   7.898  0.1680  0.5314 -0.1193
   65MOL0     C 8680   7.075   1.547   7.852  0.8596  0.1668 -0.0291
   65MOL0     C 8681   7.206   1.486   7.898 -0.5740 -0.6186  0.3443
   65MOL0     C 8682   7.324   1.531   7.805  0.2149  0.3213 -0.0131
   65MOL0     C 8683   7.446   1.444   7.798  0.4012  1.2367  0.3111
   65MOL0    Cl 8684   7.506   1.396   7.954 -0.0239  0.1197 -0.0613
   65MOL0     C 8685   6.610   2.173   7.705  1.1001  1.0491  0.3720
   65MOL0     C 8686   6.477   2.233   7.687  0.5534  0.3266  0.6262
   65MOL0     O 8687   6.156   2.191   7.731  0.4682 -0.2600 -0.2147
   65MOL0     C 8688   6.068   2.526   7.817  1.3552 -0.1816  1.2423
   65MOL0     C 8689   5.948   2.610   7.816 -0.3237  0.5404  0.0039
   65MOL0     N 8690   5.026   2.745   7.725  0.6936  0.4733 -0.1087
   65MOL0     N 8691   4.908   2.729   7.774 -0.3698  0.3040  0.4136
   65MOL0     C 8692   3.622   2.616   8.195 -0.0695 -0.1453 -0.0524
   65MOL0     C 8693   3.486   2.642   8.169  0.6474 -0.0174 -0.9493
   65MOL0     C 8694   3.090   2.858   8.196 -0.4553 -0.1356  0.8306
   65MOL0     C 8695   3.037   2.967   8.263 -1.0294  0.4340  0.2180
   65MOL0     C 8696   2.901   2.980   8.273 -0.4392 -0.2997  0.9799
   65MOL0     C 8697   2.812   2.898   8.196 -0.7032  0.2232  0.6911
   65MOL0     O 8698   2.679   2.923   8.163 -0.2762 -0.1523  0.2189
   65MOL0     C 8699   2.670   3.050   8.099 -0.4961 -0.3670 -0.1968
   65MOL0     C 8700   2.550   3.126   8.148 -0.0600  1.2376 -0.3237
   65MOL0     C 8701   2.413   3.068   8.091 -0.5055  0.6067 -0.2540
   65MOL0     C 8702   2.291   3.105   8.183 -0.1874 -0.1099 -0.5775
   65MOL0     C 8703   2.275   3.247   8.183 -0.4378 -0.5141 -0.6288
   65MOL0     C 8704   2.269   3.366   8.178  0.0250 -0.0585  0.4565
   65MOL0     C 8705   2.863   2.786   8.129 -0.3454 -0.1030  1.2692
   65MOL0     C 8706   3.008   2.762   8.133  1.0827 -0.1504  0.1570
   65MOL0     C 8707   3.070   2.648   8.064  0.1388 -0.3674 -0.5718
   65MOL0     H 8708   3.506   2.969   8.097  1.2830  0.1461  2.2274
   65MOL0     H 8709   3.736   2.927   8.133 -1.2280  1.5822 -1.1465
   65MOL0     H 8710   3.939   2.782   8.034  0.8226  1.6678  0.3387
   65MOL0     H 8711   3.946   2.863   8.190 -0.0517  0.5812 -0.3856
   65MOL0     H 8712   4.089   2.593   8.131  0.1165  0.0493  1.3869
   65MOL0     H 8713   4.106   2.701   8.279 -1.9257 -2.8157  1.2689
   65MOL0     H 8714   4.201   2.876   8.115  3.9600  0.5918 -0.5910
   65MOL0     H 8715   4.190   2.764   7.982 -1.7781  2.3445  0.0834
   65MOL0     H 8716   4.343   2.687   8.236  2.3979  0.3882 -0.5348
   65MOL0     H 8717   4.338   2.595   8.080 -2.2684  0.6560 -1.8424
   65MOL0     H 8718   4.441   2.823   7.991  1.8892 -1.4946 -0.1516
   65MOL0     H 8719   4.489   2.861   8.147 -0.3298  1.5689 -2.6122
   65MOL0     H 8720   4.637   2.684   8.175 -0.1856 -0.6875 -0.1888
   65MOL0     H 8721   4.555   2.585   8.054  0.5079  0.0704 -1.3806
   65MOL0     H 8722   4.693   2.833   7.982  0.3847 -0.1114 -1.5290
   65MOL0     H 8723   4.633   2.701   7.877 -0.5045 -1.0097  0.1908
   65MOL0     H 8724   4.862   2.655   8.089  1.6429 -0.1019 -1.2229
   65MOL0     H 8725   4.812   2.547   7.951  1.0550  1.4081 -4.3862
   65MOL0     H 8726   5.100   2.733   8.042  1.6212 -0.2436 -0.9637
   65MOL0     H 8727   5.286   2.797   7.701  2.1324  1.0310  0.6151
   65MOL0     H 8728   5.303   2.862   7.865  0.4362 -1.8837  2.2853
   65MOL0     H 8729   5.314   2.612   7.927 -1.9338  3.1114 -0.8606
   65MOL0     H 8730   5.325   2.575   7.753 -1.1459  0.8291 -1.8772
   65MOL0     H 8731   5.508   2.703   7.959 -0.7409  2.9024 -0.8813
   65MOL0     H 8732   5.507   2.787   7.806  1.9408 -0.2241  0.1920
   65MOL0     H 8733   5.557   2.570   7.682 -0.8874  4.6884 -0.6886
   65MOL0     H 8734   5.596   2.491   7.840 -2.4693 -0.3215  0.5890
   65MOL0     H 8735   5.732   2.405   7.668  1.8999 -1.6678 -2.3733
   65MOL0     H 8736   5.939   2.265   7.651  0.5417 -1.3000  2.4644
   65MOL0     H 8737   6.406   2.277   8.022  0.6825  0.7342  0.2346
   65MOL0     H 8738   6.639   2.165   8.039 -1.4151 -0.9971  1.0709
   65MOL0     H 8739   6.704   1.901   7.850 -0.4687 -0.5473 -2.3161
   65MOL0     H 8740   6.802   1.941   7.709  0.9410 -1.4403  0.0125
   65MOL0     H 8741   6.997   1.954   7.821  1.2457  0.5795  1.2744
   65MOL0     H 8742   6.935   1.937   7.981  0.6816  2.8492 -1.0496
   65MOL0     H 8743   6.861   1.692   7.904  1.2473 -1.6090  0.8877
   65MOL0     H 8744   6.945   1.740   7.742  2.6084  1.4382 -0.1700
   65MOL0     H 8745   7.096   1.705   8.004  1.8072 -0.8221 -0.3036
   65MOL0     H 8746   7.148   1.752   7.849 -1.3456  2.7616  0.0853
   65MOL0     H 8747   7.056   1.528   7.747  1.0967 -3.1317  0.4442
   65MOL0     H 8748   6.995   1.501   7.911  0.1937  0.2780 -0.8207
   65MOL0     H 8749   7.218   1.512   8.004 -0.5317 -0.9287  0.4164
   65MOL0     H 8750   7.194   1.378   7.907 -3.2511 -0.4518 -0.2448
   65MOL0     H 8751   7.365   1.630   7.831  1.7158 -0.0071 -0.9779
   65MOL0     H 8752   7.287   1.531   7.703 -1.8384  0.4393  0.6902
   65MOL0     H 8753   7.405   1.358   7.745  1.1835  0.8345  0.3510
   65MOL0     H 8754   7.520   1.488   7.731  0.8829 -1.9908 -1.4835
   65MOL0     H 8755   6.667   2.139   7.619  0.0344  0.0111  0.0477
   65MOL0     H 8756   6.429   2.260   7.593 -0.7799  0.8395  1.4248
   65MOL0     H 8757   6.155   2.559   7.873  0.6832 -0.2835  2.3942
   65MOL0     H 8758   5.960   2.705   7.867  1.3267  0.8469 -0.8841
   65MOL0     H 8759   3.658   2.522   8.233  2.6581  1.1688  0.8766
   65MOL0     H 8760   3.423   2.554   8.181  3.5557 -2.3333 -1.3139
   65MOL0     H 8761   3.102   3.050   8.289  0.8930 -0.7490 -0.5691
   65MOL0     H 8762   2.854   3.062   8.327 -1.6425  0.3792 -0.9787
   65MOL0     H 8763   2.673   3.044   7.989  2.0279  0.7373 -0.2691
   65MOL0     H 8764   2.755   3.116   8.118 -0.5441 -0.8924  2.0238
   65MOL0     H 8765   2.553   3.225   8.102 -0.1287  0.6472 -1.6533
   65MOL0     H 8766   2.550   3.139   8.256 -2.8333 -0.0001 -0.0747
   65MOL0     H 8767   2.420   2.959   8.082 -1.0052  0.6781 -1.8735
   65MOL0     H 8768   2.396   3.103   7.989 -0.3468  3.9433  0.7550
   65MOL0     H 8769   2.195   3.060   8.156 -0.1295 -0.4904 -0.1525
   65MOL0     H 8770   2.297   3.061   8.282 -0.0459 -1.7159 -1.2743
   65MOL0     H 8771   2.274   3.472   8.168  0.9388 -0.2534 -1.7073
   65MOL0     H 8772   2.791   2.724   8.077 -0.9360  0.1554  1.7639
   65MOL0     H 8773   3.112   2.590   8.146  0.7460  0.9316  0.0641
   65MOL0     H 8774   2.996   2.592   8.005 -1.4057 -0.0232  0.9545
   65MOL0     H 8775   3.151   2.681   7.998  0.4758  3.2905  1.4323
   66MOL0     O 8776   1.752   0.525   2.247  0.5035  0.3243  0.4720
   66MOL0     C 8777   1.634   0.565   2.224  0.3601 -0.1798  0.6774
   66MOL0     O 8778   1.577   0.574   2.097  0.6288 -0.3010  0.6165
   66MOL0     C 8779   1.637   0.514   1.988  0.5585  0.4401 -0.8133
   66MOL0     C 8780   1.696   0.388   1.996 -1.2754  0.4790  0.0853
   66MOL0     C 8781   1.742   0.322   1.875 -0.4216 -0.5052 -0.3433
   66MOL0     C 8782   1.712   0.384   1.752 -0.2128  0.7470  0.4942
   66MOL0     O 8783   1.762   0.313   1.642  0.3314  0.3624  0.4682
   66MOL0     C 8784   1.702   0.345   1.512  0.3910  0.7039  0.1953
   66MOL0     C 8785   1.773   0.454   1.447 -0.1458  0.2431  0.4083
   66MOL0     C 8786   1.699   0.500   1.319  0.4701 -0.3688  0.7371
   66MOL0     C 8787   1.763   0.626   1.260  0.2460  1.1575 -0.0129
   66MOL0     C 8788   1.676   0.693   1.155  0.5888 -0.0288  0.5825
   66MOL0     C 8789   1.592   0.793   1.227 -0.4189  0.0032  0.5028
   66MOL0     C 8790   1.504   0.868   1.139  0.4586 -0.7996  0.6650
   66MOL0     C 8791   1.413   0.783   1.046 -0.0196  0.8014 -0.2975
   66MOL0     N 8792   1.321   0.877   0.973  0.1701 -0.0107  0.1063
   66MOL0     C 8793   1.226   0.837   0.884  0.4125  0.5554 -0.1134
   66MOL0     C 8794   1.149   0.944   0.852  0.7704 -0.0402  0.2667
   66MOL0     C 8795   1.035   0.938   0.756 -0.7805 -0.3860 -1.2316
   66MOL0     C 8796   0.912   0.987   0.834  0.2704 -0.3042  0.7959
   66MOL0     C 8797   0.816   0.878   0.882  0.2031  1.4619  0.4184
   66MOL0     C 8798   0.871   0.790   0.990 -0.0805 -0.6239  0.5941
   66MOL0     O 8799   0.786   0.674   0.981  0.3493 -0.1859 -0.2252
   66MOL0     C 8800   0.781   0.595   1.091  0.3615  0.2064  0.4662
   66MOL0     C 8801   0.884   0.586   1.186  0.2366  0.4960  0.3473
   66MOL0     C 8802   0.881   0.482   1.282 -0.7715  0.1077 -0.2653
   66MOL0     C 8803   0.786   0.382   1.276  0.9204  0.1517 -0.6139
   66MOL0     C 8804   0.790   0.265   1.375 -0.3421 -0.3740  0.7497
   66MOL0     O 8805   0.903   0.246   1.441  0.4093 -0.1022 -0.9985
   66MOL0     C 8806   0.910   0.150   1.543  0.7209  0.6521  0.8317
   66MOL0     C 8807   0.974   0.172   1.670 -0.6845 -0.5936 -0.3430
   66MOL0     C 8808   0.989   0.074   1.766 -0.4208 -0.5083  0.3612
   66MOL0     C 8809   0.942  -0.051   1.739 -0.3350  0.1423 -0.1446
   66MOL0     O 8810   0.954  -0.157   1.827 -0.0538 -0.7910 -0.2835
   66MOL0     C 8811   0.959  -0.137   1.972 -0.2792 -0.3792 -0.1574
   66MOL0     C 8812   1.096  -0.157   2.018 -0.3730 -0.0355 -0.7099
   66MOL0     C 8813   1.116  -0.186   2.169  0.7122  0.0194  0.8392
   66MOL0     C 8814   1.084  -0.073   2.258  0.0308  0.2047  0.5943
   66MOL0     C 8815   1.119  -0.113   2.408 -0.1953  0.6837  1.1131
   66MOL0     C 8816   1.097   0.017   2.498 -0.2227 -0.3859 -0.2378
   66MOL0     C 8817   0.949   0.054   2.504  0.3811 -0.0136 -0.8377
   66MOL0     C 8818   0.918   0.119   2.636  0.0050 -0.0676 -0.1835
   66MOL0    Cl 8819   1.012   0.267   2.653  0.3266  0.4059 -0.0578
   66MOL0     C 8820   0.891  -0.091   1.610 -0.2896 -0.6880 -0.8610
   66MOL0     C 8821   0.878   0.015   1.518 -0.3265 -0.2959  0.2520
   66MOL0     O 8822   0.694   0.190   1.375 -0.0923 -0.1052 -0.3446
   66MOL0     C 8823   0.686   0.396   1.182 -0.1682  0.8704  0.0422
   66MOL0     C 8824   0.681   0.506   1.094 -0.5710  0.0034  0.0154
   66MOL0     N 8825   1.210   1.047   0.921 -1.2641  0.1471  0.5769
   66MOL0     N 8826   1.306   1.013   0.998 -0.8413 -0.1525 -0.0898
   66MOL0     C 8827   1.645   0.503   1.746  0.0494 -0.5007  0.3909
   66MOL0     C 8828   1.595   0.564   1.865  0.4322  0.0190  0.8499
   66MOL0     C 8829   1.569   0.646   2.331  0.2635 -0.1757  0.3924
   66MOL0     C 8830   1.442   0.702   2.287 -0.1593 -0.1337  1.0020
   66MOL0     C 8831   1.384   0.796   2.371  0.1712  0.0500 -0.3678
   66MOL0     C 8832   1.450   0.841   2.491  0.4582  0.7693 -1.1465
   66MOL0     O 8833   1.389   0.948   2.553 -0.3344 -0.9449 -0.1026
   66MOL0     C 8834   1.446   1.004   2.671 -0.0259  0.1957 -0.2896
   66MOL0     C 8835   1.346   1.111   2.720  0.3951 -0.8389 -0.6024
   66MOL0     C 8836   1.201   1.065   2.724 -0.5604 -0.0150  0.9374
   66MOL0     C 8837   1.114   1.172   2.795  0.5057  0.8989 -0.6292
   66MOL0     C 8838   1.119   1.158   2.945  0.1592 -0.2655  0.0822
   66MOL0     C 8839   1.131   1.159   3.068 -0.0051  0.3776  0.1610
   66MOL0     C 8840   1.560   0.773   2.534  0.1030  0.5517  0.1423
   66MOL0     C 8841   1.624   0.677   2.455  0.4758  0.2069 -0.3408
   66MOL0     C 8842   1.752   0.625   2.515 -0.2045 -0.5003  0.3540
   66MOL0     H 8843   1.713   0.341   2.092  1.0404  3.7230  1.4303
   66MOL0     H 8844   1.803   0.233   1.881  1.9218  0.9943 -0.6745
   66MOL0     H 8845   1.699   0.258   1.446 -3.1865  1.1120 -0.4176
   66MOL0     H 8846   1.594   0.362   1.525  0.8974  3.2134  1.7269
   66MOL0     H 8847   1.869   0.413   1.415 -0.3488 -0.2447  0.4137
   66MOL0     H 8848   1.799   0.541   1.507 -0.9116 -0.3254  1.6136
   66MOL0     H 8849   1.599   0.519   1.358  0.1799 -0.0018 -0.1891
   66MOL0     H 8850   1.701   0.420   1.244 -0.9080 -1.3740  1.7045
   66MOL0     H 8851   1.787   0.685   1.348  0.1436 -1.6998  2.0911
   66MOL0     H 8852   1.857   0.595   1.214  0.9018 -0.3268  2.1962
   66MOL0     H 8853   1.737   0.747   1.082  0.4382  0.1026  0.5541
   66MOL0     H 8854   1.615   0.618   1.104  0.4526  1.4934 -1.6477
   66MOL0     H 8855   1.540   0.743   1.310  1.1149 -2.4220  0.1015
   66MOL0     H 8856   1.673   0.853   1.270  0.2697  0.1418 -0.9468
   66MOL0     H 8857   1.560   0.950   1.093  0.5687  0.5977  3.1329
   66MOL0     H 8858   1.430   0.919   1.201  0.4723 -0.1920  0.1938
   66MOL0     H 8859   1.472   0.730   0.969 -2.3220 -2.6193  0.0539
   66MOL0     H 8860   1.364   0.709   1.110  0.1826  0.8134 -0.1271
   66MOL0     H 8861   1.221   0.742   0.832 -0.6349  1.4167 -1.6777
   66MOL0     H 8862   1.047   1.010   0.675 -2.3074  0.3868 -0.7993
   66MOL0     H 8863   1.026   0.835   0.722 -1.4229 -1.5026  2.0120
   66MOL0     H 8864   0.945   1.045   0.921  0.7480 -2.6391  2.2908
   66MOL0     H 8865   0.860   1.063   0.774  0.1468 -0.0411  1.2296
   66MOL0     H 8866   0.793   0.811   0.798  2.1573  2.2342 -0.7936
   66MOL0     H 8867   0.720   0.920   0.915 -1.5322 -2.3521  0.8989
   66MOL0     H 8868   0.865   0.834   1.090  2.3347 -0.7295  0.8409
   66MOL0     H 8869   0.978   0.768   0.980 -0.5577 -2.0298 -3.1938
   66MOL0     H 8870   0.964   0.659   1.191 -0.7056  1.7812 -1.7736
   66MOL0     H 8871   0.967   0.481   1.348  2.1630  0.3383 -3.8038
   66MOL0     H 8872   1.008   0.271   1.699 -2.6491 -0.5267  2.0361
   66MOL0     H 8873   1.037   0.101   1.859 -3.9702 -1.0311  2.5597
   66MOL0     H 8874   0.915  -0.041   2.001  0.1427 -0.4938  0.8914
   66MOL0     H 8875   0.891  -0.208   2.020 -0.2267 -1.3737 -1.4888
   66MOL0     H 8876   1.134  -0.249   1.973 -0.2123 -0.1696 -0.3050
   66MOL0     H 8877   1.162  -0.079   1.979  2.2149 -1.4693  0.5346
   66MOL0     H 8878   1.055  -0.269   2.205  1.4680 -1.3772 -0.9152
   66MOL0     H 8879   1.219  -0.224   2.174  0.1493 -1.3912  3.4692
   66MOL0     H 8880   0.979  -0.044   2.246  1.3542  4.6330 -2.7320
   66MOL0     H 8881   1.131   0.021   2.230  1.4938 -0.6073  0.2144
   66MOL0     H 8882   1.225  -0.132   2.428 -0.1457  0.9032  1.0592
   66MOL0     H 8883   1.063  -0.197   2.449  0.4619  0.6550  1.9917
   66MOL0     H 8884   1.135  -0.017   2.595  0.7038 -2.4506 -1.2544
   66MOL0     H 8885   1.144   0.102   2.448 -1.8503 -0.2416 -1.6155
   66MOL0     H 8886   0.894  -0.041   2.503  1.1921 -0.5175  0.1628
   66MOL0     H 8887   0.905   0.116   2.425 -1.8892  1.8661  1.6972
   66MOL0     H 8888   0.813   0.147   2.644  0.8940  3.0885  2.1183
   66MOL0     H 8889   0.940   0.056   2.723  0.1939 -0.2378 -0.3510
   66MOL0     H 8890   0.866  -0.194   1.587  0.3952 -1.1659  0.4088
   66MOL0     H 8891   0.854  -0.014   1.416 -3.2982  2.2619  0.0810
   66MOL0     H 8892   0.605   0.324   1.184 -0.9181  1.6606  2.7116
   66MOL0     H 8893   0.607   0.507   1.015 -0.5333 -0.4644 -0.0286
   66MOL0     H 8894   1.631   0.550   1.649 -0.9643 -1.2962  0.1319
   66MOL0     H 8895   1.547   0.661   1.864  0.1093 -0.1332 -0.1871
   66MOL0     H 8896   1.399   0.707   2.188  0.3781  1.3389  0.8207
   66MOL0     H 8897   1.288   0.841   2.348 -0.7626 -1.9924 -0.7080
   66MOL0     H 8898   1.548   1.042   2.666  0.5534 -0.5116  3.2717
   66MOL0     H 8899   1.447   0.927   2.748 -1.7643  1.8201  1.4465
   66MOL0     H 8900   1.356   1.194   2.649 -0.4050  0.4757  0.7707
   66MOL0     H 8901   1.373   1.147   2.819 -1.2724  2.3252 -1.1824
   66MOL0     H 8902   1.199   0.968   2.774 -1.7443  0.7689  2.5124
   66MOL0     H 8903   1.161   1.061   2.622 -0.2781 -0.2417  0.8368
   66MOL0     H 8904   1.136   1.276   2.768 -1.8243  1.8721  0.8250
   66MOL0     H 8905   1.011   1.147   2.766 -0.2844  0.6103  2.0814
   66MOL0     H 8906   1.140   1.158   3.174  3.0251  2.8961  0.0597
   66MOL0     H 8907   1.613   0.805   2.624  2.7204 -0.4114 -0.9631
   66MOL0     H 8908   1.838   0.672   2.468  1.8069 -1.0643  3.2510
   66MOL0     H 8909   1.760   0.641   2.623  2.9273  0.1150  0.0959
   66MOL0     H 8910   1.765   0.517   2.510  1.2862 -0.2915 -0.6676
   67MOL0     O 8911   4.980   8.605   3.426  0.5970 -0.0611  0.2395
   67MOL0     C 8912   4.997   8.660   3.536 -1.0812  0.0353  0.8163
   67MOL0     O 8913   5.106   8.641   3.617  0.0455 -0.2084  0.0441
   67MOL0     C 8914   5.220   8.566   3.588  0.5644  0.1859  0.5065
   67MOL0     C 8915   5.299   8.525   3.693  0.9251 -0.0180  0.8103
   67MOL0     C 8916   5.418   8.454   3.676 -0.7108  0.3695 -0.4905
   67MOL0     C 8917   5.457   8.425   3.544 -0.3475  0.3095 -1.0488
   67MOL0     O 8918   5.564   8.351   3.520 -1.0395 -0.2205  0.4268
   67MOL0     C 8919   5.640   8.402   3.400  0.8708  0.2443  0.1282
   67MOL0     C 8920   5.757   8.497   3.432 -0.3823  0.2690  0.1124
   67MOL0     C 8921   5.849   8.434   3.536  0.2323  0.4112 -0.4965
   67MOL0     C 8922   5.955   8.540   3.575  0.5689 -0.1019  0.4225
   67MOL0     C 8923   6.040   8.480   3.688 -0.2961 -0.4795 -0.5558
   67MOL0     C 8924   6.173   8.547   3.700 -0.0669  0.8784 -0.4565
   67MOL0     C 8925   6.245   8.514   3.834 -0.0261 -0.0699 -0.3012
   67MOL0     C 8926   6.346   8.628   3.874 -0.5509 -0.6255 -0.4562
   67MOL0     N 8927   6.462   8.632   3.787 -0.4610  0.2635 -0.8256
   67MOL0     C 8928   6.464   8.675   3.656 -0.5037  0.1843  0.0525
   67MOL0     C 8929   6.588   8.646   3.605 -0.3474  0.4168  0.1522
   67MOL0     C 8930   6.645   8.679   3.470 -0.5394  0.3107 -0.0416
   67MOL0     C 8931   6.626   8.561   3.367  0.1236  0.0754 -0.2487
   67MOL0     C 8932   6.716   8.439   3.401 -0.1939 -0.3031 -0.0674
   67MOL0     C 8933   6.871   8.452   3.385 -0.0181  1.0642 -0.5737
   67MOL0     O 8934   6.923   8.543   3.492 -0.0600  0.6563 -0.0641
   67MOL0     C 8935   7.061   8.575   3.495  0.8652 -1.0306  0.3197
   67MOL0     C 8936   7.093   8.653   3.608 -0.2053 -0.4783 -0.2743
   67MOL0     C 8937   7.228   8.699   3.622 -0.0191  0.0463 -0.2856
   67MOL0     C 8938   7.327   8.681   3.520  0.2449 -0.1192  0.5636
   67MOL0     C 8939   7.459   8.756   3.516 -1.2118  0.3495 -0.7740
   67MOL0     O 8940   7.545   8.734   3.409  0.4168  0.1480  0.1227
   67MOL0     C 8941   7.672   8.781   3.420 -0.5174 -0.2444  0.3820
   67MOL0     C 8942   7.769   8.729   3.513  0.3172 -0.0449 -0.8808
   67MOL0     C 8943   7.894   8.803   3.533  0.0221  1.1438 -0.7208
   67MOL0     C 8944   7.934   8.917   3.468 -0.1217  0.1835  0.4037
   67MOL0     O 8945   8.045   8.987   3.498 -0.2724  0.7674 -0.1486
   67MOL0     C 8946   8.113   9.059   3.396  1.2839  0.3074  0.0132
   67MOL0     C 8947   8.218   8.981   3.320 -0.2605 -0.8112 -0.1768
   67MOL0     C 8948   8.164   8.876   3.223 -0.7196  0.4491 -0.0241
   67MOL0     C 8949   8.108   8.947   3.094  0.1017  0.0906 -0.5204
   67MOL0     C 8950   8.058   8.850   2.995 -0.2454 -0.3448 -0.4995
   67MOL0     C 8951   7.950   8.765   3.047  1.1114  0.4293  0.6112
   67MOL0     C 8952   7.859   8.722   2.927  0.1534  0.4353 -0.4619
   67MOL0     C 8953   7.739   8.637   2.969  0.8547 -0.4916  0.5926
   67MOL0    Cl 8954   7.622   8.715   3.081 -0.1857 -0.2329 -0.1012
   67MOL0     C 8955   7.844   8.955   3.367 -0.6555  0.1033 -0.6613
   67MOL0     C 8956   7.719   8.890   3.350 -0.5226 -0.0939 -0.4003
   67MOL0     O 8957   7.490   8.815   3.621 -0.1874  0.3546 -0.0621
   67MOL0     C 8958   7.284   8.624   3.403 -1.0439  0.0070  0.1119
   67MOL0     C 8959   7.158   8.562   3.397 -0.5277  0.1811  0.3963
   67MOL0     N 8960   6.657   8.583   3.707  1.1112  0.2836 -0.3563
   67MOL0     N 8961   6.584   8.577   3.819  0.2161 -0.0106 -0.4909
   67MOL0     C 8962   5.372   8.457   3.435 -0.8429  0.7368  0.4774
   67MOL0     C 8963   5.253   8.523   3.459 -0.0247 -0.7059 -0.9737
   67MOL0     C 8964   4.876   8.724   3.591 -0.6590 -0.5335 -0.2913
   67MOL0     C 8965   4.754   8.720   3.517  0.2846  0.4461 -1.7752
   67MOL0     C 8966   4.632   8.784   3.565 -0.2115  0.1709  0.3788
   67MOL0     C 8967   4.630   8.841   3.685  0.5559 -0.3241  0.2602
   67MOL0     O 8968   4.514   8.898   3.740  0.3387  0.2615 -0.2773
   67MOL0     C 8969   4.389   8.909   3.664  0.3895  0.1842  0.5410
   67MOL0     C 8970   4.291   8.984   3.747 -0.3388  1.4592 -0.5616
   67MOL0     C 8971   4.297   9.137   3.761  0.0264  0.8794  1.0224
   67MOL0     C 8972   4.273   9.210   3.621 -0.2713  0.4288 -0.6989
   67MOL0     C 8973   4.132   9.207   3.570 -0.1758  0.1597  0.1467
   67MOL0     C 8974   4.012   9.216   3.549  0.2802  0.5953  0.0671
   67MOL0     C 8975   4.738   8.844   3.766 -0.5917 -0.5173 -0.2574
   67MOL0     C 8976   4.864   8.788   3.717  0.0706 -0.4435  0.3357
   67MOL0     C 8977   4.981   8.799   3.810 -0.7520  0.4040 -0.3918
   67MOL0     H 8978   5.291   8.584   3.784 -1.9503  1.1740 -0.0856
   67MOL0     H 8979   5.478   8.429   3.763 -0.7512  3.0694  0.4256
   67MOL0     H 8980   5.682   8.310   3.359  2.0267  0.8389 -0.0781
   67MOL0     H 8981   5.584   8.448   3.318 -0.5669  2.8931  2.4039
   67MOL0     H 8982   5.705   8.589   3.460 -0.1701  1.2698 -2.4709
   67MOL0     H 8983   5.825   8.524   3.351 -1.1988  1.8724 -0.0660
   67MOL0     H 8984   5.903   8.347   3.495  3.9535  3.1633 -2.1193
   67MOL0     H 8985   5.795   8.395   3.622  2.1213 -1.5922 -0.1155
   67MOL0     H 8986   6.019   8.557   3.488 -1.2919 -1.4410 -1.3133
   67MOL0     H 8987   5.900   8.627   3.613  1.1671 -0.3183  1.8825
   67MOL0     H 8988   5.992   8.494   3.785  2.8466 -1.7666  1.3633
   67MOL0     H 8989   6.054   8.373   3.669  0.6673  0.0359 -3.2894
   67MOL0     H 8990   6.240   8.520   3.618 -1.2710  2.2585 -1.9590
   67MOL0     H 8991   6.161   8.655   3.697  2.6787  1.2539 -0.3536
   67MOL0     H 8992   6.290   8.414   3.827  1.2962  0.4087  0.9595
   67MOL0     H 8993   6.173   8.503   3.915 -0.5042  1.6548 -0.4614
   67MOL0     H 8994   6.289   8.721   3.861  1.8497  0.6965 -2.5877
   67MOL0     H 8995   6.379   8.609   3.977  0.5631 -1.0124 -0.8692
   67MOL0     H 8996   6.387   8.720   3.593  0.0510  1.7229  0.4339
   67MOL0     H 8997   6.586   8.760   3.427 -1.5556 -0.7903 -0.7786
   67MOL0     H 8998   6.750   8.705   3.488 -0.3225 -2.0317  3.0633
   67MOL0     H 8999   6.524   8.522   3.355  1.2027 -3.9983  2.0107
   67MOL0     H 9000   6.655   8.587   3.264 -0.2420  1.4684 -0.0190
   67MOL0     H 9001   6.703   8.357   3.329 -0.6769 -1.4239  1.2387
   67MOL0     H 9002   6.704   8.397   3.502  3.8979  1.2412  1.2753
   67MOL0     H 9003   6.884   8.503   3.289 -3.1657  2.6970 -0.2764
   67MOL0     H 9004   6.924   8.357   3.394 -0.3567  1.0194  1.1373
   67MOL0     H 9005   7.018   8.669   3.684 -1.2623 -2.1881 -0.9075
   67MOL0     H 9006   7.251   8.754   3.713 -1.5257  0.5590 -0.1895
   67MOL0     H 9007   7.737   8.645   3.574 -0.3325  1.5314  1.0656
   67MOL0     H 9008   7.966   8.766   3.606 -0.4841 -0.8211 -1.1718
   67MOL0     H 9009   8.043   9.110   3.329 -1.8363  1.1449  3.6001
   67MOL0     H 9010   8.169   9.142   3.440  0.1959  1.0457  0.0377
   67MOL0     H 9011   8.275   9.049   3.256 -0.3691 -2.3673 -2.0145
   67MOL0     H 9012   8.286   8.936   3.394 -1.1348  0.3647  1.4005
   67MOL0     H 9013   8.251   8.814   3.199  0.0525  1.0892  1.0052
   67MOL0     H 9014   8.083   8.823   3.273 -0.9217  1.3421  0.6146
   67MOL0     H 9015   8.172   9.022   3.047  0.1097 -0.4389 -1.3682
   67MOL0     H 9016   8.018   8.995   3.134 -1.0261 -0.9926 -1.6542
   67MOL0     H 9017   8.139   8.786   2.959 -0.0104  0.5747 -1.6503
   67MOL0     H 9018   8.017   8.906   2.911 -1.1855 -0.2655 -0.0044
   67MOL0     H 9019   7.998   8.674   3.085  2.6365 -0.2043 -2.4406
   67MOL0     H 9020   7.891   8.809   3.127  0.8990  1.8108 -0.2741
   67MOL0     H 9021   7.924   8.666   2.858 -0.2479 -2.0889  1.0786
   67MOL0     H 9022   7.819   8.804   2.867  1.7604  1.3797 -0.3217
   67MOL0     H 9023   7.679   8.608   2.882 -1.1217  1.8274  1.0551
   67MOL0     H 9024   7.769   8.538   3.004  1.8077 -0.9297 -1.3444
   67MOL0     H 9025   7.852   9.040   3.300 -0.5158 -0.3443 -1.2181
   67MOL0     H 9026   7.672   8.929   3.261  3.7785  1.2403 -2.3763
   67MOL0     H 9027   7.343   8.613   3.312  0.9480  1.8961  1.0897
   67MOL0     H 9028   7.141   8.507   3.305 -1.9459  0.3888  0.5234
   67MOL0     H 9029   5.391   8.415   3.336 -1.6659 -0.3329  0.7478
   67MOL0     H 9030   5.184   8.549   3.379 -1.6132  0.2157  0.6112
   67MOL0     H 9031   4.753   8.668   3.422  1.0439 -4.6742  0.6824
   67MOL0     H 9032   4.544   8.783   3.502  0.3882 -0.3103 -0.4722
   67MOL0     H 9033   4.343   8.811   3.645 -2.8666  1.2836  2.0605
   67MOL0     H 9034   4.399   8.959   3.567 -0.2750 -1.9357 -0.6940
   67MOL0     H 9035   4.315   8.958   3.851  0.0106 -3.6645 -1.6550
   67MOL0     H 9036   4.185   8.965   3.729 -0.7373  0.3514  2.3193
   67MOL0     H 9037   4.397   9.153   3.803  0.9689 -2.2459  0.3067
   67MOL0     H 9038   4.220   9.173   3.829 -2.4081 -0.1489 -0.9882
   67MOL0     H 9039   4.298   9.316   3.639 -0.9109  0.5598 -0.5661
   67MOL0     H 9040   4.335   9.161   3.546 -1.4429 -0.5029 -1.0832
   67MOL0     H 9041   3.905   9.205   3.546  0.2333  0.5985  1.2231
   67MOL0     H 9042   4.748   8.876   3.870 -2.8887 -0.5201  0.0153
   67MOL0     H 9043   5.065   8.849   3.762 -1.2594  2.3419  0.6321
   67MOL0     H 9044   4.969   8.858   3.902  0.3381 -1.1465  0.8023
   67MOL0     H 9045   5.020   8.704   3.849  3.3685  2.9487  2.5190
   68MOL0     O 9046   5.893   0.932   4.329  0.6313 -0.2883 -0.0484
   68MOL0     C 9047   5.901   0.939   4.451  0.4977  0.6597 -0.6771
   68MOL0     O 9048   6.014   0.973   4.511  0.6209  0.8010 -0.3743
   68MOL0     C 9049   6.130   0.990   4.437  0.7875 -0.6664 -0.1166
   68MOL0     C 9050   6.176   0.892   4.353  0.4641  0.2669 -0.1671
   68MOL0     C 9051   6.289   0.914   4.270  0.2877 -0.1794 -0.1143
   68MOL0     C 9052   6.369   1.026   4.289  0.0515  0.4028 -0.1923
   68MOL0     O 9053   6.486   1.021   4.217  0.0095 -0.6107  0.8261
   68MOL0     C 9054   6.592   1.109   4.260 -0.5215  0.2517 -0.7289
   68MOL0     C 9055   6.712   1.108   4.169 -0.0158  0.5219  0.2070
   68MOL0     C 9056   6.821   1.202   4.224  0.5512  0.4806 -0.3451
   68MOL0     C 9057   6.950   1.192   4.139 -0.6585  0.1242  0.6535
   68MOL0     C 9058   7.050   1.318   4.148 -0.4578 -0.8082 -0.2840
   68MOL0     C 9059   7.125   1.328   4.283 -0.2920  0.6387  0.2407
   68MOL0     C 9060   7.256   1.397   4.274 -0.4428  0.1512 -0.1628
   68MOL0     C 9061   7.360   1.312   4.204  0.1479 -0.4120 -0.5402
   68MOL0     N 9062   7.465   1.400   4.152 -0.2366 -0.5446  0.8188
   68MOL0     C 9063   7.521   1.506   4.218 -0.5929 -0.2935  0.6104
   68MOL0     C 9064   7.633   1.541   4.140  0.1861 -0.6044  0.9356
   68MOL0     C 9065   7.728   1.650   4.187 -0.0776  0.1218 -1.0077
   68MOL0     C 9066   7.733   1.680   4.340 -0.0767 -0.0385 -0.7939
   68MOL0     C 9067   7.800   1.569   4.421  0.0417 -0.4492  0.2067
   68MOL0     C 9068   7.819   1.617   4.564  1.0025  0.0044 -0.1695
   68MOL0     O 9069   7.698   1.640   4.636 -0.5367 -0.6194 -0.2400
   68MOL0     C 9070   7.591   1.555   4.633  0.3432 -0.7151 -0.2537
   68MOL0     C 9071   7.598   1.420   4.624  0.3078  0.4001 -0.4914
   68MOL0     C 9072   7.483   1.343   4.636  0.1041 -0.3017 -0.0255
   68MOL0     C 9073   7.364   1.408   4.656 -0.1675  0.3099  0.0232
   68MOL0     C 9074   7.245   1.330   4.646  0.6280 -0.1561  0.3319
   68MOL0     O 9075   7.133   1.392   4.708 -0.3232  0.4585  0.0542
   68MOL0     C 9076   7.013   1.332   4.696 -0.1695 -0.0227  0.4621
   68MOL0     C 9077   6.987   1.198   4.736  0.8126  1.0282  0.6646
   68MOL0     C 9078   6.861   1.133   4.706 -0.0595  0.4957 -0.4082
   68MOL0     C 9079   6.750   1.210   4.665  0.0718 -0.0325  0.2454
   68MOL0     O 9080   6.634   1.146   4.666  0.4137  0.6745  0.9401
   68MOL0     C 9081   6.527   1.212   4.733  0.4834  0.0260 -0.5758
   68MOL0     C 9082   6.444   1.098   4.784  0.2383  1.0912 -0.4655
   68MOL0     C 9083   6.466   1.066   4.933  1.1055 -0.0050 -0.1110
   68MOL0     C 9084   6.605   1.017   4.974  0.1818  0.1749  0.8056
   68MOL0     C 9085   6.667   0.881   4.907 -0.0794 -0.2853 -0.2357
   68MOL0     C 9086   6.810   0.861   4.957 -0.7500 -0.2427 -0.3944
   68MOL0     C 9087   6.885   0.732   4.911  0.7173 -0.6215 -0.4002
   68MOL0     C 9088   6.902   0.622   5.020  0.1733  0.1380 -0.4995
   68MOL0    Cl 9089   6.750   0.522   5.040 -0.1456 -0.0291  0.6828
   68MOL0     C 9090   6.776   1.340   4.625  0.4211 -0.7033  0.3881
   68MOL0     C 9091   6.907   1.402   4.639 -0.1821 -0.0933 -0.1175
   68MOL0     O 9092   7.238   1.231   4.585 -0.1213  0.7157  0.5716
   68MOL0     C 9093   7.355   1.546   4.663  0.1072 -0.2514 -0.3432
   68MOL0     C 9094   7.468   1.619   4.646  0.5533 -0.0800 -0.1491
   68MOL0     N 9095   7.636   1.467   4.019  0.0486  0.1781 -0.8748
   68MOL0     N 9096   7.534   1.383   4.031  0.2567 -0.0091 -0.3890
   68MOL0     C 9097   6.340   1.121   4.396  0.2546 -0.5172 -0.4337
   68MOL0     C 9098   6.228   1.088   4.476  0.2692  0.3487 -0.3692
   68MOL0     C 9099   5.774   0.917   4.532  0.4687  1.3099 -0.2519
   68MOL0     C 9100   5.794   0.869   4.665 -0.1517  0.3686  1.3386
   68MOL0     C 9101   5.684   0.842   4.739  0.1773 -0.3818  0.2211
   68MOL0     C 9102   5.552   0.853   4.687 -0.1144 -0.8943 -0.7800
   68MOL0     O 9103   5.452   0.820   4.784  0.0397 -0.4800  0.7077
   68MOL0     C 9104   5.315   0.824   4.743  0.1740 -0.6696 -0.2473
   68MOL0     C 9105   5.266   0.704   4.650  0.5908 -0.3752 -0.7773
   68MOL0     C 9106   5.109   0.730   4.625 -0.3318  0.5127  0.8255
   68MOL0     C 9107   5.027   0.602   4.598 -0.7736  0.4227 -0.5303
   68MOL0     C 9108   4.884   0.603   4.624 -0.6119 -1.1601 -0.3681
   68MOL0     C 9109   4.766   0.605   4.649 -0.7304  0.5882  0.5929
   68MOL0     C 9110   5.532   0.899   4.558 -0.6514 -0.2578  0.1246
   68MOL0     C 9111   5.643   0.942   4.477  1.4105  0.2611 -0.1062
   68MOL0     C 9112   5.607   1.019   4.354  0.2966 -0.4787 -0.4007
   68MOL0     H 9113   6.112   0.805   4.343  1.3649 -0.7292  2.0459
   68MOL0     H 9114   6.311   0.838   4.195  0.1715 -1.0103  0.6729
   68MOL0     H 9115   6.565   1.215   4.264  2.5573  1.1291 -0.4703
   68MOL0     H 9116   6.622   1.083   4.362  2.1108  1.0739 -1.1978
   68MOL0     H 9117   6.688   1.147   4.070  2.3660 -0.1897 -0.7190
   68MOL0     H 9118   6.755   1.008   4.156  0.4532  0.3801  2.3824
   68MOL0     H 9119   6.842   1.160   4.323 -3.1954 -2.3396 -0.5078
   68MOL0     H 9120   6.783   1.304   4.235 -1.4831  0.1154 -2.8433
   68MOL0     H 9121   6.998   1.096   4.155 -1.2016 -0.0660  1.1788
   68MOL0     H 9122   6.910   1.197   4.037 -3.5280 -1.6079  1.5492
   68MOL0     H 9123   7.121   1.302   4.067 -2.7570 -0.7982 -2.4280
   68MOL0     H 9124   6.988   1.405   4.127  0.0344 -0.2939  0.3693
   68MOL0     H 9125   7.060   1.383   4.352  0.0283  1.3427 -0.0155
   68MOL0     H 9126   7.149   1.227   4.319 -0.1447  1.0337  1.2936
   68MOL0     H 9127   7.300   1.436   4.366  1.2534  1.8448 -1.6003
   68MOL0     H 9128   7.236   1.495   4.230  1.3515  0.4122 -0.4873
   68MOL0     H 9129   7.407   1.244   4.276 -1.5530 -1.8014 -0.6486
   68MOL0     H 9130   7.324   1.237   4.133  0.7622 -1.9414  0.6785
   68MOL0     H 9131   7.485   1.540   4.315 -3.6688 -0.6380 -0.3092
   68MOL0     H 9132   7.832   1.628   4.159  0.2718 -1.7479  1.4394
   68MOL0     H 9133   7.704   1.743   4.135  0.5332  0.3309 -0.9259
   68MOL0     H 9134   7.779   1.779   4.351  1.7515 -0.7264 -1.7502
   68MOL0     H 9135   7.634   1.683   4.386  1.2700 -0.9862  2.4450
   68MOL0     H 9136   7.898   1.547   4.378 -0.0296  1.1978 -0.9353
   68MOL0     H 9137   7.730   1.486   4.412  0.4755 -0.8392  0.4072
   68MOL0     H 9138   7.874   1.710   4.576  0.3066  0.1965  2.0514
   68MOL0     H 9139   7.883   1.545   4.615  1.1460  0.4255  0.2474
   68MOL0     H 9140   7.693   1.367   4.618 -0.9281 -1.7940 -2.6753
   68MOL0     H 9141   7.494   1.235   4.634  2.6767 -0.2667  2.8505
   68MOL0     H 9142   7.067   1.131   4.767 -1.2490 -1.6230  0.6312
   68MOL0     H 9143   6.847   1.029   4.732  1.7612  1.0481  3.5370
   68MOL0     H 9144   6.569   1.269   4.816  3.3149 -1.4653 -0.8742
   68MOL0     H 9145   6.471   1.273   4.661 -0.8243 -1.0149 -0.4903
   68MOL0     H 9146   6.342   1.137   4.784  0.7373  2.6071  2.0167
   68MOL0     H 9147   6.459   1.010   4.721  2.5250 -0.6034  2.1880
   68MOL0     H 9148   6.439   1.157   4.989 -1.1209  0.6911 -2.1431
   68MOL0     H 9149   6.393   0.993   4.970  1.5506 -0.5149 -0.2405
   68MOL0     H 9150   6.605   1.011   5.084  4.3575 -0.9246  0.8992
   68MOL0     H 9151   6.678   1.093   4.945 -0.2603 -0.1255 -1.2228
   68MOL0     H 9152   6.683   0.898   4.800  2.3021  1.1970  0.2917
   68MOL0     H 9153   6.602   0.796   4.930 -1.6716  1.1251  0.7850
   68MOL0     H 9154   6.877   0.946   4.941 -1.0288  0.9736  3.8442
   68MOL0     H 9155   6.811   0.860   5.066 -0.2146  0.1121 -0.3900
   68MOL0     H 9156   6.983   0.761   4.871  0.0835 -0.4176 -1.8684
   68MOL0     H 9157   6.834   0.682   4.828  0.8874 -0.0330 -0.8686
   68MOL0     H 9158   6.987   0.557   5.000  1.7410  0.7962  3.1080
   68MOL0     H 9159   6.933   0.668   5.115  1.1447 -0.7604 -0.3694
   68MOL0     H 9160   6.697   1.392   4.572  0.2428 -0.9972  0.3613
   68MOL0     H 9161   6.925   1.500   4.596  1.1461 -0.5215 -0.5537
   68MOL0     H 9162   7.259   1.596   4.663  0.4854  0.5025 -0.0242
   68MOL0     H 9163   7.464   1.727   4.644 -2.6457 -0.0490 -3.9101
   68MOL0     H 9164   6.406   1.206   4.407 -1.3502  0.7966 -0.6556
   68MOL0     H 9165   6.204   1.150   4.562  0.9987 -0.6165  0.5639
   68MOL0     H 9166   5.896   0.861   4.703  0.1928  1.4341  0.6863
   68MOL0     H 9167   5.698   0.818   4.844  0.3400 -0.4653  0.1820
   68MOL0     H 9168   5.300   0.913   4.682  0.1527  1.1053  2.1958
   68MOL0     H 9169   5.254   0.835   4.834 -1.6506  2.2443 -1.6795
   68MOL0     H 9170   5.273   0.611   4.708 -1.2354  0.5725  1.1096
   68MOL0     H 9171   5.320   0.704   4.555  2.0542  0.7875  0.0177
   68MOL0     H 9172   5.111   0.800   4.542  3.6118  0.1924  0.4617
   68MOL0     H 9173   5.070   0.769   4.719 -1.5345 -1.1472  1.0674
   68MOL0     H 9174   5.036   0.567   4.494  2.0780 -2.3340  0.4729
   68MOL0     H 9175   5.079   0.520   4.649  1.3228  3.7990  3.2808
   68MOL0     H 9176   4.663   0.609   4.678 -0.5960 -0.9455  1.3996
   68MOL0     H 9177   5.434   0.904   4.510 -0.0346 -2.3306 -1.5018
   68MOL0     H 9178   5.583   0.944   4.278  1.0979 -2.1748  0.9495
   68MOL0     H 9179   5.517   1.081   4.366  0.7800  0.4869 -1.6157
   68MOL0     H 9180   5.687   1.087   4.325 -1.7033  0.5818 -4.1296
   69MOL0     O 9181   2.131  11.005   2.286 -0.1284  0.4490  0.2502
   69MOL0     C 9182   2.126  11.125   2.257 -0.4715 -0.2065  0.0291
   69MOL0     O 9183   2.226  11.196   2.200 -0.1340  0.8941 -0.1966
   69MOL0     C 9184   2.351  11.143   2.176 -0.3102 -0.8814 -0.2136
   69MOL0     C 9185   2.409  11.027   2.220 -0.3308  0.4131 -0.2209
   69MOL0     C 9186   2.537  10.975   2.183  0.0714 -0.3083  0.8462
   69MOL0     C 9187   2.603  11.048   2.088  0.3651  0.3483  0.9146
   69MOL0     O 9188   2.723  10.998   2.049 -0.2734  0.3386 -0.8232
   69MOL0     C 9189   2.741  10.961   1.913 -0.3268  0.0014 -0.8114
   69MOL0     C 9190   2.885  10.907   1.886  1.4305  0.5243  0.0241
   69MOL0     C 9191   2.899  10.766   1.946 -0.9147  0.1184 -0.2570
   69MOL0     C 9192   3.035  10.715   1.908  0.2728  0.6295 -0.2756
   69MOL0     C 9193   3.047  10.565   1.926 -0.0441 -0.5856 -0.3609
   69MOL0     C 9194   3.036  10.523   2.073  0.0918 -0.1181 -0.4893
   69MOL0     C 9195   3.089  10.381   2.091  0.3848 -0.5425 -0.7853
   69MOL0     C 9196   3.020  10.322   2.225  0.1445 -0.2482  0.4106
   69MOL0     N 9197   3.079  10.393   2.339 -0.2959 -0.4756  0.1735
   69MOL0     C 9198   3.217  10.404   2.357  0.1760  0.3339 -0.1707
   69MOL0     C 9199   3.225  10.474   2.471  0.1561 -0.3074 -0.6160
   69MOL0     C 9200   3.358  10.519   2.528 -0.3102  0.6304  0.2095
   69MOL0     C 9201   3.403  10.418   2.633 -0.3519 -0.8624  0.6235
   69MOL0     C 9202   3.457  10.282   2.581 -0.9457 -0.7310  0.3914
   69MOL0     C 9203   3.540  10.210   2.701  0.0646 -0.1757 -0.2337
   69MOL0     O 9204   3.656  10.293   2.718  0.2180 -0.4467  0.1503
   69MOL0     C 9205   3.776  10.237   2.713  0.7960  0.1593  0.8295
   69MOL0     C 9206   3.812  10.101   2.752 -0.7942 -0.8867  0.1848
   69MOL0     C 9207   3.943  10.054   2.732  0.7840  0.1615 -0.5477
   69MOL0     C 9208   4.051  10.139   2.709  0.5119 -0.1455 -0.1532
   69MOL0     C 9209   4.189  10.101   2.697  0.2951 -0.1243 -0.1961
   69MOL0     O 9210   4.276  10.189   2.631  0.6467  0.6040 -0.1799
   69MOL0     C 9211   4.394  10.141   2.572 -0.2854 -0.2938  0.1125
   69MOL0     C 9212   4.404  10.016   2.509  0.4626  0.5081 -0.5234
   69MOL0     C 9213   4.510   9.976   2.426 -0.6927 -0.4543  0.1852
   69MOL0     C 9214   4.601  10.076   2.400 -0.7823 -0.3468 -0.2871
   69MOL0     O 9215   4.698  10.064   2.303 -0.4159 -0.1158 -0.1913
   69MOL0     C 9216   4.816  10.136   2.318 -0.0501  0.0699  0.1229
   69MOL0     C 9217   4.914  10.068   2.219 -0.5492 -0.4373 -0.4095
   69MOL0     C 9218   5.043  10.144   2.236  0.4004  0.6047  1.5333
   69MOL0     C 9219   5.154  10.090   2.142 -0.4885  0.8445  0.8831
   69MOL0     C 9220   5.282  10.178   2.172 -0.8948  0.1677 -0.2349
   69MOL0     C 9221   5.406  10.124   2.098 -0.0111  0.4648 -0.2786
   69MOL0     C 9222   5.533  10.195   2.147  0.0802 -0.5292  0.5624
   69MOL0     C 9223   5.665  10.163   2.075 -0.2058 -0.1047 -0.0418
   69MOL0    Cl 9224   5.791  10.289   2.121 -0.0403 -0.2851 -0.6068
   69MOL0     C 9225   4.596  10.200   2.468 -0.0029 -0.1872  0.3219
   69MOL0     C 9226   4.492  10.234   2.554 -0.0849 -0.9578  0.4028
   69MOL0     O 9227   4.226   9.995   2.754 -0.2245 -0.4433  0.2033
   69MOL0     C 9228   4.012  10.271   2.676  0.8940  1.0832 -0.2641
   69MOL0     C 9229   3.881  10.315   2.673  0.2208 -0.7410 -1.0355
   69MOL0     N 9230   3.102  10.504   2.519 -0.3730 -0.0804  0.9149
   69MOL0     N 9231   3.009  10.460   2.439 -1.3676 -0.7684  0.9085
   69MOL0     C 9232   2.561  11.179   2.054 -0.7321 -0.1932 -0.1698
   69MOL0     C 9233   2.435  11.223   2.089  0.0016 -1.2660  0.8131
   69MOL0     C 9234   2.002  11.196   2.284  0.4090  0.9711  0.4148
   69MOL0     C 9235   1.975  11.315   2.223 -0.2124  0.5681 -0.2736
   69MOL0     C 9236   1.859  11.383   2.251  0.0200  0.0122 -0.2168
   69MOL0     C 9237   1.766  11.336   2.344  0.5324 -0.0916 -0.5733
   69MOL0     O 9238   1.655  11.414   2.371  0.1981 -0.0350 -0.4877
   69MOL0     C 9239   1.698  11.539   2.424  0.2045 -0.7068 -0.7042
   69MOL0     C 9240   1.582  11.605   2.504 -1.0343  0.8547  0.5979
   69MOL0     C 9241   1.451  11.624   2.429  0.2069  0.7038  0.2102
   69MOL0     C 9242   1.319  11.646   2.503 -0.5753  0.0578  0.0838
   69MOL0     C 9243   1.321  11.770   2.591  0.3014  0.0453  0.0780
   69MOL0     C 9244   1.309  11.877   2.652  0.3422 -0.0336 -0.2697
   69MOL0     C 9245   1.797  11.222   2.412 -0.5106 -1.0682 -0.4002
   69MOL0     C 9246   1.910  11.152   2.387 -0.8054 -0.2183  0.5201
   69MOL0     C 9247   1.940  11.041   2.482  0.4665  0.1137  0.4498
   69MOL0     H 9248   2.359  10.972   2.299 -0.5505 -0.3351 -0.8772
   69MOL0     H 9249   2.567  10.881   2.228 -1.3157 -0.6647  1.0520
   69MOL0     H 9250   2.668  10.886   1.880 -0.9887 -2.2226  4.5957
   69MOL0     H 9251   2.722  11.047   1.849  0.3579  0.7813  0.0149
   69MOL0     H 9252   2.957  10.977   1.930  0.4305  1.0210  0.9449
   69MOL0     H 9253   2.894  10.911   1.778  1.1704 -1.6150 -0.1308
   69MOL0     H 9254   2.819  10.702   1.908 -1.7185  0.3687  0.9973
   69MOL0     H 9255   2.895  10.776   2.055 -3.3588  1.2111 -0.3948
   69MOL0     H 9256   3.050  10.732   1.801 -2.6893  1.1434 -0.6908
   69MOL0     H 9257   3.113  10.760   1.971  0.5153 -1.9236  1.3991
   69MOL0     H 9258   2.965  10.521   1.869  0.1138 -1.8370  0.3412
   69MOL0     H 9259   3.133  10.529   1.870 -0.5373 -2.3177 -0.0715
   69MOL0     H 9260   3.097  10.597   2.126  1.3737 -2.1427  1.0131
   69MOL0     H 9261   2.935  10.531   2.112  0.1416  1.7171 -0.6413
   69MOL0     H 9262   3.198  10.372   2.088  0.3353 -1.2833 -0.5826
   69MOL0     H 9263   3.051  10.315   2.013 -0.6563 -0.6240 -0.2263
   69MOL0     H 9264   2.911  10.333   2.220  0.0840 -1.2002 -0.9173
   69MOL0     H 9265   3.036  10.216   2.242 -0.8058 -0.0336  3.0821
   69MOL0     H 9266   3.297  10.385   2.287 -0.3293  0.9710 -0.9416
   69MOL0     H 9267   3.438  10.542   2.456  0.4234 -0.8937  0.5043
   69MOL0     H 9268   3.342  10.613   2.583  0.1981  0.0307  1.4134
   69MOL0     H 9269   3.485  10.462   2.689  0.7956 -1.0088 -0.8619
   69MOL0     H 9270   3.318  10.401   2.699 -0.6056 -0.5459  0.3838
   69MOL0     H 9271   3.518  10.285   2.490 -0.9954  2.6657  0.3438
   69MOL0     H 9272   3.367  10.222   2.564  0.9686 -2.9468 -3.0148
   69MOL0     H 9273   3.566  10.110   2.664  2.0621  0.4073 -0.5717
   69MOL0     H 9274   3.489  10.203   2.797  0.1537  0.4020 -0.1408
   69MOL0     H 9275   3.743  10.027   2.791 -0.2463 -1.4988  0.0199
   69MOL0     H 9276   3.948   9.947   2.748  0.7295  0.4496  1.6111
   69MOL0     H 9277   4.322   9.945   2.519  0.3369  0.7420  0.0972
   69MOL0     H 9278   4.504   9.880   2.377  2.6624  1.0711 -3.8897
   69MOL0     H 9279   4.801  10.239   2.286  0.6204  0.2380  0.3276
   69MOL0     H 9280   4.841  10.133   2.425 -1.9552 -3.3090  0.6313
   69MOL0     H 9281   4.929   9.964   2.250 -2.1816 -0.0619  1.9025
   69MOL0     H 9282   4.874  10.081   2.118 -2.6651  1.0627  0.5330
   69MOL0     H 9283   5.024  10.250   2.216  1.2112  0.4749 -0.1207
   69MOL0     H 9284   5.076  10.135   2.340  1.6102  0.9314  1.2006
   69MOL0     H 9285   5.117  10.101   2.040  0.5427 -1.4236  0.1890
   69MOL0     H 9286   5.182   9.986   2.163 -1.3631  0.4760  0.2806
   69MOL0     H 9287   5.310  10.171   2.278 -0.3339 -1.7524 -0.4839
   69MOL0     H 9288   5.277  10.282   2.139 -2.1238 -0.4036 -2.0183
   69MOL0     H 9289   5.418  10.018   2.124  0.4034  0.1740 -1.5751
   69MOL0     H 9290   5.386  10.143   1.992  0.7123  0.9175 -0.3378
   69MOL0     H 9291   5.556  10.179   2.252  1.6116 -0.9638  0.1886
   69MOL0     H 9292   5.517  10.301   2.126  0.9527 -0.7837 -1.6594
   69MOL0     H 9293   5.694  10.061   2.100  1.8256 -0.3221 -2.8187
   69MOL0     H 9294   5.653  10.159   1.966  1.9475  1.0916 -0.3907
   69MOL0     H 9295   4.667  10.280   2.454  1.1037 -0.6716  2.6667
   69MOL0     H 9296   4.475  10.336   2.589  1.0307  0.9005 -3.8063
   69MOL0     H 9297   4.091  10.344   2.659  1.3219  1.0968  1.5594
   69MOL0     H 9298   3.855  10.417   2.643 -2.0806 -1.8941 -3.3937
   69MOL0     H 9299   2.629  11.244   2.000  0.6276  1.3123  3.0519
   69MOL0     H 9300   2.389  11.320   2.073  0.7062 -0.6771  2.1950
   69MOL0     H 9301   2.044  11.339   2.143 -0.5433 -0.4998 -0.9025
   69MOL0     H 9302   1.823  11.475   2.204  1.9330  0.9815  0.1519
   69MOL0     H 9303   1.720  11.599   2.336  0.5568  3.3111  1.8633
   69MOL0     H 9304   1.782  11.528   2.493 -1.8683  2.3776  2.6988
   69MOL0     H 9305   1.621  11.702   2.537  1.2725  0.4950 -0.8766
   69MOL0     H 9306   1.563  11.533   2.584 -0.8700 -0.9126 -0.8888
   69MOL0     H 9307   1.446  11.525   2.383  0.5377  0.8492 -0.1457
   69MOL0     H 9308   1.477  11.699   2.353  0.0239 -0.5042 -1.0948
   69MOL0     H 9309   1.237  11.641   2.432  0.3555 -0.8962 -0.9501
   69MOL0     H 9310   1.314  11.558   2.569  1.2615 -0.9012 -0.9785
   69MOL0     H 9311   1.315  11.963   2.715  0.4277 -0.3379  0.1490
   69MOL0     H 9312   1.734  11.189   2.495 -0.7299  2.9889  1.2908
   69MOL0     H 9313   1.893  11.052   2.581 -0.5761  1.2306 -0.1499
   69MOL0     H 9314   1.892  10.954   2.436  0.5033  0.6597 -0.6398
   69MOL0     H 9315   2.048  11.027   2.492  0.8996  1.0680 -2.1624
   70MOL0     O 9316   7.507  10.522   2.007 -0.0489  0.2759  0.5930
   70MOL0     C 9317   7.502  10.613   2.086 -0.4912 -0.4894  0.4095
   70MOL0     O 9318   7.610  10.684   2.132 -0.5916 -0.1308  0.6171
   70MOL0     C 9319   7.738  10.637   2.111  0.2900  0.2508 -0.2139
   70MOL0     C 9320   7.784  10.509   2.103  0.0674  0.9390  0.5026
   70MOL0     C 9321   7.916  10.485   2.071  0.1402  0.5650  0.3151
   70MOL0     C 9322   8.011  10.591   2.048 -0.3928 -0.0136  0.3712
   70MOL0     O 9323   8.139  10.575   2.001  0.0304  1.0368  0.1364
   70MOL0     C 9324   8.155  10.491   1.882 -0.2359 -0.5836  0.1663
   70MOL0     C 9325   8.083  10.543   1.758  0.5497  0.0457 -0.3644
   70MOL0     C 9326   8.099  10.444   1.641 -0.4240  0.0698 -0.0517
   70MOL0     C 9327   8.068  10.301   1.667  0.0623  0.4502  0.4929
   70MOL0     C 9328   7.934  10.271   1.724  0.0436  1.0782  0.0029
   70MOL0     C 9329   7.929  10.116   1.766  0.2267 -0.0244 -0.6555
   70MOL0     C 9330   7.781  10.073   1.798  0.1066 -0.0377 -0.2627
   70MOL0     C 9331   7.785   9.931   1.819  0.3827  0.9988 -0.8595
   70MOL0     N 9332   7.645   9.877   1.837 -0.3048  1.0845 -0.2994
   70MOL0     C 9333   7.591   9.790   1.743  1.1073 -0.0322 -0.3430
   70MOL0     C 9334   7.460   9.764   1.789 -0.7681  0.4760 -0.4328
   70MOL0     C 9335   7.352   9.679   1.729 -1.0237 -1.1338  0.5365
   70MOL0     C 9336   7.403   9.568   1.637  0.2728 -0.2592 -0.1681
   70MOL0     C 9337   7.446   9.630   1.500 -0.3206 -0.6020  0.7225
   70MOL0     C 9338   7.523   9.533   1.408 -0.1856  0.2305 -0.3613
   70MOL0     O 9339   7.629   9.461   1.476  0.4391  0.2210 -0.0313
   70MOL0     C 9340   7.743   9.533   1.497  0.4276 -0.2454  0.4977
   70MOL0     C 9341   7.810   9.523   1.626 -0.7173  0.4694 -0.1925
   70MOL0     C 9342   7.915   9.592   1.658 -0.8982 -0.2543  1.3032
   70MOL0     C 9343   7.983   9.667   1.564  0.3465 -1.1727 -0.4305
   70MOL0     C 9344   8.101   9.748   1.597  0.4675 -0.8004 -0.3537
   70MOL0     O 9345   8.187   9.689   1.679  0.2375  0.2109 -0.1590
   70MOL0     C 9346   8.302   9.757   1.717  0.8089 -0.3109 -0.0138
   70MOL0     C 9347   8.397   9.772   1.617  0.0180  0.3488 -0.2763
   70MOL0     C 9348   8.521   9.817   1.651 -0.7970  0.5451 -0.4860
   70MOL0     C 9349   8.548   9.855   1.790 -0.5468  0.0452  0.4755
   70MOL0     O 9350   8.676   9.895   1.809 -0.1813 -0.3163  0.1172
   70MOL0     C 9351   8.710   9.939   1.944 -0.7575  0.3181 -0.0812
   70MOL0     C 9352   8.849   9.999   1.955 -0.0836 -1.3542  0.3483
   70MOL0     C 9353   8.867  10.140   1.893 -0.8445 -0.1013  0.4545
   70MOL0     C 9354   9.007  10.197   1.935 -0.5784  0.4123 -0.5367
   70MOL0     C 9355   9.083  10.286   1.825  0.0444 -0.2248 -0.1638
   70MOL0     C 9356   9.143  10.199   1.718 -0.3532  0.1958  0.1148
   70MOL0     C 9357   9.255  10.283   1.641  0.2939 -0.0121  0.1820
   70MOL0     C 9358   9.287  10.209   1.514 -0.8331  0.5071 -0.8321
   70MOL0    Cl 9359   9.421  10.099   1.578 -0.1299  0.4468  0.1634
   70MOL0     C 9360   8.453   9.834   1.893 -0.7243 -0.2964 -0.5771
   70MOL0     C 9361   8.327   9.783   1.856  0.6358 -0.7043 -0.3062
   70MOL0     O 9362   8.119   9.858   1.539  0.5024  0.3571 -0.9298
   70MOL0     C 9363   7.916   9.685   1.440 -0.1268 -0.3550 -0.6753
   70MOL0     C 9364   7.801   9.618   1.406  0.2588 -0.0859  0.2512
   70MOL0     N 9365   7.444   9.840   1.908  0.1014  0.6480  0.4761
   70MOL0     N 9366   7.558   9.903   1.933 -0.2805 -0.9079  0.2898
   70MOL0     C 9367   7.966  10.722   2.068 -0.3568  0.9161  0.1324
   70MOL0     C 9368   7.829  10.742   2.107 -0.5887  0.0293  0.1807
   70MOL0     C 9369   7.374  10.671   2.144  0.5281 -0.4581 -0.0072
   70MOL0     C 9370   7.380  10.814   2.154 -0.2615  0.0773 -0.0301
   70MOL0     C 9371   7.265  10.886   2.183 -0.1524  0.2896 -0.1646
   70MOL0     C 9372   7.140  10.827   2.212  0.0105  0.6419 -0.8886
   70MOL0     O 9373   7.030  10.911   2.232  0.5261 -0.1438 -0.2874
   70MOL0     C 9374   6.925  10.866   2.324 -0.2633  0.4509  0.8142
   70MOL0     C 9375   6.786  10.868   2.258  0.4166  0.1339 -0.4480
   70MOL0     C 9376   6.678  10.802   2.346  1.0131  0.6927 -0.0526
   70MOL0     C 9377   6.539  10.859   2.294  0.3189  0.4499 -0.1105
   70MOL0     C 9378   6.425  10.782   2.335  0.3982  0.4894 -0.6886
   70MOL0     C 9379   6.330  10.707   2.350  0.4032 -0.8260  0.2397
   70MOL0     C 9380   7.131  10.684   2.199  0.0705  1.1642  1.0069
   70MOL0     C 9381   7.249  10.604   2.168 -0.3799 -0.6900 -0.0616
   70MOL0     C 9382   7.239  10.455   2.156 -0.2648 -0.2238  0.2439
   70MOL0     H 9383   7.713  10.431   2.127  1.1447 -0.5016 -0.8407
   70MOL0     H 9384   7.944  10.380   2.078 -3.3035 -0.3648  2.4398
   70MOL0     H 9385   8.260  10.497   1.854 -0.4561 -2.2239 -1.2205
   70MOL0     H 9386   8.142  10.385   1.905 -0.3147 -0.3719  1.1471
   70MOL0     H 9387   8.130  10.638   1.730 -0.8019  1.0914  0.7905
   70MOL0     H 9388   7.976  10.553   1.779  0.6438  0.1978  0.0470
   70MOL0     H 9389   8.205  10.452   1.612 -0.3223  2.3810  0.7486
   70MOL0     H 9390   8.036  10.474   1.557 -0.1746 -2.4760 -1.2331
   70MOL0     H 9391   8.070  10.243   1.574 -4.8703  0.5954  0.0382
   70MOL0     H 9392   8.139  10.257   1.738  0.2821  0.5370  0.3266
   70MOL0     H 9393   7.903  10.345   1.799 -0.6838 -1.8796  2.8852
   70MOL0     H 9394   7.871  10.287   1.636  2.4815 -1.5316 -2.3988
   70MOL0     H 9395   7.964  10.057   1.681  0.7357 -1.0353  0.2305
   70MOL0     H 9396   8.000  10.093   1.847 -0.3819 -1.7070 -0.5672
   70MOL0     H 9397   7.711  10.104   1.721  1.0841  3.4974  0.0671
   70MOL0     H 9398   7.753  10.128   1.889  1.7477 -1.7719  1.3961
   70MOL0     H 9399   7.829   9.869   1.741 -1.4029  0.3750 -1.4011
   70MOL0     H 9400   7.848   9.904   1.905  2.3306  0.5050 -2.3732
   70MOL0     H 9401   7.646   9.751   1.659  0.5837 -0.1533 -0.6304
   70MOL0     H 9402   7.293   9.639   1.811 -1.8364  2.6918  2.0083
   70MOL0     H 9403   7.291   9.751   1.673  1.2601  0.7353  0.2981
   70MOL0     H 9404   7.480   9.504   1.681  0.4295  1.1633  1.7500
   70MOL0     H 9405   7.317   9.504   1.616  0.4434 -0.3718 -0.5491
   70MOL0     H 9406   7.503   9.723   1.509  0.9483 -1.0727 -1.6464
   70MOL0     H 9407   7.353   9.652   1.446  0.5441  0.5108 -0.3598
   70MOL0     H 9408   7.559   9.591   1.323 -0.5267 -1.4097 -1.6774
   70MOL0     H 9409   7.464   9.454   1.361  0.1599  0.0174 -0.4462
   70MOL0     H 9410   7.767   9.460   1.703  1.7384  0.5421  1.3459
   70MOL0     H 9411   7.958   9.585   1.757  0.6342 -0.0532  0.6900
   70MOL0     H 9412   8.363   9.735   1.521  0.1195 -1.4988  0.3675
   70MOL0     H 9413   8.602   9.829   1.579 -0.5695  1.7625 -0.0451
   70MOL0     H 9414   8.636  10.012   1.978  0.0330  1.0849  0.0372
   70MOL0     H 9415   8.716   9.845   1.999 -0.6306  0.9607  1.0164
   70MOL0     H 9416   8.865  10.021   2.061 -2.7209 -1.9007  0.9332
   70MOL0     H 9417   8.920   9.924   1.919 -0.5628 -0.5946 -2.4009
   70MOL0     H 9418   8.843  10.142   1.786  0.1932  1.9726  0.1924
   70MOL0     H 9419   8.786  10.200   1.937 -0.0110  0.2690  1.5166
   70MOL0     H 9420   9.065  10.106   1.955 -0.3170  1.0508  1.8521
   70MOL0     H 9421   8.998  10.251   2.029  2.4019  1.7923 -0.9305
   70MOL0     H 9422   9.159  10.349   1.872 -0.0876  0.6507 -1.0993
   70MOL0     H 9423   9.008  10.354   1.783 -1.1141 -0.4344  1.4482
   70MOL0     H 9424   9.176  10.103   1.758 -0.2789 -0.3203 -1.1553
   70MOL0     H 9425   9.064  10.172   1.647 -1.4349  1.6524  0.7037
   70MOL0     H 9426   9.347  10.285   1.700  1.2887 -2.2477 -1.1417
   70MOL0     H 9427   9.217  10.381   1.614  1.4309 -0.1366 -2.1369
   70MOL0     H 9428   9.200  10.154   1.478 -0.5904 -0.6051  0.2082
   70MOL0     H 9429   9.335  10.276   1.443  2.7633  0.3230  1.1692
   70MOL0     H 9430   8.471   9.846   2.000 -2.9533 -2.0121  0.0596
   70MOL0     H 9431   8.258   9.751   1.933  0.8971 -2.5643 -0.8036
   70MOL0     H 9432   7.963   9.748   1.365  1.5491 -0.9102 -0.1494
   70MOL0     H 9433   7.765   9.642   1.307  0.2141  2.6173  0.8264
   70MOL0     H 9434   8.031  10.808   2.059  2.2608 -0.7960  1.4401
   70MOL0     H 9435   7.779  10.838   2.104 -0.0155  0.3239 -1.3690
   70MOL0     H 9436   7.476  10.863   2.139  0.6219 -1.5402  0.1778
   70MOL0     H 9437   7.253  10.994   2.173 -0.7992  0.2216 -0.1841
   70MOL0     H 9438   6.925  10.932   2.411  0.0427 -0.4908  1.5319
   70MOL0     H 9439   6.945  10.770   2.372  0.0207  0.7872  1.3781
   70MOL0     H 9440   6.782  10.808   2.167  1.1434  0.6953 -0.8627
   70MOL0     H 9441   6.770  10.970   2.223 -0.9837  0.3026  0.5812
   70MOL0     H 9442   6.689  10.834   2.450  1.3121 -0.4608  0.2827
   70MOL0     H 9443   6.683  10.693   2.341  1.4515  0.5482  2.3273
   70MOL0     H 9444   6.536  10.966   2.318  2.1600 -0.1542  3.5756
   70MOL0     H 9445   6.539  10.845   2.185  0.0625 -2.0633  0.1620
   70MOL0     H 9446   6.248  10.638   2.347 -0.1317 -0.1770 -0.5475
   70MOL0     H 9447   7.035  10.634   2.212 -0.1575 -0.4286 -4.4702
   70MOL0     H 9448   7.285  10.426   2.061  2.6135  4.4718 -0.1122
   70MOL0     H 9449   7.306  10.418   2.234  2.2363  0.7563 -1.3411
   70MOL0     H 9450   7.139  10.414   2.176  0.0282 -1.3823 -0.5701
   71MOL0     O 9451   3.366   8.906   3.733  0.0541  0.4020  0.6140
   71MOL0     C 9452   3.410   9.009   3.779  0.6004  0.6393 -0.0932
   71MOL0     O 9453   3.519   9.011   3.857  0.5185  0.3671 -0.2367
   71MOL0     C 9454   3.612   8.907   3.837  0.2079 -0.0567  0.6016
   71MOL0     C 9455   3.582   8.778   3.890  0.0425  0.0566 -0.4921
   71MOL0     C 9456   3.673   8.675   3.887  0.7988 -0.5717  0.9325
   71MOL0     C 9457   3.798   8.690   3.819  0.0019 -0.4547 -0.0157
   71MOL0     O 9458   3.900   8.594   3.831 -0.0766  0.0556 -0.1205
   71MOL0     C 9459   4.019   8.637   3.898 -0.2437  0.0494 -0.3946
   71MOL0     C 9460   4.137   8.590   3.823  0.1480  0.2125 -0.7161
   71MOL0     C 9461   4.261   8.609   3.908 -1.0599 -0.1555  0.1148
   71MOL0     C 9462   4.389   8.547   3.838  0.4846  0.6169  0.2765
   71MOL0     C 9463   4.495   8.513   3.944 -0.2854  0.0714 -0.3271
   71MOL0     C 9464   4.613   8.452   3.869 -0.7685  1.0021 -0.4475
   71MOL0     C 9465   4.745   8.451   3.954 -0.4172 -0.2953  0.4081
   71MOL0     C 9466   4.853   8.347   3.906  0.5386 -0.4036 -0.0675
   71MOL0     N 9467   4.982   8.347   3.974 -0.7244  0.4073 -0.4194
   71MOL0     C 9468   4.993   8.370   4.109  0.4102 -0.0368 -0.0326
   71MOL0     C 9469   5.123   8.327   4.136 -0.0268 -0.3322  0.3943
   71MOL0     C 9470   5.190   8.327   4.270  0.3768 -0.6811  0.3929
   71MOL0     C 9471   5.332   8.254   4.255  0.5098 -0.2268  0.2703
   71MOL0     C 9472   5.396   8.205   4.387  0.2284 -0.5709  0.1884
   71MOL0     C 9473   5.419   8.314   4.493  0.6218 -0.6740 -0.5511
   71MOL0     O 9474   5.396   8.275   4.624  0.0997  0.8891 -0.8150
   71MOL0     C 9475   5.498   8.228   4.691  0.5069 -0.3658  0.3403
   71MOL0     C 9476   5.474   8.213   4.829  0.6938  0.8408 -0.2024
   71MOL0     C 9477   5.574   8.162   4.917  0.0201 -0.6416 -0.4524
   71MOL0     C 9478   5.705   8.135   4.864  0.5978 -0.4623 -0.7484
   71MOL0     C 9479   5.813   8.088   4.953  0.3299  0.2049 -0.6527
   71MOL0     O 9480   5.940   8.055   4.905 -0.1400  1.1327  0.1882
   71MOL0     C 9481   6.029   7.961   4.960 -0.7089 -0.2858  0.3476
   71MOL0     C 9482   6.156   7.957   4.894 -0.0180 -0.2246 -0.5810
   71MOL0     C 9483   6.264   7.887   4.951  0.0258 -0.9430 -0.2759
   71MOL0     C 9484   6.242   7.814   5.070 -1.0168 -0.8888  0.9637
   71MOL0     O 9485   6.335   7.726   5.119  0.3791  0.2185  0.1491
   71MOL0     C 9486   6.469   7.769   5.136  0.1836 -0.0416  1.1883
   71MOL0     C 9487   6.533   7.674   5.234 -0.0400  0.8378  0.4978
   71MOL0     C 9488   6.684   7.696   5.258 -0.0345 -0.6793  0.7302
   71MOL0     C 9489   6.727   7.628   5.382  0.3535  0.1970  0.8050
   71MOL0     C 9490   6.869   7.660   5.422 -0.0829 -0.2397 -0.0736
   71MOL0     C 9491   6.901   7.585   5.552  0.3774 -0.5851  0.4393
   71MOL0     C 9492   7.057   7.608   5.579  0.4279  0.0645  0.3102
   71MOL0     C 9493   7.118   7.524   5.697  1.0618 -0.7486  0.8073
   71MOL0    Cl 9494   7.125   7.355   5.642 -0.3856  0.0833  0.2972
   71MOL0     C 9495   6.123   7.823   5.132  0.5593 -0.4420 -0.4412
   71MOL0     C 9496   6.013   7.889   5.078 -0.2840  0.2221 -0.3115
   71MOL0     O 9497   5.785   8.075   5.074  0.3860  0.6776  0.2560
   71MOL0     C 9498   5.736   8.162   4.732 -0.6058  0.4917 -0.0609
   71MOL0     C 9499   5.631   8.195   4.641  0.4239  0.1753  0.0725
   71MOL0     N 9500   5.183   8.286   4.027 -0.7709 -0.0699  0.2574
   71MOL0     N 9501   5.110   8.304   3.925  0.7329 -0.0512 -0.3003
   71MOL0     C 9502   3.825   8.818   3.763  0.1900 -0.0095 -0.2537
   71MOL0     C 9503   3.730   8.924   3.768  0.3989 -0.1882  0.5808
   71MOL0     C 9504   3.316   9.124   3.778 -0.3253 -0.1432  0.2955
   71MOL0     C 9505   3.336   9.225   3.878 -0.4776 -0.0856 -0.0200
   71MOL0     C 9506   3.251   9.329   3.881  0.0871 -0.5074 -0.3420
   71MOL0     C 9507   3.145   9.349   3.792  0.4074  0.7191  0.9487
   71MOL0     O 9508   3.063   9.457   3.797 -0.1995 -0.3211  0.0144
   71MOL0     C 9509   2.925   9.435   3.838  0.1604 -0.5524  0.9607
   71MOL0     C 9510   2.842   9.524   3.740  0.0973 -0.3704 -0.0265
   71MOL0     C 9511   2.696   9.502   3.747  0.1299  0.8335 -0.0081
   71MOL0     C 9512   2.632   9.520   3.879 -0.0155 -0.2317  0.7024
   71MOL0     C 9513   2.505   9.447   3.878  0.6998  0.2322 -1.2068
   71MOL0     C 9514   2.405   9.385   3.896 -0.4764  0.0372 -0.8529
   71MOL0     C 9515   3.125   9.248   3.694 -0.4172  0.6412 -0.0319
   71MOL0     C 9516   3.209   9.138   3.684  0.0192  0.3374 -0.1968
   71MOL0     C 9517   3.191   9.054   3.564 -0.5367  0.6067 -0.5049
   71MOL0     H 9518   3.486   8.752   3.933  0.2006 -0.8409 -0.6653
   71MOL0     H 9519   3.646   8.576   3.925  0.0544 -1.0820 -0.8276
   71MOL0     H 9520   4.028   8.742   3.926 -0.1038 -0.0229 -0.1703
   71MOL0     H 9521   4.005   8.572   3.985 -1.8734 -3.2264 -2.8646
   71MOL0     H 9522   4.147   8.652   3.733  0.2110  2.3734  0.7133
   71MOL0     H 9523   4.123   8.483   3.807 -1.0325  0.1507  0.5881
   71MOL0     H 9524   4.236   8.557   4.001 -0.0220 -1.7853 -0.4866
   71MOL0     H 9525   4.287   8.714   3.922  1.8479 -0.3932 -2.5338
   71MOL0     H 9526   4.361   8.450   3.798  0.8359  0.5501  0.1919
   71MOL0     H 9527   4.417   8.609   3.753 -2.5592 -0.5397 -1.7338
   71MOL0     H 9528   4.528   8.601   4.001  1.7459  0.3475 -1.7833
   71MOL0     H 9529   4.449   8.434   4.004  1.7368 -0.2160  0.9566
   71MOL0     H 9530   4.583   8.351   3.841 -3.3619  1.6814 -0.3759
   71MOL0     H 9531   4.622   8.511   3.777  0.2225  1.8150  0.1441
   71MOL0     H 9532   4.726   8.425   4.058 -1.1964 -1.5082 -0.0169
   71MOL0     H 9533   4.795   8.548   3.962  1.0105 -1.1552  4.8705
   71MOL0     H 9534   4.803   8.251   3.914 -0.0931  0.0758  4.0350
   71MOL0     H 9535   4.880   8.365   3.801 -1.7039 -1.3600 -0.8682
   71MOL0     H 9536   4.913   8.388   4.180 -2.1370 -0.4854 -2.6040
   71MOL0     H 9537   5.201   8.430   4.305 -3.7116  0.4764 -1.0776
   71MOL0     H 9538   5.134   8.266   4.341 -2.0821 -0.4357 -1.2112
   71MOL0     H 9539   5.322   8.173   4.182 -0.3819  1.9001 -2.1151
   71MOL0     H 9540   5.394   8.330   4.207  0.3195  0.6117  1.3198
   71MOL0     H 9541   5.494   8.164   4.363  1.2682  0.5884  2.1664
   71MOL0     H 9542   5.329   8.121   4.410  1.6666 -2.6460 -2.5984
   71MOL0     H 9543   5.351   8.399   4.480  2.6894  1.2056  0.3106
   71MOL0     H 9544   5.515   8.362   4.472  0.0122  0.0526 -1.7607
   71MOL0     H 9545   5.371   8.234   4.857  0.3274  0.5663 -1.2801
   71MOL0     H 9546   5.554   8.139   5.021  0.3457  3.0660  0.5440
   71MOL0     H 9547   6.171   8.024   4.811 -0.2881  1.7698  0.8957
   71MOL0     H 9548   6.362   7.891   4.903  0.1618 -1.5314 -0.0513
   71MOL0     H 9549   6.516   7.767   5.037 -2.1368  2.5696 -0.0811
   71MOL0     H 9550   6.470   7.875   5.165 -2.8435  0.1636  0.8357
   71MOL0     H 9551   6.475   7.689   5.326  0.3195 -0.6361  0.9967
   71MOL0     H 9552   6.517   7.568   5.211 -1.8152  1.4470 -1.3663
   71MOL0     H 9553   6.742   7.648   5.179 -2.0762  0.0389 -1.3189
   71MOL0     H 9554   6.703   7.803   5.260 -0.8430 -0.5322  1.2930
   71MOL0     H 9555   6.701   7.522   5.373 -1.1184  0.4369  1.7802
   71MOL0     H 9556   6.658   7.656   5.463 -0.8347  0.7074 -0.3486
   71MOL0     H 9557   6.889   7.767   5.433  4.8356 -1.0045  0.3734
   71MOL0     H 9558   6.934   7.620   5.344  0.4552 -0.6188  0.5611
   71MOL0     H 9559   6.838   7.626   5.632  0.3577  0.5298 -0.1196
   71MOL0     H 9560   6.881   7.478   5.541  0.2390 -0.4409 -0.9379
   71MOL0     H 9561   7.063   7.714   5.607  0.0383 -0.4432  2.4952
   71MOL0     H 9562   7.103   7.581   5.484 -1.2138 -1.0969 -0.2175
   71MOL0     H 9563   7.217   7.563   5.726  0.4795  0.7324  0.8840
   71MOL0     H 9564   7.055   7.530   5.786  1.5950 -1.2137  1.2311
   71MOL0     H 9565   6.100   7.765   5.221  1.3897 -4.5074 -2.6541
   71MOL0     H 9566   5.919   7.893   5.133  0.5533 -0.9061  1.2887
   71MOL0     H 9567   5.832   8.127   4.695 -1.2323 -2.6649  1.0172
   71MOL0     H 9568   5.651   8.195   4.534 -2.9328 -1.6585 -0.7284
   71MOL0     H 9569   3.917   8.826   3.705  0.5258 -0.5809  0.1800
   71MOL0     H 9570   3.747   9.022   3.723 -0.4564  1.4553  3.5492
   71MOL0     H 9571   3.411   9.230   3.956  0.4439 -2.2012 -0.7083
   71MOL0     H 9572   3.276   9.401   3.959  2.6395 -1.4076 -0.2435
   71MOL0     H 9573   2.908   9.445   3.946 -0.6190  0.4738  0.7608
   71MOL0     H 9574   2.908   9.328   3.819  0.7365 -0.5054  0.1481
   71MOL0     H 9575   2.874   9.504   3.638  3.0755 -1.6529  1.0444
   71MOL0     H 9576   2.855   9.630   3.764  0.0400 -0.6647  1.4346
   71MOL0     H 9577   2.673   9.403   3.706  0.2650  1.1058 -0.7358
   71MOL0     H 9578   2.648   9.576   3.684  3.0144  0.3767 -3.0380
   71MOL0     H 9579   2.698   9.483   3.958  1.6915 -0.3173 -0.6904
   71MOL0     H 9580   2.612   9.624   3.903  0.4313  0.0689 -0.1857
   71MOL0     H 9581   2.308   9.348   3.925 -0.6821  0.4480 -1.0108
   71MOL0     H 9582   3.058   9.290   3.621  0.9420  2.9374 -0.0670
   71MOL0     H 9583   3.176   8.952   3.602 -1.4828  0.6031 -0.8548
   71MOL0     H 9584   3.107   9.092   3.504  0.5690  2.2045 -1.0861
   71MOL0     H 9585   3.283   9.048   3.507 -0.1949 -3.7649  0.1203
   72MOL0     O 9586   4.891   3.810   0.312 -0.0382  0.4567 -0.2931
   72MOL0     C 9587   4.932   3.917   0.264 -0.2585  0.2571 -0.5989
   72MOL0     O 9588   4.874   3.986   0.167  0.1895 -0.4280  0.0885
   72MOL0     C 9589   4.769   3.933   0.102 -0.4624 -0.6151  0.6164
   72MOL0     C 9590   4.643   3.948   0.161  0.5091 -0.5174 -0.3447
   72MOL0     C 9591   4.532   3.910   0.082  0.2986 -0.2575 -0.0371
   72MOL0     C 9592   4.548   3.850  -0.042  0.1671 -0.8223 -0.1276
   72MOL0     O 9593   4.436   3.815  -0.122  0.5964  0.1565  0.5603
   72MOL0     C 9594   4.444   3.690  -0.199 -0.2681 -0.1640 -0.3928
   72MOL0     C 9595   4.328   3.587  -0.179 -0.2143 -0.2371  0.5056
   72MOL0     C 9596   4.304   3.558  -0.032  0.1822 -0.6575  0.2132
   72MOL0     C 9597   4.194   3.461  -0.019  1.2261  0.1986  0.6071
   72MOL0     C 9598   4.137   3.450   0.127  0.2412  0.5066 -0.4870
   72MOL0     C 9599   4.229   3.381   0.226 -0.3022  0.4348 -0.3251
   72MOL0     C 9600   4.299   3.257   0.183 -1.0995  0.6666  0.2795
   72MOL0     C 9601   4.386   3.193   0.283 -0.1190  0.5312 -0.6113
   72MOL0     N 9602   4.500   3.279   0.315 -0.1126 -0.3711 -0.6128
   72MOL0     C 9603   4.595   3.309   0.226 -0.1928  0.1659 -0.0751
   72MOL0     C 9604   4.695   3.367   0.297  0.6185 -0.1708  0.2586
   72MOL0     C 9605   4.806   3.452   0.244 -0.6700  0.0799  0.0935
   72MOL0     C 9606   4.951   3.401   0.258 -0.2221  0.3003 -0.4387
   72MOL0     C 9607   4.975   3.360   0.399  0.6716  0.3198  0.6205
   72MOL0     C 9608   5.119   3.335   0.429  0.3523 -0.2748  0.5882
   72MOL0     O 9609   5.198   3.456   0.421  0.3514  0.1873 -0.1774
   72MOL0     C 9610   5.332   3.449   0.439  0.6835  0.2026  0.0018
   72MOL0     C 9611   5.400   3.485   0.556  0.4455 -0.6565 -1.2348
   72MOL0     C 9612   5.537   3.481   0.569 -0.2538  0.4103  0.2387
   72MOL0     C 9613   5.613   3.461   0.455 -0.0343 -0.2028  0.0997
   72MOL0     C 9614   5.757   3.482   0.460 -0.2037  0.7014  0.5815
   72MOL0     O 9615   5.821   3.529   0.348  0.1861  0.2892  0.0216
   72MOL0     C 9616   5.957   3.527   0.355 -0.0938 -0.3385 -0.0138
   72MOL0     C 9617   6.018   3.446   0.256 -0.3270  0.3115  0.0408
   72MOL0     C 9618   6.161   3.457   0.244  0.7448  0.1934 -0.9006
   72MOL0     C 9619   6.236   3.546   0.327  0.0965 -0.8423  0.1497
   72MOL0     O 9620   6.376   3.553   0.312  0.3109 -0.8221 -0.7496
   72MOL0     C 9621   6.429   3.546   0.181  0.0444 -0.3085 -0.4219
   72MOL0     C 9622   6.578   3.566   0.166  0.8968 -0.4367  0.4611
   72MOL0     C 9623   6.659   3.457   0.237  0.4554  0.2811 -0.5664
   72MOL0     C 9624   6.798   3.470   0.173 -0.4090  0.1503  0.1487
   72MOL0     C 9625   6.900   3.384   0.245 -0.6124  0.2944 -0.5342
   72MOL0     C 9626   6.907   3.411   0.393  0.0275  0.0369 -0.5906
   72MOL0     C 9627   7.028   3.334   0.464  0.5008  0.2327  0.0812
   72MOL0     C 9628   7.152   3.421   0.492 -0.9037  0.2516 -0.0126
   72MOL0    Cl 9629   7.289   3.309   0.508 -0.2209  0.0649  0.4513
   72MOL0     C 9630   6.167   3.630   0.413 -0.2653  0.0584 -0.2237
   72MOL0     C 9631   6.030   3.623   0.425  0.2826  0.2523 -0.2720
   72MOL0     O 9632   5.816   3.457   0.565  0.1572  0.8982  0.0494
   72MOL0     C 9633   5.552   3.427   0.327 -0.1949 -0.1266 -0.9117
   72MOL0     C 9634   5.413   3.418   0.327  0.1031 -0.3650  0.4070
   72MOL0     N 9635   4.660   3.357   0.427  0.2967 -0.2748  0.3220
   72MOL0     N 9636   4.548   3.296   0.443  0.1304  0.3043  0.1192
   72MOL0     C 9637   4.678   3.825  -0.088 -0.8229  0.3278  0.4627
   72MOL0     C 9638   4.792   3.858  -0.015  0.1249 -0.3531 -0.6079
   72MOL0     C 9639   5.076   3.968   0.302  1.4315 -0.2577 -0.5606
   72MOL0     C 9640   5.128   4.085   0.237  0.2352  0.6236  0.0093
   72MOL0     C 9641   5.256   4.133   0.245 -0.6738  0.1728 -0.3606
   72MOL0     C 9642   5.340   4.060   0.325 -1.0187  0.3979  0.9677
   72MOL0     O 9643   5.465   4.113   0.350 -0.6694 -0.3159  0.0256
   72MOL0     C 9644   5.572   4.026   0.298  0.4145 -0.3401  0.3753
   72MOL0     C 9645   5.698   4.041   0.380  0.5551  0.0271  1.1197
   72MOL0     C 9646   5.673   3.982   0.526 -0.9407 -1.1920  0.6046
   72MOL0     C 9647   5.675   3.831   0.531 -0.2231  0.0937 -0.3734
   72MOL0     C 9648   5.724   3.800   0.663 -0.6991 -0.7751 -0.0126
   72MOL0     C 9649   5.758   3.765   0.772 -0.1844 -0.5468 -0.6937
   72MOL0     C 9650   5.295   3.947   0.401  0.1768 -0.0090  0.3445
   72MOL0     C 9651   5.167   3.896   0.387  0.0490  0.4656  0.2859
   72MOL0     C 9652   5.132   3.768   0.462 -0.2395 -0.2503  0.2942
   72MOL0     H 9653   4.627   3.988   0.261  0.2641 -1.6597  0.0813
   72MOL0     H 9654   4.431   3.928   0.116  0.3395  1.7479 -0.8185
   72MOL0     H 9655   4.453   3.710  -0.306 -0.4829  1.2039 -0.1757
   72MOL0     H 9656   4.535   3.635  -0.175 -0.0329 -0.0607 -1.0202
   72MOL0     H 9657   4.357   3.498  -0.235  3.1227 -0.4499  2.3262
   72MOL0     H 9658   4.236   3.629  -0.222  1.2716  1.6794 -0.9871
   72MOL0     H 9659   4.271   3.648   0.020  1.8268 -0.3005  0.6840
   72MOL0     H 9660   4.398   3.515   0.004  1.6781  1.5943 -0.7637
   72MOL0     H 9661   4.122   3.489  -0.096 -0.2051 -3.9126  0.2424
   72MOL0     H 9662   4.234   3.364  -0.050  0.3355 -0.4507  1.4523
   72MOL0     H 9663   4.124   3.548   0.175  2.2958 -0.1404  1.5755
   72MOL0     H 9664   4.045   3.391   0.125 -0.6141  1.6249  2.0121
   72MOL0     H 9665   4.301   3.457   0.259 -2.3389  2.3983 -0.1658
   72MOL0     H 9666   4.172   3.361   0.317 -1.3154  0.1706 -1.0100
   72MOL0     H 9667   4.361   3.266   0.094 -0.2182 -2.6885  0.4107
   72MOL0     H 9668   4.217   3.189   0.159 -1.1449  1.5045 -2.1678
   72MOL0     H 9669   4.325   3.173   0.371 -2.1411 -0.0294 -2.0714
   72MOL0     H 9670   4.404   3.091   0.246 -1.7852 -0.3707  0.8788
   72MOL0     H 9671   4.592   3.281   0.121 -0.5066  0.0800 -0.0445
   72MOL0     H 9672   4.800   3.469   0.136  1.2342 -0.4998 -0.1373
   72MOL0     H 9673   4.804   3.552   0.289  1.5375 -0.4891  1.5916
   72MOL0     H 9674   4.964   3.313   0.195 -2.0687 -0.6664  0.4557
   72MOL0     H 9675   5.026   3.475   0.228  1.3574  1.3850  5.1110
   72MOL0     H 9676   4.916   3.273   0.427 -0.2855  0.4974 -0.7615
   72MOL0     H 9677   4.935   3.433   0.470  1.3436 -0.2060  1.5729
   72MOL0     H 9678   5.156   3.263   0.355 -1.3485  0.3127 -0.9373
   72MOL0     H 9679   5.117   3.300   0.533  2.3647 -0.2382  0.6762
   72MOL0     H 9680   5.340   3.510   0.644  1.1602 -1.3628 -0.5311
   72MOL0     H 9681   5.576   3.506   0.667 -1.2598 -1.2195  1.0958
   72MOL0     H 9682   5.960   3.373   0.201 -0.1049  0.8300 -0.9034
   72MOL0     H 9683   6.220   3.379   0.197  0.4948 -0.0354 -0.8384
   72MOL0     H 9684   6.414   3.451   0.128  1.3829 -0.5054 -0.5020
   72MOL0     H 9685   6.376   3.617   0.118 -1.5441 -0.9730  0.1033
   72MOL0     H 9686   6.599   3.574   0.059  0.9104  3.6305  0.5963
   72MOL0     H 9687   6.606   3.661   0.212  0.4156  0.3871 -0.8732
   72MOL0     H 9688   6.647   3.477   0.343  0.7007 -3.1868  0.2414
   72MOL0     H 9689   6.627   3.355   0.215  1.1159  0.4969 -2.8375
   72MOL0     H 9690   6.819   3.577   0.179  3.8723 -0.5003  0.1780
   72MOL0     H 9691   6.789   3.433   0.071 -1.5958  2.7081 -0.7644
   72MOL0     H 9692   7.000   3.413   0.211 -0.7042  1.9465  0.4845
   72MOL0     H 9693   6.881   3.277   0.233  0.8410  0.1745 -2.1950
   72MOL0     H 9694   6.895   3.516   0.421 -3.7230 -0.3959 -0.0448
   72MOL0     H 9695   6.824   3.362   0.445 -0.4265  1.6437  0.2666
   72MOL0     H 9696   7.054   3.245   0.406  1.6834  0.3293  0.4388
   72MOL0     H 9697   6.995   3.288   0.557  0.8599 -3.7577 -1.5787
   72MOL0     H 9698   7.176   3.487   0.409  4.1706  0.1728  1.0500
   72MOL0     H 9699   7.134   3.475   0.586 -1.1117 -0.7490  0.5346
   72MOL0     H 9700   6.227   3.692   0.479 -1.0489 -1.4143  2.0276
   72MOL0     H 9701   5.969   3.677   0.496 -1.1907 -3.0300  1.1966
   72MOL0     H 9702   5.620   3.410   0.244  3.9860  0.8765  1.9958
   72MOL0     H 9703   5.352   3.391   0.242 -2.8063  0.5098  2.0697
   72MOL0     H 9704   4.695   3.788  -0.188  1.2668  2.4871 -0.0802
   72MOL0     H 9705   4.892   3.844  -0.054  1.1423  2.3655  0.6890
   72MOL0     H 9706   5.066   4.130   0.161  1.1347  0.4710 -0.8353
   72MOL0     H 9707   5.296   4.222   0.197  0.2380  0.9750  1.7696
   72MOL0     H 9708   5.601   4.054   0.196 -1.0433 -0.1352 -0.0206
   72MOL0     H 9709   5.543   3.921   0.302  0.6378 -0.4347  4.8985
   72MOL0     H 9710   5.734   4.144   0.382 -0.2154  0.4685 -2.4740
   72MOL0     H 9711   5.769   3.974   0.330 -1.0854  0.6731 -2.3747
   72MOL0     H 9712   5.583   4.021   0.575 -0.0446  1.4010  0.3377
   72MOL0     H 9713   5.755   4.018   0.588 -2.2030 -0.4941  1.9342
   72MOL0     H 9714   5.577   3.784   0.521  1.0788 -2.8546 -0.4307
   72MOL0     H 9715   5.740   3.781   0.459 -1.0356  1.1409 -1.8834
   72MOL0     H 9716   5.781   3.730   0.870 -1.4013 -0.4665 -0.3598
   72MOL0     H 9717   5.371   3.910   0.470  2.9120 -0.2061 -2.5006
   72MOL0     H 9718   5.111   3.691   0.387  0.6801 -0.9031  0.6881
   72MOL0     H 9719   5.214   3.726   0.522  1.2175 -0.5812 -1.8179
   72MOL0     H 9720   5.046   3.791   0.525  1.1865  4.9367  0.7845
   73MOL0     O 9721   0.611   8.030   2.016  0.5703  0.2425  0.7042
   73MOL0     C 9722   0.547   8.134   2.012 -0.5625  0.0676  0.6856
   73MOL0     O 9723   0.602   8.255   2.049 -0.0903 -0.1847  0.4005
   73MOL0     C 9724   0.742   8.263   2.084  0.6459 -0.0896  0.5140
   73MOL0     C 9725   0.793   8.186   2.193  0.5110 -0.2057 -1.1346
   73MOL0     C 9726   0.927   8.181   2.232  0.7077 -1.5023 -0.0746
   73MOL0     C 9727   1.019   8.277   2.180  0.3900  0.6025 -0.8095
   73MOL0     O 9728   1.147   8.274   2.227  0.2087  0.5107 -0.2789
   73MOL0     C 9729   1.166   8.363   2.339  0.0017  0.5834 -0.0423
   73MOL0     C 9730   1.295   8.442   2.315  0.0698 -0.3636 -0.5489
   73MOL0     C 9731   1.420   8.353   2.329  0.3651  0.5059  0.1162
   73MOL0     C 9732   1.550   8.434   2.295  0.2434  0.5339 -1.0554
   73MOL0     C 9733   1.683   8.361   2.346  0.0885 -0.5142 -0.2156
   73MOL0     C 9734   1.809   8.464   2.350  0.0015  0.7719  0.2846
   73MOL0     C 9735   1.944   8.391   2.387 -0.6053 -0.3542 -0.1716
   73MOL0     C 9736   2.064   8.487   2.373 -0.0735 -0.7480 -0.5215
   73MOL0     N 9737   2.194   8.418   2.373  0.1623  0.5116 -0.3546
   73MOL0     C 9738   2.249   8.349   2.480  1.2259  0.3890  0.4959
   73MOL0     C 9739   2.381   8.347   2.464 -0.6135  0.5759 -0.3342
   73MOL0     C 9740   2.478   8.281   2.561  0.1824  0.4093 -0.1520
   73MOL0     C 9741   2.510   8.131   2.517  0.3465 -0.4874 -0.1319
   73MOL0     C 9742   2.552   8.118   2.368 -0.8637  0.7942 -0.5685
   73MOL0     C 9743   2.679   8.190   2.317  0.5266 -0.3826 -1.0194
   73MOL0     O 9744   2.776   8.149   2.421 -0.1718 -0.2586  0.0621
   73MOL0     C 9745   2.893   8.229   2.425  0.6348 -0.1652 -0.6325
   73MOL0     C 9746   2.967   8.270   2.313 -1.7530  0.7979  0.0868
   73MOL0     C 9747   3.086   8.344   2.327  0.8307 -1.1570  0.2962
   73MOL0     C 9748   3.135   8.384   2.451 -0.2121  0.0505 -0.3660
   73MOL0     C 9749   3.272   8.444   2.477  0.2231  0.1180 -0.0747
   73MOL0     O 9750   3.299   8.508   2.594 -0.0786 -0.0964 -0.3657
   73MOL0     C 9751   3.423   8.564   2.610 -0.0184 -0.6132 -0.1000
   73MOL0     C 9752   3.505   8.501   2.718  0.2811  0.1389  0.3502
   73MOL0     C 9753   3.631   8.553   2.741 -0.5050  0.0673 -0.7308
   73MOL0     C 9754   3.677   8.671   2.679  0.3275  0.4344 -0.8124
   73MOL0     O 9755   3.804   8.707   2.705 -0.0451  0.0068  0.2926
   73MOL0     C 9756   3.873   8.809   2.620  0.2279  0.0549  0.2526
   73MOL0     C 9757   4.027   8.786   2.641 -0.3759 -0.5480 -0.6973
   73MOL0     C 9758   4.102   8.861   2.522 -1.1429 -0.2398 -0.6662
   73MOL0     C 9759   4.263   8.833   2.531 -0.6678  0.3567 -0.0381
   73MOL0     C 9760   4.329   8.876   2.402  0.5212  0.0505 -0.2538
   73MOL0     C 9761   4.466   8.950   2.411  0.6046  0.0007  0.0582
   73MOL0     C 9762   4.528   9.009   2.288  0.1902 -0.7044  0.4948
   73MOL0     C 9763   4.586   8.899   2.201  0.3644 -0.0658 -0.3855
   73MOL0    Cl 9764   4.652   8.967   2.050 -0.3253 -0.9639 -0.0239
   73MOL0     C 9765   3.589   8.731   2.581  0.5073 -0.5068 -0.5746
   73MOL0     C 9766   3.462   8.682   2.553 -0.0539  0.0255  0.9168
   73MOL0     O 9767   3.351   8.425   2.387  0.2303 -0.9160  0.1316
   73MOL0     C 9768   3.050   8.357   2.556  0.8744 -0.4591 -0.1403
   73MOL0     C 9769   2.936   8.276   2.548 -0.0183  0.8556  0.5060
   73MOL0     N 9770   2.408   8.420   2.353  0.6110  0.2005  0.1604
   73MOL0     N 9771   2.298   8.458   2.299  0.3467 -0.8725  0.2369
   73MOL0     C 9772   0.968   8.368   2.085 -0.1944  0.8562  0.3841
   73MOL0     C 9773   0.831   8.358   2.031 -0.9979  0.7046 -0.3634
   73MOL0     C 9774   0.404   8.128   1.968 -0.4676 -0.1926 -0.7808
   73MOL0     C 9775   0.332   8.244   1.955 -0.1237 -0.2543  0.2739
   73MOL0     C 9776   0.197   8.251   1.932  1.0912  0.5255  0.6617
   73MOL0     C 9777   0.118   8.138   1.918 -0.2733 -0.3080 -0.6749
   73MOL0     O 9778  -0.014   8.122   1.887 -1.1403  0.1268 -0.0873
   73MOL0     C 9779  -0.104   8.229   1.883 -0.0015 -0.0644 -0.3702
   73MOL0     C 9780  -0.234   8.184   1.952 -0.6876  0.0487  0.0474
   73MOL0     C 9781  -0.317   8.300   1.949 -0.3774 -0.2955  0.1357
   73MOL0     C 9782  -0.458   8.265   1.886 -0.4870 -0.3949  0.3506
   73MOL0     C 9783  -0.531   8.211   1.998  0.7310 -0.2277 -0.2258
   73MOL0     C 9784  -0.595   8.167   2.095  0.0192 -0.4880  0.9498
   73MOL0     C 9785   0.187   8.020   1.937 -0.0595 -0.4805 -0.2318
   73MOL0     C 9786   0.325   8.009   1.956  0.4153 -0.8227 -0.5858
   73MOL0     C 9787   0.376   7.870   1.985  0.0337  0.5678  0.4246
   73MOL0     H 9788   0.729   8.113   2.241 -1.6343  0.7121 -2.4247
   73MOL0     H 9789   0.959   8.094   2.289  1.6226  0.1316  2.0445
   73MOL0     H 9790   1.084   8.435   2.346 -2.9268 -2.3942 -1.0464
   73MOL0     H 9791   1.163   8.307   2.433 -1.5045 -0.7311 -0.8259
   73MOL0     H 9792   1.310   8.518   2.393  1.3405 -1.4683  0.3255
   73MOL0     H 9793   1.290   8.487   2.216 -0.2878  1.3711  0.2118
   73MOL0     H 9794   1.406   8.269   2.260  1.9043  0.1036  0.2637
   73MOL0     H 9795   1.427   8.317   2.432  0.5953 -1.4013 -0.5247
   73MOL0     H 9796   1.563   8.463   2.190 -0.2586  2.2259 -0.6814
   73MOL0     H 9797   1.536   8.532   2.342 -0.9779  0.3577 -1.0166
   73MOL0     H 9798   1.656   8.323   2.444 -3.5694  2.9274  0.3537
   73MOL0     H 9799   1.709   8.277   2.282 -1.1177  0.3672 -1.9574
   73MOL0     H 9800   1.811   8.510   2.251  2.7082  0.6130  0.1893
   73MOL0     H 9801   1.786   8.540   2.425  0.5998  0.1325  1.1470
   73MOL0     H 9802   1.960   8.306   2.321  3.1350 -0.5447  0.7455
   73MOL0     H 9803   1.938   8.357   2.491 -2.2373 -0.1888 -0.1961
   73MOL0     H 9804   2.056   8.541   2.279 -1.2428  0.2758  0.1269
   73MOL0     H 9805   2.064   8.556   2.458  0.8771 -2.0453  0.5747
   73MOL0     H 9806   2.187   8.319   2.564  1.3290  1.4401  0.9691
   73MOL0     H 9807   2.566   8.347   2.561  0.0694  0.6274 -2.6008
   73MOL0     H 9808   2.436   8.294   2.661 -0.5880 -1.1670 -0.2394
   73MOL0     H 9809   2.591   8.102   2.583  1.6458  2.6742 -0.1481
   73MOL0     H 9810   2.424   8.065   2.530 -1.5021  1.8388  0.1893
   73MOL0     H 9811   2.482   8.159   2.294  1.1380  0.7627 -2.5992
   73MOL0     H 9812   2.553   8.013   2.338 -1.4272  0.8959 -0.9826
   73MOL0     H 9813   2.665   8.299   2.322 -1.9488 -0.6695 -0.2851
   73MOL0     H 9814   2.715   8.172   2.215  2.1284 -0.2839 -0.5082
   73MOL0     H 9815   2.948   8.243   2.209 -1.5974  0.8586  0.0428
   73MOL0     H 9816   3.149   8.366   2.241  0.3108  2.8224  0.7434
   73MOL0     H 9817   3.468   8.411   2.766  1.6331 -0.6062  0.0349
   73MOL0     H 9818   3.696   8.494   2.804 -1.3221  2.8745  3.1510
   73MOL0     H 9819   3.854   8.781   2.516  0.7781 -0.0062  0.1659
   73MOL0     H 9820   3.840   8.913   2.631 -0.0374  0.2617 -1.9970
   73MOL0     H 9821   4.058   8.803   2.745  1.9011 -1.2626 -1.2079
   73MOL0     H 9822   4.053   8.681   2.621 -0.6190 -0.8627  0.5359
   73MOL0     H 9823   4.072   8.815   2.427  0.7472 -0.2805 -1.2830
   73MOL0     H 9824   4.089   8.970   2.526  0.5548 -0.0084 -0.6498
   73MOL0     H 9825   4.270   8.724   2.543 -0.9824  0.4140  0.7324
   73MOL0     H 9826   4.317   8.863   2.621  1.9091 -3.3830 -0.0855
   73MOL0     H 9827   4.256   8.944   2.356 -0.3779  0.7881  2.1354
   73MOL0     H 9828   4.338   8.787   2.339 -2.0203 -1.8477  1.8388
   73MOL0     H 9829   4.454   9.032   2.484  1.8481 -1.1149  1.5788
   73MOL0     H 9830   4.535   8.875   2.451 -1.9932 -1.4581  2.1532
   73MOL0     H 9831   4.608   9.074   2.325  1.4766 -1.3739 -0.9920
   73MOL0     H 9832   4.456   9.072   2.235  0.8255  1.4546  2.0478
   73MOL0     H 9833   4.663   8.840   2.251  1.7058  0.3800 -1.8529
   73MOL0     H 9834   4.508   8.829   2.169  2.3812 -2.7304  0.1371
   73MOL0     H 9835   3.620   8.828   2.544  0.6730  0.4139  1.7846
   73MOL0     H 9836   3.405   8.727   2.473  0.6432  0.3970  0.6215
   73MOL0     H 9837   3.066   8.391   2.658  0.5004 -2.2481  0.5450
   73MOL0     H 9838   2.864   8.243   2.622 -1.9032 -0.7296 -1.8682
   73MOL0     H 9839   1.031   8.438   2.032  2.4127 -0.9920  0.8515
   73MOL0     H 9840   0.796   8.420   1.950 -0.3515  3.0299  1.0392
   73MOL0     H 9841   0.384   8.339   1.957 -0.2822 -0.1310 -0.7894
   73MOL0     H 9842   0.166   8.353   1.914  0.7722  0.3489  0.1980
   73MOL0     H 9843  -0.133   8.256   1.782 -3.1186 -0.4286  0.3295
   73MOL0     H 9844  -0.062   8.318   1.931 -1.5648  0.3533  0.2877
   73MOL0     H 9845  -0.217   8.166   2.059  2.0916  0.5758 -0.2222
   73MOL0     H 9846  -0.266   8.092   1.903 -0.5008  0.4354 -0.8112
   73MOL0     H 9847  -0.278   8.370   1.875  1.5640 -2.3704 -0.9380
   73MOL0     H 9848  -0.322   8.349   2.046  2.8746 -2.4528  1.5598
   73MOL0     H 9849  -0.511   8.346   1.835 -1.2045 -1.0814 -0.0078
   73MOL0     H 9850  -0.438   8.190   1.808 -0.0490  0.9977 -0.9391
   73MOL0     H 9851  -0.641   8.130   2.185 -0.4620  1.1653  1.4124
   73MOL0     H 9852   0.121   7.937   1.918 -0.2642 -0.1951 -0.7942
   73MOL0     H 9853   0.411   7.866   2.089 -1.8258 -1.7623  1.0357
   73MOL0     H 9854   0.288   7.804   1.985 -0.6452  1.3467 -2.1054
   73MOL0     H 9855   0.442   7.831   1.908 -0.6015  1.6409 -0.7088
   74MOL0     O 9856   8.908  10.298   3.903 -0.3415 -0.1539  0.3605
   74MOL0     C 9857   8.907  10.266   3.785  0.5831  0.9692  0.6538
   74MOL0     O 9858   9.014  10.230   3.716 -0.1006  0.5064 -0.0360
   74MOL0     C 9859   9.142  10.235   3.766  0.0527  0.7635  0.1368
   74MOL0     C 9860   9.230  10.319   3.697  0.8177  0.8986  0.0030
   74MOL0     C 9861   9.366  10.310   3.726  0.2148 -0.0287 -0.2262
   74MOL0     C 9862   9.406  10.229   3.830  0.7488  0.4442 -0.1439
   74MOL0     O 9863   9.535  10.223   3.861 -0.1779  0.0563  0.3476
   74MOL0     C 9864   9.647  10.245   3.767 -0.0792  0.0290 -0.3670
   74MOL0     C 9865   9.651  10.132   3.658 -0.2278  0.7964 -0.6041
   74MOL0     C 9866   9.780  10.128   3.575  0.0511  0.4135 -0.0606
   74MOL0     C 9867   9.911  10.087   3.646  0.0977  0.4633  0.0026
   74MOL0     C 9868  10.036  10.085   3.557  0.1715 -0.9204 -0.2977
   74MOL0     C 9869  10.160  10.071   3.637 -0.5372 -0.5906  0.3080
   74MOL0     C 9870  10.288  10.106   3.551 -0.0674  0.0707  0.0186
   74MOL0     C 9871  10.419  10.088   3.640 -0.1108  0.5454  0.7589
   74MOL0     N 9872  10.527  10.165   3.593 -0.0070 -0.1205 -0.1640
   74MOL0     C 9873  10.614  10.123   3.488 -0.0773  1.0580 -0.3636
   74MOL0     C 9874  10.705  10.223   3.475 -0.6207  0.4124 -0.3181
   74MOL0     C 9875  10.823  10.234   3.383 -0.0581  0.1704 -0.0534
   74MOL0     C 9876  10.775  10.314   3.266  0.5273  0.2860 -0.5588
   74MOL0     C 9877  10.878  10.337   3.150 -0.2144  0.5988 -0.4783
   74MOL0     C 9878  10.814  10.413   3.027 -0.2855 -0.5076 -0.0627
   74MOL0     O 9879  10.924  10.441   2.939  0.7522 -0.7206 -0.1753
   74MOL0     C 9880  10.921  10.553   2.860  0.2977  0.6060  0.4570
   74MOL0     C 9881  11.038  10.595   2.798  0.9717  0.2050 -0.4697
   74MOL0     C 9882  11.046  10.713   2.716  0.1867 -0.1738 -0.9730
   74MOL0     C 9883  10.927  10.789   2.695  0.0134  1.0406  0.3522
   74MOL0     C 9884  10.934  10.907   2.605  0.1038  0.1647  0.7489
   74MOL0     O 9885  11.037  10.899   2.512 -0.0576  0.5817  0.3554
   74MOL0     C 9886  11.084  11.002   2.434 -0.2454 -0.6818  0.3297
   74MOL0     C 9887  11.063  11.142   2.452 -0.1349  0.0359 -0.1123
   74MOL0     C 9888  11.121  11.243   2.372  1.4730  1.0659 -0.3335
   74MOL0     C 9889  11.205  11.208   2.269  0.7114 -0.2134  0.0783
   74MOL0     O 9890  11.256  11.301   2.183  0.5915  0.1189 -0.3049
   74MOL0     C 9891  11.298  11.428   2.230  0.3016  0.6008  0.8022
   74MOL0     C 9892  11.407  11.417   2.342 -0.4231  1.0093 -0.7676
   74MOL0     C 9893  11.531  11.501   2.328  0.2344  0.7393 -0.3993
   74MOL0     C 9894  11.614  11.486   2.456 -0.1059  0.6744  0.0076
   74MOL0     C 9895  11.735  11.581   2.468  0.8278  0.3508  0.7401
   74MOL0     C 9896  11.818  11.558   2.596  1.1546  0.1721  1.5057
   74MOL0     C 9897  11.763  11.637   2.713  1.1268 -0.5330  0.1439
   74MOL0     C 9898  11.851  11.617   2.832  0.4999 -0.5309 -0.5355
   74MOL0    Cl 9899  12.012  11.696   2.801 -0.2183 -0.0650 -0.3593
   74MOL0     C 9900  11.225  11.069   2.246  0.4397  1.1083 -0.4177
   74MOL0     C 9901  11.163  10.966   2.320 -0.1527 -0.1606  0.5476
   74MOL0     O 9902  10.849  10.997   2.602  0.9515 -0.0436  0.3131
   74MOL0     C 9903  10.805  10.746   2.752 -0.2918  0.3847  0.2511
   74MOL0     C 9904  10.800  10.628   2.826 -0.6373  0.3573 -1.0125
   74MOL0     N 9905  10.667  10.327   3.560 -0.2041 -0.5536  1.0730
   74MOL0     N 9906  10.560  10.291   3.624 -0.3658  0.1970  0.0993
   74MOL0     C 9907   9.316  10.152   3.909 -0.2059 -0.4804 -0.4754
   74MOL0     C 9908   9.186  10.147   3.862  0.0763  0.7845  0.5562
   74MOL0     C 9909   8.775  10.239   3.712 -0.5152  0.5284 -0.1839
   74MOL0     C 9910   8.780  10.165   3.590  0.3830 -0.4255 -0.7177
   74MOL0     C 9911   8.667  10.114   3.532  0.3899  0.3188  0.3186
   74MOL0     C 9912   8.541  10.129   3.592 -0.4317  1.4901 -0.4919
   74MOL0     O 9913   8.417  10.090   3.551 -0.3540 -0.6319 -0.1853
   74MOL0     C 9914   8.401  10.029   3.424  0.0116 -1.0622  0.1310
   74MOL0     C 9915   8.265   9.979   3.375  0.0391  0.9511 -1.5236
   74MOL0     C 9916   8.170   9.906   3.483  0.1082  0.8690 -0.2268
   74MOL0     C 9917   8.028   9.880   3.417 -0.4308  0.1928 -0.1505
   74MOL0     C 9918   8.019   9.787   3.302 -0.4642  0.3019 -0.1654
   74MOL0     C 9919   8.017   9.723   3.203 -0.3122  0.1498  0.0862
   74MOL0     C 9920   8.541  10.205   3.706  0.0938  0.0876 -0.3597
   74MOL0     C 9921   8.654  10.265   3.768  0.4311 -0.3403  0.4063
   74MOL0     C 9922   8.632  10.351   3.885  0.2992 -0.7967 -0.1669
   74MOL0     H 9923   9.195  10.380   3.614 -0.2661  0.9127  0.4442
   74MOL0     H 9924   9.434  10.370   3.666 -1.3313 -0.0746 -2.1497
   74MOL0     H 9925   9.646  10.342   3.717  2.7783 -0.7350 -2.1528
   74MOL0     H 9926   9.735  10.234   3.831 -0.4593  0.6920  0.2747
   74MOL0     H 9927   9.565  10.138   3.590  0.2719 -2.9172 -1.7613
   74MOL0     H 9928   9.643  10.040   3.718 -2.0410  1.4428  0.2478
   74MOL0     H 9929   9.799  10.223   3.522  2.9045  1.1802  2.0911
   74MOL0     H 9930   9.756  10.057   3.496 -4.1110 -1.5167  2.6021
   74MOL0     H 9931   9.933  10.153   3.731 -1.7132  1.2274 -0.0850
   74MOL0     H 9932   9.895   9.995   3.702  0.4528  0.8177  0.7098
   74MOL0     H 9933  10.020  10.005   3.485 -2.2115  0.3765 -1.3077
   74MOL0     H 9934  10.032  10.179   3.502  0.3174  0.5318  2.0025
   74MOL0     H 9935  10.156  10.149   3.714 -2.1714  2.4277 -2.5446
   74MOL0     H 9936  10.164   9.969   3.674 -1.2164 -0.6875  0.1230
   74MOL0     H 9937  10.279  10.210   3.520 -0.5980  0.0982  0.2514
   74MOL0     H 9938  10.293  10.036   3.466 -0.4534 -0.3888  0.3679
   74MOL0     H 9939  10.407  10.118   3.745  1.1905  0.3788  0.9648
   74MOL0     H 9940  10.448   9.983   3.643  1.1999  0.9062  2.8568
   74MOL0     H 9941  10.616  10.029   3.435 -1.3873  0.1955  1.0084
   74MOL0     H 9942  10.896  10.295   3.437  0.2827  2.1209 -2.5569
   74MOL0     H 9943  10.864  10.137   3.355 -0.4272  0.3502 -1.2965
   74MOL0     H 9944  10.691  10.257   3.225  1.6013 -1.3080 -0.6222
   74MOL0     H 9945  10.740  10.409   3.306  1.5641  0.2480  0.5148
   74MOL0     H 9946  10.914  10.239   3.118 -1.3864  0.1190 -0.3745
   74MOL0     H 9947  10.963  10.395   3.187 -0.4982  0.9502 -0.3564
   74MOL0     H 9948  10.766  10.501   3.071 -2.5968 -1.6921 -0.0585
   74MOL0     H 9949  10.740  10.346   2.982  0.7267  0.3200 -3.2038
   74MOL0     H 9950  11.122  10.530   2.822  0.5783 -0.6135 -1.2166
   74MOL0     H 9951  11.142  10.736   2.669  0.8759 -1.0640 -0.0443
   74MOL0     H 9952  11.003  11.161   2.540 -1.6018 -5.1270  0.3579
   74MOL0     H 9953  11.100  11.345   2.405  0.6936  0.4965  0.9879
   74MOL0     H 9954  11.327  11.469   2.133 -0.8802 -3.1941 -1.3658
   74MOL0     H 9955  11.214  11.493   2.256  1.3748  2.3074  0.1593
   74MOL0     H 9956  11.356  11.447   2.434 -0.9997 -2.2641  0.1043
   74MOL0     H 9957  11.441  11.315   2.364  0.5387  1.2896 -0.9227
   74MOL0     H 9958  11.597  11.480   2.243  0.9749  0.0826  0.3200
   74MOL0     H 9959  11.488  11.601   2.311  0.1243  0.2095 -3.9906
   74MOL0     H 9960  11.651  11.383   2.452  1.0341  0.8596  3.1140
   74MOL0     H 9961  11.554  11.491   2.547  0.3504  0.3331  0.3295
   74MOL0     H 9962  11.689  11.680   2.470  0.6257  0.3555 -1.5820
   74MOL0     H 9963  11.795  11.587   2.377 -0.8569 -0.1544 -0.4611
   74MOL0     H 9964  11.810  11.451   2.617  0.3500 -0.1585 -0.2474
   74MOL0     H 9965  11.923  11.580   2.573  1.1598 -0.1828  1.1813
   74MOL0     H 9966  11.659  11.608   2.732  1.1311 -1.7399 -1.4180
   74MOL0     H 9967  11.767  11.742   2.682 -0.5827  0.0199  1.6203
   74MOL0     H 9968  11.807  11.673   2.915 -0.3743 -0.5135 -0.9990
   74MOL0     H 9969  11.853  11.512   2.860 -1.9689 -0.2579  0.9490
   74MOL0     H 9970  11.288  11.047   2.160  0.4966  0.0396 -0.1204
   74MOL0     H 9971  11.190  10.863   2.298 -1.7995 -0.7947  1.3100
   74MOL0     H 9972  10.717  10.805   2.730 -1.1123 -1.0481 -0.4371
   74MOL0     H 9973  10.703  10.598   2.862  0.7333  0.0125  2.7613
   74MOL0     H 9974   9.363  10.099   3.991  1.4002  2.8534  0.9270
   74MOL0     H 9975   9.119  10.070   3.899  1.2478 -1.8395 -2.4016
   74MOL0     H 9976   8.868  10.144   3.530 -0.0380 -1.7436 -0.8935
   74MOL0     H 9977   8.671  10.047   3.447 -2.3346  1.6953 -1.0212
   74MOL0     H 9978   8.465   9.940   3.426 -0.0240 -1.0922 -0.1868
   74MOL0     H 9979   8.455  10.089   3.350  0.9380  1.0186  2.3482
   74MOL0     H 9980   8.283   9.910   3.292 -1.2013  0.0347 -1.0666
   74MOL0     H 9981   8.206  10.057   3.329 -0.7555  0.3353 -1.5681
   74MOL0     H 9982   8.155   9.983   3.559 -0.0100 -1.5581  2.3416
   74MOL0     H 9983   8.207   9.814   3.529 -2.5946  0.8299  2.1127
   74MOL0     H 9984   7.969   9.834   3.497  0.7371 -1.0638  0.0305
   74MOL0     H 9985   7.988   9.979   3.398  1.3465  1.2156  1.1112
   74MOL0     H 9986   8.029   9.676   3.108 -1.2538 -1.7399  0.8569
   74MOL0     H 9987   8.442  10.208   3.751 -0.8255 -1.6453 -2.1169
   74MOL0     H 9988   8.539  10.407   3.873  1.7625  1.6505 -0.7648
   74MOL0     H 9989   8.640  10.295   3.978 -0.7642 -0.8405 -0.0896
   74MOL0     H 9990   8.703  10.434   3.889  0.9311 -1.3656  2.9991
   75MOL0     O 9991   0.656   8.121   8.141 -0.1030 -0.2767  0.4314
   75MOL0     C 9992   0.634   8.003   8.110  0.0416 -0.6768 -0.3715
   75MOL0     O 9993   0.722   7.902   8.119  0.2074 -0.0989  0.1599
   75MOL0     C 9994   0.853   7.937   8.144  0.2552  0.2821  0.7966
   75MOL0     C 9995   0.914   7.933   8.269 -0.3242  0.0477 -0.0065
   75MOL0     C 9996   1.057   7.958   8.281  0.8418 -1.3298 -0.0792
   75MOL0     C 9997   1.132   7.991   8.160 -0.0825 -0.1753  0.1255
   75MOL0     O 9998   1.263   8.026   8.177 -0.2303 -0.7364  0.7562
   75MOL0     C 9999   1.300   8.142   8.101  0.3390  0.0315 -0.2487
   75MOL0     C10000   1.428   8.193   8.160 -0.4400 -0.1768 -0.4790
   75MOL0     C10001   1.530   8.073   8.187 -0.4532 -0.1941 -0.3261
   75MOL0     C10002   1.665   8.115   8.234 -0.2826  0.7263  0.2382
   75MOL0     C10003   1.759   7.985   8.245 -0.3352  1.2746  0.8359
   75MOL0     C10004   1.906   8.022   8.283  0.1679 -0.0934  0.3843
   75MOL0     C10005   1.995   7.895   8.294  0.8701 -0.7282  0.0973
   75MOL0     C10006   2.039   7.844   8.157 -0.2841  0.9027 -0.1093
   75MOL0     N10007   2.146   7.741   8.154  0.5403  0.4579 -0.1946
   75MOL0     C10008   2.263   7.749   8.228 -0.0705  0.0870  0.0479
   75MOL0     C10009   2.332   7.639   8.191 -0.9023 -0.4975  0.3990
   75MOL0     C10010   2.466   7.606   8.245 -0.5647 -0.0385  0.5979
   75MOL0     C10011   2.478   7.453   8.260  0.2656 -0.3537  0.4231
   75MOL0     C10012   2.604   7.422   8.337  0.0806  0.3862 -0.4825
   75MOL0     C10013   2.746   7.434   8.279  0.2054  0.0830  0.5982
   75MOL0     O10014   2.762   7.332   8.170 -0.0916 -1.1716  0.5214
   75MOL0     C10015   2.888   7.322   8.110  0.1826  0.0333 -1.0013
   75MOL0     C10016   3.004   7.374   8.179 -0.0590  0.0284  0.2868
   75MOL0     C10017   3.132   7.356   8.126 -1.1368 -0.3006 -0.3356
   75MOL0     C10018   3.153   7.302   7.994  0.0149 -0.2831  0.3288
   75MOL0     C10019   3.284   7.251   7.952  0.5058 -0.0097  0.9063
   75MOL0     O10020   3.363   7.210   8.054 -0.6984  0.3633 -0.3243
   75MOL0     C10021   3.494   7.184   8.038 -0.7396 -0.0704  0.8163
   75MOL0     C10022   3.569   7.155   7.916  0.8474  0.1083 -0.6640
   75MOL0     C10023   3.707   7.128   7.913 -0.2646 -0.0264 -0.2314
   75MOL0     C10024   3.773   7.145   8.037 -0.2763  0.5625 -0.3771
   75MOL0     O10025   3.911   7.124   8.031 -0.3250  0.0432  0.4519
   75MOL0     C10026   3.988   7.111   8.152 -0.3833  0.3354 -0.6916
   75MOL0     C10027   4.132   7.116   8.112  0.1212 -0.0603  0.6815
   75MOL0     C10028   4.218   7.063   8.230  0.3117  0.1138  0.5828
   75MOL0     C10029   4.367   7.054   8.187 -0.6527  1.3180  0.5089
   75MOL0     C10030   4.463   7.027   8.303 -0.2019  0.0955 -0.6202
   75MOL0     C10031   4.416   6.897   8.370 -0.2262  0.5992 -0.0886
   75MOL0     C10032   4.530   6.806   8.419  0.4713 -0.0701 -0.0652
   75MOL0     C10033   4.498   6.688   8.514 -0.1286  0.0400  0.1678
   75MOL0    Cl10034   4.395   6.757   8.644  0.0434 -0.0997  0.0232
   75MOL0     C10035   3.702   7.173   8.160  0.3065  1.2890 -0.6370
   75MOL0     C10036   3.563   7.199   8.158  1.3867 -0.1556  0.1526
   75MOL0     O10037   3.318   7.267   7.832  0.3830  0.0436 -0.2465
   75MOL0     C10038   3.038   7.267   7.924  0.1265 -0.2334  0.2313
   75MOL0     C10039   2.907   7.274   7.982 -0.2804  0.7167 -0.1552
   75MOL0     N10040   2.257   7.575   8.090  0.0439 -0.2978 -0.0257
   75MOL0     N10041   2.142   7.629   8.082  0.4844 -0.0283 -0.0950
   75MOL0     C10042   1.066   7.995   8.038 -0.3125 -0.2663  0.4714
   75MOL0     C10043   0.929   7.958   8.025 -0.2925  0.1919  0.7215
   75MOL0     C10044   0.489   7.968   8.075 -0.3507 -0.1622  0.4448
   75MOL0     C10045   0.465   7.831   8.062 -0.1901  0.5768  0.6660
   75MOL0     C10046   0.340   7.772   8.036  0.1934 -0.3457 -0.3516
   75MOL0     C10047   0.230   7.856   8.020 -0.4166  0.6860 -0.1340
   75MOL0     O10048   0.105   7.812   7.983 -0.2120 -0.4817 -0.6546
   75MOL0     C10049   0.084   7.669   7.959  0.1358  0.4881  0.0581
   75MOL0     C10050  -0.061   7.628   7.981  0.1365 -0.0066 -0.0873
   75MOL0     C10051  -0.104   7.478   7.937  0.7613 -0.0518 -0.2053
   75MOL0     C10052  -0.261   7.471   7.912  0.8456 -0.1345  1.0298
   75MOL0     C10053  -0.310   7.333   7.907  0.1291 -0.1249 -0.4159
   75MOL0     C10054  -0.366   7.230   7.928  0.1780 -1.1347  0.7588
   75MOL0     C10055   0.251   7.994   8.050 -0.2528  0.2279  0.3808
   75MOL0     C10056   0.373   8.048   8.084  0.2368 -0.0195 -0.2321
   75MOL0     C10057   0.396   8.198   8.120  0.3064  0.2335 -0.5725
   75MOL0     H10058   0.848   7.907   8.350 -0.1889 -1.8215 -0.4590
   75MOL0     H10059   1.109   7.961   8.376  0.0788  0.3502  0.3095
   75MOL0     H10060   1.311   8.126   7.993 -1.0027  0.2086 -0.4221
   75MOL0     H10061   1.228   8.223   8.113 -0.6462 -0.8901  0.2101
   75MOL0     H10062   1.405   8.265   8.238  0.0016  1.3076 -1.6785
   75MOL0     H10063   1.477   8.262   8.091  2.1582  1.7278  2.9865
   75MOL0     H10064   1.536   8.023   8.090 -1.5285  0.3743 -0.7033
   75MOL0     H10065   1.487   8.001   8.258 -2.4614  0.6929 -0.5695
   75MOL0     H10066   1.705   8.203   8.183  3.8089 -0.2750  1.3055
   75MOL0     H10067   1.652   8.141   8.339 -0.2939 -3.1073  1.3608
   75MOL0     H10068   1.720   7.919   8.323 -0.4298  1.7261  1.1677
   75MOL0     H10069   1.759   7.934   8.148 -0.4368  2.2284  0.3211
   75MOL0     H10070   1.948   8.086   8.205  0.1034 -2.9080 -2.1446
   75MOL0     H10071   1.901   8.081   8.375 -2.6343 -1.4799  1.2571
   75MOL0     H10072   1.946   7.823   8.360 -1.1589  2.5185  2.4439
   75MOL0     H10073   2.085   7.928   8.349 -1.0795  2.9753  1.4249
   75MOL0     H10074   1.952   7.800   8.108  1.1505  0.0411 -2.0110
   75MOL0     H10075   2.063   7.926   8.089  2.3897 -0.8528 -1.4465
   75MOL0     H10076   2.304   7.829   8.288  0.6368  0.4834 -0.9421
   75MOL0     H10077   2.534   7.635   8.164 -1.2537 -2.1478 -0.8240
   75MOL0     H10078   2.499   7.653   8.338  1.4190 -0.6409  0.2650
   75MOL0     H10079   2.387   7.408   8.302 -2.8095  0.7381 -4.2604
   75MOL0     H10080   2.485   7.422   8.155  0.0220  0.2947  0.2154
   75MOL0     H10081   2.594   7.317   8.366 -0.4470  0.3045 -0.9456
   75MOL0     H10082   2.602   7.491   8.422 -0.4841  0.3921 -0.4975
   75MOL0     H10083   2.820   7.418   8.359  1.4791 -0.1319 -0.5862
   75MOL0     H10084   2.768   7.537   8.250  0.7608 -0.6279 -1.7122
   75MOL0     H10085   2.999   7.425   8.274  1.0310 -0.8384  0.8317
   75MOL0     H10086   3.217   7.399   8.179 -2.8604  1.8697  0.8753
   75MOL0     H10087   3.517   7.167   7.822 -1.9368 -1.2777  0.5894
   75MOL0     H10088   3.768   7.104   7.827 -1.2351  0.7460 -1.1617
   75MOL0     H10089   3.975   7.196   8.219  1.7140 -0.2788  0.5802
   75MOL0     H10090   3.952   7.023   8.207  0.6011  2.1457  3.2283
   75MOL0     H10091   4.145   7.050   8.026 -0.7439  0.9101 -0.2191
   75MOL0     H10092   4.166   7.218   8.093 -0.8025 -0.0743 -1.2628
   75MOL0     H10093   4.213   7.131   8.316 -2.0796  0.4466  0.2617
   75MOL0     H10094   4.188   6.967   8.274  1.3959 -0.9119 -0.8538
   75MOL0     H10095   4.402   7.140   8.129  1.1056  1.1744  1.2933
   75MOL0     H10096   4.372   6.968   8.120  1.1061  0.2249  1.9718
   75MOL0     H10097   4.472   7.116   8.367  2.2150  0.9699 -2.0515
   75MOL0     H10098   4.564   7.021   8.260 -0.0017  4.3027 -1.1464
   75MOL0     H10099   4.348   6.933   8.448 -0.2620 -1.7882  1.0647
   75MOL0     H10100   4.364   6.831   8.300  2.4229 -0.2812 -1.3391
   75MOL0     H10101   4.616   6.863   8.457  0.6037 -1.0134  1.1173
   75MOL0     H10102   4.574   6.765   8.327 -0.2805 -3.8654  1.1091
   75MOL0     H10103   4.427   6.619   8.468 -1.3603  2.1865 -1.3239
   75MOL0     H10104   4.590   6.641   8.550  0.6448  0.6755 -0.8917
   75MOL0     H10105   3.756   7.174   8.255 -0.9518 -2.3212  0.2876
   75MOL0     H10106   3.494   7.221   8.238 -1.7934 -3.6936 -1.3337
   75MOL0     H10107   3.050   7.222   7.826  0.9567  0.3846  0.0400
   75MOL0     H10108   2.825   7.246   7.917  0.7318  1.4050 -1.7735
   75MOL0     H10109   1.132   8.004   7.952  0.6852 -2.8788  0.8872
   75MOL0     H10110   0.887   7.973   7.926  0.3360  3.3689  0.8210
   75MOL0     H10111   0.546   7.759   8.058 -1.5475 -0.9830 -3.6994
   75MOL0     H10112   0.336   7.664   8.029  2.4107 -0.4817 -0.2244
   75MOL0     H10113   0.143   7.609   8.029  1.6450  0.5742 -1.0955
   75MOL0     H10114   0.102   7.639   7.855 -4.3038 -1.1740 -0.4642
   75MOL0     H10115  -0.137   7.687   7.928 -1.0340 -1.3987 -0.0579
   75MOL0     H10116  -0.079   7.644   8.088 -2.3192 -2.3521 -0.0232
   75MOL0     H10117  -0.085   7.408   8.018  0.8821  1.6900  1.3270
   75MOL0     H10118  -0.060   7.462   7.838  1.5873  1.4643 -0.1131
   75MOL0     H10119  -0.314   7.517   7.996 -2.0516 -0.3244 -0.5498
   75MOL0     H10120  -0.296   7.513   7.817  0.4939 -2.7377 -0.0788
   75MOL0     H10121  -0.417   7.135   7.928 -0.5335 -0.7805 -0.5345
   75MOL0     H10122   0.162   8.056   8.054 -0.3202  0.1791 -0.3116
   75MOL0     H10123   0.440   8.208   8.220  0.8495  0.4302 -0.8260
   75MOL0     H10124   0.450   8.256   8.045  0.9288 -0.3748 -0.6095
   75MOL0     H10125   0.295   8.237   8.128 -0.2844 -1.0673 -1.2983
   76MOL0     O10126   0.577  10.190   2.215  0.2736 -0.3202  0.3821
   76MOL0     C10127   0.624  10.228   2.107 -0.5222 -0.2963  0.1992
   76MOL0     O10128   0.746  10.194   2.065  0.2436 -0.1724  0.1899
   76MOL0     C10129   0.840  10.147   2.154  0.1275 -0.9271  0.2245
   76MOL0     C10130   0.908  10.037   2.112  0.0672  0.9486 -0.0422
   76MOL0     C10131   1.015   9.986   2.188 -0.8517 -0.0608 -0.1331
   76MOL0     C10132   1.043  10.053   2.312  0.2418 -0.3917  0.2613
   76MOL0     O10133   1.157  10.014   2.376 -0.3094 -0.2305  0.5988
   76MOL0     C10134   1.282  10.038   2.309 -0.0940 -0.4528  0.9873
   76MOL0     C10135   1.376   9.951   2.383  0.0319 -0.0951 -0.3916
   76MOL0     C10136   1.510   9.988   2.354 -0.2272 -0.0953  0.3900
   76MOL0     C10137   1.623   9.893   2.404  0.5368  0.4056 -0.8437
   76MOL0     C10138   1.759   9.932   2.353  0.0351 -0.8129  0.4524
   76MOL0     C10139   1.864   9.819   2.382 -1.1978 -0.6851  0.1205
   76MOL0     C10140   2.007   9.867   2.390 -1.4112 -0.5792 -0.0319
   76MOL0     C10141   2.113   9.750   2.388  0.5847 -0.6208 -0.0843
   76MOL0     N10142   2.235   9.791   2.458 -1.2544  0.8155 -0.2394
   76MOL0     C10143   2.345   9.823   2.398 -0.2978 -0.8004 -0.6151
   76MOL0     C10144   2.426   9.878   2.495  0.6406  0.1770  0.8915
   76MOL0     C10145   2.553   9.952   2.458 -0.2454  0.0215 -0.2168
   76MOL0     C10146   2.546  10.103   2.492 -0.2248 -0.1086 -0.3086
   76MOL0     C10147   2.662  10.188   2.440 -1.0883  0.0509  0.6265
   76MOL0     C10148   2.681  10.319   2.509 -0.7310 -0.0594 -0.3249
   76MOL0     O10149   2.686  10.296   2.647  0.0981 -0.2260  0.7474
   76MOL0     C10150   2.723  10.397   2.721 -1.1525  0.1116  0.2743
   76MOL0     C10151   2.618  10.460   2.800 -0.0671  0.2623  0.1644
   76MOL0     C10152   2.650  10.558   2.884 -0.8607 -0.1650 -0.0730
   76MOL0     C10153   2.785  10.614   2.892  0.2170  0.6965  0.0432
   76MOL0     C10154   2.811  10.736   2.978  0.0115 -0.0720 -0.4641
   76MOL0     O10155   2.931  10.795   2.960 -0.7569 -0.0896  0.3561
   76MOL0     C10156   2.996  10.883   3.045  0.8181 -0.5386 -0.6754
   76MOL0     C10157   2.966  10.895   3.190  0.8666 -1.1119  1.2214
   76MOL0     C10158   3.030  11.000   3.253  0.5257 -0.1045 -0.2635
   76MOL0     C10159   3.128  11.079   3.197 -0.3176  0.4565  0.1442
   76MOL0     O10160   3.213  11.158   3.264 -0.2329  0.0513  0.4697
   76MOL0     C10161   3.179  11.218   3.394 -0.4529  1.1006  0.1119
   76MOL0     C10162   3.276  11.338   3.412  0.1328 -0.0195 -0.6289
   76MOL0     C10163   3.253  11.387   3.559  0.9053  0.0589 -0.4395
   76MOL0     C10164   3.354  11.501   3.589  0.0859  0.5175  0.6579
   76MOL0     C10165   3.314  11.574   3.722  0.1670  0.1511 -0.7038
   76MOL0     C10166   3.369  11.711   3.743 -0.2654 -0.0183  0.5520
   76MOL0     C10167   3.512  11.711   3.781  0.0391  0.6013 -0.3189
   76MOL0     C10168   3.587  11.841   3.747 -0.9979 -0.2487  0.3903
   76MOL0    Cl10169   3.514  11.989   3.826  0.4454 -0.5039 -0.1708
   76MOL0     C10170   3.149  11.064   3.062  0.1811 -0.0604 -0.0742
   76MOL0     C10171   3.088  10.971   2.981  0.6070  0.5478  0.5096
   76MOL0     O10172   2.742  10.759   3.078  0.9529 -0.2175 -0.5554
   76MOL0     C10173   2.885  10.547   2.829 -0.2911 -0.0448 -0.6363
   76MOL0     C10174   2.857  10.440   2.740 -0.2135  0.3154 -0.4075
   76MOL0     N10175   2.379   9.863   2.619 -0.0354 -0.4315  0.4276
   76MOL0     N10176   2.266   9.802   2.596  0.4329  0.4559  1.0457
   76MOL0     C10177   0.973  10.170   2.353  0.5850  0.5012 -0.1090
   76MOL0     C10178   0.877  10.222   2.266 -0.8998 -0.4026  0.0903
   76MOL0     C10179   0.545  10.311   2.004  0.0644  0.4609  0.2533
   76MOL0     C10180   0.603  10.329   1.876 -0.1415  0.1603 -0.2867
   76MOL0     C10181   0.532  10.390   1.773 -0.2005  0.3933  0.6966
   76MOL0     C10182   0.404  10.445   1.797 -0.8287  0.3682  0.3641
   76MOL0     O10183   0.340  10.495   1.693 -0.1446 -0.7778  0.1013
   76MOL0     C10184   0.212  10.553   1.705  0.3932  0.0478  0.0602
   76MOL0     C10185   0.171  10.616   1.566 -0.7606 -0.2231 -0.7144
   76MOL0     C10186   0.049  10.709   1.582  0.2065  0.7839 -0.4562
   76MOL0     C10187   0.026  10.782   1.454 -0.6122  0.2649 -0.3302
   76MOL0     C10188  -0.096  10.859   1.449  0.2064 -0.2246  0.0154
   76MOL0     C10189  -0.212  10.897   1.437  0.0922  0.4364 -0.2413
   76MOL0     C10190   0.352  10.443   1.927  0.1500  0.0622  0.2232
   76MOL0     C10191   0.420  10.375   2.033 -0.0371 -0.6024  0.1216
   76MOL0     C10192   0.352  10.384   2.167 -0.3885  0.8204 -0.0892
   76MOL0     H10193   0.877   9.980   2.026  0.2528 -0.7994  0.9983
   76MOL0     H10194   1.079   9.904   2.156  1.5674  1.6275  0.1442
   76MOL0     H10195   1.281  10.020   2.201  2.1505  2.7435  0.2905
   76MOL0     H10196   1.299  10.146   2.312  1.3498 -0.4802 -1.9791
   76MOL0     H10197   1.349   9.851   2.347 -0.6034 -0.1435  0.2069
   76MOL0     H10198   1.358   9.962   2.490  0.2440 -0.3786 -0.3259
   76MOL0     H10199   1.528  10.085   2.403  2.2269  0.4110 -1.3384
   76MOL0     H10200   1.522  10.007   2.247 -0.3389  4.4958  0.9611
   76MOL0     H10201   1.628   9.887   2.513 -0.1494 -1.7588 -0.8988
   76MOL0     H10202   1.604   9.791   2.371 -0.1806  0.4159 -0.4785
   76MOL0     H10203   1.747   9.941   2.245  1.8022  0.5700  0.3307
   76MOL0     H10204   1.790  10.033   2.381 -2.6695  0.0516  0.5662
   76MOL0     H10205   1.842   9.765   2.475  0.7518  0.4371  1.3153
   76MOL0     H10206   1.850   9.736   2.313  0.4338 -2.2484  1.5374
   76MOL0     H10207   2.016   9.937   2.474 -0.5102 -0.4330 -0.2394
   76MOL0     H10208   2.019   9.930   2.302  1.5496  0.6290  1.0838
   76MOL0     H10209   2.068   9.668   2.444 -0.7314 -0.1555 -0.4243
   76MOL0     H10210   2.128   9.715   2.285 -3.5326 -2.1395 -0.3691
   76MOL0     H10211   2.359   9.821   2.291  0.2985 -0.0800 -0.5560
   76MOL0     H10212   2.626   9.902   2.523 -2.3833 -2.5650  0.3668
   76MOL0     H10213   2.588   9.936   2.356  1.2036 -1.3643  0.4541
   76MOL0     H10214   2.449  10.138   2.456 -1.9132 -2.6944  1.2873
   76MOL0     H10215   2.547  10.116   2.601  0.1442  0.1931 -0.3494
   76MOL0     H10216   2.657  10.202   2.331 -1.6072 -2.3948  0.2776
   76MOL0     H10217   2.756  10.133   2.448 -0.4546  0.6035 -2.0018
   76MOL0     H10218   2.597  10.385   2.486 -1.4204 -1.2150 -1.2653
   76MOL0     H10219   2.772  10.364   2.472 -0.6839 -0.5280 -0.7888
   76MOL0     H10220   2.520  10.416   2.809  0.8317 -1.6495  1.1033
   76MOL0     H10221   2.577  10.624   2.929  2.4223  2.5727  1.6674
   76MOL0     H10222   2.895  10.845   3.256 -0.3330  1.5151  2.0670
   76MOL0     H10223   3.001  11.025   3.355 -2.5772  1.3693 -1.3678
   76MOL0     H10224   3.077  11.255   3.409 -0.1793  1.6406  0.6781
   76MOL0     H10225   3.201  11.132   3.458  0.7223  1.7583  0.6343
   76MOL0     H10226   3.380  11.306   3.403 -0.3656 -1.2264 -2.5844
   76MOL0     H10227   3.250  11.418   3.342 -0.1009  1.3252  0.9289
   76MOL0     H10228   3.153  11.429   3.575 -0.2068 -1.2128 -3.3232
   76MOL0     H10229   3.278  11.314   3.636  1.5072  0.0513 -0.6343
   76MOL0     H10230   3.355  11.573   3.506 -0.1311 -1.6292 -1.3113
   76MOL0     H10231   3.453  11.455   3.593 -0.9189 -1.6946  1.5812
   76MOL0     H10232   3.345  11.501   3.797  3.5251  0.1502 -1.9318
   76MOL0     H10233   3.205  11.586   3.722  0.2907  2.0939  2.0671
   76MOL0     H10234   3.341  11.756   3.647  0.7119 -0.9440 -0.1926
   76MOL0     H10235   3.311  11.763   3.821  1.1021  0.1932  1.4559
   76MOL0     H10236   3.553  11.624   3.729  0.6723 -0.1819  1.3892
   76MOL0     H10237   3.513  11.702   3.891  0.9284  1.7792 -0.2063
   76MOL0     H10238   3.689  11.833   3.784  0.1201 -1.0445 -2.5533
   76MOL0     H10239   3.599  11.847   3.638  0.8497 -1.4060  0.4924
   76MOL0     H10240   3.217  11.134   3.013 -0.0529 -0.3415 -0.8212
   76MOL0     H10241   3.099  10.960   2.874  3.8562  1.5087  0.6564
   76MOL0     H10242   2.992  10.566   2.838  0.1827 -2.8739  1.0460
   76MOL0     H10243   2.935  10.388   2.685 -0.2893  2.2197 -2.4624
   76MOL0     H10244   1.003  10.230   2.438  0.0359  0.6330 -0.0062
   76MOL0     H10245   0.814  10.307   2.291 -2.5724 -1.4175 -0.5252
   76MOL0     H10246   0.693  10.276   1.846 -0.2877 -1.0494  1.2491
   76MOL0     H10247   0.574  10.399   1.674  2.3294 -0.3511  1.6053
   76MOL0     H10248   0.207  10.632   1.780 -1.2149 -0.6192  0.7134
   76MOL0     H10249   0.132  10.480   1.721 -1.6603  1.4066 -3.1484
   76MOL0     H10250   0.153  10.545   1.485 -0.0165  0.1223 -1.1903
   76MOL0     H10251   0.253  10.688   1.555  0.2799 -0.8545  2.1355
   76MOL0     H10252   0.066  10.779   1.664 -1.5382  0.7665 -0.0357
   76MOL0     H10253  -0.039  10.653   1.614 -0.2375  0.3914 -2.2659
   76MOL0     H10254   0.111  10.848   1.432  0.4533 -0.6724  0.8684
   76MOL0     H10255   0.029  10.711   1.371  1.0077  1.7958 -1.6849
   76MOL0     H10256  -0.317  10.916   1.432  0.2273  0.9382 -1.6021
   76MOL0     H10257   0.255  10.485   1.952 -0.0664  1.5392 -2.7362
   76MOL0     H10258   0.417  10.414   2.249 -0.1682  1.9239 -0.6509
   76MOL0     H10259   0.266  10.452   2.158  1.2081  3.4729  2.6882
   76MOL0     H10260   0.307  10.287   2.189  1.3009 -0.8950 -3.5397
   77MOL0     O10261   2.833  10.276   1.052  0.6211 -0.5013  0.1506
   77MOL0     C10262   2.741  10.219   0.994  0.2349 -0.2440  0.1261
   77MOL0     O10263   2.750  10.133   0.887 -0.1375  0.2006 -0.4039
   77MOL0     C10264   2.873  10.087   0.838 -0.2462  0.1842  0.0107
   77MOL0     C10265   2.964  10.182   0.781 -0.4873  0.9064 -0.2270
   77MOL0     C10266   3.094  10.136   0.755  0.1885  0.1327 -0.1287
   77MOL0     C10267   3.128  10.002   0.757 -0.2311 -0.3479  0.3743
   77MOL0     O10268   3.252   9.962   0.719 -0.3301 -0.3694  0.1196
   77MOL0     C10269   3.272   9.848   0.640 -0.3377  0.3022 -0.2584
   77MOL0     C10270   3.405   9.772   0.664 -0.2574  0.0471  0.4863
   77MOL0     C10271   3.530   9.863   0.665  1.1049 -1.0666 -0.8555
   77MOL0     C10272   3.648   9.772   0.700 -0.7327  0.0014 -0.1999
   77MOL0     C10273   3.767   9.863   0.701 -0.0928 -0.4126  0.2335
   77MOL0     C10274   3.888   9.805   0.782  0.7536 -0.0707 -0.7599
   77MOL0     C10275   4.009   9.882   0.786  0.2702 -0.0109  0.5692
   77MOL0     C10276   4.072   9.908   0.644 -0.2417 -0.3650 -0.6315
   77MOL0     N10277   4.198   9.984   0.633 -0.4573  0.1749  0.2715
   77MOL0     C10278   4.262  10.039   0.742 -0.2063  0.5901 -0.2027
   77MOL0     C10279   4.371  10.088   0.681  0.2570  0.5117 -0.6049
   77MOL0     C10280   4.481  10.145   0.758  0.1258 -0.0200  0.5148
   77MOL0     C10281   4.626  10.086   0.723 -0.6312  0.2841 -0.7156
   77MOL0     C10282   4.733  10.164   0.794  0.8700  0.9696 -1.3108
   77MOL0     C10283   4.868  10.105   0.768  0.0997 -0.0535 -0.3788
   77MOL0     O10284   4.961  10.193   0.834 -0.1273  0.5005  0.4988
   77MOL0     C10285   5.030  10.281   0.753  0.0061  0.4606  0.1287
   77MOL0     C10286   5.165  10.289   0.780 -0.0716 -0.0067  0.0233
   77MOL0     C10287   5.244  10.381   0.709  0.8005 -0.1016 -0.3617
   77MOL0     C10288   5.190  10.467   0.610 -1.5836  0.5548  0.3643
   77MOL0     C10289   5.283  10.560   0.537  0.3324 -0.1328 -0.3269
   77MOL0     O10290   5.215  10.671   0.486  0.1871 -0.2263 -0.5150
   77MOL0     C10291   5.279  10.751   0.399 -0.1626 -0.1857 -0.7277
   77MOL0     C10292   5.290  10.887   0.422  0.5239  1.1951 -0.1504
   77MOL0     C10293   5.354  10.973   0.331  0.7693  0.7620 -0.8306
   77MOL0     C10294   5.420  10.922   0.221 -0.0766  0.9445 -0.3184
   77MOL0     O10295   5.477  11.006   0.130  0.2487 -0.3669 -0.6813
   77MOL0     C10296   5.578  10.957   0.046 -0.4242 -0.1919  0.8857
   77MOL0     C10297   5.643  11.067  -0.027  0.5037 -0.4475  0.3614
   77MOL0     C10298   5.722  11.161   0.058  0.1185 -0.2242 -0.4319
   77MOL0     C10299   5.847  11.186  -0.015 -0.5590 -0.1662  0.1577
   77MOL0     C10300   5.919  11.310   0.045 -0.6580  0.9497  0.0530
   77MOL0     C10301   5.962  11.284   0.193 -0.0715 -0.2872 -0.3654
   77MOL0     C10302   6.008  11.396   0.273  0.2922  0.9049  0.5168
   77MOL0     C10303   6.080  11.355   0.399  0.2500 -0.4985  0.1703
   77MOL0    Cl10304   6.187  11.482   0.471  0.2544 -0.0421  0.0989
   77MOL0     C10305   5.418  10.779   0.202 -0.7988 -0.1893 -0.6265
   77MOL0     C10306   5.355  10.696   0.294  0.8095  1.1134  0.8768
   77MOL0     O10307   5.407  10.535   0.519  0.1846  0.7714  0.0740
   77MOL0     C10308   5.051  10.452   0.580 -0.7796  0.4208 -0.0128
   77MOL0     C10309   4.978  10.361   0.651 -0.6774 -0.3245 -0.7067
   77MOL0     N10310   4.359  10.091   0.544  0.8741 -0.5654 -0.4773
   77MOL0     N10311   4.249  10.025   0.519 -0.0669  0.2318 -0.3569
   77MOL0     C10312   3.038   9.913   0.816  0.1237  0.3759  0.2894
   77MOL0     C10313   2.907   9.954   0.854 -0.1204  0.0783 -0.7792
   77MOL0     C10314   2.606  10.259   1.046 -0.5046 -0.3584  0.2323
   77MOL0     C10315   2.597  10.340   1.157  0.1814  0.0581 -0.5433
   77MOL0     C10316   2.472  10.383   1.205 -0.0787 -0.6912  0.1210
   77MOL0     C10317   2.361  10.337   1.151 -0.1945 -0.0441 -0.1361
   77MOL0     O10318   2.243  10.371   1.209  0.5023 -0.0766  1.1319
   77MOL0     C10319   2.115  10.317   1.164 -0.0335  0.3969 -0.6161
   77MOL0     C10320   1.995  10.378   1.237  0.4605 -0.8022  0.2870
   77MOL0     C10321   1.999  10.531   1.248 -0.0380  0.2829 -0.3241
   77MOL0     C10322   1.992  10.611   1.118 -0.8229 -0.1558 -0.7945
   77MOL0     C10323   1.856  10.612   1.068  0.0207  0.0640  0.5186
   77MOL0     C10324   1.747  10.608   1.011  0.0899  0.9697 -0.1417
   77MOL0     C10325   2.357  10.252   1.041 -0.9718  0.1296 -0.2900
   77MOL0     C10326   2.485  10.218   0.988 -0.0811 -0.5880  0.4654
   77MOL0     C10327   2.484  10.135   0.855 -0.1385 -0.5328  0.1165
   77MOL0     H10328   2.956  10.290   0.767  0.8134  0.9149 -1.1597
   77MOL0     H10329   3.165  10.211   0.724 -1.6532  1.8833 -0.3272
   77MOL0     H10330   3.191   9.774   0.646  0.2550 -0.3670 -0.3742
   77MOL0     H10331   3.272   9.867   0.532  1.1406 -0.3619 -0.3942
   77MOL0     H10332   3.422   9.709   0.577 -1.4716 -0.8496  0.8639
   77MOL0     H10333   3.406   9.713   0.756  3.0027  1.0323  1.1896
   77MOL0     H10334   3.511   9.943   0.737  2.2450 -1.3572 -0.2111
   77MOL0     H10335   3.550   9.903   0.565  0.9649 -1.2180 -0.9457
   77MOL0     H10336   3.627   9.717   0.793  0.3624 -0.1696 -0.0494
   77MOL0     H10337   3.661   9.697   0.622 -0.2228  0.1833 -0.2930
   77MOL0     H10338   3.794   9.878   0.596 -0.1223 -0.4871  0.2158
   77MOL0     H10339   3.739   9.953   0.756 -0.0684 -0.4187  0.2556
   77MOL0     H10340   3.843   9.778   0.878 -1.5195  1.4766 -1.3133
   77MOL0     H10341   3.910   9.714   0.724  0.9182  1.3931 -3.1425
   77MOL0     H10342   4.082   9.825   0.844  0.6060  0.6202  0.7750
   77MOL0     H10343   3.989   9.974   0.842  0.9193  0.4226  0.0982
   77MOL0     H10344   4.089   9.806   0.606 -0.8072 -0.9636  0.6488
   77MOL0     H10345   4.001   9.957   0.578  0.4831  0.1192 -1.0652
   77MOL0     H10346   4.231  10.019   0.844  0.8312 -0.1432 -0.0218
   77MOL0     H10347   4.491  10.253   0.747 -0.2852  0.0524  0.8492
   77MOL0     H10348   4.455  10.126   0.863  0.1483 -0.0547  0.5143
   77MOL0     H10349   4.637   9.981   0.753  0.0499  0.7500  0.7285
   77MOL0     H10350   4.636  10.094   0.614  1.6149 -1.4779 -0.7231
   77MOL0     H10351   4.707  10.171   0.900 -0.3645 -2.2250 -1.2998
   77MOL0     H10352   4.730  10.268   0.761  3.1462  0.7727 -2.3416
   77MOL0     H10353   4.881  10.099   0.660 -2.4897 -0.5957 -0.7325
   77MOL0     H10354   4.868  10.004   0.810  2.1929  0.4461  0.9625
   77MOL0     H10355   5.198  10.232   0.866 -1.3900 -1.6006 -0.4718
   77MOL0     H10356   5.349  10.401   0.732  0.2514  1.5693  0.9381
   77MOL0     H10357   5.243  10.919   0.515  1.0792 -0.1596  0.6203
   77MOL0     H10358   5.364  11.078   0.355  0.5142  0.3512  1.2982
   77MOL0     H10359   5.651  10.899   0.104  1.3535  0.2950 -0.7735
   77MOL0     H10360   5.532  10.886  -0.023 -0.7406  1.0465 -0.2072
   77MOL0     H10361   5.704  11.029  -0.109 -0.8960 -3.0242  0.4374
   77MOL0     H10362   5.564  11.130  -0.068  2.9460  0.9761 -2.5816
   77MOL0     H10363   5.663  11.251   0.079 -0.9933 -1.5281  2.5515
   77MOL0     H10364   5.738  11.116   0.157  2.3935  0.1202 -0.5923
   77MOL0     H10365   5.826  11.207  -0.121  0.4476  1.7625  0.2984
   77MOL0     H10366   5.915  11.101  -0.007 -0.6506 -0.1835  0.7809
   77MOL0     H10367   5.860  11.401   0.045 -1.3674  0.5539  2.4620
   77MOL0     H10368   6.006  11.334  -0.017  1.6183 -1.5066  2.0553
   77MOL0     H10369   5.876  11.263   0.257  2.9617 -0.1583  4.2302
   77MOL0     H10370   6.030  11.199   0.203  1.7430  0.9578 -1.4370
   77MOL0     H10371   5.923  11.460   0.297 -0.5030  1.2962 -2.8445
   77MOL0     H10372   6.072  11.460   0.212  0.1312  1.7210  1.1752
   77MOL0     H10373   6.009  11.317   0.472  0.8417 -1.6425  0.1631
   77MOL0     H10374   6.147  11.272   0.377  2.0906  0.5286  1.5501
   77MOL0     H10375   5.457  10.726   0.116 -2.0252 -0.2384 -1.1704
   77MOL0     H10376   5.344  10.588   0.286 -4.4723  1.4205 -0.1147
   77MOL0     H10377   4.994  10.520   0.518 -2.0887  0.1950  0.9154
   77MOL0     H10378   4.869  10.366   0.654 -0.7330 -1.5610  1.3834
   77MOL0     H10379   3.066   9.809   0.822 -3.1090 -0.9353 -3.3648
   77MOL0     H10380   2.835   9.876   0.878  0.9656 -1.0419 -1.1060
   77MOL0     H10381   2.677  10.375   1.221  0.0683 -4.5625  2.5951
   77MOL0     H10382   2.456  10.448   1.291  1.5167  1.0547 -0.8179
   77MOL0     H10383   2.111  10.210   1.186 -0.9403  0.0130 -2.4630
   77MOL0     H10384   2.095  10.333   1.058 -2.2295  0.1186 -0.2893
   77MOL0     H10385   1.980  10.336   1.337 -0.8821  0.2968  0.5670
   77MOL0     H10386   1.910  10.350   1.175  0.8783 -1.7092  0.0997
   77MOL0     H10387   2.086  10.557   1.309 -0.3740 -1.4926  0.9768
   77MOL0     H10388   1.911  10.562   1.304 -1.8481 -0.1758 -2.7584
   77MOL0     H10389   2.034  10.712   1.123  0.4164 -0.5476 -2.4957
   77MOL0     H10390   2.063  10.572   1.044 -1.5467  0.6126 -1.9261
   77MOL0     H10391   1.652  10.601   0.961  0.0034  0.2433  0.1077
   77MOL0     H10392   2.268  10.203   1.002 -0.4851  1.0967 -2.7915
   77MOL0     H10393   2.379  10.109   0.841  0.0728 -1.1863 -0.3047
   77MOL0     H10394   2.514  10.207   0.778 -2.4353 -0.0974 -0.4428
   77MOL0     H10395   2.545  10.044   0.854 -1.4686 -1.4627  0.9119
   78MOL0     O10396  10.074   5.252   8.714  0.3843  0.3429 -0.6885
   78MOL0     C10397   9.970   5.324   8.720 -0.4909  0.4751 -0.3684
   78MOL0     O10398   9.968   5.460   8.730 -0.1104  0.1868 -0.2424
   78MOL0     C10399  10.089   5.522   8.726  0.2150 -0.8307  0.8568
   78MOL0     C10400  10.138   5.583   8.844 -0.4047  0.2083 -0.8308
   78MOL0     C10401  10.266   5.647   8.850 -0.2267  0.8227  0.8998
   78MOL0     C10402  10.346   5.668   8.730 -0.1037  0.4979 -0.5675
   78MOL0     O10403  10.456   5.738   8.753 -0.6800 -0.3738  0.4643
   78MOL0     C10404  10.507   5.810   8.641 -0.1221  0.2518 -0.4103
   78MOL0     C10405  10.630   5.879   8.701  1.1051  0.9861 -0.9819
   78MOL0     C10406  10.722   5.939   8.598  0.3031 -0.0802 -0.5551
   78MOL0     C10407  10.642   6.053   8.542 -0.1189 -0.9037 -0.3816
   78MOL0     C10408  10.721   6.136   8.436 -0.3141  0.3439 -0.2657
   78MOL0     C10409  10.657   6.267   8.389  0.2395  0.0808 -0.0973
   78MOL0     C10410  10.617   6.353   8.507  0.5751 -0.6044  0.0747
   78MOL0     C10411  10.571   6.494   8.453  0.0828  0.4854 -0.4528
   78MOL0     N10412  10.693   6.561   8.401  1.0393 -0.7434  0.4238
   78MOL0     C10413  10.812   6.583   8.470  0.0535  0.3510 -0.2439
   78MOL0     C10414  10.889   6.653   8.384 -0.1487  0.2508 -0.2667
   78MOL0     C10415  11.035   6.716   8.402 -0.7524  0.4561 -0.3774
   78MOL0     C10416  11.149   6.644   8.328  0.0229 -0.4577 -0.5866
   78MOL0     C10417  11.284   6.700   8.362  0.6003 -0.8291  0.2096
   78MOL0     C10418  11.339   6.655   8.503 -0.5248 -0.8629 -0.3991
   78MOL0     O10419  11.404   6.529   8.475  0.1995  0.5505  0.4646
   78MOL0     C10420  11.540   6.540   8.442 -0.0543  0.8872 -0.1956
   78MOL0     C10421  11.607   6.653   8.405 -0.6242 -1.1688  0.7620
   78MOL0     C10422  11.744   6.650   8.377 -0.0538 -0.4290  0.1526
   78MOL0     C10423  11.818   6.531   8.390 -0.1923 -0.6591  0.0970
   78MOL0     C10424  11.974   6.532   8.383  0.3976 -0.1432 -0.3934
   78MOL0     O10425  12.024   6.651   8.340 -0.3577 -0.0782 -0.1535
   78MOL0     C10426  12.153   6.646   8.294 -0.7613 -0.3720 -0.7480
   78MOL0     C10427  12.227   6.755   8.331  1.2638 -0.0064 -0.7694
   78MOL0     C10428  12.355   6.776   8.286  0.1362 -0.4135  0.6780
   78MOL0     C10429  12.422   6.678   8.207 -0.5994  0.2077  0.5189
   78MOL0     O10430  12.553   6.709   8.170 -0.5377 -0.0511 -0.1423
   78MOL0     C10431  12.617   6.611   8.090  0.4488 -0.3167 -0.6831
   78MOL0     C10432  12.749   6.670   8.033  0.0429 -0.0232 -0.7087
   78MOL0     C10433  12.826   6.575   7.931  0.6986  0.9545 -0.6298
   78MOL0     C10434  12.928   6.649   7.842 -0.3582 -1.1498  0.4184
   78MOL0     C10435  13.033   6.733   7.924  0.6882  0.7649  0.5525
   78MOL0     C10436  13.146   6.781   7.827 -0.6718  0.4340 -0.2405
   78MOL0     C10437  13.266   6.839   7.895  0.1720  0.0047 -0.4446
   78MOL0     C10438  13.372   6.893   7.799 -0.2186  0.1826  0.2089
   78MOL0    Cl10439  13.464   6.759   7.728  0.4562  0.1486  0.0181
   78MOL0     C10440  12.348   6.563   8.176  0.4589 -0.1771 -0.1609
   78MOL0     C10441  12.214   6.543   8.219  0.4721 -0.0996  0.3967
   78MOL0     O10442  12.033   6.427   8.409  0.3839  0.1034 -0.4339
   78MOL0     C10443  11.747   6.414   8.411  0.2324  0.0430 -0.0925
   78MOL0     C10444  11.613   6.419   8.443  1.5392 -0.1630  0.4612
   78MOL0     N10445  10.812   6.682   8.267 -0.5475  0.0797 -0.1617
   78MOL0     N10446  10.694   6.625   8.280 -0.4313 -0.5045  0.3236
   78MOL0     C10447  10.289   5.618   8.613  0.2537  0.4446 -0.2748
   78MOL0     C10448  10.166   5.536   8.610  0.6935 -0.6765  0.5422
   78MOL0     C10449   9.841   5.246   8.711 -0.4985 -0.6124 -0.5727
   78MOL0     C10450   9.730   5.319   8.663 -0.3340  0.7574 -0.6342
   78MOL0     C10451   9.606   5.256   8.654  0.8262 -0.0962 -0.0156
   78MOL0     C10452   9.580   5.118   8.672  0.3796 -0.4379 -0.5099
   78MOL0     O10453   9.459   5.052   8.667  0.2788 -0.3512  0.1619
   78MOL0     C10454   9.341   5.128   8.620  0.0919 -0.4973  0.1797
   78MOL0     C10455   9.240   5.040   8.540 -0.1587  0.6057 -0.5597
   78MOL0     C10456   9.205   4.918   8.624  0.6474  0.3838  0.8524
   78MOL0     C10457   9.084   4.846   8.555  0.1074  0.5769  0.3571
   78MOL0     C10458   9.044   4.739   8.644 -0.9755  0.1987 -0.1628
   78MOL0     C10459   9.020   4.654   8.729 -0.1406  0.7125  0.3011
   78MOL0     C10460   9.695   5.045   8.702 -0.0840  0.0580  0.3624
   78MOL0     C10461   9.822   5.108   8.719 -0.2811  0.0976  0.2190
   78MOL0     C10462   9.936   5.022   8.768 -0.2606  0.9781 -0.2587
   78MOL0     H10463  10.071   5.588   8.930 -0.5098  0.7057 -0.9357
   78MOL0     H10464  10.302   5.696   8.940  1.0962 -2.2700  2.1728
   78MOL0     H10465  10.521   5.746   8.554 -1.8672 -0.8543  0.0841
   78MOL0     H10466  10.430   5.878   8.602  1.6622  1.3832 -2.1569
   78MOL0     H10467  10.680   5.807   8.767  0.3842  2.9025  1.8259
   78MOL0     H10468  10.587   5.948   8.774  1.2414 -0.2386  0.3111
   78MOL0     H10469  10.754   5.861   8.528  1.6389  0.5188 -0.6576
   78MOL0     H10470  10.809   5.986   8.645 -1.0764  1.5610  0.4864
   78MOL0     H10471  10.555   6.018   8.485  0.3358 -0.1508 -1.5680
   78MOL0     H10472  10.615   6.118   8.625  2.6018 -2.4568  1.8972
   78MOL0     H10473  10.817   6.164   8.479 -0.9893  0.7971  0.9766
   78MOL0     H10474  10.729   6.077   8.344 -1.0741 -1.6508  0.8837
   78MOL0     H10475  10.730   6.322   8.329  1.9313 -0.9659  0.9207
   78MOL0     H10476  10.574   6.250   8.319  2.1785 -1.1219 -2.2312
   78MOL0     H10477  10.703   6.369   8.573  3.2471 -0.5953 -3.1353
   78MOL0     H10478  10.534   6.309   8.563 -0.0855 -0.4107 -0.7348
   78MOL0     H10479  10.487   6.491   8.383 -0.6148  0.8541  0.3563
   78MOL0     H10480  10.533   6.554   8.536 -1.4393  0.0445 -0.7953
   78MOL0     H10481  10.844   6.571   8.573 -1.0417 -1.3991 -0.0609
   78MOL0     H10482  11.026   6.816   8.359  0.7802  1.3015  1.1586
   78MOL0     H10483  11.057   6.730   8.509  2.1190  3.7962 -1.2251
   78MOL0     H10484  11.154   6.536   8.347  0.3160 -0.2975  0.2497
   78MOL0     H10485  11.127   6.645   8.220 -1.2522  1.2298 -0.3484
   78MOL0     H10486  11.282   6.809   8.361  0.7588 -0.8060  1.2394
   78MOL0     H10487  11.353   6.678   8.279  0.6377  1.9104 -0.5902
   78MOL0     H10488  11.249   6.643   8.563 -1.1580 -1.5400 -1.4440
   78MOL0     H10489  11.399   6.724   8.563 -2.6541  1.0385 -0.3176
   78MOL0     H10490  11.567   6.751   8.381 -0.9720 -1.7565 -1.2556
   78MOL0     H10491  11.794   6.740   8.342 -0.0061 -0.7727 -0.6942
   78MOL0     H10492  12.177   6.825   8.398 -1.5273 -2.4223 -0.1261
   78MOL0     H10493  12.407   6.868   8.311  0.9631 -1.2726  2.2767
   78MOL0     H10494  12.635   6.530   8.161  0.1175  1.3611  1.4134
   78MOL0     H10495  12.562   6.568   8.006 -1.4719 -3.1748  1.8356
   78MOL0     H10496  12.732   6.763   7.979  2.1114  2.1113  1.9558
   78MOL0     H10497  12.806   6.702   8.121 -1.4671  1.4208 -0.2189
   78MOL0     H10498  12.867   6.496   7.995 -0.3691  0.3954 -0.5992
   78MOL0     H10499  12.755   6.536   7.857  1.1861 -2.0934  0.3324
   78MOL0     H10500  12.874   6.722   7.781  2.3109  1.4399  0.9378
   78MOL0     H10501  12.981   6.575   7.780  0.1594 -1.8032  1.6057
   78MOL0     H10502  13.077   6.661   7.994 -2.7332 -0.6254  1.4731
   78MOL0     H10503  12.991   6.814   7.984 -0.5612  0.4295  0.1454
   78MOL0     H10504  13.167   6.696   7.761  0.0234 -0.2730  0.8714
   78MOL0     H10505  13.106   6.867   7.772 -0.2925 -0.0279 -1.2706
   78MOL0     H10506  13.311   6.763   7.960 -2.6891  1.3619  3.5199
   78MOL0     H10507  13.223   6.911   7.965 -1.0760 -1.3742  0.2618
   78MOL0     H10508  13.320   6.961   7.731 -0.3647  1.4052  1.4924
   78MOL0     H10509  13.454   6.952   7.842  0.5519 -0.3239 -0.5259
   78MOL0     H10510  12.397   6.479   8.128 -1.0460 -0.7008 -0.8748
   78MOL0     H10511  12.145   6.464   8.192 -0.6869  0.3989  1.7254
   78MOL0     H10512  11.798   6.318   8.416 -3.2537 -1.9298  0.8972
   78MOL0     H10513  11.564   6.329   8.479  0.3134  1.7046  3.8917
   78MOL0     H10514  10.340   5.627   8.518 -0.3329  0.0221 -0.6297
   78MOL0     H10515  10.142   5.481   8.520 -1.9501  0.5041  0.4491
   78MOL0     H10516   9.744   5.421   8.628  1.2734  0.1564 -1.8846
   78MOL0     H10517   9.517   5.316   8.635 -0.4791 -1.6450  1.0214
   78MOL0     H10518   9.352   5.214   8.554  0.4937  0.4080  1.3728
   78MOL0     H10519   9.292   5.177   8.705 -3.3985 -2.2413 -0.6580
   78MOL0     H10520   9.274   5.012   8.440 -0.1119  0.6247 -0.5496
   78MOL0     H10521   9.145   5.095   8.541 -0.3433  0.4920  3.2940
   78MOL0     H10522   9.184   4.953   8.725  2.3419  0.6203  1.1581
   78MOL0     H10523   9.287   4.845   8.617  1.2030  1.1099 -0.9699
   78MOL0     H10524   9.002   4.918   8.547  2.9156  4.0098 -0.1965
   78MOL0     H10525   9.111   4.802   8.459  0.6436  0.3255  0.6181
   78MOL0     H10526   8.995   4.584   8.806  0.7030  0.4029  0.3155
   78MOL0     H10527   9.680   4.941   8.730 -2.7331  0.6513  1.4425
   78MOL0     H10528   9.901   4.925   8.804 -0.3635  0.9209 -0.5057
   78MOL0     H10529  10.007   4.999   8.688  2.2899 -2.7951  2.7264
   78MOL0     H10530   9.991   5.064   8.852  1.1842 -1.2393 -0.0268
   79MOL0     O10531   2.941   9.135   6.881  0.1871 -0.5248  0.0453
   79MOL0     C10532   2.854   9.111   6.967  0.8671 -0.3783 -0.6119
   79MOL0     O10533   2.878   9.092   7.108 -0.7757  0.2983  0.0911
   79MOL0     C10534   3.009   9.091   7.152 -0.7255 -0.1998  0.7448
   79MOL0     C10535   3.120   9.038   7.085  1.0277 -0.1777 -0.3353
   79MOL0     C10536   3.246   9.027   7.149  0.7186 -0.1607  1.7330
   79MOL0     C10537   3.261   9.076   7.280 -0.7184 -0.0678  0.5256
   79MOL0     O10538   3.384   9.077   7.339 -0.1000  0.0786  0.1375
   79MOL0     C10539   3.465   9.189   7.296 -0.1930 -0.6186  0.8810
   79MOL0     C10540   3.488   9.276   7.415  0.0714 -0.7295  0.4551
   79MOL0     C10541   3.571   9.228   7.527 -1.5849  0.3811  0.2311
   79MOL0     C10542   3.580   9.307   7.660  0.1137 -0.3447  0.6758
   79MOL0     C10543   3.672   9.237   7.762 -0.6725 -0.3605 -0.4723
   79MOL0     C10544   3.801   9.310   7.776 -0.6314  0.1986 -0.5501
   79MOL0     C10545   3.906   9.291   7.666  0.0709 -0.4092 -0.7976
   79MOL0     C10546   4.008   9.405   7.667  0.3436 -0.1256  0.1083
   79MOL0     N10547   4.113   9.372   7.762 -0.3656 -0.1785 -0.2643
   79MOL0     C10548   4.228   9.293   7.747  0.2376  0.3279 -0.6889
   79MOL0     C10549   4.299   9.306   7.864 -0.1114  0.0920  0.6466
   79MOL0     C10550   4.407   9.208   7.900 -1.0942  0.6004  0.6440
   79MOL0     C10551   4.546   9.276   7.932 -0.1805  0.2273  0.1451
   79MOL0     C10552   4.534   9.372   8.047 -0.2487 -0.3032 -0.4292
   79MOL0     C10553   4.524   9.300   8.184  0.4043 -0.1684  0.2743
   79MOL0     O10554   4.578   9.387   8.282 -0.0426  0.4087 -0.2709
   79MOL0     C10555   4.714   9.376   8.314  0.4702  0.6023  0.4726
   79MOL0     C10556   4.760   9.459   8.409  0.2653  0.4424  0.1471
   79MOL0     C10557   4.897   9.464   8.439  0.7148  0.1605  0.3624
   79MOL0     C10558   4.987   9.378   8.379  0.2362 -0.2498 -1.1270
   79MOL0     C10559   5.130   9.393   8.428  0.4036  0.3805  0.3224
   79MOL0     O10560   5.173   9.514   8.473 -0.0600 -0.5626 -0.2449
   79MOL0     C10561   5.302   9.518   8.510 -1.2642  0.4897 -0.2462
   79MOL0     C10562   5.404   9.530   8.417 -0.3120 -1.1374 -0.4144
   79MOL0     C10563   5.536   9.525   8.465  0.1801 -0.4104 -0.6394
   79MOL0     C10564   5.566   9.495   8.595 -0.1739 -1.1878 -0.2290
   79MOL0     O10565   5.701   9.505   8.623 -0.7068 -0.4646  0.4967
   79MOL0     C10566   5.738   9.471   8.758  0.4750  0.3620 -0.1069
   79MOL0     C10567   5.887   9.441   8.775 -0.1215 -0.3394  0.0079
   79MOL0     C10568   5.944   9.351   8.667  0.5611 -0.0701 -0.3601
   79MOL0     C10569   6.096   9.337   8.686 -0.2822 -0.1366 -1.0583
   79MOL0     C10570   6.141   9.206   8.632  0.1434  0.0848 -0.4112
   79MOL0     C10571   6.289   9.177   8.668 -0.6631  0.4946 -0.2904
   79MOL0     C10572   6.330   9.044   8.613 -0.5380  1.0674  0.2094
   79MOL0     C10573   6.481   9.025   8.616  0.2505  0.1646  0.5344
   79MOL0    Cl10574   6.554   9.065   8.771  0.2179 -0.0669 -0.1021
   79MOL0     C10575   5.458   9.483   8.686 -0.3750  0.0552  0.1397
   79MOL0     C10576   5.330   9.493   8.643  0.0194 -0.3931 -0.9089
   79MOL0     O10577   5.202   9.293   8.404 -0.1895  0.1378 -0.8059
   79MOL0     C10578   4.944   9.302   8.280 -0.2945 -0.9759 -0.4612
   79MOL0     C10579   4.807   9.294   8.244  0.5094 -0.6093 -0.1042
   79MOL0     N10580   4.232   9.405   7.940  0.0280  0.7802 -0.4559
   79MOL0     N10581   4.113   9.425   7.890  0.2514 -0.7966  0.5836
   79MOL0     C10582   3.150   9.143   7.338  0.7517 -0.9020 -0.2794
   79MOL0     C10583   3.029   9.149   7.278 -0.0505 -0.0312  0.8387
   79MOL0     C10584   2.712   9.109   6.917  0.0635  0.5750 -0.5318
   79MOL0     C10585   2.619   9.168   7.007 -0.4153 -0.0777  0.7013
   79MOL0     C10586   2.488   9.187   6.970 -0.0242 -0.3043  0.7335
   79MOL0     C10587   2.438   9.141   6.847  0.0408 -0.3908 -0.5726
   79MOL0     O10588   2.306   9.155   6.825 -0.1831 -0.0560 -0.0526
   79MOL0     C10589   2.233   9.038   6.785 -0.0516  0.2405 -0.0084
   79MOL0     C10590   2.091   9.082   6.788  0.0836  0.0623  0.1987
   79MOL0     C10591   2.042   9.152   6.919 -0.6736 -0.1125 -0.0140
   79MOL0     C10592   1.891   9.135   6.929 -0.0419  0.0360  1.2877
   79MOL0     C10593   1.818   9.215   6.826 -0.1663 -0.8203 -0.7217
   79MOL0     C10594   1.747   9.264   6.735 -0.4734 -0.4267 -0.0558
   79MOL0     C10595   2.523   9.082   6.761 -0.3820  0.3612 -0.2506
   79MOL0     C10596   2.655   9.057   6.796 -0.4427  0.6760  0.0802
   79MOL0     C10597   2.745   9.001   6.689  0.1443 -0.0295 -0.3743
   79MOL0     H10598   3.094   9.012   6.984 -3.2965  2.2309 -0.0774
   79MOL0     H10599   3.327   8.975   7.099 -0.0068 -1.7759  2.1810
   79MOL0     H10600   3.563   9.161   7.258 -0.3834 -0.7340  0.4771
   79MOL0     H10601   3.416   9.252   7.221 -2.6204  0.1115  2.9104
   79MOL0     H10602   3.386   9.305   7.440  0.1971  0.2987 -0.1503
   79MOL0     H10603   3.537   9.371   7.393  0.7344 -0.8461  1.3743
   79MOL0     H10604   3.672   9.221   7.485 -0.6123  0.6542  2.3501
   79MOL0     H10605   3.532   9.131   7.557  2.5667 -1.3779  0.5839
   79MOL0     H10606   3.619   9.409   7.648  2.9400 -1.4663 -0.6265
   79MOL0     H10607   3.478   9.290   7.694 -0.2177 -0.2067 -0.2299
   79MOL0     H10608   3.614   9.251   7.853 -1.0470 -0.4818 -0.6913
   79MOL0     H10609   3.691   9.132   7.738  0.8571 -0.6698  1.7752
   79MOL0     H10610   3.768   9.412   7.797 -5.3836 -1.1191 -0.3014
   79MOL0     H10611   3.856   9.265   7.859  0.8245  1.7313 -0.6515
   79MOL0     H10612   3.859   9.314   7.570 -1.4106  4.6708  0.8179
   79MOL0     H10613   3.948   9.190   7.663  1.0281 -0.0220 -0.6121
   79MOL0     H10614   4.043   9.424   7.565 -2.4295  1.0604 -0.7198
   79MOL0     H10615   3.960   9.498   7.698  0.1036 -0.6773  1.4377
   79MOL0     H10616   4.254   9.220   7.671 -0.7575  0.4067 -1.1138
   79MOL0     H10617   4.374   9.141   7.980 -1.8039 -0.6008 -0.6148
   79MOL0     H10618   4.422   9.139   7.817  1.0264 -1.5360  2.6338
   79MOL0     H10619   4.621   9.198   7.944 -0.2328 -0.2327 -2.1137
   79MOL0     H10620   4.581   9.329   7.843  1.7103  0.7253  1.1475
   79MOL0     H10621   4.457   9.448   8.036  1.7251  1.5637 -2.1083
   79MOL0     H10622   4.624   9.433   8.055 -0.4603 -0.0022 -0.3595
   79MOL0     H10623   4.574   9.203   8.177 -2.5967 -1.7696 -0.8382
   79MOL0     H10624   4.420   9.290   8.217  0.6363  1.6183  1.7509
   79MOL0     H10625   4.685   9.524   8.454  0.0909  1.3634 -1.4148
   79MOL0     H10626   4.924   9.537   8.514 -1.1279  2.4760 -1.0873
   79MOL0     H10627   5.367   9.545   8.317  1.3166 -2.1453 -1.2067
   79MOL0     H10628   5.623   9.529   8.401  0.5185 -0.5091 -0.1820
   79MOL0     H10629   5.705   9.555   8.820  0.4175 -1.5132  2.5669
   79MOL0     H10630   5.689   9.378   8.788  3.2481 -0.7162  1.4370
   79MOL0     H10631   5.949   9.532   8.772 -1.6091  0.6826 -2.2578
   79MOL0     H10632   5.911   9.408   8.877  0.9027  2.7442  0.8943
   79MOL0     H10633   5.883   9.261   8.676 -3.2305  1.7257 -4.2484
   79MOL0     H10634   5.933   9.393   8.567  3.9452 -0.1549 -0.8556
   79MOL0     H10635   6.114   9.339   8.794  3.5104 -3.9971 -1.3576
   79MOL0     H10636   6.148   9.422   8.642 -1.5230  2.6051  2.2773
   79MOL0     H10637   6.126   9.195   8.524  0.7144  4.6141 -1.1835
   79MOL0     H10638   6.079   9.129   8.678 -0.1858  0.3447 -0.4142
   79MOL0     H10639   6.354   9.252   8.624  0.8401  1.1122  2.6971
   79MOL0     H10640   6.304   9.190   8.776 -1.9571 -1.1821  0.1500
   79MOL0     H10641   6.311   9.037   8.505  2.9967 -0.5667 -0.4347
   79MOL0     H10642   6.277   8.964   8.665 -0.5209  2.0583  1.8321
   79MOL0     H10643   6.503   8.921   8.594 -2.0551 -0.0674 -0.9625
   79MOL0     H10644   6.531   9.087   8.541  2.3138 -0.8429  1.0133
   79MOL0     H10645   5.481   9.460   8.790  0.1057 -1.7725 -0.3367
   79MOL0     H10646   5.254   9.486   8.720  1.5453 -0.8765  0.6044
   79MOL0     H10647   5.014   9.228   8.240 -0.7912 -0.7754 -1.7579
   79MOL0     H10648   4.783   9.230   8.159  0.1798 -0.0945 -0.3977
   79MOL0     H10649   3.171   9.204   7.426 -0.7701 -0.1398 -0.4100
   79MOL0     H10650   2.947   9.200   7.328 -0.9359 -1.0834  0.4808
   79MOL0     H10651   2.655   9.212   7.100  3.3700 -1.1694 -0.0536
   79MOL0     H10652   2.418   9.228   7.042 -0.9362 -1.2543  0.4259
   79MOL0     H10653   2.247   8.966   6.866  1.1080  0.1583 -0.2663
   79MOL0     H10654   2.255   8.998   6.686 -1.3708 -1.5350  0.3521
   79MOL0     H10655   2.035   8.993   6.759 -0.3135 -0.0762  1.3474
   79MOL0     H10656   2.084   9.156   6.707 -0.2792  0.9959  1.0579
   79MOL0     H10657   2.071   9.257   6.922 -2.3630  0.4151 -0.8154
   79MOL0     H10658   2.090   9.103   7.005 -3.2486  0.7294  2.0273
   79MOL0     H10659   1.857   9.033   6.908 -5.3237  1.8945 -0.9559
   79MOL0     H10660   1.865   9.155   7.033  1.0197  0.3435  1.5135
   79MOL0     H10661   1.678   9.304   6.663  0.5991 -0.9325 -1.4092
   79MOL0     H10662   2.495   9.073   6.657  1.5184  0.5766 -0.8099
   79MOL0     H10663   2.699   8.967   6.596  3.6897 -0.8700 -2.0095
   79MOL0     H10664   2.819   9.077   6.662  0.8877 -0.9483 -0.9684
   79MOL0     H10665   2.792   8.911   6.730 -0.8273 -1.9919 -3.3141
   80MOL0     O10666   7.420  11.155   6.077  0.1854 -1.1726 -0.4539
   80MOL0     C10667   7.348  11.258   6.067  0.6579 -0.2372  0.7055
   80MOL0     O10668   7.369  11.388   6.107  0.2755  0.6490  0.0178
   80MOL0     C10669   7.488  11.415   6.164 -1.1178  0.3089  0.0597
   80MOL0     C10670   7.514  11.360   6.285 -0.8860  0.6279  0.1606
   80MOL0     C10671   7.637  11.397   6.354  0.3815  0.2724 -0.0882
   80MOL0     C10672   7.723  11.500   6.310 -0.0141 -0.7640 -0.4328
   80MOL0     O10673   7.828  11.537   6.396  0.0065 -1.3432 -0.2157
   80MOL0     C10674   7.919  11.631   6.333  0.2967  0.2105  0.0394
   80MOL0     C10675   8.045  11.666   6.415 -0.3599  1.1187  0.3625
   80MOL0     C10676   8.143  11.730   6.318 -0.1316  0.6670  0.5656
   80MOL0     C10677   8.265  11.786   6.390  0.7646 -0.0139  1.1329
   80MOL0     C10678   8.364  11.662   6.383  0.4984  0.2240  0.6985
   80MOL0     C10679   8.498  11.694   6.454 -0.2830 -0.8139  0.6484
   80MOL0     C10680   8.625  11.608   6.425  0.5724  0.0593 -0.2355
   80MOL0     C10681   8.610  11.466   6.478  0.3951  0.3661 -0.1286
   80MOL0     N10682   8.736  11.400   6.479  0.1486 -0.2776  0.2621
   80MOL0     C10683   8.828  11.403   6.581 -0.5168  0.1941 -0.3184
   80MOL0     C10684   8.941  11.343   6.531  0.1532 -0.1199  0.4912
   80MOL0     C10685   9.067  11.334   6.607 -0.8330 -0.8235  0.1704
   80MOL0     C10686   9.149  11.451   6.568 -0.1172  0.8039 -0.5478
   80MOL0     C10687   9.273  11.459   6.647  0.4860  0.3199 -0.4895
   80MOL0     C10688   9.379  11.564   6.597 -0.1140  1.3247 -0.4398
   80MOL0     O10689   9.462  11.593   6.710  0.5277 -0.1634 -0.2820
   80MOL0     C10690   9.572  11.665   6.672  0.6725  0.6801 -0.1789
   80MOL0     C10691   9.598  11.723   6.543 -1.0578 -0.0373  0.0870
   80MOL0     C10692   9.716  11.788   6.514  0.6466  0.0394 -0.4250
   80MOL0     C10693   9.819  11.805   6.605 -0.0424  0.5395  0.5911
   80MOL0     C10694   9.949  11.861   6.568  0.1407  0.2865  0.5148
   80MOL0     O10695   9.961  11.893   6.437  0.5336  0.1498 -0.2485
   80MOL0     C10696  10.082  11.940   6.388  0.9711 -0.3395  0.4980
   80MOL0     C10697  10.067  12.000   6.263  0.3927 -0.0002 -1.0420
   80MOL0     C10698  10.169  12.059   6.192  0.7711 -0.7138 -0.5093
   80MOL0     C10699  10.296  12.049   6.240 -0.7781  0.1310 -0.5175
   80MOL0     O10700  10.393  12.112   6.171 -0.2338  0.3191  0.2152
   80MOL0     C10701  10.527  12.060   6.163  0.5834  0.1798 -0.3195
   80MOL0     C10702  10.616  12.107   6.047 -0.2406 -0.2160  0.2938
   80MOL0     C10703  10.642  12.252   6.070  0.9604 -0.2240  1.1862
   80MOL0     C10704  10.749  12.307   5.970 -0.2870  0.1225  0.6578
   80MOL0     C10705  10.742  12.461   5.971 -0.1413 -0.1125 -0.1778
   80MOL0     C10706  10.857  12.516   5.888 -0.6612 -0.4550 -0.1127
   80MOL0     C10707  10.865  12.668   5.863  0.2048  0.8925 -0.9363
   80MOL0     C10708  10.862  12.743   5.992  0.9467  0.2584 -0.9659
   80MOL0    Cl10709  10.902  12.917   5.968  0.5421  0.3850 -0.4191
   80MOL0     C10710  10.317  11.984   6.367 -0.1109  0.1536 -0.0085
   80MOL0     C10711  10.212  11.939   6.441 -0.4295  0.0454 -0.5886
   80MOL0     O10712  10.035  11.873   6.660  0.6959 -0.6994 -0.7611
   80MOL0     C10713   9.799  11.745   6.733  0.2390  0.5730  0.8486
   80MOL0     C10714   9.673  11.688   6.770  0.6761 -0.0650  0.8253
   80MOL0     N10715   8.917  11.321   6.399 -0.0826  0.4980 -0.2054
   80MOL0     N10716   8.792  11.339   6.369  0.6437 -0.2476  0.0316
   80MOL0     C10717   7.688  11.551   6.181 -0.3880 -0.1511 -0.9172
   80MOL0     C10718   7.578  11.505   6.112  0.1574 -0.4199 -0.0058
   80MOL0     C10719   7.211  11.238   6.008  0.1817  0.3298 -0.3377
   80MOL0     C10720   7.162  11.330   5.909 -0.2745 -0.2830  0.2547
   80MOL0     C10721   7.030  11.327   5.860 -0.1363  1.1736 -0.0478
   80MOL0     C10722   6.950  11.222   5.890 -0.3824 -0.0732 -0.0599
   80MOL0     O10723   6.826  11.230   5.831  0.8150  0.3145  0.1966
   80MOL0     C10724   6.771  11.103   5.789  0.3845  0.2398  0.3038
   80MOL0     C10725   6.632  11.116   5.726  0.5561 -0.5094  0.5343
   80MOL0     C10726   6.622  11.169   5.574  0.4496  0.0705  0.0340
   80MOL0     C10727   6.531  11.293   5.571  0.4793  0.8200  0.2964
   80MOL0     C10728   6.549  11.366   5.443 -0.2985  0.4090 -0.3191
   80MOL0     C10729   6.565  11.436   5.349 -0.1485  0.7252 -0.2654
   80MOL0     C10730   6.997  11.122   5.973  0.2089 -0.2476 -0.1106
   80MOL0     C10731   7.126  11.135   6.038 -0.2958  1.4166  0.2265
   80MOL0     C10732   7.163  11.031   6.143 -0.0838 -0.1062  0.3257
   80MOL0     H10733   7.454  11.282   6.331 -0.2037 -0.4958 -0.7913
   80MOL0     H10734   7.653  11.343   6.447 -0.4071  0.6910  0.2983
   80MOL0     H10735   7.953  11.598   6.235 -1.0781 -0.3321 -0.2828
   80MOL0     H10736   7.871  11.727   6.311 -1.8072 -0.5071  1.2245
   80MOL0     H10737   8.086  11.575   6.460 -0.9269  0.2637 -0.7985
   80MOL0     H10738   8.028  11.736   6.497 -1.0893  2.0705 -0.5781
   80MOL0     H10739   8.083  11.791   6.250 -1.8008 -1.5632 -0.1056
   80MOL0     H10740   8.168  11.645   6.255 -3.9960 -0.8299  0.7676
   80MOL0     H10741   8.310  11.860   6.323 -3.4903  0.8572 -1.1039
   80MOL0     H10742   8.239  11.821   6.490 -3.5351  0.4371  0.0565
   80MOL0     H10743   8.318  11.581   6.442 -1.8047  1.2853  0.4759
   80MOL0     H10744   8.375  11.626   6.280  0.7380  1.1755  0.3866
   80MOL0     H10745   8.541  11.789   6.421 -0.8449 -1.5005 -2.2781
   80MOL0     H10746   8.478  11.707   6.561 -2.0461  2.0562  0.0934
   80MOL0     H10747   8.707  11.661   6.474  0.9555  1.2067 -2.0382
   80MOL0     H10748   8.655  11.610   6.320  4.0490 -1.2874  0.5803
   80MOL0     H10749   8.563  11.458   6.576 -2.2689 -0.9506 -1.4020
   80MOL0     H10750   8.551  11.403   6.411  0.3484 -1.0744  1.2296
   80MOL0     H10751   8.826  11.435   6.685 -0.8647  0.9548 -0.5587
   80MOL0     H10752   9.061  11.340   6.716 -0.2691 -0.2173  0.1715
   80MOL0     H10753   9.112  11.239   6.577 -0.0725 -0.3187 -0.3143
   80MOL0     H10754   9.172  11.448   6.461 -0.1920  3.3248 -0.6811
   80MOL0     H10755   9.092  11.541   6.594  0.8475  1.0907  0.6992
   80MOL0     H10756   9.308  11.356   6.641 -1.9273 -0.5289 -1.1729
   80MOL0     H10757   9.249  11.479   6.752 -2.8109 -2.2154 -0.5900
   80MOL0     H10758   9.329  11.649   6.551 -0.5646  1.4289  0.2305
   80MOL0     H10759   9.437  11.517   6.517 -1.8638  2.3311 -2.3703
   80MOL0     H10760   9.540  11.710   6.452  2.8543 -0.9800 -2.5359
   80MOL0     H10761   9.737  11.833   6.418  0.8635  3.1246  0.9370
   80MOL0     H10762   9.964  12.005   6.229 -0.6140  2.1933  1.8737
   80MOL0     H10763  10.145  12.124   6.109 -0.7035  0.7755  0.9964
   80MOL0     H10764  10.574  12.089   6.258  2.4970 -0.9489 -0.8718
   80MOL0     H10765  10.518  11.952   6.153  3.3061 -0.0027 -1.6582
   80MOL0     H10766  10.706  12.046   6.042 -1.7170 -2.3682 -2.0961
   80MOL0     H10767  10.568  12.105   5.948 -1.5630 -0.7004  0.9164
   80MOL0     H10768  10.544  12.300   6.068 -0.0876 -2.2245 -1.9007
   80MOL0     H10769  10.693  12.270   6.165 -1.0102  4.1024  1.6554
   80MOL0     H10770  10.721  12.272   5.871  1.3145 -0.7589  0.4915
   80MOL0     H10771  10.849  12.268   5.989  0.6958  1.1691 -1.9670
   80MOL0     H10772  10.740  12.492   6.076 -2.3452 -3.6155  1.0079
   80MOL0     H10773  10.649  12.488   5.922 -0.1572 -0.4344 -0.3250
   80MOL0     H10774  10.950  12.491   5.941 -0.3978  2.1674  0.8420
   80MOL0     H10775  10.854  12.470   5.789  0.8571  0.1452 -0.4688
   80MOL0     H10776  10.787  12.709   5.798 -1.3667  1.0571  0.9585
   80MOL0     H10777  10.959  12.689   5.811  1.0166  2.4177  0.9964
   80MOL0     H10778  10.761  12.731   6.031  0.8581 -0.3109 -1.3631
   80MOL0     H10779  10.936  12.694   6.056  1.5837 -0.0774 -1.9279
   80MOL0     H10780  10.410  11.978   6.423  0.6654 -3.1580 -1.4170
   80MOL0     H10781  10.238  11.907   6.541  1.9305 -1.6374 -1.6332
   80MOL0     H10782   9.878  11.757   6.807 -1.1982  1.3943  2.3163
   80MOL0     H10783   9.651  11.661   6.873  1.3498 -1.8239  0.5432
   80MOL0     H10784   7.741  11.630   6.128 -1.9295  0.0689 -2.2151
   80MOL0     H10785   7.547  11.549   6.017 -1.8012  0.6036  1.0444
   80MOL0     H10786   7.219  11.420   5.889 -0.7040 -0.6369 -3.0591
   80MOL0     H10787   6.990  11.398   5.788  0.3482 -0.1922 -1.7405
   80MOL0     H10788   6.746  11.040   5.875 -0.1613 -0.2723 -0.2210
   80MOL0     H10789   6.834  11.055   5.713  0.6847 -0.6975  1.1127
   80MOL0     H10790   6.579  11.188   5.789 -0.1213 -0.0036 -0.5715
   80MOL0     H10791   6.583  11.020   5.747  0.6263 -0.1637  2.4622
   80MOL0     H10792   6.578  11.092   5.511  0.1693 -1.3550  1.8813
   80MOL0     H10793   6.721  11.197   5.537 -0.5507  0.8376 -2.2051
   80MOL0     H10794   6.427  11.265   5.585 -0.0660  2.0434 -1.1105
   80MOL0     H10795   6.567  11.365   5.646  3.1735 -1.2506  1.1654
   80MOL0     H10796   6.560  11.518   5.280  1.9855  1.4035  0.3141
   80MOL0     H10797   6.932  11.038   5.997  0.7575  0.3700  4.3188
   80MOL0     H10798   7.082  10.961   6.167  1.2494 -2.1803 -0.9093
   80MOL0     H10799   7.249  10.971   6.110  0.6125 -1.3330  3.9111
   80MOL0     H10800   7.200  11.078   6.235 -1.0335  3.0279 -0.7697
   81MOL0     O10801   0.367  11.088   7.706  0.4487 -0.4726  0.1840
   81MOL0     C10802   0.319  11.150   7.610 -0.3341  1.1952 -0.5304
   81MOL0     O10803   0.367  11.264   7.555 -0.1800  0.2180  0.1967
   81MOL0     C10804   0.491  11.313   7.604  1.1728  0.0156 -0.2673
   81MOL0     C10805   0.518  11.348   7.737  0.2370  0.2594  1.0206
   81MOL0     C10806   0.637  11.416   7.770  0.4692 -0.3582 -0.2735
   81MOL0     C10807   0.734  11.434   7.674  0.3442  0.7350 -0.8915
   81MOL0     O10808   0.844  11.491   7.720  1.1600 -0.3023 -0.7035
   81MOL0     C10809   0.969  11.445   7.665  0.6107 -0.5938 -0.8758
   81MOL0     C10810   1.071  11.497   7.757  0.2359 -0.2735  0.4504
   81MOL0     C10811   1.214  11.467   7.707  0.9048  0.6349  0.5155
   81MOL0     C10812   1.310  11.587   7.725  0.7084 -0.1459  0.3337
   81MOL0     C10813   1.449  11.541   7.675 -0.1073  0.1266 -0.1787
   81MOL0     C10814   1.549  11.653   7.665 -0.7168  0.4071 -0.1182
   81MOL0     C10815   1.692  11.602   7.620 -0.7999  0.8976  0.3910
   81MOL0     C10816   1.760  11.522   7.726  0.4331  0.0382  0.3511
   81MOL0     N10817   1.897  11.506   7.693 -0.4052  0.3541 -0.8381
   81MOL0     C10818   1.983  11.599   7.644 -0.1780  0.4394 -0.1868
   81MOL0     C10819   2.092  11.528   7.608 -0.6850 -0.0725  0.3608
   81MOL0     C10820   2.217  11.600   7.571 -0.1653  0.3392 -0.6320
   81MOL0     C10821   2.331  11.569   7.673 -0.2454  0.7957 -0.4804
   81MOL0     C10822   2.417  11.442   7.627 -0.1780 -0.6842  0.3351
   81MOL0     C10823   2.548  11.444   7.706 -0.4640  0.3764 -0.5234
   81MOL0     O10824   2.532  11.403   7.838  0.3796  0.2923 -0.3507
   81MOL0     C10825   2.647  11.373   7.911  0.1687 -0.4297  0.0382
   81MOL0     C10826   2.659  11.429   8.036 -0.0841  0.1511  0.4714
   81MOL0     C10827   2.770  11.407   8.114  0.8088 -0.6234 -0.2365
   81MOL0     C10828   2.880  11.338   8.063  0.5385 -0.2519  0.1987
   81MOL0     C10829   3.005  11.322   8.138 -0.0790  0.2940  0.0698
   81MOL0     O10830   3.122  11.293   8.068 -0.5544 -0.3942 -0.2863
   81MOL0     C10831   3.239  11.258   8.133  0.2498  0.1266  0.5490
   81MOL0     C10832   3.284  11.318   8.248 -1.4503 -0.3978 -0.6388
   81MOL0     C10833   3.402  11.272   8.301  0.0243  1.2039  0.6857
   81MOL0     C10834   3.471  11.162   8.241  0.2053 -0.6535  0.1141
   81MOL0     O10835   3.588  11.122   8.295 -0.2162  0.8264  0.6187
   81MOL0     C10836   3.681  11.023   8.233 -0.3196  0.2369 -1.6757
   81MOL0     C10837   3.814  11.049   8.294 -0.1433  0.7658 -0.2015
   81MOL0     C10838   3.913  10.950   8.239  0.4463  0.4092  0.1461
   81MOL0     C10839   4.051  10.986   8.301 -1.2397 -0.6021  0.2640
   81MOL0     C10840   4.142  10.865   8.285 -0.2149  0.4547  0.0771
   81MOL0     C10841   4.277  10.898   8.347 -0.4184 -0.5427 -0.2735
   81MOL0     C10842   4.382  10.782   8.327 -0.3904  0.8840  0.4218
   81MOL0     C10843   4.381  10.687   8.448 -0.4633  0.4621  1.0501
   81MOL0    Cl10844   4.447  10.769   8.593  0.2622  0.1260  0.3233
   81MOL0     C10845   3.417  11.094   8.135  0.7100 -0.6212  0.5876
   81MOL0     C10846   3.303  11.149   8.076  0.3732  0.7158  0.2255
   81MOL0     O10847   2.995  11.339   8.260  0.6750 -0.0730  0.4366
   81MOL0     C10848   2.863  11.268   7.945 -0.7361  0.1537 -0.5607
   81MOL0     C10849   2.750  11.287   7.871 -0.0805  0.1856  0.8038
   81MOL0     N10850   2.075  11.395   7.640  0.0689 -0.2099  0.2920
   81MOL0     N10851   1.951  11.382   7.673 -0.3281 -0.5344 -1.9260
   81MOL0     C10852   0.713  11.397   7.537  0.7570 -0.3294 -0.0549
   81MOL0     C10853   0.591  11.332   7.506 -0.4348  0.4963 -0.6607
   81MOL0     C10854   0.188  11.108   7.560  0.5350  0.6471  0.4536
   81MOL0     C10855   0.102  11.208   7.510 -0.0874 -0.5130 -0.4397
   81MOL0     C10856  -0.037  11.187   7.487  0.3285 -0.1188 -0.1633
   81MOL0     C10857  -0.086  11.059   7.504  0.5153  0.0750 -0.0410
   81MOL0     O10858  -0.216  11.019   7.483 -0.0920 -0.0233 -0.0311
   81MOL0     C10859  -0.318  11.100   7.421 -0.0445  0.4963  0.2588
   81MOL0     C10860  -0.454  11.034   7.439 -0.0089 -0.1555 -0.0664
   81MOL0     C10861  -0.448  10.900   7.364 -0.7223  1.2660 -0.1378
   81MOL0     C10862  -0.587  10.829   7.370  0.2592 -0.3239  0.5080
   81MOL0     C10863  -0.703  10.913   7.349 -0.2773 -0.2746  0.6457
   81MOL0     C10864  -0.802  10.978   7.342 -0.2334 -0.1180 -0.3024
   81MOL0     C10865   0.003  10.957   7.537 -0.5128  0.3045 -0.1616
   81MOL0     C10866   0.132  10.980   7.568  0.4757 -0.6505 -1.2922
   81MOL0     C10867   0.211  10.856   7.616  0.6370  0.1221  0.1121
   81MOL0     H10868   0.447  11.330   7.818 -0.7846  4.1671  1.2350
   81MOL0     H10869   0.654  11.439   7.875 -0.8788 -1.3274  0.1864
   81MOL0     H10870   0.976  11.336   7.673  1.0497 -0.4630  1.2952
   81MOL0     H10871   0.996  11.466   7.561  2.1062  1.8233 -0.0812
   81MOL0     H10872   1.056  11.447   7.853 -0.6577 -0.0619  0.4347
   81MOL0     H10873   1.063  11.606   7.766  2.6909  0.0071 -0.1409
   81MOL0     H10874   1.219  11.425   7.606  2.3313  1.4573  0.2167
   81MOL0     H10875   1.253  11.388   7.773 -0.9442  0.7136  1.7811
   81MOL0     H10876   1.275  11.670   7.662 -1.0673  0.3406  1.8833
   81MOL0     H10877   1.332  11.619   7.827  1.0928  2.2748 -0.4289
   81MOL0     H10878   1.484  11.471   7.751  0.4805 -1.2936 -1.7041
   81MOL0     H10879   1.454  11.493   7.576  0.9913  1.7225 -0.9484
   81MOL0     H10880   1.517  11.734   7.599 -2.3605  1.0320  1.3532
   81MOL0     H10881   1.571  11.682   7.769  2.3124  0.3911 -0.6541
   81MOL0     H10882   1.754  11.691   7.604  1.6167 -0.0172  3.5057
   81MOL0     H10883   1.689  11.545   7.527  1.0958 -1.0302  1.4134
   81MOL0     H10884   1.745  11.560   7.827 -0.1967 -1.9354  1.0307
   81MOL0     H10885   1.704  11.428   7.729 -0.1975  0.2997 -1.8243
   81MOL0     H10886   1.974  11.705   7.622  0.5252  0.3018 -1.1911
   81MOL0     H10887   2.244  11.575   7.468 -0.2327  4.2211 -1.7348
   81MOL0     H10888   2.198  11.708   7.574 -0.1169  0.3429 -0.4725
   81MOL0     H10889   2.391  11.660   7.682  2.0591 -0.7557  0.8730
   81MOL0     H10890   2.300  11.549   7.776  0.4467  2.0567 -0.0039
   81MOL0     H10891   2.432  11.457   7.519  2.7048  0.4008  0.7874
   81MOL0     H10892   2.367  11.348   7.649  4.3549 -3.3654  0.4095
   81MOL0     H10893   2.594  11.543   7.696  1.1705 -0.0051  2.3658
   81MOL0     H10894   2.609  11.375   7.648  1.1722  2.1991 -1.0783
   81MOL0     H10895   2.576  11.494   8.063 -1.6124 -1.0242 -1.1890
   81MOL0     H10896   2.777  11.453   8.212  0.4985 -1.2510  0.0858
   81MOL0     H10897   3.234  11.397   8.302 -1.5096  0.0312 -1.3110
   81MOL0     H10898   3.439  11.318   8.391 -0.4081  1.7932  0.5674
   81MOL0     H10899   3.654  10.919   8.255  1.5649 -0.3714 -2.0139
   81MOL0     H10900   3.688  11.033   8.124 -1.9156 -1.2927 -1.9551
   81MOL0     H10901   3.826  11.155   8.270 -1.6829  1.2986  1.1748
   81MOL0     H10902   3.813  11.027   8.401  0.4368 -0.9414 -0.5239
   81MOL0     H10903   3.873  10.858   8.282  0.5530 -0.2669 -1.1564
   81MOL0     H10904   3.923  10.950   8.130  0.3147  2.6566  0.0744
   81MOL0     H10905   4.046  11.016   8.406  2.8519  1.3198  0.1072
   81MOL0     H10906   4.088  11.070   8.242 -1.5048 -1.3671 -1.0433
   81MOL0     H10907   4.160  10.841   8.180 -1.5685  0.4653 -0.1805
   81MOL0     H10908   4.087  10.781   8.328 -0.8871  1.0707  0.4521
   81MOL0     H10909   4.309  10.984   8.288  0.0082 -1.3427 -1.2109
   81MOL0     H10910   4.271  10.920   8.454 -0.2202 -4.6908  0.7449
   81MOL0     H10911   4.480  10.825   8.307 -0.4468 -0.2637 -2.8087
   81MOL0     H10912   4.352  10.730   8.236  2.2198  1.2463 -0.7129
   81MOL0     H10913   4.274  10.671   8.467 -0.5509  1.8736  1.8736
   81MOL0     H10914   4.435  10.594   8.426 -0.0173  0.7997  0.7146
   81MOL0     H10915   3.479  11.017   8.090  0.3744 -1.7296  1.9461
   81MOL0     H10916   3.257  11.108   7.986 -0.5421 -2.0638  1.8356
   81MOL0     H10917   2.943  11.210   7.901 -1.4230  0.9295 -2.9894
   81MOL0     H10918   2.727  11.231   7.781 -0.2637 -1.8631  2.0643
   81MOL0     H10919   0.789  11.413   7.461 -1.3786  0.6499 -2.0994
   81MOL0     H10920   0.580  11.301   7.402  3.8880  1.8060 -1.7590
   81MOL0     H10921   0.144  11.307   7.495 -0.5257 -0.0563  1.0806
   81MOL0     H10922  -0.102  11.270   7.457  0.7693 -0.0636 -0.9811
   81MOL0     H10923  -0.286  11.121   7.318  0.1502 -0.2401  0.1657
   81MOL0     H10924  -0.322  11.197   7.471  1.5300  0.6862  0.0820
   81MOL0     H10925  -0.524  11.107   7.396  0.0684  1.0796  1.7606
   81MOL0     H10926  -0.483  11.018   7.543  1.0755 -2.3530 -0.0534
   81MOL0     H10927  -0.367  10.839   7.404  1.0432  1.2723 -3.3218
   81MOL0     H10928  -0.430  10.918   7.257 -2.6557 -0.7253 -0.8741
   81MOL0     H10929  -0.586  10.746   7.298 -1.9771  0.3531 -0.3834
   81MOL0     H10930  -0.603  10.774   7.463 -2.1942 -2.4058 -1.0053
   81MOL0     H10931  -0.903  11.013   7.331 -1.0617 -2.0761  0.4601
   81MOL0     H10932  -0.016  10.851   7.544 -0.5887  0.4171  1.6867
   81MOL0     H10933   0.172  10.763   7.575  1.7907 -0.2509 -0.1714
   81MOL0     H10934   0.317  10.856   7.591  0.3357 -0.6014 -1.2517
   81MOL0     H10935   0.193  10.855   7.724  1.0577  0.9700  0.2001
   82MOL0     O10936   2.843   3.827  10.963 -0.3371 -0.4271 -0.6795
   82MOL0     C10937   2.776   3.837  10.864 -0.0761 -0.2055 -0.3540
   82MOL0     O10938   2.799   3.932  10.770  0.1370  0.4223  0.2601
   82MOL0     C10939   2.892   4.037  10.777 -0.7617 -0.2283  0.2272
   82MOL0     C10940   2.957   4.085  10.659  0.1134  0.3423  0.2991
   82MOL0     C10941   3.043   4.193  10.655 -0.0514 -0.0902  0.5011
   82MOL0     C10942   3.066   4.261  10.777 -0.0082  0.3306  0.5097
   82MOL0     O10943   3.145   4.371  10.770  0.7799  0.2497 -0.1692
   82MOL0     C10944   3.231   4.412  10.884  1.0616 -0.1160  0.7152
   82MOL0     C10945   3.360   4.453  10.820  0.2682  0.5004  0.0925
   82MOL0     C10946   3.468   4.493  10.938  0.6119 -0.3132  0.3728
   82MOL0     C10947   3.610   4.533  10.884  1.1433  0.2835 -0.8363
   82MOL0     C10948   3.704   4.546  11.002  0.4999  0.2212 -0.0654
   82MOL0     C10949   3.848   4.597  10.966  0.2786 -0.4965 -0.2850
   82MOL0     C10950   3.952   4.571  11.077 -0.0641  0.0499 -0.4336
   82MOL0     C10951   4.082   4.653  11.042 -0.0531 -0.1716  0.1441
   82MOL0     N10952   4.156   4.605  10.926 -0.3706  0.6061 -0.4451
   82MOL0     C10953   4.271   4.527  10.934  0.5092  0.8727 -0.3544
   82MOL0     C10954   4.306   4.497  10.801  0.2565 -0.3004  0.0667
   82MOL0     C10955   4.418   4.420  10.746 -0.7022  0.7241  0.5986
   82MOL0     C10956   4.534   4.515  10.690  0.1763 -0.1493 -0.2008
   82MOL0     C10957   4.622   4.580  10.811  0.8430  0.1862  0.0609
   82MOL0     C10958   4.727   4.675  10.757  0.0970 -0.6160  0.4393
   82MOL0     O10959   4.802   4.740  10.858 -0.2371  0.5148 -0.3619
   82MOL0     C10960   4.921   4.812  10.818  0.4952  0.0642 -0.1251
   82MOL0     C10961   5.017   4.817  10.915  0.1551 -0.4311  0.4582
   82MOL0     C10962   5.136   4.877  10.891 -0.6440 -0.1461 -0.0504
   82MOL0     C10963   5.169   4.919  10.757  0.5453  0.2577 -0.0466
   82MOL0     C10964   5.301   4.991  10.740 -1.2725 -0.0705  0.2724
   82MOL0     O10965   5.393   4.974  10.837  0.2459 -0.0924  0.2558
   82MOL0     C10966   5.523   4.999  10.802 -0.5389  0.1089  0.1322
   82MOL0     C10967   5.604   5.089  10.873 -0.0727  0.6397 -0.6528
   82MOL0     C10968   5.730   5.121  10.824 -0.6168 -0.3739 -0.2399
   82MOL0     C10969   5.782   5.052  10.712 -0.2484 -0.1018 -0.5108
   82MOL0     O10970   5.905   5.082  10.648  0.7283 -0.1242 -0.4840
   82MOL0     C10971   6.022   5.084  10.738  0.2927 -0.0352  0.9030
   82MOL0     C10972   6.154   5.110  10.664 -0.4960 -0.2564  0.5099
   82MOL0     C10973   6.273   5.107  10.764 -0.1052  0.1201 -1.2518
   82MOL0     C10974   6.414   5.131  10.704  0.1015  0.0843 -0.0850
   82MOL0     C10975   6.466   5.273  10.717  0.4286 -0.0598  0.2501
   82MOL0     C10976   6.602   5.306  10.651  0.7952 -0.0913 -0.3605
   82MOL0     C10977   6.629   5.451  10.680 -0.0560  0.0627  0.6882
   82MOL0     C10978   6.765   5.486  10.619  1.0298 -0.3946  0.4302
   82MOL0    Cl10979   6.796   5.666  10.623  0.1334 -0.1585  0.1260
   82MOL0     C10980   5.703   4.968  10.642  0.1834  0.5342  0.2254
   82MOL0     C10981   5.579   4.933  10.684  0.3608  0.6528 -0.0914
   82MOL0     O10982   5.311   5.050  10.630  0.4661  0.0992 -0.1250
   82MOL0     C10983   5.071   4.912  10.655 -0.2285  0.9756  0.5950
   82MOL0     C10984   4.945   4.851  10.682 -0.0670 -0.2053 -0.0531
   82MOL0     N10985   4.216   4.553  10.719  0.0333 -0.8810 -0.2867
   82MOL0     N10986   4.131   4.615  10.792 -0.1200 -0.2250  0.4401
   82MOL0     C10987   3.005   4.212  10.894  0.7700  0.6602  0.5412
   82MOL0     C10988   2.931   4.093  10.897 -0.0838  0.1036 -0.6652
   82MOL0     C10989   2.665   3.742  10.825 -0.3326 -0.2300 -0.9471
   82MOL0     C10990   2.568   3.791  10.737 -0.0309 -0.2655  0.5639
   82MOL0     C10991   2.466   3.705  10.692  0.0773  0.2155  0.5340
   82MOL0     C10992   2.455   3.578  10.745 -0.2006 -0.1509 -0.3529
   82MOL0     O10993   2.339   3.505  10.724 -0.6656 -0.6382 -0.2699
   82MOL0     C10994   2.350   3.369  10.684  0.9234  0.3396  0.1899
   82MOL0     C10995   2.249   3.359  10.563  0.0397 -0.3710  0.2786
   82MOL0     C10996   2.320   3.432  10.442 -0.0968 -0.6033  0.4018
   82MOL0     C10997   2.245   3.414  10.310  0.1934 -0.1165  0.1605
   82MOL0     C10998   2.105   3.446  10.330  0.6645  0.3595  0.2575
   82MOL0     C10999   1.987   3.472  10.348 -0.6645  0.7705 -0.3944
   82MOL0     C11000   2.544   3.538  10.839  0.1032  0.8369 -0.2189
   82MOL0     C11001   2.658   3.614  10.872  0.0040  0.4964 -0.4105
   82MOL0     C11002   2.749   3.561  10.974 -0.8802 -0.1723 -0.3838
   82MOL0     H11003   2.945   4.025  10.570  0.4741  0.8959 -0.1237
   82MOL0     H11004   3.092   4.225  10.564  0.6245  0.4784  1.0411
   82MOL0     H11005   3.193   4.500  10.937  0.1949 -0.4133  0.6084
   82MOL0     H11006   3.232   4.333  10.959  2.0627 -3.3886 -2.4358
   82MOL0     H11007   3.342   4.538  10.753  1.9493  1.2906  0.6009
   82MOL0     H11008   3.396   4.372  10.758  1.2213  1.3561 -0.4984
   82MOL0     H11009   3.489   4.414  11.009  3.7200 -1.5398 -1.6757
   82MOL0     H11010   3.431   4.581  10.992  1.5242  0.7065 -0.5970
   82MOL0     H11011   3.653   4.454  10.821  0.7988 -0.1066 -0.5871
   82MOL0     H11012   3.598   4.628  10.831 -0.6674  0.2294 -0.5800
   82MOL0     H11013   3.662   4.602  11.087  0.2694 -2.2500  1.5544
   82MOL0     H11014   3.717   4.450  11.051  2.5287  0.6305  0.2925
   82MOL0     H11015   3.878   4.546  10.874 -0.0428 -0.0832 -0.6217
   82MOL0     H11016   3.843   4.704  10.941 -0.0358 -0.4978 -0.2277
   82MOL0     H11017   3.964   4.462  11.081 -0.6011  0.0136  0.1861
   82MOL0     H11018   3.917   4.599  11.176 -0.8178  0.0852 -0.7045
   82MOL0     H11019   4.060   4.759  11.025 -1.4560 -0.5065 -0.2870
   82MOL0     H11020   4.141   4.650  11.134  1.8096 -2.3683 -1.0231
   82MOL0     H11021   4.329   4.490  11.018 -1.4523  0.2450  0.7984
   82MOL0     H11022   4.454   4.361  10.832 -1.6307 -0.7828 -0.0100
   82MOL0     H11023   4.386   4.353  10.666  1.9377  0.4622 -0.3588
   82MOL0     H11024   4.596   4.453  10.624 -2.2958 -1.2829 -1.5734
   82MOL0     H11025   4.491   4.589  10.623 -0.6235 -1.4971 -1.2165
   82MOL0     H11026   4.662   4.493  10.864 -0.3689 -0.1421  0.4674
   82MOL0     H11027   4.547   4.637  10.867  1.4480  2.1701 -1.0689
   82MOL0     H11028   4.679   4.754  10.698  0.8726 -0.0481  0.5478
   82MOL0     H11029   4.781   4.615  10.684 -1.1556  0.4248 -1.4453
   82MOL0     H11030   5.002   4.786  11.017 -0.0242 -1.4875  0.1209
   82MOL0     H11031   5.216   4.866  10.964 -0.0592  0.2174 -0.6283
   82MOL0     H11032   5.562   5.138  10.960  1.6901  2.7820 -0.9236
   82MOL0     H11033   5.785   5.202  10.869 -0.0445 -1.2553  0.6783
   82MOL0     H11034   6.015   5.151  10.824 -1.9282  1.0933 -0.0884
   82MOL0     H11035   6.030   4.982  10.775  2.6050 -0.6378 -0.9823
   82MOL0     H11036   6.166   5.039  10.582 -0.6051 -0.3597  0.5827
   82MOL0     H11037   6.151   5.213  10.629 -0.3697 -0.1994  0.6663
   82MOL0     H11038   6.256   5.181  10.843  0.3782 -0.8913 -0.1760
   82MOL0     H11039   6.288   5.013  10.817  1.2436  0.5445 -0.8382
   82MOL0     H11040   6.420   5.098  10.600  1.8043 -1.8491  0.5533
   82MOL0     H11041   6.484   5.069  10.761  0.1638 -1.2164 -1.5335
   82MOL0     H11042   6.480   5.299  10.822  1.7844  0.3445 -0.0222
   82MOL0     H11043   6.384   5.330  10.672  1.5623  1.0028 -0.5377
   82MOL0     H11044   6.675   5.245  10.704  0.4141  1.8450  2.7037
   82MOL0     H11045   6.583   5.281  10.547 -1.8503 -1.9338  0.4595
   82MOL0     H11046   6.645   5.472  10.786 -0.1307 -0.2768  0.7670
   82MOL0     H11047   6.555   5.519  10.637  0.9931  1.8043  1.5377
   82MOL0     H11048   6.840   5.423  10.667 -1.3159 -1.2837  3.2164
   82MOL0     H11049   6.750   5.448  10.518 -0.9243 -2.1087  1.2991
   82MOL0     H11050   5.745   4.919  10.555  0.6422  0.5463  0.4361
   82MOL0     H11051   5.516   4.865  10.628 -0.9375 -0.3988  2.4767
   82MOL0     H11052   5.096   4.938  10.552  0.0700 -2.4563 -0.3124
   82MOL0     H11053   4.874   4.835  10.602  0.6278 -0.9373 -0.5354
   82MOL0     H11054   3.022   4.274  10.982  1.2766  0.4368  0.6014
   82MOL0     H11055   2.902   4.061  10.997 -1.9361  1.1631 -0.8157
   82MOL0     H11056   2.576   3.896  10.711  1.5313 -0.2146  1.1650
   82MOL0     H11057   2.387   3.734  10.624 -0.1059 -0.5962  0.3838
   82MOL0     H11058   2.323   3.300  10.765  1.5252  0.3978  0.4468
   82MOL0     H11059   2.454   3.345  10.659  0.9206  0.0576  0.4482
   82MOL0     H11060   2.154   3.407  10.588  0.7318  0.3942  1.5403
   82MOL0     H11061   2.244   3.252  10.542  0.6197 -1.0524  3.2218
   82MOL0     H11062   2.420   3.392  10.423 -1.1731 -3.1685 -0.2811
   82MOL0     H11063   2.325   3.542  10.443  3.1569 -0.6129 -1.0783
   82MOL0     H11064   2.286   3.484  10.236 -1.3708  1.8838  1.1057
   82MOL0     H11065   2.266   3.314  10.270 -0.8608 -1.2852  2.3773
   82MOL0     H11066   1.889   3.491  10.386  0.0295  1.3853  1.1953
   82MOL0     H11067   2.521   3.447  10.894  1.6903  1.7007  1.9934
   82MOL0     H11068   2.724   3.607  11.071  2.9057 -1.2241  1.2721
   82MOL0     H11069   2.743   3.453  10.988  1.8728 -0.2300  0.9514
   82MOL0     H11070   2.854   3.584  10.955  0.1180 -2.5107  1.6577
   83MOL0     O11071   4.877   7.634   3.698  0.2905  0.1463  0.3004
   83MOL0     C11072   4.823   7.565   3.782  0.8893 -0.8844 -0.5201
   83MOL0     O11073   4.887   7.494   3.875 -0.2142 -0.0474 -0.2848
   83MOL0     C11074   5.024   7.500   3.902 -0.4967 -0.0515  0.1981
   83MOL0     C11075   5.064   7.413   4.002  0.4466  0.2026 -0.1548
   83MOL0     C11076   5.196   7.411   4.046 -0.7326  0.2711 -0.0626
   83MOL0     C11077   5.294   7.495   3.977  0.7807 -0.1029  0.0614
   83MOL0     O11078   5.419   7.521   4.019  0.2067 -0.0263 -0.1965
   83MOL0     C11079   5.487   7.426   4.093 -0.2049 -0.2713 -0.5658
   83MOL0     C11080   5.628   7.473   4.125 -0.1463 -0.2529 -0.0834
   83MOL0     C11081   5.701   7.372   4.206 -0.8251  0.5639 -0.0390
   83MOL0     C11082   5.844   7.424   4.231 -0.3974 -0.0509  0.0435
   83MOL0     C11083   5.942   7.388   4.116  0.3808 -0.0625  0.0082
   83MOL0     C11084   6.087   7.428   4.147  0.0907 -0.3595 -0.0894
   83MOL0     C11085   6.181   7.392   4.032  0.6451  0.1169  0.6194
   83MOL0     C11086   6.322   7.431   4.052  0.6616  0.5070  1.1041
   83MOL0     N11087   6.386   7.353   4.156 -0.9410 -0.3714 -0.3047
   83MOL0     C11088   6.447   7.232   4.130  0.0397  0.5650 -0.1519
   83MOL0     C11089   6.495   7.200   4.251 -0.4554  0.3594  0.5796
   83MOL0     C11090   6.580   7.079   4.278 -0.0706  0.4841  0.6890
   83MOL0     C11091   6.730   7.118   4.301  0.5273  0.5659 -0.0790
   83MOL0     C11092   6.804   7.132   4.174  0.5564 -0.3524 -0.3365
   83MOL0     C11093   6.937   7.197   4.204 -0.4923  0.2897 -0.6889
   83MOL0     O11094   6.980   7.256   4.085 -0.1270  0.3235 -0.0600
   83MOL0     C11095   7.118   7.280   4.089  0.6747 -0.4268  0.3105
   83MOL0     C11096   7.152   7.420   4.094 -0.1130 -0.6199  0.5089
   83MOL0     C11097   7.289   7.453   4.101  0.5106  0.2305 -0.0592
   83MOL0     C11098   7.389   7.352   4.100  0.4134  0.2945 -0.1414
   83MOL0     C11099   7.529   7.384   4.086  0.0774 -0.0830 -0.4993
   83MOL0     O11100   7.616   7.283   4.058 -0.4499  0.2654  0.0211
   83MOL0     C11101   7.750   7.298   4.026  0.0216 -0.2712  0.5321
   83MOL0     C11102   7.830   7.408   4.058  0.0613 -0.7274  0.3718
   83MOL0     C11103   7.961   7.425   4.026 -1.5931  0.2781  0.8310
   83MOL0     C11104   8.034   7.325   3.956  0.5714  0.2368 -0.1036
   83MOL0     O11105   8.163   7.354   3.926  0.0841  0.2225 -0.1024
   83MOL0     C11106   8.230   7.262   3.838 -0.3732  0.1735  0.5039
   83MOL0     C11107   8.370   7.316   3.807  0.2406 -1.3321  0.1943
   83MOL0     C11108   8.361   7.436   3.707  0.4326  0.2837 -0.1491
   83MOL0     C11109   8.480   7.527   3.712 -0.2551  1.1193 -0.7584
   83MOL0     C11110   8.607   7.444   3.682 -0.2557 -0.0540  0.2459
   83MOL0     C11111   8.724   7.543   3.683 -1.1119  0.7954  1.1270
   83MOL0     C11112   8.858   7.474   3.698  0.0049 -0.5977  0.1719
   83MOL0     C11113   8.907   7.373   3.589  0.0720 -0.2557 -0.1842
   83MOL0    Cl11114   8.872   7.448   3.433  0.3913  0.1517 -0.0128
   83MOL0     C11115   7.956   7.206   3.930  0.0517  0.8531  0.1634
   83MOL0     C11116   7.820   7.196   3.962  0.2969  0.3054  0.8948
   83MOL0     O11117   7.562   7.499   4.091  0.6300  0.3044  0.0631
   83MOL0     C11118   7.350   7.218   4.102 -0.6651  0.4745 -0.1625
   83MOL0     C11119   7.217   7.185   4.094 -0.3566  1.2565 -0.3802
   83MOL0     N11120   6.481   7.307   4.348  0.5808  0.2264  0.2857
   83MOL0     N11121   6.406   7.396   4.284  0.0935  0.5465 -0.4038
   83MOL0     C11122   5.252   7.579   3.873  0.3487  0.0074 -0.1244
   83MOL0     C11123   5.116   7.579   3.834  0.0998 -0.3579 -0.4693
   83MOL0     C11124   4.672   7.548   3.779 -0.2840  0.1905 -0.1176
   83MOL0     C11125   4.602   7.491   3.891  0.0011 -0.2276 -0.1750
   83MOL0     C11126   4.462   7.488   3.893 -0.2355  0.5641  0.0197
   83MOL0     C11127   4.382   7.541   3.789 -0.8980 -0.2907  1.0546
   83MOL0     O11128   4.244   7.540   3.811  0.2152  0.5880 -1.5040
   83MOL0     C11129   4.171   7.663   3.809  0.3556 -0.7074  0.7706
   83MOL0     C11130   4.090   7.693   3.933 -1.2469  0.0556 -0.0045
   83MOL0     C11131   4.030   7.839   3.931  0.0683  0.6621  0.4275
   83MOL0     C11132   3.919   7.846   4.039 -0.0455 -0.3918  0.0312
   83MOL0     C11133   3.813   7.753   4.002  0.4763 -0.5185 -0.1231
   83MOL0     C11134   3.716   7.709   3.944  0.8234  0.3036  0.2475
   83MOL0     C11135   4.448   7.587   3.676 -0.2618 -0.4968 -0.2969
   83MOL0     C11136   4.588   7.589   3.669 -0.3039 -0.0518 -0.3644
   83MOL0     C11137   4.628   7.654   3.538  0.2971  0.5874  0.3803
   83MOL0     H11138   4.984   7.352   4.045  0.1477  1.0558  0.5313
   83MOL0     H11139   5.226   7.356   4.135  0.3441  2.6841  1.1492
   83MOL0     H11140   5.436   7.404   4.188 -0.4907  3.0474  0.1748
   83MOL0     H11141   5.500   7.331   4.041  2.4733  0.3461 -1.1697
   83MOL0     H11142   5.620   7.565   4.184 -0.9828  0.8752 -1.8729
   83MOL0     H11143   5.665   7.496   4.024 -1.3605  0.2096 -0.4430
   83MOL0     H11144   5.709   7.278   4.151  1.1324  1.2126 -0.9559
   83MOL0     H11145   5.646   7.373   4.300 -0.3676  0.4082  0.2312
   83MOL0     H11146   5.835   7.533   4.230  1.3163  0.1248  0.2666
   83MOL0     H11147   5.872   7.383   4.328  0.6030  0.8278  0.1353
   83MOL0     H11148   5.944   7.279   4.111  1.4195 -0.1985  2.2775
   83MOL0     H11149   5.908   7.430   4.021  0.5438 -0.0784 -0.0568
   83MOL0     H11150   6.089   7.536   4.162 -1.8645 -0.5572  2.0788
   83MOL0     H11151   6.118   7.372   4.237 -0.5433 -2.4032 -1.0776
   83MOL0     H11152   6.155   7.438   3.937 -1.1905  0.2345  1.1401
   83MOL0     H11153   6.177   7.283   4.018  0.0014  0.3863 -1.6131
   83MOL0     H11154   6.361   7.402   3.954 -2.5788 -0.1795 -0.1092
   83MOL0     H11155   6.316   7.538   4.074 -1.1619  0.3213  1.6655
   83MOL0     H11156   6.456   7.178   4.037  0.8395  4.0474 -2.2999
   83MOL0     H11157   6.545   7.041   4.375  0.2382  2.5009  1.6296
   83MOL0     H11158   6.570   7.010   4.194  1.1055  1.2436 -0.0909
   83MOL0     H11159   6.737   7.211   4.358 -1.1822  1.1329 -0.7122
   83MOL0     H11160   6.780   7.044   4.364  1.0022  1.4958  0.6503
   83MOL0     H11161   6.748   7.194   4.103 -1.3158  1.8354  2.8105
   83MOL0     H11162   6.815   7.033   4.127  2.9795 -1.0284  1.4372
   83MOL0     H11163   7.006   7.124   4.249 -1.3450 -1.2019 -1.7107
   83MOL0     H11164   6.918   7.271   4.282 -3.4122 -3.5154  2.6208
   83MOL0     H11165   7.085   7.501   4.119 -0.8470 -1.9213  3.1511
   83MOL0     H11166   7.318   7.554   4.127  4.3939 -0.0711 -2.4454
   83MOL0     H11167   7.779   7.473   4.129 -0.9684 -1.6070  0.4641
   83MOL0     H11168   8.005   7.521   4.049 -2.6733  0.5059  2.0735
   83MOL0     H11169   8.240   7.165   3.889 -0.7757  1.0315  2.3083
   83MOL0     H11170   8.174   7.265   3.744 -0.2628 -1.0933  0.3751
   83MOL0     H11171   8.408   7.363   3.898 -1.5321 -1.9606  1.3050
   83MOL0     H11172   8.440   7.240   3.771  0.6761 -0.9621  0.2463
   83MOL0     H11173   8.352   7.401   3.604 -3.7878 -1.8726  0.7172
   83MOL0     H11174   8.280   7.507   3.724 -1.8705 -1.7171 -2.1035
   83MOL0     H11175   8.491   7.586   3.803 -0.5690  2.9460 -1.8350
   83MOL0     H11176   8.471   7.600   3.631 -0.4966  1.3190 -0.5514
   83MOL0     H11177   8.604   7.384   3.590 -3.4498  0.8779 -0.3794
   83MOL0     H11178   8.616   7.379   3.770 -2.3151  0.3666  0.8209
   83MOL0     H11179   8.735   7.598   3.589  0.4696  0.9647  1.3794
   83MOL0     H11180   8.715   7.614   3.765  0.4661  0.7271  1.3933
   83MOL0     H11181   8.843   7.425   3.794 -1.4546  1.5490  1.1101
   83MOL0     H11182   8.939   7.547   3.711 -0.6125 -0.1152  1.4333
   83MOL0     H11183   9.016   7.368   3.591  0.1538  1.0853 -0.3650
   83MOL0     H11184   8.868   7.272   3.601 -3.3892  1.1530  1.7268
   83MOL0     H11185   7.992   7.113   3.887 -1.6848 -0.5417  1.5498
   83MOL0     H11186   7.768   7.103   3.939 -1.1644  1.0788  0.9766
   83MOL0     H11187   7.423   7.140   4.083  0.4695  1.9225 -2.2094
   83MOL0     H11188   7.188   7.082   4.076  2.7174  0.3107 -0.4816
   83MOL0     H11189   5.328   7.634   3.818  1.1592 -2.2998 -1.4718
   83MOL0     H11190   5.092   7.643   3.750 -2.0339 -0.6999 -0.1901
   83MOL0     H11191   4.642   7.437   3.976 -0.3821 -4.1876 -2.2731
   83MOL0     H11192   4.416   7.463   3.988 -3.1506  1.6777 -0.9975
   83MOL0     H11193   4.103   7.660   3.723 -0.2843  3.3640  0.9314
   83MOL0     H11194   4.229   7.753   3.787 -0.0591 -0.5601  0.2626
   83MOL0     H11195   4.153   7.670   4.019 -0.7162 -1.6154 -0.7972
   83MOL0     H11196   4.008   7.621   3.941 -0.9173 -0.3511 -0.2572
   83MOL0     H11197   3.994   7.849   3.828 -1.5889  2.4957  1.1228
   83MOL0     H11198   4.108   7.912   3.951 -0.3697  1.0782  0.6513
   83MOL0     H11199   3.972   7.819   4.131 -0.6657 -0.5461  0.3468
   83MOL0     H11200   3.869   7.943   4.045 -1.0740 -0.8619 -0.6512
   83MOL0     H11201   3.636   7.669   3.885 -1.4834  1.1918  2.5810
   83MOL0     H11202   4.374   7.609   3.600 -1.5994 -2.8375  0.2208
   83MOL0     H11203   4.631   7.763   3.548 -1.5903  0.7367 -0.3433
   83MOL0     H11204   4.727   7.626   3.500 -0.0985  0.2691 -0.4344
   83MOL0     H11205   4.563   7.614   3.460  2.7170 -0.5869 -1.1538
   84MOL0     O11206   3.893   9.476   2.385 -0.5317  0.4685  0.5938
   84MOL0     C11207   3.882   9.496   2.507 -1.0089  0.5271  0.6652
   84MOL0     O11208   3.975   9.483   2.609  0.7124 -0.0223  0.5744
   84MOL0     C11209   4.100   9.445   2.567 -0.0049 -0.4374  0.0939
   84MOL0     C11210   4.132   9.312   2.551 -0.7319 -0.2890  0.6650
   84MOL0     C11211   4.258   9.265   2.523 -0.0078  0.3744 -0.6525
   84MOL0     C11212   4.367   9.364   2.531  0.4118 -0.4765 -0.9919
   84MOL0     O11213   4.492   9.318   2.488 -1.3785  0.2639 -0.4554
   84MOL0     C11214   4.607   9.394   2.529  1.0750  0.3501 -0.8150
   84MOL0     C11215   4.730   9.313   2.488 -0.9744  0.2353  0.9346
   84MOL0     C11216   4.865   9.387   2.522 -0.2684 -0.5887  0.3434
   84MOL0     C11217   4.987   9.296   2.539 -0.4379 -0.1087  0.0117
   84MOL0     C11218   5.104   9.368   2.611 -0.2819 -0.1507  0.2947
   84MOL0     C11219   5.220   9.282   2.641  0.1470  0.2750  0.2281
   84MOL0     C11220   5.293   9.245   2.515  0.2477  1.0812  0.3602
   84MOL0     C11221   5.393   9.130   2.531  0.4856  0.9129  0.5489
   84MOL0     N11222   5.526   9.177   2.583 -0.4163 -0.3389  0.0239
   84MOL0     C11223   5.621   9.214   2.491  0.0355 -0.0719 -0.0281
   84MOL0     C11224   5.723   9.260   2.567 -1.4383 -0.8058 -0.2232
   84MOL0     C11225   5.852   9.328   2.510 -0.2115  0.0508  0.2781
   84MOL0     C11226   5.955   9.220   2.495 -0.3587 -0.3678  0.0198
   84MOL0     C11227   6.078   9.263   2.426  0.9478  0.2696  1.0533
   84MOL0     C11228   6.154   9.376   2.499 -0.2828 -1.2133  0.4188
   84MOL0     O11229   6.259   9.405   2.408 -0.3677  0.0151  0.4414
   84MOL0     C11230   6.382   9.347   2.439  0.4562 -0.7819  0.0179
   84MOL0     C11231   6.403   9.239   2.524  0.2489 -0.0143  0.1116
   84MOL0     C11232   6.535   9.180   2.546  0.1036 -0.2062  0.1354
   84MOL0     C11233   6.653   9.239   2.495  0.0030 -0.1409  0.6022
   84MOL0     C11234   6.784   9.189   2.515 -0.2105  0.1789  1.4867
   84MOL0     O11235   6.889   9.251   2.452  0.1374  0.2178 -0.5096
   84MOL0     C11236   7.022   9.201   2.456  0.6383 -0.8427  0.2326
   84MOL0     C11237   7.063   9.071   2.468 -0.5646  0.3164 -0.1210
   84MOL0     C11238   7.200   9.042   2.444  0.3147  0.6560  0.2179
   84MOL0     C11239   7.293   9.142   2.428  0.3249 -0.1166 -0.4387
   84MOL0     O11240   7.424   9.103   2.422  0.2706 -0.6648  0.0297
   84MOL0     C11241   7.480   9.111   2.292  0.1243 -0.7508  1.0626
   84MOL0     C11242   7.552   9.249   2.275 -0.4504 -0.0576  0.7429
   84MOL0     C11243   7.649   9.269   2.397 -0.0436 -0.0382  0.1161
   84MOL0     C11244   7.728   9.398   2.395  0.0286  0.0924  0.1116
   84MOL0     C11245   7.797   9.424   2.527  0.1264  0.0744 -0.2165
   84MOL0     C11246   7.903   9.534   2.506 -0.3033 -0.2492 -0.3444
   84MOL0     C11247   7.973   9.564   2.633  0.3315  0.3762  0.1312
   84MOL0     C11248   8.086   9.664   2.624  0.0702 -1.2761  0.0598
   84MOL0    Cl11249   8.030   9.835   2.614 -0.4344 -0.5403  0.6511
   84MOL0     C11250   7.250   9.266   2.417 -0.0868  0.3894 -0.0323
   84MOL0     C11251   7.112   9.300   2.438  0.0857  0.1033  0.3502
   84MOL0     O11252   6.792   9.081   2.572 -0.3952  0.0078 -0.1720
   84MOL0     C11253   6.622   9.353   2.404  0.6790 -0.4159 -0.9658
   84MOL0     C11254   6.491   9.399   2.376 -0.0806  0.1760 -0.6766
   84MOL0     N11255   5.692   9.246   2.698 -0.0433 -0.0440  0.1849
   84MOL0     N11256   5.580   9.189   2.710  0.7216 -0.0230 -0.4501
   84MOL0     C11257   4.345   9.503   2.559  0.0547  1.4804  0.2124
   84MOL0     C11258   4.208   9.541   2.568  0.0327  0.5452  1.1905
   84MOL0     C11259   3.750   9.564   2.545 -0.0295 -0.2259 -0.1881
   84MOL0     C11260   3.755   9.635   2.668  0.2269 -0.7330  0.0399
   84MOL0     C11261   3.638   9.691   2.724 -0.2760  0.7746 -0.3937
   84MOL0     C11262   3.512   9.662   2.675 -0.6409  0.6663  0.4218
   84MOL0     O11263   3.409   9.702   2.760  0.3773  0.4907  0.5793
   84MOL0     C11264   3.280   9.712   2.693  0.5311  0.5098 -0.0677
   84MOL0     C11265   3.191   9.817   2.751  0.4266  1.1683  0.4695
   84MOL0     C11266   3.262   9.948   2.752 -0.7589  0.0737 -0.7910
   84MOL0     C11267   3.166  10.073   2.758 -0.7067 -0.5414 -1.1495
   84MOL0     C11268   3.111  10.098   2.625 -0.4252 -0.6816  0.9970
   84MOL0     C11269   3.057  10.133   2.518  0.3710 -0.1507 -0.2405
   84MOL0     C11270   3.503   9.576   2.557  0.4667  0.0914  0.2607
   84MOL0     C11271   3.623   9.533   2.494 -0.2027 -0.7209 -0.1933
   84MOL0     C11272   3.605   9.419   2.404 -0.0014 -0.4711 -0.2432
   84MOL0     H11273   4.050   9.243   2.571  0.6796 -2.3241 -0.3148
   84MOL0     H11274   4.266   9.159   2.500 -0.3671  0.4912 -1.3188
   84MOL0     H11275   4.606   9.495   2.487 -0.8766  1.4926  1.7221
   84MOL0     H11276   4.618   9.407   2.637  2.5423  0.8772 -1.0000
   84MOL0     H11277   4.729   9.289   2.381 -1.0278  0.7679  0.8102
   84MOL0     H11278   4.726   9.213   2.533  1.2800  1.3006  3.7707
   84MOL0     H11279   4.838   9.439   2.614  0.2679 -0.5499  0.4780
   84MOL0     H11280   4.893   9.455   2.440  2.6612  1.4935  2.8606
   84MOL0     H11281   4.956   9.201   2.584  1.1056 -1.1570 -1.0461
   84MOL0     H11282   5.023   9.264   2.441  0.3919 -2.1211  0.9040
   84MOL0     H11283   5.138   9.454   2.552  0.4588 -0.5322  0.1610
   84MOL0     H11284   5.061   9.394   2.708 -0.1592  0.1148  0.2801
   84MOL0     H11285   5.285   9.322   2.720 -1.1777  0.9136  1.0313
   84MOL0     H11286   5.177   9.189   2.679  1.0519 -1.2219 -2.2132
   84MOL0     H11287   5.348   9.331   2.476  0.9229 -0.6387 -2.8757
   84MOL0     H11288   5.218   9.218   2.440 -0.4891  1.5840  0.9018
   84MOL0     H11289   5.352   9.064   2.609 -2.2842  0.4110 -1.1920
   84MOL0     H11290   5.403   9.060   2.448  0.5199  0.0002  1.3050
   84MOL0     H11291   5.621   9.203   2.383  1.3519  1.1486 -0.1713
   84MOL0     H11292   5.839   9.373   2.411 -0.9848  2.8315  1.5557
   84MOL0     H11293   5.889   9.407   2.576  1.1179  3.0545 -3.6983
   84MOL0     H11294   5.974   9.182   2.596  2.4373  2.0731  0.5651
   84MOL0     H11295   5.907   9.146   2.431  1.8015 -2.2604  0.4758
   84MOL0     H11296   6.038   9.290   2.327 -1.2427  1.3257  2.1345
   84MOL0     H11297   6.138   9.176   2.400 -1.0464  0.0641 -3.9418
   84MOL0     H11298   6.184   9.340   2.598 -0.3432 -1.8732  0.2054
   84MOL0     H11299   6.099   9.468   2.519  0.7507  0.1523 -2.3829
   84MOL0     H11300   6.325   9.177   2.566  0.0018  1.5548  2.1210
   84MOL0     H11301   6.548   9.097   2.615  0.2585  1.1064  1.7382
   84MOL0     H11302   6.996   8.987   2.483  0.5073 -0.2568  1.9286
   84MOL0     H11303   7.226   8.937   2.454 -1.1749  0.2906  0.5414
   84MOL0     H11304   7.559   9.035   2.289 -0.0375 -0.9226 -2.2171
   84MOL0     H11305   7.406   9.099   2.213  0.1630  2.4351  0.4006
   84MOL0     H11306   7.617   9.264   2.189 -0.0263  1.1910  1.2600
   84MOL0     H11307   7.477   9.327   2.261 -1.3002 -1.1933 -1.5517
   84MOL0     H11308   7.581   9.274   2.482  0.4900  2.3012  0.4488
   84MOL0     H11309   7.717   9.186   2.416  1.8498  1.4125 -0.0805
   84MOL0     H11310   7.661   9.482   2.375 -2.0395 -1.1402  1.4717
   84MOL0     H11311   7.807   9.384   2.320  2.1318 -0.6858  2.3245
   84MOL0     H11312   7.840   9.337   2.577  1.5129  0.3813 -0.8203
   84MOL0     H11313   7.720   9.473   2.587  0.9756  0.3966  0.6228
   84MOL0     H11314   7.970   9.504   2.424 -1.6867  0.0470 -1.6263
   84MOL0     H11315   7.855   9.628   2.478 -1.7263  0.4479  3.7859
   84MOL0     H11316   8.032   9.478   2.666  2.1090  1.2839 -0.5076
   84MOL0     H11317   7.914   9.579   2.724 -0.8912 -2.7458 -0.0572
   84MOL0     H11318   8.148   9.664   2.714  2.4197  0.8621 -1.4378
   84MOL0     H11319   8.147   9.645   2.536 -0.0866  0.4421 -0.4620
   84MOL0     H11320   7.320   9.350   2.420  0.2534  0.1149  2.8802
   84MOL0     H11321   7.076   9.400   2.418  2.6043  1.0364  0.0732
   84MOL0     H11322   6.700   9.404   2.350 -1.0130  2.3806 -0.9286
   84MOL0     H11323   6.480   9.481   2.305 -0.1883  0.0736 -0.7783
   84MOL0     H11324   4.421   9.581   2.547 -0.7782  2.3049  0.1538
   84MOL0     H11325   4.179   9.646   2.571 -2.6852  0.0284 -1.8328
   84MOL0     H11326   3.848   9.661   2.717  0.9773 -1.6053 -0.8732
   84MOL0     H11327   3.643   9.744   2.819 -0.7748 -0.9898  0.6655
   84MOL0     H11328   3.221   9.619   2.692  2.4113 -0.7721  1.4296
   84MOL0     H11329   3.284   9.746   2.589 -0.2497 -0.1364 -0.3203
   84MOL0     H11330   3.173   9.792   2.856 -1.0831 -2.8638 -0.5367
   84MOL0     H11331   3.087   9.822   2.716 -0.4072 -0.6256  2.4456
   84MOL0     H11332   3.314   9.948   2.656  0.0338 -3.8478 -0.5298
   84MOL0     H11333   3.325   9.953   2.840 -1.8961  2.4524 -0.0309
   84MOL0     H11334   3.080  10.053   2.822 -0.6380 -2.3624 -1.5630
   84MOL0     H11335   3.220  10.159   2.799 -2.7977  1.0710 -1.6243
   84MOL0     H11336   2.997  10.163   2.435  0.5599  1.9273  0.3200
   84MOL0     H11337   3.406   9.536   2.529 -0.1887  0.5375  1.7916
   84MOL0     H11338   3.676   9.342   2.435  1.6260  1.3810  0.8907
   84MOL0     H11339   3.506   9.372   2.410 -0.5486  0.6103 -0.4481
   84MOL0     H11340   3.624   9.444   2.300  3.9018  1.0434  0.6360
   85MOL0     O11341   5.890   2.200   9.703 -0.3763 -0.0889  0.3767
   85MOL0     C11342   5.820   2.148   9.788 -0.4004 -0.2546  0.1912
   85MOL0     O11343   5.858   2.055   9.880  0.1152 -0.0277 -0.4267
   85MOL0     C11344   5.980   1.993   9.869  0.9592  0.7391 -1.2673
   85MOL0     C11345   6.050   1.969   9.989  0.3307  0.8301  0.2665
   85MOL0     C11346   6.169   1.897   9.991 -0.2425  0.5156  0.4052
   85MOL0     C11347   6.223   1.841   9.877  0.6702  0.3274  0.5501
   85MOL0     O11348   6.342   1.771   9.873 -0.2269  0.0086 -0.2294
   85MOL0     C11349   6.384   1.683   9.767 -0.5531  0.1078 -1.0457
   85MOL0     C11350   6.517   1.613   9.794  0.6773 -0.0277  0.1871
   85MOL0     C11351   6.535   1.504   9.691  0.1891  0.1952 -0.2066
   85MOL0     C11352   6.635   1.394   9.733  0.5320  1.6423  0.1080
   85MOL0     C11353   6.666   1.292   9.623 -0.1407 -0.2831  0.2204
   85MOL0     C11354   6.770   1.346   9.525  0.2694 -0.2657  0.2871
   85MOL0     C11355   6.792   1.245   9.404  0.2727 -1.0586  0.7999
   85MOL0     C11356   6.850   1.317   9.278  0.5424  0.0381 -0.1255
   85MOL0     N11357   6.851   1.215   9.167 -0.1648 -0.3840  0.1268
   85MOL0     C11358   6.970   1.159   9.123 -0.5798  0.7079 -0.5093
   85MOL0     C11359   6.937   1.075   9.024 -0.2226 -0.1451  0.0805
   85MOL0     C11360   7.004   0.977   8.930 -0.9035  0.0414  0.2928
   85MOL0     C11361   7.124   0.923   9.017 -0.0699 -0.1857 -0.2871
   85MOL0     C11362   7.179   0.810   8.934 -0.5565  1.3387 -0.1899
   85MOL0     C11363   7.312   0.753   8.987  0.9102  0.4970 -0.2090
   85MOL0     O11364   7.388   0.700   8.877 -0.8334  0.2375  0.1931
   85MOL0     C11365   7.518   0.661   8.906  0.0366 -0.4569 -0.1058
   85MOL0     C11366   7.560   0.562   8.997  0.0530 -0.5720  0.0531
   85MOL0     C11367   7.695   0.529   8.991 -0.0313  0.5005 -0.8861
   85MOL0     C11368   7.798   0.593   8.917  0.7153 -0.1308  0.0037
   85MOL0     C11369   7.940   0.550   8.936 -0.7608 -0.9739 -0.4434
   85MOL0     O11370   8.035   0.627   8.872 -0.3541  0.7070 -0.0260
   85MOL0     C11371   8.172   0.610   8.886 -0.4615 -0.0618 -0.7949
   85MOL0     C11372   8.245   0.526   8.974  0.5697 -0.3438 -0.3868
   85MOL0     C11373   8.388   0.517   8.981  0.2318 -0.3404  0.6287
   85MOL0     C11374   8.464   0.605   8.902 -0.3831 -0.4136  0.0568
   85MOL0     O11375   8.598   0.593   8.920  0.1686  0.2324  0.2842
   85MOL0     C11376   8.669   0.713   8.894 -0.0776  0.0873  1.2508
   85MOL0     C11377   8.814   0.678   8.864  0.0534  0.6116  0.1864
   85MOL0     C11378   8.895   0.807   8.870  0.6239  0.3232  0.0607
   85MOL0     C11379   9.038   0.753   8.858  0.1032 -0.3702 -0.2863
   85MOL0     C11380   9.150   0.853   8.841  0.3827  0.7646  0.1444
   85MOL0     C11381   9.284   0.797   8.883 -0.2724  0.1148 -0.3880
   85MOL0     C11382   9.397   0.899   8.866  0.5668  1.0825  0.4651
   85MOL0     C11383   9.524   0.828   8.905 -0.0264 -0.1889  0.3278
   85MOL0    Cl11384   9.669   0.932   8.907 -0.1782 -0.5017  0.1241
   85MOL0     C11385   8.396   0.680   8.803  0.3076  0.5101 -0.8243
   85MOL0     C11386   8.254   0.676   8.798 -0.3785  0.3106 -0.0245
   85MOL0     O11387   7.953   0.447   8.999  0.1820  0.0517  0.4360
   85MOL0     C11388   7.752   0.688   8.824  0.2011 -0.4114 -0.3606
   85MOL0     C11389   7.615   0.710   8.815 -0.3395  0.6286 -0.5805
   85MOL0     N11390   6.800   1.084   9.014  0.3929  0.1215  0.2866
   85MOL0     N11391   6.747   1.172   9.089 -0.5018 -0.1078 -0.3008
   85MOL0     C11392   6.161   1.869   9.753  0.0777  0.3868  0.2761
   85MOL0     C11393   6.038   1.940   9.748  0.2193  0.3558  0.7371
   85MOL0     C11394   5.685   2.194   9.804 -0.1834 -0.4813 -0.1308
   85MOL0     C11395   5.605   2.140   9.903  0.9412  0.0826  0.0631
   85MOL0     C11396   5.469   2.179   9.923  0.2869 -1.1103 -0.7486
   85MOL0     C11397   5.407   2.274   9.848 -0.2734 -0.7795 -0.9771
   85MOL0     O11398   5.282   2.321   9.862 -0.5816 -0.6767  0.1843
   85MOL0     C11399   5.193   2.264   9.958  0.0336 -0.2343 -0.7230
   85MOL0     C11400   5.120   2.139   9.907  0.2903 -0.0118  0.4342
   85MOL0     C11401   5.037   2.085  10.011  0.4624  0.2518 -0.2442
   85MOL0     C11402   4.935   1.997   9.946 -0.0948  0.5065 -0.6823
   85MOL0     C11403   4.856   1.927  10.047  0.3160 -0.7088 -0.0003
   85MOL0     C11404   4.791   1.868  10.136  0.0329 -0.2787  0.1075
   85MOL0     C11405   5.485   2.332   9.745  0.3635  0.4812 -0.4070
   85MOL0     C11406   5.622   2.301   9.722 -0.0201  0.2957 -0.3809
   85MOL0     C11407   5.690   2.363   9.603  0.4185  0.8326 -1.1492
   85MOL0     H11408   6.021   2.007  10.086 -1.2608  0.1071  0.1081
   85MOL0     H11409   6.229   1.895  10.082  0.5845 -0.4075 -0.1365
   85MOL0     H11410   6.306   1.608   9.752 -1.2219 -0.2290  3.0792
   85MOL0     H11411   6.392   1.740   9.674 -0.0666  1.4500 -0.2078
   85MOL0     H11412   6.516   1.581   9.898  1.0383  1.9371  0.8499
   85MOL0     H11413   6.601   1.683   9.791  1.1365 -0.6016 -1.1345
   85MOL0     H11414   6.575   1.562   9.607 -2.6199  1.4063 -0.8256
   85MOL0     H11415   6.447   1.452   9.652  0.6118  0.5091 -1.6689
   85MOL0     H11416   6.729   1.438   9.768  0.5688  1.3587  0.3696
   85MOL0     H11417   6.591   1.336   9.815 -0.1564 -1.0426 -2.0126
   85MOL0     H11418   6.715   1.202   9.662  1.9810 -0.7217 -3.0681
   85MOL0     H11419   6.576   1.269   9.565  0.6265 -2.9952 -0.0327
   85MOL0     H11420   6.736   1.444   9.490  1.7145  0.6483  1.3013
   85MOL0     H11421   6.866   1.358   9.577 -0.9782  1.1654  2.4013
   85MOL0     H11422   6.697   1.201   9.371  0.9684  0.1324 -3.3875
   85MOL0     H11423   6.856   1.167   9.446 -0.6490 -1.9553  0.5819
   85MOL0     H11424   6.779   1.392   9.242  1.5048  1.3892  0.6862
   85MOL0     H11425   6.946   1.367   9.294  0.5610  0.0003 -0.1212
   85MOL0     H11426   7.071   1.164   9.164 -0.8341 -0.5400  0.3289
   85MOL0     H11427   6.945   0.892   8.893  1.3356 -1.0442 -0.9586
   85MOL0     H11428   7.043   1.037   8.848  0.6268  1.8646  2.2732
   85MOL0     H11429   7.195   1.004   9.036  0.2778  0.2444 -2.9736
   85MOL0     H11430   7.096   0.898   9.119 -1.2047  3.7569  0.5291
   85MOL0     H11431   7.199   0.853   8.836  0.8433 -0.0657 -0.5630
   85MOL0     H11432   7.101   0.736   8.917 -0.8926  1.7398 -0.3934
   85MOL0     H11433   7.291   0.681   9.067 -1.7110  2.3529  0.9311
   85MOL0     H11434   7.362   0.841   9.027  1.3970  0.3870 -0.5676
   85MOL0     H11435   7.487   0.516   9.063  0.3626 -1.4244 -0.1974
   85MOL0     H11436   7.716   0.463   9.075 -1.0647  2.7731  1.3097
   85MOL0     H11437   8.199   0.468   9.053  0.1647  0.9133  0.3232
   85MOL0     H11438   8.440   0.451   9.051  0.0657 -1.9395 -0.6919
   85MOL0     H11439   8.621   0.764   8.809  0.0747 -3.1854 -0.9969
   85MOL0     H11440   8.655   0.772   8.985  0.4354  1.0086  0.7445
   85MOL0     H11441   8.844   0.596   8.931 -0.3397  0.6564  0.4229
   85MOL0     H11442   8.821   0.635   8.764  0.8649  1.3019 -0.0618
   85MOL0     H11443   8.865   0.878   8.792 -2.5447 -2.3602 -1.4207
   85MOL0     H11444   8.875   0.852   8.968 -3.1985 -0.4750 -0.1815
   85MOL0     H11445   9.052   0.683   8.774  0.0120 -0.8756  0.1122
   85MOL0     H11446   9.054   0.704   8.954 -0.3503  0.4914  0.2313
   85MOL0     H11447   9.119   0.943   8.894 -2.5027 -0.0756  0.1047
   85MOL0     H11448   9.154   0.874   8.734 -2.0816  0.0343 -0.1593
   85MOL0     H11449   9.268   0.774   8.989 -1.7518  2.0799 -0.1186
   85MOL0     H11450   9.302   0.705   8.828 -0.2793 -3.3594  4.6688
   85MOL0     H11451   9.385   0.990   8.925 -0.1273  1.4709 -0.2581
   85MOL0     H11452   9.410   0.938   8.765 -0.2211  3.0250  1.0570
   85MOL0     H11453   9.502   0.783   9.003 -4.1637  0.8565  0.0599
   85MOL0     H11454   9.536   0.745   8.835 -2.4954 -2.0244  1.8751
   85MOL0     H11455   8.444   0.740   8.726  0.7098  3.0884  1.2714
   85MOL0     H11456   8.212   0.736   8.718  0.2456  0.7216 -0.0577
   85MOL0     H11457   7.815   0.743   8.755 -1.3899 -1.3415 -2.6753
   85MOL0     H11458   7.577   0.778   8.740 -0.0541  1.7812  0.2844
   85MOL0     H11459   6.197   1.825   9.661 -3.6469  0.3289 -1.3453
   85MOL0     H11460   5.991   1.954   9.651  0.3062  3.3382  1.0350
   85MOL0     H11461   5.650   2.059   9.960  2.3142 -0.7121 -2.0407
   85MOL0     H11462   5.412   2.132  10.003  1.5356 -0.8571  0.3259
   85MOL0     H11463   5.125   2.344   9.986  0.1607 -1.4395  3.8104
   85MOL0     H11464   5.247   2.237  10.050  0.5397 -3.2790 -1.7848
   85MOL0     H11465   5.188   2.063   9.868 -0.2359  0.0409 -0.6213
   85MOL0     H11466   5.059   2.165   9.820  2.5854 -2.7497 -2.2579
   85MOL0     H11467   4.987   2.167  10.064 -0.0150  0.9066 -1.6568
   85MOL0     H11468   5.094   2.032  10.088  0.1005 -1.2317 -0.9669
   85MOL0     H11469   4.868   2.061   9.888 -2.3941  1.3499  2.6129
   85MOL0     H11470   4.989   1.928   9.881  0.0844  0.3535 -0.3688
   85MOL0     H11471   4.730   1.804  10.197 -0.9579  1.5864  1.1945
   85MOL0     H11472   5.433   2.408   9.687 -0.9062  1.9106  2.3875
   85MOL0     H11473   5.764   2.432   9.643  0.5711 -0.3587  0.7533
   85MOL0     H11474   5.720   2.284   9.534 -2.5696  1.5141 -3.4449
   85MOL0     H11475   5.617   2.432   9.561 -0.5743  1.5711  1.5892
   86MOL0     O11476   9.155   1.237   8.773 -0.5492  0.0254  0.2022
   86MOL0     C11477   9.199   1.260   8.886 -0.7477 -0.0979 -0.9192
   86MOL0     O11478   9.328   1.308   8.921 -0.0807  0.2133  0.2283
   86MOL0     C11479   9.426   1.322   8.819  0.0108  0.0621 -0.4308
   86MOL0     C11480   9.429   1.418   8.720 -0.0520  0.4156  0.6448
   86MOL0     C11481   9.537   1.432   8.629 -0.2032 -0.4360  0.1353
   86MOL0     C11482   9.658   1.363   8.651 -0.6991 -0.2559 -1.0069
   86MOL0     O11483   9.771   1.390   8.577  0.8813 -0.1257  0.5972
   86MOL0     C11484   9.890   1.310   8.602  0.4341  0.4294  0.4752
   86MOL0     C11485   9.987   1.331   8.486 -0.4504  0.3459  0.4927
   86MOL0     C11486  10.021   1.201   8.414 -0.0340  0.0922 -0.4440
   86MOL0     C11487  10.156   1.209   8.344  0.1092  1.0205  0.5749
   86MOL0     C11488  10.171   1.326   8.244  0.3631 -0.2917 -0.9230
   86MOL0     C11489  10.297   1.299   8.160 -0.0266  0.1303 -0.2481
   86MOL0     C11490  10.327   1.404   8.058  0.6671  0.0027  0.3113
   86MOL0     C11491  10.450   1.371   7.969 -0.2870  0.1132  0.0998
   86MOL0     N11492  10.485   1.472   7.868 -0.3130 -0.3616  0.0430
   86MOL0     C11493  10.546   1.595   7.900 -0.1951 -0.6960  0.6032
   86MOL0     C11494  10.555   1.652   7.775 -0.5486 -1.0461 -0.2764
   86MOL0     C11495  10.614   1.783   7.735  0.1225  0.3099 -0.2900
   86MOL0     C11496  10.755   1.790   7.792 -0.2860 -0.0352  0.2174
   86MOL0     C11497  10.803   1.939   7.781 -0.1403  0.8886  0.4461
   86MOL0     C11498  10.948   1.955   7.800 -0.6311 -0.0413  0.1441
   86MOL0     O11499  10.991   1.948   7.930 -0.0221 -0.0352 -0.2491
   86MOL0     C11500  11.131   1.947   7.952 -0.6779  0.8718 -0.4108
   86MOL0     C11501  11.230   1.967   7.853 -0.0927  0.3473 -0.5097
   86MOL0     C11502  11.357   1.950   7.883 -0.0649  0.6653  0.1689
   86MOL0     C11503  11.409   1.912   8.012 -0.0414  0.2605  0.4170
   86MOL0     C11504  11.558   1.881   8.021  0.2443 -0.2685  0.7847
   86MOL0     O11505  11.625   1.843   7.911  0.0168  0.0317  0.7953
   86MOL0     C11506  11.761   1.842   7.913 -0.5733  0.0572  0.4126
   86MOL0     C11507  11.827   1.737   7.852 -0.1865 -0.0808  1.0046
   86MOL0     C11508  11.970   1.728   7.840 -0.9396 -0.4926  0.2409
   86MOL0     C11509  12.056   1.825   7.902 -0.4413 -0.9648 -0.8195
   86MOL0     O11510  12.188   1.815   7.874 -0.8361 -0.0128  0.0050
   86MOL0     C11511  12.270   1.859   7.990 -0.0873  0.0800  0.1996
   86MOL0     C11512  12.413   1.817   7.988  0.6040 -0.0592 -0.1498
   86MOL0     C11513  12.487   1.874   7.869 -0.6854  0.5531  0.6718
   86MOL0     C11514  12.624   1.798   7.862  0.0891 -0.2452  0.4140
   86MOL0     C11515  12.715   1.843   7.733  0.8024  0.1105  0.7329
   86MOL0     C11516  12.851   1.776   7.718  0.0132 -0.0830 -0.4974
   86MOL0     C11517  12.923   1.761   7.850 -0.7585  0.3270  0.1886
   86MOL0     C11518  12.966   1.892   7.925 -0.3204  0.0569  0.1370
   86MOL0    Cl11519  13.057   2.006   7.827  0.1849  0.3590  0.0136
   86MOL0     C11520  11.989   1.932   7.981 -0.4321 -0.5556  0.4322
   86MOL0     C11521  11.854   1.932   7.983  0.7082  1.1552 -0.7694
   86MOL0     O11522  11.604   1.901   8.130  0.5380 -0.2543 -0.5154
   86MOL0     C11523  11.312   1.895   8.111  0.8809  0.6802  0.4537
   86MOL0     C11524  11.175   1.908   8.082  1.0623  0.4936  0.3595
   86MOL0     N11525  10.498   1.570   7.682 -0.3639  0.3287  0.0734
   86MOL0     N11526  10.463   1.455   7.733  0.2134 -0.9405 -0.0921
   86MOL0     C11527   9.661   1.268   8.758  0.2522 -0.4629  0.2640
   86MOL0     C11528   9.544   1.253   8.840 -0.3650 -0.0480  0.6717
   86MOL0     C11529   9.109   1.241   9.011  0.6024 -0.0522  0.9520
   86MOL0     C11530   9.156   1.298   9.127 -0.6385 -0.3849 -0.5740
   86MOL0     C11531   9.070   1.316   9.234 -0.3951  0.2400 -0.8615
   86MOL0     C11532   8.940   1.262   9.238 -0.5058 -0.1392  0.3460
   86MOL0     O11533   8.857   1.295   9.339 -0.3182 -0.2838 -0.1564
   86MOL0     C11534   8.728   1.245   9.368 -0.3174  0.0798  0.3058
   86MOL0     C11535   8.710   1.094   9.377  0.2810 -0.3310  0.2766
   86MOL0     C11536   8.803   1.029   9.488  0.0738  0.0307 -0.5667
   86MOL0     C11537   8.959   1.021   9.453  0.8906 -1.4589 -0.0831
   86MOL0     C11538   8.993   0.952   9.335 -0.4963 -0.4056  0.0690
   86MOL0     C11539   9.011   0.884   9.235 -0.3595 -0.8755 -0.1567
   86MOL0     C11540   8.891   1.200   9.121  0.0078 -0.6058  0.0111
   86MOL0     C11541   8.969   1.198   9.003  0.0052  0.7662 -0.6588
   86MOL0     C11542   8.895   1.163   8.877  0.3163 -0.3213  0.4369
   86MOL0     H11543   9.343   1.483   8.705  0.2816  0.8182  0.4714
   86MOL0     H11544   9.530   1.510   8.553 -0.6798 -0.4991  0.1115
   86MOL0     H11545   9.926   1.338   8.702  0.1347  0.6636  0.5158
   86MOL0     H11546   9.873   1.202   8.611  1.6616  0.3959  3.6922
   86MOL0     H11547  10.078   1.371   8.530 -0.1720  0.1239  0.1232
   86MOL0     H11548   9.950   1.397   8.407  2.3307  0.3740 -0.8817
   86MOL0     H11549   9.939   1.187   8.344  1.4158  1.0851 -2.4499
   86MOL0     H11550  10.024   1.108   8.471 -1.2914 -1.0522 -2.1728
   86MOL0     H11551  10.244   1.211   8.409  1.2234 -3.8584 -0.3826
   86MOL0     H11552  10.175   1.120   8.283 -2.7990  1.0015 -0.4367
   86MOL0     H11553  10.086   1.335   8.176 -2.4990 -4.7305  1.5898
   86MOL0     H11554  10.181   1.414   8.308 -1.7389  0.2969 -1.3473
   86MOL0     H11555  10.388   1.308   8.221 -0.5988  2.6180  0.3300
   86MOL0     H11556  10.284   1.197   8.124 -1.1522 -0.7661  2.4060
   86MOL0     H11557  10.343   1.500   8.108 -0.5481 -0.7392  2.2284
   86MOL0     H11558  10.237   1.416   7.998  1.7799  1.3176 -1.1713
   86MOL0     H11559  10.538   1.353   8.032 -2.1708 -0.0826  2.8047
   86MOL0     H11560  10.426   1.276   7.919  1.1678  0.2523 -0.9488
   86MOL0     H11561  10.574   1.640   7.995  2.9711  1.0439 -0.9639
   86MOL0     H11562  10.624   1.789   7.626 -4.7640 -0.5981 -1.0133
   86MOL0     H11563  10.557   1.865   7.779  2.6575  2.2958 -0.4011
   86MOL0     H11564  10.770   1.754   7.894  1.4550  1.2560  0.4738
   86MOL0     H11565  10.812   1.727   7.722  0.0740 -0.5120  0.9295
   86MOL0     H11566  10.743   2.003   7.846 -1.1625 -1.1230  1.5860
   86MOL0     H11567  10.780   1.967   7.678 -0.8640 -0.5706  0.1763
   86MOL0     H11568  10.968   2.055   7.759  0.2928  0.1487  1.0069
   86MOL0     H11569  11.005   1.892   7.731  1.4206  1.7818  0.0269
   86MOL0     H11570  11.202   2.000   7.753 -0.4710 -1.2674 -0.9605
   86MOL0     H11571  11.420   1.952   7.794 -0.1166  1.9443  0.1373
   86MOL0     H11572  11.766   1.658   7.809 -0.9218  1.1636 -0.3128
   86MOL0     H11573  12.032   1.658   7.785 -0.0549  0.7104 -0.3072
   86MOL0     H11574  12.273   1.968   7.981  4.4237  0.0451 -0.9119
   86MOL0     H11575  12.218   1.821   8.078 -3.0301 -0.3567 -1.5554
   86MOL0     H11576  12.462   1.844   8.082  0.1450 -0.0291  0.0849
   86MOL0     H11577  12.419   1.708   7.981  0.7208 -0.0151 -0.7874
   86MOL0     H11578  12.426   1.863   7.779  0.5346  3.2792 -0.5941
   86MOL0     H11579  12.509   1.980   7.878  0.3579  0.3061  1.2197
   86MOL0     H11580  12.617   1.689   7.869 -0.9191 -0.3014 -0.8752
   86MOL0     H11581  12.681   1.833   7.948  0.0319  0.3090  0.2270
   86MOL0     H11582  12.731   1.951   7.741 -0.2560  0.3209  0.2665
   86MOL0     H11583  12.664   1.826   7.637  0.3152  2.6843  0.4572
   86MOL0     H11584  12.858   1.680   7.667  1.5718 -0.2651  0.0160
   86MOL0     H11585  12.909   1.844   7.656 -1.4203  0.7022 -1.0225
   86MOL0     H11586  13.017   1.704   7.840 -0.7931  0.4749 -1.1390
   86MOL0     H11587  12.864   1.695   7.915  0.8391 -1.0819  0.3030
   86MOL0     H11588  12.867   1.926   7.957 -2.4266 -3.2080 -2.1850
   86MOL0     H11589  13.022   1.879   8.018  1.4189  2.7433 -0.4206
   86MOL0     H11590  12.051   2.008   8.028 -2.8880  0.8696  1.5553
   86MOL0     H11591  11.812   2.009   8.046 -1.1825 -0.2545 -0.1968
   86MOL0     H11592  11.337   1.865   8.212 -2.4196 -1.4648  0.7995
   86MOL0     H11593  11.106   1.891   8.163  1.5127 -3.5372  0.0875
   86MOL0     H11594   9.757   1.223   8.780  1.5217  0.8653 -2.2152
   86MOL0     H11595   9.570   1.174   8.910  2.8460  1.1746  1.0416
   86MOL0     H11596   9.252   1.348   9.134 -0.1643 -0.7298 -3.4419
   86MOL0     H11597   9.122   1.363   9.317  2.7438 -0.1111 -2.4955
   86MOL0     H11598   8.651   1.279   9.299  1.6371  2.9845 -0.6089
   86MOL0     H11599   8.700   1.287   9.465  1.6059  1.0573  0.4815
   86MOL0     H11600   8.737   1.052   9.279  4.6239  2.3000  0.0671
   86MOL0     H11601   8.606   1.072   9.403 -0.1787 -0.5326 -1.6004
   86MOL0     H11602   8.774   0.924   9.484  0.9190 -0.1688 -1.8377
   86MOL0     H11603   8.801   1.070   9.590  1.6705 -1.9532  0.3213
   86MOL0     H11604   9.015   1.115   9.464  1.0618 -1.3537 -1.6758
   86MOL0     H11605   8.992   0.954   9.533  0.1652 -0.4651  1.0914
   86MOL0     H11606   9.044   0.830   9.148  1.7569 -0.5988  0.4236
   86MOL0     H11607   8.785   1.178   9.118 -0.0797 -0.1313 -0.4480
   86MOL0     H11608   8.808   1.099   8.893  0.2171 -0.2647  0.1228
   86MOL0     H11609   8.858   1.259   8.840  1.1867  0.4375  1.4649
   86MOL0     H11610   8.948   1.110   8.797  1.0676 -0.0629  0.7470
   87MOL0     O11611  10.102   8.967   8.155  0.1245  0.1322 -0.2715
   87MOL0     C11612  10.069   9.062   8.221 -0.5935 -0.1022  0.2937
   87MOL0     O11613  10.157   9.163   8.249 -0.4406 -0.4941 -0.5734
   87MOL0     C11614  10.288   9.157   8.196 -0.3323 -0.6591  0.2428
   87MOL0     C11615  10.394   9.134   8.288 -0.5208 -0.4275  0.3453
   87MOL0     C11616  10.528   9.151   8.252 -0.5794  0.2243 -0.0825
   87MOL0     C11617  10.555   9.179   8.114  0.2565  0.1227 -0.5348
   87MOL0     O11618  10.680   9.202   8.071 -0.2884  1.0000 -0.3309
   87MOL0     C11619  10.736   9.097   7.992 -0.0403  0.1092 -0.2377
   87MOL0     C11620  10.819   9.156   7.874  0.5928 -0.3846  0.1029
   87MOL0     C11621  10.944   9.218   7.928 -0.1875  0.1997 -0.5816
   87MOL0     C11622  11.038   9.264   7.820 -0.6382 -0.6578  0.3593
   87MOL0     C11623  11.170   9.336   7.872  0.0238 -0.3208  0.5399
   87MOL0     C11624  11.263   9.383   7.762  0.7057 -0.3313 -0.3340
   87MOL0     C11625  11.333   9.508   7.818  0.9944  0.3776 -0.0236
   87MOL0     C11626  11.413   9.484   7.952 -0.1492  0.7627  0.0784
   87MOL0     N11627  11.524   9.584   7.970  0.8690 -0.6804 -0.7038
   87MOL0     C11628  11.507   9.719   7.980 -0.1534  0.3009  0.3155
   87MOL0     C11629  11.630   9.771   7.946  0.0593 -0.3270 -0.2594
   87MOL0     C11630  11.663   9.923   7.937  0.5724  0.5219 -0.0003
   87MOL0     C11631  11.645   9.985   7.794  0.1853 -0.6058 -0.4327
   87MOL0     C11632  11.746   9.920   7.696  0.5477 -0.3920  0.4906
   87MOL0     C11633  11.891   9.938   7.733 -0.4307 -0.1893 -0.2374
   87MOL0     O11634  11.911  10.082   7.729 -0.0794  1.0549  0.4097
   87MOL0     C11635  12.021  10.137   7.783 -0.3093 -0.2572 -0.3484
   87MOL0     C11636  12.114  10.076   7.866 -0.4991 -0.3214 -0.3121
   87MOL0     C11637  12.216  10.149   7.919  0.3307 -1.0751 -0.1539
   87MOL0     C11638  12.220  10.293   7.907  0.3526 -0.5345  0.2483
   87MOL0     C11639  12.332  10.371   7.961  0.5438 -0.0512 -0.1328
   87MOL0     O11640  12.345  10.501   7.921 -0.5282 -0.6958  0.1622
   87MOL0     C11641  12.454  10.579   7.968  0.1581 -0.1658  0.1542
   87MOL0     C11642  12.432  10.701   8.025 -0.8901  0.1284  0.1895
   87MOL0     C11643  12.539  10.775   8.073  0.8059  0.7459 -0.4401
   87MOL0     C11644  12.667  10.725   8.063 -0.0804 -0.0440 -0.3149
   87MOL0     O11645  12.770  10.801   8.109  0.8768  0.0060  0.1654
   87MOL0     C11646  12.883  10.731   8.165  0.5999 -0.0071  0.0570
   87MOL0     C11647  12.982  10.823   8.234 -0.1276 -0.5222  0.1385
   87MOL0     C11648  13.059  10.890   8.113  0.2738 -0.4100 -0.1779
   87MOL0     C11649  13.169  10.987   8.174 -1.0296  0.1084 -0.0146
   87MOL0     C11650  13.251  11.041   8.058 -0.3280  0.0429  0.1746
   87MOL0     C11651  13.370  11.126   8.085  0.2683 -0.3840 -0.0756
   87MOL0     C11652  13.460  11.154   7.958 -0.1954  0.0104  0.0069
   87MOL0     C11653  13.553  11.275   7.961  0.2847 -0.2377 -0.2209
   87MOL0    Cl11654  13.666  11.256   8.089 -0.2163 -0.1802 -0.1356
   87MOL0     C11655  12.693  10.607   7.993  0.1486  0.6570 -0.8640
   87MOL0     C11656  12.583  10.528   7.952  0.1391  0.0718 -0.6084
   87MOL0     O11657  12.403  10.315   8.047  0.1806 -0.3635  0.8413
   87MOL0     C11658  12.126  10.359   7.819  0.4022  0.4626 -0.6395
   87MOL0     C11659  12.025  10.276   7.771 -0.8352 -0.7848 -0.4957
   87MOL0     N11660  11.722   9.669   7.933  0.0938 -0.3067  0.8002
   87MOL0     N11661  11.658   9.556   7.949 -0.1318 -0.3998  0.4626
   87MOL0     C11662  10.449   9.193   8.017 -0.8412 -0.0327  0.1690
   87MOL0     C11663  10.312   9.183   8.061  0.3341  0.2240 -0.3564
   87MOL0     C11664   9.926   9.040   8.274 -0.5024 -0.0132  0.7805
   87MOL0     C11665   9.845   8.933   8.234 -0.6544 -0.5079  0.1043
   87MOL0     C11666   9.714   8.921   8.276 -0.4679  0.6206  0.0887
   87MOL0     C11667   9.651   9.012   8.343  0.6287 -1.2350 -0.5658
   87MOL0     O11668   9.510   8.996   8.361 -0.4790  0.5027 -0.1672
   87MOL0     C11669   9.431   9.112   8.395  0.5202  0.2237 -0.2143
   87MOL0     C11670   9.393   9.131   8.544 -0.9640 -0.1041  0.2346
   87MOL0     C11671   9.309   9.034   8.607 -0.1892  0.6697  0.1112
   87MOL0     C11672   9.165   9.011   8.552 -0.5982 -0.6202 -0.1247
   87MOL0     C11673   9.092   9.139   8.520 -0.2949  0.1127 -0.4868
   87MOL0     C11674   9.042   9.240   8.475 -0.1312  0.4644 -0.5750
   87MOL0     C11675   9.731   9.129   8.383  0.6333 -0.5192 -0.3688
   87MOL0     C11676   9.865   9.139   8.355  0.8048 -0.6103  0.4262
   87MOL0     C11677   9.940   9.273   8.390  0.3727  0.4790  0.2127
   87MOL0     H11678  10.363   9.101   8.387  2.6589  2.5319  2.5628
   87MOL0     H11679  10.613   9.130   8.316  2.0041  2.0729 -2.6571
   87MOL0     H11680  10.798   9.035   8.057  0.1424  0.4575 -0.0819
   87MOL0     H11681  10.659   9.025   7.961 -1.1627  1.6026 -1.0162
   87MOL0     H11682  10.751   9.223   7.820 -1.2101 -1.9517  0.3318
   87MOL0     H11683  10.853   9.069   7.818 -1.1018 -1.5800  0.8354
   87MOL0     H11684  11.001   9.151   7.993 -0.7994 -1.2678 -1.5185
   87MOL0     H11685  10.921   9.304   7.992  2.5291 -0.2871  1.2508
   87MOL0     H11686  11.076   9.177   7.766 -0.8740 -1.3150  1.2242
   87MOL0     H11687  10.988   9.332   7.750 -0.3147  1.7480  2.3322
   87MOL0     H11688  11.132   9.415   7.937 -4.4881 -1.7410 -0.0360
   87MOL0     H11689  11.241   9.265   7.916 -0.3367 -2.3001 -1.8570
   87MOL0     H11690  11.338   9.306   7.742  1.0128  0.5152 -2.7432
   87MOL0     H11691  11.207   9.397   7.669 -2.8654 -1.9475  1.3648
   87MOL0     H11692  11.264   9.593   7.826  0.2181 -0.1637 -0.8813
   87MOL0     H11693  11.413   9.539   7.749 -0.3660  1.5118 -1.1518
   87MOL0     H11694  11.351   9.479   8.042 -3.7441 -0.6015 -2.2803
   87MOL0     H11695  11.468   9.391   7.936 -0.7331  0.0792  1.8329
   87MOL0     H11696  11.421   9.777   8.013  0.7074  1.3545  0.7588
   87MOL0     H11697  11.602   9.981   8.006 -1.4377 -2.2067  0.7065
   87MOL0     H11698  11.768   9.941   7.962  0.8156 -1.6224  0.7784
   87MOL0     H11699  11.541   9.969   7.762  0.1865  0.8275 -1.2311
   87MOL0     H11700  11.656  10.093   7.782 -1.7464 -0.3990 -0.7363
   87MOL0     H11701  11.721   9.952   7.594 -0.0843 -2.2073  0.0157
   87MOL0     H11702  11.718   9.816   7.673  1.0429  0.2951 -4.2585
   87MOL0     H11703  11.953   9.887   7.659  0.3769 -1.0254  0.9693
   87MOL0     H11704  11.915   9.899   7.833  0.2273  1.2532  0.1972
   87MOL0     H11705  12.122   9.968   7.873  0.8675 -0.3315 -1.4168
   87MOL0     H11706  12.300  10.095   7.962  0.0700  0.4576  2.4929
   87MOL0     H11707  12.329  10.736   8.018 -0.9197 -0.1531 -1.0446
   87MOL0     H11708  12.509  10.875   8.103  0.3910  0.7021 -0.6970
   87MOL0     H11709  12.837  10.650   8.221  0.8348 -0.0514  0.1899
   87MOL0     H11710  12.935  10.678   8.084  2.2888  3.4303 -1.3279
   87MOL0     H11711  12.937  10.909   8.283  1.7310  0.1365  0.7744
   87MOL0     H11712  13.051  10.768   8.299  1.5805  1.7965  0.4113
   87MOL0     H11713  13.099  10.817   8.042 -0.2594 -1.8246  0.9407
   87MOL0     H11714  12.987  10.946   8.053 -0.2282  0.7139  1.4053
   87MOL0     H11715  13.241  10.927   8.230  1.1662  0.6530 -2.0814
   87MOL0     H11716  13.126  11.060   8.243 -1.1139 -2.2498  2.6039
   87MOL0     H11717  13.172  11.095   8.006 -0.9684 -2.4965 -1.7047
   87MOL0     H11718  13.278  10.956   7.994 -3.8336 -2.1525  1.3318
   87MOL0     H11719  13.337  11.224   8.120 -1.2618 -1.5731  2.0168
   87MOL0     H11720  13.431  11.071   8.158 -0.4558 -0.9855  0.0932
   87MOL0     H11721  13.393  11.163   7.872  0.7901 -3.9664 -1.3976
   87MOL0     H11722  13.522  11.065   7.945  1.8788  1.6055 -1.7991
   87MOL0     H11723  13.599  11.287   7.862 -3.0518 -2.9278 -2.3403
   87MOL0     H11724  13.480  11.355   7.974  0.4224 -0.1135 -0.2041
   87MOL0     H11725  12.788  10.568   7.958  1.8138  2.2171  1.5381
   87MOL0     H11726  12.597  10.424   7.927 -0.1875 -0.0824 -0.1735
   87MOL0     H11727  12.131  10.467   7.806  1.2745  0.4768 -0.3044
   87MOL0     H11728  11.953  10.324   7.706  3.0417  0.8233 -4.1014
   87MOL0     H11729  10.475   9.217   7.914 -1.4702 -0.8985 -0.2086
   87MOL0     H11730  10.229   9.196   7.991 -0.0264  0.6393  0.1449
   87MOL0     H11731   9.883   8.865   8.158 -1.9738 -1.7578  0.5192
   87MOL0     H11732   9.661   8.835   8.235  1.9421  0.4004 -2.8844
   87MOL0     H11733   9.343   9.102   8.331  1.0279  1.4666 -1.1519
   87MOL0     H11734   9.483   9.198   8.353 -0.2874  1.1192  0.5900
   87MOL0     H11735   9.366   9.234   8.566  0.1472 -0.0055  1.2691
   87MOL0     H11736   9.487   9.110   8.596  0.0261 -0.2182 -1.5248
   87MOL0     H11737   9.286   9.069   8.708 -4.4608 -0.0318 -0.4202
   87MOL0     H11738   9.358   8.937   8.617 -2.3398 -0.4422  0.7104
   87MOL0     H11739   9.176   8.946   8.465  1.3951 -0.3242 -0.1378
   87MOL0     H11740   9.107   8.953   8.625  0.7552 -0.1731  1.3846
   87MOL0     H11741   8.984   9.315   8.424  0.3494 -0.0890 -1.9703
   87MOL0     H11742   9.677   9.202   8.443  0.8655 -2.3326  2.2102
   87MOL0     H11743   9.954   9.348   8.311  2.1760  1.6718  1.6034
   87MOL0     H11744   9.873   9.327   8.458 -1.0466 -1.2748  0.2877
   87MOL0     H11745  10.028   9.254   8.452 -1.6016 -0.2646  2.9730
   88MOL0     O11746   6.478   0.850   7.929 -0.5884  0.1341  0.2663
   88MOL0     C11747   6.386   0.774   7.931  0.8201  0.8352 -0.0425
   88MOL0     O11748   6.400   0.638   7.919  0.0607  0.2148 -0.4590
   88MOL0     C11749   6.526   0.581   7.907  0.1299  0.1703  0.7968
   88MOL0     C11750   6.543   0.486   7.808  0.3185  0.4792 -0.5618
   88MOL0     C11751   6.668   0.418   7.795  0.3140 -1.0686  0.1756
   88MOL0     C11752   6.767   0.447   7.882 -0.6132  0.7268 -0.6301
   88MOL0     O11753   6.894   0.386   7.870  0.3806  0.4705  0.1253
   88MOL0     C11754   6.892   0.245   7.905 -1.2360 -0.2145  1.2425
   88MOL0     C11755   7.019   0.185   7.836  1.1465  0.0856  0.3262
   88MOL0     C11756   7.016   0.036   7.854  0.5248  0.1552  0.0970
   88MOL0     C11757   7.123  -0.042   7.776 -0.4867  0.3955 -0.0240
   88MOL0     C11758   7.139  -0.184   7.829 -0.5430  0.2589 -0.0670
   88MOL0     C11759   7.244  -0.264   7.755 -0.6386 -0.3625 -0.2985
   88MOL0     C11760   7.387  -0.207   7.752 -0.3810 -0.5564 -0.0805
   88MOL0     C11761   7.468  -0.242   7.871 -0.2250 -0.1824 -1.2170
   88MOL0     N11762   7.595  -0.162   7.873 -0.2634  0.9085 -0.5468
   88MOL0     C11763   7.685  -0.155   7.777 -0.2200  0.0331  0.1929
   88MOL0     C11764   7.777  -0.072   7.836 -1.1358  0.0771  0.3753
   88MOL0     C11765   7.898  -0.024   7.761 -0.0687 -0.1217 -0.6281
   88MOL0     C11766   8.000   0.047   7.847 -0.3544 -0.0808  0.2033
   88MOL0     C11767   8.125   0.081   7.773 -0.2702  0.1592  0.8504
   88MOL0     C11768   8.224   0.151   7.862  0.4170  0.8076  0.0836
   88MOL0     O11769   8.176   0.279   7.906 -0.2993 -0.0708 -0.4843
   88MOL0     C11770   8.257   0.377   7.962  0.4394 -0.0852  0.0849
   88MOL0     C11771   8.196   0.481   8.027 -0.4301  0.5812  0.0106
   88MOL0     C11772   8.272   0.589   8.079  0.4950 -0.3452  0.0775
   88MOL0     C11773   8.410   0.599   8.049 -0.2498  0.2387  0.6145
   88MOL0     C11774   8.488   0.718   8.081  0.3641 -0.0082  0.1193
   88MOL0     O11775   8.616   0.711   8.054  0.2194 -0.6026  0.2431
   88MOL0     C11776   8.701   0.811   8.036  0.4778  0.3651 -0.0396
   88MOL0     C11777   8.657   0.944   8.016 -0.1278  0.6036  1.1063
   88MOL0     C11778   8.750   1.050   8.005 -0.5792 -0.4064 -0.1525
   88MOL0     C11779   8.892   1.025   8.018  0.1133 -0.5866  0.0255
   88MOL0     O11780   8.986   1.124   8.026  0.0304 -0.6368  0.9300
   88MOL0     C11781   8.946   1.270   8.005  0.6858  1.0377 -0.3233
   88MOL0     C11782   9.059   1.376   8.033  0.4009 -0.2231  0.2534
   88MOL0     C11783   9.156   1.341   8.147 -0.5335  0.1447  0.0033
   88MOL0     C11784   9.274   1.432   8.180 -0.0273  0.4983 -0.3470
   88MOL0     C11785   9.387   1.421   8.070  0.1864 -0.1527 -0.4379
   88MOL0     C11786   9.508   1.511   8.113  0.0712 -0.6815  0.9688
   88MOL0     C11787   9.576   1.478   8.244  1.9771  1.3764  0.1503
   88MOL0     C11788   9.699   1.566   8.284 -0.3231  0.8503  0.3382
   88MOL0    Cl11789   9.846   1.544   8.170 -0.4223 -0.1123 -0.3897
   88MOL0     C11790   8.930   0.894   8.048 -0.0715 -0.1073 -0.4913
   88MOL0     C11791   8.838   0.791   8.054  0.2341  0.3110  0.9298
   88MOL0     O11792   8.426   0.801   8.147 -0.0509  0.1135 -0.2321
   88MOL0     C11793   8.466   0.498   7.974 -0.2355  0.3606  0.3327
   88MOL0     C11794   8.388   0.393   7.928  0.3289  0.9855 -0.0698
   88MOL0     N11795   7.743  -0.035   7.960 -0.5959  0.8070 -0.2628
   88MOL0     N11796   7.635  -0.098   7.982  0.7416 -0.1279 -0.3050
   88MOL0     C11797   6.747   0.541   7.986 -0.8038  0.0713  0.7041
   88MOL0     C11798   6.626   0.604   7.998  0.9662  0.0534  0.1867
   88MOL0     C11799   6.246   0.829   7.927 -0.0689  0.2861 -0.8826
   88MOL0     C11800   6.146   0.752   7.854 -0.6508 -0.0484 -0.4311
   88MOL0     C11801   6.016   0.796   7.833  0.3011  0.0132  0.3345
   88MOL0     C11802   5.982   0.927   7.875 -0.6775  0.4785  0.9386
   88MOL0     O11803   5.848   0.975   7.843  0.6574  0.3450  0.2717
   88MOL0     C11804   5.799   1.102   7.873  0.8034  0.2021  0.4469
   88MOL0     C11805   5.676   1.144   7.785 -0.2578  0.5407  0.0385
   88MOL0     C11806   5.672   1.290   7.753 -0.8041 -0.5889 -0.4250
   88MOL0     C11807   5.640   1.369   7.883 -0.5118 -0.1400 -0.2024
   88MOL0     C11808   5.684   1.502   7.865  0.3782  0.2569  0.1420
   88MOL0     C11809   5.735   1.602   7.845  0.2746 -1.2355 -0.4164
   88MOL0     C11810   6.073   0.999   7.948 -0.0871  0.6681  0.1281
   88MOL0     C11811   6.201   0.952   7.974  0.6421  0.1029  0.2690
   88MOL0     C11812   6.294   1.046   8.048  0.0855  0.6767 -0.5282
   88MOL0     H11813   6.458   0.486   7.741  0.2857 -0.2655 -0.5263
   88MOL0     H11814   6.695   0.356   7.709 -0.1285 -1.1689  0.1078
   88MOL0     H11815   6.905   0.240   8.013 -0.7337 -1.2201  1.1438
   88MOL0     H11816   6.803   0.190   7.876  0.3122 -1.9965 -0.4290
   88MOL0     H11817   7.115   0.223   7.872  0.5511  1.0258  0.9588
   88MOL0     H11818   7.020   0.213   7.730  2.3593 -3.1355 -0.6267
   88MOL0     H11819   6.919   0.005   7.816 -0.8304 -0.4842  3.7091
   88MOL0     H11820   7.014   0.009   7.960 -2.4831  1.3823  0.4507
   88MOL0     H11821   7.102  -0.041   7.669  1.9246  3.2022 -0.5986
   88MOL0     H11822   7.215   0.012   7.802 -0.4087 -0.4035  1.4279
   88MOL0     H11823   7.168  -0.172   7.933  0.3224  4.1201 -0.6036
   88MOL0     H11824   7.041  -0.230   7.812 -1.5297  2.6601 -1.3963
   88MOL0     H11825   7.246  -0.364   7.800 -0.8297  0.0078  0.5524
   88MOL0     H11826   7.209  -0.276   7.652  1.0403 -1.3581 -0.7986
   88MOL0     H11827   7.390  -0.100   7.729  0.2569 -0.7240 -0.8313
   88MOL0     H11828   7.434  -0.260   7.668 -0.6659 -0.5161 -0.2674
   88MOL0     H11829   7.410  -0.226   7.963 -0.1492 -1.6496 -0.8790
   88MOL0     H11830   7.489  -0.349   7.881 -0.0855  0.0208  1.4986
   88MOL0     H11831   7.670  -0.194   7.677 -0.2488  0.1124  0.1669
   88MOL0     H11832   7.934  -0.119   7.720  1.4870  0.5255 -0.8657
   88MOL0     H11833   7.866   0.041   7.679 -2.0769  0.4231  0.5158
   88MOL0     H11834   7.954   0.143   7.871 -1.4391 -0.9704  1.9285
   88MOL0     H11835   8.014  -0.013   7.938 -1.2739 -0.1899  0.2877
   88MOL0     H11836   8.101   0.143   7.686  1.4766 -1.8245 -1.1699
   88MOL0     H11837   8.173  -0.004   7.724 -0.5646  0.4024  0.1117
   88MOL0     H11838   8.321   0.150   7.811  2.5240 -2.3862  3.5478
   88MOL0     H11839   8.239   0.099   7.958  2.0195  1.6667  0.3338
   88MOL0     H11840   8.091   0.481   8.054 -0.3086 -0.3123  0.5473
   88MOL0     H11841   8.229   0.672   8.134  2.5718  0.0463  1.2045
   88MOL0     H11842   8.553   0.973   8.007 -0.9976 -2.4092  0.0540
   88MOL0     H11843   8.698   1.145   7.998 -0.2349 -0.1062  1.0667
   88MOL0     H11844   8.898   1.293   7.910  0.8068  1.0928 -0.3699
   88MOL0     H11845   8.870   1.276   8.084  1.3516  1.0660  0.3216
   88MOL0     H11846   9.104   1.397   7.936  0.1323 -0.8452 -0.0087
   88MOL0     H11847   9.006   1.468   8.060 -1.8904 -1.1181 -0.9665
   88MOL0     H11848   9.099   1.320   8.239 -0.1480  0.4108  0.3029
   88MOL0     H11849   9.205   1.250   8.112  0.8730  1.3290 -1.2146
   88MOL0     H11850   9.312   1.392   8.275 -1.1613 -0.1910 -0.1706
   88MOL0     H11851   9.246   1.536   8.194 -2.6299 -0.4320  2.5245
   88MOL0     H11852   9.341   1.455   7.976 -1.3549 -1.8189 -0.3411
   88MOL0     H11853   9.422   1.318   8.062  0.0460 -0.5187  2.5177
   88MOL0     H11854   9.574   1.519   8.026  1.6069 -0.7202  2.1092
   88MOL0     H11855   9.477   1.615   8.129 -0.4691 -0.4147 -1.3001
   88MOL0     H11856   9.619   1.378   8.231 -1.6622 -0.3266 -0.0966
   88MOL0     H11857   9.502   1.480   8.324  1.2220  0.3784 -0.4998
   88MOL0     H11858   9.676   1.672   8.296  1.6129  1.2413  0.9226
   88MOL0     H11859   9.733   1.525   8.379 -0.3857  0.2212  0.0946
   88MOL0     H11860   9.037   0.884   8.063  0.1537 -1.4655 -2.6398
   88MOL0     H11861   8.864   0.688   8.078 -0.9315 -1.1218 -3.1380
   88MOL0     H11862   8.570   0.491   7.945 -0.0517 -1.4861  1.2503
   88MOL0     H11863   8.438   0.319   7.866 -1.3580  1.0318 -1.5761
   88MOL0     H11864   6.835   0.557   8.047 -1.1882 -2.5493  2.1112
   88MOL0     H11865   6.609   0.677   8.076 -1.6442  2.2147 -2.2053
   88MOL0     H11866   6.170   0.655   7.811  0.0517 -0.9517  1.8341
   88MOL0     H11867   5.942   0.741   7.775  1.7229 -1.5474 -0.0453
   88MOL0     H11868   5.884   1.170   7.861 -0.9623  2.6573  1.0066
   88MOL0     H11869   5.762   1.102   7.976 -0.3951 -2.9577  0.1528
   88MOL0     H11870   5.583   1.120   7.838 -0.8881 -1.1258 -1.7040
   88MOL0     H11871   5.680   1.105   7.683 -0.4791  0.4234  0.0733
   88MOL0     H11872   5.600   1.322   7.678 -0.2572  2.4327  0.1996
   88MOL0     H11873   5.764   1.326   7.706 -2.2117 -0.5414 -3.4013
   88MOL0     H11874   5.533   1.363   7.906 -0.3940 -1.3803  0.1082
   88MOL0     H11875   5.688   1.330   7.973 -0.9021  1.3048  0.6527
   88MOL0     H11876   5.791   1.691   7.827 -0.8394 -0.3019  0.5666
   88MOL0     H11877   6.048   1.094   7.993 -0.5237 -0.2217  1.8727
   88MOL0     H11878   6.362   1.099   7.982  1.9992  1.8456  2.2005
   88MOL0     H11879   6.227   1.108   8.109 -0.4337 -1.4443  1.2098
   88MOL0     H11880   6.357   0.992   8.119  0.5167 -0.3054 -1.6256
   89MOL0     O11881  10.833   5.927  10.866  0.1403 -0.0129 -0.1302
   89MOL0     C11882  10.754   5.859  10.800  0.4434 -0.0662 -0.6231
   89MOL0     O11883  10.742   5.720  10.803 -0.7785  0.0536  0.2557
   89MOL0     C11884  10.792   5.644  10.908 -1.0690 -0.1437  0.0503
   89MOL0     C11885  10.812   5.695  11.036  0.6249 -0.0348  0.3179
   89MOL0     C11886  10.857   5.613  11.131 -0.7503  0.2556  0.7343
   89MOL0     C11887  10.885   5.475  11.103  0.0426 -0.2615  0.0557
   89MOL0     O11888  10.934   5.383  11.190 -0.1457  0.1232  0.2085
   89MOL0     C11889  11.041   5.425  11.282 -1.1611  0.1912  0.4167
   89MOL0     C11890  11.097   5.312  11.367 -0.3314  0.4467 -0.3785
   89MOL0     C11891  11.002   5.273  11.485 -0.8477  0.7240 -0.8211
   89MOL0     C11892  11.059   5.164  11.570  0.7467  0.1758  0.1425
   89MOL0     C11893  11.204   5.187  11.627  0.1607  0.3899  0.3276
   89MOL0     C11894  11.254   5.060  11.705 -0.5709  0.6606 -0.9166
   89MOL0     C11895  11.405   5.084  11.735 -0.6035  0.4006 -0.1420
   89MOL0     C11896  11.461   4.965  11.817  0.5994 -0.2341  0.7374
   89MOL0     N11897  11.599   4.964  11.862 -0.3573 -0.2049  0.2715
   89MOL0     C11898  11.698   4.893  11.795 -0.6108 -0.1347 -0.2312
   89MOL0     C11899  11.808   4.929  11.859  0.3216 -0.3393  0.4826
   89MOL0     C11900  11.940   4.878  11.811 -0.7768  0.1974  0.2754
   89MOL0     C11901  12.068   4.958  11.845  0.5711  0.3819 -0.1894
   89MOL0     C11902  12.113   4.925  11.983 -0.9592  0.6176 -0.0991
   89MOL0     C11903  12.203   5.037  12.042 -0.0162  0.6686 -0.2493
   89MOL0     O11904  12.267   4.971  12.154  0.3011  0.3156  0.6160
   89MOL0     C11905  12.359   5.028  12.233  0.3143  0.1446  0.2982
   89MOL0     C11906  12.404   5.159  12.226 -0.9844  0.3093 -0.2041
   89MOL0     C11907  12.501   5.209  12.313  0.6992  0.2737 -0.0267
   89MOL0     C11908  12.573   5.115  12.394  0.1204 -0.8067  0.3290
   89MOL0     C11909  12.696   5.157  12.468  1.0625  0.0860 -0.8780
   89MOL0     O11910  12.735   5.292  12.453  0.8594  0.1662 -0.2524
   89MOL0     C11911  12.864   5.322  12.483  0.4331 -1.3364 -0.0110
   89MOL0     C11912  12.982   5.243  12.458  0.2898  0.2913 -0.4867
   89MOL0     C11913  13.098   5.283  12.516 -0.1883  0.3002 -0.0046
   89MOL0     C11914  13.118   5.400  12.584 -0.5559  0.1281 -0.8027
   89MOL0     O11915  13.256   5.428  12.634  0.5115  0.8846  0.5399
   89MOL0     C11916  13.274   5.519  12.740 -0.8427  0.1188 -0.6156
   89MOL0     C11917  13.329   5.448  12.863 -0.5893  0.9706  0.0644
   89MOL0     C11918  13.481   5.410  12.849  0.5770 -0.6309 -0.7837
   89MOL0     C11919  13.558   5.402  12.983  0.4659 -0.0350  0.7199
   89MOL0     C11920  13.712   5.379  12.955 -0.0239 -0.2998  0.2006
   89MOL0     C11921  13.746   5.239  12.911  0.3387  0.0480 -0.7045
   89MOL0     C11922  13.896   5.234  12.891 -1.1348 -0.2986  0.2070
   89MOL0     C11923  13.967   5.103  12.879  0.0210  0.1488 -0.4239
   89MOL0    Cl11924  14.133   5.087  12.817 -0.5181  0.2360  0.3517
   89MOL0     C11925  13.007   5.486  12.613 -0.0559  0.0700 -0.0164
   89MOL0     C11926  12.878   5.440  12.558 -0.2044  0.6038  0.0829
   89MOL0     O11927  12.764   5.072  12.530  0.4993 -0.0537 -0.0155
   89MOL0     C11928  12.529   4.983  12.397  0.5849 -0.3208 -0.7709
   89MOL0     C11929  12.424   4.937  12.324  0.2595  0.0918 -0.1064
   89MOL0     N11930  11.779   5.015  11.963  1.2183 -0.7278  0.0135
   89MOL0     N11931  11.649   5.031  11.968  0.9204  0.4176 -0.6339
   89MOL0     C11932  10.863   5.425  10.978 -0.4363  1.4117 -0.0143
   89MOL0     C11933  10.818   5.515  10.878 -0.2507  0.2760 -0.4031
   89MOL0     C11934  10.675   5.942  10.706 -0.2980  0.7170  0.0533
   89MOL0     C11935  10.739   6.039  10.633  0.0341 -0.2494  0.7982
   89MOL0     C11936  10.672   6.104  10.530 -0.7610 -0.5447  0.3073
   89MOL0     C11937  10.542   6.089  10.508  0.4582 -1.2159  0.2691
   89MOL0     O11938  10.484   6.159  10.401  0.7325 -1.2560  0.0745
   89MOL0     C11939  10.347   6.136  10.362 -0.4453 -0.1326  0.0753
   89MOL0     C11940  10.339   6.013  10.270 -1.2938 -0.6223 -0.0723
   89MOL0     C11941  10.199   6.001  10.199  1.0028  0.9042 -0.3411
   89MOL0     C11942  10.206   5.873  10.109 -0.3384 -0.2393  0.3901
   89MOL0     C11943  10.077   5.863  10.038  0.7582  0.6877  0.0848
   89MOL0     C11944   9.977   5.863   9.964  0.6057 -0.5787  0.7589
   89MOL0     C11945  10.477   5.993  10.583 -0.3533  1.1142 -1.0355
   89MOL0     C11946  10.543   5.917  10.685 -0.0015 -0.2170  0.6231
   89MOL0     C11947  10.466   5.815  10.768 -0.2306  0.5277 -0.6046
   89MOL0     H11948  10.788   5.796  11.067  1.4476 -0.0880  1.1708
   89MOL0     H11949  10.877   5.655  11.229 -0.1208 -0.0724  0.7499
   89MOL0     H11950  11.123   5.451  11.214 -1.6105 -1.0422 -0.6425
   89MOL0     H11951  11.005   5.504  11.348 -0.1218  1.2397 -0.2290
   89MOL0     H11952  11.192   5.355  11.399 -1.7775  1.4323  3.1088
   89MOL0     H11953  11.118   5.217  11.317  0.1492  0.3405  0.0216
   89MOL0     H11954  10.899   5.250  11.458 -1.2913 -0.4010  1.5619
   89MOL0     H11955  10.985   5.363  11.546 -1.9254 -0.3616  0.5274
   89MOL0     H11956  11.000   5.124  11.653  0.9194 -1.9111 -0.6734
   89MOL0     H11957  11.057   5.080  11.500  0.6901  2.0190 -2.1662
   89MOL0     H11958  11.267   5.190  11.538  1.7647  1.0383  1.4357
   89MOL0     H11959  11.205   5.274  11.693  0.0910 -0.4985  1.5484
   89MOL0     H11960  11.213   5.063  11.806 -0.7729  0.1110 -0.9778
   89MOL0     H11961  11.227   4.968  11.652 -0.2400  0.2042 -0.3073
   89MOL0     H11962  11.424   5.176  11.791  1.7550  0.3229 -0.7130
   89MOL0     H11963  11.456   5.089  11.638  0.4506 -0.6627  0.3337
   89MOL0     H11964  11.404   4.946  11.908 -0.0159 -1.5232  0.1131
   89MOL0     H11965  11.438   4.874  11.760 -2.3186 -0.2892  1.8729
   89MOL0     H11966  11.695   4.835  11.704  1.9939  1.0618 -1.1838
   89MOL0     H11967  11.945   4.771  11.833  1.0489  0.3703  0.8283
   89MOL0     H11968  11.933   4.884  11.702 -0.6577 -2.9029 -0.0017
   89MOL0     H11969  12.143   4.930  11.770  1.2680  0.5201  0.4324
   89MOL0     H11970  12.044   5.065  11.845 -4.4996 -0.5226  1.0486
   89MOL0     H11971  12.167   4.830  11.973  0.3377  1.4203 -0.9673
   89MOL0     H11972  12.027   4.915  12.050 -1.1007  2.5887  0.0592
   89MOL0     H11973  12.149   5.125  12.076 -0.0924  1.3414 -2.0181
   89MOL0     H11974  12.274   5.072  11.966 -1.5214  0.7974 -1.6508
   89MOL0     H11975  12.336   5.223  12.171  0.2325  1.7728 -0.0721
   89MOL0     H11976  12.525   5.315  12.313  0.1080  0.4785  2.4876
   89MOL0     H11977  12.980   5.159  12.389  0.9453  0.1891 -0.3872
   89MOL0     H11978  13.183   5.220  12.490  1.2343  1.4016  1.7436
   89MOL0     H11979  13.346   5.591  12.699 -0.2779  1.2041  2.0596
   89MOL0     H11980  13.189   5.582  12.770  1.7584  3.4319  0.4773
   89MOL0     H11981  13.315   5.501  12.957  1.1481  0.4772  0.6385
   89MOL0     H11982  13.273   5.355  12.878  1.3172 -0.0912  0.9343
   89MOL0     H11983  13.503   5.325  12.784  0.7015 -0.3359 -1.1273
   89MOL0     H11984  13.532   5.497  12.807  1.3370 -0.4153  0.5190
   89MOL0     H11985  13.518   5.316  13.037  0.9533 -0.8678 -0.2156
   89MOL0     H11986  13.550   5.505  13.019  1.3785  1.6608 -3.3877
   89MOL0     H11987  13.772   5.418  13.038  1.1468  0.8357 -1.1236
   89MOL0     H11988  13.733   5.445  12.870 -0.4064 -0.2214  0.1640
   89MOL0     H11989  13.728   5.170  12.994 -0.5474 -0.5969 -1.4084
   89MOL0     H11990  13.686   5.209  12.825  0.3569  1.3340 -1.1871
   89MOL0     H11991  13.947   5.287  12.973 -1.8050  0.8732 -0.1194
   89MOL0     H11992  13.918   5.284  12.797 -2.4594 -1.6302 -0.8502
   89MOL0     H11993  13.965   5.037  12.966 -1.5727  0.6930 -0.0098
   89MOL0     H11994  13.900   5.053  12.807  0.5084  1.2065 -1.6503
   89MOL0     H11995  13.016   5.575  12.674 -2.5147 -1.5412  3.0108
   89MOL0     H11996  12.788   5.495  12.584 -2.1863 -2.6349  0.7218
   89MOL0     H11997  12.571   4.906  12.460 -2.0637 -0.0304  1.5292
   89MOL0     H11998  12.388   4.836  12.333 -2.5284  1.0331  0.1261
   89MOL0     H11999  10.886   5.324  10.944 -2.8849  0.9589 -0.5189
   89MOL0     H12000  10.822   5.477  10.777 -1.1642 -2.0410  0.3605
   89MOL0     H12001  10.844   6.067  10.638  0.4769 -1.0084 -2.1399
   89MOL0     H12002  10.720   6.171  10.460 -1.6704 -1.4464 -1.2343
   89MOL0     H12003  10.314   6.222  10.303 -1.9310 -1.6547 -1.4208
   89MOL0     H12004  10.281   6.125  10.448 -2.6399 -0.7445 -1.5941
   89MOL0     H12005  10.367   5.925  10.330  0.3627 -0.5309 -0.6520
   89MOL0     H12006  10.416   6.013  10.192 -4.6496  0.8108 -3.7375
   89MOL0     H12007  10.172   6.091  10.143  0.7221  1.3687  0.5152
   89MOL0     H12008  10.122   5.983  10.275  1.2103  1.0253 -0.1000
   89MOL0     H12009  10.283   5.878  10.031 -0.6184 -0.5943  0.0876
   89MOL0     H12010  10.221   5.785  10.173  1.3434 -1.1451 -1.1425
   89MOL0     H12011   9.882   5.870   9.917  1.1314  0.8642 -0.1575
   89MOL0     H12012  10.372   5.972  10.562  0.1680 -0.7397 -2.0580
   89MOL0     H12013  10.358   5.822  10.779 -0.1598 -0.0770  0.8093
   89MOL0     H12014  10.498   5.716  10.736  1.1956  1.4196 -2.0668
   89MOL0     H12015  10.503   5.811  10.871  0.6950 -0.6178 -0.9551
   90MOL0     O12016   2.843   7.357   7.350  0.3843 -0.0804 -0.0714
   90MOL0     C12017   2.867   7.351   7.230 -0.1141 -0.1439  0.2828
   90MOL0     O12018   2.992   7.357   7.176 -0.4768  0.3914  0.1658
   90MOL0     C12019   3.107   7.373   7.250 -0.1263  0.8625 -0.4233
   90MOL0     C12020   3.180   7.491   7.225  0.0949 -0.4148  1.6830
   90MOL0     C12021   3.299   7.513   7.292  1.1486 -0.5859  0.1590
   90MOL0     C12022   3.354   7.432   7.384 -0.3659  0.7608 -0.7481
   90MOL0     O12023   3.477   7.459   7.438  0.5051 -0.4384 -1.1794
   90MOL0     C12024   3.548   7.339   7.486  0.2364 -0.5586 -0.5673
   90MOL0     C12025   3.688   7.381   7.518 -0.1216 -0.2930  0.6034
   90MOL0     C12026   3.788   7.266   7.536  1.0000  0.3640 -0.0477
   90MOL0     C12027   3.907   7.313   7.623  0.2177  0.1162  0.0368
   90MOL0     C12028   4.009   7.203   7.651 -1.0728  0.4686 -0.3468
   90MOL0     C12029   4.139   7.260   7.721 -0.0066  0.0825 -0.3293
   90MOL0     C12030   4.252   7.149   7.712  0.6514 -0.3070  0.1970
   90MOL0     C12031   4.370   7.185   7.807  0.5436 -0.6635 -0.1816
   90MOL0     N12032   4.503   7.114   7.774 -1.1510  0.1380  0.4731
   90MOL0     C12033   4.623   7.143   7.839 -0.1387 -0.7965  0.5330
   90MOL0     C12034   4.702   7.037   7.809  0.4289 -0.2529  0.0245
   90MOL0     C12035   4.849   7.012   7.847  0.9663 -0.4063 -0.1975
   90MOL0     C12036   4.923   7.151   7.855  0.7052 -0.4286 -0.1096
   90MOL0     C12037   4.970   7.200   7.716 -1.5825 -0.4598  0.1178
   90MOL0     C12038   5.130   7.176   7.693 -0.6045 -0.9939 -0.7807
   90MOL0     O12039   5.203   7.285   7.749 -0.4697  0.2509  0.2983
   90MOL0     C12040   5.338   7.307   7.717  0.3721  0.2055 -0.2082
   90MOL0     C12041   5.396   7.433   7.731  0.5751  0.7810  0.0388
   90MOL0     C12042   5.534   7.451   7.716  0.0592 -0.5023 -0.9814
   90MOL0     C12043   5.619   7.338   7.699 -0.0261 -0.1085  0.9579
   90MOL0     C12044   5.773   7.358   7.693 -0.8610  0.3591 -0.0509
   90MOL0     O12045   5.851   7.249   7.664  1.1200 -0.2795 -0.2948
   90MOL0     C12046   5.977   7.239   7.700 -0.2010  0.1543  0.0764
   90MOL0     C12047   6.071   7.190   7.609 -0.6024 -0.0399  1.2649
   90MOL0     C12048   6.199   7.152   7.652 -0.0557 -0.5319  1.2966
   90MOL0     C12049   6.242   7.168   7.789  0.4956  0.7075  0.1691
   90MOL0     O12050   6.369   7.131   7.827  0.2234 -0.0310  0.3449
   90MOL0     C12051   6.467   7.085   7.729  0.2404 -0.0908 -0.0456
   90MOL0     C12052   6.591   7.074   7.809  0.5456 -0.0763  0.4368
   90MOL0     C12053   6.704   7.006   7.733  0.5313  0.0664 -0.1208
   90MOL0     C12054   6.820   6.980   7.824  0.8300  0.7778 -0.7751
   90MOL0     C12055   6.943   6.927   7.751  0.2171 -0.2089  0.2976
   90MOL0     C12056   7.049   6.908   7.855 -0.6796 -0.0096  0.2175
   90MOL0     C12057   7.179   6.894   7.789 -0.0470 -0.1164  0.5565
   90MOL0     C12058   7.297   6.896   7.888 -0.6600  0.0242  0.2813
   90MOL0    Cl12059   7.294   6.754   8.007 -0.3181  0.4058 -0.0606
   90MOL0     C12060   6.152   7.224   7.878 -0.6029 -0.7633 -0.3694
   90MOL0     C12061   6.020   7.264   7.838 -0.4020 -0.2353  0.0311
   90MOL0     O12062   5.816   7.468   7.720 -0.0802 -0.4444  0.5841
   90MOL0     C12063   5.562   7.219   7.663 -0.5623  0.0624  0.3261
   90MOL0     C12064   5.418   7.203   7.671  0.6265 -0.4637  0.1754
   90MOL0     N12065   4.623   6.947   7.741  0.1759 -0.4355  0.3368
   90MOL0     N12066   4.500   6.986   7.728  0.7317 -0.6596 -0.0391
   90MOL0     C12067   3.274   7.311   7.419 -0.0783 -0.5419 -0.4574
   90MOL0     C12068   3.155   7.289   7.350  0.7182  0.2861 -0.1508
   90MOL0     C12069   2.756   7.339   7.128  0.6888  0.5529  0.5319
   90MOL0     C12070   2.786   7.392   6.997 -0.3853 -0.2205 -0.3159
   90MOL0     C12071   2.700   7.395   6.894  0.2315  0.0136 -0.1940
   90MOL0     C12072   2.574   7.339   6.909  0.4861 -0.0966  0.4972
   90MOL0     O12073   2.492   7.329   6.799  0.5945  0.0372 -0.2708
   90MOL0     C12074   2.446   7.447   6.749  0.4647 -0.4225  0.2179
   90MOL0     C12075   2.319   7.425   6.666 -0.4689 -0.6544  0.3276
   90MOL0     C12076   2.253   7.564   6.626 -0.0581 -0.1006  0.5844
   90MOL0     C12077   2.327   7.601   6.489  0.2056  0.2904  0.2670
   90MOL0     C12078   2.315   7.744   6.474 -0.2209  0.3765  0.6311
   90MOL0     C12079   2.324   7.861   6.458 -0.2403  0.1692 -0.1560
   90MOL0     C12080   2.540   7.281   7.033 -0.1307 -0.2697 -0.6074
   90MOL0     C12081   2.629   7.284   7.148 -0.0152  0.2862  0.2500
   90MOL0     C12082   2.569   7.248   7.281 -0.1953 -0.3391  0.3056
   90MOL0     H12083   3.148   7.560   7.148  3.5652 -0.7424 -0.2533
   90MOL0     H12084   3.346   7.610   7.278 -1.1845  0.4107 -1.4081
   90MOL0     H12085   3.494   7.305   7.575 -2.1791 -0.2927 -1.8635
   90MOL0     H12086   3.541   7.257   7.415 -0.7407  0.9035 -2.2330
   90MOL0     H12087   3.687   7.438   7.611  1.1058 -1.5713  1.4329
   90MOL0     H12088   3.719   7.449   7.438 -1.9209 -1.8041 -1.5168
   90MOL0     H12089   3.820   7.239   7.434 -2.7765  1.3651 -1.6824
   90MOL0     H12090   3.741   7.180   7.584 -0.0315  0.9084 -0.0532
   90MOL0     H12091   3.966   7.382   7.562  2.2415 -0.9443  0.6687
   90MOL0     H12092   3.873   7.360   7.715 -1.8457 -0.9820 -0.1178
   90MOL0     H12093   3.966   7.126   7.715 -1.4639  1.1399  0.2057
   90MOL0     H12094   4.024   7.151   7.556 -0.5187  1.0373 -0.5780
   90MOL0     H12095   4.180   7.347   7.669  0.6597  1.2554  2.0334
   90MOL0     H12096   4.120   7.298   7.821 -0.9801 -1.1744 -0.0074
   90MOL0     H12097   4.289   7.145   7.609 -1.2516  1.1148 -0.5953
   90MOL0     H12098   4.216   7.049   7.736 -0.8885  0.2702  0.4381
   90MOL0     H12099   4.383   7.292   7.794  0.9948 -0.3881  2.0969
   90MOL0     H12100   4.350   7.162   7.912 -1.0667 -0.5401 -0.4417
   90MOL0     H12101   4.650   7.228   7.900 -0.6111 -0.0135 -0.3246
   90MOL0     H12102   4.860   6.962   7.944  0.7330  1.2142  0.7086
   90MOL0     H12103   4.905   6.949   7.777  0.9138 -1.0092  0.2944
   90MOL0     H12104   4.867   7.230   7.907  1.0700 -0.2799  0.0575
   90MOL0     H12105   5.013   7.144   7.916  0.8961 -1.3256 -0.4874
   90MOL0     H12106   4.947   7.303   7.687  0.2299 -0.7716 -2.8878
   90MOL0     H12107   4.923   7.144   7.635 -0.6614  0.5930 -1.1765
   90MOL0     H12108   5.139   7.182   7.584 -3.5418  0.2189 -1.0361
   90MOL0     H12109   5.165   7.080   7.733  0.9320 -0.4002 -0.6004
   90MOL0     H12110   5.338   7.513   7.777 -1.0846 -0.8171  0.8422
   90MOL0     H12111   5.571   7.547   7.751 -1.3725 -0.9109  1.9687
   90MOL0     H12112   6.041   7.169   7.507  0.4533  0.8646  0.7536
   90MOL0     H12113   6.265   7.099   7.584  0.1885  2.7817 -1.3048
   90MOL0     H12114   6.453   6.991   7.675 -0.8632 -0.2388  0.4746
   90MOL0     H12115   6.476   7.160   7.650 -1.0414  0.0639 -0.0655
   90MOL0     H12116   6.618   7.172   7.849 -2.5936  0.3724  1.7687
   90MOL0     H12117   6.566   7.000   7.886 -0.5887 -0.9355 -0.7081
   90MOL0     H12118   6.679   6.906   7.697  3.3474 -1.3161  1.4405
   90MOL0     H12119   6.726   7.068   7.646  0.3377  1.2237  0.6260
   90MOL0     H12120   6.793   6.904   7.898  1.3549 -0.0630 -1.4427
   90MOL0     H12121   6.847   7.074   7.874 -0.2935  1.6729 -1.7883
   90MOL0     H12122   6.968   6.991   7.666  0.0788 -0.2818  0.2035
   90MOL0     H12123   6.932   6.826   7.712  0.1198  0.4175 -1.3716
   90MOL0     H12124   7.061   6.987   7.929 -0.6365 -0.0154  0.2166
   90MOL0     H12125   7.027   6.814   7.906 -0.3347 -2.4659 -3.7252
   90MOL0     H12126   7.218   6.975   7.726 -0.2044 -2.0834 -2.2481
   90MOL0     H12127   7.183   6.809   7.721 -0.8539  0.8914 -0.7923
   90MOL0     H12128   7.381   6.887   7.818 -1.3987 -1.1555 -0.4806
   90MOL0     H12129   7.285   6.993   7.938 -1.9068 -0.2362  0.5066
   90MOL0     H12130   6.198   7.235   7.976 -1.4788 -4.4140  0.6241
   90MOL0     H12131   5.956   7.318   7.906  0.2449 -0.6220  0.9730
   90MOL0     H12132   5.623   7.132   7.639  0.5667  1.2782 -1.4985
   90MOL0     H12133   5.379   7.106   7.642  0.4821 -0.5375  0.6105
   90MOL0     H12134   3.324   7.237   7.481 -0.4065  0.4549  1.0352
   90MOL0     H12135   3.092   7.201   7.360 -1.0564  1.3630 -1.2712
   90MOL0     H12136   2.887   7.429   6.980 -0.2568 -1.4641 -2.6668
   90MOL0     H12137   2.734   7.431   6.798 -4.4322  1.6487 -1.4834
   90MOL0     H12138   2.527   7.497   6.694 -1.4751  0.7923 -1.7260
   90MOL0     H12139   2.406   7.512   6.827 -0.8566 -2.0471  0.9306
   90MOL0     H12140   2.256   7.361   6.728 -0.4185  0.6769  1.8287
   90MOL0     H12141   2.361   7.378   6.577 -2.3980 -0.3555 -0.7872
   90MOL0     H12142   2.267   7.644   6.700 -1.8683  0.2692  0.5547
   90MOL0     H12143   2.148   7.541   6.606  0.4419 -0.7519 -1.5538
   90MOL0     H12144   2.434   7.578   6.497  0.1966  0.1001 -0.1421
   90MOL0     H12145   2.280   7.540   6.411  1.0439  0.4511 -0.3722
   90MOL0     H12146   2.321   7.968   6.451 -2.0636  0.2689  1.2850
   90MOL0     H12147   2.437   7.246   7.032  0.1361 -1.5136  2.7744
   90MOL0     H12148   2.544   7.335   7.342 -1.4670 -1.4738  1.4818
   90MOL0     H12149   2.483   7.183   7.262  0.1482 -0.4484 -0.9749
   90MOL0     H12150   2.637   7.190   7.344  0.5178 -0.6227 -0.6956
   91MOL0     O12151   4.007  10.701  11.079 -0.5730 -0.5464  0.7044
   91MOL0     C12152   3.959  10.813  11.070 -0.1585  0.4610  0.3786
   91MOL0     O12153   4.021  10.936  11.084  0.1534  0.6386  0.0317
   91MOL0     C12154   4.154  10.927  11.081  0.4517  0.0049 -0.0258
   91MOL0     C12155   4.223  10.993  10.975 -0.5005 -0.3254 -0.0669
   91MOL0     C12156   4.366  10.992  10.988  0.5534  0.5473 -0.3278
   91MOL0     C12157   4.435  10.936  11.093  0.3872  0.3449 -0.5563
   91MOL0     O12158   4.567  10.940  11.083  0.3698  0.6246 -0.1931
   91MOL0     C12159   4.628  10.830  11.142  0.1195  0.2460 -0.5361
   91MOL0     C12160   4.751  10.799  11.058  0.1978 -0.2950  0.9807
   91MOL0     C12161   4.713  10.753  10.911 -0.5280 -0.4174  0.1023
   91MOL0     C12162   4.828  10.697  10.825  0.7239  0.1602  0.4388
   91MOL0     C12163   4.945  10.793  10.811  0.8124  0.8097  0.3984
   91MOL0     C12164   4.923  10.933  10.758 -0.0632 -0.0700  0.0736
   91MOL0     C12165   5.054  11.003  10.730  0.9830 -0.5752 -0.4301
   91MOL0     C12166   5.013  11.134  10.657 -0.0198  0.2669  0.9463
   91MOL0     N12167   5.115  11.239  10.629 -0.0412  0.4339  0.0241
   91MOL0     C12168   5.106  11.336  10.530  0.3218 -0.5033  0.1938
   91MOL0     C12169   5.230  11.397  10.534  0.9127  0.1835  0.0029
   91MOL0     C12170   5.281  11.515  10.461 -0.1724 -0.1103  0.1576
   91MOL0     C12171   5.304  11.642  10.554  0.1053  0.4598  0.5058
   91MOL0     C12172   5.210  11.644  10.671 -0.4130  0.3939  0.6610
   91MOL0     C12173   5.249  11.761  10.765  0.2184 -0.9187  0.0720
   91MOL0     O12174   5.205  11.889  10.707 -0.4769 -0.1802 -1.1023
   91MOL0     C12175   5.250  12.011  10.763  0.5103 -0.1861 -1.3839
   91MOL0     C12176   5.229  12.125  10.678  0.5749  0.1079 -0.4965
   91MOL0     C12177   5.278  12.250  10.715 -0.3137  0.2509 -0.5744
   91MOL0     C12178   5.323  12.287  10.851  0.0621  0.7991  0.4004
   91MOL0     C12179   5.377  12.422  10.887  0.1286  0.1973 -1.1769
   91MOL0     O12180   5.419  12.432  11.015 -0.5690  0.4663  0.1910
   91MOL0     C12181   5.466  12.548  11.064 -0.0558  0.0312  0.2002
   91MOL0     C12182   5.458  12.553  11.206 -0.2188  1.0035 -0.0057
   91MOL0     C12183   5.499  12.670  11.275 -0.1756 -0.8246 -0.4369
   91MOL0     C12184   5.567  12.772  11.206 -0.6762  0.5796  0.2046
   91MOL0     O12185   5.608  12.890  11.260  0.5241 -0.5704 -0.0072
   91MOL0     C12186   5.730  12.887  11.333  0.4012 -0.0450  0.0676
   91MOL0     C12187   5.781  13.026  11.361  0.2903 -0.9993 -1.0376
   91MOL0     C12188   5.902  13.022  11.448  0.1392  0.4482 -0.0027
   91MOL0     C12189   6.021  13.000  11.352 -0.3951  0.5049  0.3646
   91MOL0     C12190   6.158  12.958  11.416  1.1440 -0.2066 -0.0111
   91MOL0     C12191   6.227  13.069  11.495 -0.4016  0.1118 -0.0527
   91MOL0     C12192   6.372  13.017  11.540  0.4006 -0.4684  0.7738
   91MOL0     C12193   6.455  13.142  11.574  0.0478  0.0214  0.5696
   91MOL0    Cl12194   6.376  13.230  11.702 -0.3987 -0.1139  0.2143
   91MOL0     C12195   5.587  12.761  11.068  0.2109  0.0612 -0.2181
   91MOL0     C12196   5.533  12.654  11.001 -0.1555  0.0441 -0.7334
   91MOL0     O12197   5.394  12.506  10.800  0.0732 -0.5848 -0.2015
   91MOL0     C12198   5.333  12.175  10.934 -0.7168 -0.4107 -0.2220
   91MOL0     C12199   5.309  12.031  10.889 -0.3340 -0.8859  0.7999
   91MOL0     N12200   5.310  11.332  10.623 -0.1780  0.9583 -1.0403
   91MOL0     N12201   5.242  11.243  10.685  0.0375  0.0962  0.3336
   91MOL0     C12202   4.363  10.879  11.204 -0.1539 -0.7604 -0.3303
   91MOL0     C12203   4.222  10.875  11.195  0.7182 -0.9771 -0.5754
   91MOL0     C12204   3.811  10.822  11.056 -0.4361  0.6724  0.2842
   91MOL0     C12205   3.752  10.928  11.134 -0.5153  0.3418 -0.2356
   91MOL0     C12206   3.616  10.947  11.136  1.1541  0.0538  0.2936
   91MOL0     C12207   3.527  10.859  11.062 -0.0364 -0.4605 -0.9137
   91MOL0     O12208   3.385  10.862  11.061 -0.0350 -0.3214  0.2628
   91MOL0     C12209   3.328  10.905  11.181  0.9584  0.2276 -0.0039
   91MOL0     C12210   3.204  10.826  11.214  0.6858 -0.2345 -0.3385
   91MOL0     C12211   3.076  10.844  11.115 -0.7351 -0.0370 -0.3567
   91MOL0     C12212   3.008  10.709  11.081 -0.6589  0.3816  0.1756
   91MOL0     C12213   2.888  10.728  10.992  0.5924  0.1939  0.0471
   91MOL0     C12214   2.802  10.758  10.911  0.6179  0.6595  0.8154
   91MOL0     C12215   3.582  10.762  10.986 -0.8960  0.4124  0.2498
   91MOL0     C12216   3.725  10.737  10.982  0.2092  0.0320  0.1106
   91MOL0     C12217   3.774  10.615  10.894 -0.1999  0.2665  0.9006
   91MOL0     H12218   4.171  11.043  10.894 -0.7174 -0.8855 -0.2720
   91MOL0     H12219   4.426  11.031  10.907 -0.0154 -0.2947 -1.1897
   91MOL0     H12220   4.672  10.857  11.238 -0.8655  1.8894 -0.5073
   91MOL0     H12221   4.566  10.741  11.159 -0.6157  0.6817 -0.9061
   91MOL0     H12222   4.799  10.708  11.096 -0.1080 -0.2448  1.4932
   91MOL0     H12223   4.823  10.879  11.046 -2.2626  1.8699 -0.4293
   91MOL0     H12224   4.672  10.837  10.853  0.3712  2.9520  3.8697
   91MOL0     H12225   4.632  10.681  10.922 -2.5759  1.4252 -1.7656
   91MOL0     H12226   4.862  10.602  10.867 -3.9588 -0.8902  2.4561
   91MOL0     H12227   4.787  10.673  10.727 -1.2723  2.8193  0.5137
   91MOL0     H12228   5.005  10.809  10.902  1.1637  0.2729  0.2686
   91MOL0     H12229   5.017  10.744  10.745 -0.8265  0.1513 -0.9788
   91MOL0     H12230   4.861  10.926  10.668  0.5140 -0.0851 -0.3304
   91MOL0     H12231   4.870  10.978  10.842 -2.0903 -1.0749 -0.6082
   91MOL0     H12232   5.119  10.945  10.665  1.1564 -0.5617 -0.2702
   91MOL0     H12233   5.102  11.038  10.822  0.4272 -0.5676 -0.1398
   91MOL0     H12234   4.964  11.104  10.565 -0.9430  0.5742  1.3270
   91MOL0     H12235   4.946  11.191  10.722  0.5726 -0.3549  2.1407
   91MOL0     H12236   5.021  11.360  10.467 -1.2304 -0.3048  2.2618
   91MOL0     H12237   5.378  11.499  10.413 -0.1685  1.3184 -0.3698
   91MOL0     H12238   5.204  11.539  10.387 -2.8402  0.8316  2.9945
   91MOL0     H12239   5.401  11.651  10.604 -0.3194  1.4774  1.1857
   91MOL0     H12240   5.287  11.729  10.490 -0.9088 -0.6958 -0.8328
   91MOL0     H12241   5.221  11.548  10.722 -0.9724 -0.6021 -1.0074
   91MOL0     H12242   5.107  11.650  10.636  0.1693 -0.3287 -1.3227
   91MOL0     H12243   5.358  11.768  10.773  0.5450 -1.5380 -2.6995
   91MOL0     H12244   5.214  11.754  10.869 -1.2562  2.2657 -0.1091
   91MOL0     H12245   5.189  12.096  10.582 -1.4777  0.0282  0.3269
   91MOL0     H12246   5.269  12.322  10.634 -0.1406  0.4360 -0.4308
   91MOL0     H12247   5.409  12.470  11.256  0.5124  1.5841  1.7328
   91MOL0     H12248   5.492  12.669  11.383  2.3577 -1.1267 -0.2168
   91MOL0     H12249   5.705  12.845  11.431 -4.9938  2.1155 -0.0496
   91MOL0     H12250   5.806  12.829  11.280  0.4644 -1.6392  1.8104
   91MOL0     H12251   5.791  13.098  11.278 -2.4648  0.9039  0.1378
   91MOL0     H12252   5.703  13.075  11.419  1.8304  1.2802 -0.7628
   91MOL0     H12253   5.919  13.117  11.498  1.4804  0.5362 -0.5848
   91MOL0     H12254   5.893  12.945  11.525  0.4849 -0.0411 -0.4373
   91MOL0     H12255   6.052  13.093  11.303 -2.1902  1.6543  1.3145
   91MOL0     H12256   6.003  12.929  11.270 -1.3510 -0.9968  1.8087
   91MOL0     H12257   6.218  12.925  11.331  0.2592  1.5141 -1.3774
   91MOL0     H12258   6.140  12.881  11.491 -0.5883  1.4072  1.3451
   91MOL0     H12259   6.236  13.154  11.426  1.2883 -0.2307 -0.3058
   91MOL0     H12260   6.166  13.097  11.581  0.3157  0.4482  0.3546
   91MOL0     H12261   6.412  12.955  11.459 -0.2415  0.7427 -0.5085
   91MOL0     H12262   6.344  12.958  11.627 -2.2529  1.1091  1.1076
   91MOL0     H12263   6.556  13.113  11.606  0.2206 -0.6332 -0.5054
   91MOL0     H12264   6.468  13.209  11.488  0.7206 -0.2115  0.4824
   91MOL0     H12265   5.635  12.836  11.006 -0.5097 -0.3916 -1.3604
   91MOL0     H12266   5.551  12.646  10.894 -1.8892 -1.0325 -0.9687
   91MOL0     H12267   5.378  12.197  11.030  0.0098 -0.2864 -0.5816
   91MOL0     H12268   5.328  11.939  10.944  0.6471 -1.2679 -0.1449
   91MOL0     H12269   4.414  10.853  11.296 -0.3583  0.8651  0.2661
   91MOL0     H12270   4.162  10.842  11.278  3.9063 -0.0002  2.3557
   91MOL0     H12271   3.810  10.995  11.197 -0.8085  0.2878  0.0993
   91MOL0     H12272   3.577  11.023  11.202  3.1586  1.6652 -0.2967
   91MOL0     H12273   3.296  11.009  11.173 -2.6309 -0.6987  0.4301
   91MOL0     H12274   3.386  10.893  11.273 -1.4805 -2.4600  1.3695
   91MOL0     H12275   3.179  10.845  11.319  2.1557 -0.7410  0.1276
   91MOL0     H12276   3.230  10.720  11.208 -1.2421 -0.7849  0.4838
   91MOL0     H12277   3.111  10.905  11.030 -0.8895  0.4772 -0.0575
   91MOL0     H12278   2.997  10.906  11.157 -2.5445 -2.4716  0.0143
   91MOL0     H12279   3.088  10.659  11.026 -0.1923 -1.4482  2.3401
   91MOL0     H12280   2.997  10.640  11.165  0.6569 -0.8496 -0.6216
   91MOL0     H12281   2.743  10.789  10.827  0.3433 -2.2882 -0.2070
   91MOL0     H12282   3.506  10.698  10.942 -0.8655 -1.0779  2.2417
   91MOL0     H12283   3.840  10.553  10.955  1.0884  0.6932 -0.0140
   91MOL0     H12284   3.683  10.563  10.862 -0.0359 -0.1027  1.0375
   91MOL0     H12285   3.825  10.655  10.805 -0.1546 -2.1729 -0.2344
   92MOL0     O12286   0.467   3.262   6.750  0.5503  0.3132  0.0356
   92MOL0     C12287   0.376   3.267   6.832 -0.4552 -0.3847  0.2007
   92MOL0     O12288   0.387   3.285   6.966 -0.1784  0.1038  0.6970
   92MOL0     C12289   0.492   3.359   7.021  0.6168 -0.3142  0.1614
   92MOL0     C12290   0.558   3.457   6.946  0.1877  0.3814 -0.8294
   92MOL0     C12291   0.656   3.536   7.006  0.3130  0.1638  0.3235
   92MOL0     C12292   0.702   3.519   7.137 -0.2412  0.5090  0.5227
   92MOL0     O12293   0.809   3.602   7.182  0.2186  0.3874 -0.6691
   92MOL0     C12294   0.791   3.639   7.319  0.4033 -0.2743 -0.6491
   92MOL0     C12295   0.886   3.752   7.352  0.4101 -0.2245  0.6994
   92MOL0     C12296   1.022   3.691   7.372  0.0108 -0.1315  0.1932
   92MOL0     C12297   1.127   3.806   7.344  0.3657  0.2661 -0.3152
   92MOL0     C12298   1.264   3.772   7.411  0.5256  0.3757  0.1250
   92MOL0     C12299   1.339   3.898   7.366  0.0017  0.6291  0.2628
   92MOL0     C12300   1.488   3.900   7.424 -0.9943  0.5824  0.1754
   92MOL0     C12301   1.560   4.036   7.386  0.1035  0.2828  0.1699
   92MOL0     N12302   1.702   4.009   7.422  0.0826  0.2840  0.2537
   92MOL0     C12303   1.778   4.109   7.456 -0.4683  0.1246 -0.7317
   92MOL0     C12304   1.908   4.058   7.469  1.0850 -0.0647 -0.2494
   92MOL0     C12305   2.026   4.142   7.502 -0.2430 -0.6107  0.1296
   92MOL0     C12306   2.023   4.186   7.648 -0.1005 -0.7191 -0.6070
   92MOL0     C12307   2.156   4.226   7.695  0.0858  0.1843  0.5405
   92MOL0     C12308   2.261   4.118   7.714  0.0817  0.4237  0.0228
   92MOL0     O12309   2.375   4.171   7.786 -0.1692  0.7394 -0.1342
   92MOL0     C12310   2.467   4.089   7.823  0.3426  0.0597 -0.2649
   92MOL0     C12311   2.526   4.123   7.943 -1.4662  0.6082 -0.4742
   92MOL0     C12312   2.646   4.058   7.982 -0.0113 -0.2168  0.3648
   92MOL0     C12313   2.691   3.949   7.911 -0.3665 -0.3272 -0.6901
   92MOL0     C12314   2.810   3.883   7.963 -0.0907 -0.2713 -0.1275
   92MOL0     O12315   2.816   3.745   7.936  0.1119 -0.2523 -0.0314
   92MOL0     C12316   2.925   3.665   7.971 -0.5982 -0.7805 -1.0008
   92MOL0     C12317   3.052   3.701   8.025 -0.1380 -0.2361  0.1361
   92MOL0     C12318   3.131   3.600   8.079  0.8824  0.3293  0.1899
   92MOL0     C12319   3.101   3.465   8.065 -1.3949  0.7436 -0.4695
   92MOL0     O12320   3.174   3.369   8.128 -0.6313  0.4864  0.6096
   92MOL0     C12321   3.300   3.402   8.191 -0.0660  0.6365  0.2185
   92MOL0     C12322   3.370   3.275   8.240  0.3203 -0.7101 -0.7141
   92MOL0     C12323   3.475   3.287   8.348  0.3376 -0.5354 -1.2026
   92MOL0     C12324   3.553   3.155   8.365 -0.2516  0.3267  0.2242
   92MOL0     C12325   3.654   3.175   8.485 -0.0924 -0.8987 -0.6967
   92MOL0     C12326   3.754   3.059   8.494 -0.8184 -0.1132 -0.3137
   92MOL0     C12327   3.861   3.090   8.601  0.8278 -0.6190 -0.4046
   92MOL0     C12328   3.940   2.969   8.633  0.0201  0.4232  0.3855
   92MOL0    Cl12329   4.065   2.941   8.502 -0.6715 -0.0555 -0.1563
   92MOL0     C12330   2.982   3.433   8.005  0.1895 -0.0545 -0.3604
   92MOL0     C12331   2.901   3.534   7.955  0.1866  0.4107  0.8926
   92MOL0     O12332   2.889   3.945   8.038  0.6554  0.0125 -0.2246
   92MOL0     C12333   2.634   3.918   7.792 -0.7326 -0.8969  0.2265
   92MOL0     C12334   2.523   3.985   7.742 -0.0154 -0.4319  0.3424
   92MOL0     N12335   1.910   3.928   7.416  0.0409  0.1079 -0.7195
   92MOL0     N12336   1.783   3.898   7.412  0.0383 -0.3438 -0.0416
   92MOL0     C12337   0.637   3.419   7.211  0.7801  0.4474 -0.1190
   92MOL0     C12338   0.530   3.344   7.155 -0.2683 -0.3899  0.5062
   92MOL0     C12339   0.237   3.260   6.779  0.8683 -0.0293  0.3862
   92MOL0     C12340   0.137   3.212   6.874  0.9335 -0.3775  0.2737
   92MOL0     C12341   0.005   3.182   6.826 -0.2708  0.0629  0.8971
   92MOL0     C12342  -0.034   3.196   6.693  0.3284 -0.8657  0.4405
   92MOL0     O12343  -0.161   3.167   6.647  0.3516  0.1215  0.3754
   92MOL0     C12344  -0.168   3.078   6.534 -0.3067  0.0530  0.1189
   92MOL0     C12345  -0.308   3.047   6.470  0.3718  0.2079 -0.7660
   92MOL0     C12346  -0.369   2.908   6.510 -1.3064  0.3263 -0.3911
   92MOL0     C12347  -0.501   2.891   6.435  0.8892  0.2583  0.1599
   92MOL0     C12348  -0.601   2.988   6.475 -0.3431  0.7470 -0.3855
   92MOL0     C12349  -0.675   3.079   6.504 -0.5262 -0.5151  0.6154
   92MOL0     C12350   0.062   3.250   6.612  0.8522 -0.6841  0.9130
   92MOL0     C12351   0.197   3.276   6.648 -0.1090 -0.8300 -0.6404
   92MOL0     C12352   0.269   3.359   6.546  0.2713 -0.5179 -0.2620
   92MOL0     H12353   0.539   3.480   6.842  0.2123  4.4784 -0.1200
   92MOL0     H12354   0.708   3.605   6.940  3.3400 -1.7369  0.5091
   92MOL0     H12355   0.689   3.675   7.335  0.0629 -1.7912  0.9155
   92MOL0     H12356   0.823   3.559   7.385  3.1494  1.3610  0.1457
   92MOL0     H12357   0.851   3.804   7.442 -2.9548  0.0250 -0.5749
   92MOL0     H12358   0.885   3.823   7.268 -1.6158 -0.7473  0.2212
   92MOL0     H12359   1.032   3.616   7.293 -2.3265 -1.7405  1.3207
   92MOL0     H12360   1.029   3.640   7.468  0.9432 -1.8909 -0.7541
   92MOL0     H12361   1.134   3.818   7.235  1.7557  2.3139 -0.0675
   92MOL0     H12362   1.087   3.897   7.389 -2.7961 -0.7958 -0.7634
   92MOL0     H12363   1.272   3.755   7.519  0.2971 -0.2088  0.0553
   92MOL0     H12364   1.304   3.686   7.357  0.5841 -0.9859  2.1897
   92MOL0     H12365   1.344   3.903   7.257  2.1339 -0.5583  0.2603
   92MOL0     H12366   1.292   3.990   7.402  0.2793  0.4741  1.0462
   92MOL0     H12367   1.550   3.812   7.407 -0.1646  0.9360  1.2470
   92MOL0     H12368   1.466   3.899   7.532 -1.6785  0.2760  0.0416
   92MOL0     H12369   1.544   4.068   7.283  0.9935  0.2384  0.0111
   92MOL0     H12370   1.522   4.116   7.451  0.3567 -0.5884  1.4326
   92MOL0     H12371   1.753   4.213   7.475  1.4526  0.8597 -1.9025
   92MOL0     H12372   2.118   4.090   7.475 -0.2563 -1.5978  1.7769
   92MOL0     H12373   2.028   4.232   7.440  1.3523 -0.7154 -0.0173
   92MOL0     H12374   1.956   4.272   7.642 -0.8646 -1.3979 -3.5597
   92MOL0     H12375   1.991   4.115   7.725  3.4693 -0.0789  1.7025
   92MOL0     H12376   2.131   4.276   7.789 -0.4120 -1.2231  1.1788
   92MOL0     H12377   2.194   4.301   7.624 -0.0105  1.2941  1.6211
   92MOL0     H12378   2.298   4.075   7.620 -0.3816 -0.6729  0.3179
   92MOL0     H12379   2.198   4.044   7.765 -3.7677  3.7453  0.5646
   92MOL0     H12380   2.494   4.210   8.000  1.4143  2.9276 -2.1247
   92MOL0     H12381   2.684   4.096   8.076 -0.7905 -0.2178  0.6855
   92MOL0     H12382   3.084   3.805   8.036  2.1700 -0.7310 -1.2134
   92MOL0     H12383   3.220   3.633   8.133  0.0165  1.9074  0.7206
   92MOL0     H12384   3.361   3.449   8.114  0.2748  0.4199  0.3511
   92MOL0     H12385   3.284   3.475   8.271 -0.7123  2.6717 -1.6676
   92MOL0     H12386   3.300   3.197   8.270  1.3935 -1.5441 -0.3009
   92MOL0     H12387   3.429   3.226   8.162 -3.3519 -3.3328 -2.1361
   92MOL0     H12388   3.538   3.374   8.331 -3.2575  2.2965 -1.1674
   92MOL0     H12389   3.423   3.307   8.442  0.8577  1.3644 -1.2932
   92MOL0     H12390   3.618   3.119   8.285  0.7649 -4.1290  2.7123
   92MOL0     H12391   3.497   3.065   8.391 -0.4860  0.3950 -0.0399
   92MOL0     H12392   3.594   3.186   8.576 -1.3353 -3.2874 -1.1393
   92MOL0     H12393   3.703   3.273   8.481 -0.4028 -0.6454  0.8442
   92MOL0     H12394   3.695   2.971   8.518 -0.8722 -0.4331 -1.5305
   92MOL0     H12395   3.808   3.040   8.400 -2.6528  0.6195 -1.5685
   92MOL0     H12396   3.801   3.126   8.686  2.4573  2.5077 -0.4595
   92MOL0     H12397   3.927   3.171   8.570  4.1925 -2.4771  1.3863
   92MOL0     H12398   3.995   2.976   8.727  4.1438  1.1039 -1.8322
   92MOL0     H12399   3.870   2.885   8.631  1.6531 -0.9995  0.5576
   92MOL0     H12400   2.962   3.327   8.004 -0.0555 -0.1025  2.4164
   92MOL0     H12401   2.820   3.501   7.891  1.2538 -1.1748  0.2917
   92MOL0     H12402   2.681   3.832   7.745 -2.5644 -2.8110  1.7008
   92MOL0     H12403   2.492   3.941   7.648  1.8876 -4.4340  1.3465
   92MOL0     H12404   0.655   3.407   7.318  2.5675  0.0574 -0.4292
   92MOL0     H12405   0.484   3.281   7.230 -0.6504 -0.9094 -0.1598
   92MOL0     H12406   0.172   3.169   6.968 -0.6198  0.8106  1.4411
   92MOL0     H12407  -0.072   3.148   6.895 -1.0664  1.6346  0.8195
   92MOL0     H12408  -0.127   2.984   6.573 -0.0466  0.0391 -0.1852
   92MOL0     H12409  -0.098   3.105   6.455 -0.6315 -2.2244 -1.0356
   92MOL0     H12410  -0.286   3.037   6.363  0.4188 -1.4222 -0.6395
   92MOL0     H12411  -0.382   3.122   6.497 -0.4042  0.2819 -2.9096
   92MOL0     H12412  -0.364   2.896   6.619  2.2062  0.4970 -0.4334
   92MOL0     H12413  -0.298   2.837   6.467 -0.7444 -0.2106  1.3603
   92MOL0     H12414  -0.465   2.900   6.332  4.7795 -0.3834  1.2879
   92MOL0     H12415  -0.544   2.792   6.453 -2.9822  1.9373  0.9580
   92MOL0     H12416  -0.744   3.158   6.527  1.4259  1.3995  0.2128
   92MOL0     H12417   0.029   3.275   6.511 -0.6336  0.9511  1.7469
   92MOL0     H12418   0.205   3.443   6.517  2.0899  1.5322  1.2739
   92MOL0     H12419   0.350   3.421   6.586 -0.9885  1.3108 -0.3938
   92MOL0     H12420   0.309   3.303   6.461  1.4461 -3.8554  2.2800
   93MOL0     O12421   0.486   6.491   4.249 -0.5139  0.1769  0.0555
   93MOL0     C12422   0.520   6.428   4.352 -0.0594 -0.7456 -0.1121
   93MOL0     O12423   0.645   6.414   4.400 -0.1491 -0.0736 -0.1404
   93MOL0     C12424   0.740   6.479   4.319 -0.1205  0.9800  0.6066
   93MOL0     C12425   0.809   6.428   4.201  0.0683  0.4861 -0.7429
   93MOL0     C12426   0.896   6.503   4.128  0.4511  0.0185 -0.1887
   93MOL0     C12427   0.914   6.639   4.151  0.1053  0.3810  0.7028
   93MOL0     O12428   1.006   6.722   4.088 -0.0691 -0.0127 -0.1618
   93MOL0     C12429   1.027   6.715   3.948 -0.7036  0.8715  0.0753
   93MOL0     C12430   1.102   6.839   3.903 -0.7135  0.0414  0.2626
   93MOL0     C12431   1.018   6.965   3.902 -0.0227  0.6141  0.8697
   93MOL0     C12432   1.102   7.090   3.877 -0.5150 -0.6998  0.1910
   93MOL0     C12433   1.011   7.206   3.908  0.9240 -0.0774  0.3858
   93MOL0     C12434   0.975   7.243   4.054 -1.0848 -0.3814 -0.7235
   93MOL0     C12435   1.092   7.308   4.124 -0.1197 -0.1325 -0.1311
   93MOL0     C12436   1.075   7.464   4.112 -0.2052  0.1216 -0.9282
   93MOL0     N12437   1.197   7.534   4.157 -0.6026 -0.1049  0.6669
   93MOL0     C12438   1.277   7.618   4.079  0.2805  0.3039 -0.1166
   93MOL0     C12439   1.360   7.680   4.166 -1.1098  0.2938  0.5901
   93MOL0     C12440   1.456   7.787   4.124 -0.9819 -0.6292  0.0527
   93MOL0     C12441   1.603   7.738   4.111 -0.0115 -0.5856  0.0471
   93MOL0     C12442   1.684   7.835   4.029 -0.3313 -0.4571 -0.5745
   93MOL0     C12443   1.826   7.809   4.033 -0.2140  0.0719 -0.5098
   93MOL0     O12444   1.877   7.787   4.169  0.1495  0.1538 -0.0824
   93MOL0     C12445   2.016   7.785   4.178 -1.1167 -0.5597 -0.2629
   93MOL0     C12446   2.102   7.766   4.066  0.2477 -0.4070 -0.1770
   93MOL0     C12447   2.244   7.742   4.078 -0.5229  0.5388 -0.7456
   93MOL0     C12448   2.303   7.762   4.210  0.0173 -0.2879  0.4623
   93MOL0     C12449   2.454   7.759   4.225  0.0685  0.6709  0.1528
   93MOL0     O12450   2.518   7.723   4.104  0.0299 -0.1710  0.2064
   93MOL0     C12451   2.652   7.687   4.112 -0.4737 -1.3771 -1.3718
   93MOL0     C12452   2.734   7.745   4.012 -0.8803  0.5492 -0.4210
   93MOL0     C12453   2.867   7.697   3.984 -0.7654 -1.0607 -0.3293
   93MOL0     C12454   2.920   7.592   4.062  0.0842  0.2522 -0.3380
   93MOL0     O12455   3.048   7.554   4.035 -0.5075  0.0539 -0.1435
   93MOL0     C12456   3.080   7.414   4.054  0.7256 -0.3896  0.1644
   93MOL0     C12457   3.204   7.373   3.976 -0.6672  0.3295 -0.1727
   93MOL0     C12458   3.246   7.220   4.012 -0.4973  0.5398  0.1264
   93MOL0     C12459   3.383   7.180   3.941  0.3993  0.0528 -0.2195
   93MOL0     C12460   3.411   7.026   3.951 -0.0514  0.8244 -0.0655
   93MOL0     C12461   3.514   7.002   4.062 -0.3470  0.2633  0.0610
   93MOL0     C12462   3.650   7.044   4.021 -0.2288 -0.2131  0.2157
   93MOL0     C12463   3.748   7.012   4.127  0.5693  0.1590 -0.9015
   93MOL0    Cl12464   3.737   7.125   4.278  0.3994 -0.1196  0.2115
   93MOL0     C12465   2.842   7.549   4.173 -0.0667 -0.1667 -1.2757
   93MOL0     C12466   2.712   7.594   4.195  0.0978  0.4178 -0.3337
   93MOL0     O12467   2.515   7.779   4.331  1.1451  0.4254  0.0748
   93MOL0     C12468   2.214   7.781   4.320 -0.5095 -0.3539  0.2042
   93MOL0     C12469   2.081   7.785   4.308 -0.1201  0.9381 -0.0063
   93MOL0     N12470   1.334   7.641   4.296 -0.2113  0.1291 -0.4846
   93MOL0     N12471   1.229   7.561   4.285  0.0147 -1.0467  0.1864
   93MOL0     C12472   0.865   6.685   4.275 -0.7107 -0.1506 -0.4744
   93MOL0     C12473   0.776   6.608   4.355  1.0966  0.3095 -0.2859
   93MOL0     C12474   0.402   6.378   4.438 -0.8826  0.1510  0.7191
   93MOL0     C12475   0.293   6.315   4.368 -0.0212  0.3917 -0.1316
   93MOL0     C12476   0.174   6.281   4.442  0.6369 -0.2246  0.8857
   93MOL0     C12477   0.163   6.311   4.579 -0.6971  0.1216 -0.2738
   93MOL0     O12478   0.048   6.263   4.639 -0.6418  0.6005  0.7096
   93MOL0     C12479   0.041   6.267   4.790 -0.0181  0.0179 -0.7354
   93MOL0     C12480  -0.095   6.225   4.843 -0.3985 -1.0590  0.0842
   93MOL0     C12481  -0.104   6.077   4.822 -0.1514  0.4502 -0.3304
   93MOL0     C12482  -0.221   6.031   4.898 -0.2491 -0.4138  0.3116
   93MOL0     C12483  -0.233   5.883   4.914 -0.0983 -0.4301 -0.2845
   93MOL0     C12484  -0.235   5.764   4.924 -0.0124  0.5677  0.3864
   93MOL0     C12485   0.275   6.368   4.646 -0.0082 -0.2006  0.2671
   93MOL0     C12486   0.395   6.398   4.578 -0.7635  0.4264  0.5364
   93MOL0     C12487   0.506   6.467   4.657 -0.6454  0.6328  0.1509
   93MOL0     H12488   0.798   6.323   4.177 -1.7015  0.3290  0.5572
   93MOL0     H12489   0.947   6.452   4.046 -1.2850  1.0395 -1.9944
   93MOL0     H12490   1.081   6.622   3.928 -2.1345  0.2468 -1.1282
   93MOL0     H12491   0.939   6.699   3.885 -1.2575  1.4767  0.6692
   93MOL0     H12492   1.132   6.807   3.802  5.2923  1.0483  1.3537
   93MOL0     H12493   1.190   6.851   3.966 -1.3283 -0.7549  1.3133
   93MOL0     H12494   0.972   6.976   4.000 -0.2154 -1.9299  1.1376
   93MOL0     H12495   0.939   6.943   3.830  0.8416 -1.2476  0.4104
   93MOL0     H12496   1.184   7.083   3.948 -0.7627  0.4506  0.6166
   93MOL0     H12497   1.141   7.087   3.775 -0.8139  1.2727 -0.0249
   93MOL0     H12498   1.056   7.294   3.862 -3.8684  2.1246 -0.7121
   93MOL0     H12499   0.921   7.191   3.848  0.7249 -1.1094  0.9292
   93MOL0     H12500   0.877   7.289   4.073 -0.0562  1.3868  0.6764
   93MOL0     H12501   0.960   7.153   4.114  0.0999 -0.3466 -0.3439
   93MOL0     H12502   1.193   7.279   4.092  1.6446  1.9525  2.9623
   93MOL0     H12503   1.083   7.295   4.232 -3.1898 -0.6481 -0.3627
   93MOL0     H12504   1.066   7.494   4.007 -0.0692  1.0637 -0.6750
   93MOL0     H12505   0.987   7.503   4.164 -0.8000 -1.3217 -0.7773
   93MOL0     H12506   1.267   7.630   3.972 -0.6282  1.6151  0.0814
   93MOL0     H12507   1.429   7.833   4.029  1.3655 -2.6010 -1.6801
   93MOL0     H12508   1.450   7.864   4.202  0.1077 -1.6536  1.1984
   93MOL0     H12509   1.633   7.718   4.215 -0.4923  2.4206  0.8630
   93MOL0     H12510   1.602   7.646   4.052  1.7516 -1.8215  1.8143
   93MOL0     H12511   1.674   7.932   4.078  1.9267  0.2130 -1.3351
   93MOL0     H12512   1.645   7.841   3.927  2.3370  1.1961 -1.5962
   93MOL0     H12513   1.884   7.893   3.992  0.9501  0.2227  1.3110
   93MOL0     H12514   1.858   7.720   3.978 -1.2353 -0.1299 -0.8021
   93MOL0     H12515   2.065   7.786   3.967 -1.8197  1.0288  0.8178
   93MOL0     H12516   2.303   7.718   3.990  1.8082 -1.4472  1.2355
   93MOL0     H12517   2.698   7.805   3.930  3.0195  0.9765 -2.0375
   93MOL0     H12518   2.924   7.721   3.895 -1.7412  0.4474 -0.5868
   93MOL0     H12519   3.095   7.387   4.159  0.1969 -0.2802  0.2736
   93MOL0     H12520   2.995   7.359   4.011  1.3721 -0.7652 -0.6491
   93MOL0     H12521   3.195   7.380   3.867 -0.6155  0.7985 -0.1488
   93MOL0     H12522   3.287   7.436   4.009 -0.1044 -1.5194  2.2089
   93MOL0     H12523   3.256   7.216   4.120 -2.1915  1.5042  0.3462
   93MOL0     H12524   3.165   7.153   3.980  0.6837 -0.9675  0.1719
   93MOL0     H12525   3.472   7.237   3.970  0.6315 -0.4217  0.0163
   93MOL0     H12526   3.371   7.201   3.835  0.7515  0.2584 -0.2206
   93MOL0     H12527   3.441   6.979   3.857 -0.9546 -0.9354  0.4963
   93MOL0     H12528   3.324   6.963   3.968  1.1524 -1.0994 -0.7221
   93MOL0     H12529   3.488   7.037   4.163  2.4820 -0.0235  0.9698
   93MOL0     H12530   3.527   6.898   4.092 -1.2509  0.5393  1.5187
   93MOL0     H12531   3.654   7.151   3.997 -0.6916 -0.4420 -0.9318
   93MOL0     H12532   3.678   6.990   3.930 -0.2731  0.7653 -0.3958
   93MOL0     H12533   3.738   6.908   4.161  0.5356  0.3556 -0.2941
   93MOL0     H12534   3.847   7.023   4.082 -0.7364 -1.2190 -4.4632
   93MOL0     H12535   2.880   7.471   4.238 -0.7186  0.3357 -0.2658
   93MOL0     H12536   2.648   7.548   4.269  0.6203 -3.0752 -1.8195
   93MOL0     H12537   2.256   7.793   4.419 -1.9391 -4.0714  1.4441
   93MOL0     H12538   2.006   7.780   4.386 -0.5789  0.7380 -0.4483
   93MOL0     H12539   0.888   6.789   4.295 -0.2014 -0.1328 -1.1169
   93MOL0     H12540   0.734   6.650   4.446 -1.1333 -1.9372 -0.1581
   93MOL0     H12541   0.302   6.297   4.262 -0.0447 -1.1120  0.0922
   93MOL0     H12542   0.092   6.235   4.388  2.2736  2.4728 -4.6165
   93MOL0     H12543   0.045   6.373   4.816 -1.5022 -0.2862  0.8706
   93MOL0     H12544   0.125   6.214   4.836  2.0265  1.7731 -2.2171
   93MOL0     H12545  -0.158   6.296   4.788  2.4178  2.5900  1.2384
   93MOL0     H12546  -0.115   6.251   4.947 -1.2499  1.9580 -0.7218
   93MOL0     H12547  -0.020   6.028   4.873 -1.7660 -0.6684  1.3766
   93MOL0     H12548  -0.107   6.043   4.717 -0.6310 -0.0463 -0.1592
   93MOL0     H12549  -0.219   6.070   5.000  0.7421  1.0738 -0.2465
   93MOL0     H12550  -0.318   6.058   4.857 -0.6391 -3.8237 -1.3721
   93MOL0     H12551  -0.241   5.658   4.927 -3.1899  0.4340 -2.9301
   93MOL0     H12552   0.278   6.392   4.752 -0.4290  0.6130  0.0981
   93MOL0     H12553   0.499   6.443   4.764  0.7651 -0.7970 -0.0471
   93MOL0     H12554   0.604   6.423   4.640 -0.5372 -0.7767  3.5660
   93MOL0     H12555   0.511   6.574   4.634  2.5267  0.2528 -1.4371
   94MOL0     O12556   4.323   3.734   4.232  0.2031  0.4832 -0.4784
   94MOL0     C12557   4.210   3.758   4.182 -0.7606 -0.9095 -0.6920
   94MOL0     O12558   4.181   3.793   4.051  0.2620 -0.0216 -0.4138
   94MOL0     C12559   4.273   3.786   3.951 -0.7630 -0.7806  0.4673
   94MOL0     C12560   4.244   3.717   3.828  0.1951 -0.6188  0.6706
   94MOL0     C12561   4.316   3.755   3.714 -0.3849  0.2616 -0.3533
   94MOL0     C12562   4.439   3.832   3.713  0.5786  0.4586  0.0567
   94MOL0     O12563   4.522   3.854   3.603  0.8190  0.8022 -0.1102
   94MOL0     C12564   4.477   3.784   3.484  0.0600 -0.2150 -0.2674
   94MOL0     C12565   4.583   3.827   3.378 -0.1233  1.1107  0.1557
   94MOL0     C12566   4.722   3.757   3.410  0.0880  0.1309  0.0045
   94MOL0     C12567   4.828   3.809   3.305 -0.6433 -0.5797 -0.8336
   94MOL0     C12568   4.963   3.741   3.306  0.2439 -0.6192 -0.3457
   94MOL0     C12569   5.022   3.747   3.445 -0.7700 -0.1222  0.2537
   94MOL0     C12570   5.171   3.716   3.461  0.0692 -0.6415  0.3411
   94MOL0     C12571   5.282   3.808   3.389  0.4866  0.5504 -0.3228
   94MOL0     N12572   5.263   3.953   3.411  0.0073  0.0120  0.0612
   94MOL0     C12573   5.159   4.028   3.352  0.3162  0.3312  0.0570
   94MOL0     C12574   5.145   4.139   3.421 -0.1206  0.3186 -0.4958
   94MOL0     C12575   5.043   4.235   3.389 -0.0842 -0.4881 -0.4490
   94MOL0     C12576   4.903   4.163   3.392  0.2156  0.4271  0.0912
   94MOL0     C12577   4.792   4.250   3.434 -0.7610 -0.8649 -0.2025
   94MOL0     C12578   4.656   4.185   3.450  0.9833 -0.9004 -0.0512
   94MOL0     O12579   4.567   4.290   3.496  0.1265  0.5219 -0.6486
   94MOL0     C12580   4.433   4.256   3.508 -0.3387 -0.4835 -1.1373
   94MOL0     C12581   4.383   4.124   3.500  0.8114 -1.0968 -0.1519
   94MOL0     C12582   4.248   4.095   3.512 -1.2606 -0.1333  0.1968
   94MOL0     C12583   4.164   4.198   3.543 -0.8941 -0.3251  0.3536
   94MOL0     C12584   4.018   4.168   3.562  0.3466  0.8205  0.7309
   94MOL0     O12585   3.978   4.036   3.565  0.0013  0.4332 -0.7263
   94MOL0     C12586   3.845   3.996   3.571 -0.2837  0.0114  0.4888
   94MOL0     C12587   3.738   4.066   3.627 -0.0043 -0.2626  0.1023
   94MOL0     C12588   3.611   4.007   3.630  0.4520 -0.4039 -0.2645
   94MOL0     C12589   3.588   3.880   3.589 -0.8175 -0.0993 -0.1374
   94MOL0     O12590   3.465   3.816   3.590  0.4230  0.1596  0.6567
   94MOL0     C12591   3.351   3.886   3.640  0.0277 -0.0530 -0.7709
   94MOL0     C12592   3.227   3.796   3.650  0.0334  0.2341  0.6268
   94MOL0     C12593   3.098   3.876   3.646 -0.0996 -0.0053  0.9818
   94MOL0     C12594   2.972   3.792   3.629 -0.3698 -1.1534  0.6865
   94MOL0     C12595   2.842   3.860   3.646  0.3310 -0.9391  0.0494
   94MOL0     C12596   2.818   3.914   3.790  0.7433 -0.4006 -0.2150
   94MOL0     C12597   2.686   3.972   3.814 -0.1820 -0.2526  0.0565
   94MOL0     C12598   2.670   4.032   3.962  0.4787 -0.3469 -0.1186
   94MOL0    Cl12599   2.686   3.901   4.076  0.2724  0.3945  0.1432
   94MOL0     C12600   3.698   3.806   3.532 -0.1636 -0.9524 -0.3576
   94MOL0     C12601   3.821   3.865   3.523 -0.7229 -0.1727 -0.2149
   94MOL0     O12602   3.945   4.269   3.544  1.1453  0.2860  0.0823
   94MOL0     C12603   4.209   4.338   3.539 -0.0421  0.5533 -1.3740
   94MOL0     C12604   4.341   4.362   3.519 -0.8661 -0.2777  0.4836
   94MOL0     N12605   5.239   4.140   3.517 -0.1385 -0.1390  0.1612
   94MOL0     N12606   5.306   4.030   3.514 -0.0871  0.0051  0.6875
   94MOL0     C12607   4.466   3.888   3.841 -0.5772  0.3459 -0.5266
   94MOL0     C12608   4.384   3.877   3.958  0.0485 -0.2308  0.3710
   94MOL0     C12609   4.091   3.777   4.275 -0.0422 -0.0026 -1.0003
   94MOL0     C12610   4.111   3.723   4.401  0.5612  0.7992 -0.3834
   94MOL0     C12611   4.008   3.709   4.495 -0.0242 -1.3412  0.3032
   94MOL0     C12612   3.879   3.760   4.461 -0.1295  0.1198 -0.3379
   94MOL0     O12613   3.774   3.757   4.545  0.5936 -0.0369  0.1509
   94MOL0     C12614   3.784   3.715   4.683 -0.8918 -0.4239  0.2841
   94MOL0     C12615   3.843   3.829   4.771  0.8020 -0.0617  1.0378
   94MOL0     C12616   3.871   3.788   4.914 -0.6305  0.2324 -0.0908
   94MOL0     C12617   4.005   3.719   4.947 -0.4075 -0.3193  0.0344
   94MOL0     C12618   4.011   3.586   4.903  0.5937  0.6569 -0.0513
   94MOL0     C12619   4.025   3.466   4.869  0.7226 -0.3630 -0.4925
   94MOL0     C12620   3.864   3.819   4.332  0.2995  0.1028 -0.2570
   94MOL0     C12621   3.965   3.824   4.245 -0.9306 -0.4552  0.2749
   94MOL0     C12622   3.933   3.888   4.107 -0.2682 -0.1325 -0.5718
   94MOL0     H12623   4.156   3.654   3.825 -2.0734  2.3256  0.4809
   94MOL0     H12624   4.298   3.702   3.622  0.1682 -3.4750  1.5021
   94MOL0     H12625   4.462   3.675   3.489  0.2865 -0.1910  2.3673
   94MOL0     H12626   4.376   3.812   3.454  0.8241 -0.2147 -3.1082
   94MOL0     H12627   4.599   3.934   3.365 -0.4312  1.2273  0.7354
   94MOL0     H12628   4.570   3.783   3.278  0.0265 -0.9817  0.9970
   94MOL0     H12629   4.721   3.648   3.415 -3.1871  0.0087 -1.2932
   94MOL0     H12630   4.752   3.792   3.510  2.4168 -0.9508 -0.2325
   94MOL0     H12631   4.788   3.807   3.203  0.6424 -6.1569 -1.5637
   94MOL0     H12632   4.842   3.913   3.337  0.1956 -1.4064  1.7402
   94MOL0     H12633   4.950   3.636   3.276 -0.0007 -0.1439 -1.9537
   94MOL0     H12634   5.027   3.794   3.235  0.0065 -1.8645 -1.5429
   94MOL0     H12635   5.000   3.849   3.480 -3.8728  0.7903 -3.6218
   94MOL0     H12636   4.972   3.669   3.504 -1.5744 -0.0568 -0.3232
   94MOL0     H12637   5.192   3.614   3.428  0.9486 -0.7643  1.2320
   94MOL0     H12638   5.190   3.720   3.569  3.4992 -1.7817 -0.0857
   94MOL0     H12639   5.372   3.774   3.440 -0.6697 -0.8305  0.9034
   94MOL0     H12640   5.274   3.787   3.282  1.7165 -0.8654 -0.1590
   94MOL0     H12641   5.091   3.994   3.274  1.4012 -2.5995  0.2533
   94MOL0     H12642   5.043   4.303   3.474  0.6291 -0.2921 -0.5992
   94MOL0     H12643   5.059   4.287   3.295 -0.7105 -1.7765 -1.3032
   94MOL0     H12644   4.886   4.118   3.294 -0.7040  0.3730  0.2688
   94MOL0     H12645   4.908   4.088   3.472  1.2577 -2.5354 -2.5753
   94MOL0     H12646   4.799   4.336   3.367  0.5209  0.2276  1.2348
   94MOL0     H12647   4.815   4.277   3.538 -0.5577 -0.0253 -0.4604
   94MOL0     H12648   4.665   4.097   3.515  4.3511 -0.9617 -0.3746
   94MOL0     H12649   4.613   4.157   3.353 -0.3918 -0.7535  0.4986
   94MOL0     H12650   4.449   4.042   3.474 -0.6447 -1.6423 -2.5337
   94MOL0     H12651   4.225   3.989   3.515 -0.1372 -0.3880  0.2898
   94MOL0     H12652   3.740   4.169   3.663 -3.5349  0.8870 -2.4239
   94MOL0     H12653   3.525   4.066   3.663 -0.4449 -1.6854 -0.2591
   94MOL0     H12654   3.374   3.917   3.743  1.8838 -1.7469 -0.6089
   94MOL0     H12655   3.331   3.971   3.575  1.0187  1.6494  1.0169
   94MOL0     H12656   3.232   3.735   3.559 -1.2366 -0.3899  0.9644
   94MOL0     H12657   3.238   3.727   3.734  1.6841  2.8693  2.6925
   94MOL0     H12658   3.082   3.932   3.739 -2.5770  1.9438 -0.4682
   94MOL0     H12659   3.106   3.939   3.557  0.8082 -0.1336  0.9666
   94MOL0     H12660   2.987   3.711   3.701  2.2982  0.4006  2.0011
   94MOL0     H12661   2.981   3.748   3.529 -0.2474  3.6594 -1.7019
   94MOL0     H12662   2.774   3.777   3.629  2.4701 -2.5400 -1.2382
   94MOL0     H12663   2.823   3.942   3.576 -1.4040 -0.7438  0.6964
   94MOL0     H12664   2.824   3.832   3.862 -2.5885  0.6580  1.4717
   94MOL0     H12665   2.893   3.988   3.820 -0.7120  0.6573  0.9838
   94MOL0     H12666   2.610   3.895   3.796 -1.9283  1.1485  1.1905
   94MOL0     H12667   2.664   4.055   3.746 -3.7961 -0.9227  0.2102
   94MOL0     H12668   2.733   4.117   3.990 -2.1604  1.6651  0.0410
   94MOL0     H12669   2.569   4.072   3.972  0.9980  0.4878  2.6951
   94MOL0     H12670   3.664   3.708   3.501 -4.1053 -0.3695  1.4802
   94MOL0     H12671   3.915   3.820   3.493  0.5898  0.7872  2.2322
   94MOL0     H12672   4.141   4.420   3.560 -2.7444 -1.9776  0.3756
   94MOL0     H12673   4.371   4.466   3.507  0.8851 -0.9355 -1.8050
   94MOL0     H12674   4.561   3.939   3.852 -0.1689 -0.2305 -1.3196
   94MOL0     H12675   4.406   3.931   4.049  1.0071  3.6916 -1.9428
   94MOL0     H12676   4.213   3.704   4.434  1.5164  2.4072 -2.2489
   94MOL0     H12677   4.026   3.660   4.590  1.0679 -0.4148  0.5871
   94MOL0     H12678   3.841   3.622   4.687 -1.0993 -0.6356 -1.2614
   94MOL0     H12679   3.683   3.685   4.714 -0.5716 -1.0748  0.7327
   94MOL0     H12680   3.765   3.905   4.782 -1.5224 -2.3056  0.8432
   94MOL0     H12681   3.930   3.878   4.727 -1.5732  2.2716 -1.3888
   94MOL0     H12682   3.791   3.730   4.960  0.6482  0.6281  2.8844
   94MOL0     H12683   3.873   3.881   4.972 -1.4828 -0.5137  1.1733
   94MOL0     H12684   4.087   3.779   4.907  0.7466 -1.2861  0.8556
   94MOL0     H12685   4.022   3.715   5.055  3.0138 -3.0163 -0.4251
   94MOL0     H12686   4.013   3.367   4.831 -4.5364  0.2172 -1.0476
   94MOL0     H12687   3.765   3.862   4.318 -0.3248 -1.7884 -2.3119
   94MOL0     H12688   3.836   3.939   4.100  0.3520  0.8486 -3.5532
   94MOL0     H12689   4.001   3.972   4.095  2.2170 -1.5889  2.1125
   94MOL0     H12690   3.934   3.835   4.012  0.3802  1.0936 -1.2744
   95MOL0     O12691   6.726   9.119   9.443  0.3117 -0.8315 -0.3531
   95MOL0     C12692   6.618   9.058   9.418 -0.7459  0.1364  0.6088
   95MOL0     O12693   6.614   8.951   9.339 -0.0757  0.2918  0.7340
   95MOL0     C12694   6.726   8.884   9.305 -0.0528  0.2194 -0.3591
   95MOL0     C12695   6.805   8.924   9.193  0.7872  0.4424  0.5197
   95MOL0     C12696   6.906   8.841   9.146 -0.4835  0.1966  0.1309
   95MOL0     C12697   6.940   8.724   9.215  0.3458 -1.0197  1.4168
   95MOL0     O12698   7.023   8.628   9.171  0.4212  0.2682  0.3872
   95MOL0     C12699   7.092   8.662   9.052 -0.6703 -0.0995  0.4910
   95MOL0     C12700   7.181   8.542   8.989 -0.0072 -0.8660  0.1772
   95MOL0     C12701   7.087   8.424   8.965  0.1232 -0.1432 -0.0389
   95MOL0     C12702   7.171   8.308   8.909 -0.0497  0.0165  0.7092
   95MOL0     C12703   7.103   8.168   8.897 -0.3197  0.1381 -0.7565
   95MOL0     C12704   6.977   8.172   8.808 -0.5790  0.1653 -0.3999
   95MOL0     C12705   7.028   8.154   8.665 -0.6839  0.1968 -0.3449
   95MOL0     C12706   7.035   8.001   8.625 -0.2360 -0.7125  0.1664
   95MOL0     N12707   7.086   7.991   8.487  0.4054 -0.4438  0.6624
   95MOL0     C12708   7.028   8.057   8.376  0.0305  0.3470 -0.8160
   95MOL0     C12709   7.123   8.039   8.276  0.6498 -0.2893  0.0531
   95MOL0     C12710   7.110   8.098   8.139 -0.2885 -0.1380  0.2323
   95MOL0     C12711   7.167   8.001   8.032  0.0631  0.0209  0.1314
   95MOL0     C12712   7.194   8.058   7.903  0.2536 -0.4233  0.4708
   95MOL0     C12713   7.092   8.151   7.836  0.4039 -0.1622 -0.0775
   95MOL0     O12714   7.134   8.200   7.707 -0.2961  0.2955 -0.1566
   95MOL0     C12715   7.251   8.258   7.694  0.2204 -0.6436 -0.0219
   95MOL0     C12716   7.315   8.345   7.795  0.4935  0.1733  1.0462
   95MOL0     C12717   7.446   8.393   7.777  0.2758  0.1077 -0.4431
   95MOL0     C12718   7.527   8.371   7.665  0.3290 -0.6446 -0.9466
   95MOL0     C12719   7.661   8.438   7.655  1.2323  0.4628  0.4266
   95MOL0     O12720   7.743   8.381   7.557  0.4391 -0.5236  0.3600
   95MOL0     C12721   7.862   8.435   7.534 -0.6498 -0.9131 -1.6970
   95MOL0     C12722   7.965   8.436   7.638 -0.4525  0.0189 -0.5869
   95MOL0     C12723   8.093   8.488   7.614 -0.2526 -0.2354 -0.1638
   95MOL0     C12724   8.117   8.544   7.490 -1.5554  0.6805  0.5384
   95MOL0     O12725   8.238   8.591   7.446 -0.2564  0.2746  0.6832
   95MOL0     C12726   8.298   8.689   7.521  0.6048 -0.6001 -0.2889
   95MOL0     C12727   8.429   8.730   7.438 -0.1813  0.0401  0.0339
   95MOL0     C12728   8.508   8.832   7.497 -0.8736 -0.3179 -0.0219
   95MOL0     C12729   8.648   8.832   7.430  0.7127  0.0754  0.6482
   95MOL0     C12730   8.751   8.904   7.506  0.1326  0.0833 -0.1965
   95MOL0     C12731   8.895   8.903   7.446  0.2257  0.0428  0.5591
   95MOL0     C12732   8.951   9.035   7.406  0.1358  0.4898 -0.6114
   95MOL0     C12733   9.102   9.046   7.384 -0.1930 -0.0048  0.2144
   95MOL0    Cl12734   9.142   8.949   7.239 -0.1765 -0.2338  0.2696
   95MOL0     C12735   8.014   8.549   7.400  0.3468  0.4546 -0.2217
   95MOL0     C12736   7.885   8.501   7.422  0.2310 -0.3779  0.0284
   95MOL0     O12737   7.695   8.530   7.725  0.8419 -0.2338  0.3363
   95MOL0     C12738   7.470   8.284   7.573 -0.1161 -0.7374  0.4126
   95MOL0     C12739   7.342   8.228   7.583 -0.3134  0.2657  0.5441
   95MOL0     N12740   7.228   7.965   8.324 -0.2965  0.2666  0.3277
   95MOL0     N12741   7.203   7.936   8.447 -0.1845 -1.0441  0.6771
   95MOL0     C12742   6.872   8.695   9.330 -0.5020 -0.1615 -0.0926
   95MOL0     C12743   6.764   8.765   9.376 -0.6679  0.1974  0.1772
   95MOL0     C12744   6.491   9.112   9.479  0.6372  0.2142  0.1096
   95MOL0     C12745   6.367   9.068   9.430  0.8489  0.9881  0.8790
   95MOL0     C12746   6.245   9.125   9.463  0.5298 -0.7063 -0.6254
   95MOL0     C12747   6.247   9.221   9.565  1.2529 -0.7964  0.0415
   95MOL0     O12748   6.129   9.287   9.606 -0.5498  0.2314  0.6596
   95MOL0     C12749   6.005   9.278   9.526 -0.0568 -0.1865  0.4258
   95MOL0     C12750   5.903   9.368   9.583 -0.1967  0.0347 -0.5255
   95MOL0     C12751   5.766   9.374   9.493 -0.0521  0.1615  0.5693
   95MOL0     C12752   5.672   9.259   9.542 -0.0778 -0.6304 -0.0345
   95MOL0     C12753   5.604   9.289   9.672  0.4650 -0.3943 -0.1416
   95MOL0     C12754   5.561   9.310   9.784  0.3011 -0.3161  0.9549
   95MOL0     C12755   6.361   9.255   9.641  0.4502 -0.1120  0.7804
   95MOL0     C12756   6.485   9.201   9.593  0.0004 -0.0100 -0.7478
   95MOL0     C12757   6.613   9.249   9.659 -0.6809 -0.7512 -1.7784
   95MOL0     H12758   6.771   9.020   9.154 -1.7841 -0.4057  0.5035
   95MOL0     H12759   6.952   8.873   9.053 -0.1659 -0.1767  0.1568
   95MOL0     H12760   7.030   8.691   8.967  0.9361 -0.6154 -0.9224
   95MOL0     H12761   7.159   8.746   9.075  0.8522 -1.0251 -0.4002
   95MOL0     H12762   7.271   8.529   9.049  1.3855  0.7540 -1.4510
   95MOL0     H12763   7.207   8.581   8.890  0.9144 -0.2602  0.6423
   95MOL0     H12764   7.004   8.444   8.897 -0.3570 -0.8080  0.3406
   95MOL0     H12765   7.048   8.397   9.064  1.8617 -0.2993  0.6380
   95MOL0     H12766   7.200   8.333   8.807 -2.5219 -3.0336 -0.9034
   95MOL0     H12767   7.260   8.297   8.971  0.3079 -3.5477 -0.1939
   95MOL0     H12768   7.177   8.091   8.873 -1.5632 -0.8752 -1.4454
   95MOL0     H12769   7.073   8.155   9.002 -1.0783  3.4477 -0.4471
   95MOL0     H12770   6.919   8.081   8.827  0.2311 -0.8623 -2.4872
   95MOL0     H12771   6.912   8.260   8.812 -1.8595 -0.5787 -2.7434
   95MOL0     H12772   7.125   8.204   8.660 -2.2113  4.0420  2.9861
   95MOL0     H12773   6.962   8.201   8.592  0.6096  0.8728 -1.1229
   95MOL0     H12774   7.113   7.954   8.686 -0.9427 -1.7613  0.2862
   95MOL0     H12775   6.935   7.959   8.642 -1.0912  1.5214  0.9051
   95MOL0     H12776   6.927   8.097   8.364 -1.0194 -2.2289 -1.2161
   95MOL0     H12777   7.005   8.107   8.107  0.2310  0.1848 -1.4715
   95MOL0     H12778   7.156   8.197   8.132 -0.7278 -0.0358 -1.9197
   95MOL0     H12779   7.260   7.963   8.075  0.5316  2.0705  1.0269
   95MOL0     H12780   7.101   7.915   8.020  0.3623 -0.7569  3.2117
   95MOL0     H12781   7.213   7.976   7.833 -3.3499 -0.5406 -0.6147
   95MOL0     H12782   7.283   8.116   7.924 -0.6607  0.1187  3.3503
   95MOL0     H12783   7.058   8.237   7.895  1.9504 -1.2817  2.6042
   95MOL0     H12784   7.010   8.081   7.821  0.3434 -0.0020 -0.5113
   95MOL0     H12785   7.249   8.356   7.881 -0.9837 -2.2305  0.3453
   95MOL0     H12786   7.490   8.468   7.842  0.0064  1.4528 -1.7602
   95MOL0     H12787   7.943   8.385   7.731 -1.6658  3.0401  0.9130
   95MOL0     H12788   8.175   8.475   7.683  2.9373  1.3671 -3.3349
   95MOL0     H12789   8.221   8.766   7.533 -0.9830 -1.7483 -2.4224
   95MOL0     H12790   8.333   8.647   7.616  2.8349 -1.4985 -1.4424
   95MOL0     H12791   8.490   8.640   7.432  1.4818  1.1081  0.4048
   95MOL0     H12792   8.409   8.757   7.334 -1.4171  1.3096  0.5578
   95MOL0     H12793   8.463   8.930   7.479 -1.4812 -0.7200 -0.7873
   95MOL0     H12794   8.518   8.830   7.606  2.3462  0.8900 -0.1852
   95MOL0     H12795   8.635   8.880   7.332 -2.1134  2.0028  1.8173
   95MOL0     H12796   8.690   8.731   7.418  2.1427  0.5229  1.7238
   95MOL0     H12797   8.751   8.874   7.611  0.5273 -1.4037 -0.6005
   95MOL0     H12798   8.717   9.007   7.523 -1.6561 -0.6310  0.8555
   95MOL0     H12799   8.953   8.867   7.531  1.1870  2.0497  0.7886
   95MOL0     H12800   8.904   8.827   7.367  0.3844  0.0865  0.5358
   95MOL0     H12801   8.934   9.107   7.486  0.3033  1.2976 -1.2822
   95MOL0     H12802   8.893   9.064   7.317 -0.6312 -3.2204 -1.4685
   95MOL0     H12803   9.133   9.142   7.342  2.4835 -1.8620 -2.4657
   95MOL0     H12804   9.160   9.037   7.477  0.5013  1.3399 -0.0681
   95MOL0     H12805   8.037   8.576   7.297  0.4021  2.1394  0.2154
   95MOL0     H12806   7.806   8.510   7.348  0.9866  0.4849 -0.6867
   95MOL0     H12807   7.525   8.262   7.482  0.5699  0.4797  0.5171
   95MOL0     H12808   7.304   8.161   7.506 -0.4342  1.8590 -0.8623
   95MOL0     H12809   6.885   8.612   9.398  0.2447 -1.9245 -2.2752
   95MOL0     H12810   6.707   8.741   9.465 -0.2982  0.9246  0.6206
   95MOL0     H12811   6.351   9.003   9.345  0.4764  2.6816 -0.4060
   95MOL0     H12812   6.158   9.072   9.425  1.8795 -1.6852 -2.5217
   95MOL0     H12813   5.973   9.173   9.517 -0.8570  0.2262 -2.6890
   95MOL0     H12814   6.014   9.314   9.423 -2.3322  0.9616  0.5729
   95MOL0     H12815   5.952   9.466   9.581  0.5051 -0.2483  1.2343
   95MOL0     H12816   5.881   9.343   9.688  2.0119 -0.0127 -0.0290
   95MOL0     H12817   5.788   9.361   9.387  0.6933 -3.4346  1.0563
   95MOL0     H12818   5.717   9.471   9.508  0.0853  0.3406 -0.1188
   95MOL0     H12819   5.589   9.251   9.471 -0.3547  2.2285 -0.1488
   95MOL0     H12820   5.725   9.163   9.547  2.1345  0.5172 -0.5050
   95MOL0     H12821   5.516   9.342   9.877 -1.4701 -1.5233  0.5594
   95MOL0     H12822   6.351   9.332   9.717  1.0960 -0.4003  1.1650
   95MOL0     H12823   6.678   9.166   9.689 -0.3136  0.0581 -0.2146
   95MOL0     H12824   6.664   9.321   9.594  1.9451  0.6687  1.5461
   95MOL0     H12825   6.602   9.310   9.749  1.6265 -1.9851 -0.5548
   96MOL0     O12826   1.520   4.423   2.617 -0.4600 -0.6333 -0.6003
   96MOL0     C12827   1.453   4.512   2.574 -0.6499 -0.1744 -0.6146
   96MOL0     O12828   1.492   4.643   2.572  0.2684 -0.2609 -0.1752
   96MOL0     C12829   1.624   4.665   2.614 -0.3351 -0.4132 -0.2490
   96MOL0     C12830   1.722   4.731   2.537  0.8304  0.2973 -0.2922
   96MOL0     C12831   1.852   4.767   2.581  0.3635  0.0309  1.0462
   96MOL0     C12832   1.878   4.742   2.715 -0.0481 -0.1423 -0.1006
   96MOL0     O12833   1.993   4.775   2.780 -0.5027 -0.1271 -0.2351
   96MOL0     C12834   1.981   4.909   2.835  0.0599 -0.4911  0.8193
   96MOL0     C12835   2.108   4.935   2.918  0.4919  0.1381 -0.5313
   96MOL0     C12836   2.248   4.902   2.858  0.0226 -0.3466  0.3616
   96MOL0     C12837   2.362   4.915   2.965 -0.1523  0.0559 -0.1938
   96MOL0     C12838   2.497   4.874   2.915 -0.0412  0.2109 -0.3730
   96MOL0     C12839   2.610   4.899   3.009 -0.3008 -0.2812  0.2007
   96MOL0     C12840   2.743   4.850   2.948 -0.2298 -0.7505  0.2358
   96MOL0     C12841   2.781   4.698   2.998  0.2872 -0.3072  0.8120
   96MOL0     N12842   2.925   4.699   3.011  0.4570 -0.3378 -0.2053
   96MOL0     C12843   2.993   4.676   3.131  0.2367  0.3334  0.6739
   96MOL0     C12844   3.115   4.656   3.077 -0.4692 -0.9121  0.0690
   96MOL0     C12845   3.228   4.623   3.176 -0.0005 -0.3990 -0.8313
   96MOL0     C12846   3.357   4.669   3.121 -0.1899 -0.7794 -0.1615
   96MOL0     C12847   3.382   4.822   3.133  0.3100 -0.2857  0.9206
   96MOL0     C12848   3.494   4.862   3.031  1.0903  0.1708 -1.0520
   96MOL0     O12849   3.607   4.776   3.059  0.0394  0.2036 -0.0002
   96MOL0     C12850   3.712   4.749   2.970  0.4724  0.6429 -0.7589
   96MOL0     C12851   3.823   4.673   3.015 -0.5253  0.0913  0.2928
   96MOL0     C12852   3.932   4.635   2.935  0.5351 -0.5867  0.1580
   96MOL0     C12853   3.943   4.688   2.808 -0.0108  0.2543  0.0024
   96MOL0     C12854   4.073   4.692   2.737  0.8615  0.8438  0.5695
   96MOL0     O12855   4.080   4.753   2.612  0.3140  0.0123  0.4670
   96MOL0     C12856   4.191   4.724   2.537 -0.6854  0.4469 -0.1841
   96MOL0     C12857   4.201   4.599   2.472 -0.1355 -0.0762 -1.2005
   96MOL0     C12858   4.306   4.569   2.386  0.0247 -0.0573  0.5582
   96MOL0     C12859   4.421   4.657   2.374  0.1891  0.1205  0.5587
   96MOL0     O12860   4.541   4.635   2.306  0.7156 -0.2757  0.7168
   96MOL0     C12861   4.586   4.500   2.299 -0.7887  0.5464  0.7425
   96MOL0     C12862   4.724   4.498   2.214  0.1089  0.4831 -0.0327
   96MOL0     C12863   4.843   4.547   2.298  0.1412  0.2832 -0.6852
   96MOL0     C12864   4.970   4.550   2.223  0.2017  0.4980  0.5399
   96MOL0     C12865   5.087   4.560   2.324 -0.2385  0.0255 -1.0506
   96MOL0     C12866   5.227   4.573   2.263  0.0368  0.1070  0.3474
   96MOL0     C12867   5.319   4.610   2.380  1.3750 -0.1299  0.1004
   96MOL0     C12868   5.460   4.616   2.336 -0.1416 -0.1317 -0.1045
   96MOL0    Cl12869   5.507   4.774   2.255 -0.4241 -0.2803  0.0004
   96MOL0     C12870   4.417   4.774   2.448  0.1582  0.7986  0.1899
   96MOL0     C12871   4.304   4.814   2.523 -0.3821 -0.0015 -0.5404
   96MOL0     O12872   4.166   4.634   2.792  0.0561  0.2729  0.1704
   96MOL0     C12873   3.830   4.761   2.765 -0.1618 -0.1048  1.1003
   96MOL0     C12874   3.722   4.791   2.844 -0.0588  0.3883  0.8190
   96MOL0     N12875   3.122   4.683   2.939  0.5539  0.0757  0.7274
   96MOL0     N12876   3.007   4.703   2.902 -0.0477  0.3321  0.4831
   96MOL0     C12877   1.782   4.691   2.796  0.2098  0.5551 -0.3286
   96MOL0     C12878   1.661   4.648   2.742 -0.4675 -0.3252 -0.0314
   96MOL0     C12879   1.316   4.481   2.535  0.7424  0.7267 -0.3088
   96MOL0     C12880   1.266   4.371   2.593 -0.2295  0.8753 -0.5526
   96MOL0     C12881   1.131   4.327   2.581 -0.4630 -0.2570  0.0680
   96MOL0     C12882   1.048   4.405   2.492  0.1371 -0.0874 -0.1786
   96MOL0     O12883   0.922   4.358   2.475  0.3942  0.2256  0.2771
   96MOL0     C12884   0.841   4.415   2.370 -0.1239 -0.0339  0.1441
   96MOL0     C12885   0.706   4.347   2.400 -0.6232 -1.2978  0.8862
   96MOL0     C12886   0.601   4.369   2.293 -0.2182  0.8114  0.2457
   96MOL0     C12887   0.625   4.321   2.151  1.2678 -0.1446 -0.4469
   96MOL0     C12888   0.547   4.401   2.056  0.6177  0.3859 -0.8755
   96MOL0     C12889   0.466   4.450   1.984 -1.1382  1.8459  0.7325
   96MOL0     C12890   1.098   4.517   2.429 -1.4696  0.1240 -0.2523
   96MOL0     C12891   1.231   4.560   2.450 -0.2448  0.2567  0.5351
   96MOL0     C12892   1.268   4.686   2.370 -0.8941 -0.7829  0.4273
   96MOL0     H12893   1.688   4.768   2.441 -1.6611  0.2057  0.5070
   96MOL0     H12894   1.911   4.800   2.496 -5.0432  0.3116 -3.0816
   96MOL0     H12895   1.963   4.978   2.752 -2.1005 -0.4691  1.2556
   96MOL0     H12896   1.897   4.922   2.904  0.6292  0.3222  1.3793
   96MOL0     H12897   2.101   4.869   3.005 -2.4793  0.4034 -0.4884
   96MOL0     H12898   2.112   5.033   2.966 -0.1567 -0.4224  0.6980
   96MOL0     H12899   2.278   4.971   2.778  1.5935 -0.9252  0.4030
   96MOL0     H12900   2.245   4.801   2.815  0.1668  0.3955 -1.5071
   96MOL0     H12901   2.359   5.018   3.002 -0.9434 -0.1926  0.4800
   96MOL0     H12902   2.336   4.843   3.043  2.5738 -0.0473  0.6915
   96MOL0     H12903   2.494   4.769   2.883 -0.4437  0.0991  0.0246
   96MOL0     H12904   2.520   4.924   2.820  2.2140  0.1249  0.0799
   96MOL0     H12905   2.623   5.005   3.033  1.3053 -0.5670  0.7120
   96MOL0     H12906   2.600   4.852   3.108  0.1931  0.0519  0.4099
   96MOL0     H12907   2.820   4.921   2.980 -1.1794 -0.8372  3.0077
   96MOL0     H12908   2.749   4.851   2.839  0.9702  0.8893  0.2790
   96MOL0     H12909   2.735   4.667   3.093 -0.8595 -1.0115  0.0580
   96MOL0     H12910   2.737   4.628   2.927 -1.4762  1.6646 -0.1645
   96MOL0     H12911   2.960   4.660   3.233  1.8288 -0.9919  1.0263
   96MOL0     H12912   3.202   4.662   3.275  1.9031 -0.4342 -0.2822
   96MOL0     H12913   3.243   4.515   3.183 -1.3944 -0.8420 -3.3539
   96MOL0     H12914   3.440   4.626   3.178 -2.2509 -1.9686  2.1645
   96MOL0     H12915   3.371   4.629   3.020  1.8972  1.4287 -0.8320
   96MOL0     H12916   3.401   4.847   3.237 -0.2179  0.1304  0.9247
   96MOL0     H12917   3.302   4.887   3.096  1.1782  0.1762 -0.1812
   96MOL0     H12918   3.520   4.969   3.038  0.3364  0.2881  0.4955
   96MOL0     H12919   3.449   4.845   2.933  0.5906  2.2466 -1.2428
   96MOL0     H12920   3.830   4.650   3.121  3.9331  0.8304  0.3408
   96MOL0     H12921   4.018   4.599   2.991  0.4401  0.1315  0.7656
   96MOL0     H12922   4.112   4.542   2.496  0.8953 -1.3705 -0.3400
   96MOL0     H12923   4.298   4.477   2.329  0.3964 -0.1318  0.6180
   96MOL0     H12924   4.592   4.468   2.403  0.5811  2.6700  1.3776
   96MOL0     H12925   4.519   4.433   2.243  0.5059  1.5714 -2.2750
   96MOL0     H12926   4.736   4.391   2.192 -1.0150  0.3848 -0.2678
   96MOL0     H12927   4.708   4.556   2.123 -3.6680  0.9064  0.7155
   96MOL0     H12928   4.819   4.648   2.330 -1.1145 -0.1811 -0.1080
   96MOL0     H12929   4.847   4.489   2.390  2.1939 -1.2322 -1.6320
   96MOL0     H12930   4.975   4.638   2.159  2.1767  0.5987  0.7881
   96MOL0     H12931   4.979   4.456   2.166 -4.2739  0.2255 -0.0763
   96MOL0     H12932   5.088   4.473   2.389 -2.9064  0.7284  0.0643
   96MOL0     H12933   5.060   4.647   2.385 -0.9513 -0.4228 -0.7166
   96MOL0     H12934   5.246   4.478   2.212 -2.5654 -0.9437  1.1851
   96MOL0     H12935   5.224   4.661   2.197 -2.6441  1.1787  1.7653
   96MOL0     H12936   5.303   4.542   2.464  0.2942 -1.3469 -1.0464
   96MOL0     H12937   5.280   4.700   2.428  2.0584  0.1400  0.1661
   96MOL0     H12938   5.527   4.600   2.421  0.7585  1.9987 -0.3367
   96MOL0     H12939   5.474   4.525   2.277 -0.2523  0.0609 -0.4342
   96MOL0     H12940   4.507   4.833   2.441  1.6862 -1.3997  0.2408
   96MOL0     H12941   4.303   4.907   2.580  3.5919  0.2038 -0.5557
   96MOL0     H12942   3.834   4.825   2.677  1.8379 -0.0468  1.1908
   96MOL0     H12943   3.654   4.858   2.793 -0.0223  0.0717  0.3377
   96MOL0     H12944   1.809   4.683   2.901  2.7588  0.4725 -0.9010
   96MOL0     H12945   1.581   4.606   2.802 -1.7725 -2.5924 -3.0675
   96MOL0     H12946   1.327   4.301   2.649  1.0438  2.1960 -0.2228
   96MOL0     H12947   1.086   4.231   2.603 -1.0995  0.0625  0.1962
   96MOL0     H12948   0.879   4.387   2.271 -1.5617 -0.5090 -0.3032
   96MOL0     H12949   0.826   4.522   2.383  3.4486  0.7500 -0.9724
   96MOL0     H12950   0.660   4.384   2.492  0.1835  1.8817  0.1324
   96MOL0     H12951   0.728   4.240   2.403 -1.5349 -1.4806  1.3854
   96MOL0     H12952   0.594   4.478   2.287  4.2358  1.2767  0.3394
   96MOL0     H12953   0.507   4.335   2.338 -0.3214  1.9674  0.9404
   96MOL0     H12954   0.726   4.325   2.109  0.9915  0.8082 -1.0644
   96MOL0     H12955   0.586   4.219   2.143 -2.6562  1.3182 -4.5252
   96MOL0     H12956   0.378   4.471   1.927 -2.2144 -1.3317  1.0443
   96MOL0     H12957   1.035   4.583   2.370 -2.3856 -1.1727 -0.7622
   96MOL0     H12958   1.315   4.666   2.273  0.1460  0.2417  0.7063
   96MOL0     H12959   1.180   4.749   2.354 -1.0239 -0.5994  1.7580
   96MOL0     H12960   1.337   4.746   2.429  0.6179  0.0610 -2.0456
   97MOL0     O12961   8.894   6.655   8.471  0.0326 -0.7441  0.3737
   97MOL0     C12962   8.858   6.761   8.415 -0.0998 -1.0210 -0.4888
   97MOL0     O12963   8.927   6.832   8.316  0.1926  0.0546 -0.2533
   97MOL0     C12964   9.055   6.798   8.283  0.6123 -0.3256 -0.3787
   97MOL0     C12965   9.147   6.894   8.286  0.0399 -0.3355  0.0532
   97MOL0     C12966   9.286   6.870   8.259  0.5257  0.3668 -0.0580
   97MOL0     C12967   9.322   6.743   8.210  0.7434  0.0053  0.3628
   97MOL0     O12968   9.451   6.727   8.154  0.5981 -0.1416  0.4109
   97MOL0     C12969   9.514   6.611   8.203 -0.0953  0.6961  0.2594
   97MOL0     C12970   9.662   6.627   8.223  0.5799 -0.2855  0.0270
   97MOL0     C12971   9.733   6.671   8.091 -0.0119  0.1621 -0.0223
   97MOL0     C12972   9.886   6.633   8.083  0.0558 -0.8593 -1.8388
   97MOL0     C12973   9.936   6.675   7.946 -0.3475 -0.0661 -0.6098
   97MOL0     C12974  10.065   6.602   7.887  0.6387 -0.4814  0.6898
   97MOL0     C12975  10.080   6.647   7.743 -0.7009  0.3333  0.7301
   97MOL0     C12976  10.208   6.587   7.690  0.2664 -0.0088 -0.9297
   97MOL0     N12977  10.318   6.622   7.778 -0.2796  0.3355  0.3976
   97MOL0     C12978  10.411   6.730   7.754  0.0871 -0.0861  0.2129
   97MOL0     C12979  10.517   6.703   7.833  0.7097 -0.2888 -0.0735
   97MOL0     C12980  10.620   6.807   7.853  0.3833  0.5631  1.0630
   97MOL0     C12981  10.753   6.740   7.903  0.0416 -0.4928 -0.5012
   97MOL0     C12982  10.855   6.850   7.928  0.1017 -0.3659 -0.0029
   97MOL0     C12983  10.984   6.803   7.979 -0.5080  0.1828 -0.0196
   97MOL0     O12984  11.047   6.926   8.005  0.0080  0.2385 -0.0759
   97MOL0     C12985  11.186   6.932   8.008  0.5064 -0.1624 -0.6342
   97MOL0     C12986  11.271   6.819   7.986  0.2755 -0.5451 -0.1024
   97MOL0     C12987  11.410   6.834   7.998  0.1720 -0.6502  0.0123
   97MOL0     C12988  11.468   6.957   8.027 -0.4199  0.2521  0.0928
   97MOL0     C12989  11.619   6.957   8.047 -0.5743 -0.4254 -0.7349
   97MOL0     O12990  11.671   7.072   8.084 -0.0296 -0.4316  0.1207
   97MOL0     C12991  11.807   7.080   8.085  0.0003 -0.6104  0.6351
   97MOL0     C12992  11.873   7.054   8.202  0.1398 -0.1080 -0.4148
   97MOL0     C12993  12.015   7.074   8.193 -0.3346  0.3917 -0.5852
   97MOL0     C12994  12.091   7.119   8.088 -1.0266 -0.1245  0.4231
   97MOL0     O12995  12.228   7.141   8.079 -0.2745  0.2436  0.0018
   97MOL0     C12996  12.294   7.192   8.192  0.3004  0.5072 -0.3650
   97MOL0     C12997  12.439   7.229   8.153 -0.2557 -0.6274 -0.3700
   97MOL0     C12998  12.530   7.117   8.129  1.1975 -0.2363  0.2255
   97MOL0     C12999  12.669   7.179   8.089  0.0380 -0.4046 -0.6351
   97MOL0     C13000  12.760   7.072   8.045 -0.5581  0.7804  0.3836
   97MOL0     C13001  12.904   7.126   8.050 -0.0378  0.2935 -0.0328
   97MOL0     C13002  12.931   7.245   7.955  0.1781 -0.0940  0.2846
   97MOL0     C13003  13.085   7.248   7.921 -0.3648  0.0789 -1.1200
   97MOL0    Cl13004  13.134   7.130   7.796  0.2542 -0.1156  0.2081
   97MOL0     C13005  12.016   7.142   7.971 -0.2306 -0.4708  0.1626
   97MOL0     C13006  11.880   7.123   7.966  0.2310 -0.1906  0.7600
   97MOL0     O13007  11.680   6.854   8.020 -0.0917 -0.0372  0.3117
   97MOL0     C13008  11.387   7.073   8.040 -0.2984  0.2273 -0.0725
   97MOL0     C13009  11.253   7.054   8.028  0.6131 -0.9287 -0.0749
   97MOL0     N13010  10.483   6.588   7.903 -0.4014 -0.4204 -1.0912
   97MOL0     N13011  10.367   6.533   7.870 -0.2324  0.6513 -0.5870
   97MOL0     C13012   9.225   6.638   8.206  0.2948 -0.5142 -0.1972
   97MOL0     C13013   9.090   6.668   8.241  0.4508  0.0620 -0.8142
   97MOL0     C13014   8.722   6.809   8.447 -0.1215 -0.3907 -0.0617
   97MOL0     C13015   8.697   6.947   8.423  0.8194 -0.5587  1.2222
   97MOL0     C13016   8.571   7.002   8.453  0.0454  0.6797  0.0614
   97MOL0     C13017   8.464   6.920   8.481 -0.3708  0.3860  0.2680
   97MOL0     O13018   8.331   6.947   8.497 -0.0808 -0.2808 -0.0118
   97MOL0     C13019   8.280   7.068   8.453 -0.4809 -0.4655 -0.7167
   97MOL0     C13020   8.131   7.063   8.456 -0.3335  0.5272  0.0449
   97MOL0     C13021   8.052   7.172   8.386  0.2285 -0.5603 -0.4008
   97MOL0     C13022   8.096   7.312   8.428  0.7680  0.2935 -0.2411
   97MOL0     C13023   8.052   7.340   8.566  0.6726  0.0405 -0.0907
   97MOL0     C13024   7.995   7.363   8.669 -0.4431 -0.5387  0.2310
   97MOL0     C13025   8.488   6.791   8.511  0.1532 -1.3948 -0.5393
   97MOL0     C13026   8.618   6.730   8.498  0.4306  0.0891  0.2523
   97MOL0     C13027   8.624   6.584   8.530  0.3818 -0.2304 -0.0674
   97MOL0     H13028   9.116   6.996   8.310  3.5036 -0.0157  4.4960
   97MOL0     H13029   9.369   6.938   8.242  0.7832 -0.1328 -0.8766
   97MOL0     H13030   9.480   6.597   8.306 -3.2915  1.7008 -0.5527
   97MOL0     H13031   9.506   6.523   8.138  3.3777  0.5141 -0.1323
   97MOL0     H13032   9.708   6.532   8.250  1.0765 -0.4749 -1.3667
   97MOL0     H13033   9.685   6.706   8.295 -3.0419  1.4280 -0.4919
   97MOL0     H13034   9.725   6.780   8.091 -0.4121  0.1405  1.0968
   97MOL0     H13035   9.679   6.636   8.002  1.2791 -0.6503 -0.5326
   97MOL0     H13036   9.940   6.688   8.161  0.5880 -5.4748  1.4339
   97MOL0     H13037   9.911   6.531   8.114  1.0779 -0.4420 -1.2511
   97MOL0     H13038   9.856   6.648   7.876 -0.5326 -1.1631  0.0001
   97MOL0     H13039   9.946   6.784   7.945  0.6987 -0.1190  0.6718
   97MOL0     H13040  10.146   6.653   7.941 -0.7124  0.1412  2.2062
   97MOL0     H13041  10.070   6.493   7.889  1.3824 -0.6023 -2.4921
   97MOL0     H13042  10.087   6.756   7.735  0.3809  0.1561 -1.4082
   97MOL0     H13043  10.003   6.604   7.679 -1.4261 -1.4579  2.7052
   97MOL0     H13044  10.193   6.478   7.690  0.7552 -0.0805 -0.9272
   97MOL0     H13045  10.226   6.631   7.592 -2.7456 -1.9912 -2.5244
   97MOL0     H13046  10.411   6.796   7.667 -1.2666 -2.8972 -2.0708
   97MOL0     H13047  10.630   6.848   7.752  1.4150 -1.7993  0.1190
   97MOL0     H13048  10.590   6.880   7.929  0.4867  0.1579  1.4962
   97MOL0     H13049  10.740   6.693   8.000 -1.7340 -0.2262 -0.5870
   97MOL0     H13050  10.788   6.654   7.845 -2.0911 -0.7109 -1.5640
   97MOL0     H13051  10.802   6.918   7.995 -0.1975 -0.0547 -0.5520
   97MOL0     H13052  10.879   6.900   7.834  2.0126  0.3174  0.8099
   97MOL0     H13053  11.032   6.753   7.894 -0.6024  1.2083 -0.6984
   97MOL0     H13054  10.979   6.738   8.066 -1.8761  1.8498  1.2209
   97MOL0     H13055  11.226   6.720   7.977  0.5043 -0.7588  0.9131
   97MOL0     H13056  11.464   6.741   7.987 -0.5908 -1.0464 -0.4486
   97MOL0     H13057  11.833   7.014   8.295  3.1500 -0.5598  0.8183
   97MOL0     H13058  12.068   7.041   8.282 -0.2269 -2.1207 -1.5110
   97MOL0     H13059  12.248   7.287   8.221 -0.3060  0.9349 -2.5088
   97MOL0     H13060  12.295   7.121   8.275 -0.8561  0.5137 -0.3202
   97MOL0     H13061  12.439   7.296   8.067 -1.2980  0.6464  0.5757
   97MOL0     H13062  12.486   7.286   8.234 -0.6826  1.6443 -1.6164
   97MOL0     H13063  12.543   7.064   8.224  0.4764 -0.4777  0.1984
   97MOL0     H13064  12.493   7.040   8.060  1.4168  0.2253 -0.4172
   97MOL0     H13065  12.708   7.228   8.179 -1.6912 -2.8221  1.5888
   97MOL0     H13066  12.658   7.248   8.005 -0.9596 -1.6350 -1.5579
   97MOL0     H13067  12.736   7.033   7.946 -4.2235 -0.7917  1.6930
   97MOL0     H13068  12.744   6.989   8.115 -3.1533 -1.8782 -2.9653
   97MOL0     H13069  12.929   7.146   8.154  1.0321 -0.7076 -0.0816
   97MOL0     H13070  12.973   7.051   8.011  2.2954  3.6596 -2.9952
   97MOL0     H13071  12.891   7.337   7.999  1.7223 -0.2631  2.2411
   97MOL0     H13072  12.879   7.245   7.859  0.6216  2.7707 -0.0447
   97MOL0     H13073  13.113   7.346   7.882  4.0203 -1.4464 -2.4054
   97MOL0     H13074  13.149   7.224   8.007  0.1371 -0.8597 -1.7311
   97MOL0     H13075  12.084   7.169   7.891  1.0847 -0.1662  1.3313
   97MOL0     H13076  11.830   7.147   7.873  1.4278  1.8098  0.5739
   97MOL0     H13077  11.424   7.174   8.055 -3.8102  1.3653  2.3040
   97MOL0     H13078  11.196   7.146   8.036 -1.0504 -2.0036  1.1594
   97MOL0     H13079   9.246   6.535   8.177 -0.9046 -0.0691 -2.9348
   97MOL0     H13080   9.018   6.588   8.231  2.8710 -2.0716 -2.9331
   97MOL0     H13081   8.780   7.012   8.397  1.0030 -1.3427 -0.2230
   97MOL0     H13082   8.559   7.108   8.432 -1.8515  0.5924  0.5102
   97MOL0     H13083   8.310   7.070   8.348 -3.8539 -1.0756 -1.7852
   97MOL0     H13084   8.326   7.152   8.507  1.0755 -1.1826 -0.8635
   97MOL0     H13085   8.104   7.066   8.562 -3.9810 -1.8705 -0.6464
   97MOL0     H13086   8.103   6.970   8.408 -2.5507  3.0085 -4.0108
   97MOL0     H13087   7.947   7.160   8.413  0.2714  0.6113  0.3214
   97MOL0     H13088   8.058   7.157   8.278  0.9756 -0.8483 -0.3236
   97MOL0     H13089   8.205   7.322   8.431  0.7751  0.0535  0.8947
   97MOL0     H13090   8.057   7.390   8.362  2.3180  2.6754  1.4883
   97MOL0     H13091   7.934   7.391   8.752 -2.1241 -0.1088 -1.1069
   97MOL0     H13092   8.400   6.734   8.537 -1.2425  1.3986  1.2084
   97MOL0     H13093   8.549   6.551   8.602 -1.2496  0.7679 -1.2550
   97MOL0     H13094   8.615   6.528   8.437 -3.4500  1.3041 -0.7808
   97MOL0     H13095   8.716   6.564   8.587  0.7166 -3.0031 -1.4115
   98MOL0     O13096   1.557   2.996   3.128 -0.5024 -0.8634  0.6524
   98MOL0     C13097   1.531   3.114   3.138  0.6877 -1.1935  0.2445
   98MOL0     O13098   1.622   3.212   3.117  0.4463  0.0589 -0.3180
   98MOL0     C13099   1.754   3.190   3.083 -0.4495 -0.2408  0.2288
   98MOL0     C13100   1.821   3.265   2.980 -0.4848  0.1600  0.1325
   98MOL0     C13101   1.957   3.251   2.953  0.6284 -0.0282 -0.2167
   98MOL0     C13102   2.037   3.160   3.034  0.4125  0.2593  0.5081
   98MOL0     O13103   2.175   3.139   3.000 -0.5395  1.3156 -0.5523
   98MOL0     C13104   2.276   3.094   3.092 -0.3896  0.2177  0.5136
   98MOL0     C13105   2.366   3.000   3.017 -0.9394  0.0866  0.3662
   98MOL0     C13106   2.497   2.952   3.095 -0.2899  0.1035  0.4200
   98MOL0     C13107   2.580   3.055   3.168 -0.5136  0.1814 -0.7575
   98MOL0     C13108   2.699   2.984   3.223 -0.0124  0.6060 -0.3038
   98MOL0     C13109   2.796   3.093   3.297 -0.1211  0.4145  1.0289
   98MOL0     C13110   2.925   3.033   3.352  0.0068  0.3410  1.6155
   98MOL0     C13111   2.891   2.918   3.440  0.3014 -0.0547 -0.2060
   98MOL0     N13112   3.014   2.847   3.480 -0.4267  0.4286 -0.1092
   98MOL0     C13113   3.057   2.742   3.398 -0.2985  0.4482  1.0906
   98MOL0     C13114   3.153   2.679   3.480  0.2093  0.3343 -0.3255
   98MOL0     C13115   3.254   2.574   3.450  0.3580 -0.0467  0.3620
   98MOL0     C13116   3.399   2.629   3.443 -0.1417 -0.8273 -0.8533
   98MOL0     C13117   3.512   2.537   3.412  0.0966 -0.0753 -0.6123
   98MOL0     C13118   3.477   2.461   3.282 -1.1525 -0.4512  0.2525
   98MOL0     O13119   3.602   2.403   3.223  1.1019  0.4264 -0.6436
   98MOL0     C13120   3.607   2.397   3.087  0.1270  0.4493 -0.0006
   98MOL0     C13121   3.735   2.412   3.031 -0.6141 -0.1973 -0.2249
   98MOL0     C13122   3.762   2.385   2.892  0.0393  0.2135 -0.4768
   98MOL0     C13123   3.659   2.351   2.809  0.4120 -0.6051 -0.4488
   98MOL0     C13124   3.671   2.330   2.660 -0.5360 -0.4257 -0.1437
   98MOL0     O13125   3.557   2.312   2.589  0.6168 -0.1093 -0.4865
   98MOL0     C13126   3.575   2.293   2.459  0.1754 -0.3156 -0.4278
   98MOL0     C13127   3.613   2.168   2.411 -0.1942 -0.1678  0.0370
   98MOL0     C13128   3.604   2.139   2.274  0.4687  0.2050  0.1187
   98MOL0     C13129   3.566   2.235   2.188  0.7643 -0.2959 -0.2489
   98MOL0     O13130   3.538   2.225   2.054  0.2873 -0.3071 -0.9576
   98MOL0     C13131   3.477   2.102   2.001  0.3363  0.0677  0.0699
   98MOL0     C13132   3.325   2.099   2.046  0.2171 -0.0102  0.5302
   98MOL0     C13133   3.261   1.975   1.972  1.3849  0.6730  0.2887
   98MOL0     C13134   3.115   1.954   2.029 -0.2589 -0.3170  0.5921
   98MOL0     C13135   3.043   1.848   1.945  0.2779  0.6993 -0.2770
   98MOL0     C13136   2.921   1.796   2.027  0.1795 -0.1303  0.3540
   98MOL0     C13137   2.828   1.707   1.941  0.0726  0.2423  0.3086
   98MOL0     C13138   2.894   1.587   1.876  0.2925 -0.1320 -0.6561
   98MOL0    Cl13139   2.944   1.464   2.002  0.1192  0.0890 -0.1989
   98MOL0     C13140   3.534   2.365   2.230  0.0871 -0.5516  0.8623
   98MOL0     C13141   3.540   2.394   2.368 -0.1528 -0.6673  1.0270
   98MOL0     O13142   3.780   2.346   2.611  0.1110 -0.1821 -0.0215
   98MOL0     C13143   3.530   2.336   2.868 -0.5894  0.4623 -0.2726
   98MOL0     C13144   3.500   2.348   3.006  0.1273 -0.8083  0.5110
   98MOL0     N13145   3.150   2.742   3.601 -0.7037 -0.4784 -0.1116
   98MOL0     N13146   3.063   2.838   3.602 -0.4458 -0.2479  0.2430
   98MOL0     C13147   1.970   3.092   3.136 -0.2877  0.6729 -0.0328
   98MOL0     C13148   1.836   3.103   3.160  0.4909 -0.2977 -0.6007
   98MOL0     C13149   1.398   3.163   3.181  0.1214 -0.4759 -0.0700
   98MOL0     C13150   1.297   3.070   3.208 -0.3769 -0.0487  0.0986
   98MOL0     C13151   1.167   3.104   3.242  0.2289 -0.3529 -0.9863
   98MOL0     C13152   1.135   3.239   3.238 -0.2320 -1.5590 -0.2428
   98MOL0     O13153   1.006   3.274   3.273 -0.7249  0.1629 -0.3451
   98MOL0     C13154   0.965   3.407   3.240  0.7366 -0.7574  0.7000
   98MOL0     C13155   0.806   3.401   3.237 -0.8168  0.8023 -0.6797
   98MOL0     C13156   0.750   3.327   3.115 -0.3465  0.4190  0.0560
   98MOL0     C13157   0.599   3.328   3.099  0.4365  0.5400 -0.3020
   98MOL0     C13158   0.549   3.448   3.033 -0.2700  0.5730 -0.2098
   98MOL0     C13159   0.504   3.536   2.958  0.0703 -0.3366  0.4333
   98MOL0     C13160   1.239   3.333   3.209  0.1333 -0.0584 -1.2081
   98MOL0     C13161   1.373   3.300   3.194  0.2650  0.2113 -0.2497
   98MOL0     C13162   1.466   3.427   3.190 -1.1773  0.5459 -0.3062
   98MOL0     H13163   1.767   3.336   2.919 -0.3609 -0.1874 -0.3889
   98MOL0     H13164   2.007   3.305   2.873  0.6441 -1.6503 -1.3676
   98MOL0     H13165   2.336   3.180   3.123  1.3944 -1.0404  0.7545
   98MOL0     H13166   2.237   3.042   3.179  0.5580 -2.5986 -0.6249
   98MOL0     H13167   2.390   3.049   2.922 -1.4159 -0.1542  0.1153
   98MOL0     H13168   2.303   2.912   2.998 -2.6738  1.3451  0.1644
   98MOL0     H13169   2.559   2.899   3.023  1.8017 -2.0608  3.5983
   98MOL0     H13170   2.475   2.868   3.160 -1.3394 -0.3212 -0.4516
   98MOL0     H13171   2.598   3.120   3.082  2.3980 -0.3263 -0.6285
   98MOL0     H13172   2.509   3.086   3.245  2.4959  2.5443  1.3003
   98MOL0     H13173   2.659   2.914   3.297  0.3780  1.2899  0.5804
   98MOL0     H13174   2.749   2.933   3.140 -1.0290 -0.7166 -0.1430
   98MOL0     H13175   2.828   3.172   3.229 -1.3967 -0.8616 -1.1904
   98MOL0     H13176   2.738   3.138   3.378  0.5975 -1.2305  2.5155
   98MOL0     H13177   2.982   3.106   3.411 -0.8316  1.2537  1.3327
   98MOL0     H13178   2.996   2.999   3.276 -0.9052 -1.2781  1.4445
   98MOL0     H13179   2.839   2.956   3.528  1.0633  1.0930 -0.2218
   98MOL0     H13180   2.827   2.848   3.384 -1.5478  0.4512  1.1831
   98MOL0     H13181   3.033   2.720   3.294  2.1572  0.7898  0.3777
   98MOL0     H13182   3.250   2.504   3.534 -0.4375 -1.0129 -0.4739
   98MOL0     H13183   3.228   2.508   3.367 -2.3884 -0.1396  1.2044
   98MOL0     H13184   3.400   2.719   3.380  2.3469 -0.9425 -1.0637
   98MOL0     H13185   3.428   2.672   3.539  0.0962  1.6192 -1.9149
   98MOL0     H13186   3.531   2.481   3.504 -4.8697  2.0954  2.1761
   98MOL0     H13187   3.588   2.612   3.390 -0.8463  1.1440  0.1055
   98MOL0     H13188   3.429   2.531   3.213  0.4410 -1.8427 -2.4294
   98MOL0     H13189   3.411   2.381   3.315 -1.2988  0.1494  1.4824
   98MOL0     H13190   3.810   2.449   3.099  0.7258  0.6135 -2.0596
   98MOL0     H13191   3.859   2.411   2.853  0.6252  2.7991  2.3224
   98MOL0     H13192   3.626   2.094   2.489  0.5437 -0.9038 -0.7604
   98MOL0     H13193   3.620   2.037   2.238 -2.3853  0.2028 -1.4680
   98MOL0     H13194   3.492   2.093   1.893 -0.0141 -1.6232  0.1409
   98MOL0     H13195   3.523   2.012   2.043 -0.1963 -0.3295 -0.1994
   98MOL0     H13196   3.323   2.086   2.154 -2.6505 -4.4532  0.2154
   98MOL0     H13197   3.274   2.188   2.007  0.8421  1.2185  2.4230
   98MOL0     H13198   3.247   1.991   1.865  1.0277 -1.0741  0.0366
   98MOL0     H13199   3.316   1.885   2.001  0.8961  1.0593  2.6279
   98MOL0     H13200   3.052   2.043   2.028 -1.6471 -1.2157  2.1705
   98MOL0     H13201   3.118   1.916   2.132 -0.2306 -0.2841  0.6037
   98MOL0     H13202   3.114   1.766   1.927  0.2558  0.7194 -0.4566
   98MOL0     H13203   3.003   1.882   1.849  0.3464 -1.9637 -1.3376
   98MOL0     H13204   2.956   1.734   2.111  1.0073 -2.9683 -1.9080
   98MOL0     H13205   2.858   1.879   2.059 -4.1676 -3.0924  0.3956
   98MOL0     H13206   2.776   1.764   1.864 -0.0291 -0.0441  0.1634
   98MOL0     H13207   2.753   1.656   2.003 -0.1680 -0.5554 -0.6130
   98MOL0     H13208   2.821   1.529   1.818 -0.2830  0.5328 -0.6029
   98MOL0     H13209   2.977   1.620   1.813 -0.3320 -1.0461 -1.9996
   98MOL0     H13210   3.506   2.444   2.162 -0.0720 -2.3698 -1.3131
   98MOL0     H13211   3.520   2.494   2.406 -0.4074 -0.3440  0.0586
   98MOL0     H13212   3.451   2.310   2.798  1.5786  1.0255 -3.1048
   98MOL0     H13213   3.404   2.326   3.053  0.7190  0.1801  2.2778
   98MOL0     H13214   2.018   3.023   3.205 -0.3639  1.5557  0.9324
   98MOL0     H13215   1.797   3.046   3.243  0.3753  1.0048  0.2730
   98MOL0     H13216   1.319   2.964   3.202 -0.2910 -0.1993  2.1027
   98MOL0     H13217   1.088   3.032   3.260 -0.1365  0.4988  1.0600
   98MOL0     H13218   0.996   3.421   3.136  0.2650 -3.2309  0.1715
   98MOL0     H13219   1.011   3.483   3.304  1.9267 -0.9620  0.1155
   98MOL0     H13220   0.779   3.507   3.232  1.1503  1.4113  0.6844
   98MOL0     H13221   0.767   3.362   3.331 -0.1532  1.3220 -0.1809
   98MOL0     H13222   0.775   3.221   3.131 -0.2281  0.1315 -1.7559
   98MOL0     H13223   0.805   3.378   3.035  5.6990 -2.0016  2.0172
   98MOL0     H13224   0.568   3.237   3.048  0.0959 -0.0513  0.9140
   98MOL0     H13225   0.563   3.316   3.202  1.0996  0.8459 -0.0272
   98MOL0     H13226   0.439   3.598   2.900 -1.4848 -0.9273  1.4771
   98MOL0     H13227   1.209   3.437   3.199  0.3276  0.3614  1.6699
   98MOL0     H13228   1.543   3.408   3.266  0.0374  3.5559 -0.6689
   98MOL0     H13229   1.518   3.433   3.094 -3.2935  0.9799 -1.4881
   98MOL0     H13230   1.422   3.524   3.216  1.0357  0.9318  2.3879
   99MOL0     O13231   4.019   2.416   0.250 -0.8213 -0.3250 -0.0745
   99MOL0     C13232   3.924   2.357   0.304  0.1161  0.8442 -0.2124
   99MOL0     O13233   3.902   2.227   0.299  0.4140  0.3079 -0.2598
   99MOL0     C13234   3.992   2.150   0.248 -0.5186  0.7343  0.0264
   99MOL0     C13235   4.018   2.138   0.113  0.8400  0.8040 -0.1627
   99MOL0     C13236   4.113   2.054   0.064 -0.1709  0.0592 -0.9431
   99MOL0     C13237   4.185   1.973   0.157 -0.4001  0.5422  0.1147
   99MOL0     O13238   4.284   1.889   0.118  0.5377  0.3575 -0.3708
   99MOL0     C13239   4.402   1.877   0.201  0.0832 -0.6128  0.3823
   99MOL0     C13240   4.508   1.799   0.141 -1.2294 -0.0054  0.0435
   99MOL0     C13241   4.636   1.779   0.232  0.2979  0.1694  0.3387
   99MOL0     C13242   4.720   1.899   0.257 -0.3795  0.3662 -0.7133
   99MOL0     C13243   4.812   1.872   0.376 -0.6606 -0.5756 -0.2026
   99MOL0     C13244   4.925   1.980   0.410  0.4166 -0.0031  0.5033
   99MOL0     C13245   5.033   1.959   0.309  0.3980  0.0989 -0.2966
   99MOL0     C13246   5.135   2.066   0.333  0.3958  1.4412 -1.0613
   99MOL0     N13247   5.264   2.032   0.262  0.2275 -0.8700 -0.4748
   99MOL0     C13248   5.286   2.030   0.126  0.6155 -0.0258  0.1652
   99MOL0     C13249   5.414   1.989   0.105 -0.0670  0.2478 -0.0404
   99MOL0     C13250   5.494   1.969  -0.015  0.0737  0.4457 -0.4157
   99MOL0     C13251   5.607   2.055  -0.021 -0.3731 -0.0440  0.6898
   99MOL0     C13252   5.645   2.073  -0.168  0.2298 -0.4282 -0.2008
   99MOL0     C13253   5.786   2.133  -0.173 -0.3193 -0.4835  1.1007
   99MOL0     O13254   5.882   2.043  -0.114  0.0077 -0.3980  0.3985
   99MOL0     C13255   6.003   2.094  -0.081  0.0605 -0.4084  0.8961
   99MOL0     C13256   6.089   2.162  -0.171  0.3396 -0.2399 -0.0680
   99MOL0     C13257   6.224   2.197  -0.148  0.1136  0.9969 -0.7289
   99MOL0     C13258   6.279   2.175  -0.017  0.1859  0.1100  0.2649
   99MOL0     C13259   6.413   2.224   0.005  1.2289 -1.0194  0.6455
   99MOL0     O13260   6.457   2.324  -0.079 -0.6754  0.4038  0.0194
   99MOL0     C13261   6.589   2.362  -0.078 -0.7073 -0.9835 -0.5972
   99MOL0     C13262   6.614   2.505  -0.077  0.4106  0.3844  0.5405
   99MOL0     C13263   6.740   2.554  -0.058 -0.2318  0.5008  0.3474
   99MOL0     C13264   6.854   2.477  -0.044  0.0239 -0.5622 -0.1154
   99MOL0     O13265   6.972   2.556  -0.018  0.2557 -1.1363 -0.2124
   99MOL0     C13266   7.091   2.504  -0.089  1.1453 -1.0534 -0.5718
   99MOL0     C13267   7.074   2.544  -0.235 -0.1883 -0.0728 -0.9122
   99MOL0     C13268   7.198   2.508  -0.327 -0.0522  0.0201 -0.5877
   99MOL0     C13269   7.236   2.357  -0.312  0.5612  0.3194 -0.1927
   99MOL0     C13270   7.300   2.314  -0.444 -0.4928  0.4198 -0.6251
   99MOL0     C13271   7.383   2.182  -0.439  0.0319 -0.5706  0.3010
   99MOL0     C13272   7.504   2.182  -0.346 -0.3718 -0.4470  0.3673
   99MOL0     C13273   7.616   2.276  -0.385 -0.0176 -0.3458 -0.9824
   99MOL0    Cl13274   7.748   2.253  -0.270  0.0520  0.2183 -0.2458
   99MOL0     C13275   6.832   2.338  -0.061 -0.4227  0.3092 -0.3712
   99MOL0     C13276   6.703   2.286  -0.070  0.7100  0.5391  0.2341
   99MOL0     O13277   6.476   2.183   0.097 -0.0844 -0.4819 -0.5098
   99MOL0     C13278   6.195   2.117   0.081  0.5963  0.0009 -1.1012
   99MOL0     C13279   6.063   2.068   0.044  1.2046 -0.5250  0.4012
   99MOL0     N13280   5.460   1.958   0.231  0.3011  0.1584 -0.2261
   99MOL0     N13281   5.380   1.988   0.324 -0.1325  0.1425  0.3936
   99MOL0     C13282   4.161   1.989   0.299 -0.5675 -0.5754  0.4085
   99MOL0     C13283   4.059   2.078   0.337  0.6584 -0.0680 -0.0823
   99MOL0     C13284   3.823   2.426   0.374  1.0837  0.8588 -0.6013
   99MOL0     C13285   3.800   2.379   0.510  0.6427 -0.2105  0.1193
   99MOL0     C13286   3.720   2.447   0.593 -0.3835  0.1832  0.2244
   99MOL0     C13287   3.637   2.554   0.545  0.8873  0.0919  0.6369
   99MOL0     O13288   3.550   2.620   0.632  0.0055 -0.0073 -0.2276
   99MOL0     C13289   3.513   2.751   0.608  0.8701 -0.0008  0.6115
   99MOL0     C13290   3.625   2.843   0.637 -0.0887  0.4279 -0.4119
   99MOL0     C13291   3.692   2.845   0.785 -0.1216 -0.3528 -0.3039
   99MOL0     C13292   3.820   2.934   0.787 -0.2529 -0.1103 -0.1610
   99MOL0     C13293   3.805   3.066   0.726 -0.6130 -0.2191  0.4233
   99MOL0     C13294   3.788   3.177   0.669  0.1148  0.9707  0.3527
   99MOL0     C13295   3.642   2.588   0.403 -0.5478  0.2519  0.0139
   99MOL0     C13296   3.740   2.524   0.320  0.9144 -0.3415  0.3029
   99MOL0     C13297   3.751   2.578   0.177  0.4008 -0.0993  0.0520
   99MOL0     H13298   3.946   2.189   0.050  0.7508  0.1405 -0.6035
   99MOL0     H13299   4.111   2.050  -0.044 -1.0737  0.0416 -0.9337
   99MOL0     H13300   4.428   1.978   0.233 -1.5151 -0.0823  0.1160
   99MOL0     H13301   4.384   1.823   0.295 -1.0823  2.3436  1.9892
   99MOL0     H13302   4.538   1.843   0.046  3.3971  1.0938  1.7512
   99MOL0     H13303   4.465   1.700   0.124 -1.1020  0.0705 -0.7382
   99MOL0     H13304   4.701   1.714   0.173  1.2470  1.2973  0.1099
   99MOL0     H13305   4.615   1.715   0.318  2.5801  0.8200  1.4760
   99MOL0     H13306   4.778   1.938   0.173  0.5076 -1.6212 -1.0762
   99MOL0     H13307   4.648   1.970   0.299 -1.3016 -0.4803 -0.8365
   99MOL0     H13308   4.755   1.852   0.468  0.9833 -0.3441  0.9092
   99MOL0     H13309   4.859   1.774   0.360  0.5766  0.1595 -1.1858
   99MOL0     H13310   4.884   2.081   0.400  0.2746 -0.0726  0.3792
   99MOL0     H13311   4.957   1.977   0.515  2.1567  0.8791  0.0274
   99MOL0     H13312   4.987   1.961   0.210 -0.4605 -0.4459  0.0812
   99MOL0     H13313   5.078   1.860   0.323  1.5189  0.7774  1.2899
   99MOL0     H13314   5.088   2.155   0.289 -2.2651 -0.1242 -1.5734
   99MOL0     H13315   5.140   2.074   0.442 -3.4763  1.6021 -0.7803
   99MOL0     H13316   5.218   2.069   0.051 -0.6031 -0.7385  0.8700
   99MOL0     H13317   5.521   1.864  -0.012 -4.4409 -1.2822 -5.0226
   99MOL0     H13318   5.425   1.990  -0.097  0.1437  3.9301  0.2555
   99MOL0     H13319   5.598   2.153   0.027 -1.4903  0.6337 -0.8181
   99MOL0     H13320   5.689   2.000   0.025  1.6622  0.5115 -1.9954
   99MOL0     H13321   5.578   2.152  -0.204  0.2107  0.2343  1.2281
   99MOL0     H13322   5.623   1.984  -0.227 -0.5311 -2.2451  2.6666
   99MOL0     H13323   5.797   2.225  -0.116  1.1197 -0.6003  1.0502
   99MOL0     H13324   5.801   2.146  -0.281 -1.8417 -3.4669  0.4301
   99MOL0     H13325   6.045   2.174  -0.269 -0.6711 -1.0988  0.2735
   99MOL0     H13326   6.279   2.241  -0.230  1.5681  0.4528 -0.0833
   99MOL0     H13327   6.531   2.574  -0.067 -0.6742 -0.8614  0.3361
   99MOL0     H13328   6.760   2.659  -0.039 -1.9435  0.8776  0.2670
   99MOL0     H13329   7.175   2.567  -0.059 -1.2668  0.5294  3.7460
   99MOL0     H13330   7.099   2.399  -0.061 -2.0627 -1.3484 -0.3780
   99MOL0     H13331   6.998   2.475  -0.272  0.1024  0.0515 -1.7540
   99MOL0     H13332   7.054   2.650  -0.253 -2.0518  0.1306  1.7664
   99MOL0     H13333   7.152   2.528  -0.424  0.5881  1.1201 -0.6847
   99MOL0     H13334   7.291   2.563  -0.312  0.4462 -1.4186  2.5286
   99MOL0     H13335   7.149   2.295  -0.291 -0.3278  1.8510  0.7812
   99MOL0     H13336   7.299   2.339  -0.225 -1.7840 -2.8256  1.0614
   99MOL0     H13337   7.365   2.400  -0.461  1.5494  0.0413  3.8509
   99MOL0     H13338   7.221   2.312  -0.520 -2.0206  1.7793  0.8626
   99MOL0     H13339   7.311   2.103  -0.415 -0.5067 -0.1878 -0.0422
   99MOL0     H13340   7.427   2.158  -0.536  0.2178  0.6787  0.0615
   99MOL0     H13341   7.549   2.082  -0.351 -0.3180 -0.3931 -3.6749
   99MOL0     H13342   7.477   2.213  -0.245 -3.6030  2.0481 -1.0793
   99MOL0     H13343   7.670   2.243  -0.474  2.0608  0.2501  0.0076
   99MOL0     H13344   7.587   2.381  -0.379  2.8042  0.5267 -1.1397
   99MOL0     H13345   6.920   2.275  -0.061  0.7958  1.9159 -2.2313
   99MOL0     H13346   6.696   2.179  -0.087 -2.3936  0.6438  0.2341
   99MOL0     H13347   6.226   2.091   0.181 -1.9842  2.8876  0.6164
   99MOL0     H13348   6.007   2.010   0.116  0.1496 -0.7817 -0.5906
   99MOL0     H13349   4.218   1.937   0.375  1.6169 -0.6989 -1.2079
   99MOL0     H13350   4.041   2.110   0.440  0.6633  0.4515 -0.2423
   99MOL0     H13351   3.867   2.301   0.545  1.7799 -0.2134 -1.9389
   99MOL0     H13352   3.720   2.413   0.696  1.4404  0.7856  0.4522
   99MOL0     H13353   3.425   2.767   0.673 -1.0519 -3.9075 -0.7240
   99MOL0     H13354   3.467   2.761   0.509 -1.2528  1.1885  1.6317
   99MOL0     H13355   3.593   2.944   0.611 -3.5696 -0.0754  1.2121
   99MOL0     H13356   3.706   2.814   0.570  0.5884 -1.5541  1.1878
   99MOL0     H13357   3.739   2.750   0.812 -1.7308 -1.1648 -0.2588
   99MOL0     H13358   3.618   2.871   0.861 -0.4864  0.1677 -0.8346
   99MOL0     H13359   3.854   2.937   0.891  2.6058 -3.3940 -0.8323
   99MOL0     H13360   3.898   2.877   0.738 -1.0481 -1.3874  0.0277
   99MOL0     H13361   3.772   3.274   0.625 -2.4084 -0.2160 -1.5767
   99MOL0     H13362   3.588   2.671   0.357 -1.5186  0.1092  0.8632
   99MOL0     H13363   3.856   2.601   0.156 -0.2981  2.8608 -0.6831
   99MOL0     H13364   3.721   2.509   0.098 -1.0623 -0.9041  1.2646
   99MOL0     H13365   3.693   2.671   0.168  2.4331  1.4589  1.8502
  100MOL0     O13366   0.302   9.321   4.879 -0.3663 -0.4117 -0.0151
  100MOL0     C13367   0.276   9.415   4.955  0.8813 -0.5797  0.6642
  100MOL0     O13368   0.364   9.498   5.020  0.1855 -0.5566 -0.5014
  100MOL0     C13369   0.496   9.461   5.045  0.4234 -0.3255 -0.0715
  100MOL0     C13370   0.542   9.325   5.061 -0.8029 -0.1338 -0.1486
  100MOL0     C13371   0.666   9.297   5.132  0.6119 -0.4678  0.3310
  100MOL0     C13372   0.753   9.396   5.149  0.1425 -1.5066  0.7702
  100MOL0     O13373   0.869   9.360   5.219  0.0891 -0.7877  0.0620
  100MOL0     C13374   0.985   9.431   5.172 -0.9190 -0.7049 -0.3254
  100MOL0     C13375   1.109   9.390   5.255  1.0188  0.3592 -0.2448
  100MOL0     C13376   1.222   9.490   5.250  0.3019  0.2812  0.1585
  100MOL0     C13377   1.302   9.468   5.124 -0.2670 -0.4202 -0.0594
  100MOL0     C13378   1.418   9.561   5.082  0.4357 -0.6557  0.3760
  100MOL0     C13379   1.546   9.531   5.167 -0.0161 -0.1910  0.5068
  100MOL0     C13380   1.662   9.629   5.134  0.7349  0.0384  0.5041
  100MOL0     C13381   1.777   9.601   5.227 -0.1166  0.1078  0.0085
  100MOL0     N13382   1.890   9.699   5.219 -0.6074  0.7783 -0.1927
  100MOL0     C13383   1.897   9.802   5.315 -0.4075 -0.3085  0.2455
  100MOL0     C13384   2.021   9.865   5.299  0.6559  0.2969 -0.1920
  100MOL0     C13385   2.048  10.005   5.357  1.2474 -0.7040  0.2895
  100MOL0     C13386   2.028  10.024   5.509 -0.1561  0.7009  0.1314
  100MOL0     C13387   2.057  10.169   5.566 -0.3700  1.0284 -0.5323
  100MOL0     C13388   2.193  10.226   5.520  0.5853  0.2353  0.1419
  100MOL0     O13389   2.296  10.127   5.531 -0.4125 -0.1134  0.5061
  100MOL0     C13390   2.412  10.133   5.465  0.5667  0.3819  0.0056
  100MOL0     C13391   2.482  10.245   5.427 -0.1289  0.0523 -0.7189
  100MOL0     C13392   2.615  10.245   5.382  0.6073  0.7553 -1.0573
  100MOL0     C13393   2.685  10.125   5.382 -0.6074  0.5935  0.0242
  100MOL0     C13394   2.831  10.129   5.353 -0.5054 -0.0411  0.0259
  100MOL0     O13395   2.873  10.241   5.293 -0.9184 -0.1364  0.5071
  100MOL0     C13396   3.001  10.253   5.251  0.5569  0.1313 -0.7171
  100MOL0     C13397   3.099  10.314   5.321 -0.1647 -0.2941  0.4040
  100MOL0     C13398   3.229  10.325   5.270 -0.3761  0.3062  0.4796
  100MOL0     C13399   3.266  10.269   5.140 -0.0295  0.9187 -0.6813
  100MOL0     O13400   3.382  10.273   5.072  0.3342  0.2445  0.0603
  100MOL0     C13401   3.495  10.322   5.140 -0.0212  0.3392  0.4946
  100MOL0     C13402   3.619  10.329   5.042  0.9512 -0.6672 -0.0082
  100MOL0     C13403   3.673  10.198   4.998 -0.6267 -0.6412  0.6726
  100MOL0     C13404   3.822  10.221   4.952 -0.6216 -0.0567 -0.1723
  100MOL0     C13405   3.838  10.274   4.808  0.9031 -0.2935  0.1476
  100MOL0     C13406   3.983  10.304   4.770  0.1672 -0.0364  0.7684
  100MOL0     C13407   4.042  10.173   4.733 -0.3480  0.3300  0.0156
  100MOL0     C13408   4.190  10.186   4.758 -0.4235  0.2154 -0.3921
  100MOL0    Cl13409   4.255  10.332   4.680  0.3013 -0.0187 -0.4363
  100MOL0     C13410   3.161  10.202   5.069  0.6088  0.7349 -0.1393
  100MOL0     C13411   3.029  10.191   5.127 -0.5630  0.2612  0.2967
  100MOL0     O13412   2.900  10.042   5.396  0.3173  0.7582 -0.3408
  100MOL0     C13413   2.611  10.012   5.418 -0.8809 -0.0126 -0.5521
  100MOL0     C13414   2.480  10.015   5.459 -0.5685  0.1024 -0.1069
  100MOL0     N13415   2.093   9.787   5.202  0.2740  0.4653 -0.1483
  100MOL0     N13416   2.013   9.690   5.161 -1.1131  0.0893 -0.3871
  100MOL0     C13417   0.716   9.534   5.117  0.0605 -0.7271 -0.3721
  100MOL0     C13418   0.589   9.565   5.076 -0.4568 -0.4001  0.4499
  100MOL0     C13419   0.132   9.421   4.996 -0.4883  0.5144 -0.7058
  100MOL0     C13420   0.090   9.436   5.134  0.1527 -0.2160  0.3082
  100MOL0     C13421  -0.041   9.447   5.162  0.1355 -0.5470  0.4376
  100MOL0     C13422  -0.142   9.414   5.075  0.3731  0.2411 -0.2826
  100MOL0     O13423  -0.269   9.402   5.122  0.2393 -0.1556  0.6793
  100MOL0     C13424  -0.369   9.353   5.035 -0.0367 -0.1523 -0.3931
  100MOL0     C13425  -0.478   9.317   5.138  0.3470  0.3435  0.4831
  100MOL0     C13426  -0.441   9.197   5.226  0.4457  0.0378  0.1521
  100MOL0     C13427  -0.412   9.065   5.149  0.0029 -0.9441 -0.0141
  100MOL0     C13428  -0.522   9.031   5.058  0.1322  0.1720  0.0548
  100MOL0     C13429  -0.613   9.010   4.978 -0.0404  0.1634 -0.5698
  100MOL0     C13430  -0.102   9.380   4.947  0.0909  0.0855  0.2836
  100MOL0     C13431   0.030   9.393   4.901 -0.5672  0.4133  0.5069
  100MOL0     C13432   0.050   9.383   4.751 -0.0419  0.0847 -0.2646
  100MOL0     H13433   0.475   9.246   5.031 -1.1708  0.0710  0.1250
  100MOL0     H13434   0.683   9.190   5.140 -1.0486 -0.7451  0.3881
  100MOL0     H13435   0.995   9.418   5.063 -1.7307  0.9152 -0.6151
  100MOL0     H13436   0.972   9.538   5.187  0.1355 -0.8245  1.7590
  100MOL0     H13437   1.141   9.285   5.245 -1.9950 -0.9566  2.1249
  100MOL0     H13438   1.084   9.390   5.361  0.3415  1.4874 -0.3855
  100MOL0     H13439   1.283   9.464   5.337 -0.4417  0.5935  0.7846
  100MOL0     H13440   1.182   9.592   5.248 -2.1354 -0.5845  1.0827
  100MOL0     H13441   1.343   9.366   5.128 -1.0307 -0.7057  2.9985
  100MOL0     H13442   1.250   9.457   5.028  3.3622 -1.5477 -2.1082
  100MOL0     H13443   1.441   9.541   4.977  0.6277  1.8704 -0.1148
  100MOL0     H13444   1.386   9.665   5.089 -0.7872 -0.9473 -0.4846
  100MOL0     H13445   1.512   9.553   5.268  1.4907  1.9671  0.6114
  100MOL0     H13446   1.578   9.427   5.154 -1.8780 -0.4464 -3.1187
  100MOL0     H13447   1.621   9.729   5.150 -1.2800 -0.7530  0.5287
  100MOL0     H13448   1.689   9.617   5.028 -0.8575 -2.5539  0.2965
  100MOL0     H13449   1.741   9.596   5.330  0.0105  1.2189  0.1204
  100MOL0     H13450   1.823   9.503   5.207 -2.7835 -0.9162 -1.6418
  100MOL0     H13451   1.817   9.833   5.382  0.9588 -0.0892  1.8132
  100MOL0     H13452   2.153  10.022   5.333  0.8067 -0.7093 -1.8014
  100MOL0     H13453   1.982  10.074   5.303  1.5321  0.0187  0.8373
  100MOL0     H13454   1.926   9.994   5.532 -0.1145  0.5278  0.0983
  100MOL0     H13455   2.095   9.955   5.562 -0.5376 -1.1970 -1.7213
  100MOL0     H13456   2.061  10.168   5.675  2.1626 -4.6847 -0.3154
  100MOL0     H13457   1.979  10.238   5.532 -1.5050 -0.0813 -0.2602
  100MOL0     H13458   2.215  10.322   5.569 -0.6812  1.2221 -1.1316
  100MOL0     H13459   2.194  10.256   5.415 -1.9107 -1.9634 -0.6238
  100MOL0     H13460   2.445  10.347   5.432  0.1899  0.1449  3.5839
  100MOL0     H13461   2.661  10.340   5.357  0.8105  0.6316 -1.1559
  100MOL0     H13462   3.074  10.356   5.418  4.1561 -0.4032  1.7502
  100MOL0     H13463   3.311  10.370   5.324  0.3254 -0.2243 -0.1157
  100MOL0     H13464   3.464  10.419   5.181 -0.5229 -0.7168  2.7484
  100MOL0     H13465   3.514  10.247   5.217  1.4690  1.6845  1.4948
  100MOL0     H13466   3.589  10.384   4.952 -0.2132 -2.5981 -0.8679
  100MOL0     H13467   3.693  10.387   5.097 -0.3172 -1.7059  2.9906
  100MOL0     H13468   3.674  10.134   5.086  1.2633  1.4545  2.3029
  100MOL0     H13469   3.612  10.154   4.918  0.9361  0.2533 -1.0946
  100MOL0     H13470   3.854  10.116   4.956  0.1327  0.0891 -1.5691
  100MOL0     H13471   3.870  10.290   5.022 -2.3796 -1.5602  2.6957
  100MOL0     H13472   3.781  10.367   4.805  0.5061 -0.5342  0.1954
  100MOL0     H13473   3.800  10.206   4.731  3.5848  0.8858 -2.4296
  100MOL0     H13474   3.987  10.375   4.687 -1.7237  3.1026  3.1011
  100MOL0     H13475   4.032  10.349   4.857 -1.8579  1.7566  1.0812
  100MOL0     H13476   4.025  10.150   4.628 -0.4132 -0.8631  0.2719
  100MOL0     H13477   3.999  10.101   4.803  0.1045  0.0211 -0.0175
  100MOL0     H13478   4.215  10.184   4.865  2.5197 -1.6940 -0.9774
  100MOL0     H13479   4.244  10.099   4.719  1.1130  0.9170  0.0588
  100MOL0     H13480   3.180  10.162   4.969 -2.7091 -0.1472 -0.5269
  100MOL0     H13481   2.944  10.157   5.069 -0.1824  1.3449 -0.9694
  100MOL0     H13482   2.664   9.918   5.426 -0.0471  0.6015  1.9057
  100MOL0     H13483   2.446   9.924   5.506 -3.1932  0.9092 -0.2768
  100MOL0     H13484   0.776   9.620   5.144  0.1777 -0.2590 -2.0206
  100MOL0     H13485   0.552   9.667   5.065  1.2975  0.2666  0.4195
  100MOL0     H13486   0.161   9.440   5.216  2.4113 -0.4732 -1.5225
  100MOL0     H13487  -0.054   9.461   5.269  0.5136 -0.1877  0.4379
  100MOL0     H13488  -0.340   9.279   4.959 -1.6651 -0.9191 -0.3033
  100MOL0     H13489  -0.400   9.436   4.971  0.1309  1.2886  1.3566
  100MOL0     H13490  -0.572   9.300   5.085  1.1196 -3.6073  0.1004
  100MOL0     H13491  -0.492   9.404   5.203  1.3137 -0.0512  1.2367
  100MOL0     H13492  -0.525   9.171   5.290  0.3757 -2.1298 -0.7235
  100MOL0     H13493  -0.359   9.227   5.293  2.0858 -0.8362 -1.3572
  100MOL0     H13494  -0.328   9.093   5.084 -1.3499  1.8590 -0.6985
  100MOL0     H13495  -0.391   8.978   5.212  0.3693 -1.3334 -0.6610
  100MOL0     H13496  -0.689   8.972   4.912  0.8478 -2.6420 -0.1502
  100MOL0     H13497  -0.170   9.355   4.865  1.4728  1.2045 -1.2760
  100MOL0     H13498   0.140   9.440   4.729  0.1727  2.0918  4.5688
  100MOL0     H13499   0.068   9.277   4.728 -0.3107 -0.4121  1.5876
  100MOL0     H13500  -0.036   9.425   4.698 -1.1431 -0.2425  1.1987
  101MOL0     O13501   8.387   3.909   8.369  0.1398 -0.4599 -0.4320
  101MOL0     C13502   8.331   3.879   8.474 -0.2168 -0.8845  0.9199
  101MOL0     O13503   8.395   3.861   8.592  0.2445  0.1377  0.0965
  101MOL0     C13504   8.531   3.892   8.586 -0.2982  0.5405  0.7595
  101MOL0     C13505   8.624   3.791   8.588  0.0355  0.1032 -0.5567
  101MOL0     C13506   8.764   3.824   8.587 -0.2498  0.4114  0.9206
  101MOL0     C13507   8.802   3.959   8.586 -0.0806 -0.6011 -0.6721
  101MOL0     O13508   8.927   4.010   8.580 -0.6938 -0.0334 -0.2592
  101MOL0     C13509   9.041   3.935   8.638  0.9059 -0.5307  0.4945
  101MOL0     C13510   9.064   3.930   8.781  0.1591 -0.8172  0.1828
  101MOL0     C13511   9.061   4.077   8.834  0.2983  0.1315 -0.7724
  101MOL0     C13512   8.932   4.103   8.914  0.2291  0.0669  0.4387
  101MOL0     C13513   8.885   4.243   8.894  0.2256  0.4572 -1.4627
  101MOL0     C13514   8.760   4.284   8.982 -0.2954  1.1298 -0.5850
  101MOL0     C13515   8.744   4.435   8.981  0.1339  0.3923  0.0581
  101MOL0     C13516   8.691   4.498   8.853 -0.0142  0.0639 -0.1015
  101MOL0     N13517   8.573   4.439   8.788 -0.3616  0.0884 -0.9999
  101MOL0     C13518   8.444   4.443   8.833  0.1705 -0.8683  0.0962
  101MOL0     C13519   8.376   4.370   8.746  0.3302 -0.5553  0.9652
  101MOL0     C13520   8.222   4.346   8.757 -0.7992  0.3882  0.8291
  101MOL0     C13521   8.181   4.208   8.814  0.3441  0.3162  0.2784
  101MOL0     C13522   8.249   4.179   8.948 -0.3886  0.8489  0.3660
  101MOL0     C13523   8.370   4.086   8.928  0.3977 -0.0290  0.6495
  101MOL0     O13524   8.421   4.063   9.060  0.4115 -0.2922 -0.4630
  101MOL0     C13525   8.544   3.997   9.067  0.0684 -0.8271 -0.3735
  101MOL0     C13526   8.631   4.013   9.174  0.9146  0.1905  0.1064
  101MOL0     C13527   8.740   3.929   9.179 -0.0069  0.0108  0.1807
  101MOL0     C13528   8.760   3.823   9.094 -0.7291 -0.7091 -0.7673
  101MOL0     C13529   8.877   3.729   9.097 -0.2426 -0.2322 -0.8926
  101MOL0     O13530   8.934   3.683   8.983 -0.3148  0.2663  0.1937
  101MOL0     C13531   9.024   3.582   8.959  0.6917 -0.2468  0.0435
  101MOL0     C13532   9.100   3.527   9.055 -1.0182  0.1774 -0.2148
  101MOL0     C13533   9.179   3.420   9.036  0.1577  0.1459  0.3352
  101MOL0     C13534   9.191   3.369   8.911 -0.0428 -0.2103  0.2679
  101MOL0     O13535   9.282   3.274   8.899 -0.9569  0.0643 -0.1384
  101MOL0     C13536   9.258   3.169   8.800 -0.0676 -0.5908 -0.3783
  101MOL0     C13537   9.346   3.054   8.839 -0.7912  1.3770 -0.3272
  101MOL0     C13538   9.341   2.932   8.750 -0.2022  0.3630 -0.2821
  101MOL0     C13539   9.475   2.843   8.773  0.4195  0.7483 -0.2891
  101MOL0     C13540   9.608   2.872   8.704 -0.2562 -0.2216  0.3728
  101MOL0     C13541   9.594   2.880   8.549 -0.6093  0.4627 -0.3107
  101MOL0     C13542   9.519   2.764   8.477 -0.3741  0.1940  0.6938
  101MOL0     C13543   9.597   2.732   8.337  0.4626  0.2286 -0.8922
  101MOL0    Cl13544   9.521   2.577   8.278 -0.2634 -0.2720  0.0999
  101MOL0     C13545   9.129   3.431   8.803  0.6484 -0.5219 -0.0959
  101MOL0     C13546   9.035   3.530   8.828 -0.2307 -0.4565 -0.4388
  101MOL0     O13547   8.909   3.687   9.205 -0.4099 -0.2654  0.1784
  101MOL0     C13548   8.685   3.815   8.979 -0.2588 -0.4281  0.9315
  101MOL0     C13549   8.577   3.903   8.960  0.3048 -0.6400  0.5993
  101MOL0     N13550   8.459   4.341   8.641  0.9830 -0.1769 -0.0275
  101MOL0     N13551   8.579   4.378   8.668 -0.9167 -0.2068  0.0777
  101MOL0     C13552   8.707   4.060   8.585  0.0491  1.0521 -0.3898
  101MOL0     C13553   8.572   4.027   8.587 -0.7926 -0.0439  0.6897
  101MOL0     C13554   8.195   3.827   8.460  0.2659  0.3390  0.0725
  101MOL0     C13555   8.178   3.701   8.530 -0.5128 -0.6219  0.3732
  101MOL0     C13556   8.057   3.629   8.527 -0.4769 -0.5294  0.0545
  101MOL0     C13557   7.960   3.672   8.441  1.0375  0.3897  0.3952
  101MOL0     O13558   7.849   3.592   8.423  0.6299  0.8932 -0.0434
  101MOL0     C13559   7.717   3.641   8.412 -0.2879 -0.0919 -0.5108
  101MOL0     C13560   7.667   3.714   8.534 -0.8900  0.1635 -0.3644
  101MOL0     C13561   7.516   3.747   8.530 -0.2964  0.4353  0.3219
  101MOL0     C13562   7.465   3.796   8.664 -0.2821  0.2633  0.4590
  101MOL0     C13563   7.318   3.815   8.680 -1.2479 -0.5799 -0.0984
  101MOL0     C13564   7.199   3.818   8.691  0.1419 -0.5273  0.4279
  101MOL0     C13565   7.971   3.786   8.360  1.0466  0.1138  0.0527
  101MOL0     C13566   8.091   3.861   8.368  0.8418  0.4131 -0.4468
  101MOL0     C13567   8.113   3.969   8.262  0.4333  0.3534 -0.8475
  101MOL0     H13568   8.593   3.687   8.589 -2.6715  0.8312 -0.5432
  101MOL0     H13569   8.831   3.739   8.579 -0.4123  0.4103 -0.6852
  101MOL0     H13570   9.047   3.833   8.601 -1.5051 -0.4755 -0.2232
  101MOL0     H13571   9.119   3.993   8.588 -0.8250  0.7442 -0.9022
  101MOL0     H13572   9.155   3.881   8.818  1.3429  1.5770  0.6947
  101MOL0     H13573   8.979   3.871   8.814 -1.0688  0.2655 -0.9265
  101MOL0     H13574   9.060   4.154   8.756 -0.4492  0.8920 -0.0266
  101MOL0     H13575   9.147   4.092   8.900  0.4524 -1.1208 -0.6743
  101MOL0     H13576   8.854   4.036   8.877 -0.2984  1.2733 -0.6816
  101MOL0     H13577   8.941   4.078   9.020  0.4588 -1.8806  0.0162
  101MOL0     H13578   8.971   4.300   8.929  1.1214 -2.7380  2.2172
  101MOL0     H13579   8.853   4.258   8.790 -5.4424  2.3320  0.1661
  101MOL0     H13580   8.668   4.239   8.944 -1.6905  0.8929  2.6944
  101MOL0     H13581   8.769   4.242   9.083 -0.3813 -0.9060 -1.3815
  101MOL0     H13582   8.839   4.486   9.001  2.0324 -1.2769 -3.6068
  101MOL0     H13583   8.675   4.453   9.064 -0.8557 -3.6452  0.3059
  101MOL0     H13584   8.675   4.605   8.867 -0.9059  0.1400 -1.5546
  101MOL0     H13585   8.767   4.492   8.774  0.3802  2.0555  0.0830
  101MOL0     H13586   8.403   4.487   8.923 -0.9854 -0.2685 -0.7038
  101MOL0     H13587   8.189   4.427   8.823 -1.2276  0.3610  0.6490
  101MOL0     H13588   8.179   4.350   8.657 -1.1407 -1.6128  0.8519
  101MOL0     H13589   8.074   4.208   8.836  0.2335 -1.1374 -0.1896
  101MOL0     H13590   8.212   4.134   8.740  0.6285  3.0118 -2.4936
  101MOL0     H13591   8.183   4.118   9.010  4.0229  0.1852  5.1288
  101MOL0     H13592   8.276   4.272   8.999  0.6263 -0.8443  3.1624
  101MOL0     H13593   8.438   4.128   8.854 -2.0077  1.3818 -0.9002
  101MOL0     H13594   8.326   3.993   8.890  0.0948 -0.7324  2.6162
  101MOL0     H13595   8.609   4.078   9.258  0.2598 -1.2690  1.1174
  101MOL0     H13596   8.818   3.947   9.253  0.7516  1.7762 -0.9693
  101MOL0     H13597   9.099   3.561   9.158 -0.2555 -0.6944  0.0993
  101MOL0     H13598   9.226   3.370   9.120  0.1516 -1.4165 -0.5646
  101MOL0     H13599   9.152   3.144   8.794 -0.5507  1.1930  0.0743
  101MOL0     H13600   9.295   3.190   8.699 -0.7283 -2.6760 -1.1040
  101MOL0     H13601   9.448   3.093   8.836 -1.0896  2.4183  1.3819
  101MOL0     H13602   9.320   3.027   8.942  1.9868 -1.3823 -0.2044
  101MOL0     H13603   9.245   2.887   8.778 -1.8107  1.9339 -2.8640
  101MOL0     H13604   9.332   2.973   8.649 -0.5033  0.7071 -0.1194
  101MOL0     H13605   9.454   2.738   8.751  1.5657  0.4617 -0.0886
  101MOL0     H13606   9.492   2.843   8.881 -0.8427 -0.7278 -0.0621
  101MOL0     H13607   9.676   2.791   8.732 -1.9254 -2.2543 -1.1252
  101MOL0     H13608   9.636   2.969   8.746 -0.7471  0.5291 -0.9568
  101MOL0     H13609   9.527   2.964   8.528  1.5126  2.5508  0.7191
  101MOL0     H13610   9.693   2.891   8.504 -0.1538 -0.8813  0.3035
  101MOL0     H13611   9.417   2.795   8.456 -1.4591 -3.0569  0.5590
  101MOL0     H13612   9.512   2.679   8.546 -3.0350 -0.0568  0.2087
  101MOL0     H13613   9.590   2.812   8.263 -1.3679 -0.4422 -1.4992
  101MOL0     H13614   9.700   2.706   8.364  0.9409  0.4146 -2.4811
  101MOL0     H13615   9.154   3.398   8.703 -0.1399 -0.9130 -0.1656
  101MOL0     H13616   8.988   3.580   8.744 -1.0477 -2.7995 -1.4536
  101MOL0     H13617   8.709   3.740   8.905 -2.2780 -0.9076  0.7007
  101MOL0     H13618   8.528   3.896   8.864 -1.4690 -0.9618  1.4847
  101MOL0     H13619   8.732   4.165   8.567 -0.4013  0.7358 -3.4316
  101MOL0     H13620   8.489   4.097   8.580 -2.1057 -1.5827  0.1262
  101MOL0     H13621   8.247   3.656   8.601 -2.8610 -1.6302  2.1812
  101MOL0     H13622   8.034   3.539   8.583 -3.0794  0.7416  1.1959
  101MOL0     H13623   7.655   3.551   8.410 -1.3977  0.6315 -0.2032
  101MOL0     H13624   7.702   3.701   8.322  1.7964  1.2494 -0.0388
  101MOL0     H13625   7.722   3.807   8.549 -0.4979 -0.2550  0.9249
  101MOL0     H13626   7.694   3.646   8.616  4.1152 -0.4128 -2.1885
  101MOL0     H13627   7.458   3.660   8.496 -0.3300  1.0491 -1.2784
  101MOL0     H13628   7.491   3.817   8.450 -1.8796  0.4338  0.7747
  101MOL0     H13629   7.495   3.718   8.735  0.9979  0.7282  0.4539
  101MOL0     H13630   7.522   3.886   8.689  0.1454  0.1851 -0.2059
  101MOL0     H13631   7.093   3.821   8.697  0.1724  0.1849  0.6647
  101MOL0     H13632   7.900   3.815   8.283  0.1713  0.6103  1.0121
  101MOL0     H13633   8.106   4.073   8.294 -1.7135 -0.1367  0.5377
  101MOL0     H13634   8.214   3.953   8.225  1.0123  1.9157 -0.0364
  101MOL0     H13635   8.041   3.961   8.179  1.6615 -0.5862 -1.8612
  102MOL0     O13636   1.173   7.663  10.090 -0.1820 -0.0472 -0.2616
  102MOL0     C13637   1.080   7.742  10.100 -0.1437 -0.8341  0.6672
  102MOL0     O13638   1.094   7.880  10.116 -0.3553 -0.2104 -0.6385
  102MOL0     C13639   1.217   7.941  10.112 -0.2536 -1.1743  0.2241
  102MOL0     C13640   1.225   8.065  10.056  0.5074 -0.2488  1.1387
  102MOL0     C13641   1.334   8.146  10.065 -0.8025  0.0230  0.1251
  102MOL0     C13642   1.452   8.088  10.120  0.0320 -0.3075  0.4506
  102MOL0     O13643   1.571   8.158  10.116 -0.4661  0.1548  0.3842
  102MOL0     C13644   1.641   8.160  10.242  0.1870  0.1845 -0.3889
  102MOL0     C13645   1.767   8.256  10.223  0.1014 -0.1056 -1.0359
  102MOL0     C13646   1.857   8.258  10.348  0.4668  0.4746  0.8355
  102MOL0     C13647   1.965   8.362  10.334  0.1403 -0.2039  0.2547
  102MOL0     C13648   2.055   8.358  10.448 -0.1044  0.1331 -0.2982
  102MOL0     C13649   2.160   8.465  10.460 -0.2987  0.0562  0.5917
  102MOL0     C13650   2.223   8.453  10.604 -0.0592  0.5708  0.4556
  102MOL0     C13651   2.328   8.555  10.624 -0.3028 -0.1113 -0.0413
  102MOL0     N13652   2.457   8.550  10.551  0.3824 -0.2855  0.4628
  102MOL0     C13653   2.575   8.505  10.595 -0.7966 -0.3995 -0.0678
  102MOL0     C13654   2.659   8.524  10.485 -0.9765 -0.8534  0.8789
  102MOL0     C13655   2.807   8.499  10.477 -0.7878 -1.6327 -0.3791
  102MOL0     C13656   2.889   8.631  10.507 -0.5684  0.0423  0.5139
  102MOL0     C13657   2.896   8.721  10.386 -0.1170 -0.6403 -0.5529
  102MOL0     C13658   3.039   8.799  10.375  0.2983 -0.8241  0.8516
  102MOL0     O13659   3.140   8.718  10.332 -0.4192  0.2165 -0.8332
  102MOL0     C13660   3.262   8.771  10.339 -0.0142 -0.3568  0.3148
  102MOL0     C13661   3.300   8.895  10.394  0.1673  0.0262 -0.1451
  102MOL0     C13662   3.434   8.945  10.389 -0.5192 -0.0709 -0.0855
  102MOL0     C13663   3.533   8.875  10.318 -0.0695 -0.1040 -0.8061
  102MOL0     C13664   3.672   8.928  10.309  0.2009 -0.5002 -0.8798
  102MOL0     O13665   3.704   9.044  10.379  0.2499 -0.0116  0.2090
  102MOL0     C13666   3.823   9.111  10.380 -0.1273  0.1812  0.5780
  102MOL0     C13667   3.823   9.253  10.370  0.1881 -0.0260  0.0057
  102MOL0     C13668   3.938   9.322  10.377 -0.0619 -0.0347 -0.1731
  102MOL0     C13669   4.059   9.257  10.412 -0.2249 -0.3307  0.1383
  102MOL0     O13670   4.170   9.333  10.420  0.1546  0.8834  0.1076
  102MOL0     C13671   4.290   9.273  10.484 -0.2281 -0.0265  0.9323
  102MOL0     C13672   4.382   9.394  10.480 -0.4509 -1.1862 -0.4699
  102MOL0     C13673   4.429   9.437  10.336  0.3493  0.4115  0.0622
  102MOL0     C13674   4.532   9.554  10.344  0.7072  0.0497  0.1886
  102MOL0     C13675   4.576   9.615  10.210  0.0001  0.1214  0.3157
  102MOL0     C13676   4.663   9.739  10.224 -0.1965  0.7966  0.3390
  102MOL0     C13677   4.797   9.718  10.304  1.2087  0.1126 -0.5769
  102MOL0     C13678   4.900   9.837  10.306 -0.9358  0.4188 -0.3113
  102MOL0    Cl13679   4.835   9.994  10.365  0.1159 -0.2853 -0.0193
  102MOL0     C13680   4.058   9.112  10.433  0.4520 -0.0001  0.5691
  102MOL0     C13681   3.942   9.041  10.412  0.1414  0.0745 -0.4202
  102MOL0     O13682   3.754   8.864  10.237  0.7923 -1.0687 -0.0564
  102MOL0     C13683   3.489   8.744  10.276 -0.4150  0.6150 -0.0464
  102MOL0     C13684   3.366   8.694  10.288  0.8517  0.2100  0.1291
  102MOL0     N13685   2.591   8.568  10.378  0.7840  0.2341  0.1165
  102MOL0     N13686   2.479   8.592  10.422  0.3175  0.2172 -0.4509
  102MOL0     C13687   1.452   7.956  10.170 -0.2021  0.0371 -1.0987
  102MOL0     C13688   1.332   7.888  10.174 -0.4286 -0.2263 -0.4320
  102MOL0     C13689   0.936   7.695  10.089 -0.3491 -0.2250  0.4026
  102MOL0     C13690   0.843   7.788  10.034  0.2669 -0.2357 -0.1578
  102MOL0     C13691   0.715   7.744  10.000 -0.5357  0.9780  0.5756
  102MOL0     C13692   0.673   7.615  10.028 -0.7943 -0.4459  0.6803
  102MOL0     O13693   0.550   7.567  10.019 -0.5933 -0.4588 -0.3156
  102MOL0     C13694   0.441   7.645   9.971  0.2624  0.3206  0.8977
  102MOL0     C13695   0.329   7.549   9.934  0.2499  0.2284  0.4387
  102MOL0     C13696   0.222   7.635   9.861  0.2237  0.6177  0.6028
  102MOL0     C13697   0.093   7.550   9.847  0.2208 -0.8106  0.0570
  102MOL0     C13698  -0.003   7.607   9.755 -0.0218 -0.4700 -0.0117
  102MOL0     C13699  -0.067   7.652   9.664  0.3501 -0.2539 -0.4858
  102MOL0     C13700   0.762   7.527  10.094  0.8801  1.3780 -0.2086
  102MOL0     C13701   0.890   7.558  10.119  0.1236 -0.1778 -1.1260
  102MOL0     C13702   0.973   7.457  10.198 -0.0585  0.1042 -0.2735
  102MOL0     H13703   1.131   8.103  10.015  0.1123  0.4116  2.5716
  102MOL0     H13704   1.357   8.248  10.034  2.3046  0.0007  1.9720
  102MOL0     H13705   1.588   8.198  10.329 -1.5126 -1.0189 -0.8572
  102MOL0     H13706   1.678   8.059  10.258 -1.0765 -0.0812  0.9344
  102MOL0     H13707   1.730   8.356  10.200 -1.3810 -1.1720 -3.8628
  102MOL0     H13708   1.816   8.212  10.135  2.7121  3.2262 -1.4364
  102MOL0     H13709   1.896   8.157  10.365  2.2858  0.9757 -0.0519
  102MOL0     H13710   1.799   8.278  10.438 -2.9317 -1.4120 -0.7179
  102MOL0     H13711   2.021   8.337  10.243  2.9177  0.8517  1.5523
  102MOL0     H13712   1.915   8.459  10.331 -1.8291 -1.1899 -1.7380
  102MOL0     H13713   1.989   8.372  10.535 -0.0256 -0.0207 -0.2134
  102MOL0     H13714   2.095   8.258  10.467  0.2367 -0.1189 -2.2190
  102MOL0     H13715   2.229   8.453  10.376 -0.9424 -1.9061  0.2823
  102MOL0     H13716   2.110   8.561  10.451  0.4559  0.3472 -0.7422
  102MOL0     H13717   2.249   8.349  10.623 -2.2146 -0.3549 -1.2096
  102MOL0     H13718   2.143   8.477  10.675 -1.1525 -0.9984 -0.1888
  102MOL0     H13719   2.279   8.651  10.603 -1.4715 -0.4184  1.1358
  102MOL0     H13720   2.344   8.559  10.732 -0.4476 -2.1302  0.0804
  102MOL0     H13721   2.602   8.467  10.693  0.1567 -0.6059 -0.4036
  102MOL0     H13722   2.831   8.423  10.552 -1.3240 -1.5550 -0.1221
  102MOL0     H13723   2.835   8.466  10.377  2.8743 -1.6448  0.5071
  102MOL0     H13724   2.853   8.692  10.591  1.4316  1.0630  0.6982
  102MOL0     H13725   2.989   8.594  10.533 -0.6071  1.1282  2.4409
  102MOL0     H13726   2.816   8.795  10.382 -0.6895 -1.1918  0.3989
  102MOL0     H13727   2.895   8.665  10.291  2.8671 -0.2084 -0.9379
  102MOL0     H13728   3.064   8.836  10.475 -0.2845  0.2967  0.5940
  102MOL0     H13729   3.039   8.889  10.313  0.5588  1.2305  3.6689
  102MOL0     H13730   3.225   8.958  10.441  0.1709  0.4953 -0.7420
  102MOL0     H13731   3.450   9.040  10.438  2.0465 -1.0106  1.0765
  102MOL0     H13732   3.730   9.307  10.350 -0.9872 -1.4074  1.4815
  102MOL0     H13733   3.940   9.429  10.365  0.2392  0.2513  2.0937
  102MOL0     H13734   4.280   9.232  10.584  2.5156 -1.6288  0.6518
  102MOL0     H13735   4.335   9.192  10.427  1.7339  0.4544  1.7026
  102MOL0     H13736   4.324   9.477  10.522 -0.4255 -3.0594  3.7972
  102MOL0     H13737   4.469   9.368  10.541 -1.4034 -2.4948  0.3803
  102MOL0     H13738   4.468   9.355  10.275  0.1850 -0.1647  0.7121
  102MOL0     H13739   4.338   9.470  10.285  2.4625  2.2846 -2.7486
  102MOL0     H13740   4.625   9.514  10.385  1.1881  1.2123  0.2851
  102MOL0     H13741   4.489   9.633  10.406  0.4098 -0.3600  0.5001
  102MOL0     H13742   4.484   9.640  10.159  1.1934 -1.4342 -2.8539
  102MOL0     H13743   4.628   9.535  10.157 -1.4087 -1.3525  1.0651
  102MOL0     H13744   4.700   9.775  10.127  1.8710 -0.4331  0.6163
  102MOL0     H13745   4.609   9.820  10.274 -1.3556 -0.7825  1.7633
  102MOL0     H13746   4.853   9.629  10.276  2.2062  0.9206 -1.2483
  102MOL0     H13747   4.768   9.714  10.409 -0.7898  1.8377 -0.9920
  102MOL0     H13748   4.979   9.797  10.370 -0.7152 -3.7299 -2.7952
  102MOL0     H13749   4.942   9.839  10.205 -0.9250 -1.3938 -0.3743
  102MOL0     H13750   4.144   9.055  10.468 -0.2947  0.7213  4.0075
  102MOL0     H13751   3.933   8.934  10.428 -3.9394  0.3594  0.1349
  102MOL0     H13752   3.551   8.686  10.208  0.8846  0.7670  0.9721
  102MOL0     H13753   3.336   8.594  10.258  0.0799  0.2163  0.8393
  102MOL0     H13754   1.546   7.911  10.201 -0.8711 -0.8573 -0.2862
  102MOL0     H13755   1.322   7.791  10.223 -0.0241 -1.0354 -1.8745
  102MOL0     H13756   0.873   7.890  10.016 -1.4686  0.5174  1.0270
  102MOL0     H13757   0.651   7.819   9.955 -0.5179 -0.3783 -1.8944
  102MOL0     H13758   0.467   7.685   9.872 -0.2989  0.0560  0.6407
  102MOL0     H13759   0.419   7.725  10.042  1.0012  2.3041 -1.0086
  102MOL0     H13760   0.277   7.510  10.022  1.2181  0.4563  1.1265
  102MOL0     H13761   0.364   7.465   9.872 -1.2112 -0.8283  0.9709
  102MOL0     H13762   0.242   7.648   9.755 -1.0732  0.6359  0.3377
  102MOL0     H13763   0.199   7.730   9.910 -2.6451  0.3939 -0.1055
  102MOL0     H13764   0.124   7.453   9.810 -0.0140 -0.5615 -0.8087
  102MOL0     H13765   0.046   7.550   9.946  1.1235  1.2456  0.5527
  102MOL0     H13766  -0.128   7.674   9.578  1.6959 -0.5277 -1.5561
  102MOL0     H13767   0.720   7.432  10.127 -0.9112  2.2475  0.1230
  102MOL0     H13768   1.069   7.450  10.147  2.6523  3.3120  3.7376
  102MOL0     H13769   0.998   7.501  10.295 -0.4315  0.2169 -0.2240
  102MOL0     H13770   0.935   7.357  10.220 -0.4657  0.6545  1.7518
  103MOL0     O13771   5.806   5.150   2.144  0.0548  0.5887  0.2645
  103MOL0     C13772   5.726   5.118   2.057  0.3352  0.1127  0.2963
  103MOL0     O13773   5.752   5.021   1.959 -0.5964 -0.3641 -0.4238
  103MOL0     C13774   5.872   4.960   1.961 -0.2000  0.4501  0.4680
  103MOL0     C13775   5.875   4.822   1.954  0.0376  0.2875 -0.8518
  103MOL0     C13776   5.989   4.745   1.948 -0.5735 -0.0385 -0.5714
  103MOL0     C13777   6.115   4.813   1.937  0.0388  0.2363  0.3688
  103MOL0     O13778   6.239   4.754   1.916 -0.2810  0.0665  0.1014
  103MOL0     C13779   6.237   4.616   1.890  0.6542  0.4345 -0.1799
  103MOL0     C13780   6.372   4.560   1.850 -0.0361 -0.3315 -0.5407
  103MOL0     C13781   6.481   4.568   1.956 -0.9521  0.0806 -0.1982
  103MOL0     C13782   6.605   4.489   1.922  0.5525 -0.5515  0.1049
  103MOL0     C13783   6.674   4.536   1.789 -0.3397 -0.2069 -0.0583
  103MOL0     C13784   6.806   4.456   1.767  0.3983 -0.2037  0.5611
  103MOL0     C13785   6.929   4.541   1.774 -0.0580 -0.9408 -0.3037
  103MOL0     C13786   7.066   4.460   1.756  0.2521  0.8222 -0.7355
  103MOL0     N13787   7.156   4.515   1.650  0.3803  0.7189 -0.0945
  103MOL0     C13788   7.222   4.629   1.661  0.6297 -0.7359  0.4381
  103MOL0     C13789   7.307   4.616   1.547 -0.3825 -0.6843  0.0968
  103MOL0     C13790   7.412   4.710   1.493 -0.2418  0.1852 -0.5861
  103MOL0     C13791   7.479   4.666   1.361  0.6400 -0.6877 -0.8798
  103MOL0     C13792   7.584   4.551   1.379  0.0766 -0.2260 -0.5972
  103MOL0     C13793   7.718   4.604   1.426  0.3818  1.0829 -0.7375
  103MOL0     O13794   7.823   4.503   1.421  0.1927  0.1196 -0.1534
  103MOL0     C13795   7.946   4.536   1.460 -0.2514  0.3772  0.0320
  103MOL0     C13796   8.036   4.424   1.467  0.5994 -0.1507  1.3062
  103MOL0     C13797   8.177   4.437   1.479 -0.1038 -0.3007  0.8624
  103MOL0     C13798   8.227   4.571   1.497 -0.2128 -0.1574 -0.3954
  103MOL0     C13799   8.376   4.595   1.511  0.4998 -0.3157 -0.3767
  103MOL0     O13800   8.406   4.725   1.555  0.3512  0.2057 -0.3451
  103MOL0     C13801   8.536   4.774   1.567 -0.3414  0.3964  0.2321
  103MOL0     C13802   8.639   4.723   1.478 -0.9679  0.2311 -0.6094
  103MOL0     C13803   8.766   4.788   1.482 -0.2313 -0.2470  0.3409
  103MOL0     C13804   8.798   4.893   1.566 -0.3369  0.2230  0.5520
  103MOL0     O13805   8.930   4.933   1.566  0.2735 -0.3365 -0.4334
  103MOL0     C13806   8.975   4.982   1.693  0.4802  0.3049  0.0522
  103MOL0     C13807   9.129   4.979   1.702 -0.6902 -0.2781 -0.5531
  103MOL0     C13808   9.189   5.069   1.593  0.4899 -1.4548 -0.6904
  103MOL0     C13809   9.319   5.132   1.643  0.3818 -0.5342 -0.7923
  103MOL0     C13810   9.436   5.133   1.552 -0.2091 -0.8610 -0.4821
  103MOL0     C13811   9.541   5.245   1.587 -0.4734 -0.9840 -0.5982
  103MOL0     C13812   9.655   5.233   1.490  0.6428 -0.0886  1.0843
  103MOL0     C13813   9.624   5.284   1.346 -0.5305  0.4490  0.9129
  103MOL0    Cl13814   9.763   5.288   1.237 -0.0073  1.1816  0.1063
  103MOL0     C13815   8.693   4.939   1.650  0.5605 -0.2413  0.2961
  103MOL0     C13816   8.566   4.884   1.650  0.6233  0.1554  0.5114
  103MOL0     O13817   8.453   4.501   1.487 -0.0341  0.6062  0.7944
  103MOL0     C13818   8.133   4.677   1.513  0.3426 -0.1688  1.0077
  103MOL0     C13819   8.000   4.656   1.480 -0.0642 -0.9206 -0.8749
  103MOL0     N13820   7.276   4.498   1.487 -0.8367  0.6399  0.7221
  103MOL0     N13821   7.186   4.434   1.542  0.2707 -0.2193 -0.2435
  103MOL0     C13822   6.115   4.952   1.952  1.3967 -0.1540 -0.7003
  103MOL0     C13823   5.994   5.023   1.954  0.8077 -1.3367  0.0741
  103MOL0     C13824   5.583   5.164   2.060 -0.3397 -0.2358 -0.5245
  103MOL0     C13825   5.490   5.073   2.019  0.9979  0.1293 -0.6833
  103MOL0     C13826   5.356   5.106   1.997 -0.2766  0.2515  0.1997
  103MOL0     C13827   5.302   5.223   2.043 -0.3870 -0.1087 -0.2929
  103MOL0     O13828   5.171   5.262   2.026 -0.4017  0.1285 -0.1938
  103MOL0     C13829   5.095   5.317   2.130  0.5505  0.6063  0.2127
  103MOL0     C13830   4.962   5.349   2.077 -0.1719 -0.0543 -1.2132
  103MOL0     C13831   4.862   5.393   2.183  0.5223  1.1838  0.0762
  103MOL0     C13832   4.723   5.449   2.127 -1.1821 -0.4393 -0.4080
  103MOL0     C13833   4.661   5.366   2.034 -0.0746  0.1201  0.7145
  103MOL0     C13834   4.623   5.291   1.943  0.1287  0.2135  0.0142
  103MOL0     C13835   5.392   5.308   2.101 -0.6337 -0.5557  0.6074
  103MOL0     C13836   5.530   5.289   2.110 -0.7999  0.1902 -0.0373
  103MOL0     C13837   5.615   5.394   2.178 -0.4088  0.1397  0.2110
  103MOL0     H13838   5.782   4.766   1.946  0.0357  0.1322  0.0715
  103MOL0     H13839   5.988   4.637   1.939 -0.5438  0.1183 -2.9036
  103MOL0     H13840   6.195   4.557   1.972 -0.4534  0.1980 -0.8962
  103MOL0     H13841   6.164   4.597   1.811  0.4690 -0.0370  0.0983
  103MOL0     H13842   6.406   4.613   1.761 -1.8536 -1.0020 -1.6817
  103MOL0     H13843   6.360   4.454   1.825  4.7511 -0.7751 -1.9909
  103MOL0     H13844   6.440   4.519   2.046  0.8181  0.2168  0.7231
  103MOL0     H13845   6.487   4.675   1.978 -1.6684 -0.0520  0.7517
  103MOL0     H13846   6.677   4.492   2.004 -1.5240 -1.2026  2.0496
  103MOL0     H13847   6.576   4.385   1.899  0.4117  0.1693 -3.6245
  103MOL0     H13848   6.622   4.505   1.698  1.3826  1.9697 -1.8928
  103MOL0     H13849   6.684   4.645   1.783 -3.6293  0.2351  0.7463
  103MOL0     H13850   6.817   4.374   1.839 -0.7413 -1.4332 -0.5979
  103MOL0     H13851   6.808   4.417   1.665 -0.5281  1.6644 -0.2045
  103MOL0     H13852   6.933   4.588   1.873  2.1138 -0.8681 -0.3857
  103MOL0     H13853   6.919   4.618   1.697 -1.3965  1.2534  1.9182
  103MOL0     H13854   7.128   4.462   1.847 -2.6849  3.3641  1.4493
  103MOL0     H13855   7.032   4.359   1.731 -0.0700  0.2281  1.7815
  103MOL0     H13856   7.202   4.707   1.733 -3.1414  2.3425 -3.4348
  103MOL0     H13857   7.372   4.810   1.474 -0.0089  0.6691  1.2946
  103MOL0     H13858   7.492   4.715   1.567 -0.7369  3.1867 -0.1255
  103MOL0     H13859   7.401   4.632   1.293  1.1245 -1.7379 -0.9346
  103MOL0     H13860   7.516   4.755   1.311 -0.1261  0.2423  0.1621
  103MOL0     H13861   7.607   4.511   1.279 -0.9268 -0.9500 -0.5568
  103MOL0     H13862   7.539   4.477   1.446 -0.1283  0.9209  0.5612
  103MOL0     H13863   7.708   4.647   1.526  2.9604 -1.0094  0.5630
  103MOL0     H13864   7.748   4.680   1.353 -1.3353 -1.9568 -5.0552
  103MOL0     H13865   7.992   4.328   1.443 -2.4064  1.9153 -2.4509
  103MOL0     H13866   8.244   4.352   1.467  0.3150  0.2625 -1.1640
  103MOL0     H13867   8.635   4.641   1.407 -1.3058 -0.3314  0.0492
  103MOL0     H13868   8.831   4.744   1.407 -0.3305  0.3778 -0.1243
  103MOL0     H13869   8.941   5.082   1.720  2.6988  1.0704  0.2247
  103MOL0     H13870   8.937   4.914   1.770 -1.2239  1.7328  0.5425
  103MOL0     H13871   9.159   5.009   1.803 -0.0231  0.4311 -0.9566
  103MOL0     H13872   9.148   4.873   1.679 -0.8537 -0.6368  0.8673
  103MOL0     H13873   9.204   5.007   1.504  1.4111 -0.4505 -1.2564
  103MOL0     H13874   9.124   5.151   1.562  2.1227 -1.0127 -3.2443
  103MOL0     H13875   9.350   5.086   1.737 -0.4210  1.6834  0.6731
  103MOL0     H13876   9.295   5.234   1.676  0.4888 -0.7751  0.0555
  103MOL0     H13877   9.402   5.151   1.450 -0.7008  0.6558 -0.0918
  103MOL0     H13878   9.473   5.031   1.557  0.6333 -0.5160  3.4341
  103MOL0     H13879   9.500   5.346   1.580 -1.1674 -1.3983 -4.0146
  103MOL0     H13880   9.580   5.233   1.689 -0.4427  0.4293 -0.4324
  103MOL0     H13881   9.695   5.133   1.479 -0.9171 -0.4657 -4.6276
  103MOL0     H13882   9.734   5.306   1.510  0.4250  0.7737 -0.8935
  103MOL0     H13883   9.543   5.233   1.292 -0.2136 -1.6208  2.2581
  103MOL0     H13884   9.604   5.391   1.346 -1.4229  0.5865 -4.6503
  103MOL0     H13885   8.704   5.009   1.732 -1.3630 -1.1251  1.3890
  103MOL0     H13886   8.499   4.939   1.714  1.4729  1.1093  0.6132
  103MOL0     H13887   8.160   4.782   1.518 -1.3208  0.2959  1.1281
  103MOL0     H13888   7.937   4.744   1.469 -0.3146 -1.0836 -0.7342
  103MOL0     H13889   6.208   5.007   1.943  1.6405 -0.4762 -0.2119
  103MOL0     H13890   5.987   5.131   1.950 -4.6508 -1.4514 -0.7947
  103MOL0     H13891   5.523   4.973   1.992 -0.9435 -0.5895 -0.5553
  103MOL0     H13892   5.276   5.042   1.959  1.8322 -2.5104  0.0793
  103MOL0     H13893   5.140   5.407   2.173  0.2199  0.7957  0.1629
  103MOL0     H13894   5.089   5.234   2.201  1.6628 -1.6353 -2.1373
  103MOL0     H13895   4.943   5.258   2.019  2.0650 -1.1418 -0.3816
  103MOL0     H13896   4.981   5.430   2.006  2.5016  2.3679  1.9819
  103MOL0     H13897   4.910   5.472   2.241  0.5564  2.3723 -1.4881
  103MOL0     H13898   4.842   5.318   2.260  0.2387  0.6410 -0.5150
  103MOL0     H13899   4.655   5.464   2.211 -0.7359  0.5557 -0.2073
  103MOL0     H13900   4.741   5.540   2.068  0.4292 -1.1545 -1.0971
  103MOL0     H13901   4.585   5.223   1.869 -1.7564  0.5073  0.6352
  103MOL0     H13902   5.369   5.407   2.139 -0.4776 -0.3100  0.0699
  103MOL0     H13903   5.560   5.472   2.232  1.4254  1.5967  0.0677
  103MOL0     H13904   5.667   5.337   2.255  2.9851 -0.7045 -2.4766
  103MOL0     H13905   5.688   5.435   2.106 -1.6459  2.2639  0.0632
  104MOL0     O13906   4.903   4.196   7.482  0.3668  0.0295  0.4920
  104MOL0     C13907   4.892   4.247   7.594  0.3119  0.1444  0.4386
  104MOL0     O13908   4.991   4.319   7.656  0.0180 -0.1445  0.0529
  104MOL0     C13909   5.113   4.286   7.623  0.5330  0.5758  0.2403
  104MOL0     C13910   5.168   4.169   7.671 -0.1569  0.0074  0.7029
  104MOL0     C13911   5.305   4.144   7.672 -0.7153 -0.5396  0.3196
  104MOL0     C13912   5.391   4.248   7.618  0.2134 -0.2935 -0.0742
  104MOL0     O13913   5.520   4.240   7.652 -0.9347  0.3511  0.0539
  104MOL0     C13914   5.590   4.211   7.530 -0.2025  0.4997 -0.1345
  104MOL0     C13915   5.744   4.213   7.549  0.1731 -0.7044  0.3007
  104MOL0     C13916   5.786   4.105   7.646 -0.4149  1.8847  0.4059
  104MOL0     C13917   5.926   4.142   7.706  0.3011 -0.1742 -0.1057
  104MOL0     C13918   5.972   4.016   7.771 -0.0520 -0.0954  0.3185
  104MOL0     C13919   6.127   4.011   7.763 -0.0971  0.1700 -0.9788
  104MOL0     C13920   6.165   3.866   7.810 -0.1143 -0.0808  0.5959
  104MOL0     C13921   6.311   3.846   7.815 -0.2267  0.0371 -0.3491
  104MOL0     N13922   6.382   3.870   7.679  0.5589  0.8355  0.4179
  104MOL0     C13923   6.385   3.795   7.567 -0.4577  0.3325 -0.2869
  104MOL0     C13924   6.459   3.860   7.476 -0.2712 -0.2703  0.2418
  104MOL0     C13925   6.502   3.827   7.338  0.3590 -1.2169  0.1205
  104MOL0     C13926   6.636   3.737   7.347  0.1107  0.0830  0.0690
  104MOL0     C13927   6.639   3.642   7.224 -0.0037 -0.4140  0.8319
  104MOL0     C13928   6.762   3.555   7.210 -0.0947  0.0606  0.5421
  104MOL0     O13929   6.877   3.637   7.192 -0.9232 -0.0120 -0.0984
  104MOL0     C13930   6.996   3.576   7.164 -0.9061 -0.6762  0.0069
  104MOL0     C13931   7.014   3.435   7.160  0.1093 -0.0683 -0.1122
  104MOL0     C13932   7.138   3.379   7.125 -0.9353 -0.0355 -0.7142
  104MOL0     C13933   7.253   3.457   7.108  0.3127 -0.4802 -1.1191
  104MOL0     C13934   7.383   3.388   7.094 -0.6606  0.5625 -0.0535
  104MOL0     O13935   7.481   3.479   7.071 -0.2474  0.4646 -0.0173
  104MOL0     C13936   7.603   3.434   7.020  0.4589  0.0425  0.2670
  104MOL0     C13937   7.616   3.376   6.893  0.2899  0.3019 -0.0688
  104MOL0     C13938   7.744   3.322   6.859  0.5854  0.0254  0.9344
  104MOL0     C13939   7.854   3.334   6.937 -0.6349 -0.9682  0.1003
  104MOL0     O13940   7.978   3.275   6.895  0.2980  0.5018 -0.7208
  104MOL0     C13941   8.073   3.254   7.004  0.4062 -0.0690  0.1458
  104MOL0     C13942   8.171   3.150   6.942 -0.4112  0.0208  0.0059
  104MOL0     C13943   8.245   3.067   7.051  1.1491  0.5273  0.1192
  104MOL0     C13944   8.342   3.135   7.133 -0.1703 -0.6801 -0.5812
  104MOL0     C13945   8.410   3.058   7.247 -0.1784  0.3781  0.5966
  104MOL0     C13946   8.539   2.992   7.204 -0.3002  0.4216 -0.4976
  104MOL0     C13947   8.660   3.086   7.189 -0.4673 -0.2529 -0.6497
  104MOL0     C13948   8.781   3.017   7.154  0.7444 -0.2776 -0.1822
  104MOL0    Cl13949   8.779   2.931   6.989 -0.6145 -0.1032  0.2304
  104MOL0     C13950   7.840   3.404   7.056  0.0768 -0.3293  0.1041
  104MOL0     C13951   7.715   3.449   7.095 -0.0226  0.0601 -0.1376
  104MOL0     O13952   7.389   3.264   7.102 -0.6527 -0.1474 -0.1394
  104MOL0     C13953   7.239   3.596   7.122 -0.0215  0.2030  0.4585
  104MOL0     C13954   7.108   3.653   7.143  0.9400 -0.3346 -0.1097
  104MOL0     N13955   6.512   3.976   7.541  0.5618  0.0539 -0.0873
  104MOL0     N13956   6.459   3.984   7.665 -0.4474  0.1629 -1.0133
  104MOL0     C13957   5.334   4.353   7.553 -0.5921  0.7011  1.1182
  104MOL0     C13958   5.196   4.366   7.554  0.9795  0.1040  0.4346
  104MOL0     C13959   4.751   4.237   7.653  0.0114  0.2634  0.9043
  104MOL0     C13960   4.694   4.110   7.661 -0.2756  0.0184  0.2217
  104MOL0     C13961   4.566   4.106   7.718 -0.0659  0.5060 -0.0351
  104MOL0     C13962   4.490   4.220   7.753 -0.0230 -0.0252  0.6359
  104MOL0     O13963   4.365   4.219   7.810 -0.6197 -0.3810  0.4153
  104MOL0     C13964   4.317   4.095   7.858  0.4234  0.0221 -0.0964
  104MOL0     C13965   4.192   4.120   7.939  0.2130  0.0073 -0.1864
  104MOL0     C13966   4.074   4.174   7.860 -0.9903  0.3320 -0.1033
  104MOL0     C13967   4.046   4.318   7.906  0.6949  0.1833  0.4975
  104MOL0     C13968   3.910   4.367   7.855 -0.0065 -0.3252  0.0675
  104MOL0     C13969   3.794   4.401   7.822 -0.6093  1.0981 -0.5626
  104MOL0     C13970   4.546   4.347   7.741  1.1181  0.6500  0.4039
  104MOL0     C13971   4.673   4.355   7.697  0.1941  0.7705  0.1081
  104MOL0     C13972   4.738   4.490   7.703  0.7494  0.1917  0.3108
  104MOL0     H13973   5.091   4.101   7.708 -2.3469  2.9405  1.9693
  104MOL0     H13974   5.348   4.049   7.701  1.0497  0.1120 -0.0425
  104MOL0     H13975   5.567   4.111   7.493  1.0520  0.0996  0.1087
  104MOL0     H13976   5.571   4.286   7.453  2.1755  0.0841 -1.2172
  104MOL0     H13977   5.770   4.315   7.577  2.0876 -0.7798 -1.0144
  104MOL0     H13978   5.790   4.189   7.452  0.5122  0.0619  0.2695
  104MOL0     H13979   5.792   4.014   7.587  1.4049  0.3347  2.8073
  104MOL0     H13980   5.718   4.104   7.732  2.1243 -1.4515  2.6044
  104MOL0     H13981   5.993   4.172   7.625 -2.0163  0.3589 -1.9696
  104MOL0     H13982   5.915   4.231   7.768 -0.8618  0.1492 -0.7316
  104MOL0     H13983   5.947   4.008   7.877  0.0945 -1.6674  0.2457
  104MOL0     H13984   5.937   3.925   7.722  2.5833 -1.5312  0.9379
  104MOL0     H13985   6.168   4.031   7.664  0.9449  1.9176 -0.2504
  104MOL0     H13986   6.165   4.081   7.838 -1.8889 -0.6163  0.7611
  104MOL0     H13987   6.132   3.803   7.727  2.4748 -2.3057  1.0925
  104MOL0     H13988   6.123   3.839   7.907  0.0284 -2.3930  0.0698
  104MOL0     H13989   6.344   3.914   7.893 -4.0872  0.9077  0.7203
  104MOL0     H13990   6.343   3.743   7.834  1.5743  0.0238 -2.8116
  104MOL0     H13991   6.332   3.701   7.555  0.1389 -0.3975  2.2567
  104MOL0     H13992   6.421   3.776   7.285  1.1821 -2.0057 -0.4089
  104MOL0     H13993   6.513   3.922   7.284  0.1864  0.2906  2.5925
  104MOL0     H13994   6.726   3.799   7.340  1.0807 -1.4478 -1.6787
  104MOL0     H13995   6.649   3.675   7.436  1.1898 -1.9642 -1.4396
  104MOL0     H13996   6.640   3.707   7.136 -0.7429 -3.8884 -1.9701
  104MOL0     H13997   6.549   3.580   7.226 -1.2345  1.3101  0.3991
  104MOL0     H13998   6.739   3.494   7.122 -0.5608 -0.5370  1.0634
  104MOL0     H13999   6.765   3.493   7.300 -2.1892  0.7620  1.1445
  104MOL0     H14000   6.932   3.366   7.173 -0.6982  0.9953  0.6233
  104MOL0     H14001   7.149   3.271   7.116  0.8339  0.0796 -0.1748
  104MOL0     H14002   7.528   3.355   6.833  0.5510 -3.3625  0.5713
  104MOL0     H14003   7.751   3.279   6.760 -1.4294  2.5019 -0.4089
  104MOL0     H14004   8.119   3.348   7.037  0.3720  0.7254 -1.9287
  104MOL0     H14005   8.023   3.211   7.091 -3.1996 -0.8510 -2.1269
  104MOL0     H14006   8.097   3.087   6.891  0.4570 -0.9362 -0.1087
  104MOL0     H14007   8.241   3.193   6.869  0.6293 -2.2823 -0.4537
  104MOL0     H14008   8.165   3.025   7.112 -1.0368 -0.1548 -2.9943
  104MOL0     H14009   8.296   2.988   6.994  0.0637  0.3431 -0.6281
  104MOL0     H14010   8.280   3.211   7.182 -0.1684 -0.2534 -1.2231
  104MOL0     H14011   8.404   3.185   7.058 -1.1296 -1.1355 -1.7078
  104MOL0     H14012   8.330   2.996   7.289 -0.7594  0.6310 -0.0997
  104MOL0     H14013   8.431   3.135   7.321 -2.2466 -0.1981  1.8699
  104MOL0     H14014   8.558   2.914   7.278 -1.4385  0.1517 -0.4685
  104MOL0     H14015   8.518   2.941   7.109 -1.6541  2.9304 -1.6303
  104MOL0     H14016   8.671   3.120   7.293 -3.2260 -0.0988 -0.3567
  104MOL0     H14017   8.646   3.176   7.129  0.4441  0.5544  0.2901
  104MOL0     H14018   8.861   3.091   7.145  1.1752 -0.8556 -1.3325
  104MOL0     H14019   8.809   2.951   7.237 -3.1786 -3.9404 -1.3740
  104MOL0     H14020   7.916   3.421   7.131  0.7698  2.9498 -1.1744
  104MOL0     H14021   7.683   3.493   7.189 -1.3669 -2.7085  0.7968
  104MOL0     H14022   7.329   3.657   7.114 -1.4705  2.2955 -0.9544
  104MOL0     H14023   7.105   3.762   7.148 -1.9382 -0.1083 -3.3112
  104MOL0     H14024   5.390   4.443   7.530 -0.2419  0.9680  2.8930
  104MOL0     H14025   5.152   4.460   7.525 -0.9909 -0.8301  0.2216
  104MOL0     H14026   4.756   4.024   7.635  3.0828  2.1699  0.5337
  104MOL0     H14027   4.514   4.011   7.723 -1.0500  1.0214 -0.2546
  104MOL0     H14028   4.389   4.053   7.928  0.6881  0.7148  0.0539
  104MOL0     H14029   4.282   4.025   7.781 -0.9287  0.8585 -0.2902
  104MOL0     H14030   4.221   4.181   8.025  0.6502 -2.0368  1.1643
  104MOL0     H14031   4.162   4.022   7.976 -0.7914  0.3107 -0.1577
  104MOL0     H14032   4.000   4.093   7.864  1.7899 -2.3522  1.0159
  104MOL0     H14033   4.112   4.179   7.758  0.1109  2.8285  0.3589
  104MOL0     H14034   4.048   4.325   8.015  0.8106  1.3488  0.4326
  104MOL0     H14035   4.126   4.383   7.868  0.8684  0.7418  1.7686
  104MOL0     H14036   3.691   4.426   7.802 -1.5729 -1.7338  0.4129
  104MOL0     H14037   4.495   4.422   7.800 -2.3014 -3.0869  2.7351
  104MOL0     H14038   4.817   4.500   7.627 -0.8548 -1.0893 -1.6523
  104MOL0     H14039   4.668   4.571   7.679  0.8731  0.1771 -0.1190
  104MOL0     H14040   4.779   4.501   7.803 -1.5588 -0.4265  1.4042
  105MOL0     O14041   4.699   2.910   2.398 -0.0097  0.5621  0.3612
  105MOL0     C14042   4.702   2.870   2.517  0.2712  0.3396  0.7044
  105MOL0     O14043   4.810   2.848   2.595 -0.1664  0.2485  0.2776
  105MOL0     C14044   4.927   2.886   2.529  0.6930  0.3183 -0.7312
  105MOL0     C14045   4.968   3.018   2.534 -0.5359 -0.0737 -0.6614
  105MOL0     C14046   5.083   3.051   2.459  0.4020 -0.5164 -0.2285
  105MOL0     C14047   5.150   2.960   2.376 -0.0733  0.3733  0.0593
  105MOL0     O14048   5.263   3.004   2.317  0.0337 -0.1995  0.0145
  105MOL0     C14049   5.331   2.910   2.234 -0.2146 -0.6711 -0.3431
  105MOL0     C14050   5.451   2.984   2.173  0.6327 -0.0120 -0.4457
  105MOL0     C14051   5.557   3.012   2.271  0.0036 -0.7603  0.8987
  105MOL0     C14052   5.680   3.077   2.202 -0.3094 -0.0166  0.3346
  105MOL0     C14053   5.782   3.132   2.300  0.6089 -0.9118 -1.0676
  105MOL0     C14054   5.899   3.201   2.231  0.2461  0.9251 -0.2661
  105MOL0     C14055   5.997   3.265   2.335  0.0484  0.1895  0.6258
  105MOL0     C14056   6.069   3.376   2.261 -0.1276 -0.1047 -0.3663
  105MOL0     N14057   6.194   3.430   2.326  0.5475  0.5130  0.0415
  105MOL0     C14058   6.244   3.389   2.450  1.5217 -0.1298 -0.0375
  105MOL0     C14059   6.347   3.473   2.477 -0.1769  0.0265 -0.4215
  105MOL0     C14060   6.441   3.461   2.599  0.2505  0.2295  0.1091
  105MOL0     C14061   6.556   3.356   2.575 -0.4582  0.3097 -0.4065
  105MOL0     C14062   6.522   3.230   2.639 -0.1171  0.5108  0.5154
  105MOL0     C14063   6.620   3.120   2.596  0.2284  0.1636 -0.3138
  105MOL0     O14064   6.753   3.140   2.640 -0.2675  0.1442  0.2037
  105MOL0     C14065   6.841   3.042   2.608  0.2473 -0.1054 -0.2343
  105MOL0     C14066   6.809   2.932   2.525 -0.3829  0.1780  0.7815
  105MOL0     C14067   6.907   2.840   2.475  0.0585  0.7293 -0.3753
  105MOL0     C14068   7.037   2.839   2.535 -0.4687  0.2670  0.7564
  105MOL0     C14069   7.135   2.734   2.507  0.2071  0.1735  0.5653
  105MOL0     O14070   7.249   2.739   2.587  0.1969  0.0229  0.8050
  105MOL0     C14071   7.355   2.654   2.548 -0.0129 -0.6045  1.2362
  105MOL0     C14072   7.360   2.534   2.482  0.6938 -0.0030 -0.3243
  105MOL0     C14073   7.475   2.465   2.459 -0.3870  0.0268 -0.3633
  105MOL0     C14074   7.591   2.510   2.516  0.0500  0.0636 -0.2708
  105MOL0     O14075   7.704   2.428   2.526 -0.1771  0.2801  0.0485
  105MOL0     C14076   7.826   2.503   2.519 -0.6820 -0.5880  0.3672
  105MOL0     C14077   7.955   2.426   2.478 -0.7453 -0.1102 -1.0922
  105MOL0     C14078   7.948   2.361   2.334  0.7317  0.1726  0.1186
  105MOL0     C14079   8.085   2.290   2.302  0.0609 -0.4754 -0.6692
  105MOL0     C14080   8.168   2.389   2.218 -0.6204 -0.9562  0.5965
  105MOL0     C14081   8.300   2.325   2.188 -0.5287 -0.3673 -0.2691
  105MOL0     C14082   8.404   2.412   2.128 -0.6575 -1.5494 -0.3579
  105MOL0     C14083   8.551   2.368   2.157  0.3109 -0.0537 -1.0290
  105MOL0    Cl14084   8.660   2.472   2.060  0.1662  0.1953  0.5858
  105MOL0     C14085   7.600   2.640   2.577  0.4130 -0.0264 -0.0587
  105MOL0     C14086   7.481   2.710   2.580 -0.7509  0.4871  0.9997
  105MOL0     O14087   7.111   2.662   2.408 -0.6877  0.3490  0.5422
  105MOL0     C14088   7.064   2.937   2.631 -0.2919 -0.6912  0.9851
  105MOL0     C14089   6.969   3.036   2.664  0.3247 -0.7468  0.3838
  105MOL0     N14090   6.366   3.558   2.372  0.0421  0.3513  1.1747
  105MOL0     N14091   6.263   3.538   2.288 -0.4354  0.1893 -0.1368
  105MOL0     C14092   5.120   2.826   2.389  0.5739  0.5575  0.3145
  105MOL0     C14093   4.997   2.787   2.455 -0.3012  0.5406 -0.0260
  105MOL0     C14094   4.578   2.853   2.596 -0.4235 -0.2214  0.0161
  105MOL0     C14095   4.580   2.810   2.737  0.4758 -0.1421  0.7456
  105MOL0     C14096   4.460   2.773   2.805 -0.2778  0.2044  1.4133
  105MOL0     C14097   4.335   2.779   2.740  0.1096  0.1741 -0.8784
  105MOL0     O14098   4.213   2.756   2.794  0.4921  0.0630  1.0257
  105MOL0     C14099   4.191   2.838   2.908 -0.3458  0.2081 -0.0156
  105MOL0     C14100   4.040   2.835   2.930 -0.3274  0.5015  0.0122
  105MOL0     C14101   4.015   2.717   3.025 -0.2450 -0.7136 -0.1703
  105MOL0     C14102   4.015   2.755   3.176  0.5137 -0.5086  0.2609
  105MOL0     C14103   3.998   2.632   3.254 -0.6249 -1.0552 -0.4217
  105MOL0     C14104   3.990   2.531   3.314 -0.2499 -0.4167  0.3650
  105MOL0     C14105   4.336   2.811   2.605 -0.0825  0.3553 -0.5811
  105MOL0     C14106   4.451   2.842   2.532 -0.6131 -0.1467 -0.6252
  105MOL0     C14107   4.431   2.848   2.381  0.1916  0.4032 -0.0911
  105MOL0     H14108   4.925   3.096   2.596  1.0779  1.0689 -0.9114
  105MOL0     H14109   5.108   3.156   2.456  1.8236 -0.8573 -1.7423
  105MOL0     H14110   5.365   2.818   2.283 -2.6810 -0.4663  2.0375
  105MOL0     H14111   5.258   2.878   2.159 -0.8669  1.4984 -0.6984
  105MOL0     H14112   5.412   3.083   2.148  1.4701  0.2766 -0.6467
  105MOL0     H14113   5.480   2.930   2.082  3.3200 -0.4779  0.5865
  105MOL0     H14114   5.592   2.916   2.310  2.5008  0.6812  2.5589
  105MOL0     H14115   5.513   3.074   2.350 -3.7910 -2.2976  0.1998
  105MOL0     H14116   5.735   3.002   2.144  0.0219 -1.2286  2.1154
  105MOL0     H14117   5.653   3.160   2.137  0.8944  0.5304  0.5098
  105MOL0     H14118   5.734   3.209   2.361  2.4727 -0.0632 -0.6326
  105MOL0     H14119   5.824   3.062   2.372 -0.3752  1.6996  2.3136
  105MOL0     H14120   5.940   3.118   2.172 -1.9321 -0.9625  0.6975
  105MOL0     H14121   5.868   3.280   2.162  0.9552  0.8704 -0.6594
  105MOL0     H14122   6.064   3.187   2.374  0.8304 -0.5002 -1.9023
  105MOL0     H14123   5.942   3.305   2.420 -0.1275  0.7030  0.2734
  105MOL0     H14124   6.099   3.347   2.159 -3.2529  0.4597 -1.5656
  105MOL0     H14125   6.005   3.463   2.241  2.2377  1.4840 -1.4951
  105MOL0     H14126   6.210   3.307   2.512 -1.1150  0.7122 -0.2457
  105MOL0     H14127   6.489   3.559   2.607  0.0443  0.4088 -0.7255
  105MOL0     H14128   6.381   3.446   2.690  0.8073 -1.4373  0.2319
  105MOL0     H14129   6.566   3.342   2.467 -1.1906  0.1022 -0.4514
  105MOL0     H14130   6.654   3.393   2.605 -0.9811  2.1595 -0.8362
  105MOL0     H14131   6.422   3.203   2.604  0.1764  0.0869 -0.0203
  105MOL0     H14132   6.519   3.243   2.747  3.0504  0.4343  0.7112
  105MOL0     H14133   6.618   3.110   2.487 -0.4471  0.6159 -0.3541
  105MOL0     H14134   6.589   3.021   2.631  0.7781  0.2875  0.5367
  105MOL0     H14135   6.708   2.914   2.489 -0.2817  0.4317  0.3646
  105MOL0     H14136   6.881   2.765   2.401  1.2312 -0.9793  0.8907
  105MOL0     H14137   7.270   2.476   2.460  2.6376 -2.0786 -3.9443
  105MOL0     H14138   7.474   2.362   2.424 -2.1301  0.8836 -3.1488
  105MOL0     H14139   7.817   2.573   2.436  2.2023  1.9787  2.0166
  105MOL0     H14140   7.849   2.553   2.613  0.5877  0.7407 -0.6199
  105MOL0     H14141   8.045   2.487   2.486 -0.4015 -0.7914  0.6007
  105MOL0     H14142   7.977   2.343   2.545  2.8674  1.1934 -0.4591
  105MOL0     H14143   7.873   2.282   2.326 -2.1077  2.7355 -0.9363
  105MOL0     H14144   7.921   2.442   2.266  1.5629  0.7049  0.4046
  105MOL0     H14145   8.065   2.202   2.241 -3.1465 -0.8571  0.7530
  105MOL0     H14146   8.143   2.265   2.392  0.5004 -2.0661 -1.3614
  105MOL0     H14147   8.192   2.478   2.277  0.7805 -0.0160 -1.2645
  105MOL0     H14148   8.123   2.404   2.119  0.0942 -1.3129  0.2094
  105MOL0     H14149   8.342   2.285   2.281  0.4827 -0.1929 -0.6393
  105MOL0     H14150   8.284   2.235   2.128  1.4844 -0.3426 -0.9269
  105MOL0     H14151   8.389   2.516   2.161  0.5425 -1.3015 -0.5746
  105MOL0     H14152   8.402   2.409   2.019  1.1267  0.6320 -0.5132
  105MOL0     H14153   8.577   2.376   2.263  1.4071  1.7197 -1.3978
  105MOL0     H14154   8.570   2.261   2.141 -0.9382 -0.5138  0.3846
  105MOL0     H14155   7.689   2.683   2.622  0.9107  0.4089 -1.3944
  105MOL0     H14156   7.490   2.810   2.619 -1.4818  0.6091  0.8795
  105MOL0     H14157   7.160   2.952   2.681  0.7518  2.3934 -1.6422
  105MOL0     H14158   7.000   3.115   2.731 -1.7842 -0.1543  0.7214
  105MOL0     H14159   5.184   2.747   2.349 -2.0127  0.6225 -4.8524
  105MOL0     H14160   4.972   2.681   2.454  1.8222  0.0022 -0.7588
  105MOL0     H14161   4.674   2.818   2.791  1.7240  0.2206 -1.3723
  105MOL0     H14162   4.469   2.739   2.908 -2.1121  0.1585  1.5838
  105MOL0     H14163   4.216   2.944   2.897 -0.6114  0.3317  0.5584
  105MOL0     H14164   4.247   2.801   2.994  0.3084 -1.0594 -0.9508
  105MOL0     H14165   3.972   2.823   2.846 -0.3075  0.0450  0.0548
  105MOL0     H14166   4.015   2.930   2.978  3.0627  0.7049  1.6730
  105MOL0     H14167   4.096   2.644   3.016  0.7965  0.2330  1.1647
  105MOL0     H14168   3.919   2.668   3.007  1.0912 -3.2917 -0.7533
  105MOL0     H14169   4.114   2.796   3.198  0.5330 -0.3247 -0.1515
  105MOL0     H14170   3.940   2.830   3.200 -1.4878 -2.8683  1.8984
  105MOL0     H14171   3.983   2.434   3.358  1.7368 -0.5617  0.4355
  105MOL0     H14172   4.244   2.810   2.548  1.3829 -0.8166 -3.0971
  105MOL0     H14173   4.331   2.828   2.341  1.4191 -2.2320 -2.1087
  105MOL0     H14174   4.465   2.944   2.341 -1.4245  1.8732  1.8375
  105MOL0     H14175   4.493   2.776   2.328 -2.3299 -2.0190  0.0267
  106MOL0     O14176   0.440   8.786  10.617 -0.3375 -0.1385  0.1121
  106MOL0     C14177   0.411   8.778  10.737  0.2766  0.6540 -0.5686
  106MOL0     O14178   0.454   8.867  10.839 -0.0482  0.2648  0.1725
  106MOL0     C14179   0.567   8.935  10.819  0.7689 -0.3776 -0.1448
  106MOL0     C14180   0.670   8.911  10.911  0.4193 -0.3647 -0.3377
  106MOL0     C14181   0.782   8.989  10.905 -0.1626 -0.4330 -0.2316
  106MOL0     C14182   0.793   9.094  10.813 -1.0736 -0.7778 -0.3699
  106MOL0     O14183   0.906   9.164  10.811  0.7103 -0.5110  0.0024
  106MOL0     C14184   0.984   9.149  10.688 -0.1981  0.3022  0.5901
  106MOL0     C14185   0.984   9.269  10.588 -0.4059 -0.4369 -0.5052
  106MOL0     C14186   1.055   9.389  10.662 -0.2443 -0.0956  0.3707
  106MOL0     C14187   1.108   9.488  10.562 -0.5063  0.9693 -0.2229
  106MOL0     C14188   1.195   9.588  10.635  0.0798  0.0966  0.3557
  106MOL0     C14189   1.252   9.688  10.534  0.2275  0.6000  0.4910
  106MOL0     C14190   1.310   9.634  10.397  0.3785 -0.0103 -0.6955
  106MOL0     C14191   1.452   9.579  10.420 -0.2083  0.6283  0.7773
  106MOL0     N14192   1.545   9.685  10.455 -0.4420 -0.1640  0.7422
  106MOL0     C14193   1.612   9.762  10.367  0.0429 -0.3207  0.4673
  106MOL0     C14194   1.704   9.823  10.443  0.0411 -0.1346  0.3123
  106MOL0     C14195   1.812   9.929  10.388  0.6260  0.1278  0.4518
  106MOL0     C14196   1.746  10.074  10.392 -0.4938 -0.1153 -0.1436
  106MOL0     C14197   1.844  10.186  10.427  0.5266  0.1713 -0.0348
  106MOL0     C14198   1.862  10.213  10.582 -0.1380  0.3003  0.4482
  106MOL0     O14199   1.965  10.312  10.582 -0.1620  0.0547  0.2990
  106MOL0     C14200   2.091  10.277  10.627  0.5967 -0.0545  0.3677
  106MOL0     C14201   2.150  10.148  10.609 -0.1852 -0.6651  0.4853
  106MOL0     C14202   2.281  10.116  10.640 -0.7203  0.2688 -0.3539
  106MOL0     C14203   2.367  10.223  10.674 -0.0635 -0.2365 -0.4856
  106MOL0     C14204   2.514  10.196  10.701 -0.3995 -0.0425 -0.0714
  106MOL0     O14205   2.577  10.290  10.770  0.3911 -0.2011  0.0950
  106MOL0     C14206   2.712  10.291  10.780 -0.1826 -0.3581 -0.0964
  106MOL0     C14207   2.800  10.213  10.693 -0.1869 -0.5361  0.2702
  106MOL0     C14208   2.938  10.217  10.708 -0.5627 -0.1651 -0.4011
  106MOL0     C14209   3.000  10.295  10.810 -1.0453 -0.5142  0.4231
  106MOL0     O14210   3.137  10.300  10.813  0.6227 -0.0102  0.3910
  106MOL0     C14211   3.213  10.402  10.879  0.2785  0.2190  0.6192
  106MOL0     C14212   3.365  10.390  10.883  0.0076  0.4046  0.1905
  106MOL0     C14213   3.415  10.282  10.977  0.1924 -0.5615  0.6639
  106MOL0     C14214   3.557  10.319  11.023  0.2997 -0.9417 -0.6867
  106MOL0     C14215   3.616  10.206  11.117 -0.5722  0.3607 -0.4714
  106MOL0     C14216   3.753  10.237  11.177  0.7744 -0.3923 -0.0928
  106MOL0     C14217   3.814  10.102  11.208  0.6821 -1.2910  0.1269
  106MOL0     C14218   3.947  10.118  11.293  0.7974  0.0544  0.3780
  106MOL0    Cl14219   4.082  10.212  11.237  0.0767  0.2997  0.4713
  106MOL0     C14220   2.919  10.362  10.906 -0.2398  0.5172  0.7904
  106MOL0     C14221   2.774  10.365  10.891  0.0177  1.0837  0.0767
  106MOL0     O14222   2.559  10.087  10.673 -0.6096 -0.0066  0.1926
  106MOL0     C14223   2.311  10.347  10.695 -0.3521 -0.0217 -0.2023
  106MOL0     C14224   2.176  10.377  10.674 -0.2581  0.3272  0.1801
  106MOL0     N14225   1.698   9.783  10.571  0.0430  0.5087 -0.7923
  106MOL0     N14226   1.611   9.688  10.572 -0.5851  0.3642  0.1370
  106MOL0     C14227   0.686   9.126  10.735  0.2909 -0.2314 -0.5091
  106MOL0     C14228   0.577   9.037  10.727  0.5466 -0.1585 -0.2646
  106MOL0     C14229   0.320   8.661  10.777  0.6042 -0.1473  0.4233
  106MOL0     C14230   0.310   8.556  10.691  0.2190 -0.6284 -0.0851
  106MOL0     C14231   0.252   8.432  10.731 -0.7287 -0.4787 -0.0104
  106MOL0     C14232   0.176   8.424  10.847 -1.0455  0.0233  0.5492
  106MOL0     O14233   0.089   8.323  10.867 -0.1555 -0.3015 -0.3019
  106MOL0     C14234  -0.016   8.315  10.772  0.0596  0.1174  0.4322
  106MOL0     C14235  -0.112   8.212  10.844 -0.4043  0.0852 -0.7372
  106MOL0     C14236  -0.237   8.183  10.765 -0.7467 -0.0089 -0.7091
  106MOL0     C14237  -0.344   8.104  10.842  0.4181 -0.1994 -0.8604
  106MOL0     C14238  -0.474   8.104  10.772 -0.2936  0.4412 -0.2863
  106MOL0     C14239  -0.584   8.101  10.728 -0.2657 -0.9229 -0.1146
  106MOL0     C14240   0.182   8.537  10.940 -0.7637 -0.3401  0.3066
  106MOL0     C14241   0.261   8.648  10.909  0.5103 -0.2430  0.2716
  106MOL0     C14242   0.281   8.741  11.023 -1.0145 -0.3115  0.4344
  106MOL0     H14243   0.667   8.825  10.976  1.8892  0.1155  0.3874
  106MOL0     H14244   0.860   8.963  10.976 -1.2238 -0.7034  0.8803
  106MOL0     H14245   1.081   9.124  10.732 -0.4010  1.7817  1.9848
  106MOL0     H14246   0.955   9.061  10.629 -0.5396  0.2242  0.8676
  106MOL0     H14247   0.880   9.293  10.565 -1.2045 -1.1477  1.9996
  106MOL0     H14248   1.028   9.246  10.491 -1.6315  2.9467 -2.0141
  106MOL0     H14249   1.134   9.347  10.724  0.7220 -1.7912 -1.8975
  106MOL0     H14250   0.980   9.428  10.733 -1.5888  1.3314 -1.7324
  106MOL0     H14251   1.166   9.426  10.493 -0.3648 -0.1763  0.9022
  106MOL0     H14252   1.038   9.543  10.498  1.5612  3.1841 -0.7450
  106MOL0     H14253   1.145   9.638  10.719  2.0347  0.6725  1.2388
  106MOL0     H14254   1.269   9.533  10.694 -1.1274  0.8178  2.6644
  106MOL0     H14255   1.168   9.756  10.518 -2.1487 -1.4705  3.1980
  106MOL0     H14256   1.331   9.749  10.579 -0.9808  1.0885  2.0062
  106MOL0     H14257   1.313   9.715  10.324 -1.1292  1.1388  0.4604
  106MOL0     H14258   1.246   9.555  10.357  0.9028 -2.3885  2.7225
  106MOL0     H14259   1.445   9.512  10.506  0.5683  0.9711  1.1246
  106MOL0     H14260   1.490   9.530  10.330 -2.9566  0.1170 -0.1793
  106MOL0     H14261   1.592   9.778  10.262 -3.2742  1.2145  1.2156
  106MOL0     H14262   1.895   9.932  10.460 -0.5512  2.5844  1.8301
  106MOL0     H14263   1.851   9.890  10.294  1.5398 -0.5225  1.0833
  106MOL0     H14264   1.693  10.093  10.298  0.5574 -0.5903 -0.8405
  106MOL0     H14265   1.667  10.072  10.468 -0.9418 -0.1648 -0.6071
  106MOL0     H14266   1.789  10.273  10.390 -0.9157 -1.0777 -0.9987
  106MOL0     H14267   1.944  10.179  10.384  0.2140  1.7287 -1.1006
  106MOL0     H14268   1.890  10.129  10.646  1.6657  1.9935  2.0351
  106MOL0     H14269   1.780  10.266  10.632 -1.6894 -1.1050 -0.5188
  106MOL0     H14270   2.084  10.068  10.574  2.9620 -2.9517 -0.7171
  106MOL0     H14271   2.311  10.013  10.627  1.6833  0.8915 -0.1715
  106MOL0     H14272   2.763  10.154  10.609  1.9746 -2.1701  0.3953
  106MOL0     H14273   3.000  10.175  10.630 -0.5250  2.9006 -2.1798
  106MOL0     H14274   3.185  10.502  10.846 -1.0802  0.1598  1.4836
  106MOL0     H14275   3.178  10.404  10.983 -1.9178  0.4796 -0.0722
  106MOL0     H14276   3.412  10.370  10.787 -1.6976 -1.6119 -0.2847
  106MOL0     H14277   3.394  10.490  10.919 -3.0072  1.3806  0.1472
  106MOL0     H14278   3.356  10.279  11.069  0.8467  0.8176  1.1506
  106MOL0     H14279   3.419  10.189  10.920  0.4808  0.5014 -1.1127
  106MOL0     H14280   3.559  10.410  11.083 -0.9166 -1.3097 -0.0633
  106MOL0     H14281   3.615  10.340  10.933 -2.7401  0.2577 -2.4977
  106MOL0     H14282   3.614  10.125  11.044 -1.7297  1.3602 -1.6155
  106MOL0     H14283   3.552  10.172  11.198  0.1657 -0.2998 -0.1563
  106MOL0     H14284   3.820  10.281  11.103  1.8194  0.7478  1.4770
  106MOL0     H14285   3.755  10.296  11.269  0.3880 -2.0132  0.9958
  106MOL0     H14286   3.828  10.034  11.123  3.2029 -0.9720  0.2117
  106MOL0     H14287   3.743  10.031  11.253  0.8196 -4.1145 -3.5912
  106MOL0     H14288   3.907  10.172  11.380  1.1846  1.0150 -0.0334
  106MOL0     H14289   3.982  10.021  11.332 -0.5906 -0.8203 -0.4740
  106MOL0     H14290   2.973  10.416  10.983 -0.1754 -0.8259  1.7180
  106MOL0     H14291   2.719  10.421  10.966  1.7418 -0.3922  2.5617
  106MOL0     H14292   2.391  10.419  10.708 -0.3871  0.1728 -1.0041
  106MOL0     H14293   2.130  10.475  10.688  1.8621  1.7079 -1.7667
  106MOL0     H14294   0.698   9.207  10.664 -1.2279 -0.9736 -1.6686
  106MOL0     H14295   0.493   9.046  10.659  1.6240  0.5402 -1.5437
  106MOL0     H14296   0.353   8.550  10.592  2.4587  0.8759  0.7226
  106MOL0     H14297   0.275   8.345  10.670 -1.1984 -1.3591  1.0329
  106MOL0     H14298   0.013   8.273  10.676 -0.6168  0.4791  0.0632
  106MOL0     H14299  -0.076   8.405  10.756  0.5014  0.0938 -1.5247
  106MOL0     H14300  -0.152   8.252  10.938  1.7775  1.1106 -0.1964
  106MOL0     H14301  -0.046   8.128  10.864  0.7795  1.9700  5.0867
  106MOL0     H14302  -0.207   8.142  10.668  0.5740 -0.2571 -0.2137
  106MOL0     H14303  -0.282   8.283  10.759  0.9255  0.8242  0.0359
  106MOL0     H14304  -0.307   8.002  10.856  0.5752 -0.0670 -0.2620
  106MOL0     H14305  -0.354   8.155  10.939  0.2620 -0.8904 -0.5105
  106MOL0     H14306  -0.678   8.117  10.680  0.2089  2.3918 -0.1867
  106MOL0     H14307   0.128   8.520  11.033  0.0201 -0.2497  0.7825
  106MOL0     H14308   0.272   8.844  10.990  3.0365 -0.5788 -2.1355
  106MOL0     H14309   0.210   8.728  11.106  0.7169  1.8433  2.3913
  106MOL0     H14310   0.381   8.735  11.068  0.3650 -0.5844 -2.4561
  107MOL0     O14311   4.621   0.637  11.246 -0.5333  1.2163  0.4055
  107MOL0     C14312   4.568   0.532  11.192 -0.1461  0.0361 -0.4734
  107MOL0     O14313   4.643   0.437  11.134 -0.2615 -0.5120  0.0808
  107MOL0     C14314   4.778   0.439  11.146 -0.2297  1.2402  0.2397
  107MOL0     C14315   4.841   0.360  11.235 -0.6191  0.4987  0.6207
  107MOL0     C14316   4.982   0.355  11.235  0.4204  0.0210  0.8279
  107MOL0     C14317   5.057   0.432  11.146  0.5309 -0.6874  0.6939
  107MOL0     O14318   5.194   0.446  11.157 -0.1409 -0.5274 -0.0957
  107MOL0     C14319   5.231   0.552  11.247  0.8191  0.2836 -0.2819
  107MOL0     C14320   5.381   0.582  11.247  0.3372  0.6881 -0.4010
  107MOL0     C14321   5.439   0.659  11.374  0.1328  0.3732  0.5031
  107MOL0     C14322   5.393   0.802  11.378 -0.3751 -0.6204 -0.2921
  107MOL0     C14323   5.398   0.848  11.524  0.1183  1.1727  0.2569
  107MOL0     C14324   5.363   0.992  11.548 -0.4856  0.8236  0.2949
  107MOL0     C14325   5.367   1.024  11.702 -0.2184 -0.2631  0.6372
  107MOL0     C14326   5.258   0.956  11.780 -0.4087  0.9560  0.2508
  107MOL0     N14327   5.250   1.002  11.916 -0.2044  0.5384 -0.1304
  107MOL0     C14328   5.334   0.959  12.015  0.4272  0.1286 -0.6208
  107MOL0     C14329   5.300   1.044  12.112  0.2617  0.5797 -0.8777
  107MOL0     C14330   5.366   1.069  12.249 -0.3956 -0.0537  0.0902
  107MOL0     C14331   5.472   1.181  12.229 -0.4258 -0.0778  0.3261
  107MOL0     C14332   5.511   1.250  12.354 -0.3628 -0.9512  0.1325
  107MOL0     C14333   5.651   1.319  12.349  0.0993  0.1331 -0.1493
  107MOL0     O14334   5.749   1.213  12.369 -0.0839  0.1454 -0.1245
  107MOL0     C14335   5.879   1.254  12.369 -0.3557  0.1383 -0.9146
  107MOL0     C14336   5.976   1.156  12.388  0.3239  0.0541 -1.1253
  107MOL0     C14337   6.108   1.198  12.393 -0.5940  0.0461  0.1187
  107MOL0     C14338   6.153   1.331  12.377  0.0750 -0.4980 -0.6577
  107MOL0     C14339   6.300   1.374  12.370  0.5207 -0.0567  0.2093
  107MOL0     O14340   6.400   1.293  12.424 -0.7397 -0.1320 -0.6349
  107MOL0     C14341   6.531   1.336  12.416  0.1895 -0.2842 -0.5270
  107MOL0     C14342   6.583   1.405  12.526  0.5811 -0.3027  0.1995
  107MOL0     C14343   6.710   1.458  12.521 -0.4273 -0.5162  0.7904
  107MOL0     C14344   6.799   1.422  12.408  0.7215 -0.0104 -0.8066
  107MOL0     O14345   6.927   1.457  12.395 -0.2905  0.1104 -0.6349
  107MOL0     C14346   7.003   1.481  12.512 -0.8426 -0.2881 -0.4605
  107MOL0     C14347   7.146   1.484  12.470  0.5650 -0.2102 -0.8964
  107MOL0     C14348   7.237   1.442  12.580  0.7045 -0.4878 -0.5017
  107MOL0     C14349   7.379   1.455  12.522 -0.0847  0.3973  0.3740
  107MOL0     C14350   7.474   1.423  12.640 -0.0074  0.7465  0.5493
  107MOL0     C14351   7.617   1.450  12.584  0.2871  0.3746  0.2248
  107MOL0     C14352   7.712   1.365  12.663  0.8113  0.0586  0.5727
  107MOL0     C14353   7.856   1.365  12.607 -0.2642  0.0715  0.9246
  107MOL0    Cl14354   7.842   1.301  12.440  0.0073 -0.1754  0.1619
  107MOL0     C14355   6.749   1.343  12.307 -0.2117 -0.3805  0.6076
  107MOL0     C14356   6.617   1.305  12.313  0.2110 -1.0688 -0.1165
  107MOL0     O14357   6.319   1.480  12.304  0.2317 -0.6398  0.1003
  107MOL0     C14358   6.054   1.425  12.363  0.5830  0.8229 -0.3359
  107MOL0     C14359   5.919   1.392  12.355 -0.2655  0.7406  0.5755
  107MOL0     N14360   5.205   1.136  12.076 -0.1085 -0.0458 -0.1696
  107MOL0     N14361   5.170   1.110  11.956 -0.1436  1.2940 -0.5113
  107MOL0     C14362   4.991   0.503  11.053  0.1313  1.0260  0.9036
  107MOL0     C14363   4.851   0.515  11.053  0.2044 -0.6167 -0.3991
  107MOL0     C14364   4.419   0.509  11.191  0.1693 -0.5592 -0.6629
  107MOL0     C14365   4.336   0.570  11.285 -0.1562 -0.4353 -0.0898
  107MOL0     C14366   4.202   0.546  11.306  0.9478  0.1146 -0.2869
  107MOL0     C14367   4.133   0.479  11.200 -0.1032 -1.3506 -0.3306
  107MOL0     O14368   4.007   0.448  11.202  0.5935  0.2951 -0.0337
  107MOL0     C14369   3.928   0.481  11.321 -1.4234 -0.1041  0.6025
  107MOL0     C14370   3.784   0.445  11.288  1.3867  0.1496 -0.2449
  107MOL0     C14371   3.748   0.305  11.242  0.0504  0.2191 -0.8031
  107MOL0     C14372   3.601   0.309  11.183  0.5847  0.9403  0.5190
  107MOL0     C14373   3.503   0.313  11.292  0.7009 -0.0932 -0.1877
  107MOL0     C14374   3.412   0.304  11.371  0.8786 -1.2479  0.0521
  107MOL0     C14375   4.215   0.424  11.098 -0.3760 -0.0440 -0.2874
  107MOL0     C14376   4.357   0.428  11.088 -0.2807 -0.6173 -0.5477
  107MOL0     C14377   4.434   0.363  10.968  0.2990 -0.6364 -0.6559
  107MOL0     H14378   4.781   0.299  11.301  0.5356  0.1965  1.4304
  107MOL0     H14379   5.036   0.299  11.312  0.2708  0.9552  1.6403
  107MOL0     H14380   5.187   0.649  11.220  2.0059  0.6273 -1.0829
  107MOL0     H14381   5.197   0.512  11.343 -0.5860  0.3782 -0.7102
  107MOL0     H14382   5.405   0.643  11.159  0.5031  0.5496 -0.4528
  107MOL0     H14383   5.433   0.486  11.246 -2.6328 -1.3922  4.5713
  107MOL0     H14384   5.549   0.663  11.374  0.1608  1.8052 -1.6210
  107MOL0     H14385   5.418   0.601  11.464 -0.9935  0.0979  0.0705
  107MOL0     H14386   5.458   0.864  11.316 -1.1743  1.0297  0.4633
  107MOL0     H14387   5.293   0.812  11.334  0.2565 -1.5358 -2.0140
  107MOL0     H14388   5.314   0.793  11.566 -0.4581  2.7666  1.2985
  107MOL0     H14389   5.495   0.828  11.569  0.2937 -0.9897 -0.9653
  107MOL0     H14390   5.439   1.052  11.497  0.5320 -0.5656  0.1439
  107MOL0     H14391   5.273   1.019  11.492 -0.3843  1.3317  0.3662
  107MOL0     H14392   5.364   1.133  11.713  1.0097 -0.2504  0.9867
  107MOL0     H14393   5.467   1.000  11.737  1.0798  1.2938 -1.7028
  107MOL0     H14394   5.158   0.968  11.737 -1.1949 -1.6075  1.1981
  107MOL0     H14395   5.289   0.851  11.776  1.9864  1.6262 -0.2189
  107MOL0     H14396   5.406   0.878  12.012  0.4599  0.1172  0.1950
  107MOL0     H14397   5.289   1.115  12.310  0.3563  2.1517 -0.4998
  107MOL0     H14398   5.412   0.981  12.293  0.2390  0.5181  0.6019
  107MOL0     H14399   5.566   1.143  12.189  0.2722  1.5105  0.4207
  107MOL0     H14400   5.440   1.247  12.148  0.5860 -0.1087 -0.1032
  107MOL0     H14401   5.513   1.172  12.431  1.7930 -2.2493 -1.0966
  107MOL0     H14402   5.441   1.329  12.381  1.2298  0.5758 -0.0301
  107MOL0     H14403   5.657   1.402  12.420 -3.1461 -0.8523  1.4725
  107MOL0     H14404   5.667   1.357  12.248 -1.0787 -0.6705 -0.6529
  107MOL0     H14405   5.942   1.054  12.401 -0.1674  0.0024 -2.6353
  107MOL0     H14406   6.180   1.117  12.403 -2.7987 -2.0623 -0.2433
  107MOL0     H14407   6.531   1.416  12.621  0.2105 -1.5670  0.1572
  107MOL0     H14408   6.739   1.523  12.603 -0.5835 -1.0937  1.2994
  107MOL0     H14409   6.967   1.571  12.564  1.9413  0.7431 -0.1407
  107MOL0     H14410   6.979   1.395  12.574 -0.5344  1.1810  1.8335
  107MOL0     H14411   7.154   1.420  12.382 -2.1980  1.5159 -2.5499
  107MOL0     H14412   7.173   1.584  12.435 -2.9496  0.9274 -0.6823
  107MOL0     H14413   7.218   1.513  12.660  0.2578  2.0675 -2.7419
  107MOL0     H14414   7.218   1.341  12.618 -3.9857 -0.1751 -1.3552
  107MOL0     H14415   7.394   1.557  12.486 -0.1138  0.4801  0.5967
  107MOL0     H14416   7.395   1.381  12.443 -0.9444  0.3947  0.1961
  107MOL0     H14417   7.454   1.320  12.672 -2.8199  0.6712 -1.1400
  107MOL0     H14418   7.458   1.484  12.730 -0.5387 -0.8985  1.6239
  107MOL0     H14419   7.614   1.420  12.479 -2.4176  0.2011  0.2641
  107MOL0     H14420   7.630   1.556  12.609 -0.6168  0.6540 -0.4308
  107MOL0     H14421   7.680   1.261  12.660  1.3901 -0.1227  0.4186
  107MOL0     H14422   7.710   1.411  12.762  0.8563  2.2442 -0.3701
  107MOL0     H14423   7.905   1.462  12.599  0.2914 -0.3646 -2.4906
  107MOL0     H14424   7.917   1.299  12.670 -1.1727 -1.1199  0.5843
  107MOL0     H14425   6.817   1.304  12.231 -1.7400 -0.8204 -0.5684
  107MOL0     H14426   6.569   1.247  12.235 -0.2198  0.8646 -1.3675
  107MOL0     H14427   6.074   1.529  12.339  0.1773  0.5642 -1.8847
  107MOL0     H14428   5.847   1.471  12.338 -0.5528  0.0519 -1.7940
  107MOL0     H14429   5.055   0.567  10.992 -1.2385  1.7915  0.2139
  107MOL0     H14430   4.804   0.580  10.980 -1.5556 -1.0949  0.2608
  107MOL0     H14431   4.383   0.645  11.348 -1.3727  0.0062  0.3374
  107MOL0     H14432   4.147   0.588  11.390  1.3654  2.6600 -1.2035
  107MOL0     H14433   3.922   0.590  11.322 -2.8791  0.0467 -3.8431
  107MOL0     H14434   3.967   0.432  11.411  1.1313 -0.1682 -0.4609
  107MOL0     H14435   3.754   0.514  11.209 -2.2667 -0.9587 -0.0206
  107MOL0     H14436   3.730   0.470  11.380 -1.4157  2.7848 -2.4025
  107MOL0     H14437   3.752   0.243  11.332 -0.9652 -1.0660 -1.6084
  107MOL0     H14438   3.823   0.267  11.171 -0.1086 -0.4761 -0.6092
  107MOL0     H14439   3.581   0.401  11.127 -1.9487  2.1609  3.1445
  107MOL0     H14440   3.592   0.216  11.127  0.9683  0.6970  0.8521
  107MOL0     H14441   3.333   0.271  11.435  1.5721  0.8048  2.0645
  107MOL0     H14442   4.181   0.366  11.013  2.1291 -1.0563 -0.6797
  107MOL0     H14443   4.468   0.435  10.892 -0.4412  0.2092 -0.2027
  107MOL0     H14444   4.518   0.298  10.995  1.4978  1.4406  0.9181
  107MOL0     H14445   4.370   0.284  10.928 -1.0544 -0.2498  0.6481
  108MOL0     O14446   9.901   6.810   0.683  0.2744 -0.2298 -0.0215
  108MOL0     C14447   9.974   6.817   0.781  0.4536  1.0315  0.0793
  108MOL0     O14448   9.928   6.851   0.906 -0.5563 -0.1243  0.3706
  108MOL0     C14449   9.797   6.847   0.938  0.3824  0.3312 -0.1376
  108MOL0     C14450   9.731   6.724   0.965 -0.3898 -0.5818  0.0778
  108MOL0     C14451   9.605   6.721   1.024 -0.1044  0.2701  0.0899
  108MOL0     C14452   9.532   6.838   1.045  0.2106 -0.1248 -0.0178
  108MOL0     O14453   9.405   6.839   1.079  0.5607  0.2901 -0.4860
  108MOL0     C14454   9.333   6.714   1.090 -0.9425 -0.2034 -0.0128
  108MOL0     C14455   9.182   6.742   1.104 -0.3847  0.1117  0.1723
  108MOL0     C14456   9.106   6.620   1.068 -0.5191  0.4462 -0.5866
  108MOL0     C14457   8.957   6.649   1.042  0.9346 -0.5614  0.5029
  108MOL0     C14458   8.876   6.703   1.163  0.3698  0.0559 -0.9559
  108MOL0     C14459   8.725   6.669   1.138  0.0496 -0.2375 -0.3035
  108MOL0     C14460   8.625   6.686   1.256 -0.3717  0.3384  0.5383
  108MOL0     C14461   8.470   6.685   1.217  0.0090 -0.0438 -0.8713
  108MOL0     N14462   8.436   6.796   1.129  0.2456 -0.2683  0.7061
  108MOL0     C14463   8.464   6.932   1.158  0.6925  0.1898 -0.1694
  108MOL0     C14464   8.410   6.995   1.052 -0.4433 -0.1446  0.2945
  108MOL0     C14465   8.434   7.137   1.032  0.1954 -0.1256  0.0961
  108MOL0     C14466   8.550   7.150   0.933 -1.0021 -0.1981 -0.8748
  108MOL0     C14467   8.686   7.072   0.963 -0.2246  0.1274  0.1097
  108MOL0     C14468   8.761   7.132   1.079  0.3400 -0.5368  0.3377
  108MOL0     O14469   8.812   7.265   1.056  0.8300 -0.3925 -0.0044
  108MOL0     C14470   8.945   7.286   1.042 -1.0587  0.5980 -0.1727
  108MOL0     C14471   9.041   7.184   1.009 -0.6805 -0.2234  0.7171
  108MOL0     C14472   9.178   7.221   0.986  1.0898  0.1986 -0.6125
  108MOL0     C14473   9.222   7.354   0.996 -0.0571 -0.3792 -0.7373
  108MOL0     C14474   9.367   7.383   0.988  0.7350  0.4245 -0.5132
  108MOL0     O14475   9.422   7.504   1.038  0.4283  0.1768  0.4738
  108MOL0     C14476   9.556   7.530   1.018 -0.3556  0.0960  0.4824
  108MOL0     C14477   9.657   7.481   1.096  0.1302  0.0183 -0.8970
  108MOL0     C14478   9.787   7.528   1.078  0.5983 -0.3684  0.7268
  108MOL0     C14479   9.825   7.608   0.974  0.4040  0.0586  1.1585
  108MOL0     O14480   9.950   7.652   0.945 -0.4094 -0.0506 -0.1483
  108MOL0     C14481  10.060   7.607   1.030  0.1152  0.2793 -0.6215
  108MOL0     C14482  10.187   7.659   0.965  0.7649  0.7312  0.0299
  108MOL0     C14483  10.227   7.586   0.831 -0.1033 -0.6564  0.4561
  108MOL0     C14484  10.356   7.628   0.758  0.4567 -0.1555 -0.7973
  108MOL0     C14485  10.380   7.554   0.622 -0.2039  0.3648  0.4410
  108MOL0     C14486  10.520   7.598   0.573  1.3604  0.4762 -0.5698
  108MOL0     C14487  10.531   7.519   0.443 -0.0310 -0.8461 -0.4570
  108MOL0     C14488  10.663   7.544   0.381  0.3559  0.2301 -0.1395
  108MOL0    Cl14489  10.669   7.720   0.327 -0.0990  0.1243 -0.1861
  108MOL0     C14490   9.722   7.665   0.905 -0.2641 -0.9693  0.6595
  108MOL0     C14491   9.589   7.629   0.917  0.7818  0.1738 -0.1632
  108MOL0     O14492   9.434   7.295   0.940  0.7802  0.9823  0.4466
  108MOL0     C14493   9.128   7.447   1.035  0.1942 -0.1735 -0.4533
  108MOL0     C14494   8.992   7.416   1.050  0.3969  0.5380  0.3908
  108MOL0     N14495   8.342   6.901   0.972  0.2314  0.5056  0.4764
  108MOL0     N14496   8.369   6.784   1.011  0.0067  0.0849  0.4091
  108MOL0     C14497   9.594   6.961   1.022 -0.1891  0.6763 -0.0459
  108MOL0     C14498   9.726   6.962   0.971  0.0751 -0.1768 -0.0065
  108MOL0     C14499  10.120   6.803   0.769  0.0077  0.4751  0.0014
  108MOL0     C14500  10.194   6.837   0.886  0.1295 -0.0562  0.0002
  108MOL0     C14501  10.329   6.842   0.876  0.2580 -0.4230 -0.0911
  108MOL0     C14502  10.395   6.816   0.759 -0.7549 -0.3222  0.1309
  108MOL0     O14503  10.524   6.825   0.724 -0.4132  0.4471 -0.4731
  108MOL0     C14504  10.614   6.869   0.829 -0.3108  0.8674 -0.0057
  108MOL0     C14505  10.747   6.931   0.770  0.9515 -0.2792 -0.2149
  108MOL0     C14506  10.723   7.036   0.664  0.3626  0.5191  0.6576
  108MOL0     C14507  10.733   7.183   0.713  0.6232  0.1123 -0.6623
  108MOL0     C14508  10.623   7.244   0.780  0.0759 -0.9776  0.8160
  108MOL0     C14509  10.546   7.308   0.846  0.3494 -0.0523  0.1847
  108MOL0     C14510  10.323   6.772   0.647  0.6143 -0.5533 -1.0985
  108MOL0     C14511  10.185   6.754   0.652 -0.1039 -1.1055 -0.5427
  108MOL0     C14512  10.117   6.709   0.521 -0.0455  0.9169 -0.1065
  108MOL0     H14513   9.780   6.631   0.936 -1.6114 -1.1382 -0.2686
  108MOL0     H14514   9.558   6.624   1.036  0.4968  0.1189  1.4645
  108MOL0     H14515   9.335   6.665   0.993  0.3271  1.1201 -0.6907
  108MOL0     H14516   9.362   6.644   1.170 -0.9869 -0.1424  0.0566
  108MOL0     H14517   9.151   6.821   1.035  1.0909  0.1589 -0.4752
  108MOL0     H14518   9.159   6.769   1.207  1.0839  1.0817  0.2669
  108MOL0     H14519   9.104   6.555   1.155 -1.4205  1.1409 -0.0800
  108MOL0     H14520   9.154   6.556   0.993 -0.1766  0.8880 -0.7522
  108MOL0     H14521   8.938   6.728   0.969  0.3161  0.4604  1.7276
  108MOL0     H14522   8.912   6.554   1.011 -1.6634  0.1520  1.8055
  108MOL0     H14523   8.915   6.670   1.260 -0.5314  0.0772 -0.5645
  108MOL0     H14524   8.893   6.809   1.181  1.2758 -0.5988  3.1344
  108MOL0     H14525   8.706   6.732   1.051 -1.0312  1.6657  1.2372
  108MOL0     H14526   8.704   6.572   1.092 -1.5651  0.3050 -0.7502
  108MOL0     H14527   8.633   6.781   1.310 -2.4896  0.6345  0.4339
  108MOL0     H14528   8.649   6.606   1.325 -0.1000 -0.1523 -0.1182
  108MOL0     H14529   8.449   6.589   1.170 -3.5721 -0.4573  1.1567
  108MOL0     H14530   8.410   6.672   1.308  2.0015  2.2216  0.8922
  108MOL0     H14531   8.522   6.969   1.243 -1.3636 -0.1241  1.4462
  108MOL0     H14532   8.344   7.183   0.991 -2.0060 -3.8856  0.2453
  108MOL0     H14533   8.466   7.182   1.127 -2.1937 -1.7795  1.8136
  108MOL0     H14534   8.513   7.114   0.837 -2.7128 -2.3563  0.4982
  108MOL0     H14535   8.576   7.255   0.924  1.2076 -0.1574  3.4732
  108MOL0     H14536   8.741   7.082   0.868  1.3997 -2.2495  0.6990
  108MOL0     H14537   8.666   6.965   0.977 -0.2142 -0.0628 -1.1790
  108MOL0     H14538   8.842   7.070   1.116  2.3883  1.2624 -0.8948
  108MOL0     H14539   8.684   7.149   1.155 -2.1235  0.0216 -2.1000
  108MOL0     H14540   9.014   7.081   0.989 -1.9940  0.1703  0.3835
  108MOL0     H14541   9.249   7.142   0.963 -0.4617 -1.9442  1.4856
  108MOL0     H14542   9.639   7.412   1.178  1.7076 -0.1717 -0.6727
  108MOL0     H14543   9.860   7.493   1.149  1.0466  0.1436  0.5224
  108MOL0     H14544  10.052   7.644   1.133  1.2551  1.3240 -0.8833
  108MOL0     H14545  10.063   7.498   1.024 -1.6666  0.1712 -0.0757
  108MOL0     H14546  10.175   7.765   0.940 -0.6589  0.7421  0.6724
  108MOL0     H14547  10.274   7.661   1.030 -0.1333  3.3531  1.2812
  108MOL0     H14548  10.243   7.482   0.859  1.0207 -1.2607 -2.1291
  108MOL0     H14549  10.143   7.602   0.763 -1.2123 -0.2792  1.8776
  108MOL0     H14550  10.442   7.627   0.825 -2.4432 -0.3127  3.3212
  108MOL0     H14551  10.340   7.734   0.737 -0.1428 -0.2389 -0.7903
  108MOL0     H14552  10.302   7.578   0.550 -0.1704 -1.0209 -0.0896
  108MOL0     H14553  10.384   7.446   0.641 -2.5637  0.1810  0.1382
  108MOL0     H14554  10.533   7.707   0.564  2.6820  0.3073 -0.9159
  108MOL0     H14555  10.593   7.552   0.641  0.3965 -1.0782 -0.5474
  108MOL0     H14556  10.447   7.556   0.384 -0.0359 -1.2179 -0.6797
  108MOL0     H14557  10.518   7.412   0.459 -1.3626 -0.4504  1.4319
  108MOL0     H14558  10.743   7.520   0.452  0.5132 -0.8519 -0.6628
  108MOL0     H14559  10.671   7.469   0.302  2.4500  0.7970 -0.5400
  108MOL0     H14560   9.748   7.738   0.829 -0.5771 -1.3551  0.1830
  108MOL0     H14561   9.509   7.671   0.858 -0.4380  0.7478  1.8037
  108MOL0     H14562   9.164   7.546   1.064 -0.4427 -0.9729  3.7862
  108MOL0     H14563   8.918   7.493   1.068 -0.3912 -0.4182  1.3564
  108MOL0     H14564   9.537   7.050   1.046  2.1328  1.9596  1.0678
  108MOL0     H14565   9.768   7.059   0.946 -1.0823  0.5164  0.6680
  108MOL0     H14566  10.146   6.860   0.981 -2.2614 -1.0670 -0.8882
  108MOL0     H14567  10.382   6.876   0.965 -1.8442  2.5683  0.1872
  108MOL0     H14568  10.638   6.786   0.896  0.0955  1.3557  0.4604
  108MOL0     H14569  10.569   6.948   0.890 -0.3814  2.6210 -2.2052
  108MOL0     H14570  10.805   6.849   0.728 -0.7037 -0.0728 -3.1519
  108MOL0     H14571  10.798   6.984   0.851 -0.7271  1.8852 -0.4530
  108MOL0     H14572  10.622   7.020   0.624  0.9818 -0.3926 -0.6189
  108MOL0     H14573  10.800   7.021   0.588  0.6440 -0.9887  1.1998
  108MOL0     H14574  10.826   7.188   0.769  2.8214  0.8665 -4.0865
  108MOL0     H14575  10.746   7.235   0.618 -1.5556 -2.7465 -2.6840
  108MOL0     H14576  10.480   7.372   0.902 -0.0452 -0.1781 -0.1353
  108MOL0     H14577  10.380   6.757   0.556 -0.9473  0.2466 -2.2606
  108MOL0     H14578  10.190   6.693   0.441  2.2259 -1.8492  2.2762
  108MOL0     H14579  10.057   6.620   0.537 -2.2392  2.4092  0.4154
  108MOL0     H14580  10.054   6.791   0.484 -1.7929 -0.6812 -0.8511
  109MOL0     O14581   3.620  10.066   8.928 -0.0393 -0.2974 -0.9081
  109MOL0     C14582   3.557  10.126   8.838 -0.0587 -0.1391 -0.1739
  109MOL0     O14583   3.616  10.209   8.750 -0.9132 -0.7502  0.2330
  109MOL0     C14584   3.746  10.243   8.768 -0.9000 -0.5303 -0.7070
  109MOL0     C14585   3.852  10.197   8.685  0.2451 -0.4375 -0.3699
  109MOL0     C14586   3.982  10.225   8.718  0.1908  0.0291 -0.0208
  109MOL0     C14587   4.010  10.320   8.813 -0.9661 -0.2195 -0.8273
  109MOL0     O14588   4.131  10.368   8.852  0.0785  0.2342  0.6517
  109MOL0     C14589   4.246  10.355   8.761  0.6780 -0.2959  0.2589
  109MOL0     C14590   4.368  10.423   8.822  0.4862 -0.2593 -0.1569
  109MOL0     C14591   4.485  10.386   8.731  0.1029 -0.0537 -0.3422
  109MOL0     C14592   4.621  10.444   8.767  0.7143  0.1172  0.1096
  109MOL0     C14593   4.733  10.411   8.666  0.1694 -0.6454  0.3915
  109MOL0     C14594   4.720  10.501   8.541  0.1441  0.4196 -0.1064
  109MOL0     C14595   4.846  10.475   8.453  0.3226 -0.2306 -0.4100
  109MOL0     C14596   4.811  10.531   8.313 -0.6138 -0.3205  0.1233
  109MOL0     N14597   4.932  10.578   8.245 -0.5921 -0.1477  0.1871
  109MOL0     C14598   5.026  10.675   8.285  0.2512 -0.1969  0.2418
  109MOL0     C14599   5.105  10.694   8.177  0.0499  0.8696  0.2807
  109MOL0     C14600   5.197  10.802   8.183 -0.7732 -0.5623 -0.1499
  109MOL0     C14601   5.332  10.763   8.255  0.4098 -0.0325  0.2404
  109MOL0     C14602   5.406  10.649   8.188 -0.4070 -0.0998  0.4955
  109MOL0     C14603   5.538  10.611   8.251  0.6888 -0.3593  0.2599
  109MOL0     O14604   5.577  10.484   8.198 -0.4293 -0.1666 -0.4495
  109MOL0     C14605   5.675  10.422   8.267 -0.1669 -0.9895 -0.3470
  109MOL0     C14606   5.725  10.306   8.202  0.1697 -0.3495 -0.1171
  109MOL0     C14607   5.830  10.228   8.258 -0.7096 -0.3354 -0.1135
  109MOL0     C14608   5.892  10.272   8.378  0.3146 -0.3678 -0.4249
  109MOL0     C14609   6.007  10.198   8.442 -0.9313 -0.1433 -0.1701
  109MOL0     O14610   6.025  10.222   8.574  0.2135  0.8540  0.1018
  109MOL0     C14611   6.148  10.206   8.630  0.4311 -0.5872 -0.4658
  109MOL0     C14612   6.246  10.308   8.636 -0.0834 -0.3677 -1.1025
  109MOL0     C14613   6.373  10.294   8.683  0.1417 -0.4057 -0.2768
  109MOL0     C14614   6.410  10.170   8.734 -1.1166  0.2239 -0.1984
  109MOL0     O14615   6.534  10.165   8.789 -0.3466 -0.9277  0.3284
  109MOL0     C14616   6.619  10.061   8.757  0.6117 -0.4666  0.2720
  109MOL0     C14617   6.760  10.075   8.810 -0.4808 -1.0144  0.1967
  109MOL0     C14618   6.799  10.217   8.843 -0.9902  0.0900  0.3121
  109MOL0     C14619   6.945  10.227   8.882 -0.0391  0.0662  0.4437
  109MOL0     C14620   7.000  10.365   8.860  0.1372 -0.5587  0.6697
  109MOL0     C14621   7.144  10.392   8.915  0.0341 -0.1379  0.1241
  109MOL0     C14622   7.249  10.292   8.880 -0.0071 -0.3503 -0.1223
  109MOL0     C14623   7.389  10.329   8.927  0.5917  0.2759  0.0668
  109MOL0    Cl14624   7.407  10.336   9.103 -0.2648  0.1200  0.4359
  109MOL0     C14625   6.318  10.062   8.717 -0.5653  0.6084  1.3396
  109MOL0     C14626   6.194  10.073   8.666 -0.0648  0.3045 -0.5718
  109MOL0     O14627   6.075  10.127   8.366  0.3013  0.2729  0.2867
  109MOL0     C14628   5.841  10.380   8.450  0.1072 -0.8474  0.3557
  109MOL0     C14629   5.733  10.466   8.393 -0.4675 -0.0782  0.5282
  109MOL0     N14630   5.063  10.618   8.072 -0.2542  0.0836  0.0277
  109MOL0     N14631   4.974  10.541   8.118 -0.0503 -0.1116  0.2116
  109MOL0     C14632   3.901  10.379   8.884  0.4698 -0.7082 -0.0274
  109MOL0     C14633   3.775  10.346   8.864  0.2648 -0.1572  0.3950
  109MOL0     C14634   3.421  10.091   8.794 -0.2532 -0.1719  0.3412
  109MOL0     C14635   3.366   9.966   8.834 -0.7528 -0.2979 -0.9263
  109MOL0     C14636   3.246   9.931   8.786  0.3147 -0.8891  0.4967
  109MOL0     C14637   3.167  10.015   8.700  0.3486  0.3585 -1.1367
  109MOL0     O14638   3.056   9.974   8.630 -1.1886  0.6128  0.0768
  109MOL0     C14639   3.033   9.829   8.642  0.8663 -0.7442  0.5890
  109MOL0     C14640   2.936   9.811   8.754  0.7955 -0.4839 -0.5293
  109MOL0     C14641   2.835   9.691   8.747  0.4875  0.0065 -0.1611
  109MOL0     C14642   2.784   9.662   8.893  0.8013  0.3799 -0.5960
  109MOL0     C14643   2.678   9.553   8.896  0.3512 -0.6966  0.4147
  109MOL0     C14644   2.588   9.481   8.889 -0.1481  0.0021  0.3054
  109MOL0     C14645   3.209  10.142   8.681  0.5961  0.7835 -0.1423
  109MOL0     C14646   3.340  10.182   8.724  0.8997  0.2800 -1.1046
  109MOL0     C14647   3.375  10.325   8.690 -0.5234  0.3007 -0.0248
  109MOL0     H14648   3.838  10.128   8.603  1.1557 -0.0142 -0.8911
  109MOL0     H14649   4.046  10.164   8.656 -2.4284 -1.8560 -1.0472
  109MOL0     H14650   4.274  10.252   8.735  1.3649  0.3021 -1.5633
  109MOL0     H14651   4.228  10.406   8.666 -0.5161  0.4992  0.8840
  109MOL0     H14652   4.379  10.371   8.918  1.3503  0.5965  0.2228
  109MOL0     H14653   4.343  10.528   8.834 -1.6830 -0.8470  0.8933
  109MOL0     H14654   4.464  10.420   8.629 -0.3012 -0.8067 -0.5162
  109MOL0     H14655   4.494  10.277   8.743 -0.1958  0.0761  1.3470
  109MOL0     H14656   4.601  10.551   8.755 -0.5035  0.0488  1.2370
  109MOL0     H14657   4.657  10.433   8.869 -0.4320  0.5438  0.5756
  109MOL0     H14658   4.830  10.430   8.713  0.0519 -0.4081  0.5376
  109MOL0     H14659   4.735  10.302   8.659  0.8315 -0.7836  2.1483
  109MOL0     H14660   4.628  10.469   8.492  0.8585 -0.6394 -0.8050
  109MOL0     H14661   4.724  10.607   8.571  3.8893  0.7821 -1.3442
  109MOL0     H14662   4.863  10.367   8.446 -2.0880 -0.8744  2.2260
  109MOL0     H14663   4.928  10.521   8.510 -0.4137 -1.2457  1.5488
  109MOL0     H14664   4.770  10.454   8.247  0.6858 -0.6030 -0.3966
  109MOL0     H14665   4.738  10.611   8.327 -1.3441 -1.2201  1.7659
  109MOL0     H14666   5.022  10.743   8.370 -1.1907  2.3773 -1.7250
  109MOL0     H14667   5.212  10.825   8.077 -1.8535  1.2193  0.0507
  109MOL0     H14668   5.156  10.888   8.236 -1.6893 -0.9479 -0.2152
  109MOL0     H14669   5.385  10.853   8.285 -2.6873  1.1516  2.8157
  109MOL0     H14670   5.298  10.725   8.352  1.3436  3.5735  2.1414
  109MOL0     H14671   5.425  10.678   8.084 -5.7413 -0.1484 -0.7625
  109MOL0     H14672   5.346  10.558   8.176 -0.9359  0.0994  1.6199
  109MOL0     H14673   5.517  10.610   8.358 -1.3481  0.5327 -0.0929
  109MOL0     H14674   5.611  10.690   8.232 -0.5407  0.9588  0.8610
  109MOL0     H14675   5.678  10.275   8.109  3.7411 -2.7383 -1.3573
  109MOL0     H14676   5.858  10.134   8.211  0.7558 -2.4234  4.2877
  109MOL0     H14677   6.220  10.403   8.591  1.8763 -0.5524 -2.7827
  109MOL0     H14678   6.432  10.385   8.684 -0.3859  0.0158 -2.5644
  109MOL0     H14679   6.576   9.971   8.800  0.6154  0.0635  1.4052
  109MOL0     H14680   6.627  10.059   8.647 -1.4043  0.4479  0.0707
  109MOL0     H14681   6.761  10.021   8.905  2.0824 -0.1941  0.7184
  109MOL0     H14682   6.825  10.021   8.741 -2.0739 -1.4305 -1.0329
  109MOL0     H14683   6.783  10.274   8.751  1.6978  2.1048  0.9496
  109MOL0     H14684   6.735  10.260   8.921  0.6257  3.6679 -0.0985
  109MOL0     H14685   7.002  10.157   8.820 -0.8411  0.4306 -0.7241
  109MOL0     H14686   6.967  10.196   8.985  3.1497 -2.6748 -0.8558
  109MOL0     H14687   6.934  10.446   8.895 -2.7243 -2.6677  0.5306
  109MOL0     H14688   6.997  10.375   8.751 -1.3669  1.2605  0.8154
  109MOL0     H14689   7.187  10.488   8.884  4.2804 -1.4032  1.4652
  109MOL0     H14690   7.127  10.396   9.023 -2.0718 -3.0707  0.0238
  109MOL0     H14691   7.246  10.282   8.771 -0.3491 -1.6618 -0.0005
  109MOL0     H14692   7.227  10.198   8.932 -1.8086 -0.5250 -1.1570
  109MOL0     H14693   7.460  10.258   8.884  0.3127 -1.0067  1.6321
  109MOL0     H14694   7.399  10.430   8.885 -0.7683  1.2068  1.8076
  109MOL0     H14695   6.349   9.965   8.756  2.3590 -0.1532 -2.2646
  109MOL0     H14696   6.126   9.989   8.660 -0.2143  0.4343 -0.7046
  109MOL0     H14697   5.890  10.418   8.539 -0.3879 -0.4916  0.4762
  109MOL0     H14698   5.709  10.563   8.434 -0.3193  0.6075 -0.9624
  109MOL0     H14699   3.909  10.459   8.957 -1.4397 -0.9185  0.4699
  109MOL0     H14700   3.698  10.382   8.932  0.3879  1.4217 -0.2542
  109MOL0     H14701   3.418   9.893   8.895 -1.2031  1.2251  1.3867
  109MOL0     H14702   3.223   9.829   8.818  3.2066 -1.9263 -0.4270
  109MOL0     H14703   3.118   9.761   8.635  1.6406  0.2000  0.5580
  109MOL0     H14704   2.973   9.802   8.554 -2.3320  0.6692  2.1558
  109MOL0     H14705   2.875   9.901   8.756  1.1674 -0.2104  2.5347
  109MOL0     H14706   2.976   9.818   8.855 -1.3958 -1.2708  0.4502
  109MOL0     H14707   2.883   9.604   8.702  0.3143 -0.1381 -0.0640
  109MOL0     H14708   2.757   9.725   8.679 -0.5496 -0.8151  0.6001
  109MOL0     H14709   2.866   9.626   8.957  0.9936 -0.3416 -1.2285
  109MOL0     H14710   2.741   9.753   8.936 -0.3936  0.4483 -1.8820
  109MOL0     H14711   2.513   9.404   8.886 -0.6717  0.5372 -1.0618
  109MOL0     H14712   3.132  10.202   8.635 -0.4275 -0.9916 -0.8589
  109MOL0     H14713   3.404  10.377   8.782  0.7126  1.4358 -1.0339
  109MOL0     H14714   3.450  10.319   8.611 -2.2183  0.1063 -1.6842
  109MOL0     H14715   3.286  10.379   8.657 -1.7113 -2.1122 -1.0115
  110MOL0     O14716   5.527   1.618   3.502  0.2728  0.6816  0.6200
  110MOL0     C14717   5.447   1.703   3.525  0.5562 -0.3167  0.6049
  110MOL0     O14718   5.470   1.834   3.500  0.9002 -0.4366  0.8134
  110MOL0     C14719   5.596   1.860   3.477 -0.4657 -0.8726  0.3392
  110MOL0     C14720   5.665   1.888   3.591  0.0990  0.0984  0.2240
  110MOL0     C14721   5.802   1.919   3.577 -0.7890 -0.3748 -0.6070
  110MOL0     C14722   5.870   1.910   3.454 -0.3440  0.2747 -0.4434
  110MOL0     O14723   6.004   1.941   3.442 -0.2338  0.2149 -0.5331
  110MOL0     C14724   6.062   2.000   3.324  0.5689  0.4482  0.0812
  110MOL0     C14725   6.140   1.900   3.239  0.2174 -0.2226 -0.2195
  110MOL0     C14726   6.220   1.976   3.126  0.3610 -0.4514  0.3680
  110MOL0     C14727   6.300   1.876   3.044  0.2555 -0.4689  0.2437
  110MOL0     C14728   6.376   1.932   2.925 -0.8172 -0.0681  0.9366
  110MOL0     C14729   6.499   2.026   2.954  0.0278 -0.4969 -0.5946
  110MOL0     C14730   6.590   1.967   3.068  0.3232  0.7039  0.4434
  110MOL0     C14731   6.729   2.033   3.065 -0.5669 -0.3001  0.9473
  110MOL0     N14732   6.784   2.027   2.926  0.1150  0.2032  0.4278
  110MOL0     C14733   6.784   1.921   2.838  0.3908 -0.0978 -0.6163
  110MOL0     C14734   6.811   1.973   2.712 -0.2202 -0.1679 -0.0255
  110MOL0     C14735   6.822   1.890   2.586  0.6590 -0.1343  1.1407
  110MOL0     C14736   6.874   1.980   2.461 -0.6249 -0.1511 -0.6330
  110MOL0     C14737   6.936   1.896   2.344  1.0890  0.3215 -0.1348
  110MOL0     C14738   7.078   1.855   2.368 -0.3434 -0.0680  0.1534
  110MOL0     O14739   7.113   1.754   2.272  0.3115  0.9058  0.2247
  110MOL0     C14740   7.241   1.721   2.247 -0.3691  0.7425  0.5317
  110MOL0     C14741   7.352   1.786   2.302  1.1780  1.0072 -0.0274
  110MOL0     C14742   7.482   1.739   2.276  0.1279  0.3623 -0.2030
  110MOL0     C14743   7.511   1.636   2.177  1.1137  0.1363 -0.9074
  110MOL0     C14744   7.651   1.580   2.159  0.0814 -0.0738 -0.8247
  110MOL0     O14745   7.650   1.468   2.081 -0.1413 -0.2688  0.5100
  110MOL0     C14746   7.770   1.416   2.039  0.3857  1.0645  0.1183
  110MOL0     C14747   7.822   1.312   2.111  1.0645  0.4656  0.4677
  110MOL0     C14748   7.937   1.243   2.069 -0.1034  0.1599 -0.1850
  110MOL0     C14749   8.009   1.289   1.959  0.5610 -1.4495  0.2730
  110MOL0     O14750   8.129   1.224   1.933 -1.2456  0.5665 -0.5482
  110MOL0     C14751   8.237   1.278   1.852  0.2625 -0.4809 -0.1990
  110MOL0     C14752   8.358   1.198   1.899  0.4908  0.1490 -0.0348
  110MOL0     C14753   8.485   1.228   1.818  0.9036 -0.2695 -0.1785
  110MOL0     C14754   8.607   1.165   1.876  0.0869  0.5055  0.0905
  110MOL0     C14755   8.728   1.201   1.794  0.9677 -0.4552  0.1802
  110MOL0     C14756   8.842   1.123   1.844 -0.3245 -0.5728  0.2281
  110MOL0     C14757   8.970   1.187   1.798  0.4580 -0.0641  0.5745
  110MOL0     C14758   9.086   1.087   1.804  1.4657  0.2430 -0.1212
  110MOL0    Cl14759   9.066   0.950   1.681 -0.0017  0.1829 -0.5076
  110MOL0     C14760   7.952   1.393   1.882 -0.1542 -0.5489  0.1053
  110MOL0     C14761   7.839   1.462   1.927  0.0774 -0.3211  0.0511
  110MOL0     O14762   7.752   1.624   2.215 -0.0514 -0.4085  0.1009
  110MOL0     C14763   7.395   1.572   2.124 -0.5648  0.5767  0.2780
  110MOL0     C14764   7.262   1.611   2.157 -0.6854 -0.2934 -0.5073
  110MOL0     N14765   6.818   2.109   2.730 -0.2648 -0.6882  0.3126
  110MOL0     N14766   6.808   2.143   2.853  0.2022  0.2272  0.0332
  110MOL0     C14767   5.796   1.876   3.342  0.3483 -0.0781 -0.5396
  110MOL0     C14768   5.662   1.855   3.352  0.0846  0.7246  0.4505
  110MOL0     C14769   5.314   1.670   3.575  1.0655 -0.6690 -1.1104
  110MOL0     C14770   5.219   1.771   3.577  0.7426  0.3072 -0.5394
  110MOL0     C14771   5.084   1.752   3.621  0.8832 -0.5322  0.3603
  110MOL0     C14772   5.048   1.632   3.670  0.6050  0.2490 -0.1118
  110MOL0     O14773   4.924   1.603   3.721 -0.3438  0.3491 -0.4125
  110MOL0     C14774   4.818   1.698   3.729 -0.4811  0.7275 -0.4471
  110MOL0     C14775   4.679   1.640   3.774 -0.0605  0.0695  0.0429
  110MOL0     C14776   4.632   1.524   3.670  0.1459 -0.5740  1.2023
  110MOL0     C14777   4.497   1.468   3.719 -0.4165  0.3371  0.5937
  110MOL0     C14778   4.533   1.381   3.836  0.5635  0.3428  0.2517
  110MOL0     C14779   4.571   1.309   3.926 -0.2982 -0.3934  0.2695
  110MOL0     C14780   5.143   1.526   3.665  0.3329 -0.0529  0.1435
  110MOL0     C14781   5.272   1.542   3.611  0.0026  0.3278 -0.2101
  110MOL0     C14782   5.358   1.421   3.607  0.4365  0.6409  0.1958
  110MOL0     H14783   5.622   1.891   3.691  1.6649 -0.1482  0.9403
  110MOL0     H14784   5.861   1.950   3.663  1.8062 -1.1420 -2.0091
  110MOL0     H14785   5.983   2.041   3.260  1.7601 -0.0559 -1.7951
  110MOL0     H14786   6.125   2.085   3.352  1.0396 -0.1496  0.8704
  110MOL0     H14787   6.067   1.841   3.182 -2.5156  2.2700  0.4562
  110MOL0     H14788   6.199   1.842   3.310 -0.5300  0.6971  1.2208
  110MOL0     H14789   6.288   2.045   3.175  0.2026 -0.4725  0.6179
  110MOL0     H14790   6.148   2.032   3.065 -1.1448 -1.9100  0.7255
  110MOL0     H14791   6.365   1.812   3.104 -0.9139 -1.7678  0.1644
  110MOL0     H14792   6.221   1.812   3.004 -2.9344  3.1763  0.1490
  110MOL0     H14793   6.406   1.841   2.872 -1.2631 -0.6275  1.6171
  110MOL0     H14794   6.298   1.980   2.865 -0.4444 -1.3943 -0.6828
  110MOL0     H14795   6.550   2.047   2.860 -2.2182  4.1521 -1.0770
  110MOL0     H14796   6.475   2.128   2.985  2.6720 -0.1292  0.4714
  110MOL0     H14797   6.591   1.858   3.062 -1.3465  0.1253  5.8428
  110MOL0     H14798   6.543   1.992   3.163  2.9680 -0.1752  2.0913
  110MOL0     H14799   6.731   2.139   3.091  2.3684 -0.3709  1.3794
  110MOL0     H14800   6.797   1.974   3.127  1.5801 -3.6083 -3.8891
  110MOL0     H14801   6.778   1.814   2.857 -0.7868 -0.2535 -1.6900
  110MOL0     H14802   6.892   1.809   2.609 -0.2156 -0.9488  1.0311
  110MOL0     H14803   6.731   1.835   2.559 -0.0419  1.6960 -0.4032
  110MOL0     H14804   6.791   2.030   2.410  0.9601  1.4265 -1.8266
  110MOL0     H14805   6.949   2.053   2.493  1.5418 -1.8323 -1.5950
  110MOL0     H14806   6.930   1.950   2.249  2.0973 -1.9607 -1.5803
  110MOL0     H14807   6.865   1.813   2.339 -0.2811  1.2870  1.9519
  110MOL0     H14808   7.094   1.817   2.469 -2.9227 -1.0376  0.2977
  110MOL0     H14809   7.127   1.952   2.360  0.5411 -0.5667 -0.6194
  110MOL0     H14810   7.345   1.861   2.380  3.2298  2.0448 -0.7739
  110MOL0     H14811   7.576   1.767   2.323  0.1844  0.2787 -0.2653
  110MOL0     H14812   7.750   1.284   2.187 -1.5199 -0.4670 -2.1404
  110MOL0     H14813   7.974   1.152   2.117 -0.1820 -1.5325 -3.1103
  110MOL0     H14814   8.218   1.256   1.746  2.6508  0.6946 -0.9485
  110MOL0     H14815   8.258   1.385   1.858  1.0476 -0.6145 -0.4421
  110MOL0     H14816   8.373   1.218   2.006 -1.5501  0.3640  0.2429
  110MOL0     H14817   8.339   1.090   1.890 -1.8827  0.5483 -0.4938
  110MOL0     H14818   8.470   1.193   1.716  3.1465 -0.9537 -0.3321
  110MOL0     H14819   8.506   1.336   1.824 -1.4092  0.2909 -1.0575
  110MOL0     H14820   8.598   1.056   1.879 -2.3347  0.6666  3.1756
  110MOL0     H14821   8.635   1.192   1.979  1.4998  0.5288 -0.2743
  110MOL0     H14822   8.755   1.306   1.791  0.2731 -0.2949 -1.7025
  110MOL0     H14823   8.704   1.197   1.688  3.0687  1.4060 -0.4191
  110MOL0     H14824   8.827   1.103   1.950 -1.5057 -0.5294  0.0741
  110MOL0     H14825   8.839   1.025   1.794  2.3474 -0.5111 -0.2436
  110MOL0     H14826   8.989   1.279   1.855  1.2921 -0.0121  0.2254
  110MOL0     H14827   8.975   1.206   1.690  0.2981 -3.6572 -0.1698
  110MOL0     H14828   9.184   1.134   1.790  2.0222 -1.4232 -2.4941
  110MOL0     H14829   9.085   1.036   1.900 -4.0223 -1.1132 -0.5700
  110MOL0     H14830   8.011   1.426   1.797 -0.0674 -2.1998 -0.5180
  110MOL0     H14831   7.801   1.547   1.871 -2.2676 -1.7416 -0.6324
  110MOL0     H14832   7.399   1.476   2.072 -3.7285 -0.5178  1.7631
  110MOL0     H14833   7.175   1.582   2.099 -1.7790  1.6260  0.0798
  110MOL0     H14834   5.843   1.858   3.246 -0.2919 -1.5731 -0.6125
  110MOL0     H14835   5.604   1.834   3.263 -0.4894 -0.6306  1.1062
  110MOL0     H14836   5.242   1.867   3.533  0.7094  0.8463  0.6038
  110MOL0     H14837   5.015   1.834   3.610  3.9922  2.2663  0.3498
  110MOL0     H14838   4.817   1.742   3.629 -1.2832 -2.9183 -2.2077
  110MOL0     H14839   4.848   1.775   3.801  1.0615  1.7983 -2.1324
  110MOL0     H14840   4.603   1.716   3.793  1.6192  1.5601  1.0629
  110MOL0     H14841   4.696   1.589   3.869 -1.0824 -0.7403 -0.1912
  110MOL0     H14842   4.702   1.440   3.658  1.3772  0.2779  2.1596
  110MOL0     H14843   4.608   1.566   3.572 -2.2918 -2.1441  1.0414
  110MOL0     H14844   4.432   1.547   3.757 -1.5660 -0.0839 -0.4396
  110MOL0     H14845   4.448   1.410   3.640  1.2482 -1.6305  0.9365
  110MOL0     H14846   4.626   1.238   3.984  2.1135  0.4535 -0.8458
  110MOL0     H14847   5.112   1.428   3.698 -1.0492 -0.5708 -2.4152
  110MOL0     H14848   5.372   1.401   3.501 -1.0614 -0.1486  0.1184
  110MOL0     H14849   5.445   1.426   3.674 -0.4891 -1.3540  1.6703
  110MOL0     H14850   5.319   1.327   3.648  1.6130  0.6529  1.4532
  111MOL0     O14851   6.014   2.216   0.449 -0.0443 -0.1202 -0.0483
  111MOL0     C14852   5.978   2.229   0.562 -0.1890 -0.2582  0.3544
  111MOL0     O14853   6.062   2.258   0.663 -0.4275  0.0944 -0.1209
  111MOL0     C14854   6.197   2.243   0.647  0.0415 -0.4524  0.1582
  111MOL0     C14855   6.284   2.353   0.652  0.5002  0.1655 -0.3667
  111MOL0     C14856   6.418   2.333   0.651  0.6863 -1.0469  0.3283
  111MOL0     C14857   6.481   2.215   0.637 -0.9354 -0.0342  0.8947
  111MOL0     O14858   6.613   2.195   0.658  0.6469  0.0337  0.2079
  111MOL0     C14859   6.679   2.128   0.553  0.9059 -0.2984  0.8021
  111MOL0     C14860   6.824   2.154   0.574 -0.5338  0.7083  0.6132
  111MOL0     C14861   6.920   2.051   0.508 -0.6202  0.3290 -0.0967
  111MOL0     C14862   6.929   2.063   0.352 -0.6568  0.0026 -0.5876
  111MOL0     C14863   7.019   1.964   0.277 -0.4541  0.0800  0.9320
  111MOL0     C14864   7.170   1.962   0.326 -0.2740  0.2658  0.0346
  111MOL0     C14865   7.246   2.089   0.313  0.6667  0.0718 -0.6375
  111MOL0     C14866   7.390   2.068   0.364 -0.1603 -0.8698 -0.4989
  111MOL0     N14867   7.391   2.074   0.507 -0.2440 -0.5803 -0.5132
  111MOL0     C14868   7.402   1.960   0.574  0.0129 -0.5742  0.2798
  111MOL0     C14869   7.462   1.990   0.690 -0.9296  0.1220 -0.6598
  111MOL0     C14870   7.495   1.883   0.790 -0.1021 -0.2207 -0.3175
  111MOL0     C14871   7.597   1.780   0.735 -0.6541 -0.1703  0.1269
  111MOL0     C14872   7.597   1.647   0.824  0.1775  0.1833 -0.2143
  111MOL0     C14873   7.728   1.559   0.807 -0.4681 -0.1279  0.1755
  111MOL0     O14874   7.734   1.490   0.681 -0.0885 -1.0086 -1.0027
  111MOL0     C14875   7.858   1.439   0.657 -0.4164 -0.2784 -0.8996
  111MOL0     C14876   7.904   1.322   0.718  0.1107 -0.1175  0.2190
  111MOL0     C14877   8.036   1.282   0.694 -0.4438  0.3666 -0.2815
  111MOL0     C14878   8.121   1.356   0.611  0.3285  0.1539  0.4108
  111MOL0     C14879   8.256   1.302   0.583 -0.4106  0.4999  0.1136
  111MOL0     O14880   8.288   1.173   0.607  0.4530 -0.3847 -0.2375
  111MOL0     C14881   8.414   1.119   0.613  0.3008 -0.3164  0.4857
  111MOL0     C14882   8.413   0.987   0.571  0.1862 -0.6435  0.0066
  111MOL0     C14883   8.532   0.914   0.589  0.9792 -0.0841 -0.3054
  111MOL0     C14884   8.645   0.977   0.634  0.5080  0.4806  0.6256
  111MOL0     O14885   8.742   0.891   0.664  0.0271 -0.4296 -0.2047
  111MOL0     C14886   8.860   0.918   0.590 -0.6657  0.7241 -0.1373
  111MOL0     C14887   8.971   0.879   0.690  0.1245 -0.9500 -0.3851
  111MOL0     C14888   9.116   0.924   0.654 -0.1795  0.8425 -0.1299
  111MOL0     C14889   9.224   0.821   0.691 -0.7652  0.5701 -0.0535
  111MOL0     C14890   9.364   0.863   0.646 -0.8129 -0.2215 -0.0588
  111MOL0     C14891   9.477   0.774   0.697 -0.2022 -0.2494  0.0307
  111MOL0     C14892   9.476   0.624   0.639 -0.4623 -0.0614  0.5366
  111MOL0     C14893   9.605   0.568   0.570 -0.0591  0.0236  0.1806
  111MOL0    Cl14894   9.647   0.665   0.428  0.1776 -0.1322  0.4936
  111MOL0     C14895   8.646   1.106   0.672 -0.3842 -0.0191 -0.5642
  111MOL0     C14896   8.530   1.177   0.673  0.2275  0.4928  0.1871
  111MOL0     O14897   8.337   1.389   0.546  0.2428  0.0784  0.0059
  111MOL0     C14898   8.082   1.482   0.561  0.0025  0.3350 -0.2973
  111MOL0     C14899   7.947   1.521   0.584 -0.5791 -0.7616 -0.9172
  111MOL0     N14900   7.473   2.130   0.700 -0.1687 -0.0269 -0.1937
  111MOL0     N14901   7.433   2.175   0.583  0.0485 -0.8360 -0.7317
  111MOL0     C14902   6.394   2.100   0.626 -0.3482 -0.6260  0.5391
  111MOL0     C14903   6.254   2.116   0.626 -0.7432 -0.1662 -0.0507
  111MOL0     C14904   5.838   2.188   0.592 -0.3794  0.1874  0.4201
  111MOL0     C14905   5.804   2.175   0.728 -0.0068  0.0561 -0.2687
  111MOL0     C14906   5.672   2.145   0.776 -0.0373 -0.2872 -0.5204
  111MOL0     C14907   5.577   2.104   0.680 -0.3824 -0.5120 -0.0606
  111MOL0     O14908   5.456   2.076   0.731 -0.1564 -0.4327  0.3981
  111MOL0     C14909   5.338   2.066   0.641 -0.0816  0.7918 -0.6686
  111MOL0     C14910   5.207   2.047   0.721  0.2196 -0.1591 -0.1470
  111MOL0     C14911   5.210   1.932   0.825  0.3966 -0.3515  0.2210
  111MOL0     C14912   5.093   1.924   0.926  0.6915 -0.2865 -0.4433
  111MOL0     C14913   5.100   2.054   1.009 -0.3437  0.6570  0.6513
  111MOL0     C14914   5.092   2.144   1.084  1.1104  0.1262  0.0158
  111MOL0     C14915   5.612   2.099   0.544  0.0856  0.2560 -0.3724
  111MOL0     C14916   5.734   2.161   0.498  0.2283  1.5448 -0.1826
  111MOL0     C14917   5.749   2.152   0.347  0.6734 -0.4079 -0.4629
  111MOL0     H14918   6.250   2.454   0.668 -0.3066 -0.4333  2.1793
  111MOL0     H14919   6.486   2.409   0.687  0.3055 -0.8134  0.5586
  111MOL0     H14920   6.654   2.021   0.558  1.4198 -0.3858  1.5451
  111MOL0     H14921   6.644   2.171   0.458 -0.9667 -0.2667  1.4622
  111MOL0     H14922   6.849   2.151   0.681 -0.9029 -0.0771  0.6826
  111MOL0     H14923   6.841   2.261   0.556  1.1783  0.4841  0.7126
  111MOL0     H14924   6.886   1.954   0.545 -4.7831  1.6091 -0.1251
  111MOL0     H14925   7.019   2.072   0.550  0.1410  1.7720 -2.4192
  111MOL0     H14926   6.833   2.044   0.303  0.6860  1.0471 -3.9736
  111MOL0     H14927   6.966   2.163   0.327  0.4162  0.6843  3.1067
  111MOL0     H14928   6.962   1.870   0.276 -3.4956  1.7747 -0.7141
  111MOL0     H14929   7.026   1.996   0.172  2.9717 -2.0605  0.3216
  111MOL0     H14930   7.162   1.934   0.431 -1.3276 -0.1213 -0.1290
  111MOL0     H14931   7.224   1.886   0.268  2.0550  0.8710  1.3029
  111MOL0     H14932   7.198   2.170   0.368  0.9586 -1.8060  2.5824
  111MOL0     H14933   7.253   2.110   0.205  2.8309  0.6888 -0.4327
  111MOL0     H14934   7.418   1.967   0.334 -0.9980 -1.1487 -0.3545
  111MOL0     H14935   7.459   2.143   0.324 -1.8508 -0.0414 -2.0347
  111MOL0     H14936   7.389   1.862   0.528  3.4986 -0.2905 -1.6314
  111MOL0     H14937   7.539   1.935   0.875 -1.3628  1.9141 -0.8917
  111MOL0     H14938   7.404   1.838   0.830 -0.1136 -0.4824 -0.6331
  111MOL0     H14939   7.593   1.753   0.629 -0.9630  0.1676  0.0514
  111MOL0     H14940   7.698   1.819   0.750 -1.2904  1.2864  0.8340
  111MOL0     H14941   7.509   1.599   0.778 -0.4923  2.1921 -1.1493
  111MOL0     H14942   7.577   1.690   0.922 -2.7596  0.0941 -0.6786
  111MOL0     H14943   7.741   1.494   0.894  1.6347 -1.5387 -1.0980
  111MOL0     H14944   7.814   1.627   0.802  1.0602 -2.0320 -2.6073
  111MOL0     H14945   7.830   1.260   0.767 -0.4052 -0.1637 -0.6121
  111MOL0     H14946   8.066   1.198   0.757  3.1188  0.3876 -1.7321
  111MOL0     H14947   8.323   0.946   0.525  0.2807 -0.9544  0.0959
  111MOL0     H14948   8.528   0.806   0.580  2.8563 -0.5210  2.6362
  111MOL0     H14949   8.869   0.856   0.501  3.6823  1.7682 -0.6923
  111MOL0     H14950   8.869   1.023   0.559  1.2233 -0.5500 -4.8246
  111MOL0     H14951   8.945   0.931   0.783  1.5561  0.1304 -0.5509
  111MOL0     H14952   8.967   0.773   0.714 -0.3263 -0.4134  2.3276
  111MOL0     H14953   9.116   0.921   0.545  0.7717 -0.2068 -0.1225
  111MOL0     H14954   9.131   1.024   0.694 -0.2560  0.5177  0.7518
  111MOL0     H14955   9.204   0.724   0.646  3.6006  0.3561 -2.0708
  111MOL0     H14956   9.220   0.813   0.800 -1.7740 -1.2461 -0.1955
  111MOL0     H14957   9.386   0.968   0.664 -1.4524 -0.3278  1.4310
  111MOL0     H14958   9.368   0.846   0.538  0.9450  2.9805 -0.6259
  111MOL0     H14959   9.570   0.819   0.662  0.0653 -0.4959  0.4200
  111MOL0     H14960   9.474   0.785   0.806  1.8215 -0.3440  0.1377
  111MOL0     H14961   9.402   0.611   0.559  0.2748  0.9119 -0.3308
  111MOL0     H14962   9.442   0.559   0.720  0.2840 -0.3922  0.5863
  111MOL0     H14963   9.688   0.559   0.641 -1.0848 -1.1027  1.2845
  111MOL0     H14964   9.579   0.469   0.532  0.1950  0.3916 -0.9952
  111MOL0     H14965   8.729   1.156   0.719  0.0455  0.5124 -1.8336
  111MOL0     H14966   8.517   1.280   0.705 -3.1441  0.2146  0.0886
  111MOL0     H14967   8.153   1.535   0.499  1.2511 -1.8331 -0.8338
  111MOL0     H14968   7.919   1.623   0.560 -1.6055 -1.1972 -1.6382
  111MOL0     H14969   6.434   1.999   0.633 -2.2763 -1.4007  0.9129
  111MOL0     H14970   6.187   2.031   0.624  0.4358 -1.1289 -0.6493
  111MOL0     H14971   5.874   2.207   0.805  1.4586  1.4944 -2.0841
  111MOL0     H14972   5.645   2.155   0.880 -0.3802 -0.8016 -0.5535
  111MOL0     H14973   5.354   1.983   0.572  1.4467 -1.1912  1.8858
  111MOL0     H14974   5.334   2.163   0.590  2.0712  2.1950  1.5413
  111MOL0     H14975   5.111   2.043   0.668 -1.1635 -0.0321  2.1946
  111MOL0     H14976   5.203   2.140   0.779 -2.5445 -0.6755  0.6207
  111MOL0     H14977   5.301   1.926   0.885 -0.4056 -0.4017  1.4512
  111MOL0     H14978   5.220   1.840   0.766  0.8745  0.7335 -1.4810
  111MOL0     H14979   5.000   1.935   0.869  1.3844 -0.3624 -1.6379
  111MOL0     H14980   5.092   1.831   0.982 -1.0178 -0.6078 -0.9441
  111MOL0     H14981   5.083   2.222   1.157  1.2177 -0.0666  0.2369
  111MOL0     H14982   5.534   2.068   0.475  1.2438 -0.0015 -1.6113
  111MOL0     H14983   5.831   2.084   0.321  0.7007 -0.3325 -0.5788
  111MOL0     H14984   5.655   2.122   0.299 -0.3663  1.6631  0.1728
  111MOL0     H14985   5.774   2.245   0.296  1.2936 -1.3246 -1.9209
  112MOL0     O14986   1.553   8.127   2.050 -0.2741  0.3709  0.0848
  112MOL0     C14987   1.595   8.019   2.010  0.3301  0.2831  0.6493
  112MOL0     O14988   1.721   7.990   1.952  0.1972  0.3940  0.5144
  112MOL0     C14989   1.822   8.074   1.944  0.5079 -0.2950 -0.1006
  112MOL0     C14990   1.906   8.039   1.838  0.2845 -0.8224  1.0949
  112MOL0     C14991   2.014   8.119   1.807  0.2231 -0.8162 -0.4930
  112MOL0     C14992   2.050   8.220   1.898  0.0497  0.7611 -0.4935
  112MOL0     O14993   2.161   8.296   1.879  0.2769 -0.9289  0.3078
  112MOL0     C14994   2.230   8.304   1.753 -0.4478 -0.1678  0.4612
  112MOL0     C14995   2.335   8.412   1.770 -0.6320 -0.2444  0.9472
  112MOL0     C14996   2.403   8.423   1.634 -0.4194  0.3777  0.6759
  112MOL0     C14997   2.522   8.516   1.651 -1.2463 -0.0519  1.1949
  112MOL0     C14998   2.628   8.513   1.534  0.3309 -1.0165 -0.5321
  112MOL0     C14999   2.752   8.593   1.561  0.0742  0.6450  0.5759
  112MOL0     C15000   2.729   8.741   1.577  0.3866  0.3367  0.0532
  112MOL0     C15001   2.861   8.818   1.596 -0.4177 -0.4512 -0.2700
  112MOL0     N15002   2.958   8.826   1.489  0.0866  0.3188  0.2725
  112MOL0     C15003   2.958   8.883   1.356 -0.1910 -0.9971 -0.0365
  112MOL0     C15004   3.091   8.893   1.317 -0.5487 -0.5546 -0.5211
  112MOL0     C15005   3.144   8.941   1.183  0.1952 -0.2002  0.4662
  112MOL0     C15006   3.294   8.960   1.186 -0.0365 -0.2553 -0.0475
  112MOL0     C15007   3.351   9.077   1.264  0.2520  0.5757  0.4238
  112MOL0     C15008   3.483   9.111   1.198  0.2520 -0.1944  0.1457
  112MOL0     O15009   3.556   9.205   1.274  0.5150  0.0280 -0.3957
  112MOL0     C15010   3.694   9.223   1.262  0.6113  0.3677 -0.1070
  112MOL0     C15011   3.787   9.125   1.217  0.3563 -0.4665 -0.7203
  112MOL0     C15012   3.922   9.165   1.203 -0.2297 -0.2465 -0.3530
  112MOL0     C15013   3.958   9.298   1.238  0.5055  1.2663 -0.1627
  112MOL0     C15014   4.102   9.326   1.251  0.5500  0.2203  0.0804
  112MOL0     O15015   4.183   9.218   1.275  0.0918 -0.1687  0.6994
  112MOL0     C15016   4.317   9.221   1.254  0.5918 -0.0188  0.4686
  112MOL0     C15017   4.400   9.163   1.353  0.2006  0.3971 -0.6606
  112MOL0     C15018   4.540   9.170   1.334 -0.4096 -0.1655  0.8147
  112MOL0     C15019   4.595   9.231   1.223 -0.0751 -0.8868 -0.5738
  112MOL0     O15020   4.732   9.242   1.216  0.1002 -0.0912 -0.4888
  112MOL0     C15021   4.803   9.348   1.145  0.9690 -0.0231 -0.6679
  112MOL0     C15022   4.926   9.300   1.099  0.5011  0.0893  1.0548
  112MOL0     C15023   5.009   9.418   1.034 -0.1609 -0.1205 -0.0547
  112MOL0     C15024   5.124   9.363   0.950 -0.3341  0.8279 -0.2968
  112MOL0     C15025   5.183   9.470   0.856  0.3032  0.1308 -0.2019
  112MOL0     C15026   5.327   9.424   0.810  0.3860  0.8451 -0.1298
  112MOL0     C15027   5.444   9.465   0.912 -1.5207 -0.2941  0.6942
  112MOL0     C15028   5.574   9.479   0.828  0.2487 -0.6085 -0.3507
  112MOL0    Cl15029   5.726   9.503   0.919  0.4146  0.0655 -0.4583
  112MOL0     C15030   4.510   9.282   1.129  0.1779  0.3426  0.5981
  112MOL0     C15031   4.375   9.271   1.139  0.0737  0.1370  0.1784
  112MOL0     O15032   4.137   9.443   1.250 -0.0775  0.1992 -0.5402
  112MOL0     C15033   3.864   9.389   1.275  0.4815  0.1604  0.2143
  112MOL0     C15034   3.735   9.356   1.281  0.9859  0.1440  1.1153
  112MOL0     N15035   3.162   8.842   1.428  0.0245  0.6021  0.4516
  112MOL0     N15036   3.086   8.797   1.519 -0.0258  0.1522  0.0189
  112MOL0     C15037   1.967   8.242   2.008 -0.1729  0.0277 -0.7748
  112MOL0     C15038   1.862   8.162   2.036 -0.0786 -0.1453  0.2903
  112MOL0     C15039   1.524   7.895   2.002 -0.2175 -0.3718 -0.1330
  112MOL0     C15040   1.564   7.795   1.905  0.4819 -0.1317 -0.3569
  112MOL0     C15041   1.515   7.664   1.918  0.5570 -0.8749  0.5326
  112MOL0     C15042   1.417   7.624   2.012  0.5282 -0.8181  0.0756
  112MOL0     O15043   1.347   7.507   2.028  0.0633  0.8131  0.2946
  112MOL0     C15044   1.391   7.400   1.957 -0.2010  0.3755  0.0328
  112MOL0     C15045   1.305   7.284   1.989  0.2643  0.2359 -0.4087
  112MOL0     C15046   1.173   7.269   1.910  0.2078 -0.3152  0.0997
  112MOL0     C15047   1.086   7.152   1.969  0.2167 -0.6675 -0.1563
  112MOL0     C15048   0.961   7.156   1.904 -0.0456 -0.3709 -0.3704
  112MOL0     C15049   0.855   7.170   1.845  0.3435  0.2353  0.0162
  112MOL0     C15050   1.370   7.729   2.100  0.0880 -0.6438  0.0860
  112MOL0     C15051   1.424   7.862   2.096  1.2450  0.2025 -0.3168
  112MOL0     C15052   1.366   7.962   2.190 -0.1172  0.3017  0.2352
  112MOL0     H15053   1.888   7.956   1.770  1.2524  0.4946 -0.8703
  112MOL0     H15054   2.078   8.096   1.722  0.6038 -2.5375  0.2006
  112MOL0     H15055   2.274   8.208   1.724  1.2019  0.5156  0.6224
  112MOL0     H15056   2.155   8.335   1.679 -0.6719 -0.1819  0.6836
  112MOL0     H15057   2.397   8.377   1.853 -1.8256  1.0085  2.4152
  112MOL0     H15058   2.279   8.503   1.792  1.1489  1.4154 -0.9411
  112MOL0     H15059   2.336   8.471   1.563 -0.2605  0.7860  0.7967
  112MOL0     H15060   2.428   8.322   1.601  0.6675  0.8618 -0.0448
  112MOL0     H15061   2.501   8.619   1.682 -3.0322  1.0797 -3.0961
  112MOL0     H15062   2.585   8.485   1.735 -0.7558  2.6728  1.9376
  112MOL0     H15063   2.644   8.406   1.517 -0.0223 -1.2646  0.6560
  112MOL0     H15064   2.586   8.546   1.439 -1.7289 -0.9105  0.3603
  112MOL0     H15065   2.804   8.556   1.650 -1.2116  0.4204  1.2486
  112MOL0     H15066   2.813   8.575   1.472 -0.4785  0.6320  0.1987
  112MOL0     H15067   2.674   8.767   1.668  0.8764 -1.3878  0.8856
  112MOL0     H15068   2.670   8.776   1.492 -1.1301  2.4425  1.8156
  112MOL0     H15069   2.847   8.926   1.610  1.8197  0.1296 -1.8999
  112MOL0     H15070   2.912   8.784   1.686  3.1067  3.6305 -0.3950
  112MOL0     H15071   2.871   8.895   1.293 -0.0896 -0.3760 -0.0648
  112MOL0     H15072   3.114   8.866   1.109 -0.9456  0.0429  0.6641
  112MOL0     H15073   3.093   9.032   1.151 -0.9308 -0.2836  1.9392
  112MOL0     H15074   3.342   8.869   1.223  0.0305 -0.6347 -1.0488
  112MOL0     H15075   3.323   8.981   1.083 -2.3319 -2.4281 -1.2414
  112MOL0     H15076   3.361   9.063   1.373  0.3498  2.6816  0.7213
  112MOL0     H15077   3.290   9.166   1.251  0.1234  0.6781  1.6242
  112MOL0     H15078   3.459   9.152   1.099 -2.4572 -0.6164  0.5529
  112MOL0     H15079   3.544   9.021   1.202  2.3151  1.1340  4.3769
  112MOL0     H15080   3.765   9.020   1.199  1.3548 -0.6505 -0.8734
  112MOL0     H15081   3.989   9.091   1.159 -1.0801 -0.7372 -0.8675
  112MOL0     H15082   4.365   9.129   1.450  0.3117  1.5961 -0.1843
  112MOL0     H15083   4.606   9.116   1.401 -0.6986 -1.5422  0.0433
  112MOL0     H15084   4.736   9.391   1.070 -1.1942 -1.4013  0.3765
  112MOL0     H15085   4.820   9.429   1.216 -1.4222  0.2784 -0.3398
  112MOL0     H15086   4.977   9.258   1.186 -1.3203  0.8319  2.5479
  112MOL0     H15087   4.913   9.220   1.026 -1.9165  1.3387 -0.0224
  112MOL0     H15088   4.934   9.468   0.972  1.3032 -1.0412 -2.7147
  112MOL0     H15089   5.056   9.493   1.098 -1.3822  1.5185 -1.0113
  112MOL0     H15090   5.086   9.286   0.883  2.0012 -0.2934 -0.4374
  112MOL0     H15091   5.197   9.316   1.016 -1.0795  0.4576  0.2775
  112MOL0     H15092   5.189   9.559   0.920  0.5999  0.5160 -0.7609
  112MOL0     H15093   5.121   9.487   0.769  0.3071  1.9137  0.1201
  112MOL0     H15094   5.333   9.318   0.784 -0.9839  1.2007 -2.0767
  112MOL0     H15095   5.348   9.483   0.720  1.7342 -0.2013 -0.5260
  112MOL0     H15096   5.461   9.388   0.987 -3.2817 -1.3219  0.0851
  112MOL0     H15097   5.425   9.560   0.962  0.7455  1.2092 -1.0685
  112MOL0     H15098   5.585   9.386   0.771 -0.5695 -1.0462  0.1858
  112MOL0     H15099   5.554   9.564   0.762 -3.1536 -1.2143 -0.2745
  112MOL0     H15100   4.534   9.321   1.031 -1.1215 -0.7500 -0.1800
  112MOL0     H15101   4.304   9.295   1.060  0.1992 -1.9079 -0.6237
  112MOL0     H15102   3.894   9.490   1.301  3.1449 -0.4656 -0.0409
  112MOL0     H15103   3.668   9.426   1.330 -0.2602 -0.1268 -0.1157
  112MOL0     H15104   1.998   8.316   2.081 -1.5444 -2.3972  2.4786
  112MOL0     H15105   1.816   8.185   2.132  2.6502 -0.3697  1.7427
  112MOL0     H15106   1.640   7.814   1.830  3.1518 -1.1166  1.9374
  112MOL0     H15107   1.549   7.587   1.849  1.6525  0.7335 -0.8180
  112MOL0     H15108   1.495   7.375   1.981 -0.7784 -2.5442 -0.1151
  112MOL0     H15109   1.386   7.421   1.850  0.4596  1.3700  0.1798
  112MOL0     H15110   1.265   7.296   2.090 -3.1137  1.4257 -1.7307
  112MOL0     H15111   1.362   7.191   1.982 -1.3914 -0.7120 -2.1764
  112MOL0     H15112   1.195   7.255   1.804  0.3929  0.5153  0.0273
  112MOL0     H15113   1.124   7.366   1.919 -0.6695 -0.6882 -0.5635
  112MOL0     H15114   1.134   7.060   1.938  4.8192  2.1180 -2.3670
  112MOL0     H15115   1.059   7.151   2.075 -0.6002  1.8701 -0.2485
  112MOL0     H15116   0.764   7.196   1.796 -0.4703  1.3810  1.9983
  112MOL0     H15117   1.286   7.705   2.165 -0.8894  0.0642 -0.8826
  112MOL0     H15118   1.276   7.920   2.237  0.0667  2.4275  2.6900
  112MOL0     H15119   1.441   7.981   2.267 -2.3717  2.4312  2.0487
  112MOL0     H15120   1.324   8.046   2.134  0.3270  0.3089 -0.0878
  113MOL0     O15121   5.053  11.157   8.233 -0.5632  0.2529  0.0532
  113MOL0     C15122   4.989  11.191   8.137  0.6018 -0.3019 -0.3073
  113MOL0     O15123   5.021  11.160   8.005 -0.5193 -1.4155 -0.3586
  113MOL0     C15124   5.145  11.114   7.970  0.0931  0.1160  0.0160
  113MOL0     C15125   5.262  11.149   8.036 -0.0561 -0.2676  0.6494
  113MOL0     C15126   5.389  11.080   8.009 -0.5613  0.2953 -0.9171
  113MOL0     C15127   5.390  10.985   7.907  0.3754  1.5077  0.2690
  113MOL0     O15128   5.499  10.909   7.858  0.3829 -0.6073  0.2866
  113MOL0     C15129   5.621  10.929   7.922 -0.4860  0.0398  0.4789
  113MOL0     C15130   5.731  10.839   7.870 -0.0169  0.3131  0.8326
  113MOL0     C15131   5.865  10.857   7.928  0.2980 -0.6463  0.0948
  113MOL0     C15132   5.973  10.795   7.836 -0.5488  0.0164  0.0909
  113MOL0     C15133   5.952  10.640   7.798  0.3692 -1.0418 -0.5159
  113MOL0     C15134   6.081  10.578   7.731  0.5161  0.1352  0.1585
  113MOL0     C15135   6.183  10.531   7.828 -1.0788 -0.7453 -0.3698
  113MOL0     C15136   6.186  10.373   7.846 -0.8995 -0.5045  0.0243
  113MOL0     N15137   6.298  10.314   7.913  0.1592 -0.5152  0.3694
  113MOL0     C15138   6.293  10.226   8.027 -0.5660  0.2481  0.5595
  113MOL0     C15139   6.425  10.200   8.057  0.6594  0.1759  0.0968
  113MOL0     C15140   6.482  10.113   8.167 -0.6634  0.0187  0.4357
  113MOL0     C15141   6.614  10.054   8.126  0.2137 -0.0116 -0.1545
  113MOL0     C15142   6.686   9.961   8.225  0.5886 -0.7708  0.1915
  113MOL0     C15143   6.824   9.912   8.185 -0.9179 -0.4170  1.3652
  113MOL0     O15144   6.901   9.855   8.284 -0.9434  0.0082 -0.4279
  113MOL0     C15145   7.031   9.810   8.261  0.2368  0.5407 -0.5646
  113MOL0     C15146   7.106   9.835   8.147  0.2436  0.5891 -0.3608
  113MOL0     C15147   7.238   9.792   8.128 -1.1450 -0.6843 -1.0754
  113MOL0     C15148   7.305   9.730   8.235 -0.1508 -0.5707  0.2381
  113MOL0     C15149   7.451   9.705   8.224 -0.6722  0.1163  0.1641
  113MOL0     O15150   7.498   9.626   8.328 -0.5182  1.0474 -0.7157
  113MOL0     C15151   7.635   9.596   8.333  0.3097  0.0975 -0.7514
  113MOL0     C15152   7.669   9.464   8.328 -0.1923  0.5471  0.2199
  113MOL0     C15153   7.800   9.415   8.349 -0.2336  0.1304  0.3195
  113MOL0     C15154   7.905   9.505   8.375 -0.1793 -0.8448 -0.4608
  113MOL0     O15155   8.030   9.455   8.410  0.7148 -0.0393  0.4887
  113MOL0     C15156   8.130   9.558   8.447  0.4618 -0.7970 -0.0590
  113MOL0     C15157   8.251   9.496   8.508 -0.0584  0.0101  1.2585
  113MOL0     C15158   8.328   9.411   8.401 -0.7283  0.2689 -0.5571
  113MOL0     C15159   8.439   9.336   8.466  0.5830  0.3939  0.3562
  113MOL0     C15160   8.470   9.194   8.411  0.0699 -0.5453  0.0194
  113MOL0     C15161   8.619   9.162   8.425 -1.1355  0.4099  0.2775
  113MOL0     C15162   8.668   9.015   8.402  0.6061  0.6208 -0.5681
  113MOL0     C15163   8.641   8.971   8.258 -0.0566  0.0013  0.6087
  113MOL0    Cl15164   8.750   9.045   8.138 -0.0604 -0.1164 -0.3133
  113MOL0     C15165   7.867   9.645   8.360 -0.5645 -0.7989 -0.1087
  113MOL0     C15166   7.734   9.688   8.348  0.4575  1.0834 -1.1057
  113MOL0     O15167   7.516   9.760   8.132  0.1997  0.6410  0.3359
  113MOL0     C15168   7.230   9.695   8.346 -0.0509 -0.0379  0.7995
  113MOL0     C15169   7.098   9.734   8.362 -0.0615  0.4815  0.0845
  113MOL0     N15170   6.497  10.268   7.966  0.1095  0.9379 -0.2514
  113MOL0     N15171   6.428  10.314   7.871 -0.4401 -1.2777 -0.3173
  113MOL0     C15172   5.272  10.969   7.831  0.3036  0.1499  0.5756
  113MOL0     C15173   5.147  11.026   7.866  0.7585  0.2970 -0.2143
  113MOL0     C15174   4.867  11.286   8.160 -1.2890  0.0186 -0.3151
  113MOL0     C15175   4.834  11.299   8.298  0.5605  0.6415  0.2957
  113MOL0     C15176   4.721  11.370   8.327 -0.3423  0.4706 -0.7842
  113MOL0     C15177   4.647  11.438   8.237 -0.3888  0.9187  0.0113
  113MOL0     O15178   4.528  11.497   8.279 -0.0924 -0.2487  0.1638
  113MOL0     C15179   4.434  11.559   8.194 -0.0616  0.4865 -0.4092
  113MOL0     C15180   4.341  11.454   8.137  0.8215 -0.0153  0.1561
  113MOL0     C15181   4.262  11.377   8.246  0.7790  0.2979 -0.4708
  113MOL0     C15182   4.145  11.450   8.311 -0.2879  0.0652 -0.9062
  113MOL0     C15183   4.034  11.472   8.220  0.3578  0.0325  0.3631
  113MOL0     C15184   3.931  11.503   8.162 -1.2279  0.3803 -0.7589
  113MOL0     C15185   4.684  11.433   8.105 -0.5380 -0.8680  0.2280
  113MOL0     C15186   4.798  11.364   8.064  0.4067 -0.3591 -0.3175
  113MOL0     C15187   4.845  11.376   7.924  0.1407 -0.1426  0.5799
  113MOL0     H15188   5.260  11.228   8.111  2.1064 -1.5831  2.2112
  113MOL0     H15189   5.482  11.122   8.046 -0.4585  0.2835 -1.1659
  113MOL0     H15190   5.654  11.032   7.912 -2.1347  0.6408  0.9419
  113MOL0     H15191   5.619  10.920   8.031  0.5991 -3.9425  0.3265
  113MOL0     H15192   5.746  10.855   7.763 -1.5351 -1.7572  0.2591
  113MOL0     H15193   5.704  10.736   7.896  0.8202  0.1639  1.1646
  113MOL0     H15194   5.874  10.820   8.031 -0.8389 -1.6075 -0.1369
  113MOL0     H15195   5.902  10.959   7.942 -0.3470 -0.6650  2.3885
  113MOL0     H15196   5.976  10.841   7.736  1.2489  0.5566  0.3651
  113MOL0     H15197   6.072  10.816   7.876  0.6168  1.5873 -3.2754
  113MOL0     H15198   5.936  10.581   7.889  1.4253 -0.6787 -0.0778
  113MOL0     H15199   5.866  10.635   7.731  1.5739 -1.8560 -2.0761
  113MOL0     H15200   6.055  10.493   7.667 -0.6360  1.2174 -0.8836
  113MOL0     H15201   6.127  10.661   7.678  2.5045  0.8818  2.8385
  113MOL0     H15202   6.170  10.582   7.924  1.6872  1.1091 -0.8347
  113MOL0     H15203   6.280  10.577   7.806 -1.6085  1.4994  1.4906
  113MOL0     H15204   6.097  10.339   7.898 -0.2700 -3.3283 -0.6088
  113MOL0     H15205   6.185  10.331   7.745 -0.2478  0.0979 -0.2429
  113MOL0     H15206   6.208  10.178   8.075 -0.7434 -1.0092 -0.9505
  113MOL0     H15207   6.495  10.178   8.254 -0.5843  2.4675 -1.2804
  113MOL0     H15208   6.411  10.042   8.208  0.5019 -1.0422  0.6983
  113MOL0     H15209   6.597   9.994   8.036 -1.5094 -0.7183  0.5834
  113MOL0     H15210   6.684  10.134   8.100 -3.1955  2.2101 -3.4951
  113MOL0     H15211   6.615   9.883   8.254 -1.5689  0.4895 -1.4005
  113MOL0     H15212   6.692  10.028   8.310 -2.2079  1.7625 -1.4223
  113MOL0     H15213   6.876  10.005   8.159  1.2193 -1.6124  1.0737
  113MOL0     H15214   6.830   9.853   8.093  0.7892  0.2213  1.0264
  113MOL0     H15215   7.069   9.885   8.058  0.6267  0.7826 -0.4122
  113MOL0     H15216   7.307   9.817   8.048  1.3813 -0.5960  0.9966
  113MOL0     H15217   7.591   9.393   8.304  2.6009 -3.5374  2.0026
  113MOL0     H15218   7.817   9.309   8.333  0.1285  0.1885  0.2989
  113MOL0     H15219   8.158   9.616   8.359 -0.0881  0.3767  0.5161
  113MOL0     H15220   8.099   9.630   8.524 -0.6588 -0.5530 -0.7160
  113MOL0     H15221   8.324   9.568   8.548  1.6540  0.5633 -2.4339
  113MOL0     H15222   8.205   9.431   8.582 -0.8475 -1.3470 -0.3503
  113MOL0     H15223   8.260   9.335   8.364  0.5799  0.8427 -4.5740
  113MOL0     H15224   8.366   9.490   8.335 -0.4697  1.7455  1.2439
  113MOL0     H15225   8.427   9.319   8.574 -1.1159 -1.2686 -0.0411
  113MOL0     H15226   8.536   9.388   8.463  0.8207 -0.1015 -1.4879
  113MOL0     H15227   8.439   9.191   8.306  3.4934  3.4915 -1.3965
  113MOL0     H15228   8.411   9.116   8.460  0.3550 -0.6695  0.1704
  113MOL0     H15229   8.683   9.222   8.360  1.6754  0.1914  2.6338
  113MOL0     H15230   8.658   9.202   8.519  1.9526  1.2039 -1.2160
  113MOL0     H15231   8.613   8.954   8.474  0.1364  1.9701  0.2517
  113MOL0     H15232   8.773   9.017   8.433  0.0555 -1.9029  1.8414
  113MOL0     H15233   8.633   8.863   8.238  0.3314 -0.2523  1.7328
  113MOL0     H15234   8.540   8.999   8.227 -1.1802 -2.9953  1.2277
  113MOL0     H15235   7.936   9.728   8.374 -3.7592  1.9055  0.9061
  113MOL0     H15236   7.716   9.795   8.357 -2.0657  0.5099  3.0980
  113MOL0     H15237   7.276   9.640   8.428 -3.0780 -2.1116  1.2596
  113MOL0     H15238   7.048   9.715   8.456 -1.3006  1.0432 -0.4440
  113MOL0     H15239   5.274  10.897   7.751  0.6379  1.7738 -0.9474
  113MOL0     H15240   5.056  11.003   7.812  0.5003 -1.4081  0.8705
  113MOL0     H15241   4.890  11.245   8.373  0.0180  1.3758  1.2663
  113MOL0     H15242   4.685  11.365   8.429  0.7169  1.2854 -0.3435
  113MOL0     H15243   4.483  11.616   8.114  1.3374 -0.9608 -0.6252
  113MOL0     H15244   4.375  11.632   8.251  0.7495  0.9715 -0.1767
  113MOL0     H15245   4.398  11.373   8.091 -2.6629 -0.8506 -3.2594
  113MOL0     H15246   4.270  11.502   8.068  1.9629  1.1701 -0.2406
  113MOL0     H15247   4.332  11.342   8.324 -1.9816 -1.2420  1.4955
  113MOL0     H15248   4.215  11.286   8.208  1.8139 -0.0746 -0.8913
  113MOL0     H15249   4.106  11.397   8.398 -0.3078 -0.3651 -1.1716
  113MOL0     H15250   4.183  11.547   8.344  0.6949 -1.0802  1.5804
  113MOL0     H15251   3.846  11.518   8.099 -0.6030 -1.4296 -2.0979
  113MOL0     H15252   4.631  11.495   8.035 -3.6953 -2.7206  0.7893
  113MOL0     H15253   4.952  11.399   7.927  0.6439  0.0872 -5.9497
  113MOL0     H15254   4.823  11.288   7.862  0.5253  2.5533 -3.7678
  113MOL0     H15255   4.795  11.455   7.867  0.5765 -0.1501  0.1832
  114MOL0     O15256   7.331   5.925   4.124  0.3172 -0.7531 -0.1046
  114MOL0     C15257   7.251   5.949   4.030  0.0445 -0.2233 -0.5377
  114MOL0     O15258   7.284   6.029   3.921  0.0306 -0.0473 -0.0258
  114MOL0     C15259   7.419   6.059   3.895 -0.4709 -0.2765  0.0790
  114MOL0     C15260   7.510   5.953   3.857  0.7047 -0.6724  0.4799
  114MOL0     C15261   7.646   5.980   3.837 -0.1559 -0.1739  0.9362
  114MOL0     C15262   7.694   6.113   3.848 -0.0500 -0.0405 -0.9907
  114MOL0     O15263   7.839   6.116   3.840  0.3597  0.2468 -0.3964
  114MOL0     C15264   7.885   6.253   3.833  0.2308  0.7740  0.3101
  114MOL0     C15265   8.044   6.262   3.803  0.7072 -0.3992 -0.0336
  114MOL0     C15266   8.082   6.410   3.767  0.0017 -0.5319 -0.6840
  114MOL0     C15267   8.190   6.408   3.667 -0.4481  0.0962  0.7005
  114MOL0     C15268   8.283   6.536   3.661 -0.7960  0.3914  0.2968
  114MOL0     C15269   8.387   6.494   3.559  0.2027 -0.0987  0.1628
  114MOL0     C15270   8.487   6.616   3.546  0.3771  1.0116 -0.0139
  114MOL0     C15271   8.587   6.605   3.427  0.2128 -0.5143 -0.5246
  114MOL0     N15272   8.685   6.720   3.417  0.6134 -0.1711  0.7377
  114MOL0     C15273   8.656   6.845   3.366 -0.0261 -0.8275  0.3683
  114MOL0     C15274   8.777   6.910   3.371 -0.1207 -0.0084 -0.3627
  114MOL0     C15275   8.794   7.060   3.345  1.0123  1.1804  0.3397
  114MOL0     C15276   8.896   7.094   3.242  0.6158 -0.5302 -0.2458
  114MOL0     C15277   9.030   7.096   3.312 -0.9375 -0.3242  0.1209
  114MOL0     C15278   9.140   7.134   3.213  0.3154 -0.6586  0.4456
  114MOL0     O15279   9.269   7.082   3.253  0.2084  0.1849 -0.7216
  114MOL0     C15280   9.378   7.113   3.177 -0.3852 -0.6507  0.6887
  114MOL0     C15281   9.379   7.213   3.084 -0.4667 -0.1968  0.0840
  114MOL0     C15282   9.494   7.226   2.994  0.5215 -0.4661 -0.0941
  114MOL0     C15283   9.611   7.155   3.023 -0.1980  0.0097  0.7443
  114MOL0     C15284   9.739   7.174   2.951 -0.2348 -0.2666 -0.5601
  114MOL0     O15285   9.846   7.095   2.988 -0.4957  0.2037  0.3848
  114MOL0     C15286   9.955   7.101   2.902 -0.4949 -0.5664 -0.2848
  114MOL0     C15287  10.048   7.201   2.926 -0.0686 -0.2076  0.1537
  114MOL0     C15288  10.162   7.200   2.847 -1.0447 -0.0653 -0.1000
  114MOL0     C15289  10.177   7.104   2.744  0.3780 -0.1094 -0.5636
  114MOL0     O15290  10.297   7.093   2.680  0.6629  0.5698 -0.0809
  114MOL0     C15291  10.394   7.194   2.689 -0.3832  0.0189  0.3118
  114MOL0     C15292  10.506   7.169   2.582 -0.3299 -0.6142 -0.1448
  114MOL0     C15293  10.610   7.280   2.565 -0.9445  0.1587 -0.2118
  114MOL0     C15294  10.715   7.282   2.676 -0.6534  0.1445  0.1336
  114MOL0     C15295  10.807   7.412   2.669  0.7639  0.6565  0.1410
  114MOL0     C15296  10.935   7.397   2.587 -0.8443  0.4657 -0.0947
  114MOL0     C15297  11.007   7.534   2.577  0.2109  0.0803  0.0104
  114MOL0     C15298  11.125   7.535   2.488 -0.3191  0.1785  0.1946
  114MOL0    Cl15299  11.087   7.487   2.318 -0.1501  0.3633  0.2343
  114MOL0     C15300  10.083   7.009   2.725  0.4332 -0.3597  0.0624
  114MOL0     C15301   9.966   7.005   2.803 -0.2707 -0.0815  0.3757
  114MOL0     O15302   9.744   7.256   2.863  0.5146  0.8179 -0.6113
  114MOL0     C15303   9.606   7.049   3.121  0.5880  0.2572  0.4102
  114MOL0     C15304   9.487   7.027   3.192 -0.5686 -0.7588  0.1387
  114MOL0     N15305   8.876   6.825   3.417  0.3105  0.6613 -0.6654
  114MOL0     N15306   8.821   6.706   3.441 -0.6859  0.2717 -0.1684
  114MOL0     C15307   7.605   6.215   3.872  0.3316 -0.7943 -0.1370
  114MOL0     C15308   7.466   6.187   3.896  0.0243  0.2503 -0.0681
  114MOL0     C15309   7.105   5.919   4.034  0.4515 -0.0448 -0.6583
  114MOL0     C15310   7.031   5.936   3.915  0.4751  1.1964 -0.6375
  114MOL0     C15311   6.905   5.898   3.901  1.1066  0.0508  0.9611
  114MOL0     C15312   6.834   5.837   3.996  0.3362 -0.0150 -0.2614
  114MOL0     O15313   6.701   5.808   3.969  0.6154  0.8160  0.2791
  114MOL0     C15314   6.607   5.791   4.076  0.2061 -0.0504 -1.2032
  114MOL0     C15315   6.471   5.757   3.996  0.3724  0.0755  0.0250
  114MOL0     C15316   6.359   5.771   4.105 -0.4256 -0.7115 -0.5469
  114MOL0     C15317   6.223   5.756   4.044  0.6341 -0.0924  0.3139
  114MOL0     C15318   6.130   5.784   4.154  0.5261  0.4019 -0.9973
  114MOL0     C15319   6.054   5.779   4.252  0.3107  0.9547  0.6026
  114MOL0     C15320   6.893   5.819   4.119  0.5661  0.7034  0.1581
  114MOL0     C15321   7.023   5.854   4.144 -0.9821 -0.1357  0.1072
  114MOL0     C15322   7.075   5.837   4.283 -0.6525  0.1451 -0.2610
  114MOL0     H15323   7.472   5.852   3.847 -0.4250 -0.3292  1.1488
  114MOL0     H15324   7.710   5.896   3.811  0.5855  0.4753  0.6250
  114MOL0     H15325   7.831   6.305   3.754 -0.1877 -2.9143 -2.1016
  114MOL0     H15326   7.876   6.291   3.935 -0.1937  2.1158 -0.2104
  114MOL0     H15327   8.053   6.193   3.719 -0.8359  1.9669 -2.3150
  114MOL0     H15328   8.100   6.236   3.893 -1.1963 -0.6740  1.1208
  114MOL0     H15329   8.113   6.464   3.856 -1.6735  0.7099 -0.8085
  114MOL0     H15330   7.992   6.462   3.733 -1.4573 -1.7997  1.0321
  114MOL0     H15331   8.254   6.324   3.695 -1.7816 -0.9294  0.7576
  114MOL0     H15332   8.144   6.396   3.568  2.2854  0.5034 -0.7085
  114MOL0     H15333   8.225   6.619   3.620  1.7261  1.9262 -0.3819
  114MOL0     H15334   8.317   6.564   3.761 -0.7229  0.7499  0.1724
  114MOL0     H15335   8.439   6.405   3.595 -2.8454 -1.7003  0.9552
  114MOL0     H15336   8.339   6.470   3.463  2.4365 -2.0045 -0.5573
  114MOL0     H15337   8.544   6.620   3.639  0.5540 -1.6073  0.0538
  114MOL0     H15338   8.423   6.704   3.536 -2.1479 -0.8093 -1.1414
  114MOL0     H15339   8.639   6.509   3.435 -2.2048 -1.8664  0.1390
  114MOL0     H15340   8.529   6.594   3.335 -1.0053 -3.4727  0.4676
  114MOL0     H15341   8.558   6.890   3.351 -0.1324 -0.7755  1.2194
  114MOL0     H15342   8.695   7.090   3.309  0.6695  0.8682  1.0148
  114MOL0     H15343   8.808   7.119   3.436 -2.5293  1.1012  1.0836
  114MOL0     H15344   8.887   7.017   3.164 -0.1429 -0.9254  0.2147
  114MOL0     H15345   8.880   7.197   3.210 -0.2973 -0.3034  0.8662
  114MOL0     H15346   9.037   6.991   3.343 -0.6302 -0.4017 -0.2030
  114MOL0     H15347   9.026   7.161   3.399  1.1750  2.8984 -1.9892
  114MOL0     H15348   9.142   7.243   3.204 -0.2767 -0.6009  0.9301
  114MOL0     H15349   9.114   7.106   3.111 -2.1989 -2.1386  1.3930
  114MOL0     H15350   9.297   7.283   3.067  0.0727  0.8076  1.4309
  114MOL0     H15351   9.483   7.306   2.921 -1.4557  0.2617  0.9318
  114MOL0     H15352  10.029   7.268   3.009 -1.3833  1.9729 -1.7837
  114MOL0     H15353  10.234   7.275   2.878  0.1869 -0.8801 -0.9186
  114MOL0     H15354  10.336   7.281   2.658 -1.5022 -0.6386  0.5206
  114MOL0     H15355  10.446   7.200   2.786  1.1249  0.0100 -0.4595
  114MOL0     H15356  10.545   7.067   2.592 -0.3280 -0.4870  1.3208
  114MOL0     H15357  10.446   7.170   2.491 -1.3495 -0.8335  0.5175
  114MOL0     H15358  10.660   7.267   2.469 -3.5769  0.8129 -1.8014
  114MOL0     H15359  10.559   7.377   2.561 -1.3901  0.1575  2.7500
  114MOL0     H15360  10.779   7.194   2.671 -2.0901 -0.9093 -0.0473
  114MOL0     H15361  10.662   7.289   2.771  3.3051  2.3259  2.4785
  114MOL0     H15362  10.834   7.435   2.772  0.0703 -1.4692  0.8586
  114MOL0     H15363  10.741   7.480   2.616 -1.8539  0.6310  3.1084
  114MOL0     H15364  11.004   7.316   2.615 -0.7559  1.3255  2.3840
  114MOL0     H15365  10.892   7.376   2.489 -2.6349 -0.6527  0.8954
  114MOL0     H15366  11.042   7.569   2.674  1.0416 -0.3826 -0.1082
  114MOL0     H15367  10.946   7.611   2.529  1.1880  0.2668 -0.9782
  114MOL0     H15368  11.166   7.636   2.484  0.6550 -0.2482 -1.2973
  114MOL0     H15369  11.200   7.468   2.531  0.3520 -1.9841 -3.9079
  114MOL0     H15370  10.088   6.939   2.643  2.4293 -0.9475  0.6396
  114MOL0     H15371   9.888   6.933   2.780 -1.5510  1.2326  0.3764
  114MOL0     H15372   9.698   6.997   3.146  0.6052  0.4119  0.6803
  114MOL0     H15373   9.479   6.949   3.267 -1.6694  0.3447  1.2224
  114MOL0     H15374   7.640   6.318   3.874 -0.6316 -0.4135 -1.8455
  114MOL0     H15375   7.400   6.270   3.917 -1.8717 -1.5955  1.7860
  114MOL0     H15376   7.071   5.982   3.825 -3.4155  2.5303 -1.9041
  114MOL0     H15377   6.856   5.903   3.804 -0.1647 -1.5750  1.4734
  114MOL0     H15378   6.601   5.875   4.146  2.4493 -1.2712  0.6256
  114MOL0     H15379   6.639   5.706   4.137 -0.3296 -0.8041 -1.9478
  114MOL0     H15380   6.471   5.654   3.961 -0.3394 -0.4114  1.4066
  114MOL0     H15381   6.448   5.827   3.915  1.0817  1.3377  0.8623
  114MOL0     H15382   6.372   5.865   4.160 -1.0130 -0.4224 -0.8826
  114MOL0     H15383   6.373   5.691   4.178 -0.4600 -1.3265 -1.2008
  114MOL0     H15384   6.207   5.831   3.966 -1.1966 -0.6241  0.1517
  114MOL0     H15385   6.199   5.663   3.993  1.1978 -1.0588  1.7327
  114MOL0     H15386   5.981   5.765   4.329  0.2790  1.5055  0.6772
  114MOL0     H15387   6.832   5.772   4.196 -0.6025  0.9504 -0.5856
  114MOL0     H15388   7.115   5.736   4.291 -3.5810 -1.0056  1.4104
  114MOL0     H15389   7.152   5.914   4.298  0.8847 -0.9155 -2.2400
  114MOL0     H15390   7.000   5.842   4.363  1.8791  1.0760  2.2127
  115MOL0     O15391   3.598   2.414  11.229  0.1166 -0.5088 -0.8839
  115MOL0     C15392   3.515   2.351  11.167 -0.8465  0.4776 -0.3675
  115MOL0     O15393   3.553   2.246  11.087  0.1413 -0.3296  0.0778
  115MOL0     C15394   3.680   2.204  11.063 -0.5886 -0.2403  0.3121
  115MOL0     C15395   3.696   2.066  11.062  0.6236 -1.5217  0.9059
  115MOL0     C15396   3.824   2.019  11.053 -0.0849 -0.0548  0.4716
  115MOL0     C15397   3.938   2.088  11.024  0.1682 -0.4649 -0.0856
  115MOL0     O15398   4.054   2.013  10.998  0.3165  0.3436  0.2122
  115MOL0     C15399   4.153   2.090  10.930  0.7686  0.0011  0.3743
  115MOL0     C15400   4.254   1.995  10.869 -0.2237  0.0894  0.1252
  115MOL0     C15401   4.347   2.073  10.774 -0.3421  0.0356  0.0185
  115MOL0     C15402   4.459   1.972  10.729  0.5277 -0.3807 -0.5634
  115MOL0     C15403   4.565   2.049  10.642  0.5105  0.7325 -0.0020
  115MOL0     C15404   4.656   1.936  10.585 -0.1899  0.0596 -0.2534
  115MOL0     C15405   4.776   1.986  10.501  0.3293 -1.3331  1.0802
  115MOL0     C15406   4.879   2.075  10.568 -0.8813 -0.6210 -0.4502
  115MOL0     N15407   4.994   2.090  10.475  0.7748  0.0847  0.3277
  115MOL0     C15408   5.118   2.035  10.484  1.0959 -0.0052 -0.1392
  115MOL0     C15409   5.199   2.097  10.398 -0.6338 -0.1832 -0.6646
  115MOL0     C15410   5.343   2.055  10.374 -0.5593 -0.3388  0.1030
  115MOL0     C15411   5.343   1.981  10.234  0.1495  0.3603  0.2756
  115MOL0     C15412   5.305   1.833  10.231 -0.2189  0.0255  0.8669
  115MOL0     C15413   5.301   1.764  10.092 -0.0385 -0.7288  0.0197
  115MOL0     O15414   5.414   1.765  10.006 -0.1261 -0.4463  0.0590
  115MOL0     C15415   5.538   1.717  10.054 -0.0521  0.1929 -0.4524
  115MOL0     C15416   5.651   1.759   9.992 -0.5728 -0.1362 -0.0190
  115MOL0     C15417   5.780   1.705  10.045 -0.4815 -0.0615  0.4501
  115MOL0     C15418   5.794   1.610  10.149 -0.0625 -0.3187  0.3172
  115MOL0     C15419   5.923   1.565  10.196  0.2730  0.0752 -0.6209
  115MOL0     O15420   6.028   1.603  10.115 -0.4401  0.3619  0.5780
  115MOL0     C15421   6.155   1.564  10.139 -0.3034 -0.6114 -0.6543
  115MOL0     C15422   6.194   1.437  10.094 -0.7159 -0.1533  0.0988
  115MOL0     C15423   6.325   1.388  10.109 -0.4595  0.1162  0.1121
  115MOL0     C15424   6.413   1.467  10.180 -0.5058  0.0696  0.1173
  115MOL0     O15425   6.542   1.407  10.183  0.4340  0.1555 -0.2530
  115MOL0     C15426   6.653   1.472  10.236 -0.1506  0.2769  0.3528
  115MOL0     C15427   6.689   1.586  10.142  0.0451 -0.1016  0.6826
  115MOL0     C15428   6.816   1.565  10.068 -0.1662  0.0129  0.4090
  115MOL0     C15429   6.863   1.682   9.980 -0.4625 -0.1747 -0.2609
  115MOL0     C15430   7.016   1.683   9.969  0.7908  0.3183  0.0148
  115MOL0     C15431   7.068   1.550   9.911 -1.0430 -0.0769 -0.0314
  115MOL0     C15432   7.204   1.511   9.969 -0.2207  0.0223 -0.8862
  115MOL0     C15433   7.270   1.407   9.882  0.7142  0.0303  0.5251
  115MOL0    Cl15434   7.420   1.363   9.977 -0.2122  0.2917  0.5488
  115MOL0     C15435   6.375   1.593  10.232 -0.7357 -0.3049 -0.3910
  115MOL0     C15436   6.241   1.644  10.216  1.4437  0.0666  0.3772
  115MOL0     O15437   5.932   1.504  10.300  0.1166 -0.2455 -0.0287
  115MOL0     C15438   5.672   1.574  10.212 -1.3643  0.5603 -0.1854
  115MOL0     C15439   5.552   1.634  10.162  1.2502 -0.1749  0.3962
  115MOL0     N15440   5.122   2.192  10.331 -0.4294 -0.1242  0.3487
  115MOL0     N15441   5.000   2.179  10.370 -0.2203 -0.1551 -0.2257
  115MOL0     C15442   3.918   2.227  11.039  0.3349  0.8457  0.1366
  115MOL0     C15443   3.795   2.286  11.055  1.2798 -0.6077  0.0030
  115MOL0     C15444   3.368   2.394  11.195 -0.0660  0.3869 -0.0760
  115MOL0     C15445   3.275   2.305  11.135  0.0740 -0.4138  0.5843
  115MOL0     C15446   3.143   2.321  11.155  0.0846  0.0854 -0.1012
  115MOL0     C15447   3.089   2.429  11.228 -0.5535  0.6220 -1.0798
  115MOL0     O15448   2.961   2.414  11.257 -0.3008  0.0116 -0.1018
  115MOL0     C15449   2.893   2.513  11.332 -0.1676 -0.0505 -0.3746
  115MOL0     C15450   2.884   2.458  11.481  0.1974  1.0399  0.4674
  115MOL0     C15451   2.789   2.552  11.552  0.5580 -0.3379 -0.7069
  115MOL0     C15452   2.636   2.523  11.526 -0.2634  0.6394  0.1722
  115MOL0     C15453   2.568   2.651  11.519 -0.3848 -0.5499 -0.1077
  115MOL0     C15454   2.508   2.758  11.520 -0.6359 -0.4281  1.3055
  115MOL0     C15455   3.180   2.525  11.280  0.0072  0.1420 -0.0329
  115MOL0     C15456   3.322   2.499  11.273 -0.7651 -0.8511  0.8382
  115MOL0     C15457   3.416   2.596  11.332 -0.6940  0.1879  0.1805
  115MOL0     H15458   3.607   2.007  11.081 -0.4823 -0.5123 -0.9613
  115MOL0     H15459   3.837   1.911  11.063 -1.0377 -0.4048 -1.6621
  115MOL0     H15460   4.109   2.156  10.854  0.3911 -1.1521 -0.4246
  115MOL0     H15461   4.202   2.158  11.001  1.8629 -0.5204  0.1334
  115MOL0     H15462   4.196   1.909  10.836  0.7830 -1.0029  1.1365
  115MOL0     H15463   4.320   1.965  10.951 -0.3553 -5.2734 -1.3951
  115MOL0     H15464   4.402   2.153  10.826 -0.3350  2.1600 -2.9914
  115MOL0     H15465   4.290   2.112  10.690 -2.3236  0.3228  1.4203
  115MOL0     H15466   4.507   1.923  10.814 -0.1366  0.2893  0.2171
  115MOL0     H15467   4.414   1.888  10.675  1.3988 -1.7109  0.6929
  115MOL0     H15468   4.518   2.101  10.558 -1.2328 -0.8384 -0.0607
  115MOL0     H15469   4.628   2.121  10.694  2.1603 -0.2773 -0.5107
  115MOL0     H15470   4.698   1.881  10.670  0.2437  1.2883  0.3498
  115MOL0     H15471   4.591   1.870  10.526 -0.6766  0.8723 -0.6330
  115MOL0     H15472   4.735   2.051  10.423  0.5923 -1.9048  0.4576
  115MOL0     H15473   4.831   1.908  10.448 -1.0816 -0.3692 -2.0381
  115MOL0     H15474   4.854   2.178  10.593  0.3018 -0.3479 -0.3300
  115MOL0     H15475   4.924   2.030  10.657  1.2303  1.4326 -0.3791
  115MOL0     H15476   5.143   1.956  10.554 -0.8397 -0.3430  0.2199
  115MOL0     H15477   5.408   2.142  10.357 -2.2412  0.7790 -0.9210
  115MOL0     H15478   5.387   1.993  10.453  0.3733 -1.0135 -0.9207
  115MOL0     H15479   5.297   2.036  10.151  1.1111 -1.6510 -1.7177
  115MOL0     H15480   5.444   1.978  10.193 -1.1142  0.1114 -3.1904
  115MOL0     H15481   5.209   1.816  10.280 -0.4287 -0.5289  0.2897
  115MOL0     H15482   5.371   1.780  10.299 -0.0458 -2.0540 -0.8011
  115MOL0     H15483   5.214   1.810  10.045 -1.6032 -0.6819  2.7438
  115MOL0     H15484   5.272   1.660  10.108 -2.0255 -0.2764 -0.3186
  115MOL0     H15485   5.671   1.841   9.924  1.0201  2.5978  3.3876
  115MOL0     H15486   5.859   1.761   9.997 -0.6604  1.6594  2.0588
  115MOL0     H15487   6.131   1.367  10.041  0.7301  0.2020 -2.2053
  115MOL0     H15488   6.370   1.295  10.074 -0.1329 -0.0077  0.8512
  115MOL0     H15489   6.632   1.530  10.327 -1.4981  3.2845 -1.7113
  115MOL0     H15490   6.742   1.411  10.257  0.4157  1.6480  2.2143
  115MOL0     H15491   6.611   1.616  10.071  0.9597 -1.2589 -0.8692
  115MOL0     H15492   6.704   1.677  10.200  2.3034  0.2322 -0.3004
  115MOL0     H15493   6.886   1.551  10.151  1.0729  1.6430 -0.2809
  115MOL0     H15494   6.806   1.476  10.006 -2.4937  1.8510 -2.0654
  115MOL0     H15495   6.827   1.774  10.028 -1.3678 -0.9704  0.6213
  115MOL0     H15496   6.824   1.684   9.878  2.1232  1.6341 -1.3196
  115MOL0     H15497   7.055   1.684  10.071  1.5105 -2.5850 -0.1386
  115MOL0     H15498   7.065   1.764   9.915  1.0919  0.7604  0.9209
  115MOL0     H15499   7.003   1.465   9.934  0.3061 -1.2969 -0.5596
  115MOL0     H15500   7.070   1.563   9.803 -1.4542  1.2215  0.0962
  115MOL0     H15501   7.209   1.479  10.073  2.2973 -0.3828 -1.0601
  115MOL0     H15502   7.269   1.599   9.964  2.3588 -1.4414  2.3466
  115MOL0     H15503   7.202   1.323   9.867  1.6318 -0.7585  0.6516
  115MOL0     H15504   7.307   1.446   9.786  4.1973 -3.2610  0.2990
  115MOL0     H15505   6.447   1.650  10.289 -0.4905 -2.0569  1.1393
  115MOL0     H15506   6.208   1.733  10.268  0.3479  0.6015 -1.1697
  115MOL0     H15507   5.674   1.493  10.284  0.0375 -2.3310 -3.1671
  115MOL0     H15508   5.462   1.588  10.202  1.1171 -0.8613 -0.6813
  115MOL0     H15509   4.010   2.281  11.019  0.2590  2.0016  2.6025
  115MOL0     H15510   3.777   2.393  11.048  2.0889 -0.4164  0.6773
  115MOL0     H15511   3.300   2.217  11.077 -0.1873  2.5803 -4.6596
  115MOL0     H15512   3.069   2.257  11.109  0.9106  0.4036 -1.9507
  115MOL0     H15513   2.794   2.532  11.290  0.9369  1.5012 -2.4521
  115MOL0     H15514   2.945   2.609  11.327  3.7609 -1.9811 -0.6411
  115MOL0     H15515   2.987   2.459  11.518  0.1442 -1.3297  0.8363
  115MOL0     H15516   2.859   2.352  11.485 -0.9121  1.2993  0.6064
  115MOL0     H15517   2.820   2.655  11.536  0.8924 -0.0911  1.2678
  115MOL0     H15518   2.802   2.548  11.661  0.7522  3.1485 -0.4953
  115MOL0     H15519   2.634   2.476  11.427  2.2226  1.8116 -0.5197
  115MOL0     H15520   2.593   2.458  11.603  1.3358 -2.5179 -1.3976
  115MOL0     H15521   2.462   2.854  11.513  1.8913  0.7987  0.0174
  115MOL0     H15522   3.137   2.603  11.342 -0.4315  2.0406 -2.5501
  115MOL0     H15523   3.354   2.672  11.381  1.1483  0.8698  1.5544
  115MOL0     H15524   3.482   2.546  11.402  1.2720 -0.2765 -1.8889
  115MOL0     H15525   3.478   2.647  11.257 -1.6933  2.0653  0.5519
  116MOL0     O15526   7.170   0.613   4.575 -0.1135 -1.0006 -0.0631
  116MOL0     C15527   7.065   0.543   4.586  0.6895 -0.8195 -0.9841
  116MOL0     O15528   7.061   0.406   4.627 -0.1712 -0.2803 -0.3186
  116MOL0     C15529   7.154   0.375   4.729  0.5921 -0.0163  0.0521
  116MOL0     C15530   7.183   0.461   4.832 -0.4301 -0.5180 -0.5497
  116MOL0     C15531   7.268   0.425   4.939 -1.2747  0.8196 -0.5710
  116MOL0     C15532   7.317   0.292   4.943 -0.2153  0.1188 -0.8460
  116MOL0     O15533   7.389   0.249   5.057  0.2184 -0.2602  1.2368
  116MOL0     C15534   7.419   0.111   5.081 -0.1218  0.3711  0.4956
  116MOL0     C15535   7.481   0.099   5.223 -0.4972  0.4936  0.4564
  116MOL0     C15536   7.633   0.132   5.230  0.6454  0.4595 -0.4928
  116MOL0     C15537   7.672   0.138   5.380  0.3888 -0.0923 -0.4574
  116MOL0     C15538   7.827   0.153   5.385  0.3895 -0.1043  0.4890
  116MOL0     C15539   7.899   0.018   5.407  0.2315  0.4220 -1.0404
  116MOL0     C15540   8.041   0.025   5.455  0.3564 -0.1296 -0.3677
  116MOL0     C15541   8.145   0.056   5.352  0.8107  0.2810 -0.4365
  116MOL0     N15542   8.266   0.114   5.395 -0.6388 -0.0219  0.1354
  116MOL0     C15543   8.346   0.064   5.498 -0.7583  0.4799  0.8467
  116MOL0     C15544   8.441   0.147   5.516 -0.4876  0.1222  0.0054
  116MOL0     C15545   8.552   0.148   5.614 -0.5149  0.2584  0.9677
  116MOL0     C15546   8.667   0.061   5.560 -0.5116  0.6827  0.6171
  116MOL0     C15547   8.792   0.071   5.657  0.3087  0.0526 -0.1620
  116MOL0     C15548   8.923   0.076   5.573 -0.8673 -0.2848  0.0770
  116MOL0     O15549   9.032   0.058   5.662  0.9385  0.0335  0.0849
  116MOL0     C15550   9.153   0.042   5.604 -0.0682 -0.6773  0.2831
  116MOL0     C15551   9.253   0.022   5.701  0.1281 -0.1213 -0.2014
  116MOL0     C15552   9.388   0.038   5.671 -0.5108  0.6220  0.3091
  116MOL0     C15553   9.426   0.076   5.539  0.3583  0.0776  0.0247
  116MOL0     C15554   9.566   0.097   5.500  0.2281 -0.7614 -1.4940
  116MOL0     O15555   9.664   0.080   5.601  0.3956 -0.4276  0.3349
  116MOL0     C15556   9.790   0.089   5.568  0.1427 -0.2011 -0.0674
  116MOL0     C15557   9.879  -0.012   5.608 -0.4919 -0.0997  0.3691
  116MOL0     C15558  10.018  -0.015   5.585 -0.0957 -0.0464  0.3918
  116MOL0     C15559  10.077   0.093   5.511 -0.3770  0.1148  0.2975
  116MOL0     O15560  10.210   0.075   5.472 -0.2387  0.3463  0.9566
  116MOL0     C15561  10.297   0.157   5.548  0.1629 -0.1760 -1.0823
  116MOL0     C15562  10.440   0.142   5.506 -0.1099 -0.1201  0.3628
  116MOL0     C15563  10.536   0.242   5.579 -0.0665  0.3370  0.6000
  116MOL0     C15564  10.687   0.227   5.543  0.2701  0.8065  0.5116
  116MOL0     C15565  10.774   0.312   5.636 -0.0755  0.7808 -0.5415
  116MOL0     C15566  10.909   0.247   5.650 -1.0367 -0.2544 -0.5785
  116MOL0     C15567  11.006   0.341   5.721  0.5555  0.1140  0.2557
  116MOL0     C15568  11.145   0.282   5.735  1.0033 -0.4164  0.9096
  116MOL0    Cl15569  11.139   0.143   5.850 -0.4585  0.5145 -0.1953
  116MOL0     C15570   9.994   0.204   5.468  0.7400  0.3982 -1.3187
  116MOL0     C15571   9.855   0.200   5.501 -0.0504  0.1538 -0.4742
  116MOL0     O15572   9.589   0.117   5.379 -0.0443 -0.5026 -0.0333
  116MOL0     C15573   9.319   0.087   5.440  0.1923 -0.7206 -0.4484
  116MOL0     C15574   9.183   0.068   5.475 -0.2295  0.4785 -0.0191
  116MOL0     N15575   8.419   0.259   5.438 -0.1534 -0.4988  0.2529
  116MOL0     N15576   8.322   0.235   5.356  0.2619 -0.1755 -0.4736
  116MOL0     C15577   7.278   0.204   4.836  0.0584  0.3550  0.3253
  116MOL0     C15578   7.209   0.249   4.729 -0.4054 -0.4303  0.2022
  116MOL0     C15579   6.929   0.600   4.545 -0.4302  0.6387  0.4678
  116MOL0     C15580   6.817   0.519   4.566 -0.4635 -0.1853  0.0645
  116MOL0     C15581   6.695   0.577   4.542  0.5251 -0.8721 -0.8433
  116MOL0     C15582   6.675   0.709   4.518 -0.5029  0.6990 -0.0770
  116MOL0     O15583   6.549   0.773   4.516 -0.1966  0.6765 -0.7238
  116MOL0     C15584   6.429   0.710   4.562 -0.1080  0.1513  0.4982
  116MOL0     C15585   6.433   0.688   4.714  0.3333  0.2695  0.6468
  116MOL0     C15586   6.289   0.645   4.764  0.1722  0.3387 -0.1047
  116MOL0     C15587   6.183   0.755   4.768 -0.2275 -0.1884 -0.1603
  116MOL0     C15588   6.083   0.703   4.857  0.7168 -0.0307  0.3119
  116MOL0     C15589   5.991   0.655   4.929 -0.7487  0.3726  0.6818
  116MOL0     C15590   6.788   0.786   4.502  0.3201 -0.6550  0.3027
  116MOL0     C15591   6.915   0.731   4.496 -0.3168  0.0832 -0.1398
  116MOL0     C15592   7.020   0.827   4.451 -0.2725  0.0532  0.6118
  116MOL0     H15593   7.151   0.564   4.836 -0.0503 -0.3777 -1.1031
  116MOL0     H15594   7.291   0.473   5.033  0.8455  0.1953 -0.7268
  116MOL0     H15595   7.337   0.038   5.076 -0.4808  0.8481 -1.2614
  116MOL0     H15596   7.491   0.078   5.005  0.1256  0.4520  0.6908
  116MOL0     H15597   7.463   0.000   5.266 -1.1751  0.7362  0.7371
  116MOL0     H15598   7.422   0.160   5.292 -1.8273 -0.9863  0.6671
  116MOL0     H15599   7.660   0.223   5.176  1.2624  0.5385 -0.0663
  116MOL0     H15600   7.680   0.053   5.172 -1.4528 -0.2577 -1.3293
  116MOL0     H15601   7.623   0.212   5.444  2.5137 -1.2539  2.7826
  116MOL0     H15602   7.659   0.040   5.428 -0.6158  0.5863  0.7141
  116MOL0     H15603   7.863   0.187   5.288 -1.4221  0.4159 -0.0396
  116MOL0     H15604   7.850   0.234   5.455  1.2099 -1.5475  1.9686
  116MOL0     H15605   7.841  -0.031   5.486 -0.5842  1.3442 -1.0508
  116MOL0     H15606   7.883  -0.038   5.315  1.9436  2.3753 -2.6188
  116MOL0     H15607   8.060  -0.078   5.483  0.0440  0.2621  1.3778
  116MOL0     H15608   8.056   0.086   5.545 -0.5869 -0.5990  0.1168
  116MOL0     H15609   8.188  -0.034   5.307  1.2384  0.6123 -0.6931
  116MOL0     H15610   8.108   0.121   5.273  2.1715  1.7406  0.0720
  116MOL0     H15611   8.339  -0.031   5.551  1.1442 -1.5867 -2.3308
  116MOL0     H15612   8.592   0.247   5.634 -0.3170  0.3710  0.0784
  116MOL0     H15613   8.521   0.117   5.714 -0.0532  1.0834  1.3748
  116MOL0     H15614   8.638  -0.044   5.567  3.2903 -0.4974  0.8212
  116MOL0     H15615   8.692   0.093   5.459 -3.7316 -1.0838 -0.8966
  116MOL0     H15616   8.789  -0.016   5.724  1.2234  0.5440  0.5235
  116MOL0     H15617   8.795   0.165   5.712  2.8515  0.1662 -0.3873
  116MOL0     H15618   8.933   0.171   5.518 -1.4457  0.3639  1.0621
  116MOL0     H15619   8.912  -0.006   5.502 -2.6264 -0.5720  0.6212
  116MOL0     H15620   9.227   0.017   5.807  0.6304  2.0531  0.0706
  116MOL0     H15621   9.459   0.023   5.752 -0.6939  0.9336  0.5332
  116MOL0     H15622   9.846  -0.104   5.655  1.9227 -1.5563 -0.5372
  116MOL0     H15623  10.084  -0.095   5.614  1.2009  1.5064  1.8918
  116MOL0     H15624  10.283   0.264   5.531 -0.1862 -0.2586 -1.3337
  116MOL0     H15625  10.283   0.130   5.653 -1.7122 -1.2652 -1.5458
  116MOL0     H15626  10.469   0.037   5.521  0.2797 -0.0260  0.2772
  116MOL0     H15627  10.438   0.153   5.397 -0.8787  1.8066  0.5427
  116MOL0     H15628  10.503   0.345   5.560 -0.1239  0.4771  1.4122
  116MOL0     H15629  10.526   0.214   5.684 -2.2102  0.1762  0.3939
  116MOL0     H15630  10.707   0.252   5.439 -0.8613  0.3087  0.1611
  116MOL0     H15631  10.705   0.120   5.549  2.1816  0.9923 -1.0337
  116MOL0     H15632  10.736   0.311   5.738  1.0274  0.4720 -0.1135
  116MOL0     H15633  10.782   0.414   5.597 -0.3874 -0.0117 -2.8317
  116MOL0     H15634  10.912   0.150   5.702  0.0332 -0.4080 -0.9146
  116MOL0     H15635  10.950   0.230   5.550 -1.2028  0.6382 -0.8086
  116MOL0     H15636  10.963   0.377   5.815 -0.3274 -1.5188  0.5133
  116MOL0     H15637  11.021   0.430   5.659 -0.1837  1.1411  1.4825
  116MOL0     H15638  11.189   0.251   5.640 -0.7853 -1.6297  0.4068
  116MOL0     H15639  11.195   0.366   5.785  0.2512 -0.5076  1.8553
  116MOL0     H15640  10.036   0.273   5.396  1.9122  0.6061 -0.4673
  116MOL0     H15641   9.794   0.286   5.475  1.7657  2.1372  1.3880
  116MOL0     H15642   9.335   0.106   5.334 -3.0159 -2.8063 -1.4829
  116MOL0     H15643   9.117   0.087   5.391  1.6925 -1.7173 -2.1958
  116MOL0     H15644   7.305   0.100   4.853 -1.0923  0.1505  0.9878
  116MOL0     H15645   7.197   0.183   4.644 -0.3928  1.6764 -1.5166
  116MOL0     H15646   6.832   0.423   4.613  1.3873  0.8085  1.6878
  116MOL0     H15647   6.607   0.513   4.546 -0.2364  0.1948  0.3853
  116MOL0     H15648   6.420   0.616   4.507 -0.8574  1.0384 -0.9909
  116MOL0     H15649   6.347   0.779   4.538  0.1823  0.3508  0.0514
  116MOL0     H15650   6.453   0.782   4.765 -4.1331  1.9044 -0.1840
  116MOL0     H15651   6.497   0.608   4.752  0.2330  1.2368  2.9808
  116MOL0     H15652   6.309   0.594   4.858  4.6749 -0.6537 -1.3566
  116MOL0     H15653   6.255   0.573   4.689  2.1355  0.5202 -1.2407
  116MOL0     H15654   6.219   0.846   4.817 -0.8830  0.4762 -0.8850
  116MOL0     H15655   6.136   0.777   4.672  2.8694  1.9798 -1.3292
  116MOL0     H15656   5.915   0.608   4.989 -0.4143 -3.2255 -1.3930
  116MOL0     H15657   6.783   0.891   4.475 -0.9012 -0.0993  2.4354
  116MOL0     H15658   6.975   0.895   4.379 -0.7751  0.8884  1.6856
  116MOL0     H15659   7.071   0.882   4.530  0.4915  1.0455 -0.5395
  116MOL0     H15660   7.097   0.769   4.399 -0.1662  0.7017  0.0394
  117MOL0     O15661   7.108   8.910   5.796  0.2424 -1.0370 -0.4455
  117MOL0     C15662   7.215   8.913   5.737 -0.2073  0.0569  0.2652
  117MOL0     O15663   7.300   9.012   5.736  0.7213  0.1842  0.2918
  117MOL0     C15664   7.269   9.124   5.805  0.6010 -0.9100  0.1253
  117MOL0     C15665   7.329   9.157   5.928  0.0876  0.1388 -0.4369
  117MOL0     C15666   7.297   9.275   5.998 -0.2391  0.5657 -0.2658
  117MOL0     C15667   7.198   9.358   5.944  0.3524 -0.3311 -0.5536
  117MOL0     O15668   7.162   9.464   6.025 -0.1019  0.1456 -0.3865
  117MOL0     C15669   7.054   9.550   5.975 -0.7610 -0.4405  0.2865
  117MOL0     C15670   7.016   9.631   6.097 -0.1944  0.1655  0.5058
  117MOL0     C15671   6.892   9.725   6.077  0.6805  0.2390 -0.2341
  117MOL0     C15672   6.902   9.822   5.970 -0.8615 -0.1459  0.9480
  117MOL0     C15673   6.767   9.897   5.946  0.1898  0.3876  0.7960
  117MOL0     C15674   6.732   9.987   6.061 -0.6606  0.7191  0.6665
  117MOL0     C15675   6.622  10.089   6.036 -0.1516  0.3632  0.4294
  117MOL0     C15676   6.653  10.198   5.932  0.5539  0.3878 -0.5457
  117MOL0     N15677   6.769  10.274   5.966 -1.0858 -0.0875 -1.0711
  117MOL0     C15678   6.773  10.373   6.066  0.5783 -0.5263  0.0483
  117MOL0     C15679   6.901  10.424   6.068 -0.7478 -0.0211  0.6543
  117MOL0     C15680   6.945  10.551   6.140  0.9922 -0.8161  0.2838
  117MOL0     C15681   6.999  10.671   6.059  0.5542 -0.1516  0.5001
  117MOL0     C15682   7.122  10.651   5.987  0.0057 -0.5400  0.1320
  117MOL0     C15683   7.231  10.609   6.070 -0.1757 -0.0863  0.4455
  117MOL0     O15684   7.342  10.569   5.988  0.1320 -0.4878 -0.8740
  117MOL0     C15685   7.423  10.675   5.964  0.7630  0.0206  0.7459
  117MOL0     C15686   7.432  10.711   5.828 -0.0381  0.4643 -0.1117
  117MOL0     C15687   7.512  10.825   5.792  0.1413 -0.4090 -0.0362
  117MOL0     C15688   7.595  10.890   5.885 -0.2673 -0.0093 -0.1309
  117MOL0     C15689   7.679  11.005   5.851  0.3951  0.4245  0.0621
  117MOL0     O15690   7.736  11.068   5.957 -0.0131 -0.1070  0.8947
  117MOL0     C15691   7.841  11.159   5.950 -0.0902 -0.8070 -0.0244
  117MOL0     C15692   7.861  11.239   6.064 -0.1731  0.4979  0.7498
  117MOL0     C15693   7.972  11.325   6.065 -0.5800 -0.8435 -0.4507
  117MOL0     C15694   8.073  11.317   5.982  0.3557  0.1438 -0.4166
  117MOL0     O15695   8.186  11.393   6.006  0.5820 -0.3162  0.4827
  117MOL0     C15696   8.316  11.334   6.003  0.8170  0.7818 -0.1421
  117MOL0     C15697   8.432  11.437   6.020 -0.7130 -0.7244 -0.1337
  117MOL0     C15698   8.421  11.576   5.939  0.1751  0.6255 -0.0809
  117MOL0     C15699   8.552  11.655   5.946  0.1660 -0.7799 -0.0429
  117MOL0     C15700   8.546  11.803   5.905 -0.3467  0.4344 -0.3341
  117MOL0     C15701   8.518  11.899   6.021  0.5607 -0.5655 -0.3390
  117MOL0     C15702   8.619  11.905   6.135 -0.3484  0.1949 -0.0854
  117MOL0     C15703   8.612  12.034   6.215 -0.0807  0.6892  0.1024
  117MOL0    Cl15704   8.734  12.033   6.339 -0.2270 -0.1542 -0.5072
  117MOL0     C15705   8.052  11.238   5.868 -0.0553  0.4394 -0.1805
  117MOL0     C15706   7.940  11.164   5.850 -0.9609  0.2169 -0.8859
  117MOL0     O15707   7.698  11.032   5.736  0.3909 -0.3356  0.2980
  117MOL0     C15708   7.587  10.846   6.016  0.3386  0.0850 -0.6182
  117MOL0     C15709   7.499  10.745   6.057  0.7036  0.8972 -0.3571
  117MOL0     N15710   6.981  10.336   5.985  0.2623 -0.8246  0.1731
  117MOL0     N15711   6.902  10.247   5.930  0.8994  0.4607 -0.3166
  117MOL0     C15712   7.137   9.323   5.827  0.4443 -0.0651  0.2475
  117MOL0     C15713   7.167   9.208   5.754 -0.7223  0.3351 -0.0351
  117MOL0     C15714   7.258   8.791   5.657  0.3865  0.0307 -0.2838
  117MOL0     C15715   7.393   8.782   5.616  0.6803 -0.6103  0.2818
  117MOL0     C15716   7.440   8.683   5.534  0.3192 -0.1902  0.1673
  117MOL0     C15717   7.352   8.583   5.491 -0.0555 -0.4660  0.2492
  117MOL0     O15718   7.404   8.486   5.413  0.6820  0.3406 -0.3663
  117MOL0     C15719   7.354   8.471   5.278 -0.1269  0.0397  0.6220
  117MOL0     C15720   7.397   8.582   5.186 -0.1620 -0.1411  0.0934
  117MOL0     C15721   7.320   8.581   5.051  0.2582  0.3643  0.2773
  117MOL0     C15722   7.418   8.645   4.937  0.2437 -0.3400 -0.8208
  117MOL0     C15723   7.510   8.552   4.880 -0.5343 -0.0231 -0.2092
  117MOL0     C15724   7.575   8.479   4.818 -0.9439  0.1041  0.4332
  117MOL0     C15725   7.223   8.589   5.533 -0.0538  0.1086  0.5788
  117MOL0     C15726   7.168   8.696   5.604 -0.1307  0.5067 -0.7425
  117MOL0     C15727   7.017   8.715   5.601 -0.0909 -1.5167 -0.4766
  117MOL0     H15728   7.409   9.090   5.958 -0.8015 -1.0020 -0.5326
  117MOL0     H15729   7.342   9.322   6.085  0.4424  1.3180 -1.0050
  117MOL0     H15730   7.092   9.620   5.900 -3.0066  1.0107  0.4022
  117MOL0     H15731   6.971   9.491   5.934  1.3395 -2.7959 -0.8566
  117MOL0     H15732   7.099   9.694   6.129  1.0903 -1.1127 -0.2193
  117MOL0     H15733   7.004   9.564   6.183  0.7165 -1.0090 -0.2565
  117MOL0     H15734   6.888   9.785   6.169  0.2562 -1.2641  0.7660
  117MOL0     H15735   6.804   9.661   6.075  2.1032 -1.9931  1.8447
  117MOL0     H15736   6.991   9.882   5.989 -1.2650  1.0914 -0.7599
  117MOL0     H15737   6.917   9.758   5.882 -1.6761  0.5027  0.3162
  117MOL0     H15738   6.784   9.957   5.856  1.0574  1.4467  1.6296
  117MOL0     H15739   6.687   9.823   5.935 -1.3078  2.3281 -4.2774
  117MOL0     H15740   6.701   9.920   6.141  0.6715 -1.3464 -0.4497
  117MOL0     H15741   6.830  10.024   6.093  1.4691 -3.1510 -0.7229
  117MOL0     H15742   6.590  10.144   6.125  3.1160  2.6292  0.4012
  117MOL0     H15743   6.535  10.031   6.004 -0.6338 -0.6508  3.2804
  117MOL0     H15744   6.672  10.143   5.839  1.7850  0.4381 -0.3451
  117MOL0     H15745   6.571  10.269   5.922  0.1733  0.6008  2.9790
  117MOL0     H15746   6.684  10.410   6.116 -3.1593 -4.0331 -3.2480
  117MOL0     H15747   6.862  10.599   6.194  2.1234  1.8521 -0.1609
  117MOL0     H15748   7.012  10.526   6.223  1.4098  2.7047  1.1800
  117MOL0     H15749   6.931  10.698   5.978  0.8052  1.2667  0.7277
  117MOL0     H15750   6.998  10.752   6.133 -0.8053  1.1781 -0.8888
  117MOL0     H15751   7.150  10.743   5.934 -0.8055 -0.3343  0.0386
  117MOL0     H15752   7.095  10.571   5.917 -2.7697  0.7243 -0.3805
  117MOL0     H15753   7.203  10.523   6.132 -0.5982  1.6282  2.8041
  117MOL0     H15754   7.262  10.687   6.140  0.0359 -1.2151  1.6624
  117MOL0     H15755   7.369  10.649   5.765 -0.6164  0.4662  0.4433
  117MOL0     H15756   7.502  10.862   5.690 -1.0193  1.3351  0.6531
  117MOL0     H15757   7.791  11.228   6.146  2.3276 -0.3173  2.9054
  117MOL0     H15758   7.974  11.402   6.142 -0.9364 -0.1217 -1.1453
  117MOL0     H15759   8.330  11.254   6.077  0.4396  0.9179  0.0770
  117MOL0     H15760   8.334  11.288   5.905 -1.5025  0.4505 -0.4833
  117MOL0     H15761   8.449  11.454   6.127  1.7386 -1.1411 -0.3975
  117MOL0     H15762   8.525  11.387   5.993 -1.0050 -0.0048 -2.7891
  117MOL0     H15763   8.390  11.555   5.836 -3.4676 -0.1779  1.0039
  117MOL0     H15764   8.346  11.641   5.985  2.7706  2.6398  1.5665
  117MOL0     H15765   8.624  11.611   5.875 -0.5425 -1.2912 -0.4620
  117MOL0     H15766   8.608  11.639   6.038  1.5790 -2.1278 -1.0805
  117MOL0     H15767   8.465  11.810   5.832 -0.7905  0.1458  0.1222
  117MOL0     H15768   8.640  11.836   5.859  0.7131 -0.3724  1.1319
  117MOL0     H15769   8.509  11.995   5.969 -1.9620  0.3931  1.6478
  117MOL0     H15770   8.416  11.883   6.058 -0.6455  2.1896 -2.1073
  117MOL0     H15771   8.722  11.898   6.098  0.2178 -1.8062  1.6635
  117MOL0     H15772   8.603  11.818   6.198  0.7044 -1.5862 -2.1214
  117MOL0     H15773   8.633  12.118   6.148  1.3696  1.0362  0.9482
  117MOL0     H15774   8.517  12.058   6.263 -0.3124  1.6653 -0.8028
  117MOL0     H15775   8.129  11.244   5.793  1.3269  1.7567  1.2729
  117MOL0     H15776   7.921  11.101   5.763  2.6411 -1.6483 -0.5390
  117MOL0     H15777   7.647  10.898   6.090 -0.2374  0.1336 -0.1804
  117MOL0     H15778   7.503  10.710   6.160  0.5682  1.7016 -0.0688
  117MOL0     H15779   7.071   9.396   5.781  1.2031 -1.3753 -3.2423
  117MOL0     H15780   7.116   9.188   5.660  0.8653  1.0982 -1.1008
  117MOL0     H15781   7.457   8.865   5.645 -1.3299  0.8296  0.7760
  117MOL0     H15782   7.542   8.683   5.497  0.0830  0.9886 -0.5176
  117MOL0     H15783   7.245   8.461   5.272 -0.1826 -1.8173  3.1191
  117MOL0     H15784   7.401   8.385   5.230 -0.6261  1.0341 -1.8323
  117MOL0     H15785   7.503   8.570   5.161  0.0457  0.5777  0.6163
  117MOL0     H15786   7.397   8.677   5.239 -2.0429 -1.4095  2.5482
  117MOL0     H15787   7.233   8.648   5.055  0.9920  1.3337  0.3642
  117MOL0     H15788   7.277   8.483   5.030 -1.2659  0.7821  1.2363
  117MOL0     H15789   7.355   8.685   4.857 -1.7061 -2.7582 -0.6087
  117MOL0     H15790   7.461   8.735   4.983 -2.5617  0.4449  0.5333
  117MOL0     H15791   7.651   8.428   4.763  0.3736 -0.1470  2.3826
  117MOL0     H15792   7.143   8.525   5.496  0.9755 -0.7180 -0.2778
  117MOL0     H15793   6.965   8.689   5.693 -2.2461 -1.8790 -1.7284
  117MOL0     H15794   6.991   8.819   5.578 -0.9951 -1.2727  1.4832
  117MOL0     H15795   6.975   8.646   5.528 -0.7801 -2.4295  0.7472
  118MOL0     O15796   5.206   1.496  10.283  0.3169  0.4482  0.8395
  118MOL0     C15797   5.149   1.388  10.261  0.1963  0.4860 -0.0806
  118MOL0     O15798   5.189   1.262  10.307  0.7452  0.6568 -0.3165
  118MOL0     C15799   5.307   1.244  10.372  1.1933  0.3095 -0.2350
  118MOL0     C15800   5.383   1.141  10.319  0.1156 -0.2417 -0.6890
  118MOL0     C15801   5.508   1.106  10.375  0.2305  1.3452  0.1603
  118MOL0     C15802   5.552   1.176  10.481 -0.3021 -0.3829  0.6299
  118MOL0     O15803   5.680   1.156  10.530  0.4870 -0.0107 -0.3969
  118MOL0     C15804   5.752   1.257  10.599 -0.3385  0.8790 -0.3624
  118MOL0     C15805   5.893   1.190  10.633 -0.3365  0.1300  0.0264
  118MOL0     C15806   6.007   1.277  10.694 -0.3790  0.2909  0.0611
  118MOL0     C15807   6.070   1.376  10.594  0.4706  0.2338 -0.1361
  118MOL0     C15808   6.190   1.445  10.655 -0.3933  1.3165 -0.1712
  118MOL0     C15809   6.313   1.349  10.647 -0.4211  0.1344  0.2691
  118MOL0     C15810   6.442   1.429  10.696 -0.2159  0.5500 -0.1877
  118MOL0     C15811   6.571   1.342  10.676  0.4084  0.7595 -0.5615
  118MOL0     N15812   6.684   1.388  10.761  0.2530  0.2633  0.0178
  118MOL0     C15813   6.810   1.341  10.758 -0.1887  0.1622  1.2202
  118MOL0     C15814   6.859   1.394  10.872  0.8737  0.3772 -0.2569
  118MOL0     C15815   6.995   1.368  10.932 -0.8134 -1.1781 -0.6731
  118MOL0     C15816   7.099   1.434  10.841 -0.5823  0.5224  0.0645
  118MOL0     C15817   7.236   1.445  10.910 -0.7454 -0.4277  0.1216
  118MOL0     C15818   7.353   1.470  10.811  0.8084 -0.3385  0.6059
  118MOL0     O15819   7.477   1.489  10.880  0.0801 -0.2327  0.8052
  118MOL0     C15820   7.600   1.515  10.809 -0.1190 -0.2712  0.6759
  118MOL0     C15821   7.631   1.453  10.686  0.2325  0.4985  0.2460
  118MOL0     C15822   7.754   1.474  10.626 -0.1380  0.7486 -0.1559
  118MOL0     C15823   7.853   1.552  10.688  0.1133  0.6470 -0.1543
  118MOL0     C15824   7.985   1.584  10.612 -0.4681  0.8298 -0.2834
  118MOL0     O15825   8.066   1.673  10.675  0.0695 -0.9002 -0.1337
  118MOL0     C15826   8.181   1.703  10.608 -0.8029  0.9351  0.6949
  118MOL0     C15827   8.289   1.621  10.630 -0.5138  0.2732 -0.5396
  118MOL0     C15828   8.402   1.639  10.553  0.4678  0.6756 -0.3767
  118MOL0     C15829   8.409   1.723  10.447  0.6355  0.1330 -0.6833
  118MOL0     O15830   8.528   1.708  10.375  0.1679  0.0820 -0.1357
  118MOL0     C15831   8.552   1.816  10.282 -0.6553 -0.4317 -0.0750
  118MOL0     C15832   8.692   1.778  10.220 -0.2276 -0.1410 -0.4800
  118MOL0     C15833   8.807   1.819  10.304  0.1815  0.5364  0.2304
  118MOL0     C15834   8.936   1.800  10.223 -0.9008 -0.6669 -0.1293
  118MOL0     C15835   9.062   1.837  10.300  0.5481 -0.1290 -0.3301
  118MOL0     C15836   9.185   1.784  10.221 -0.7200 -0.0772  0.3307
  118MOL0     C15837   9.314   1.818  10.310 -0.1611 -0.3176  0.9741
  118MOL0     C15838   9.434   1.744  10.251 -0.6985  1.3581 -0.7226
  118MOL0    Cl15839   9.582   1.800  10.333 -0.2062  0.2601 -0.2013
  118MOL0     C15840   8.302   1.810  10.427  0.3603  1.4297 -0.2750
  118MOL0     C15841   8.187   1.790  10.497  0.0495  0.5811 -0.5533
  118MOL0     O15842   8.009   1.524  10.515 -0.4659  0.7969 -0.3311
  118MOL0     C15843   7.822   1.608  10.817 -0.3754  0.7930  0.2671
  118MOL0     C15844   7.701   1.582  10.875 -0.2184  0.1725  0.1908
  118MOL0     N15845   6.768   1.468  10.944 -0.0121 -0.2399 -0.2056
  118MOL0     N15846   6.661   1.462  10.875 -0.2852 -0.0802 -0.6653
  118MOL0     C15847   5.470   1.279  10.526  0.0130 -0.2107 -0.5374
  118MOL0     C15848   5.352   1.319  10.477  0.7276 -0.5019  0.3811
  118MOL0     C15849   5.012   1.393  10.199  0.0589  0.4914 -0.2461
  118MOL0     C15850   4.980   1.295  10.104 -0.1378 -0.5902  0.2625
  118MOL0     C15851   4.845   1.294  10.052 -0.0680 -0.0486 -0.0648
  118MOL0     C15852   4.749   1.380  10.089  0.6390  0.7903  0.0193
  118MOL0     O15853   4.627   1.371  10.025  0.1766 -0.1752 -0.2858
  118MOL0     C15854   4.525   1.477  10.036  0.8538 -0.1331  0.0568
  118MOL0     C15855   4.413   1.452   9.937  0.2775  0.2971  0.7230
  118MOL0     C15856   4.475   1.438   9.800  0.2711  0.0688  0.8223
  118MOL0     C15857   4.369   1.466   9.689  0.6117  0.3027 -0.7419
  118MOL0     C15858   4.414   1.433   9.554  0.3257 -0.3575  0.0087
  118MOL0     C15859   4.440   1.395   9.442  0.8290 -0.3186 -0.0660
  118MOL0     C15860   4.786   1.482  10.174 -0.4955 -0.5778 -0.2926
  118MOL0     C15861   4.913   1.487  10.232 -0.1910  0.4923 -0.0436
  118MOL0     C15862   4.923   1.591  10.344  0.4724 -0.1612  0.4542
  118MOL0     H15863   5.354   1.083  10.231  1.8920 -0.5682 -1.1063
  118MOL0     H15864   5.568   1.028  10.329  1.5248  2.3575  0.0912
  118MOL0     H15865   5.766   1.343  10.533  0.3214 -0.1372 -1.5714
  118MOL0     H15866   5.720   1.281  10.701  1.3155 -2.1333  0.9909
  118MOL0     H15867   5.935   1.140  10.545 -0.0084 -2.5795  1.6370
  118MOL0     H15868   5.872   1.113  10.707 -1.6754 -1.0286 -1.5034
  118MOL0     H15869   6.090   1.218  10.734  1.3301  3.3240  1.3176
  118MOL0     H15870   5.978   1.322  10.789 -0.5648 -1.0294  0.6495
  118MOL0     H15871   6.094   1.319  10.504  2.8320  2.8403 -1.3027
  118MOL0     H15872   5.998   1.457  10.578  0.4932  0.3500  0.3425
  118MOL0     H15873   6.201   1.534  10.593 -2.3654  1.0190 -1.0198
  118MOL0     H15874   6.173   1.475  10.759 -1.0971  1.3186 -0.2769
  118MOL0     H15875   6.304   1.263  10.714  5.2590 -0.5776  0.6106
  118MOL0     H15876   6.330   1.306  10.548 -3.2922  0.3627 -0.4279
  118MOL0     H15877   6.433   1.461  10.801 -2.9488  0.9093 -0.4456
  118MOL0     H15878   6.441   1.519  10.634  0.0610  0.9807  0.4155
  118MOL0     H15879   6.533   1.247  10.711  0.1036  1.3768  0.8441
  118MOL0     H15880   6.603   1.353  10.571 -2.7564  0.7478 -1.6145
  118MOL0     H15881   6.867   1.299  10.676  1.9606  1.3265  2.0177
  118MOL0     H15882   7.006   1.429  11.022  1.8702  0.1507 -1.7660
  118MOL0     H15883   7.015   1.262  10.952  1.8721 -0.6204  0.0159
  118MOL0     H15884   7.109   1.360  10.761 -2.4181 -0.8820  1.0544
  118MOL0     H15885   7.053   1.523  10.797 -1.2299  0.3244  0.3254
  118MOL0     H15886   7.253   1.350  10.961 -1.2503 -1.1332 -0.9755
  118MOL0     H15887   7.223   1.530  10.978  0.4089  1.8999 -2.3716
  118MOL0     H15888   7.335   1.562  10.755  1.7650 -0.9663 -0.7812
  118MOL0     H15889   7.358   1.384  10.744 -0.6817 -0.8335  1.0746
  118MOL0     H15890   7.557   1.390  10.636 -0.1217  0.3556  0.9459
  118MOL0     H15891   7.762   1.427  10.529 -0.5405  2.0602 -0.8463
  118MOL0     H15892   8.292   1.547  10.710 -1.9428  1.3667  0.5895
  118MOL0     H15893   8.491   1.583  10.580 -1.4169 -1.2094  2.5572
  118MOL0     H15894   8.469   1.821  10.210 -1.5336  0.0234  0.9302
  118MOL0     H15895   8.553   1.914  10.330  1.7035 -0.3353 -0.2424
  118MOL0     H15896   8.695   1.669  10.219  0.1196 -0.3150  3.5070
  118MOL0     H15897   8.702   1.806  10.115 -1.6019 -2.4539 -1.2995
  118MOL0     H15898   8.795   1.922  10.338  1.0347  1.1879 -1.3451
  118MOL0     H15899   8.796   1.757  10.393 -1.0457  1.1228  0.5156
  118MOL0     H15900   8.939   1.861  10.133 -0.5311  2.6428  1.9496
  118MOL0     H15901   8.940   1.699  10.181  1.8677 -1.1729  1.1530
  118MOL0     H15902   9.056   1.794  10.401 -1.3870 -1.0421 -0.7747
  118MOL0     H15903   9.054   1.946  10.313 -0.1122 -0.4607  3.2951
  118MOL0     H15904   9.173   1.676  10.204  0.1728 -0.3949  1.5839
  118MOL0     H15905   9.196   1.824  10.120  1.0277 -0.2014  0.4379
  118MOL0     H15906   9.304   1.797  10.417  1.1091  3.6191  2.0061
  118MOL0     H15907   9.325   1.926  10.302  1.2497 -0.5482 -0.5952
  118MOL0     H15908   9.419   1.641  10.283  1.9343  2.3307  4.8378
  118MOL0     H15909   9.435   1.763  10.144 -1.8667  0.4268 -0.9161
  118MOL0     H15910   8.305   1.890  10.355 -1.1181  2.6608  0.9679
  118MOL0     H15911   8.099   1.851  10.481  0.0050  0.2790 -1.5251
  118MOL0     H15912   7.907   1.660  10.860  2.0168 -2.3961 -0.2094
  118MOL0     H15913   7.678   1.619  10.975 -2.1484  1.4065 -0.6437
  118MOL0     H15914   5.501   1.338  10.612  0.7442 -0.4427 -0.6335
  118MOL0     H15915   5.289   1.397  10.517 -0.1846 -1.5116  0.9737
  118MOL0     H15916   5.049   1.216  10.078 -2.0924 -1.9728 -1.0813
  118MOL0     H15917   4.812   1.223   9.976  0.8612  1.3417 -1.8329
  118MOL0     H15918   4.577   1.572  10.025  0.7337 -0.0530  0.1796
  118MOL0     H15919   4.482   1.474  10.136 -2.3542 -2.1907 -1.2137
  118MOL0     H15920   4.336   1.529   9.941  1.9726  2.1604 -0.2172
  118MOL0     H15921   4.371   1.356   9.966  0.8556 -0.4992 -0.9422
  118MOL0     H15922   4.517   1.338   9.787  1.5053  0.7434 -0.7488
  118MOL0     H15923   4.552   1.515   9.790  1.0905 -0.6345  1.5375
  118MOL0     H15924   4.292   1.396   9.723  2.2488 -0.6789  1.1090
  118MOL0     H15925   4.337   1.570   9.703 -1.2088 -0.4052  0.9169
  118MOL0     H15926   4.445   1.359   9.341 -3.0447 -0.7842 -0.2373
  118MOL0     H15927   4.725   1.565  10.205 -1.4243 -0.2382 -2.7729
  118MOL0     H15928   4.917   1.693  10.303 -0.7231 -0.2679  0.3157
  118MOL0     H15929   4.838   1.586  10.413  0.6725 -1.7971  0.6128
  118MOL0     H15930   5.003   1.584  10.418  0.7950  3.4072  0.6430
  119MOL0     O15931  10.613   1.429   2.690 -0.5845 -0.0827 -0.0207
  119MOL0     C15932  10.602   1.318   2.723  0.1327 -0.3253 -0.6099
  119MOL0     O15933  10.707   1.244   2.782  0.2144 -0.9478  0.8270
  119MOL0     C15934  10.817   1.306   2.844  0.5376 -0.4815  0.0285
  119MOL0     C15935  10.909   1.387   2.782 -0.8641  1.2393 -0.0158
  119MOL0     C15936  11.000   1.460   2.864 -0.8200  1.3275 -1.4391
  119MOL0     C15937  11.015   1.440   3.000  0.0527 -0.6093 -0.1842
  119MOL0     O15938  11.105   1.518   3.067  0.0945  0.0790 -0.4192
  119MOL0     C15939  11.112   1.502   3.208  0.0178  0.6418 -0.8125
  119MOL0     C15940  11.233   1.585   3.278  0.0198  0.6662  0.4599
  119MOL0     C15941  11.244   1.725   3.222  1.4551 -0.2607 -0.0107
  119MOL0     C15942  11.319   1.814   3.313  0.2097 -0.2869  0.1568
  119MOL0     C15943  11.339   1.954   3.260 -0.3129 -1.2317 -0.0919
  119MOL0     C15944  11.482   1.988   3.212  0.2295 -0.5457 -0.5619
  119MOL0     C15945  11.509   2.144   3.218  0.4460  0.3991  0.1928
  119MOL0     C15946  11.630   2.186   3.137 -1.0624  0.3656  0.5791
  119MOL0     N15947  11.742   2.101   3.169  0.8634 -0.5601 -0.6310
  119MOL0     C15948  11.819   2.119   3.287  0.8074  0.2682 -0.4696
  119MOL0     C15949  11.935   2.064   3.241 -0.1067  0.0132  0.9826
  119MOL0     C15950  12.066   2.065   3.312 -0.3551  0.4576 -0.1449
  119MOL0     C15951  12.116   2.201   3.322 -0.0072 -1.1825  0.6586
  119MOL0     C15952  12.244   2.201   3.411  0.0400  0.5436  0.3052
  119MOL0     C15953  12.277   2.346   3.456 -0.2505  0.1969  0.6462
  119MOL0     O15954  12.388   2.332   3.538  0.3576 -0.1470 -0.5179
  119MOL0     C15955  12.513   2.327   3.483 -0.0522  0.6494  0.3805
  119MOL0     C15956  12.622   2.339   3.570  0.0324 -0.0806  0.5790
  119MOL0     C15957  12.756   2.352   3.526  0.8763 -0.0741  0.5720
  119MOL0     C15958  12.781   2.330   3.391 -0.1130  0.2042 -0.6851
  119MOL0     C15959  12.925   2.316   3.344 -0.6819  0.9456 -0.3505
  119MOL0     O15960  12.945   2.244   3.231 -0.1854  0.7869 -0.3043
  119MOL0     C15961  13.075   2.218   3.188 -0.0231  0.7456 -0.2629
  119MOL0     C15962  13.114   2.284   3.079  0.2398 -0.6409  0.3547
  119MOL0     C15963  13.241   2.275   3.023 -0.8182  0.4492 -0.6577
  119MOL0     C15964  13.339   2.202   3.085 -0.3334 -0.4651 -0.7824
  119MOL0     O15965  13.462   2.204   3.028 -0.1779 -0.0981 -0.0152
  119MOL0     C15966  13.566   2.137   3.095  0.2535  0.2534  0.5041
  119MOL0     C15967  13.702   2.212   3.087 -0.7662 -0.6855 -0.1682
  119MOL0     C15968  13.835   2.142   3.119  0.3249  1.2175 -0.2048
  119MOL0     C15969  13.953   2.213   3.059  1.2368  0.0590 -0.4031
  119MOL0     C15970  14.067   2.123   3.026 -0.4430 -0.2175 -0.2486
  119MOL0     C15971  14.190   2.193   2.964  0.0492  0.0589 -0.6175
  119MOL0     C15972  14.227   2.135   2.825 -0.1581 -1.0050  0.4930
  119MOL0     C15973  14.120   2.160   2.723  0.1560  0.7708  0.9027
  119MOL0    Cl15974  14.096   2.326   2.678  0.1319  0.0033  0.1419
  119MOL0     C15975  13.293   2.138   3.207 -0.5586  0.6113  0.5021
  119MOL0     C15976  13.169   2.142   3.256 -0.9575  0.4370  0.0655
  119MOL0     O15977  13.011   2.366   3.417  0.1324  0.2688 -0.0481
  119MOL0     C15978  12.677   2.320   3.298  0.3110 -0.6096 -0.0998
  119MOL0     C15979  12.545   2.320   3.341 -0.0892 -0.2007 -0.3572
  119MOL0     N15980  11.912   2.000   3.123  0.2747 -0.0095 -0.1870
  119MOL0     N15981  11.796   2.021   3.075  0.0513  0.4848  0.4733
  119MOL0     C15982  10.903   1.363   3.055  0.1914 -0.2283 -0.7030
  119MOL0     C15983  10.814   1.296   2.983 -0.0264  1.1061 -0.8696
  119MOL0     C15984  10.461   1.258   2.697 -0.0432  0.1486 -0.8783
  119MOL0     C15985  10.406   1.258   2.570 -0.5402  0.4603 -0.8007
  119MOL0     C15986  10.285   1.194   2.546  0.4993 -0.0428  0.5280
  119MOL0     C15987  10.223   1.121   2.651 -0.2778 -0.0533 -0.0562
  119MOL0     O15988  10.104   1.058   2.641  0.2933 -0.5173 -0.1579
  119MOL0     C15989  10.062   1.004   2.514 -0.1362 -0.2289  0.7069
  119MOL0     C15990   9.932   0.920   2.525  0.5480  0.3005  0.8636
  119MOL0     C15991   9.801   0.998   2.508  0.5921  0.2541 -0.3317
  119MOL0     C15992   9.786   1.076   2.370  0.5546  0.1057 -0.7960
  119MOL0     C15993   9.787   0.981   2.260 -0.1253  0.5053 -0.2765
  119MOL0     C15994   9.805   0.904   2.168  0.6242  0.1533 -0.1624
  119MOL0     C15995  10.269   1.131   2.783  0.1664  0.5450 -0.3242
  119MOL0     C15996  10.390   1.201   2.812  0.3204 -0.1868  0.3474
  119MOL0     C15997  10.446   1.205   2.953 -0.3693  0.7960  0.6809
  119MOL0     H15998  10.911   1.387   2.674  4.1741 -4.5340 -0.4325
  119MOL0     H15999  11.080   1.510   2.810 -0.3928  0.1626 -1.9263
  119MOL0     H16000  11.017   1.537   3.252 -0.6074 -1.9286  0.0461
  119MOL0     H16001  11.135   1.396   3.215 -1.6086  0.2816 -0.4953
  119MOL0     H16002  11.328   1.535   3.255 -0.8739 -1.3553  0.9894
  119MOL0     H16003  11.216   1.585   3.386 -0.5980  0.1825  0.3640
  119MOL0     H16004  11.145   1.766   3.200  1.6743  0.2964  0.0179
  119MOL0     H16005  11.293   1.732   3.125  0.9372  1.4086 -0.1879
  119MOL0     H16006  11.259   1.813   3.404 -2.4453  1.1436 -1.4449
  119MOL0     H16007  11.416   1.767   3.333  0.3785  1.0758  3.0432
  119MOL0     H16008  11.270   1.973   3.177 -0.6892 -1.7159  0.1053
  119MOL0     H16009  11.314   2.024   3.340 -1.8779  0.8648 -2.2672
  119MOL0     H16010  11.549   1.942   3.285  2.0656  2.7970  0.0796
  119MOL0     H16011  11.493   1.949   3.111  0.6672  0.0741 -0.7614
  119MOL0     H16012  11.501   2.176   3.322 -1.4329  1.5436 -0.2511
  119MOL0     H16013  11.430   2.202   3.168 -2.4411 -1.2035  2.5678
  119MOL0     H16014  11.607   2.183   3.031  1.2663  0.9000 -0.0110
  119MOL0     H16015  11.670   2.287   3.149  0.5871 -0.4264  2.5016
  119MOL0     H16016  11.791   2.173   3.377  1.0927  1.0746 -0.8498
  119MOL0     H16017  12.043   2.018   3.408 -3.5726 -0.0155 -1.0194
  119MOL0     H16018  12.133   2.009   3.246 -0.9186  0.3095 -0.6006
  119MOL0     H16019  12.133   2.242   3.222  2.5936 -2.6383  0.4208
  119MOL0     H16020  12.036   2.256   3.372  0.9855  0.2235  0.7809
  119MOL0     H16021  12.329   2.153   3.362  0.7797  0.3759  1.6944
  119MOL0     H16022  12.217   2.148   3.503  0.3196 -0.4158 -0.1569
  119MOL0     H16023  12.195   2.386   3.515 -0.2253 -1.4209  1.8182
  119MOL0     H16024  12.296   2.406   3.366  0.6040 -0.4152  0.4053
  119MOL0     H16025  12.603   2.340   3.677  1.0492 -0.6823  0.7722
  119MOL0     H16026  12.841   2.357   3.594 -0.8876 -0.3523  2.9127
  119MOL0     H16027  13.054   2.349   3.015  1.1642 -1.5501 -1.5203
  119MOL0     H16028  13.264   2.324   2.929  0.0903  0.7480 -0.2889
  119MOL0     H16029  13.543   2.130   3.202 -0.6902 -1.4506  0.2213
  119MOL0     H16030  13.582   2.035   3.058  0.4189 -0.2702  1.9524
  119MOL0     H16031  13.715   2.245   2.984  3.6404 -0.4521  0.2738
  119MOL0     H16032  13.694   2.303   3.147 -0.5546 -1.1033  0.5082
  119MOL0     H16033  13.854   2.130   3.226  0.3553 -1.9378 -0.4708
  119MOL0     H16034  13.820   2.045   3.070  0.4247  1.2015 -0.2024
  119MOL0     H16035  13.983   2.295   3.125 -1.5503  0.5627  0.3988
  119MOL0     H16036  13.931   2.264   2.965  2.9138 -0.2232 -0.9716
  119MOL0     H16037  14.032   2.044   2.959  1.0266  0.8642 -2.4142
  119MOL0     H16038  14.098   2.073   3.118 -0.1489 -1.0416 -0.7783
  119MOL0     H16039  14.162   2.298   2.955 -0.0233  0.1271  0.3501
  119MOL0     H16040  14.271   2.188   3.038 -3.1408  0.7219  3.2614
  119MOL0     H16041  14.255   2.031   2.841  1.6771 -0.8846 -1.4680
  119MOL0     H16042  14.322   2.186   2.807 -0.9346  1.4791  2.7408
  119MOL0     H16043  14.147   2.122   2.624  0.8384  0.1181  1.3353
  119MOL0     H16044  14.025   2.121   2.760  0.6593  0.8851  2.3594
  119MOL0     H16045  13.360   2.075   3.265 -2.7997 -0.8947  1.5838
  119MOL0     H16046  13.140   2.085   3.343 -0.4697  1.1468  0.7041
  119MOL0     H16047  12.707   2.308   3.194  0.6760  0.6831 -0.1587
  119MOL0     H16048  12.455   2.324   3.280 -0.3313 -2.5379 -0.2532
  119MOL0     H16049  10.894   1.373   3.163  0.4501  3.0988 -0.8726
  119MOL0     H16050  10.744   1.228   3.031  1.9893  0.9559  2.1125
  119MOL0     H16051  10.466   1.310   2.496 -0.3087  3.2342  1.1390
  119MOL0     H16052  10.241   1.190   2.447  0.5775 -0.5777  0.5158
  119MOL0     H16053  10.136   0.939   2.467 -1.8643 -2.2144  0.5970
  119MOL0     H16054  10.048   1.088   2.444 -0.4625 -1.2981 -0.5451
  119MOL0     H16055   9.942   0.859   2.615  0.8834 -1.2713 -0.1917
  119MOL0     H16056   9.924   0.855   2.437 -1.9764  2.8814 -0.9826
  119MOL0     H16057   9.791   1.061   2.597  0.6182 -3.5335  2.6209
  119MOL0     H16058   9.718   0.927   2.511  0.7379 -0.0164 -1.7681
  119MOL0     H16059   9.688   1.123   2.376  0.9355  0.9071 -0.7349
  119MOL0     H16060   9.856   1.159   2.360 -1.4976  1.6572 -3.5457
  119MOL0     H16061   9.819   0.834   2.088 -0.5013 -0.2911  0.0045
  119MOL0     H16062  10.213   1.095   2.869 -2.9499  2.3586 -1.4278
  119MOL0     H16063  10.481   1.307   2.973  2.1440  0.3142 -0.9055
  119MOL0     H16064  10.366   1.187   3.026  1.1144 -0.7212  2.0140
  119MOL0     H16065  10.523   1.129   2.964 -0.0722  1.0222  0.1713
  120MOL0     O16066   1.123   1.496   8.758  0.1790  0.2513  0.0042
  120MOL0     C16067   1.089   1.525   8.873  0.2097 -0.8110  0.8154
  120MOL0     O16068   1.150   1.620   8.942  0.8389  0.7450 -0.3733
  120MOL0     C16069   1.241   1.710   8.894  0.4179  0.6494  0.7553
  120MOL0     C16070   1.363   1.670   8.840  0.2851  0.2487 -0.4123
  120MOL0     C16071   1.462   1.760   8.791  0.0098 -0.5764 -0.1889
  120MOL0     C16072   1.439   1.900   8.801  0.4037 -0.3405 -0.4175
  120MOL0     O16073   1.543   1.987   8.785  0.3034 -0.1598  0.8303
  120MOL0     C16074   1.520   2.130   8.776  0.5945  0.8125 -0.8521
  120MOL0     C16075   1.639   2.190   8.711  1.3280 -0.5648  0.0221
  120MOL0     C16076   1.757   2.180   8.803 -0.1449 -0.2051 -0.2064
  120MOL0     C16077   1.880   2.245   8.732 -0.5797  0.1484  1.3713
  120MOL0     C16078   2.010   2.198   8.792  0.4343 -0.3895  0.2994
  120MOL0     C16079   2.143   2.253   8.750 -0.4104 -0.0081  0.6319
  120MOL0     C16080   2.164   2.240   8.601 -1.1725  0.5957  0.1916
  120MOL0     C16081   2.284   2.310   8.538  0.3443  0.0975  0.4690
  120MOL0     N16082   2.301   2.265   8.398  0.2495 -1.0696 -0.0427
  120MOL0     C16083   2.359   2.149   8.351 -0.1571 -0.6449  0.3792
  120MOL0     C16084   2.356   2.165   8.217  0.5989 -0.5426 -0.2254
  120MOL0     C16085   2.411   2.066   8.128 -1.1569 -0.4304  0.1785
  120MOL0     C16086   2.338   1.938   8.116  0.0301 -0.0568 -0.1506
  120MOL0     C16087   2.400   1.850   7.993  0.2112  0.1853 -0.3084
  120MOL0     C16088   2.546   1.819   8.017 -0.2110  1.0543  0.5100
  120MOL0     O16089   2.582   1.812   8.158 -0.1560  0.0085  0.0723
  120MOL0     C16090   2.699   1.747   8.198  0.4536 -0.4926 -0.5842
  120MOL0     C16091   2.732   1.748   8.335 -0.0347  0.6108 -0.3716
  120MOL0     C16092   2.851   1.689   8.368  0.1239  0.1950  0.8407
  120MOL0     C16093   2.931   1.607   8.280  0.4678  0.2451 -0.2699
  120MOL0     C16094   3.041   1.524   8.326  0.6850  0.2984 -0.1400
  120MOL0     O16095   3.103   1.565   8.435  0.0016  0.4147 -0.7219
  120MOL0     C16096   3.225   1.516   8.460 -0.6301  0.6619 -0.0906
  120MOL0     C16097   3.335   1.585   8.410 -0.0070 -0.4146 -0.5172
  120MOL0     C16098   3.459   1.540   8.440  0.5968  0.4040 -0.2004
  120MOL0     C16099   3.477   1.418   8.520 -0.2010  0.1328  0.5417
  120MOL0     O16100   3.598   1.371   8.560 -0.4126  0.0379 -0.0313
  120MOL0     C16101   3.700   1.469   8.559 -0.4371  0.0489  0.1417
  120MOL0     C16102   3.819   1.429   8.633  0.6593 -0.0840 -0.2277
  120MOL0     C16103   3.806   1.369   8.778  0.3353  0.8698  0.3827
  120MOL0     C16104   3.934   1.292   8.831  0.8245 -0.3755 -0.6737
  120MOL0     C16105   3.911   1.274   8.979 -0.0232  0.1973  0.1935
  120MOL0     C16106   4.049   1.254   9.050  0.3940  0.0204 -0.0956
  120MOL0     C16107   4.138   1.377   9.039  0.3274  0.0010 -0.2674
  120MOL0     C16108   4.254   1.380   9.133  0.9278 -0.1206  0.2761
  120MOL0    Cl16109   4.348   1.237   9.113  0.2034 -0.1799  0.0858
  120MOL0     C16110   3.363   1.345   8.571 -0.6126 -0.4952  0.7025
  120MOL0     C16111   3.240   1.405   8.538  0.2764 -0.0659 -0.1216
  120MOL0     O16112   3.072   1.427   8.254  0.6284 -0.3328 -0.1637
  120MOL0     C16113   2.892   1.603   8.147 -0.1136 -0.0340  0.4167
  120MOL0     C16114   2.786   1.680   8.109  0.3391  0.1620  0.1176
  120MOL0     N16115   2.288   2.281   8.177 -0.6961 -0.2073 -0.1070
  120MOL0     N16116   2.247   2.334   8.293 -1.1608  0.1027 -0.4855
  120MOL0     C16117   1.310   1.942   8.854  0.4958 -0.5928  0.4603
  120MOL0     C16118   1.213   1.848   8.887  0.7527 -0.3755 -1.1835
  120MOL0     C16119   0.998   1.438   8.949  0.9531  0.4270  0.4684
  120MOL0     C16120   0.976   1.300   8.903 -0.2276 -0.8840 -0.1226
  120MOL0     C16121   0.894   1.212   8.976  0.2213 -0.0696 -0.4817
  120MOL0     C16122   0.825   1.253   9.089  0.5434 -0.4936  0.4723
  120MOL0     O16123   0.743   1.155   9.140  0.6128 -0.0759 -0.8473
  120MOL0     C16124   0.690   1.173   9.272 -0.3822  0.4678  0.2734
  120MOL0     C16125   0.593   1.061   9.296  0.4117 -0.0406  0.3416
  120MOL0     C16126   0.536   1.066   9.432 -1.0531  0.5700  0.6004
  120MOL0     C16127   0.389   1.102   9.434  0.7002 -0.6031  0.0128
  120MOL0     C16128   0.375   1.231   9.382  0.5957 -1.1185  0.7353
  120MOL0     C16129   0.381   1.343   9.334 -0.2277 -0.3709 -0.0306
  120MOL0     C16130   0.835   1.387   9.125  0.2578  0.1714 -0.5382
  120MOL0     C16131   0.922   1.478   9.061  1.5081  0.3027 -1.0255
  120MOL0     C16132   0.910   1.621   9.116 -0.3333  0.5054 -0.3207
  120MOL0     H16133   1.372   1.562   8.828 -2.3536 -0.1366  0.3700
  120MOL0     H16134   1.555   1.724   8.747  1.5530  4.1271 -1.3258
  120MOL0     H16135   1.425   2.149   8.724 -0.9292  1.2789  1.8982
  120MOL0     H16136   1.521   2.165   8.879 -0.0803 -1.8309  0.1409
  120MOL0     H16137   1.603   2.292   8.696 -4.3619 -1.9176  2.0060
  120MOL0     H16138   1.642   2.147   8.611 -1.2272  2.9528 -1.7729
  120MOL0     H16139   1.775   2.074   8.824  1.9634  0.2977  0.7176
  120MOL0     H16140   1.739   2.226   8.900 -0.3526 -3.1164  1.2544
  120MOL0     H16141   1.868   2.233   8.624  1.6723 -0.4453  1.1483
  120MOL0     H16142   1.884   2.353   8.749 -0.4696  0.8143 -2.1888
  120MOL0     H16143   2.003   2.221   8.899  1.6593 -1.2253  0.5773
  120MOL0     H16144   2.013   2.090   8.781 -2.3192 -0.7201  1.7931
  120MOL0     H16145   2.147   2.360   8.773  3.2798  0.3065 -0.7500
  120MOL0     H16146   2.216   2.195   8.808  0.0478 -0.0721  0.0062
  120MOL0     H16147   2.076   2.285   8.555  1.5062  0.6321 -5.8450
  120MOL0     H16148   2.162   2.132   8.583  1.2517  0.3910  0.8635
  120MOL0     H16149   2.284   2.419   8.548 -0.8844  0.1150  0.3731
  120MOL0     H16150   2.368   2.288   8.605 -1.8629 -1.3063  2.9843
  120MOL0     H16151   2.408   2.070   8.407  0.6422 -1.3234 -1.2347
  120MOL0     H16152   2.404   2.122   8.034  1.2361  0.1806  0.2899
  120MOL0     H16153   2.514   2.044   8.157 -0.9801  0.3680  0.1730
  120MOL0     H16154   2.353   1.874   8.203  0.4419  1.1227  0.6762
  120MOL0     H16155   2.233   1.961   8.099  0.8975  3.2938 -1.8468
  120MOL0     H16156   2.392   1.895   7.894  2.5116 -0.1868 -0.7290
  120MOL0     H16157   2.355   1.750   7.997  2.2767 -0.7765  1.3829
  120MOL0     H16158   2.609   1.894   7.968  3.1180 -1.9220 -0.1131
  120MOL0     H16159   2.558   1.725   7.964 -3.5441  1.7427 -1.7445
  120MOL0     H16160   2.676   1.801   8.411 -0.3074 -0.6241  0.3263
  120MOL0     H16161   2.885   1.686   8.471 -2.3480 -1.0144  1.7154
  120MOL0     H16162   3.327   1.681   8.360  0.7226 -0.4848 -0.7803
  120MOL0     H16163   3.544   1.589   8.393  0.6689 -1.0317 -1.6626
  120MOL0     H16164   3.733   1.488   8.457  1.2427 -0.5366  0.5576
  120MOL0     H16165   3.674   1.566   8.603  2.2221  0.1057  1.7635
  120MOL0     H16166   3.861   1.345   8.578 -0.6354 -0.8449 -0.0879
  120MOL0     H16167   3.896   1.506   8.617  0.0843  0.6375  0.3737
  120MOL0     H16168   3.775   1.441   8.854  0.1777  1.3971 -0.1772
  120MOL0     H16169   3.735   1.286   8.782  0.0662  1.0260 -0.9076
  120MOL0     H16170   4.017   1.363   8.826 -0.4077  1.1080 -0.6705
  120MOL0     H16171   3.953   1.191   8.794  2.5200 -1.5376  2.9390
  120MOL0     H16172   3.864   1.177   8.995  0.2186 -0.4823 -2.6814
  120MOL0     H16173   3.861   1.360   9.024 -2.1401 -2.0435  2.3791
  120MOL0     H16174   4.031   1.241   9.157 -2.6975  3.5042  0.0537
  120MOL0     H16175   4.094   1.164   9.008 -0.8493 -0.8619  0.3805
  120MOL0     H16176   4.077   1.467   9.052 -0.4489 -0.3037 -1.6322
  120MOL0     H16177   4.187   1.386   8.942  3.2838  0.9646  1.1792
  120MOL0     H16178   4.315   1.466   9.108  1.5126 -0.9077 -1.0746
  120MOL0     H16179   4.231   1.395   9.239  0.5006  1.6648 -0.0355
  120MOL0     H16180   3.379   1.252   8.623  0.5189 -2.0239 -2.1527
  120MOL0     H16181   3.151   1.350   8.566  2.2573 -3.0073  0.9382
  120MOL0     H16182   2.950   1.551   8.070 -0.8976  0.7211 -0.7240
  120MOL0     H16183   2.766   1.668   8.003  0.8827  2.7172 -0.3320
  120MOL0     H16184   1.280   2.046   8.862  0.3636 -0.5359 -0.6322
  120MOL0     H16185   1.116   1.879   8.925  1.5770 -0.8876  1.5959
  120MOL0     H16186   1.028   1.273   8.812 -0.9384 -2.2672 -0.1366
  120MOL0     H16187   0.880   1.111   8.938 -3.6968  0.2094 -0.2025
  120MOL0     H16188   0.623   1.259   9.263 -2.5881 -1.3003 -1.0641
  120MOL0     H16189   0.767   1.188   9.348  0.9558  2.9398 -1.4241
  120MOL0     H16190   0.640   0.963   9.280  1.0096  0.5194 -1.5252
  120MOL0     H16191   0.512   1.070   9.223  1.5336  0.8621 -0.8341
  120MOL0     H16192   0.595   1.131   9.497  0.8179 -0.7766  0.3447
  120MOL0     H16193   0.556   0.966   9.472  1.0711 -0.3539 -2.3579
  120MOL0     H16194   0.332   1.034   9.371  1.3340  0.2628 -1.5481
  120MOL0     H16195   0.343   1.098   9.533  3.1141 -0.4137  1.2001
  120MOL0     H16196   0.374   1.443   9.295  0.0498  0.6813  2.4051
  120MOL0     H16197   0.777   1.410   9.214  0.3885 -1.4719  0.0098
  120MOL0     H16198   0.996   1.658   9.171 -1.9787  0.7105  2.2987
  120MOL0     H16199   0.894   1.694   9.036  2.8821  0.1334 -1.4331
  120MOL0     H16200   0.823   1.619   9.183 -1.6048  2.4440 -1.7797
  121MOL0     O16201   3.785   0.391   4.379  0.5566 -0.6551 -0.5972
  121MOL0     C16202   3.747   0.422   4.272 -0.1491  0.6570  1.2504
  121MOL0     O16203   3.816   0.493   4.175  0.8680 -0.4193  0.1214
  121MOL0     C16204   3.946   0.491   4.198  0.4029 -0.7896  0.3640
  121MOL0     C16205   4.009   0.578   4.288  0.2520 -0.5082 -0.1307
  121MOL0     C16206   4.142   0.591   4.307 -0.3751 -0.6143  0.7032
  121MOL0     C16207   4.233   0.514   4.223  0.4793 -0.4358 -0.3787
  121MOL0     O16208   4.368   0.523   4.219 -0.1991  0.1683  0.6616
  121MOL0     C16209   4.425   0.643   4.279 -0.5658  0.6020 -1.4187
  121MOL0     C16210   4.568   0.675   4.228 -0.4343  0.2637  0.3875
  121MOL0     C16211   4.623   0.800   4.299 -0.4445 -0.7932 -0.2558
  121MOL0     C16212   4.774   0.800   4.270  0.4508  0.5661 -0.2126
  121MOL0     C16213   4.836   0.937   4.299 -0.1012 -0.2572 -0.3497
  121MOL0     C16214   4.991   0.939   4.277  0.2809  0.1026  0.0573
  121MOL0     C16215   5.038   0.942   4.138  0.4671  0.3025  0.4565
  121MOL0     C16216   5.192   0.942   4.124 -0.2939  0.0165 -1.0125
  121MOL0     N16217   5.254   1.069   4.153 -0.2576  0.5265  0.0810
  121MOL0     C16218   5.307   1.152   4.055 -0.0981  0.0120  0.1817
  121MOL0     C16219   5.348   1.261   4.121 -0.0653 -0.5545 -0.2763
  121MOL0     C16220   5.388   1.392   4.065  0.1314  0.0237  0.2951
  121MOL0     C16221   5.523   1.380   4.002  0.7036 -0.0212  0.0444
  121MOL0     C16222   5.632   1.372   4.106  0.0909 -0.3634 -0.2886
  121MOL0     C16223   5.758   1.373   4.024 -0.5312  0.1187  0.2436
  121MOL0     O16224   5.870   1.325   4.101 -0.1018 -1.0679  0.1024
  121MOL0     C16225   5.995   1.322   4.040  0.6541  0.0822  0.4736
  121MOL0     C16226   6.092   1.257   4.102  0.4565  0.1664 -0.3727
  121MOL0     C16227   6.217   1.257   4.043 -0.4190 -0.4669 -0.2833
  121MOL0     C16228   6.246   1.318   3.920 -0.6993 -0.8639  1.0145
  121MOL0     C16229   6.380   1.310   3.851 -0.7851  0.4763 -0.1372
  121MOL0     O16230   6.385   1.363   3.726 -0.3198  0.2388 -0.3136
  121MOL0     C16231   6.509   1.376   3.665  0.9218  0.8402  0.0511
  121MOL0     C16232   6.562   1.277   3.586 -0.4889 -0.3833 -0.1659
  121MOL0     C16233   6.685   1.294   3.530  1.1712  0.2766  0.1788
  121MOL0     C16234   6.746   1.421   3.527 -0.4510  0.0719  0.4622
  121MOL0     O16235   6.862   1.464   3.465  0.2292 -0.1476 -0.6818
  121MOL0     C16236   6.950   1.376   3.404  0.5070 -0.3025 -0.6194
  121MOL0     C16237   6.906   1.342   3.264 -0.1628 -0.0657 -0.8015
  121MOL0     C16238   7.013   1.250   3.210  0.7489  0.3450  0.0251
  121MOL0     C16239   7.151   1.311   3.190 -0.8365  0.5704 -0.2117
  121MOL0     C16240   7.229   1.223   3.095  0.6743  0.3554  0.1103
  121MOL0     C16241   7.367   1.282   3.069 -0.1047 -0.5335 -0.1156
  121MOL0     C16242   7.451   1.189   2.981 -0.3546 -0.1973 -0.9298
  121MOL0     C16243   7.554   1.260   2.906 -0.3031 -0.0269  0.8846
  121MOL0    Cl16244   7.664   1.348   3.011 -0.3271  0.2169  0.1726
  121MOL0     C16245   6.686   1.519   3.596  0.0886 -0.5587  0.1692
  121MOL0     C16246   6.573   1.493   3.682 -0.0930  0.0840  0.7348
  121MOL0     O16247   6.476   1.265   3.913  0.4425 -0.1047  0.2913
  121MOL0     C16248   6.153   1.396   3.863  0.1935  0.1300  1.0666
  121MOL0     C16249   6.021   1.394   3.918 -1.0905 -0.6667 -0.5442
  121MOL0     N16250   5.305   1.245   4.255 -1.2226 -0.2715 -0.1963
  121MOL0     N16251   5.259   1.128   4.278 -0.3051  0.5494  0.4268
  121MOL0     C16252   4.170   0.423   4.133  0.5502 -0.4054  0.5036
  121MOL0     C16253   4.029   0.411   4.119 -0.8679 -0.0469 -0.5092
  121MOL0     C16254   3.600   0.408   4.240 -0.1480 -0.4338 -0.1907
  121MOL0     C16255   3.528   0.501   4.156 -0.1672 -0.0926  0.0594
  121MOL0     C16256   3.399   0.495   4.124  0.8877  0.3512  0.4571
  121MOL0     C16257   3.313   0.396   4.182 -0.6728 -0.4220 -0.7054
  121MOL0     O16258   3.186   0.377   4.145  0.2162  0.8536  1.0286
  121MOL0     C16259   3.098   0.489   4.142 -0.2306  1.1963 -0.2106
  121MOL0     C16260   2.967   0.446   4.072 -0.1795  0.8603  0.8426
  121MOL0     C16261   2.972   0.449   3.916 -0.1714 -0.0752 -0.4334
  121MOL0     C16262   2.943   0.589   3.850  0.4634 -0.1128  0.2515
  121MOL0     C16263   3.055   0.678   3.865 -0.0593  0.8588 -0.1869
  121MOL0     C16264   3.149   0.757   3.875  0.3628 -0.1377  0.3178
  121MOL0     C16265   3.377   0.308   4.276 -0.0628 -1.4513  0.4197
  121MOL0     C16266   3.519   0.316   4.311  0.3421 -0.5144  0.0717
  121MOL0     C16267   3.567   0.218   4.412  0.1085  0.1622 -0.4529
  121MOL0     H16268   3.938   0.638   4.344 -0.2908 -2.8937  1.9707
  121MOL0     H16269   4.164   0.659   4.389 -1.8374  2.0077 -0.9261
  121MOL0     H16270   4.376   0.737   4.253 -0.0272  1.5095  0.6178
  121MOL0     H16271   4.421   0.638   4.388 -0.3327  2.7000 -1.2619
  121MOL0     H16272   4.566   0.697   4.121  0.5165  4.1011  1.0120
  121MOL0     H16273   4.636   0.593   4.251 -0.3290 -0.1123 -1.1924
  121MOL0     H16274   4.602   0.792   4.406  0.1132  1.0743  0.0207
  121MOL0     H16275   4.578   0.892   4.261  0.0289 -0.9280 -1.1829
  121MOL0     H16276   4.828   0.722   4.324 -0.1936 -1.0401 -1.7917
  121MOL0     H16277   4.782   0.771   4.165  1.8011 -0.6383  0.1925
  121MOL0     H16278   4.791   1.014   4.235  0.7970 -0.7993 -1.6828
  121MOL0     H16279   4.820   0.955   4.405  1.7945 -0.1103 -0.0677
  121MOL0     H16280   5.031   1.027   4.327  2.9278 -1.3167  0.6160
  121MOL0     H16281   5.040   0.857   4.331 -0.9187 -0.0361  1.0077
  121MOL0     H16282   4.991   1.017   4.073  0.1908  2.5219  3.0196
  121MOL0     H16283   5.012   0.846   4.093 -2.0633 -0.0149  2.3706
  121MOL0     H16284   5.229   0.870   4.197 -0.5876 -0.1440 -1.0185
  121MOL0     H16285   5.212   0.913   4.020  0.7105  1.5685 -1.2820
  121MOL0     H16286   5.321   1.136   3.948 -1.0569  1.9647 -0.2865
  121MOL0     H16287   5.315   1.428   3.992 -1.0368 -1.9149  0.4423
  121MOL0     H16288   5.378   1.478   4.133 -3.9946 -1.4209  1.8416
  121MOL0     H16289   5.528   1.290   3.939  0.0164 -2.6642  3.4418
  121MOL0     H16290   5.532   1.470   3.940 -0.5633  1.0218  1.3276
  121MOL0     H16291   5.621   1.275   4.155  0.8680  0.5637  1.8145
  121MOL0     H16292   5.637   1.451   4.180  2.6590 -0.5460 -0.2008
  121MOL0     H16293   5.774   1.476   3.990 -3.3166  0.8615  0.9310
  121MOL0     H16294   5.750   1.311   3.935 -0.3570  2.1762 -1.2798
  121MOL0     H16295   6.073   1.197   4.190  1.4431 -1.1819 -1.0383
  121MOL0     H16296   6.296   1.206   4.097 -0.3508  1.2964  1.3767
  121MOL0     H16297   6.517   1.180   3.569 -0.7717 -0.6366  1.7889
  121MOL0     H16298   6.735   1.208   3.487 -1.2891 -1.0976 -0.0843
  121MOL0     H16299   7.043   1.433   3.405 -0.2605  0.9915 -0.3383
  121MOL0     H16300   6.966   1.288   3.468 -2.2036 -0.5008 -0.0935
  121MOL0     H16301   6.812   1.287   3.276 -1.1632  1.2323 -2.2381
  121MOL0     H16302   6.891   1.440   3.218  4.5286  1.8623  1.1838
  121MOL0     H16303   7.010   1.160   3.270  0.5079 -0.9258 -1.8028
  121MOL0     H16304   6.985   1.212   3.111  1.7206 -0.9900  0.2380
  121MOL0     H16305   7.206   1.338   3.280 -1.4663 -0.0801  0.3894
  121MOL0     H16306   7.147   1.411   3.146  3.0637  1.5281  1.2287
  121MOL0     H16307   7.174   1.214   3.001  0.7673 -0.5427  0.1373
  121MOL0     H16308   7.243   1.122   3.134  1.1218  0.6539  0.7281
  121MOL0     H16309   7.349   1.366   3.000 -1.7501 -1.6558 -1.1040
  121MOL0     H16310   7.423   1.306   3.160 -1.6766 -0.1363  0.7754
  121MOL0     H16311   7.380   1.143   2.910 -0.4486  0.2683 -1.1434
  121MOL0     H16312   7.497   1.116   3.047  2.5842  0.7382 -1.7712
  121MOL0     H16313   7.609   1.195   2.837  1.5651 -1.4181  3.5289
  121MOL0     H16314   7.515   1.338   2.840 -0.1467 -0.8419 -0.1925
  121MOL0     H16315   6.726   1.619   3.581 -0.8335 -0.5143 -2.6167
  121MOL0     H16316   6.539   1.577   3.742  1.3351  1.5535 -0.4424
  121MOL0     H16317   6.155   1.448   3.767 -0.7370 -3.0488 -0.8428
  121MOL0     H16318   5.949   1.459   3.871 -3.0556 -2.1405  0.2694
  121MOL0     H16319   4.230   0.356   4.073  0.3219 -1.1342  1.0758
  121MOL0     H16320   3.987   0.339   4.049  1.6141 -1.5052 -0.5975
  121MOL0     H16321   3.589   0.577   4.109  0.7486 -1.0368 -0.3382
  121MOL0     H16322   3.349   0.554   4.048 -1.7761 -0.8583  1.1550
  121MOL0     H16323   3.142   0.581   4.102  2.3489  1.2587  2.4586
  121MOL0     H16324   3.073   0.497   4.248 -0.6368 -0.0683 -0.1929
  121MOL0     H16325   2.892   0.523   4.092 -1.4267 -0.0169 -0.2450
  121MOL0     H16326   2.937   0.347   4.109 -1.4987  1.1529  0.5875
  121MOL0     H16327   2.910   0.369   3.875  1.5024  0.0143 -3.4008
  121MOL0     H16328   3.067   0.412   3.877 -0.7957  0.1105 -2.2309
  121MOL0     H16329   2.912   0.573   3.747 -2.2862  0.5467  0.8931
  121MOL0     H16330   2.856   0.637   3.895 -1.7996  0.7026 -4.4188
  121MOL0     H16331   3.237   0.819   3.875  0.0703  0.3703 -2.2814
  121MOL0     H16332   3.300   0.240   4.310 -0.9275 -1.0807 -0.7159
  121MOL0     H16333   3.648   0.153   4.376  0.7145 -0.0517  1.2293
  121MOL0     H16334   3.597   0.264   4.506 -1.7287  1.7204 -0.5843
  121MOL0     H16335   3.493   0.144   4.443 -0.1146  0.9386  0.9220
  122MOL0     O16336   0.432  11.230  10.533  1.0303 -0.6161 -0.0993
  122MOL0     C16337   0.453  11.199  10.652 -0.8269  0.6728  0.7932
  122MOL0     O16338   0.579  11.165  10.694  0.2347  0.2686  0.0472
  122MOL0     C16339   0.696  11.150  10.618 -0.1763  0.3829 -0.4834
  122MOL0     C16340   0.714  11.137  10.481  0.6533  0.7130  0.2105
  122MOL0     C16341   0.839  11.120  10.422 -1.0471  0.4811 -1.0749
  122MOL0     C16342   0.955  11.133  10.499  0.0502  0.7653 -0.6789
  122MOL0     O16343   1.081  11.130  10.450 -0.6788  0.1117  0.0860
  122MOL0     C16344   1.116  11.017  10.358 -0.2467  0.6140  0.0848
  122MOL0     C16345   1.269  11.023  10.330 -0.1633  0.5133 -0.1330
  122MOL0     C16346   1.356  11.018  10.461  0.2065 -0.2506  0.1394
  122MOL0     C16347   1.484  11.100  10.448 -0.8636  0.0643 -0.5991
  122MOL0     C16348   1.581  11.034  10.345  0.9454 -0.0358  0.3882
  122MOL0     C16349   1.720  11.082  10.389 -0.8670 -0.1144 -0.5155
  122MOL0     C16350   1.826  11.024  10.291 -0.1881 -0.3727  0.3369
  122MOL0     C16351   1.970  11.064  10.335  0.0181  0.4602  0.1707
  122MOL0     N16352   2.069  11.030  10.235 -0.3318 -0.7786 -0.0801
  122MOL0     C16353   2.078  11.085  10.108  0.1804  0.8354  0.3135
  122MOL0     C16354   2.195  11.044  10.061 -0.8411  1.2820  1.0632
  122MOL0     C16355   2.253  11.065   9.922  0.1969 -0.7987  0.1023
  122MOL0     C16356   2.358  11.182   9.939 -0.2097 -0.1546 -1.0135
  122MOL0     C16357   2.418  11.225   9.807  0.4493 -0.4865  0.8153
  122MOL0     C16358   2.450  11.375   9.809 -0.1579 -0.5628 -1.3588
  122MOL0     O16359   2.531  11.430   9.919 -0.3831  0.5782  0.1840
  122MOL0     C16360   2.666  11.416   9.924 -0.3493 -0.0588 -1.0168
  122MOL0     C16361   2.737  11.461  10.036 -0.2172  0.0328  0.1742
  122MOL0     C16362   2.873  11.480  10.043  0.0133 -0.9492 -0.3636
  122MOL0     C16363   2.962  11.440   9.943  1.1790  0.5801  1.0247
  122MOL0     C16364   3.102  11.469   9.948 -0.4903 -0.0177  0.5974
  122MOL0     O16365   3.175  11.459   9.829  0.0869  0.5849  0.3752
  122MOL0     C16366   3.308  11.499   9.851 -0.4883  0.1321  0.7044
  122MOL0     C16367   3.405  11.421   9.780  0.1730  0.2355 -0.0701
  122MOL0     C16368   3.541  11.465   9.785 -0.1790 -0.6973  0.0359
  122MOL0     C16369   3.584  11.575   9.864 -0.0596  0.3130 -0.0333
  122MOL0     O16370   3.720  11.621   9.863  0.4217 -0.5739  0.0514
  122MOL0     C16371   3.811  11.509   9.848 -0.3689  0.9181 -1.5615
  122MOL0     C16372   3.947  11.535   9.923  0.4729  0.1075  0.2703
  122MOL0     C16373   4.027  11.650   9.865  0.8822 -0.0016 -0.0805
  122MOL0     C16374   4.171  11.629   9.908 -0.7225 -0.3319  0.4689
  122MOL0     C16375   4.260  11.741   9.835  0.7611  0.1159  0.1235
  122MOL0     C16376   4.265  11.874   9.913 -0.6962  0.3365  1.2912
  122MOL0     C16377   4.359  11.862  10.030  0.3170  0.1791 -0.9326
  122MOL0     C16378   4.377  12.000  10.093 -0.0098 -0.3340  0.0141
  122MOL0    Cl16379   4.492  11.998  10.240 -0.0116  0.2173 -0.0593
  122MOL0     C16380   3.491  11.641   9.938 -0.1588 -0.4153  0.4441
  122MOL0     C16381   3.354  11.610   9.928 -0.4016 -0.3615 -0.0847
  122MOL0     O16382   3.148  11.466  10.066 -0.1792  1.1080  0.5106
  122MOL0     C16383   2.899  11.371   9.837  0.3669  0.0834  0.2053
  122MOL0     C16384   2.753  11.369   9.827 -0.1554 -0.0089  0.4551
  122MOL0     N16385   2.253  10.960  10.160  0.6583 -0.3255  0.7731
  122MOL0     N16386   2.186  10.963  10.263  0.4097 -0.5923 -0.7652
  122MOL0     C16387   0.936  11.150  10.641 -0.9324  1.1972 -0.5166
  122MOL0     C16388   0.810  11.150  10.696  0.2265  1.0163  0.4064
  122MOL0     C16389   0.340  11.167  10.740 -0.1995  0.2861 -0.7287
  122MOL0     C16390   0.347  11.070  10.839  0.2725 -0.0376 -0.2068
  122MOL0     C16391   0.236  11.035  10.916  0.2226 -0.4256  0.8517
  122MOL0     C16392   0.112  11.095  10.898 -0.1782 -0.1331 -0.6278
  122MOL0     O16393   0.004  11.072  10.976  1.0265  0.0453 -0.1275
  122MOL0     C16394   0.005  10.951  11.061 -0.2489  0.1056 -0.6020
  122MOL0     C16395  -0.136  10.922  11.113  0.7109 -0.0367 -0.0443
  122MOL0     C16396  -0.224  10.883  10.992 -0.2420  0.1298  0.2646
  122MOL0     C16397  -0.369  10.895  11.040  0.1070 -0.7644 -0.9803
  122MOL0     C16398  -0.452  10.897  10.921 -0.4813 -0.2037  0.8199
  122MOL0     C16399  -0.528  10.908  10.821 -0.8612 -0.2976 -0.1041
  122MOL0     C16400   0.105  11.199  10.808  1.4342  0.5194 -0.2333
  122MOL0     C16401   0.215  11.238  10.731 -0.5872 -1.1516  0.7411
  122MOL0     C16402   0.183  11.356  10.631 -0.1659  0.4337 -0.5280
  122MOL0     H16403   0.631  11.109  10.417  2.4311 -1.6067 -1.2557
  122MOL0     H16404   0.854  11.111  10.315  1.9603 -1.9074 -0.5803
  122MOL0     H16405   1.092  10.921  10.404 -0.4090  1.2884  1.4604
  122MOL0     H16406   1.069  11.018  10.259  2.4044 -0.6750 -1.3113
  122MOL0     H16407   1.294  11.112  10.271 -2.0205  0.7155 -0.6572
  122MOL0     H16408   1.310  10.935  10.279 -0.7735  0.0144  0.2271
  122MOL0     H16409   1.383  10.919  10.500 -0.1035  0.5995  2.7283
  122MOL0     H16410   1.302  11.068  10.541 -0.6433 -1.9019  0.6487
  122MOL0     H16411   1.471  11.206  10.424 -0.1277  0.2420 -0.2342
  122MOL0     H16412   1.535  11.098  10.545 -0.7208 -0.8656 -0.6801
  122MOL0     H16413   1.569  10.925  10.347 -0.6752  0.1022 -0.5418
  122MOL0     H16414   1.564  11.069  10.243 -0.9944  2.2545  1.4072
  122MOL0     H16415   1.723  11.192  10.386 -1.3196 -0.0938 -0.3527
  122MOL0     H16416   1.748  11.054  10.491  2.7524  2.8828 -0.4591
  122MOL0     H16417   1.814  11.066  10.190  1.3444  0.9476  0.6626
  122MOL0     H16418   1.808  10.916  10.293  1.4933 -0.6981 -0.2608
  122MOL0     H16419   1.980  11.173  10.337  1.4926  0.3437  1.4405
  122MOL0     H16420   1.992  11.030  10.437  2.2270  2.0158  0.3023
  122MOL0     H16421   2.008  11.153  10.061  4.0109  4.0282 -1.3360
  122MOL0     H16422   2.304  10.982   9.873  1.0448  0.2746 -0.8864
  122MOL0     H16423   2.179  11.102   9.851 -1.3064  1.8546  2.7970
  122MOL0     H16424   2.294  11.259   9.984  0.2942 -0.4216  0.2032
  122MOL0     H16425   2.436  11.155  10.011  1.6928 -0.2746 -2.9948
  122MOL0     H16426   2.345  11.225   9.725  0.7724 -2.0693  0.4892
  122MOL0     H16427   2.509  11.168   9.784  0.1474 -0.9486  0.7449
  122MOL0     H16428   2.358  11.430   9.834  0.8929  0.9246 -0.6020
  122MOL0     H16429   2.499  11.402   9.715 -1.2391  3.1631 -1.0018
  122MOL0     H16430   2.687  11.508  10.120 -0.1633 -1.0954  0.8402
  122MOL0     H16431   2.904  11.539  10.128  0.8063 -2.3643  0.3551
  122MOL0     H16432   3.379  11.333   9.723  1.1084 -0.8366  1.1250
  122MOL0     H16433   3.610  11.423   9.712 -0.1888  0.9754 -0.9883
  122MOL0     H16434   3.767  11.422   9.898  2.1579 -0.3077 -1.2828
  122MOL0     H16435   3.825  11.490   9.741  0.6078  0.9284 -1.4430
  122MOL0     H16436   3.921  11.569  10.023 -2.6612 -1.4174  0.0902
  122MOL0     H16437   3.995  11.437   9.930 -0.2635 -0.1825  1.5909
  122MOL0     H16438   4.018  11.637   9.757  1.3587  0.1545 -0.1415
  122MOL0     H16439   3.988  11.747   9.899  1.5329  0.6013 -0.9999
  122MOL0     H16440   4.212  11.537   9.866  0.7375 -0.4076  1.9485
  122MOL0     H16441   4.180  11.620  10.016 -0.8082  1.7396  0.6893
  122MOL0     H16442   4.216  11.749   9.736  0.4427 -0.6320  0.1966
  122MOL0     H16443   4.363  11.704   9.828  1.1480  0.8024  1.6851
  122MOL0     H16444   4.301  11.953   9.846  0.9940 -2.5093 -1.3827
  122MOL0     H16445   4.165  11.889   9.956 -0.9488 -1.8105  1.5612
  122MOL0     H16446   4.458  11.824  10.000 -0.1945  1.0016 -4.0336
  122MOL0     H16447   4.320  11.796  10.108  2.5257  0.4574  0.5027
  122MOL0     H16448   4.414  12.080  10.028 -0.3794  0.9667  1.3483
  122MOL0     H16449   4.279  12.041  10.123  0.5224  1.5340 -0.6369
  122MOL0     H16450   3.515  11.732   9.992 -3.2620  2.1564 -2.0787
  122MOL0     H16451   3.278  11.665   9.982  0.7821  0.8433  0.4086
  122MOL0     H16452   2.962  11.345   9.752 -0.5844  0.2939 -0.5859
  122MOL0     H16453   2.715  11.334   9.732 -0.7374  0.0669  0.6611
  122MOL0     H16454   1.023  11.173  10.703  0.2946  1.4215 -2.2568
  122MOL0     H16455   0.801  11.171  10.802 -2.1894 -2.4494  1.0549
  122MOL0     H16456   0.439  11.024  10.876 -1.1551 -0.5709  3.0971
  122MOL0     H16457   0.246  10.967  11.000 -1.2059 -0.4505  1.0194
  122MOL0     H16458   0.073  10.972  11.144 -2.8470  2.5126  1.1136
  122MOL0     H16459   0.033  10.857  11.013  0.7994 -0.7883  1.6402
  122MOL0     H16460  -0.166  11.017  11.158  1.5153  0.1170  0.1864
  122MOL0     H16461  -0.134  10.846  11.191  1.8740 -0.5305 -0.5276
  122MOL0     H16462  -0.208  10.779  10.965  0.3203 -0.1015  1.4261
  122MOL0     H16463  -0.203  10.951  10.909  1.6058  0.1589  0.7073
  122MOL0     H16464  -0.399  10.809  11.102  1.5095 -1.4948 -1.2777
  122MOL0     H16465  -0.376  10.990  11.094  2.9881 -1.0708  0.1295
  122MOL0     H16466  -0.609  10.918  10.751 -0.3683 -0.3540 -0.6904
  122MOL0     H16467   0.009  11.249  10.812  1.2816  0.2121 -0.0387
  122MOL0     H16468   0.089  11.406  10.655 -0.1874 -1.2891  3.9085
  122MOL0     H16469   0.273  11.416  10.637  1.2526 -1.3246 -2.5140
  122MOL0     H16470   0.192  11.322  10.527  2.5061 -1.1601  0.1348
  123MOL0     O16471   1.652   9.364   9.889 -0.9648 -0.1305  0.3780
  123MOL0     C16472   1.585   9.410   9.805 -0.1139 -0.3541  0.3411
  123MOL0     O16473   1.626   9.427   9.677  0.6600  0.1450  0.0587
  123MOL0     C16474   1.739   9.376   9.625 -0.2574  0.3576 -0.9902
  123MOL0     C16475   1.725   9.297   9.506 -0.2882  0.7289 -0.4960
  123MOL0     C16476   1.842   9.235   9.455 -0.4842  0.1201  0.3069
  123MOL0     C16477   1.966   9.246   9.509  0.7240 -0.8548  0.2545
  123MOL0     O16478   2.074   9.189   9.448  1.1861 -0.7344 -0.1508
  123MOL0     C16479   2.205   9.199   9.512 -0.2777  0.5009  0.0012
  123MOL0     C16480   2.219   9.078   9.610 -0.3264 -0.6289 -0.7123
  123MOL0     C16481   2.356   9.082   9.686  0.0805 -0.7030  0.2601
  123MOL0     C16482   2.372   9.204   9.780  0.1114 -0.0007  1.4047
  123MOL0     C16483   2.483   9.188   9.884  0.2944  0.2889 -0.0682
  123MOL0     C16484   2.481   9.302   9.988  1.0677  0.0660  0.3950
  123MOL0     C16485   2.603   9.274  10.079  0.0062 -0.7335 -0.6573
  123MOL0     C16486   2.603   9.383  10.183 -0.4176 -0.6699  0.3685
  123MOL0     N16487   2.669   9.502  10.121  0.0117 -0.2277 -0.5536
  123MOL0     C16488   2.800   9.512  10.078  0.3652  0.1166  0.2754
  123MOL0     C16489   2.812   9.638  10.027  0.1662  0.3489  0.3037
  123MOL0     C16490   2.935   9.691   9.950 -0.1129 -0.2216 -0.2155
  123MOL0     C16491   3.062   9.697  10.046  0.1188  0.4525  0.2166
  123MOL0     C16492   3.050   9.828  10.127 -0.3942  0.7930  0.7158
  123MOL0     C16493   3.182   9.857  10.204  0.3099 -0.0630  0.4555
  123MOL0     O16494   3.261   9.917  10.097  0.2010  0.3564  0.0475
  123MOL0     C16495   3.385   9.962  10.119 -0.6544  0.2735  0.7141
  123MOL0     C16496   3.461  10.031  10.014  0.1330  0.6028 -0.2801
  123MOL0     C16497   3.597  10.052  10.032  0.2778 -0.6692 -0.2557
  123MOL0     C16498   3.662  10.020  10.154  0.3849  0.7898  0.6158
  123MOL0     C16499   3.797  10.071  10.180 -0.1727 -0.3560  0.3275
  123MOL0     O16500   3.866  10.002  10.277 -0.2827 -0.1889 -0.3653
  123MOL0     C16501   3.987  10.062  10.318 -0.3100 -0.5252 -0.3763
  123MOL0     C16502   3.988  10.158  10.411  0.8348 -0.7114 -0.8039
  123MOL0     C16503   4.103  10.205  10.452 -0.0544 -0.5412  1.0266
  123MOL0     C16504   4.223  10.162  10.393  0.5119 -0.1883 -0.5965
  123MOL0     O16505   4.349  10.211  10.434 -0.1366  0.0453  0.1010
  123MOL0     C16506   4.369  10.300  10.547  0.1145  0.0399 -0.4262
  123MOL0     C16507   4.501  10.378  10.551  0.0599  0.6338  0.5502
  123MOL0     C16508   4.618  10.287  10.560  0.1928  0.2870  0.4790
  123MOL0     C16509   4.743  10.369  10.560  1.1429  0.2069  0.1345
  123MOL0     C16510   4.857  10.277  10.548  0.0730  0.1340 -0.2417
  123MOL0     C16511   4.976  10.362  10.573 -0.4858 -0.3564 -0.1106
  123MOL0     C16512   5.116  10.288  10.559 -0.1628  0.2537  0.4995
  123MOL0     C16513   5.142  10.177  10.671  0.2881 -0.0863 -0.0775
  123MOL0    Cl16514   5.318  10.114  10.677  0.0763  0.2946 -0.4253
  123MOL0     C16515   4.215  10.071  10.285 -0.0914 -0.4228 -0.5290
  123MOL0     C16516   4.095  10.023  10.246 -0.9709 -0.3876  0.4888
  123MOL0     O16517   3.836  10.169  10.118 -0.0695 -0.4908 -0.1269
  123MOL0     C16518   3.589   9.958  10.254  0.5391  0.5782 -0.0487
  123MOL0     C16519   3.452   9.932  10.245  0.6766 -0.7200  1.5953
  123MOL0     N16520   2.686   9.706  10.039 -0.1167 -0.3162  0.7321
  123MOL0     N16521   2.602   9.624  10.097 -0.0947  0.7699  0.4843
  123MOL0     C16522   1.969   9.331   9.624 -0.2043 -0.2688  0.5187
  123MOL0     C16523   1.865   9.394   9.686  0.1038 -0.2090 -0.4618
  123MOL0     C16524   1.437   9.438   9.828 -0.6272 -0.0565 -0.7451
  123MOL0     C16525   1.360   9.492   9.724 -0.0226 -0.2840  0.5642
  123MOL0     C16526   1.220   9.502   9.730 -0.6250 -0.6500 -0.4829
  123MOL0     C16527   1.157   9.458   9.851  0.0812  0.0278 -0.4004
  123MOL0     O16528   1.016   9.450   9.871 -0.1173 -0.2978 -0.6303
  123MOL0     C16529   0.923   9.454   9.757  0.6493 -0.3255  0.1419
  123MOL0     C16530   0.770   9.459   9.792 -0.1676 -0.1845 -0.7717
  123MOL0     C16531   0.723   9.350   9.895  0.4605 -0.3195  0.7851
  123MOL0     C16532   0.601   9.396   9.964  0.2625 -0.0916 -0.0814
  123MOL0     C16533   0.491   9.399   9.866  0.1036 -0.1149 -0.5323
  123MOL0     C16534   0.399   9.394   9.795  1.5737  0.3457 -0.7384
  123MOL0     C16535   1.228   9.416   9.958  0.2103 -1.0278 -0.3641
  123MOL0     C16536   1.367   9.411   9.944 -0.1326  0.1684  0.5823
  123MOL0     C16537   1.433   9.359  10.066 -0.3732 -0.3299  0.3324
  123MOL0     H16538   1.631   9.285   9.454 -0.3594  0.6802 -0.3552
  123MOL0     H16539   1.833   9.158   9.379 -3.8466 -1.1840  1.8183
  123MOL0     H16540   2.276   9.174   9.432 -1.7216 -0.7117 -0.9628
  123MOL0     H16541   2.236   9.293   9.558  1.1944 -0.6306  1.4638
  123MOL0     H16542   2.226   8.978   9.564 -0.4024 -0.8037 -0.3441
  123MOL0     H16543   2.139   9.069   9.683  0.6668 -1.3348  0.3306
  123MOL0     H16544   2.440   9.061   9.618  1.1545  0.0007  1.3219
  123MOL0     H16545   2.350   8.991   9.745 -0.5659 -2.7112 -2.6628
  123MOL0     H16546   2.403   9.290   9.719 -1.7219  0.1430  0.6084
  123MOL0     H16547   2.280   9.235   9.831 -1.1610  0.9349 -1.2528
  123MOL0     H16548   2.469   9.097   9.942  1.3659 -0.3323 -0.7623
  123MOL0     H16549   2.573   9.179   9.822 -0.5446 -2.0053 -1.0536
  123MOL0     H16550   2.471   9.398   9.936  2.6719  0.6660  1.1288
  123MOL0     H16551   2.386   9.295  10.043 -0.4585  1.8568 -1.8154
  123MOL0     H16552   2.699   9.288  10.027 -1.4791 -0.3502 -3.4969
  123MOL0     H16553   2.584   9.174  10.118 -2.0178 -0.1485 -0.0448
  123MOL0     H16554   2.506   9.421  10.217  0.0932 -0.4496  1.6429
  123MOL0     H16555   2.649   9.359  10.279 -0.6804  0.8419  0.8943
  123MOL0     H16556   2.877   9.438  10.060  0.9258  1.2988 -2.9187
  123MOL0     H16557   2.962   9.616   9.876  2.6895 -2.6568  2.9224
  123MOL0     H16558   2.909   9.788   9.906 -0.8536  0.0201  0.7226
  123MOL0     H16559   3.061   9.610  10.113  0.2502  1.1151  1.0948
  123MOL0     H16560   3.152   9.689   9.984 -0.2687 -5.6825 -0.1796
  123MOL0     H16561   2.968   9.807  10.197  0.5932 -0.0871  1.6562
  123MOL0     H16562   3.029   9.914  10.064  0.5029  0.2884 -0.2999
  123MOL0     H16563   3.226   9.762  10.236 -0.6572 -0.4490  0.6475
  123MOL0     H16564   3.165   9.925  10.288  1.6808 -0.4304  1.0719
  123MOL0     H16565   3.400  10.051   9.927 -0.8404  1.2563  0.5288
  123MOL0     H16566   3.657  10.111   9.964  0.2403  1.9353  1.8319
  123MOL0     H16567   3.896  10.191  10.459  1.0726 -0.1341 -0.7363
  123MOL0     H16568   4.106  10.257  10.548  0.5215 -1.3313  1.4469
  123MOL0     H16569   4.293  10.376  10.569  0.7317  0.3231  0.8439
  123MOL0     H16570   4.365  10.235  10.634 -1.1046  1.3886  0.5923
  123MOL0     H16571   4.503  10.437  10.459 -3.5482 -3.1491 -2.2889
  123MOL0     H16572   4.494  10.417  10.653  0.3072  1.3943  0.2821
  123MOL0     H16573   4.613  10.230  10.653  1.3508 -1.2728 -0.3679
  123MOL0     H16574   4.619  10.223  10.472  0.0008 -0.2651  0.8767
  123MOL0     H16575   4.755  10.429  10.651  0.6269  0.5324 -0.0062
  123MOL0     H16576   4.745  10.443  10.479 -1.3830  1.0289  0.7335
  123MOL0     H16577   4.861  10.235  10.447  3.9334 -1.5753  0.4403
  123MOL0     H16578   4.840  10.197  10.620 -0.3646  1.3679  1.0629
  123MOL0     H16579   4.974  10.447  10.505  1.6052 -0.8497 -0.8844
  123MOL0     H16580   4.975  10.393  10.678 -0.2222  0.5001 -0.3536
  123MOL0     H16581   5.198  10.359  10.562  1.5651 -1.6736  2.5185
  123MOL0     H16582   5.123  10.240  10.461  1.1443  1.4799 -0.0399
  123MOL0     H16583   5.116  10.206  10.773  2.2048 -0.1075  0.4507
  123MOL0     H16584   5.073  10.093  10.661 -5.4376  3.7033  2.1306
  123MOL0     H16585   4.306  10.028  10.242 -0.7135 -1.6968 -0.6295
  123MOL0     H16586   4.088   9.951  10.166  0.4248 -2.8099  2.3975
  123MOL0     H16587   3.633   9.911  10.341 -0.0598 -1.4769 -0.8031
  123MOL0     H16588   3.400   9.880  10.325  0.6370  0.4608  2.3511
  123MOL0     H16589   2.069   9.337   9.667 -0.6105 -4.2001  2.4287
  123MOL0     H16590   1.879   9.457   9.772  0.3565 -0.8526 -0.0266
  123MOL0     H16591   1.412   9.507   9.629 -0.2403  0.6078  0.5792
  123MOL0     H16592   1.152   9.540   9.654 -1.6288  0.4657  0.9037
  123MOL0     H16593   0.931   9.355   9.710 -1.5431 -1.6059  2.2194
  123MOL0     H16594   0.950   9.527   9.680 -1.8771 -0.2495 -0.7885
  123MOL0     H16595   0.711   9.463   9.701  0.4780  0.7236 -1.1652
  123MOL0     H16596   0.754   9.560   9.833 -0.6579 -0.1400 -1.0722
  123MOL0     H16597   0.799   9.329   9.971  1.5074  1.6321  0.3347
  123MOL0     H16598   0.705   9.256   9.842 -0.7205  0.0863  0.4340
  123MOL0     H16599   0.576   9.325  10.044 -1.0767 -0.9910 -1.2427
  123MOL0     H16600   0.623   9.489  10.016  1.5334 -0.6782  0.4696
  123MOL0     H16601   0.306   9.383   9.743  1.8762 -0.3591 -1.1480
  123MOL0     H16602   1.179   9.372  10.045 -0.5412 -0.4084 -0.4702
  123MOL0     H16603   1.454   9.251  10.056  2.7805  0.2051 -0.0491
  123MOL0     H16604   1.524   9.415  10.091 -0.0367 -1.9496  3.1174
  123MOL0     H16605   1.371   9.373  10.154 -3.5398 -1.0251 -1.6409
  124MOL0     O16606   5.357   0.205   3.080  0.0871  0.1489  0.2344
  124MOL0     C16607   5.333   0.324   3.112 -0.0245  0.3157 -0.4392
  124MOL0     O16608   5.278   0.365   3.226 -0.5386  0.1094  0.2346
  124MOL0     C16609   5.239   0.268   3.314  0.5623  0.1372 -0.0436
  124MOL0     C16610   5.330   0.224   3.415  0.4436  0.0495 -0.3436
  124MOL0     C16611   5.301   0.101   3.484 -1.0747 -0.4377  0.5194
  124MOL0     C16612   5.174   0.042   3.464  0.0829  0.4817 -1.2028
  124MOL0     O16613   5.135  -0.062   3.551  0.7125  0.0596  0.9097
  124MOL0     C16614   5.216  -0.178   3.566 -0.6819  0.3592 -0.8067
  124MOL0     C16615   5.149  -0.275   3.658 -0.8285 -0.0955 -0.5474
  124MOL0     C16616   5.022  -0.344   3.598  0.1152  0.1801 -0.4508
  124MOL0     C16617   4.950  -0.414   3.706  0.2848  0.2395 -0.3219
  124MOL0     C16618   4.840  -0.507   3.660  1.0279 -0.5642  1.7094
  124MOL0     C16619   4.759  -0.569   3.770  0.0041  0.1861  0.0570
  124MOL0     C16620   4.639  -0.646   3.707  0.2185 -0.0831 -0.4610
  124MOL0     C16621   4.677  -0.794   3.699 -0.1941 -0.3797 -0.1289
  124MOL0     N16622   4.568  -0.864   3.634 -0.7749 -0.3696  0.3591
  124MOL0     C16623   4.582  -0.989   3.591 -0.4370 -0.5931  0.9099
  124MOL0     C16624   4.470  -1.020   3.529 -0.2634 -0.2909  0.3324
  124MOL0     C16625   4.447  -1.154   3.464 -0.6570  0.0843 -0.3504
  124MOL0     C16626   4.365  -1.138   3.340  0.1082 -0.8214  0.3822
  124MOL0     C16627   4.328  -1.269   3.269  0.6233  0.3876 -0.4416
  124MOL0     C16628   4.446  -1.350   3.205  1.2098  0.9659  0.0422
  124MOL0     O16629   4.547  -1.386   3.292  0.3611 -0.0146 -0.4738
  124MOL0     C16630   4.656  -1.462   3.244 -0.3834 -0.2116  0.1038
  124MOL0     C16631   4.682  -1.494   3.107  0.4216  0.9312 -0.3658
  124MOL0     C16632   4.796  -1.562   3.062 -0.3978  0.9111 -0.6006
  124MOL0     C16633   4.892  -1.598   3.157  0.2660  0.2842 -0.7065
  124MOL0     C16634   5.014  -1.672   3.114 -0.5087 -0.0272  0.1816
  124MOL0     O16635   5.103  -1.707   3.211  0.1138 -0.2399  0.0096
  124MOL0     C16636   5.209  -1.788   3.179 -0.3692 -0.5292 -0.6654
  124MOL0     C16637   5.211  -1.921   3.213 -0.1467  0.0696 -0.3776
  124MOL0     C16638   5.312  -2.003   3.180 -0.4024  0.9426  0.4483
  124MOL0     C16639   5.424  -1.963   3.103 -0.1812  1.1990  0.3402
  124MOL0     O16640   5.516  -2.063   3.065  0.6564 -0.3085 -0.3881
  124MOL0     C16641   5.644  -2.014   3.014  0.0154  0.2599  0.4923
  124MOL0     C16642   5.738  -1.962   3.119 -0.0288 -0.6143  0.0267
  124MOL0     C16643   5.886  -1.939   3.082 -0.5225 -0.3268  0.3917
  124MOL0     C16644   5.909  -1.907   2.932 -0.1479  0.6098  0.3135
  124MOL0     C16645   6.054  -1.860   2.902 -0.2050 -0.1712  0.1464
  124MOL0     C16646   6.159  -1.974   2.906  0.6014  0.2891  0.0012
  124MOL0     C16647   6.305  -1.918   2.878 -0.4743 -0.0530  0.2191
  124MOL0     C16648   6.370  -1.879   3.006 -0.3470 -0.1921  0.6614
  124MOL0    Cl16649   6.537  -1.822   2.966 -0.0626 -0.1800  0.1390
  124MOL0     C16650   5.428  -1.827   3.077  0.2790 -0.3319 -0.4407
  124MOL0     C16651   5.319  -1.735   3.113 -0.7466  0.2626 -0.3438
  124MOL0     O16652   5.026  -1.708   3.000  0.0159 -0.6549 -0.2695
  124MOL0     C16653   4.869  -1.570   3.295 -0.0020  0.1662  1.0454
  124MOL0     C16654   4.754  -1.502   3.337 -0.1124 -0.5266  0.2193
  124MOL0     N16655   4.384  -0.914   3.534  0.2122 -0.1960 -0.0910
  124MOL0     N16656   4.446  -0.817   3.598 -0.0577 -0.3036 -0.0428
  124MOL0     C16657   5.082   0.098   3.377 -0.0283 -0.1093 -0.1302
  124MOL0     C16658   5.109   0.213   3.296 -0.1023 -0.2905 -0.1036
  124MOL0     C16659   5.383   0.425   3.014  0.2149  0.3100 -0.4115
  124MOL0     C16660   5.350   0.412   2.882  0.0944  0.2151 -0.1874
  124MOL0     C16661   5.372   0.509   2.785 -0.2986 -0.3936 -0.3780
  124MOL0     C16662   5.451   0.616   2.824  0.8604 -0.5030 -0.6431
  124MOL0     O16663   5.493   0.703   2.729 -0.0078 -0.0502  0.5141
  124MOL0     C16664   5.536   0.832   2.760 -0.5225  0.3541 -0.3339
  124MOL0     C16665   5.516   0.906   2.624 -0.9674 -0.4219  0.4723
  124MOL0     C16666   5.525   1.058   2.652  0.4508  0.1924 -0.7661
  124MOL0     C16667   5.665   1.119   2.642 -0.3283 -0.0567 -0.4164
  124MOL0     C16668   5.677   1.254   2.707  0.2287 -0.6395  0.1807
  124MOL0     C16669   5.672   1.365   2.772 -0.0950  1.1649 -0.3698
  124MOL0     C16670   5.495   0.629   2.957  0.0287 -0.2760 -1.0083
  124MOL0     C16671   5.463   0.532   3.052 -0.0586 -0.2301 -1.0208
  124MOL0     C16672   5.514   0.545   3.197 -0.9618 -0.5313  0.7101
  124MOL0     H16673   5.428   0.271   3.416 -0.2237  1.5325  1.7407
  124MOL0     H16674   5.383   0.064   3.546 -0.3542  0.3315  0.0590
  124MOL0     H16675   5.246  -0.220   3.470  0.2857  0.9163 -0.7547
  124MOL0     H16676   5.309  -0.147   3.613 -2.3991  0.7218  2.6855
  124MOL0     H16677   5.131  -0.225   3.753  1.1903 -2.1308  0.9969
  124MOL0     H16678   5.220  -0.352   3.688 -2.1354 -0.7736  0.8840
  124MOL0     H16679   5.042  -0.417   3.519 -0.4969 -2.0940  1.3659
  124MOL0     H16680   4.960  -0.267   3.552  0.2214  0.0091 -0.8867
  124MOL0     H16681   5.022  -0.478   3.757  1.3193 -1.5160 -3.7157
  124MOL0     H16682   4.900  -0.339   3.768  1.8715  0.1823  1.1117
  124MOL0     H16683   4.779  -0.455   3.586  1.4465  0.3075  1.9588
  124MOL0     H16684   4.883  -0.588   3.600  2.9190  3.4531 -3.0039
  124MOL0     H16685   4.819  -0.641   3.825  1.4082  0.0297 -1.5673
  124MOL0     H16686   4.725  -0.492   3.839 -0.6985 -0.0666 -0.0002
  124MOL0     H16687   4.609  -0.597   3.613  0.0469  3.0056  1.0688
  124MOL0     H16688   4.543  -0.645   3.761  0.7494 -0.0477  0.5062
  124MOL0     H16689   4.759  -0.807   3.629 -1.7057 -0.2417 -2.0057
  124MOL0     H16690   4.690  -0.839   3.798  0.0559 -2.3970 -1.0325
  124MOL0     H16691   4.671  -1.051   3.593 -1.5372 -2.4713 -1.8795
  124MOL0     H16692   4.542  -1.206   3.445 -0.5510 -0.3626  1.2446
  124MOL0     H16693   4.400  -1.227   3.532  3.0671 -1.8041  0.4896
  124MOL0     H16694   4.269  -1.088   3.360  1.3624  1.1750  1.8008
  124MOL0     H16695   4.420  -1.061   3.286  4.2210 -1.3846  3.2533
  124MOL0     H16696   4.256  -1.250   3.188 -1.4375 -0.3533  1.1300
  124MOL0     H16697   4.276  -1.326   3.347 -0.1207  0.3024 -0.9910
  124MOL0     H16698   4.472  -1.292   3.116 -1.2756  0.4836 -1.1002
  124MOL0     H16699   4.396  -1.442   3.173  1.2343  0.8774  0.2588
  124MOL0     H16700   4.613  -1.477   3.025  0.8234 -0.5834 -1.0595
  124MOL0     H16701   4.790  -1.581   2.955 -1.0106 -1.5393 -0.2124
  124MOL0     H16702   5.121  -1.950   3.267  0.8541 -2.0854  0.2143
  124MOL0     H16703   5.303  -2.103   3.221  0.3741  1.5428  2.2110
  124MOL0     H16704   5.697  -2.105   2.984  1.2603  1.0347  0.2637
  124MOL0     H16705   5.628  -1.945   2.931 -0.4146 -0.7191 -0.2501
  124MOL0     H16706   5.700  -1.862   3.142  1.9643  0.0583  0.6729
  124MOL0     H16707   5.729  -2.019   3.212  0.6429  0.1101  0.5539
  124MOL0     H16708   5.911  -1.848   3.138 -0.0411 -1.9997  3.1022
  124MOL0     H16709   5.948  -2.020   3.124  0.9285  1.1172  1.1367
  124MOL0     H16710   5.839  -1.825   2.913  1.5368  2.0319 -0.0379
  124MOL0     H16711   5.891  -1.986   2.858  0.7262  2.2064 -1.6965
  124MOL0     H16712   6.085  -1.777   2.966  2.0144 -0.4427 -0.4673
  124MOL0     H16713   6.065  -1.812   2.803  1.4754  1.4071  1.0235
  124MOL0     H16714   6.160  -2.030   3.000  2.7739 -1.1028 -0.7728
  124MOL0     H16715   6.134  -2.041   2.823  0.1656  0.6272 -0.1461
  124MOL0     H16716   6.291  -1.828   2.818 -0.6880 -0.3342 -0.1541
  124MOL0     H16717   6.363  -1.993   2.823  3.5471  2.0088  1.2961
  124MOL0     H16718   6.313  -1.793   3.043  2.3645  1.9140  0.2793
  124MOL0     H16719   6.388  -1.953   3.084  1.9396 -2.1651 -1.5856
  124MOL0     H16720   5.515  -1.781   3.029 -0.0071 -0.8998 -1.5389
  124MOL0     H16721   5.322  -1.630   3.085 -0.1499  0.9668  2.1178
  124MOL0     H16722   4.940  -1.611   3.365 -1.3745 -1.5615  1.5017
  124MOL0     H16723   4.754  -1.469   3.440  0.2578  0.9582 -0.2246
  124MOL0     H16724   4.987   0.047   3.387  0.9049 -1.6943  0.9696
  124MOL0     H16725   5.031   0.264   3.241 -0.1678  0.2676  0.4971
  124MOL0     H16726   5.283   0.331   2.854  1.0070 -1.6056  2.4193
  124MOL0     H16727   5.344   0.490   2.682 -1.3109 -1.7900  0.1229
  124MOL0     H16728   5.638   0.822   2.800 -0.2118 -1.0468 -1.3941
  124MOL0     H16729   5.477   0.881   2.838  0.9505 -3.0532  3.2341
  124MOL0     H16730   5.416   0.894   2.581 -1.9033  5.4017  0.2452
  124MOL0     H16731   5.588   0.869   2.551  0.0141  4.1867 -1.2629
  124MOL0     H16732   5.491   1.090   2.751  3.2585 -2.4101  1.2240
  124MOL0     H16733   5.465   1.099   2.571  0.8930 -1.3485 -1.9116
  124MOL0     H16734   5.734   1.048   2.689 -0.4961  1.5055  2.4096
  124MOL0     H16735   5.699   1.123   2.538 -0.6393 -0.2000 -0.5260
  124MOL0     H16736   5.666   1.460   2.819 -2.2918  0.1663  1.5267
  124MOL0     H16737   5.565   0.701   3.000  2.4145 -4.3609  2.7680
  124MOL0     H16738   5.436   0.579   3.266  1.8522 -0.2058  4.0043
  124MOL0     H16739   5.551   0.447   3.228  0.6049 -1.0552 -2.4504
  124MOL0     H16740   5.594   0.620   3.205 -0.3681 -0.3885 -3.7895
  125MOL0     O16741   1.010   7.789   2.467  0.2644 -0.8506  0.1095
  125MOL0     C16742   1.039   7.875   2.552  0.2284  0.2477  0.6231
  125MOL0     O16743   0.950   7.947   2.626  0.5195 -0.0904  1.1282
  125MOL0     C16744   0.819   7.949   2.585 -0.4673 -0.6589  0.1487
  125MOL0     C16745   0.759   8.080   2.587  0.0127 -0.0079  0.1742
  125MOL0     C16746   0.624   8.088   2.560  0.3773  0.2159  0.9530
  125MOL0     C16747   0.542   7.984   2.515 -0.4102  1.1447  0.5508
  125MOL0     O16748   0.409   7.992   2.500 -0.0767 -0.4298 -0.4103
  125MOL0     C16749   0.382   8.012   2.366 -0.0538  0.0913  0.3045
  125MOL0     C16750   0.224   8.034   2.361 -0.0968  0.1039  0.1170
  125MOL0     C16751   0.128   7.913   2.370  0.7353  0.3177 -1.0380
  125MOL0     C16752   0.107   7.862   2.227 -0.1273  0.5471 -0.6225
  125MOL0     C16753   0.038   7.725   2.238  0.5050 -0.1221 -0.6815
  125MOL0     C16754   0.115   7.611   2.309  0.0243 -0.2097 -0.5363
  125MOL0     C16755   0.257   7.598   2.271  0.2673 -0.5295 -0.3267
  125MOL0     C16756   0.313   7.469   2.326  0.0547 -0.3673  1.3260
  125MOL0     N16757   0.343   7.462   2.469  0.1926  0.3925 -0.4605
  125MOL0     C16758   0.315   7.362   2.566 -0.2007  0.5478  0.8746
  125MOL0     C16759   0.375   7.408   2.682  0.3415  0.4790  0.0492
  125MOL0     C16760   0.394   7.328   2.807  0.6601 -0.1933  0.1403
  125MOL0     C16761   0.542   7.330   2.859 -0.7355  0.3037 -1.1292
  125MOL0     C16762   0.551   7.351   3.012 -0.1560 -0.0162  0.8716
  125MOL0     C16763   0.518   7.494   3.043  0.1443 -0.8015  0.3077
  125MOL0     O16764   0.599   7.588   2.966  1.4478  0.1449 -0.9515
  125MOL0     C16765   0.738   7.578   2.984 -0.0471 -0.2541 -0.5965
  125MOL0     C16766   0.811   7.527   3.094 -0.3284 -0.2566 -0.3535
  125MOL0     C16767   0.947   7.545   3.096  0.2330 -0.6325  0.1755
  125MOL0     C16768   1.017   7.605   2.989  0.0318 -0.2695 -0.3541
  125MOL0     C16769   1.161   7.636   2.999  0.1688 -0.7370  0.6716
  125MOL0     O16770   1.209   7.713   2.894 -0.1031 -0.0669 -0.1942
  125MOL0     C16771   1.333   7.766   2.922 -0.1587  0.6312 -0.0384
  125MOL0     C16772   1.355   7.905   2.929  0.1982 -0.3096 -0.3985
  125MOL0     C16773   1.474   7.955   2.974 -0.7346  0.1232 -0.1431
  125MOL0     C16774   1.590   7.869   2.985  0.4034  0.1777  0.0089
  125MOL0     O16775   1.709   7.925   3.035  0.7456 -0.3879 -0.1347
  125MOL0     C16776   1.809   7.835   3.074  0.4281 -0.2314 -0.1724
  125MOL0     C16777   1.912   7.903   3.161 -0.5316  0.4651 -0.0728
  125MOL0     C16778   2.047   7.895   3.091 -0.6605  0.0936 -0.6143
  125MOL0     C16779   2.146   7.974   3.175  0.0368  0.1300 -0.7089
  125MOL0     C16780   2.275   7.996   3.109 -0.0057  0.0767 -0.2773
  125MOL0     C16781   2.371   7.880   3.120 -0.4890  0.2580 -0.1575
  125MOL0     C16782   2.512   7.938   3.148  0.0386 -0.3073  0.6825
  125MOL0     C16783   2.611   7.827   3.158 -0.1509 -0.0792  0.0745
  125MOL0    Cl16784   2.769   7.899   3.202  0.3893  0.4800  0.0317
  125MOL0     C16785   1.580   7.734   2.944 -0.2682 -0.1369 -0.6642
  125MOL0     C16786   1.451   7.682   2.910  0.1357 -0.0856  1.4767
  125MOL0     O16787   1.219   7.596   3.102 -0.2172  0.1016 -0.1638
  125MOL0     C16788   0.936   7.663   2.886  0.2134  0.1923  0.3878
  125MOL0     C16789   0.796   7.646   2.884 -0.5277 -0.1745 -0.8122
  125MOL0     N16790   0.440   7.526   2.659  0.9641  0.1935 -0.3873
  125MOL0     N16791   0.418   7.555   2.537 -0.6418  0.2559  0.4876
  125MOL0     C16792   0.604   7.858   2.507  0.3821  0.1400 -0.2575
  125MOL0     C16793   0.735   7.842   2.549  0.4724  0.3277  1.3718
  125MOL0     C16794   1.182   7.909   2.575  0.1119  0.2701  0.2486
  125MOL0     C16795   1.203   8.038   2.605 -0.1260  0.4037  0.7946
  125MOL0     C16796   1.328   8.088   2.632 -0.5474 -0.7547 -0.0453
  125MOL0     C16797   1.441   8.012   2.614  0.2008 -0.2432 -0.2515
  125MOL0     O16798   1.560   8.077   2.644 -0.3232 -0.3011 -0.8705
  125MOL0     C16799   1.683   8.003   2.625  0.6916 -0.1097 -0.2890
  125MOL0     C16800   1.807   8.094   2.649  0.2263 -0.0185 -0.6371
  125MOL0     C16801   1.825   8.126   2.800  0.1219 -0.0963  0.5208
  125MOL0     C16802   1.947   8.220   2.817  0.3119 -0.0178  0.5995
  125MOL0     C16803   2.068   8.153   2.762 -0.4809  0.2609  0.9435
  125MOL0     C16804   2.148   8.090   2.690 -0.1234  0.3291  0.0371
  125MOL0     C16805   1.431   7.877   2.575  0.0510  0.3276  0.4372
  125MOL0     C16806   1.296   7.827   2.564 -0.4168  0.3579  0.4721
  125MOL0     C16807   1.282   7.688   2.503 -0.5289 -0.1532 -0.2136
  125MOL0     H16808   0.819   8.166   2.614  1.1672 -0.7057 -0.1480
  125MOL0     H16809   0.563   8.177   2.574  0.8024  1.1408 -2.2537
  125MOL0     H16810   0.433   8.094   2.315 -0.3698  1.6025  2.2832
  125MOL0     H16811   0.408   7.924   2.307  2.2583 -0.6340  2.2423
  125MOL0     H16812   0.203   8.086   2.267  2.2014 -0.0180 -0.5180
  125MOL0     H16813   0.201   8.103   2.444  1.8564 -0.2146  0.9759
  125MOL0     H16814   0.036   7.945   2.420  1.3930 -0.6072  0.8691
  125MOL0     H16815   0.181   7.845   2.437  0.8189  1.2967 -0.0652
  125MOL0     H16816   0.047   7.928   2.163  0.0584  0.5333 -0.8098
  125MOL0     H16817   0.209   7.858   2.187  0.5345  0.5172  1.0114
  125MOL0     H16818  -0.053   7.741   2.297  0.0505 -0.7617 -1.2029
  125MOL0     H16819  -0.005   7.680   2.148 -1.7038 -0.8412  0.6512
  125MOL0     H16820   0.114   7.622   2.417 -3.0599 -0.2751 -0.4706
  125MOL0     H16821   0.057   7.518   2.308 -0.2212 -0.0673  0.1480
  125MOL0     H16822   0.319   7.683   2.303  2.2844 -1.4338 -1.6558
  125MOL0     H16823   0.268   7.600   2.163  2.1177 -2.2984 -0.2164
  125MOL0     H16824   0.240   7.393   2.296  0.0199  0.4454 -0.7651
  125MOL0     H16825   0.404   7.449   2.269  1.6711  1.4580  3.0807
  125MOL0     H16826   0.261   7.268   2.567 -0.1124  0.4967  1.1319
  125MOL0     H16827   0.322   7.373   2.876 -0.9510  0.4776 -1.8653
  125MOL0     H16828   0.351   7.229   2.793  1.3559 -0.5416  0.3987
  125MOL0     H16829   0.585   7.232   2.840 -0.8183  0.2390 -0.9894
  125MOL0     H16830   0.605   7.400   2.804  2.4411 -0.3991  1.3166
  125MOL0     H16831   0.650   7.324   3.050  0.9609  1.7608 -0.5951
  125MOL0     H16832   0.482   7.282   3.063 -0.2848  0.8614  1.9371
  125MOL0     H16833   0.525   7.513   3.151 -0.3676  0.2127  0.1748
  125MOL0     H16834   0.416   7.508   3.008 -0.3428 -1.5390  1.3564
  125MOL0     H16835   0.764   7.498   3.187  1.2221  0.8606  0.8196
  125MOL0     H16836   1.005   7.508   3.181  1.4520  0.4419 -0.1558
  125MOL0     H16837   1.271   7.972   2.911 -0.2982 -0.0148  2.4288
  125MOL0     H16838   1.489   8.062   2.978 -3.1911  0.5055  1.6781
  125MOL0     H16839   1.763   7.750   3.126  3.4999 -1.1640  1.2758
  125MOL0     H16840   1.855   7.802   2.981 -0.5711 -1.4123 -0.2778
  125MOL0     H16841   1.888   8.008   3.181  0.3021  0.5024  0.8344
  125MOL0     H16842   1.914   7.858   3.261  1.4696 -5.0528 -2.2392
  125MOL0     H16843   2.075   7.791   3.073 -0.6638  0.1560 -0.9927
  125MOL0     H16844   2.041   7.936   2.989  1.0150 -0.0632 -0.8108
  125MOL0     H16845   2.162   7.947   3.280  0.2963  1.3194 -0.4220
  125MOL0     H16846   2.089   8.068   3.181 -0.3453 -0.1565  0.3918
  125MOL0     H16847   2.321   8.086   3.151 -0.1430  0.7532 -1.5038
  125MOL0     H16848   2.267   8.018   3.002 -0.4625 -0.5406 -0.3725
  125MOL0     H16849   2.345   7.807   3.197  0.3502 -0.0606 -0.1649
  125MOL0     H16850   2.373   7.819   3.029 -3.7911  1.3808 -1.1029
  125MOL0     H16851   2.519   8.013   3.228 -0.9718  2.2665 -1.4932
  125MOL0     H16852   2.538   8.009   3.069 -0.6475  0.2774  0.9777
  125MOL0     H16853   2.578   7.742   3.218 -0.2236  0.5414  0.9388
  125MOL0     H16854   2.631   7.781   3.061 -1.9033 -1.5458  0.3624
  125MOL0     H16855   1.669   7.673   2.936  0.3635  0.8456 -1.3486
  125MOL0     H16856   1.446   7.577   2.883  0.3939  0.8477 -3.1707
  125MOL0     H16857   0.983   7.692   2.793  1.4848 -2.2780  0.1536
  125MOL0     H16858   0.739   7.683   2.800 -3.0470 -0.2232  0.7985
  125MOL0     H16859   0.542   7.776   2.473 -2.3977  1.3900  1.4824
  125MOL0     H16860   0.787   7.747   2.534 -1.0787 -0.4533  0.6873
  125MOL0     H16861   1.123   8.108   2.626  0.2327  1.1159 -0.1414
  125MOL0     H16862   1.356   8.183   2.675  2.7392 -2.4321  1.8970
  125MOL0     H16863   1.685   7.966   2.523  0.5305 -2.3834  0.4729
  125MOL0     H16864   1.687   7.916   2.692  1.0587 -0.2922 -0.5453
  125MOL0     H16865   1.799   8.186   2.591  1.6574 -0.6179 -1.8322
  125MOL0     H16866   1.893   8.035   2.616 -1.0605 -0.7173 -2.9350
  125MOL0     H16867   1.844   8.039   2.863 -0.9979 -1.3901 -0.8797
  125MOL0     H16868   1.731   8.176   2.825 -1.6629 -3.0795  0.1666
  125MOL0     H16869   1.926   8.314   2.764  1.9608  0.8583  1.4423
  125MOL0     H16870   1.970   8.240   2.921 -1.4304 -0.7697  1.1670
  125MOL0     H16871   2.221   8.047   2.625  0.0531  0.9963 -0.2209
  125MOL0     H16872   1.516   7.810   2.564 -0.0879 -0.3102  2.7338
  125MOL0     H16873   1.373   7.638   2.538 -0.7284  0.4006  1.1569
  125MOL0     H16874   1.197   7.622   2.523 -1.3363  1.7479  3.7395
  125MOL0     H16875   1.299   7.697   2.396  3.1048  0.0053  0.2665
  126MOL0     O16876   3.806   3.441   7.049  0.7747 -0.4528  0.1162
  126MOL0     C16877   3.797   3.547   7.114  0.1303 -0.1395  0.7052
  126MOL0     O16878   3.900   3.625   7.146 -0.2712 -0.6622 -0.4284
  126MOL0     C16879   4.025   3.580   7.106  0.2731  0.8924  0.7551
  126MOL0     C16880   4.127   3.598   7.200  0.2262  0.5361 -0.0678
  126MOL0     C16881   4.264   3.587   7.169 -0.1670 -0.1945 -1.0159
  126MOL0     C16882   4.303   3.538   7.046  0.0747  1.1675  0.4521
  126MOL0     O16883   4.428   3.514   7.000  0.5577  0.5598  0.7100
  126MOL0     C16884   4.544   3.551   7.071  0.0689 -0.6103  0.0922
  126MOL0     C16885   4.661   3.487   7.006  0.4239 -0.3734  0.2192
  126MOL0     C16886   4.705   3.579   6.885 -0.2027 -0.4177 -1.0726
  126MOL0     C16887   4.840   3.542   6.834 -0.3476  0.2917 -0.3394
  126MOL0     C16888   4.837   3.401   6.761 -0.0191  0.2404 -0.0665
  126MOL0     C16889   4.969   3.340   6.718  0.6708 -0.0794 -0.2916
  126MOL0     C16890   5.025   3.399   6.591  0.3497 -0.3392  0.3101
  126MOL0     C16891   4.983   3.322   6.467 -0.8156  0.3024  0.1634
  126MOL0     N16892   5.023   3.394   6.346  0.2687 -0.1133 -0.7123
  126MOL0     C16893   5.117   3.353   6.254  0.0243 -0.1691 -0.2510
  126MOL0     C16894   5.122   3.453   6.168  0.1296  1.5674  0.3442
  126MOL0     C16895   5.205   3.450   6.050  0.1069  0.0911 -0.4545
  126MOL0     C16896   5.353   3.480   6.085  0.1546  0.1576  0.0068
  126MOL0     C16897   5.432   3.474   5.953 -0.0904 -0.7632 -0.4507
  126MOL0     C16898   5.582   3.436   5.959 -0.2526  0.1426  0.2089
  126MOL0     O16899   5.597   3.299   6.002 -0.3778  0.4032 -0.1889
  126MOL0     C16900   5.718   3.237   5.991 -0.4264  0.6428 -0.8996
  126MOL0     C16901   5.829   3.273   5.918 -0.2577 -0.5821 -0.8878
  126MOL0     C16902   5.952   3.198   5.915  0.7444 -0.5177 -0.2392
  126MOL0     C16903   5.955   3.083   5.984  1.1863 -0.0875  0.1473
  126MOL0     C16904   6.078   3.003   5.960  0.9125 -0.3356  0.1207
  126MOL0     O16905   6.140   3.030   5.840  0.3070  0.2525  0.4847
  126MOL0     C16906   6.258   2.948   5.825  0.3424 -0.8989  0.0320
  126MOL0     C16907   6.379   3.000   5.871 -0.5109 -0.4407  1.5274
  126MOL0     C16908   6.498   2.936   5.853 -0.4468  0.9025 -0.0294
  126MOL0     C16909   6.506   2.810   5.798  0.3031  0.1438 -0.4016
  126MOL0     O16910   6.626   2.744   5.799 -0.1187 -0.0146 -0.1128
  126MOL0     C16911   6.637   2.611   5.747  0.4159 -0.0604 -0.4933
  126MOL0     C16912   6.750   2.545   5.831 -0.2423 -0.5253  1.4287
  126MOL0     C16913   6.745   2.392   5.847  0.0485 -0.9510  0.1136
  126MOL0     C16914   6.897   2.355   5.876  0.3877  0.7389  0.3192
  126MOL0     C16915   6.973   2.424   5.989 -1.1377 -0.3063 -0.0369
  126MOL0     C16916   7.112   2.350   5.984 -0.0369  0.0001 -0.9574
  126MOL0     C16917   7.205   2.394   6.094  0.4913  0.3201  0.2749
  126MOL0     C16918   7.352   2.342   6.079 -0.7630 -0.4277 -0.1127
  126MOL0    Cl16919   7.339   2.159   6.069 -0.0057  0.2101  0.3973
  126MOL0     C16920   6.384   2.761   5.744 -0.1214  1.2107 -1.0833
  126MOL0     C16921   6.261   2.831   5.756 -0.5490 -0.1988 -0.3534
  126MOL0     O16922   6.116   2.925   6.048 -0.0251 -0.1641 -0.4900
  126MOL0     C16923   5.851   3.039   6.064  0.1969 -0.9254 -0.7474
  126MOL0     C16924   5.733   3.113   6.064  0.0423  0.1494  0.0375
  126MOL0     N16925   5.034   3.543   6.211  0.6454 -0.3087 -0.0743
  126MOL0     N16926   4.965   3.511   6.318  0.3869 -0.1555  0.8657
  126MOL0     C16927   4.199   3.527   6.951 -0.3473  0.3234  0.4825
  126MOL0     C16928   4.064   3.545   6.980  0.0555 -0.1877  0.9768
  126MOL0     C16929   3.661   3.608   7.129 -0.0856  0.6882 -0.0713
  126MOL0     C16930   3.644   3.751   7.119 -0.5795 -0.1647 -0.3258
  126MOL0     C16931   3.529   3.815   7.154  0.7661  0.1107 -0.7835
  126MOL0     C16932   3.413   3.743   7.190  0.4691 -0.1051 -0.0766
  126MOL0     O16933   3.294   3.814   7.205  0.2731  0.2718  0.0509
  126MOL0     C16934   3.180   3.739   7.246  0.5279  0.4273  0.5001
  126MOL0     C16935   3.061   3.831   7.266  0.4192 -0.6501  0.0527
  126MOL0     C16936   3.051   3.924   7.137 -0.4123 -0.6179  0.6282
  126MOL0     C16937   2.927   4.012   7.121 -0.1538  0.2040 -0.2376
  126MOL0     C16938   2.826   3.953   7.026  0.1801  0.5730  0.4380
  126MOL0     C16939   2.761   3.912   6.933  0.6329  0.2708 -0.2533
  126MOL0     C16940   3.427   3.603   7.199 -0.3612  0.2536  0.6246
  126MOL0     C16941   3.551   3.539   7.180  0.5302  0.1611 -0.1671
  126MOL0     C16942   3.557   3.387   7.209 -0.5081 -0.1063  0.2295
  126MOL0     H16943   4.096   3.637   7.297  0.2081  1.3927 -0.4099
  126MOL0     H16944   4.339   3.612   7.242  0.1199 -1.0907 -0.9945
  126MOL0     H16945   4.546   3.661   7.068 -1.0881 -0.5965 -1.4774
  126MOL0     H16946   4.547   3.517   7.175  0.4316 -0.9070 -0.0138
  126MOL0     H16947   4.619   3.388   6.987  1.3460 -0.9079  0.9323
  126MOL0     H16948   4.744   3.494   7.076  0.6375  2.2616 -0.1763
  126MOL0     H16949   4.705   3.681   6.926 -1.3039 -1.4351  1.7090
  126MOL0     H16950   4.651   3.571   6.791 -0.4115 -1.6129 -0.8657
  126MOL0     H16951   4.873   3.620   6.766  0.6268  0.0970 -0.1029
  126MOL0     H16952   4.920   3.537   6.908 -0.0733 -2.6547 -0.7294
  126MOL0     H16953   4.787   3.324   6.820  0.4486 -0.9443 -1.1761
  126MOL0     H16954   4.765   3.405   6.679 -2.2991  0.5578  1.8437
  126MOL0     H16955   5.045   3.344   6.797  0.2654 -2.3992  0.2823
  126MOL0     H16956   4.944   3.234   6.710 -0.6533  0.1936 -0.0425
  126MOL0     H16957   5.134   3.393   6.594  0.2856 -1.9725  0.1479
  126MOL0     H16958   4.997   3.505   6.593  1.4492 -0.0445  0.8223
  126MOL0     H16959   5.040   3.229   6.469  0.0182  0.8145  0.3575
  126MOL0     H16960   4.878   3.291   6.462 -0.5803 -0.3989 -0.7328
  126MOL0     H16961   5.170   3.259   6.264 -2.1049 -1.3662  0.5383
  126MOL0     H16962   5.189   3.355   5.998  2.5421  0.2602 -1.6562
  126MOL0     H16963   5.170   3.520   5.973 -0.6925  1.9056  1.4671
  126MOL0     H16964   5.367   3.580   6.127  1.7028  0.3537 -0.9021
  126MOL0     H16965   5.397   3.407   6.154  3.8681  1.4560 -0.7790
  126MOL0     H16966   5.417   3.570   5.904 -1.2516 -1.6361 -1.8644
  126MOL0     H16967   5.384   3.396   5.893 -1.1589  0.4516 -1.2045
  126MOL0     H16968   5.647   3.501   6.018 -1.1990  2.2733 -1.0006
  126MOL0     H16969   5.619   3.441   5.856 -0.3128 -0.6711  0.1350
  126MOL0     H16970   5.818   3.366   5.864 -0.9284 -1.1827 -1.8244
  126MOL0     H16971   6.031   3.240   5.853 -1.4347 -0.6969 -3.3720
  126MOL0     H16972   6.371   3.096   5.922  1.2375  0.2776  0.5484
  126MOL0     H16973   6.587   2.981   5.897 -2.2551  1.7762  3.0018
  126MOL0     H16974   6.542   2.563   5.771 -0.6388  2.1199 -0.1051
  126MOL0     H16975   6.656   2.597   5.640  1.0591 -1.3874 -0.2250
  126MOL0     H16976   6.846   2.578   5.789 -0.2646 -1.3763  0.6649
  126MOL0     H16977   6.740   2.587   5.931  1.1585  1.4188  0.8107
  126MOL0     H16978   6.678   2.345   5.920  0.2432 -0.9515  0.2914
  126MOL0     H16979   6.712   2.355   5.749 -0.0416  2.6506 -1.3626
  126MOL0     H16980   6.939   2.370   5.776  1.3082 -1.6988  0.2718
  126MOL0     H16981   6.899   2.247   5.895  3.5116 -0.0883 -3.4059
  126MOL0     H16982   6.930   2.419   6.089  1.1254  1.0094  1.0999
  126MOL0     H16983   6.990   2.527   5.955 -4.3136  0.3851  0.1632
  126MOL0     H16984   7.086   2.246   6.002  1.0994 -0.2264 -0.5337
  126MOL0     H16985   7.147   2.374   5.883 -2.0229  0.3291 -1.6130
  126MOL0     H16986   7.173   2.354   6.191  2.1896 -2.1513 -0.0654
  126MOL0     H16987   7.198   2.503   6.093 -3.3831  0.2111  0.2281
  126MOL0     H16988   7.403   2.385   5.993  1.8027  0.4801  1.7261
  126MOL0     H16989   7.405   2.371   6.170 -0.2910 -2.7809  0.4253
  126MOL0     H16990   6.382   2.666   5.690 -1.1792 -0.4200  1.5959
  126MOL0     H16991   6.165   2.793   5.722 -0.4052  0.8184 -2.0487
  126MOL0     H16992   5.864   2.951   6.126  0.4350 -1.6578 -1.8119
  126MOL0     H16993   5.657   3.067   6.126  0.1609 -0.5262 -0.3169
  126MOL0     H16994   4.212   3.502   6.847  1.4733  2.4488  0.1236
  126MOL0     H16995   3.989   3.544   6.902 -0.3265  0.6478  1.3282
  126MOL0     H16996   3.728   3.802   7.072 -1.5941 -0.8141 -3.0538
  126MOL0     H16997   3.510   3.919   7.131 -0.0823 -0.2533 -1.8085
  126MOL0     H16998   3.209   3.681   7.333 -0.6104  0.5529  0.9836
  126MOL0     H16999   3.155   3.667   7.167  0.6187  1.1214 -0.1831
  126MOL0     H17000   3.065   3.896   7.353  4.1271 -0.1375 -0.3469
  126MOL0     H17001   2.975   3.765   7.278 -1.1163  1.1486 -0.5269
  126MOL0     H17002   3.076   3.866   7.047  0.3633 -2.8763  2.2042
  126MOL0     H17003   3.124   4.003   7.155 -2.2013  1.9079 -2.2760
  126MOL0     H17004   2.880   4.028   7.218  0.4025 -0.1789  0.0941
  126MOL0     H17005   2.947   4.109   7.075  0.1856 -0.1360 -0.8200
  126MOL0     H17006   2.696   3.895   6.849  1.5905  0.7495 -1.1042
  126MOL0     H17007   3.348   3.538   7.235  0.4093 -0.6172  0.8068
  126MOL0     H17008   3.467   3.339   7.247 -0.8936  0.9765  0.7251
  126MOL0     H17009   3.580   3.337   7.115  0.9854 -3.4213  2.1806
  126MOL0     H17010   3.636   3.364   7.281  2.2228 -0.1730 -2.5620
  127MOL0     O17011   3.076   2.696   0.633 -0.3010  0.1260 -0.1756
  127MOL0     C17012   3.110   2.670   0.515  0.0501 -0.6471 -0.0016
  127MOL0     O17013   3.070   2.743   0.409  0.2527  0.6304  0.0197
  127MOL0     C17014   3.007   2.861   0.437  0.0316  0.4024 -0.1720
  127MOL0     C17015   2.867   2.867   0.440  0.2321  0.3338 -0.2670
  127MOL0     C17016   2.814   2.988   0.464 -0.1303  0.1097 -0.4396
  127MOL0     C17017   2.889   3.103   0.492 -0.0745 -0.2095 -0.1837
  127MOL0     O17018   2.815   3.221   0.509  0.1910  0.2227  0.4366
  127MOL0     C17019   2.884   3.343   0.506 -0.5214 -1.0897  0.1416
  127MOL0     C17020   2.782   3.456   0.520 -1.0011  0.9032 -0.1518
  127MOL0     C17021   2.689   3.476   0.396  0.2295  0.1256 -0.3877
  127MOL0     C17022   2.751   3.567   0.284  0.1408  0.6694  0.0657
  127MOL0     C17023   2.667   3.575   0.152 -1.1605 -0.2972 -0.3301
  127MOL0     C17024   2.523   3.597   0.180  0.2329 -0.9788  0.0837
  127MOL0     C17025   2.456   3.659   0.057 -0.1882 -0.4379  0.1401
  127MOL0     C17026   2.309   3.693   0.098  0.4661  0.4523 -0.4299
  127MOL0     N17027   2.305   3.822   0.183 -0.7738  0.4236  0.6469
  127MOL0     C17028   2.190   3.859   0.239 -0.3317 -0.1530  0.1870
  127MOL0     C17029   2.222   3.962   0.314 -0.5428 -0.0327 -0.1167
  127MOL0     C17030   2.126   4.059   0.390 -0.1869  0.4739  0.9345
  127MOL0     C17031   2.200   4.177   0.460  0.2721 -0.3509 -0.4572
  127MOL0     C17032   2.098   4.291   0.500 -0.0019  0.6382  0.2399
  127MOL0     C17033   2.054   4.369   0.370 -0.3957  0.9861  0.0616
  127MOL0     O17034   1.915   4.411   0.381  0.0899  0.1403  0.0684
  127MOL0     C17035   1.833   4.345   0.299 -0.8404  1.2216 -0.6197
  127MOL0     C17036   1.795   4.205   0.314 -0.1873 -0.6404 -0.4418
  127MOL0     C17037   1.692   4.139   0.246  0.5520  0.3532  0.4505
  127MOL0     C17038   1.618   4.209   0.155 -0.6597 -0.4857  1.3051
  127MOL0     C17039   1.496   4.158   0.094  0.4097 -0.2164 -0.0172
  127MOL0     O17040   1.412   4.248   0.044 -0.4372  0.3570 -0.1087
  127MOL0     C17041   1.296   4.205  -0.005  0.3931  0.7192 -0.3229
  127MOL0     C17042   1.273   4.116  -0.110  0.5599  0.7818 -0.0609
  127MOL0     C17043   1.154   4.095  -0.177  1.0213  0.6019 -0.7597
  127MOL0     C17044   1.039   4.167  -0.131  0.7476  0.2589 -0.6643
  127MOL0     O17045   0.920   4.150  -0.195  0.1039 -0.1822  0.5153
  127MOL0     C17046   0.802   4.210  -0.140  0.5869 -0.7327 -0.2695
  127MOL0     C17047   0.683   4.156  -0.213 -1.2109  0.2183 -0.2966
  127MOL0     C17048   0.545   4.204  -0.164 -0.2593 -0.4378  0.4836
  127MOL0     C17049   0.429   4.178  -0.259  0.1287  0.7392 -0.5031
  127MOL0     C17050   0.290   4.228  -0.203  0.1623 -0.1855 -0.1489
  127MOL0     C17051   0.177   4.211  -0.300  0.3838  0.0764  0.3817
  127MOL0     C17052   0.029   4.223  -0.259  0.0457  0.7045 -0.0261
  127MOL0     C17053  -0.018   4.367  -0.296  0.1183  0.5110 -0.5349
  127MOL0    Cl17054   0.051   4.498  -0.193 -0.1106 -0.2244  0.0102
  127MOL0     C17055   1.061   4.248  -0.018 -0.6596  0.3650 -0.4638
  127MOL0     C17056   1.186   4.272   0.045 -0.3343  1.1677 -0.8184
  127MOL0     O17057   1.478   4.038   0.093 -0.4048 -0.1737  0.0005
  127MOL0     C17058   1.650   4.349   0.132  0.0994 -0.7574  0.1994
  127MOL0     C17059   1.761   4.411   0.204 -0.1543  0.9006  0.0625
  127MOL0     N17060   2.365   3.980   0.316  0.5319 -0.5606 -0.5425
  127MOL0     N17061   2.413   3.904   0.217 -0.2098 -0.0673  0.4668
  127MOL0     C17062   3.031   3.096   0.490  0.6386 -0.4956 -0.4508
  127MOL0     C17063   3.084   2.970   0.476 -0.5527  0.8444  0.7627
  127MOL0     C17064   3.200   2.549   0.486  0.1962 -0.3018 -0.5709
  127MOL0     C17065   3.221   2.511   0.350 -0.1155 -1.0021 -0.0675
  127MOL0     C17066   3.317   2.421   0.307 -0.6812  0.0097  0.0234
  127MOL0     C17067   3.387   2.351   0.401 -0.6967  0.9829  0.0737
  127MOL0     O17068   3.471   2.251   0.371 -0.2510 -0.7166  0.0455
  127MOL0     C17069   3.486   2.204   0.240  0.0894  0.3179  0.5573
  127MOL0     C17070   3.611   2.119   0.235 -0.1727 -0.1955 -0.2554
  127MOL0     C17071   3.609   2.010   0.128 -1.1998 -0.4508 -0.7942
  127MOL0     C17072   3.739   1.945   0.115 -0.2483  0.5489  0.4271
  127MOL0     C17073   3.727   1.816   0.035  0.2564 -0.7278 -0.4365
  127MOL0     C17074   3.714   1.706  -0.015 -0.4462 -0.0833  0.6938
  127MOL0     C17075   3.364   2.375   0.533 -1.3525 -0.4154 -0.3316
  127MOL0     C17076   3.277   2.479   0.584  0.5528  0.1892  1.3500
  127MOL0     C17077   3.274   2.488   0.737 -0.1370  0.4871  0.5885
  127MOL0     H17078   2.813   2.780   0.404 -0.5406  1.0102 -0.7751
  127MOL0     H17079   2.707   2.999   0.454  0.0594  0.1668 -3.4870
  127MOL0     H17080   2.940   3.363   0.598  2.0573 -0.1459 -1.5237
  127MOL0     H17081   2.953   3.354   0.422 -2.1144  1.6003 -0.9430
  127MOL0     H17082   2.835   3.549   0.539 -0.6250  0.9228 -1.2233
  127MOL0     H17083   2.730   3.421   0.610 -0.2418  2.0326  0.7478
  127MOL0     H17084   2.601   3.533   0.429 -0.8173 -1.9141  0.5434
  127MOL0     H17085   2.635   3.390   0.355 -1.7806  0.6490  1.0284
  127MOL0     H17086   2.775   3.663   0.331  2.0453  0.6123 -0.7171
  127MOL0     H17087   2.849   3.531   0.251 -0.2272  0.3216 -0.6709
  127MOL0     H17088   2.707   3.653   0.086  1.0660 -0.9327  0.1634
  127MOL0     H17089   2.674   3.485   0.091 -0.8041  0.7483 -1.8871
  127MOL0     H17090   2.480   3.502   0.212 -2.6383  0.4088  0.7369
  127MOL0     H17091   2.520   3.667   0.264  1.2529 -3.0496  1.9370
  127MOL0     H17092   2.465   3.591  -0.028 -0.2089 -0.0919 -0.1413
  127MOL0     H17093   2.506   3.754   0.033 -0.2812 -0.5698 -0.5675
  127MOL0     H17094   2.248   3.701   0.007  1.3746 -0.2206 -1.1194
  127MOL0     H17095   2.271   3.608   0.156  2.1154  1.7258  2.7845
  127MOL0     H17096   2.096   3.807   0.225 -0.4538 -0.4639  1.9835
  127MOL0     H17097   2.066   4.100   0.309  2.2818  0.6337 -0.9622
  127MOL0     H17098   2.062   4.010   0.464 -2.4398 -0.7782 -1.6597
  127MOL0     H17099   2.256   4.144   0.548 -2.7153  1.3104  2.3121
  127MOL0     H17100   2.271   4.228   0.394  0.9873  0.5075  0.9185
  127MOL0     H17101   2.125   4.359   0.581 -0.4206  0.1853  0.7666
  127MOL0     H17102   2.016   4.239   0.550  0.4576 -0.4586 -0.1135
  127MOL0     H17103   2.059   4.311   0.277 -1.3415 -0.9022  1.1308
  127MOL0     H17104   2.122   4.454   0.359  0.4857  0.1529 -1.2242
  127MOL0     H17105   1.850   4.147   0.389 -0.1308 -0.0947 -0.0583
  127MOL0     H17106   1.678   4.033   0.266  1.9166 -0.2860 -1.7122
  127MOL0     H17107   1.365   4.061  -0.132  1.8871  3.2526 -1.0530
  127MOL0     H17108   1.152   4.029  -0.263  0.1063 -2.4780  1.4606
  127MOL0     H17109   0.793   4.189  -0.033 -3.4174  0.2149 -0.2436
  127MOL0     H17110   0.810   4.318  -0.147 -0.6036 -0.4163  2.2075
  127MOL0     H17111   0.692   4.190  -0.316 -1.8634 -0.7517 -0.6925
  127MOL0     H17112   0.686   4.047  -0.211 -1.8159 -0.0520 -4.5591
  127MOL0     H17113   0.534   4.155  -0.067  0.3596 -0.2011  0.6833
  127MOL0     H17114   0.546   4.314  -0.163 -0.6148 -0.4368  0.9782
  127MOL0     H17115   0.421   4.069  -0.270  1.7423  0.5726 -0.3305
  127MOL0     H17116   0.428   4.215  -0.362 -1.9095 -0.8187 -1.1119
  127MOL0     H17117   0.281   4.333  -0.174 -1.1551 -0.2361 -0.3150
  127MOL0     H17118   0.277   4.168  -0.112 -0.1881 -0.7086 -0.5328
  127MOL0     H17119   0.207   4.270  -0.387  0.7821 -0.9523 -0.1848
  127MOL0     H17120   0.187   4.105  -0.326 -2.8769 -0.6624  1.6718
  127MOL0     H17121   0.013   4.195  -0.155 -0.1126 -1.4361 -0.5838
  127MOL0     H17122  -0.028   4.154  -0.322 -0.7204 -0.5172  1.9176
  127MOL0     H17123   0.004   4.395  -0.400 -1.5034  2.0587 -0.5023
  127MOL0     H17124  -0.125   4.353  -0.282  0.5604 -2.2640  0.9885
  127MOL0     H17125   0.983   4.308   0.027 -1.8791  1.1092 -3.3688
  127MOL0     H17126   1.191   4.340   0.130 -2.6483  0.7347 -0.2466
  127MOL0     H17127   1.586   4.415   0.075  0.2576 -0.2287  0.6255
  127MOL0     H17128   1.782   4.517   0.201  4.8090  0.1555  0.8103
  127MOL0     H17129   3.100   3.179   0.496  0.0161  0.0011 -0.0912
  127MOL0     H17130   3.191   2.952   0.487 -0.9388 -1.6440  1.0391
  127MOL0     H17131   3.168   2.566   0.273 -1.3157 -2.9526 -0.7194
  127MOL0     H17132   3.332   2.411   0.200  3.1359  2.5915  0.1067
  127MOL0     H17133   3.501   2.285   0.168  1.3122 -0.2359  0.1656
  127MOL0     H17134   3.412   2.128   0.212  1.0273 -1.1491  1.8651
  127MOL0     H17135   3.630   2.062   0.327 -1.6949 -0.2989  0.0138
  127MOL0     H17136   3.692   2.191   0.221  0.3558 -0.1089  2.5217
  127MOL0     H17137   3.577   2.062   0.037  0.0211  3.9496  1.0191
  127MOL0     H17138   3.526   1.942   0.152 -2.5200  0.8549 -1.4594
  127MOL0     H17139   3.806   2.007   0.056 -2.0706  3.7168  1.4714
  127MOL0     H17140   3.785   1.930   0.214 -2.3653 -0.3150  1.3302
  127MOL0     H17141   3.714   1.607  -0.056 -0.1160  0.5569 -0.9230
  127MOL0     H17142   3.422   2.321   0.608 -2.6658 -0.9469  0.3255
  127MOL0     H17143   3.318   2.395   0.775 -2.4076 -0.9200 -0.0456
  127MOL0     H17144   3.345   2.565   0.767  1.2572  0.4699 -2.3587
  127MOL0     H17145   3.176   2.501   0.783 -0.9672  0.0534 -0.9724
  128MOL0     O17146   1.257   2.079   4.157  0.6041 -0.6656  0.0750
  128MOL0     C17147   1.214   2.139   4.257  0.6599  0.1928  0.8181
  128MOL0     O17148   1.292   2.189   4.352  0.2399  0.7301 -0.6946
  128MOL0     C17149   1.429   2.189   4.338 -0.2523  0.2815 -0.0394
  128MOL0     C17150   1.498   2.278   4.259 -0.2693 -0.5830 -0.4456
  128MOL0     C17151   1.637   2.268   4.245  0.4621  0.1525 -0.3751
  128MOL0     C17152   1.708   2.181   4.320 -0.4548 -0.0299 -0.8183
  128MOL0     O17153   1.841   2.159   4.300  0.1466  0.2995  0.6148
  128MOL0     C17154   1.920   2.271   4.339 -0.3924  0.1382 -0.5170
  128MOL0     C17155   2.062   2.235   4.322 -0.0597 -0.4034  0.4213
  128MOL0     C17156   2.116   2.142   4.435  0.8904 -0.0203  1.1673
  128MOL0     C17157   2.265   2.126   4.452 -0.3884  0.2990  0.1445
  128MOL0     C17158   2.349   2.091   4.327  0.9850  0.6816  0.8773
  128MOL0     C17159   2.501   2.074   4.341  1.1946 -0.0603  0.2898
  128MOL0     C17160   2.530   1.958   4.442  0.3402  0.5321 -0.1837
  128MOL0     C17161   2.679   1.932   4.441  0.1447  0.3952 -0.3093
  128MOL0     N17162   2.754   2.037   4.508 -0.4639 -0.0561  0.7874
  128MOL0     C17163   2.885   2.053   4.490  0.8062  0.7744 -0.9342
  128MOL0     C17164   2.904   2.165   4.561 -0.9502 -0.4721 -0.6391
  128MOL0     C17165   3.045   2.229   4.579  0.3268  0.3400  0.1823
  128MOL0     C17166   3.125   2.170   4.696 -0.1533  0.5299  0.1268
  128MOL0     C17167   3.130   2.016   4.696  0.9161  0.7604 -0.0824
  128MOL0     C17168   3.188   1.962   4.825 -0.8611 -0.5240 -0.1515
  128MOL0     O17169   3.230   1.823   4.814 -0.1818 -0.1139 -0.5262
  128MOL0     C17170   3.332   1.780   4.904  0.3478  0.0708 -0.0536
  128MOL0     C17171   3.445   1.712   4.850 -0.0000 -0.0990 -0.3248
  128MOL0     C17172   3.553   1.680   4.931  0.3453 -0.2691  0.5783
  128MOL0     C17173   3.551   1.705   5.069  0.1587  0.1148  1.4181
  128MOL0     C17174   3.655   1.665   5.149  0.7390  2.1264 -0.4484
  128MOL0     O17175   3.775   1.637   5.086  0.6040  0.0989  0.1656
  128MOL0     C17176   3.886   1.576   5.136 -0.3887  0.1528 -0.1661
  128MOL0     C17177   4.001   1.596   5.056  0.0460 -0.2284  0.9378
  128MOL0     C17178   4.121   1.527   5.089 -0.2476 -0.8779  0.1621
  128MOL0     C17179   4.126   1.450   5.198 -0.1802  0.3825 -0.7911
  128MOL0     O17180   4.232   1.363   5.235  0.8699 -0.6339 -0.4030
  128MOL0     C17181   4.359   1.385   5.168  0.1424 -0.8862  0.0759
  128MOL0     C17182   4.472   1.305   5.237  1.2692 -0.1683  0.0132
  128MOL0     C17183   4.612   1.335   5.178  0.1444 -0.5952  0.0226
  128MOL0     C17184   4.727   1.256   5.248  0.4129  0.2933  0.2654
  128MOL0     C17185   4.856   1.288   5.175  1.2577 -0.4288 -0.3772
  128MOL0     C17186   4.984   1.219   5.232 -0.8232  0.3806 -0.1594
  128MOL0     C17187   4.999   1.238   5.387 -0.5402  0.1337  0.2513
  128MOL0     C17188   5.136   1.250   5.430 -0.3565 -0.6654  0.4626
  128MOL0    Cl17189   5.223   1.388   5.340 -0.3630 -0.1315 -0.2106
  128MOL0     C17190   4.013   1.427   5.278 -0.2112  0.4943 -0.3191
  128MOL0     C17191   3.894   1.495   5.239  0.2671  0.1400 -0.0471
  128MOL0     O17192   3.638   1.655   5.275 -0.2951 -0.6998 -0.0978
  128MOL0     C17193   3.439   1.768   5.121 -0.7055 -0.4541 -0.4312
  128MOL0     C17194   3.332   1.801   5.042  0.1128  0.8723  0.0549
  128MOL0     N17195   2.790   2.208   4.632  0.3953  0.4513  0.2185
  128MOL0     N17196   2.697   2.133   4.586 -0.7501  0.4332 -0.1244
  128MOL0     C17197   1.647   2.096   4.415 -0.0349  0.6353 -0.9570
  128MOL0     C17198   1.502   2.093   4.420  0.0940 -0.6694  0.1764
  128MOL0     C17199   1.071   2.183   4.272 -0.3348 -0.2931 -0.2489
  128MOL0     C17200   1.035   2.284   4.366  0.2371  0.0453  0.0159
  128MOL0     C17201   0.904   2.327   4.375  0.0082 -0.2339 -0.5153
  128MOL0     C17202   0.803   2.284   4.294  0.3253  0.6610  0.6173
  128MOL0     O17203   0.676   2.324   4.305  0.3646  0.2434 -0.4634
  128MOL0     C17204   0.648   2.469   4.315  0.1885 -0.1391 -0.4202
  128MOL0     C17205   0.506   2.497   4.248  0.3260  0.7349 -0.1860
  128MOL0     C17206   0.507   2.460   4.096  0.7128 -0.2796 -0.0745
  128MOL0     C17207   0.383   2.502   4.018  0.1860 -0.6585 -0.7692
  128MOL0     C17208   0.271   2.414   4.069  0.2311 -0.2489 -0.7153
  128MOL0     C17209   0.178   2.348   4.110  0.3530 -0.5543  0.0147
  128MOL0     C17210   0.835   2.179   4.205 -0.1754 -0.1108 -1.4513
  128MOL0     C17211   0.965   2.129   4.189  0.2856 -0.6392 -0.2710
  128MOL0     C17212   0.987   2.031   4.077  0.6279  0.5947  0.7007
  128MOL0     H17213   1.432   2.355   4.222 -1.4051 -0.9613  0.6981
  128MOL0     H17214   1.669   2.332   4.163 -0.0723 -1.1062 -1.6133
  128MOL0     H17215   1.900   2.353   4.270  1.2551 -1.8230 -3.6120
  128MOL0     H17216   1.898   2.289   4.445 -0.2043 -0.3804 -0.3832
  128MOL0     H17217   2.121   2.327   4.328  1.5154 -1.4137  1.4266
  128MOL0     H17218   2.085   2.177   4.232  0.9132 -1.2300  1.1667
  128MOL0     H17219   2.067   2.046   4.417  1.1707 -0.3914  2.3265
  128MOL0     H17220   2.079   2.178   4.532 -1.7431 -2.9523  1.4020
  128MOL0     H17221   2.314   2.216   4.490  0.8574 -0.2227 -0.1851
  128MOL0     H17222   2.290   2.060   4.535  0.4582 -1.2564 -1.3012
  128MOL0     H17223   2.309   1.993   4.298  2.3903  0.0447  0.9739
  128MOL0     H17224   2.342   2.166   4.247 -0.0158  2.7071  2.7722
  128MOL0     H17225   2.544   2.048   4.244  1.9172 -3.3762  1.3649
  128MOL0     H17226   2.535   2.174   4.370 -1.2215  0.7749  0.4719
  128MOL0     H17227   2.474   1.867   4.422 -0.8880  0.9931  0.9666
  128MOL0     H17228   2.497   1.993   4.541 -1.2980 -2.0491  0.2655
  128MOL0     H17229   2.700   1.835   4.488  1.3655  0.5909 -0.4162
  128MOL0     H17230   2.714   1.926   4.338 -0.5050 -1.1297 -0.4720
  128MOL0     H17231   2.952   1.995   4.428  1.6191  0.5692  0.1127
  128MOL0     H17232   3.108   2.221   4.490  2.9713 -1.5644  2.0648
  128MOL0     H17233   3.034   2.335   4.603 -1.2015 -0.3537  2.9673
  128MOL0     H17234   3.227   2.208   4.689  2.3329 -4.6795  2.0939
  128MOL0     H17235   3.079   2.213   4.786 -0.3115  2.1938 -0.7148
  128MOL0     H17236   3.196   1.982   4.615 -0.0679  0.4133 -0.7554
  128MOL0     H17237   3.039   1.958   4.682  0.4688  1.3107  0.4936
  128MOL0     H17238   3.116   1.980   4.906 -0.3536  1.2798 -0.0519
  128MOL0     H17239   3.281   2.015   4.848 -0.0631 -2.3659  1.1076
  128MOL0     H17240   3.441   1.675   4.748 -1.1995  0.2420 -0.4214
  128MOL0     H17241   3.644   1.635   4.891 -1.2153 -2.7984 -0.3395
  128MOL0     H17242   3.995   1.660   4.968  2.7427 -0.8591  0.1966
  128MOL0     H17243   4.213   1.537   5.031 -0.0699 -0.3188  0.5294
  128MOL0     H17244   4.361   1.366   5.060 -0.1836  3.1014 -0.7744
  128MOL0     H17245   4.378   1.492   5.158 -2.1245 -0.6276 -2.6983
  128MOL0     H17246   4.470   1.323   5.345  2.0464 -2.2188  0.4170
  128MOL0     H17247   4.449   1.198   5.234  0.3840  0.0282 -0.6967
  128MOL0     H17248   4.619   1.321   5.070 -0.3861 -0.2243 -0.0595
  128MOL0     H17249   4.627   1.442   5.190  2.6004 -0.6594 -1.7290
  128MOL0     H17250   4.704   1.149   5.244  1.8739  0.0018 -2.6485
  128MOL0     H17251   4.731   1.284   5.354  0.5894 -1.8660  0.8667
  128MOL0     H17252   4.874   1.396   5.180  0.6565 -0.3703  2.9341
  128MOL0     H17253   4.850   1.267   5.068 -0.7468 -2.5725  0.0660
  128MOL0     H17254   4.978   1.112   5.211  1.8067  0.1152  0.1625
  128MOL0     H17255   5.071   1.246   5.172 -1.1079 -1.9047 -1.7193
  128MOL0     H17256   4.958   1.152   5.441  0.1980  1.0779  2.4146
  128MOL0     H17257   4.947   1.327   5.423 -0.2623 -0.1803  1.4644
  128MOL0     H17258   5.142   1.277   5.536 -0.6165 -2.0508  0.8581
  128MOL0     H17259   5.190   1.155   5.425  0.2177 -0.2916 -0.6519
  128MOL0     H17260   4.008   1.370   5.370 -1.8885  1.9473  0.5309
  128MOL0     H17261   3.810   1.493   5.309 -2.3154  4.7741 -2.4822
  128MOL0     H17262   3.427   1.783   5.228  1.4837 -0.8621 -0.0634
  128MOL0     H17263   3.252   1.850   5.097  0.5668  0.5055  1.0577
  128MOL0     H17264   1.705   2.026   4.474 -0.6229  2.8242  2.5708
  128MOL0     H17265   1.443   2.025   4.481 -1.6020  1.7353  1.3879
  128MOL0     H17266   1.110   2.328   4.431 -0.2790  1.2150 -0.1600
  128MOL0     H17267   0.902   2.407   4.449  2.7637 -0.5710  0.0342
  128MOL0     H17268   0.715   2.532   4.256  0.0935  2.7548  2.2875
  128MOL0     H17269   0.648   2.505   4.419  0.3641  3.0209 -1.4009
  128MOL0     H17270   0.468   2.600   4.253  2.5267  1.7686 -2.4239
  128MOL0     H17271   0.422   2.439   4.287 -1.5682  2.2209 -1.8205
  128MOL0     H17272   0.524   2.353   4.078  1.1349 -0.1411 -0.5534
  128MOL0     H17273   0.594   2.501   4.044  3.1073 -3.2014  1.3219
  128MOL0     H17274   0.359   2.608   4.036 -0.3322 -0.8427 -0.3355
  128MOL0     H17275   0.393   2.486   3.911 -1.7870  0.6233 -1.1965
  128MOL0     H17276   0.108   2.276   4.148  1.3018 -0.3974  2.2415
  128MOL0     H17277   0.747   2.134   4.161 -0.5708 -1.0996  0.2506
  128MOL0     H17278   1.053   1.956   4.121 -0.6782  0.2883  2.2183
  128MOL0     H17279   0.891   1.984   4.052  0.6164 -0.0361  1.8365
  128MOL0     H17280   1.041   2.061   3.987  3.1071 -1.9809  1.1485
  129MOL0     O17281   8.988  10.065   9.291  0.4616 -0.4185 -0.1164
  129MOL0     C17282   8.927  10.165   9.337 -0.1255 -0.2777 -0.4875
  129MOL0     O17283   8.958  10.298   9.303  0.4336 -0.0125 -0.6940
  129MOL0     C17284   9.036  10.314   9.190  0.3801  1.1372  0.3159
  129MOL0     C17285   8.983  10.391   9.090  0.5822 -1.2841 -0.5742
  129MOL0     C17286   9.059  10.430   8.980 -0.1881 -0.4894 -0.2751
  129MOL0     C17287   9.193  10.389   8.964 -0.4704  0.1255  0.6988
  129MOL0     O17288   9.252  10.421   8.850  0.4211 -0.2965  0.1359
  129MOL0     C17289   9.292  10.312   8.766  0.1293 -0.3655  0.0972
  129MOL0     C17290   9.206  10.323   8.637  0.1244 -0.1457  0.2017
  129MOL0     C17291   9.241  10.434   8.535 -0.3978 -0.0621  0.5177
  129MOL0     C17292   9.355  10.390   8.439 -0.1363 -0.6616 -0.1742
  129MOL0     C17293   9.403  10.519   8.365  0.3491  0.1998 -0.3239
  129MOL0     C17294   9.509  10.591   8.456  0.1779  0.6556 -0.5088
  129MOL0     C17295   9.550  10.728   8.405 -0.0594  0.7410  0.5248
  129MOL0     C17296   9.644  10.802   8.503  0.0013  0.2232  0.5556
  129MOL0     N17297   9.785  10.775   8.476 -0.3537 -0.2731 -0.1479
  129MOL0     C17298   9.875  10.877   8.457 -0.1225  0.0331 -0.5898
  129MOL0     C17299   9.995  10.817   8.439 -0.7242  0.4296 -0.1454
  129MOL0     C17300  10.123  10.890   8.396  0.0566 -0.0724  0.6628
  129MOL0     C17301  10.132  10.898   8.239  0.7697 -0.0050 -0.4133
  129MOL0     C17302  10.276  10.947   8.194  0.2211 -0.0637  0.1826
  129MOL0     C17303  10.325  11.088   8.241 -0.1262  1.0038 -1.3514
  129MOL0     O17304  10.364  11.084   8.378  0.6986 -0.2556 -0.0842
  129MOL0     C17305  10.416  11.204   8.432  0.5887 -0.5443  0.1802
  129MOL0     C17306  10.392  11.326   8.369 -0.6104 -0.3648 -0.5025
  129MOL0     C17307  10.443  11.451   8.419 -0.4065  1.1383 -0.2857
  129MOL0     C17308  10.511  11.445   8.547  0.0509 -0.5901  0.7308
  129MOL0     C17309  10.576  11.563   8.609 -0.5709 -0.3590  0.4274
  129MOL0     O17310  10.670  11.541   8.711 -0.0398 -0.0591  0.6171
  129MOL0     C17311  10.742  11.645   8.755 -0.1071  0.1508 -0.4247
  129MOL0     C17312  10.716  11.685   8.891  0.6785  0.0365 -0.4016
  129MOL0     C17313  10.797  11.783   8.951 -0.1442  0.2957  0.1343
  129MOL0     C17314  10.903  11.835   8.877 -0.8249 -0.3919  0.2160
  129MOL0     O17315  10.982  11.928   8.933 -0.5790  0.2282 -0.2680
  129MOL0     C17316  10.922  12.059   8.961  0.3196  0.4011  0.2215
  129MOL0     C17317  10.905  12.134   8.829  0.4150 -0.8050  0.0282
  129MOL0     C17318  11.036  12.180   8.768 -0.1103 -0.4662 -0.4591
  129MOL0     C17319  11.014  12.295   8.666  0.3011 -0.6074  0.6107
  129MOL0     C17320  11.114  12.284   8.546 -0.1184  0.3244  0.7518
  129MOL0     C17321  11.263  12.287   8.581 -0.2081 -0.3351 -0.2956
  129MOL0     C17322  11.328  12.313   8.456 -0.0200  1.1934  0.3509
  129MOL0     C17323  11.477  12.319   8.478 -0.3715  0.4379  0.0301
  129MOL0    Cl17324  11.560  12.346   8.317 -0.0477  0.4175  0.0037
  129MOL0     C17325  10.918  11.805   8.737 -0.1409  0.3478 -0.9700
  129MOL0     C17326  10.839  11.704   8.677  0.1279 -0.4547  0.1290
  129MOL0     O17327  10.542  11.673   8.562  0.2854  0.1683 -0.0687
  129MOL0     C17328  10.539  11.319   8.601 -0.3766 -0.2342  0.2447
  129MOL0     C17329  10.488  11.206   8.544 -1.1240 -0.5014 -0.8853
  129MOL0     N17330   9.973  10.680   8.445 -0.3482 -0.3157  0.1383
  129MOL0     N17331   9.853  10.656   8.464 -0.1867 -0.3442 -0.2797
  129MOL0     C17332   9.245  10.307   9.061  0.6762  0.1638  0.3483
  129MOL0     C17333   9.170  10.265   9.176 -0.2210 -0.8052  0.4514
  129MOL0     C17334   8.824  10.127   9.438 -0.3478 -0.1524 -1.1934
  129MOL0     C17335   8.821   9.994   9.486  0.4014  0.0036 -0.3384
  129MOL0     C17336   8.735   9.969   9.600  0.0567  0.9467  0.3661
  129MOL0     C17337   8.658  10.061   9.664  0.3794 -0.4562  0.0928
  129MOL0     O17338   8.601  10.019   9.783 -0.5653  0.2085 -0.5801
  129MOL0     C17339   8.511  10.099   9.857  0.4561  0.6073 -0.8706
  129MOL0     C17340   8.435  10.025   9.956  1.3563  0.7271 -0.2247
  129MOL0     C17341   8.306  10.104  10.012 -0.5761 -0.1349  0.8772
  129MOL0     C17342   8.229  10.021  10.116 -0.2586 -0.1156 -0.4474
  129MOL0     C17343   8.086  10.038  10.120 -0.6269  0.5717 -0.8775
  129MOL0     C17344   7.962  10.048  10.128 -1.4716 -0.3373  0.4962
  129MOL0     C17345   8.655  10.189   9.610 -0.1071 -0.6245 -0.8853
  129MOL0     C17346   8.741  10.224   9.502  0.3109 -0.0184 -0.1281
  129MOL0     C17347   8.726  10.371   9.464 -0.6960 -0.0834 -0.3212
  129MOL0     H17348   8.881  10.428   9.094  0.7887 -0.8230  0.8470
  129MOL0     H17349   9.004  10.495   8.913  1.5177  1.2355 -0.0859
  129MOL0     H17350   9.395  10.324   8.730  0.6840  1.7630  2.1483
  129MOL0     H17351   9.277  10.215   8.814 -2.0817 -0.5002 -0.7906
  129MOL0     H17352   9.105  10.335   8.677  0.3322 -2.5187  1.6057
  129MOL0     H17353   9.209  10.227   8.586  0.2621  0.7758 -1.6333
  129MOL0     H17354   9.266  10.524   8.591 -1.4191  0.4167  0.2279
  129MOL0     H17355   9.152  10.463   8.478  1.0314  1.6447 -1.0010
  129MOL0     H17356   9.443  10.353   8.492  1.0127 -2.7396 -3.2323
  129MOL0     H17357   9.309  10.310   8.380  0.4279 -0.4677 -0.8856
  129MOL0     H17358   9.458  10.504   8.272 -0.6127  2.7874 -1.4193
  129MOL0     H17359   9.323  10.590   8.338 -1.8318 -2.6301 -1.8595
  129MOL0     H17360   9.479  10.601   8.560 -0.5422 -1.2500 -0.4916
  129MOL0     H17361   9.600  10.529   8.454 -0.4182 -0.2271 -1.1913
  129MOL0     H17362   9.467  10.797   8.393  1.0816  2.7583  3.3586
  129MOL0     H17363   9.606  10.710   8.312 -2.0506  0.6196 -0.7198
  129MOL0     H17364   9.628  10.910   8.496  0.9964  0.3568  0.1468
  129MOL0     H17365   9.623  10.775   8.607 -0.6203  0.1567  0.4187
  129MOL0     H17366   9.850  10.982   8.442 -0.0727 -0.2312 -2.9662
  129MOL0     H17367  10.127  10.992   8.437  1.2628 -0.4760  1.6186
  129MOL0     H17368  10.213  10.832   8.422  1.4230  0.7618 -1.8848
  129MOL0     H17369  10.116  10.802   8.190 -0.4446 -0.0052 -0.0372
  129MOL0     H17370  10.044  10.955   8.208 -0.9280 -1.1713  1.9762
  129MOL0     H17371  10.280  10.957   8.085 -3.0566  1.9746  0.1055
  129MOL0     H17372  10.344  10.873   8.238 -0.1292  0.3816  1.5384
  129MOL0     H17373  10.246  11.162   8.223  1.1657  3.1478  1.0254
  129MOL0     H17374  10.400  11.116   8.167  0.6738  0.2069 -0.8617
  129MOL0     H17375  10.335  11.334   8.277  2.4106 -0.4028 -2.5184
  129MOL0     H17376  10.411  11.543   8.371 -0.6024  0.9251 -0.5688
  129MOL0     H17377  10.639  11.633   8.945  0.0655 -2.7817 -3.6300
  129MOL0     H17378  10.788  11.794   9.059 -1.4280  1.5799 -0.0754
  129MOL0     H17379  10.818  12.044   8.993 -0.2701  1.5655 -1.0458
  129MOL0     H17380  10.980  12.115   9.035  2.7018 -1.3002 -0.2496
  129MOL0     H17381  10.846  12.078   8.757  0.7165 -0.0279 -0.8419
  129MOL0     H17382  10.844  12.223   8.845  0.2375 -1.0382  0.6545
  129MOL0     H17383  11.108  12.211   8.843  1.4196 -1.4409 -1.4766
  129MOL0     H17384  11.089  12.097   8.721  0.9563  0.1833 -0.4211
  129MOL0     H17385  11.034  12.391   8.716 -0.0706  0.0445 -0.4589
  129MOL0     H17386  10.909  12.298   8.635  0.5997 -1.9056 -0.6480
  129MOL0     H17387  11.088  12.365   8.477  1.0172  0.1428  0.0745
  129MOL0     H17388  11.100  12.191   8.490 -2.5427  0.2374  1.3701
  129MOL0     H17389  11.267  12.371   8.651 -3.0452  1.3744 -2.0135
  129MOL0     H17390  11.298  12.193   8.625  0.6299 -0.2728 -0.8083
  129MOL0     H17391  11.289  12.406   8.414 -4.0734 -0.8451 -0.9781
  129MOL0     H17392  11.313  12.234   8.381 -0.0255 -0.1754  1.7198
  129MOL0     H17393  11.503  12.394   8.553 -0.2101  3.9811 -3.2023
  129MOL0     H17394  11.510  12.221   8.512 -3.2081 -0.1890  1.2356
  129MOL0     H17395  10.984  11.864   8.674 -1.4954  0.8657 -1.9558
  129MOL0     H17396  10.864  11.664   8.579  1.9540 -0.8998  0.7385
  129MOL0     H17397  10.601  11.302   8.689 -0.2654 -0.2381  0.1656
  129MOL0     H17398  10.491  11.111   8.595 -0.9309  0.3124  0.6990
  129MOL0     H17399   9.349  10.276   9.055  0.9091  0.6083  1.7753
  129MOL0     H17400   9.208  10.202   9.256 -1.1918  0.1866  1.7611
  129MOL0     H17401   8.893   9.919   9.454 -1.1061 -2.1313  0.9664
  129MOL0     H17402   8.741   9.872   9.647 -1.8678  0.2637 -0.7168
  129MOL0     H17403   8.437  10.149   9.793 -0.4115 -0.1550 -0.4863
  129MOL0     H17404   8.557  10.180   9.914 -1.3216 -0.1409  1.7919
  129MOL0     H17405   8.497   9.996  10.041 -0.2490  1.0576  1.1164
  129MOL0     H17406   8.398   9.935   9.905  0.1589 -0.7535  2.9395
  129MOL0     H17407   8.243  10.142   9.931  2.7718  2.5325 -0.7238
  129MOL0     H17408   8.344  10.196  10.058 -2.3661  0.9708  0.2208
  129MOL0     H17409   8.256   9.915  10.110  4.4598  0.6238  2.2297
  129MOL0     H17410   8.263  10.048  10.217  0.6384 -1.3080 -0.4079
  129MOL0     H17411   7.855  10.056  10.134 -1.5860 -2.0491  1.2660
  129MOL0     H17412   8.592  10.254   9.669  0.6628 -0.4320 -0.2512
  129MOL0     H17413   8.818  10.430   9.468 -1.7543  1.6264 -0.3685
  129MOL0     H17414   8.682  10.392   9.367  0.2873 -1.0846 -1.0127
  129MOL0     H17415   8.661  10.426   9.533 -1.0851 -1.2480  0.2704
  130MOL0     O17416   9.584   1.198   9.757 -0.5152  0.2196 -0.0883
  130MOL0     C17417   9.616   1.082   9.739  0.2642 -0.1681  1.0357
  130MOL0     O17418   9.741   1.036   9.716 -0.7003 -0.3728 -0.1216
  130MOL0     C17419   9.846   1.129   9.720  1.0822 -0.2003  0.0724
  130MOL0     C17420   9.936   1.111   9.614  0.7094  0.0119 -0.3828
  130MOL0     C17421  10.042   1.200   9.607 -0.9766  0.1252  0.1787
  130MOL0     C17422  10.071   1.306   9.701  0.3487  0.2787 -0.3039
  130MOL0     O17423  10.175   1.390   9.664 -0.2613 -0.6679 -0.3061
  130MOL0     C17424  10.208   1.480   9.772 -0.3670  0.3043 -1.0338
  130MOL0     C17425  10.330   1.564   9.741 -0.5025  0.5784  0.0922
  130MOL0     C17426  10.311   1.633   9.609 -0.3037 -0.5117  0.4447
  130MOL0     C17427  10.427   1.733   9.588 -0.2524  0.3659 -0.5472
  130MOL0     C17428  10.415   1.796   9.449 -0.9844 -0.9282  0.1891
  130MOL0     C17429  10.529   1.897   9.438 -0.2732 -0.8009 -0.3148
  130MOL0     C17430  10.557   1.964   9.301 -0.1227  0.2191  0.4317
  130MOL0     C17431  10.635   2.097   9.306 -0.6202  0.6793 -0.0755
  130MOL0     N17432  10.761   2.071   9.365 -0.2868  0.3393 -0.2933
  130MOL0     C17433  10.877   2.005   9.312  0.6614 -0.1582  0.2249
  130MOL0     C17434  10.956   2.025   9.413 -1.0516  0.7067 -1.4465
  130MOL0     C17435  11.102   1.983   9.420  0.3584 -0.0140 -0.5402
  130MOL0     C17436  11.191   2.094   9.482  0.0491 -0.5402 -0.4458
  130MOL0     C17437  11.336   2.044   9.483 -0.3326 -0.1139 -0.7804
  130MOL0     C17438  11.434   2.159   9.467 -0.5713  0.4066 -0.3323
  130MOL0     O17439  11.426   2.200   9.328 -0.5496 -0.7085  0.7974
  130MOL0     C17440  11.491   2.315   9.293  0.1703  0.8770  0.0535
  130MOL0     C17441  11.452   2.349   9.169 -0.0830  0.3693  0.8298
  130MOL0     C17442  11.508   2.462   9.117  0.3404  0.7273  0.5574
  130MOL0     C17443  11.596   2.548   9.185 -0.3021  0.1587 -0.1859
  130MOL0     C17444  11.627   2.681   9.128 -0.5875  0.5572  0.5891
  130MOL0     O17445  11.630   2.790   9.216 -0.0154  0.4786  1.0315
  130MOL0     C17446  11.674   2.908   9.161 -0.3025 -0.1507 -0.2664
  130MOL0     C17447  11.597   3.028   9.181 -0.6938  0.4833 -0.5907
  130MOL0     C17448  11.639   3.152   9.132 -0.0833 -0.0770 -0.2853
  130MOL0     C17449  11.760   3.156   9.057 -1.2362 -0.3896 -0.1741
  130MOL0     O17450  11.816   3.272   9.004 -0.2517 -0.5335 -0.2377
  130MOL0     C17451  11.771   3.395   9.056  0.0115 -0.1019  0.3794
  130MOL0     C17452  11.821   3.424   9.203 -0.7964 -0.2269  0.6072
  130MOL0     C17453  11.978   3.403   9.211  0.5429  0.0221  0.3912
  130MOL0     C17454  12.070   3.485   9.124 -0.0355 -0.4879  0.0513
  130MOL0     C17455  12.207   3.479   9.189  0.4067 -0.1434 -0.3729
  130MOL0     C17456  12.323   3.530   9.098 -0.4140  0.1564 -0.5312
  130MOL0     C17457  12.299   3.680   9.087 -0.1824  0.4330  0.0936
  130MOL0     C17458  12.425   3.743   9.023  0.1258 -0.3196  0.2792
  130MOL0    Cl17459  12.489   3.663   8.878 -0.0593 -0.2862  0.2423
  130MOL0     C17460  11.843   3.039   9.046 -0.6109  0.4592  0.4525
  130MOL0     C17461  11.797   2.917   9.094  0.4019 -0.8256  0.7036
  130MOL0     O17462  11.626   2.684   9.004 -0.3688 -0.7891 -0.1567
  130MOL0     C17463  11.630   2.507   9.309  0.6194 -0.1073  0.0690
  130MOL0     C17464  11.582   2.391   9.363 -0.3206 -0.2998 -0.1460
  130MOL0     N17465  10.899   2.091   9.521 -0.4641 -0.0377 -0.0607
  130MOL0     N17466  10.785   2.109   9.491  0.3861 -0.2906  0.0209
  130MOL0     C17467   9.984   1.311   9.819  1.0047  0.1648  0.1282
  130MOL0     C17468   9.875   1.224   9.821 -0.0229  0.2469 -0.2918
  130MOL0     C17469   9.495   0.989   9.721  0.5032 -0.0811 -0.1890
  130MOL0     C17470   9.505   0.885   9.624  0.0574  0.2291 -0.3144
  130MOL0     C17471   9.400   0.806   9.591  0.5715 -0.8585  0.2703
  130MOL0     C17472   9.276   0.829   9.647 -0.2171 -0.0114  1.3211
  130MOL0     O17473   9.171   0.750   9.613  0.0225  0.7333  1.2406
  130MOL0     C17474   9.077   0.710   9.716 -0.5280 -0.3394 -0.3175
  130MOL0     C17475   8.976   0.622   9.658  0.2826 -0.3012 -0.4884
  130MOL0     C17476   8.853   0.622   9.755 -0.1161 -0.8045 -1.7950
  130MOL0     C17477   8.719   0.576   9.696  0.2506 -0.4277 -0.2139
  130MOL0     C17478   8.731   0.423   9.666 -0.2148  0.3109 -0.2552
  130MOL0     C17479   8.750   0.305   9.641 -0.8944  0.0660 -0.4440
  130MOL0     C17480   9.267   0.929   9.743  1.0388  0.5922  0.8063
  130MOL0     C17481   9.371   1.008   9.785  0.6114  0.1928 -0.1502
  130MOL0     C17482   9.354   1.097   9.905  0.1839 -0.0127 -0.5778
  130MOL0     H17483   9.907   1.035   9.543 -0.6152  0.8142 -0.7351
  130MOL0     H17484  10.113   1.172   9.530  0.5862 -0.1509  1.6513
  130MOL0     H17485  10.126   1.550   9.788  0.9826  1.3795  2.1894
  130MOL0     H17486  10.227   1.434   9.870 -2.1517  0.1616 -0.7232
  130MOL0     H17487  10.408   1.488   9.731 -1.9172 -0.8418 -0.5673
  130MOL0     H17488  10.347   1.632   9.825 -1.2032 -1.7460  2.2394
  130MOL0     H17489  10.215   1.685   9.601  0.1076  0.7075  2.5451
  130MOL0     H17490  10.322   1.556   9.532  0.6871 -2.4213  2.3819
  130MOL0     H17491  10.414   1.810   9.664 -1.9860  0.9764 -1.4108
  130MOL0     H17492  10.521   1.680   9.605 -0.7609 -0.2478  0.3877
  130MOL0     H17493  10.421   1.720   9.371 -4.3588 -0.9665 -0.1490
  130MOL0     H17494  10.316   1.841   9.443 -0.6563  0.1999  2.1580
  130MOL0     H17495  10.509   1.971   9.516  0.5789  0.3891 -1.1775
  130MOL0     H17496  10.627   1.857   9.468  0.0652  0.2992  0.0907
  130MOL0     H17497  10.460   1.986   9.256 -1.5512 -3.3522  1.3879
  130MOL0     H17498  10.616   1.891   9.244  0.3580  0.9157  0.0187
  130MOL0     H17499  10.647   2.135   9.204 -1.0109 -1.5841 -1.0256
  130MOL0     H17500  10.584   2.173   9.366  2.7787  0.1453  3.8850
  130MOL0     H17501  10.904   1.963   9.216  0.4820  2.2018 -0.9389
  130MOL0     H17502  11.116   1.895   9.483 -1.6706  1.1614  1.6744
  130MOL0     H17503  11.132   1.969   9.315 -0.8858 -0.5897 -0.8401
  130MOL0     H17504  11.172   2.182   9.420  1.0793 -2.0707 -3.1100
  130MOL0     H17505  11.163   2.125   9.583 -0.7060  0.9979 -1.0949
  130MOL0     H17506  11.349   1.973   9.401 -1.6750 -2.3282  0.7912
  130MOL0     H17507  11.360   1.994   9.578 -0.9907  0.0123 -0.5403
  130MOL0     H17508  11.539   2.132   9.481 -0.2039  1.8744 -0.0820
  130MOL0     H17509  11.421   2.235   9.545 -0.3045 -0.1167  0.2306
  130MOL0     H17510  11.376   2.300   9.110  1.4024 -0.0957 -0.7658
  130MOL0     H17511  11.469   2.489   9.019  0.4900 -2.3554 -0.4685
  130MOL0     H17512  11.502   3.019   9.234 -0.1242  4.6888  1.5708
  130MOL0     H17513  11.562   3.229   9.131  2.2176  2.3375 -0.0399
  130MOL0     H17514  11.809   3.469   8.984 -0.2674 -0.8150 -0.5297
  130MOL0     H17515  11.662   3.404   9.057 -0.0592  0.2534 -2.2457
  130MOL0     H17516  11.792   3.526   9.228 -0.3728 -0.2128  1.0584
  130MOL0     H17517  11.784   3.344   9.268 -1.3014 -2.0341 -1.7719
  130MOL0     H17518  11.990   3.412   9.319 -1.2287  0.3836  0.5833
  130MOL0     H17519  11.995   3.296   9.192 -1.9239 -0.4491  0.4832
  130MOL0     H17520  12.030   3.586   9.112  2.2102  0.4700  0.2862
  130MOL0     H17521  12.076   3.442   9.023 -0.8004 -0.8865  0.1617
  130MOL0     H17522  12.227   3.374   9.212 -1.0844 -0.0753  1.4241
  130MOL0     H17523  12.202   3.528   9.287 -2.3314  1.0521 -1.0200
  130MOL0     H17524  12.415   3.504   9.151 -1.5898 -0.0144  1.5143
  130MOL0     H17525  12.334   3.489   8.997  0.2696 -0.6831 -0.1342
  130MOL0     H17526  12.284   3.732   9.182  3.2094  0.5166  0.6929
  130MOL0     H17527  12.209   3.700   9.029  0.0865  0.5499 -0.2836
  130MOL0     H17528  12.395   3.843   8.990 -0.9320 -0.5810  0.3984
  130MOL0     H17529  12.505   3.752   9.097  1.3418  0.5118 -1.0954
  130MOL0     H17530  11.935   3.041   8.987  0.2726  0.9904  1.8127
  130MOL0     H17531  11.855   2.826   9.095 -1.1243 -1.8272  1.8157
  130MOL0     H17532  11.693   2.577   9.363  1.6598 -1.3628  0.5576
  130MOL0     H17533  11.607   2.366   9.466 -2.8731 -0.2322  0.5405
  130MOL0     H17534  10.007   1.384   9.896  0.6108  0.5009 -0.0654
  130MOL0     H17535   9.795   1.245   9.890 -3.0742  2.1094 -3.9838
  130MOL0     H17536   9.600   0.880   9.572 -0.5096  0.1956 -1.3628
  130MOL0     H17537   9.417   0.733   9.512  0.2554  0.2522 -0.8528
  130MOL0     H17538   9.040   0.794   9.776  2.0846 -0.1212  1.1358
  130MOL0     H17539   9.126   0.656   9.798 -0.0712 -0.8852 -0.9396
  130MOL0     H17540   9.018   0.523   9.641  2.6735 -0.0451  2.8782
  130MOL0     H17541   8.939   0.664   9.564 -2.0436 -2.6623 -0.7473
  130MOL0     H17542   8.830   0.721   9.796 -3.4560 -2.7110  1.4878
  130MOL0     H17543   8.867   0.553   9.839  1.1173 -0.7034 -1.8867
  130MOL0     H17544   8.633   0.595   9.760  0.0091 -3.1365  0.3959
  130MOL0     H17545   8.708   0.630   9.601 -0.6252 -2.0626 -1.0823
  130MOL0     H17546   8.773   0.203   9.619 -3.8060 -1.2493  1.8643
  130MOL0     H17547   9.177   0.946   9.801 -2.0377  1.8182 -3.8287
  130MOL0     H17548   9.275   1.049   9.964 -0.5455  3.9094  2.0220
  130MOL0     H17549   9.447   1.102   9.962 -0.6594  0.7246  0.7912
  130MOL0     H17550   9.324   1.199   9.880  4.7949  1.1401 -2.5086
  131MOL0     O17551   2.754   6.627   8.090 -0.4002 -0.0563  0.1895
  131MOL0     C17552   2.702   6.525   8.044 -0.0059  0.4167  0.0175
  131MOL0     O17553   2.771   6.421   7.990  0.6746  0.1553  0.5399
  131MOL0     C17554   2.913   6.425   7.987  0.1770 -0.5673 -0.3378
  131MOL0     C17555   2.974   6.326   8.053 -0.0630 -0.4066 -0.5287
  131MOL0     C17556   3.110   6.310   8.047 -0.1146 -0.1363 -0.5550
  131MOL0     C17557   3.193   6.413   7.993  0.8038 -0.0195  0.1150
  131MOL0     O17558   3.324   6.397   8.010 -0.6642 -0.1590 -0.0544
  131MOL0     C17559   3.411   6.447   7.910 -0.1961  0.3766  0.5839
  131MOL0     C17560   3.519   6.342   7.887  1.3676  0.7220  0.4230
  131MOL0     C17561   3.629   6.339   7.991 -0.3897  0.4764  0.0547
  131MOL0     C17562   3.755   6.272   7.933 -0.5608  0.0849 -0.1274
  131MOL0     C17563   3.802   6.153   8.037  0.5610  0.1854  0.5311
  131MOL0     C17564   3.952   6.114   8.020 -0.0639  0.2711  0.4846
  131MOL0     C17565   3.987   5.977   8.070 -0.0276 -0.1204 -0.8411
  131MOL0     C17566   4.135   5.953   8.063 -0.7754 -0.2248 -1.1271
  131MOL0     N17567   4.153   5.805   8.095  0.2737  0.2010 -0.7774
  131MOL0     C17568   4.166   5.752   8.225  0.0880 -1.1558  0.4483
  131MOL0     C17569   4.144   5.623   8.215 -0.8931  0.1432  1.0051
  131MOL0     C17570   4.125   5.511   8.321  0.5447 -0.8841 -0.0319
  131MOL0     C17571   4.052   5.570   8.446 -0.5944 -0.5358 -0.5135
  131MOL0     C17572   3.973   5.458   8.523 -0.0622 -0.7605  0.6322
  131MOL0     C17573   4.038   5.326   8.527 -0.5390  0.7020 -0.1427
  131MOL0     O17574   4.175   5.329   8.577 -0.3075 -0.1737 -0.5263
  131MOL0     C17575   4.273   5.258   8.518 -0.1728  0.3863  0.7614
  131MOL0     C17576   4.389   5.317   8.481 -0.1895 -0.8075 -0.9998
  131MOL0     C17577   4.489   5.239   8.420  0.5766 -0.1451  0.4654
  131MOL0     C17578   4.470   5.102   8.384  1.4715 -0.8849 -1.1436
  131MOL0     C17579   4.565   5.018   8.318  0.0981 -0.1825 -0.1111
  131MOL0     O17580   4.517   4.915   8.237  0.2653 -1.1908 -0.2370
  131MOL0     C17581   4.593   4.905   8.122 -0.3545 -0.3829 -0.8160
  131MOL0     C17582   4.676   4.798   8.109 -0.5854  0.1741 -0.0804
  131MOL0     C17583   4.741   4.790   7.979 -0.7600 -1.3932 -0.6687
  131MOL0     C17584   4.715   4.882   7.869 -0.8194  0.2499  0.6927
  131MOL0     O17585   4.794   4.867   7.758  0.0578 -0.2394  0.0165
  131MOL0     C17586   4.797   4.973   7.665 -0.8677  0.1978  0.0185
  131MOL0     C17587   4.895   4.945   7.547  1.1356  0.4011  0.1773
  131MOL0     C17588   5.034   4.954   7.601 -0.0008  0.6885  0.1557
  131MOL0     C17589   5.124   4.876   7.497 -0.2151 -0.0354  0.1954
  131MOL0     C17590   5.271   4.888   7.518  0.0747  0.2525 -0.8131
  131MOL0     C17591   5.358   4.841   7.402 -0.3737 -1.0417  0.2448
  131MOL0     C17592   5.510   4.890   7.410  0.1544  0.1762 -0.5876
  131MOL0     C17593   5.599   4.849   7.291 -0.8993 -0.2444 -0.9713
  131MOL0    Cl17594   5.617   4.671   7.290 -0.4015  0.2855  0.1719
  131MOL0     C17595   4.618   4.987   7.888  0.0294  0.4996 -0.5550
  131MOL0     C17596   4.566   5.001   8.025 -0.3786  0.9394  0.6171
  131MOL0     O17597   4.679   5.055   8.322  0.1979  0.1414 -0.1795
  131MOL0     C17598   4.346   5.046   8.408 -0.2521  0.0304 -0.1065
  131MOL0     C17599   4.251   5.120   8.487 -0.4930  0.1547 -0.1413
  131MOL0     N17600   4.131   5.591   8.085  0.3136  0.9663 -0.5859
  131MOL0     N17601   4.125   5.700   8.018 -0.3400 -0.1185  0.1625
  131MOL0     C17602   3.127   6.520   7.920 -0.0783 -0.6742 -0.1379
  131MOL0     C17603   2.989   6.531   7.920  0.2181  0.5890  0.2239
  131MOL0     C17604   2.550   6.509   8.044  0.4145 -0.1921 -0.6547
  131MOL0     C17605   2.479   6.634   8.039 -0.3957  0.0017 -0.1848
  131MOL0     C17606   2.337   6.635   8.038 -0.6170 -0.3597 -0.0728
  131MOL0     C17607   2.263   6.519   8.055 -0.0847 -0.2385 -0.4293
  131MOL0     O17608   2.128   6.532   8.063 -0.5790  0.5427 -0.2001
  131MOL0     C17609   2.068   6.412   8.120  0.2341  0.0610 -0.3594
  131MOL0     C17610   1.920   6.426   8.120  0.1520  0.4339 -0.7414
  131MOL0     C17611   1.861   6.519   8.237 -0.3769 -0.1073  0.5473
  131MOL0     C17612   1.711   6.522   8.261 -0.4120  0.3449  0.0689
  131MOL0     C17613   1.645   6.385   8.251 -0.3955 -0.7715  0.4013
  131MOL0     C17614   1.606   6.271   8.240  0.5767  0.8397 -0.3076
  131MOL0     C17615   2.333   6.401   8.073  0.1353  0.0810  0.8674
  131MOL0     C17616   2.472   6.391   8.063  0.1202 -0.2239  0.2048
  131MOL0     C17617   2.544   6.255   8.068  0.6454 -0.3454 -0.5569
  131MOL0     H17618   2.910   6.253   8.103 -2.0180  1.0548 -0.7852
  131MOL0     H17619   3.151   6.221   8.093 -1.5485 -1.2492 -1.3671
  131MOL0     H17620   3.358   6.461   7.816 -0.1010  1.4032  0.6699
  131MOL0     H17621   3.451   6.543   7.945  1.4496  0.2568 -0.8640
  131MOL0     H17622   3.553   6.344   7.783 -1.8251  0.9206 -0.7415
  131MOL0     H17623   3.479   6.240   7.883 -2.9190  2.2310 -3.1535
  131MOL0     H17624   3.605   6.274   8.075  1.6241 -1.9063 -1.0769
  131MOL0     H17625   3.654   6.440   8.027  0.4812  0.3274 -0.1053
  131MOL0     H17626   3.735   6.210   7.845 -3.3118  1.0007 -0.2418
  131MOL0     H17627   3.839   6.342   7.931 -1.6284  1.4190 -1.7305
  131MOL0     H17628   3.786   6.187   8.139  0.5874 -0.5843  0.8036
  131MOL0     H17629   3.742   6.061   8.031  0.9736 -0.1079  0.8468
  131MOL0     H17630   3.970   6.098   7.913  1.3496 -2.2233  1.0122
  131MOL0     H17631   4.023   6.184   8.066 -1.7503  0.3094  3.2677
  131MOL0     H17632   3.924   5.911   8.010 -1.5172 -0.6787  1.2329
  131MOL0     H17633   3.960   5.962   8.175 -1.6579  0.0803 -1.1943
  131MOL0     H17634   4.177   5.984   7.967  0.6237  1.0907 -0.1254
  131MOL0     H17635   4.199   6.011   8.130  0.7051  0.3958 -2.9913
  131MOL0     H17636   4.181   5.804   8.319  2.6956  0.3331 -0.7122
  131MOL0     H17637   4.054   5.443   8.273 -0.6676  1.4654 -1.7417
  131MOL0     H17638   4.225   5.470   8.339  2.3573  3.0247 -0.2974
  131MOL0     H17639   4.130   5.615   8.507 -2.7698  1.8428  0.7254
  131MOL0     H17640   3.982   5.650   8.421 -2.3627 -1.4702  1.1835
  131MOL0     H17641   3.878   5.445   8.470 -1.0373 -0.5185  2.2605
  131MOL0     H17642   3.953   5.499   8.622 -0.2219  1.2048 -0.1810
  131MOL0     H17643   4.027   5.292   8.423 -0.2689  2.0909 -0.6509
  131MOL0     H17644   3.974   5.260   8.587 -0.6909  1.3797  0.4574
  131MOL0     H17645   4.396   5.423   8.500 -2.4109 -0.8636  0.5298
  131MOL0     H17646   4.585   5.285   8.399  0.2494  0.8223  1.0266
  131MOL0     H17647   4.690   4.718   8.182 -0.5010  0.7782  0.5770
  131MOL0     H17648   4.816   4.713   7.965  1.4837  0.7285 -0.8947
  131MOL0     H17649   4.695   4.999   7.636 -1.0423  0.9873  1.2581
  131MOL0     H17650   4.837   5.056   7.723 -0.4191  0.2971 -0.4352
  131MOL0     H17651   4.872   4.850   7.496 -3.4059  1.1250  0.4124
  131MOL0     H17652   4.871   5.014   7.465 -2.9367 -1.0825 -0.1410
  131MOL0     H17653   5.073   5.055   7.613 -1.3363  1.0872  1.3971
  131MOL0     H17654   5.046   4.899   7.695  1.9855  0.8731  0.0537
  131MOL0     H17655   5.091   4.913   7.399 -0.0498 -0.5980 -0.0799
  131MOL0     H17656   5.107   4.768   7.505  0.9644 -0.1468  1.6395
  131MOL0     H17657   5.311   4.832   7.603 -0.6506 -0.7419 -1.1110
  131MOL0     H17658   5.289   4.996   7.527 -0.0395  0.4078 -2.2112
  131MOL0     H17659   5.352   4.731   7.404 -0.0543 -1.1604 -2.3172
  131MOL0     H17660   5.322   4.874   7.304 -1.2778 -1.4750  0.4150
  131MOL0     H17661   5.542   4.864   7.511 -1.7077 -1.9513 -0.4698
  131MOL0     H17662   5.491   4.998   7.410 -0.1874  0.1573  1.6776
  131MOL0     H17663   5.539   4.895   7.211  0.3444  2.9017 -0.2562
  131MOL0     H17664   5.693   4.906   7.286 -0.5147 -0.9092 -1.5040
  131MOL0     H17665   4.600   5.059   7.809  1.8148  1.9463  0.2553
  131MOL0     H17666   4.494   5.076   8.056 -0.1163  0.6014  2.1155
  131MOL0     H17667   4.324   4.946   8.372  0.3879  0.1629 -0.8939
  131MOL0     H17668   4.153   5.078   8.507 -0.1499 -1.3961 -1.4786
  131MOL0     H17669   3.186   6.599   7.874 -0.6079 -1.1561 -1.7091
  131MOL0     H17670   2.940   6.615   7.874  3.7144  1.4080 -2.4055
  131MOL0     H17671   2.529   6.730   8.033  1.2267 -0.7907  0.0082
  131MOL0     H17672   2.280   6.726   8.024 -2.0563 -0.7853  2.4493
  131MOL0     H17673   2.099   6.390   8.222  3.4039 -0.7406 -1.3689
  131MOL0     H17674   2.081   6.322   8.058 -1.7762 -0.9224  0.5362
  131MOL0     H17675   1.872   6.328   8.132  3.0129 -0.8986  0.7248
  131MOL0     H17676   1.892   6.471   8.024  1.5990 -0.9452 -1.8711
  131MOL0     H17677   1.895   6.621   8.218  0.2317 -0.1686  1.2335
  131MOL0     H17678   1.904   6.482   8.331 -0.3433 -0.7561  0.2841
  131MOL0     H17679   1.680   6.563   8.358 -2.7494 -1.1387  0.0175
  131MOL0     H17680   1.672   6.590   8.186 -0.8835  0.3322  0.2975
  131MOL0     H17681   1.574   6.169   8.227 -0.4136  1.2344 -1.1308
  131MOL0     H17682   2.292   6.303   8.098 -1.8772  1.3905  3.2103
  131MOL0     H17683   2.564   6.214   7.969 -0.6824  0.8770 -1.3624
  131MOL0     H17684   2.641   6.259   8.119 -0.6120  0.2983  1.9215
  131MOL0     H17685   2.479   6.197   8.135 -0.4220  2.5169  1.0348
  132MOL0     O17686   7.175  10.595   9.892 -0.0314 -0.3944 -0.1883
  132MOL0     C17687   7.142  10.706   9.944 -0.7719  0.8147  0.7551
  132MOL0     O17688   7.229  10.793  10.005  0.3925  0.1919 -0.0080
  132MOL0     C17689   7.358  10.779   9.966 -0.5529  0.4409  0.0683
  132MOL0     C17690   7.411  10.830   9.845 -0.3420 -0.5574 -0.8101
  132MOL0     C17691   7.540  10.809   9.810 -0.3259  0.6787 -0.7076
  132MOL0     C17692   7.637  10.752   9.905  0.8198 -0.1764  0.9795
  132MOL0     O17693   7.775  10.749   9.888 -0.5998  0.6206  0.1322
  132MOL0     C17694   7.869  10.692   9.986  1.0463  0.6170 -0.5441
  132MOL0     C17695   8.013  10.702   9.930 -0.1747  0.6795  0.0272
  132MOL0     C17696   8.111  10.599   9.992  0.7172 -0.5848  0.2837
  132MOL0     C17697   8.249  10.621   9.941 -0.6816  0.1433 -0.3124
  132MOL0     C17698   8.354  10.565  10.041 -0.0734  0.0935 -0.2092
  132MOL0     C17699   8.500  10.587   9.976  0.1308  0.0409 -0.8418
  132MOL0     C17700   8.548  10.483   9.876 -0.8661  0.0963 -0.5258
  132MOL0     C17701   8.696  10.523   9.848 -0.2891 -0.2973 -0.0118
  132MOL0     N17702   8.784  10.500   9.966  0.4058  0.2622  0.1539
  132MOL0     C17703   8.855  10.384   9.995  0.0838 -0.2822 -0.0509
  132MOL0     C17704   8.924  10.420  10.102  0.3194  0.0921  0.2523
  132MOL0     C17705   9.002  10.328  10.188 -0.3524  0.0690  0.0151
  132MOL0     C17706   9.143  10.385  10.191 -0.7448  0.4372 -0.5345
  132MOL0     C17707   9.211  10.401  10.057  0.3131 -0.5218 -0.8457
  132MOL0     C17708   9.363  10.414  10.066  0.4485  0.6923  0.1682
  132MOL0     O17709   9.402  10.546  10.112  0.5581 -0.0234 -0.5788
  132MOL0     C17710   9.530  10.566  10.142 -0.2791  0.3794  0.1735
  132MOL0     C17711   9.639  10.493  10.082  0.3232  0.2937 -0.0852
  132MOL0     C17712   9.771  10.505  10.120  0.6618  0.4014 -0.1779
  132MOL0     C17713   9.809  10.609  10.204  0.1618 -0.0397  0.5059
  132MOL0     C17714   9.946  10.633  10.241  0.1084 -0.3067  0.0862
  132MOL0     O17715   9.974  10.751  10.307 -0.4358  0.0534 -0.5076
  132MOL0     C17716  10.092  10.809  10.328 -0.1990 -0.5803  0.3430
  132MOL0     C17717  10.092  10.906  10.424 -0.2677  0.3530  0.1833
  132MOL0     C17718  10.206  10.989  10.445 -0.1643  0.0027 -0.5675
  132MOL0     C17719  10.323  10.963  10.379  0.5047 -0.5862  0.2957
  132MOL0     O17720  10.445  11.023  10.404  0.3880 -0.5833  0.4333
  132MOL0     C17721  10.457  11.084  10.531 -0.3756  0.8364 -0.1005
  132MOL0     C17722  10.611  11.086  10.553 -0.4608 -0.3868 -1.0281
  132MOL0     C17723  10.696  11.159  10.453 -0.2370  0.2089  0.3720
  132MOL0     C17724  10.846  11.179  10.496 -0.1672 -0.2527  0.3807
  132MOL0     C17725  10.937  11.060  10.457  0.4092 -1.3419  0.7861
  132MOL0     C17726  11.079  11.079  10.513  0.0430  0.7248 -0.7273
  132MOL0     C17727  11.172  10.974  10.460  0.3893  0.7744 -0.4674
  132MOL0     C17728  11.318  10.982  10.504  0.0894 -0.2261  0.0215
  132MOL0    Cl17729  11.412  10.855  10.411  0.4138  0.2393 -0.0583
  132MOL0     C17730  10.323  10.861  10.282  0.6226 -0.1833  1.0543
  132MOL0     C17731  10.207  10.790  10.257 -0.8714  0.1048  0.5509
  132MOL0     O17732  10.032  10.557  10.204  0.2301  0.0817  0.5207
  132MOL0     C17733   9.709  10.697  10.251 -0.3150 -0.7816  0.4882
  132MOL0     C17734   9.574  10.677  10.216 -0.0733  0.1884  0.6788
  132MOL0     N17735   8.904  10.555  10.133 -0.0015 -0.6194  0.7794
  132MOL0     N17736   8.823  10.602  10.041  0.0581 -0.1691  0.1424
  132MOL0     C17737   7.584  10.706  10.023  0.4205  0.5943 -0.2946
  132MOL0     C17738   7.445  10.724  10.058 -0.0960  0.3917 -0.8701
  132MOL0     C17739   7.000  10.738   9.936  0.4966 -0.0514  0.6543
  132MOL0     C17740   6.955  10.848  10.003  0.2411 -0.3542  0.0963
  132MOL0     C17741   6.816  10.882  10.002  0.3026  0.2716  0.3788
  132MOL0     C17742   6.721  10.807   9.940 -0.3559 -0.8233 -0.4569
  132MOL0     O17743   6.584  10.815   9.961  0.0048 -0.4213  0.6444
  132MOL0     C17744   6.542  10.940  10.021 -0.3634 -0.6027 -0.3772
  132MOL0     C17745   6.398  10.939  10.011 -0.1682  0.2343  0.1590
  132MOL0     C17746   6.334  10.825  10.096 -0.0271 -0.6548  0.0931
  132MOL0     C17747   6.181  10.841  10.131  0.3693 -0.1522 -0.4528
  132MOL0     C17748   6.098  10.881  10.014  0.8936  1.1209  0.0582
  132MOL0     C17749   6.021  10.922   9.932 -0.2917 -0.3455  0.5955
  132MOL0     C17750   6.764  10.695   9.870  0.6905  0.0688  0.6328
  132MOL0     C17751   6.899  10.660   9.863  0.0327  0.1754 -0.0384
  132MOL0     C17752   6.932  10.539   9.777 -0.0411  0.5314  0.1205
  132MOL0     H17753   7.352  10.896   9.782 -0.7551  1.9585  1.9779
  132MOL0     H17754   7.570  10.836   9.710 -0.6010 -0.1037 -1.0098
  132MOL0     H17755   7.873  10.761  10.071  3.9935  2.1423 -1.7544
  132MOL0     H17756   7.839  10.594  10.024  0.7545  0.4490 -1.1856
  132MOL0     H17757   8.047  10.806   9.935  1.3611  0.2459 -0.6596
  132MOL0     H17758   8.009  10.679   9.823  1.3782  0.1530  0.0468
  132MOL0     H17759   8.082  10.497   9.967  2.8856 -0.6697 -2.3690
  132MOL0     H17760   8.113  10.614  10.100  2.3839 -0.5230  0.2657
  132MOL0     H17761   8.264  10.565   9.848  2.1993 -0.2318  0.2872
  132MOL0     H17762   8.271  10.727   9.927  0.2754 -0.1820 -1.4539
  132MOL0     H17763   8.348  10.619  10.136 -2.5111 -1.3994  0.5817
  132MOL0     H17764   8.330  10.460  10.057  0.5960 -0.2485 -1.3377
  132MOL0     H17765   8.494  10.680   9.917 -4.1096  0.5391  0.0331
  132MOL0     H17766   8.567  10.593  10.062 -1.7460 -3.5874  1.1044
  132MOL0     H17767   8.487  10.493   9.785 -1.4930  3.7180  0.1717
  132MOL0     H17768   8.551  10.379   9.911  1.6314  0.5579  0.7997
  132MOL0     H17769   8.735  10.462   9.765  2.0985 -0.6744  1.2893
  132MOL0     H17770   8.697  10.629   9.823  0.5095  0.7822  3.9343
  132MOL0     H17771   8.839  10.283   9.958 -2.9131 -0.0237  0.3135
  132MOL0     H17772   8.966  10.334  10.291 -0.5364  3.6209 -0.1320
  132MOL0     H17773   9.013  10.226  10.150  2.7742  0.6000 -0.7969
  132MOL0     H17774   9.136  10.482  10.242 -2.1387  0.0029  0.1206
  132MOL0     H17775   9.211  10.322  10.248 -1.9699 -0.1860  0.2775
  132MOL0     H17776   9.175  10.490  10.004 -0.7117  0.7443  1.7877
  132MOL0     H17777   9.187  10.311  10.000 -0.5296 -0.3298 -0.8199
  132MOL0     H17778   9.402  10.389   9.966  0.8588 -1.4240  0.8149
  132MOL0     H17779   9.395  10.331  10.130  1.7593 -0.1323 -1.4623
  132MOL0     H17780   9.620  10.425   9.999  2.2083  0.3405 -0.6010
  132MOL0     H17781   9.835  10.429  10.078 -0.4607 -0.7118  0.0811
  132MOL0     H17782  10.001  10.927  10.479 -0.1846 -0.9125  0.8310
  132MOL0     H17783  10.197  11.065  10.522  1.1650 -1.1882  0.7998
  132MOL0     H17784  10.406  11.181  10.527 -2.5874 -0.2138  1.0404
  132MOL0     H17785  10.421  11.029  10.618  0.5699 -0.4027 -0.4567
  132MOL0     H17786  10.642  11.127  10.650  2.5529 -2.0517 -1.1333
  132MOL0     H17787  10.646  10.982  10.559 -2.8687 -1.1806  2.5130
  132MOL0     H17788  10.695  11.105  10.357  1.2838  1.4126 -0.3675
  132MOL0     H17789  10.661  11.261  10.435 -1.0541 -0.1389 -0.0234
  132MOL0     H17790  10.856  11.202  10.603  0.0836  1.0401  0.0999
  132MOL0     H17791  10.890  11.261  10.438 -2.5642 -0.6638 -2.2710
  132MOL0     H17792  10.945  11.047  10.349 -2.6183 -1.2957  0.4483
  132MOL0     H17793  10.883  10.975  10.501  0.3613 -1.6978  0.0527
  132MOL0     H17794  11.122  11.176  10.485  0.5673  0.1081 -2.1846
  132MOL0     H17795  11.086  11.066  10.621 -1.7837  1.1615 -0.5190
  132MOL0     H17796  11.181  10.981  10.352  1.6004  2.1300 -0.2952
  132MOL0     H17797  11.138  10.874  10.489  0.4508  0.8317 -0.1882
  132MOL0     H17798  11.356  11.083  10.486 -1.8289  0.5022 -0.1981
  132MOL0     H17799  11.323  10.962  10.611  2.7128 -0.7220 -0.1393
  132MOL0     H17800  10.422  10.838  10.245  0.7943  0.4018  1.1438
  132MOL0     H17801  10.216  10.721  10.174 -4.0715  3.5111 -3.0740
  132MOL0     H17802   9.729  10.781  10.317 -2.2521  0.1537 -0.0428
  132MOL0     H17803   9.506  10.734  10.278 -3.3264 -4.0716  1.4537
  132MOL0     H17804   7.648  10.674  10.105 -3.6322  0.9494  3.4324
  132MOL0     H17805   7.411  10.701  10.158 -1.1611  1.8029 -0.8666
  132MOL0     H17806   7.024  10.904  10.065 -1.3885 -0.4496  2.1091
  132MOL0     H17807   6.798  10.983  10.038  1.3623  0.8624 -0.6615
  132MOL0     H17808   6.600  11.024   9.981  0.7665 -1.0905  0.1852
  132MOL0     H17809   6.569  10.930  10.127 -0.8133  2.2043  0.0605
  132MOL0     H17810   6.358  10.939   9.909 -2.4012  2.9406  0.8990
  132MOL0     H17811   6.365  11.034  10.054 -0.8444 -0.9828  2.4832
  132MOL0     H17812   6.385  10.804  10.191  0.2534  1.0586  0.3520
  132MOL0     H17813   6.334  10.744  10.023 -0.1722  0.4973 -1.2384
  132MOL0     H17814   6.144  10.747  10.175  0.7548  1.1534  3.0353
  132MOL0     H17815   6.154  10.908  10.213 -1.9362  0.9318 -1.9866
  132MOL0     H17816   5.949  10.966   9.866  0.4460  0.3427  0.2200
  132MOL0     H17817   6.687  10.646   9.810 -0.0961  3.0223 -1.0380
  132MOL0     H17818   7.013  10.559   9.706 -0.1561 -3.6767 -1.4894
  132MOL0     H17819   6.967  10.448   9.827  1.5108 -0.7111 -2.9556
  132MOL0     H17820   6.845  10.508   9.719  1.1549 -1.1026 -0.8875
  133MOL0     O17821   3.265   2.948   5.444  0.1293  0.1237  0.0080
  133MOL0     C17822   3.166   2.876   5.439  0.2987  0.2638  0.4683
  133MOL0     O17823   3.145   2.757   5.504  0.0671  0.0150  0.0225
  133MOL0     C17824   3.248   2.715   5.580  0.1007  0.2029 -0.0845
  133MOL0     C17825   3.246   2.725   5.718  0.2452 -1.0333 -0.2450
  133MOL0     C17826   3.340   2.664   5.797  0.6905  0.3498  0.4086
  133MOL0     C17827   3.441   2.584   5.735  0.9497 -0.7007 -0.3064
  133MOL0     O17828   3.521   2.515   5.824 -0.5399  0.4916 -0.4382
  133MOL0     C17829   3.605   2.408   5.773  0.2316  0.0743 -0.4284
  133MOL0     C17830   3.693   2.363   5.888 -0.4801 -0.8512  0.3850
  133MOL0     C17831   3.814   2.285   5.823 -0.7225  0.0553 -0.9124
  133MOL0     C17832   3.937   2.253   5.916  0.5877  0.0879 -0.4819
  133MOL0     C17833   4.047   2.178   5.839 -0.1156  0.1641 -0.6380
  133MOL0     C17834   4.148   2.141   5.943  0.4559  0.2345 -0.1751
  133MOL0     C17835   4.262   2.074   5.871 -0.2655  0.7420 -0.5083
  133MOL0     C17836   4.367   2.026   5.977 -0.4869  0.2304  1.0168
  133MOL0     N17837   4.504   2.054   5.927  0.3385 -0.3677 -0.6486
  133MOL0     C17838   4.562   2.177   5.953  0.6406  0.3811  0.5691
  133MOL0     C17839   4.669   2.167   5.878 -0.3207 -0.3084  0.5740
  133MOL0     C17840   4.776   2.276   5.854  0.3234  0.6776 -1.4659
  133MOL0     C17841   4.908   2.223   5.799  0.6306  0.6799 -0.5797
  133MOL0     C17842   5.007   2.339   5.804  0.9281 -0.2448  0.0511
  133MOL0     C17843   5.147   2.302   5.760 -0.0471 -0.4485  0.2082
  133MOL0     O17844   5.219   2.425   5.752  0.0995  0.1785  0.6666
  133MOL0     C17845   5.325   2.427   5.657 -0.0773  0.0276  0.4081
  133MOL0     C17846   5.431   2.337   5.672  0.6025 -0.1377  0.6535
  133MOL0     C17847   5.542   2.349   5.596 -0.1132  1.6300 -0.3603
  133MOL0     C17848   5.556   2.436   5.482  0.3574 -0.2281  0.5159
  133MOL0     C17849   5.666   2.436   5.392 -0.6070  0.6453 -0.0286
  133MOL0     O17850   5.757   2.339   5.427 -0.2481 -0.1780  0.1998
  133MOL0     C17851   5.859   2.326   5.343 -0.8267 -0.0114  0.3560
  133MOL0     C17852   5.938   2.430   5.284 -0.4512  0.6944 -0.4622
  133MOL0     C17853   6.036   2.397   5.190  0.2530  0.3440 -0.2159
  133MOL0     C17854   6.086   2.266   5.181  0.1215  0.6045 -0.5578
  133MOL0     O17855   6.201   2.252   5.108  0.2635 -0.5349 -0.5126
  133MOL0     C17856   6.302   2.167   5.170  0.3082  0.0484 -0.4676
  133MOL0     C17857   6.385   2.249   5.270 -0.5810  0.4905  0.4091
  133MOL0     C17858   6.516   2.187   5.314  0.3954  0.3439 -0.1921
  133MOL0     C17859   6.608   2.286   5.373 -1.1825 -0.4259 -0.5867
  133MOL0     C17860   6.747   2.229   5.395  0.0800  0.1644  0.7109
  133MOL0     C17861   6.843   2.334   5.455  0.4463 -0.4756  0.3782
  133MOL0     C17862   6.986   2.289   5.430 -0.8790  0.8253 -0.1625
  133MOL0     C17863   7.091   2.397   5.438  0.7907 -0.1035  0.2480
  133MOL0    Cl17864   7.119   2.458   5.602 -0.0661  0.0838  0.2137
  133MOL0     C17865   6.020   2.157   5.256  0.4252 -0.8294 -0.8749
  133MOL0     C17866   5.907   2.191   5.332 -0.3416 -0.0024  0.3406
  133MOL0     O17867   5.676   2.521   5.300 -0.4702 -0.2026 -0.0646
  133MOL0     C17868   5.457   2.539   5.469  0.0030  0.7767 -1.3675
  133MOL0     C17869   5.347   2.533   5.564 -0.4787  0.4933 -0.1043
  133MOL0     N17870   4.666   2.058   5.796 -0.8490 -0.0845  0.5420
  133MOL0     N17871   4.572   1.985   5.836  0.2539  0.1621  0.4148
  133MOL0     C17872   3.444   2.571   5.594 -0.3130 -1.0146  0.7146
  133MOL0     C17873   3.361   2.653   5.520  0.1836  0.3184 -1.1234
  133MOL0     C17874   3.070   2.905   5.342 -0.7778 -0.0701  0.7557
  133MOL0     C17875   3.005   3.031   5.357  0.2123 -1.0595 -0.4089
  133MOL0     C17876   2.907   3.074   5.270  0.0990  0.2687 -0.9468
  133MOL0     C17877   2.873   2.985   5.165 -0.4292  0.2721 -0.2491
  133MOL0     O17878   2.786   3.015   5.066  0.0892  1.1328 -0.9412
  133MOL0     C17879   2.756   3.153   5.030  0.0716 -0.4632  0.4652
  133MOL0     C17880   2.637   3.221   5.116 -0.3457  0.5287  0.2585
  133MOL0     C17881   2.499   3.156   5.090  0.4050 -0.4401 -0.5613
  133MOL0     C17882   2.390   3.231   5.169  0.5994  0.0135  0.3395
  133MOL0     C17883   2.354   3.350   5.101 -0.0200 -0.6571  0.5056
  133MOL0     C17884   2.318   3.450   5.043 -0.2933  0.2255 -0.5847
  133MOL0     C17885   2.935   2.861   5.165 -0.4334 -0.1052  0.1033
  133MOL0     C17886   3.034   2.817   5.246  0.3761  0.0590 -0.0100
  133MOL0     C17887   3.126   2.692   5.215 -0.4139 -0.3593  0.2613
  133MOL0     H17888   3.169   2.793   5.753 -0.9653  0.5687 -5.1330
  133MOL0     H17889   3.329   2.669   5.905  0.2973  2.5929  0.3062
  133MOL0     H17890   3.545   2.323   5.738 -1.3531  2.0408 -2.9079
  133MOL0     H17891   3.660   2.443   5.685 -0.9573 -0.2381 -1.3324
  133MOL0     H17892   3.627   2.311   5.959  1.2174  0.2473  2.9206
  133MOL0     H17893   3.738   2.447   5.942  0.6919 -1.2510  0.0540
  133MOL0     H17894   3.856   2.344   5.741  4.6162 -2.0550 -0.1121
  133MOL0     H17895   3.788   2.186   5.786  1.6054 -1.2812  0.7230
  133MOL0     H17896   3.973   2.349   5.954 -1.7264  1.2044 -0.9845
  133MOL0     H17897   3.883   2.190   5.988 -0.8138  0.3730 -1.2527
  133MOL0     H17898   4.022   2.082   5.792  0.4547 -0.6785  0.7196
  133MOL0     H17899   4.082   2.251   5.766 -1.3710 -0.9229 -2.3996
  133MOL0     H17900   4.179   2.234   5.991 -0.5505  0.6438 -0.2924
  133MOL0     H17901   4.109   2.066   6.012  1.5216 -0.0295  0.1600
  133MOL0     H17902   4.309   2.137   5.795 -1.1791  2.0422 -0.0203
  133MOL0     H17903   4.224   1.981   5.827  2.1020  0.1913 -1.5466
  133MOL0     H17904   4.357   2.075   6.075  0.1656  1.3240  0.5508
  133MOL0     H17905   4.364   1.919   6.002  0.0264  0.4077  1.8735
  133MOL0     H17906   4.515   2.249   6.019 -2.2761 -0.5921 -0.2992
  133MOL0     H17907   4.726   2.348   5.788 -4.1476  0.2653  1.0445
  133MOL0     H17908   4.801   2.325   5.948  1.0156  0.1369 -1.3619
  133MOL0     H17909   4.949   2.145   5.864 -0.7165  0.1701 -0.3134
  133MOL0     H17910   4.895   2.195   5.694  0.1117  1.5526 -0.7596
  133MOL0     H17911   4.998   2.391   5.900  3.3357  0.1929  0.1027
  133MOL0     H17912   4.980   2.423   5.740  1.1121 -0.3160 -0.1196
  133MOL0     H17913   5.136   2.250   5.664  1.1836  3.5438 -2.3503
  133MOL0     H17914   5.187   2.237   5.838 -1.0063  0.8665  1.8621
  133MOL0     H17915   5.425   2.268   5.756  0.5491  0.4880  1.1762
  133MOL0     H17916   5.601   2.267   5.634 -0.7844  0.3684 -1.9455
  133MOL0     H17917   5.904   2.531   5.299 -1.6363  0.1077  1.0756
  133MOL0     H17918   6.076   2.487   5.144  1.6237 -0.3611 -0.4665
  133MOL0     H17919   6.266   2.078   5.223  0.2253  0.6876  0.5705
  133MOL0     H17920   6.368   2.139   5.088  1.1028 -0.4044  0.3068
  133MOL0     H17921   6.402   2.342   5.214 -0.1788  0.9067  1.2065
  133MOL0     H17922   6.323   2.261   5.359 -0.3402  0.7124  0.5476
  133MOL0     H17923   6.489   2.116   5.392 -3.9120  0.8037 -1.0331
  133MOL0     H17924   6.559   2.115   5.243 -0.6947 -0.1233 -0.4101
  133MOL0     H17925   6.575   2.330   5.468  0.2528 -0.8985  0.1679
  133MOL0     H17926   6.618   2.361   5.295 -1.3279 -2.0687 -2.2504
  133MOL0     H17927   6.770   2.206   5.290  0.4812  1.3405  0.5224
  133MOL0     H17928   6.749   2.138   5.456  2.4010  0.2872  0.8904
  133MOL0     H17929   6.837   2.432   5.407  2.2347 -0.3265  0.3827
  133MOL0     H17930   6.823   2.338   5.562  2.7375 -4.2662  1.1306
  133MOL0     H17931   6.985   2.241   5.332 -4.1471 -0.7728  0.5066
  133MOL0     H17932   7.009   2.212   5.503  1.2635  0.2795 -1.3271
  133MOL0     H17933   7.187   2.360   5.401 -0.7315 -5.7754  1.0181
  133MOL0     H17934   7.063   2.477   5.369  2.3699  0.6280  0.4041
  133MOL0     H17935   6.060   2.057   5.243 -2.0609 -2.0961  0.4714
  133MOL0     H17936   5.853   2.114   5.387 -1.3959  0.6185  0.1911
  133MOL0     H17937   5.467   2.627   5.406 -0.9522  2.2341  0.4161
  133MOL0     H17938   5.273   2.613   5.560 -0.0149  0.9033 -0.7168
  133MOL0     H17939   3.508   2.500   5.543  1.5816  0.9071  0.2772
  133MOL0     H17940   3.361   2.640   5.412 -2.4883 -1.2817 -1.0329
  133MOL0     H17941   3.034   3.095   5.440  0.8325 -1.2543 -0.4711
  133MOL0     H17942   2.871   3.176   5.272  0.7616  0.5953 -3.1035
  133MOL0     H17943   2.723   3.149   4.926  0.7978 -0.7919  0.2364
  133MOL0     H17944   2.846   3.215   5.033 -1.1235  1.3977 -0.5645
  133MOL0     H17945   2.638   3.330   5.108 -0.8760  0.6013  1.0463
  133MOL0     H17946   2.655   3.207   5.223  2.1447  1.8043  0.0912
  133MOL0     H17947   2.495   3.050   5.117 -1.2406 -0.3553 -0.3621
  133MOL0     H17948   2.479   3.168   4.983 -0.6330  3.9740 -0.0902
  133MOL0     H17949   2.297   3.173   5.180 -0.8083  1.7007 -1.8672
  133MOL0     H17950   2.429   3.252   5.269 -1.4815 -0.1787  1.2460
  133MOL0     H17951   2.285   3.541   4.997  0.5945  0.8138 -0.0870
  133MOL0     H17952   2.905   2.803   5.079 -0.7359  2.3539 -1.5495
  133MOL0     H17953   3.061   2.622   5.163 -1.7634  1.6129 -0.8260
  133MOL0     H17954   3.208   2.723   5.149 -1.5213 -0.2303 -1.1063
  133MOL0     H17955   3.169   2.646   5.304 -4.5516 -0.4085  2.4425
  134MOL0     O17956   1.769  10.218   7.053  0.4630  0.0107  0.1142
  134MOL0     C17957   1.754  10.137   6.956  0.7002  0.7402 -0.3705
  134MOL0     O17958   1.851  10.060   6.902 -0.3586 -0.9218  0.3679
  134MOL0     C17959   1.971  10.062   6.966  0.3013 -1.0849 -0.5679
  134MOL0     C17960   2.008   9.997   7.086 -0.2053  0.1172 -0.3808
  134MOL0     C17961   2.136   9.989   7.137  0.9067  0.1574 -0.0874
  134MOL0     C17962   2.244  10.045   7.069  0.3340  1.1108 -0.7006
  134MOL0     O17963   2.369  10.029   7.122 -0.9168  0.3331 -0.7036
  134MOL0     C17964   2.478  10.106   7.078  0.1263  0.2676 -0.1391
  134MOL0     C17965   2.608  10.073   7.152 -0.4609  0.2855 -0.7480
  134MOL0     C17966   2.733  10.129   7.088 -0.2565 -0.9674  0.8379
  134MOL0     C17967   2.855  10.102   7.185 -0.7038  0.7296  0.5060
  134MOL0     C17968   2.992  10.135   7.115 -0.1110 -0.5137 -0.5219
  134MOL0     C17969   3.066  10.260   7.179 -0.0614  0.1539 -0.7733
  134MOL0     C17970   3.134  10.347   7.070  0.0238 -0.3820 -0.1616
  134MOL0     C17971   3.223  10.295   6.965  0.1936 -0.3686 -0.3462
  134MOL0     N17972   3.362  10.263   7.006  0.2107  0.0350  0.2110
  134MOL0     C17973   3.407  10.139   7.047 -1.0100 -0.2064 -0.8034
  134MOL0     C17974   3.534  10.154   7.087 -0.5995 -0.0122 -0.2076
  134MOL0     C17975   3.624  10.051   7.136 -0.4617 -0.0017 -0.0770
  134MOL0     C17976   3.730   9.998   7.044 -0.6432 -0.0872  0.6670
  134MOL0     C17977   3.881  10.054   7.056  0.5776  0.8223 -0.0592
  134MOL0     C17978   3.984   9.972   6.978  0.1977 -0.0943  0.6227
  134MOL0     O17979   4.011   9.851   7.045  0.0363  0.0458  0.9062
  134MOL0     C17980   4.111   9.771   6.991  0.7855  0.3864 -0.4779
  134MOL0     C17981   4.212   9.818   6.909 -1.1468 -0.5342 -0.3953
  134MOL0     C17982   4.321   9.731   6.869  0.3005 -0.4947  0.3403
  134MOL0     C17983   4.327   9.597   6.909  1.2519  0.8653 -0.0741
  134MOL0     C17984   4.432   9.506   6.859  0.6925 -0.1890  0.7596
  134MOL0     O17985   4.534   9.570   6.787  0.5099  0.2833  0.3291
  134MOL0     C17986   4.640   9.493   6.764 -0.1007 -0.1766  0.7117
  134MOL0     C17987   4.744   9.488   6.859 -0.1664  0.2984  0.0364
  134MOL0     C17988   4.859   9.416   6.841  0.4106  0.2189  0.7771
  134MOL0     C17989   4.855   9.312   6.744 -0.4813 -0.5662 -0.4195
  134MOL0     O17990   4.961   9.229   6.730 -0.3170 -0.0826  0.3883
  134MOL0     C17991   4.943   9.104   6.659  0.6912 -0.6606 -0.4588
  134MOL0     C17992   5.036   8.997   6.703 -0.2267 -1.1488  0.1075
  134MOL0     C17993   5.028   8.955   6.853 -0.7798  0.1023  0.4583
  134MOL0     C17994   5.083   8.818   6.870 -0.7073  0.7134  0.1701
  134MOL0     C17995   5.077   8.769   7.010  0.0900 -0.0452 -0.0735
  134MOL0     C17996   5.105   8.615   7.016  0.2420 -0.2933 -0.6229
  134MOL0     C17997   5.065   8.570   7.161 -0.0514  0.5520 -0.2715
  134MOL0     C17998   5.051   8.417   7.185 -0.1796  0.6699  1.1217
  134MOL0    Cl17999   5.195   8.312   7.131 -0.5534 -0.4147 -0.2400
  134MOL0     C18000   4.754   9.316   6.651 -0.5113 -0.3043  0.7484
  134MOL0     C18001   4.649   9.409   6.656  0.6619 -0.8367 -1.2182
  134MOL0     O18002   4.433   9.385   6.888 -0.5377 -0.7207 -0.3040
  134MOL0     C18003   4.228   9.558   7.000  0.1711  1.0647  0.3141
  134MOL0     C18004   4.122   9.639   7.032  0.1290 -0.7346 -0.0224
  134MOL0     N18005   3.559  10.289   7.066 -0.2485  0.3302  0.9238
  134MOL0     N18006   3.453  10.355   7.035 -0.4271  0.4053  0.0678
  134MOL0     C18007   2.208  10.111   6.949 -0.3079  0.3073 -0.1432
  134MOL0     C18008   2.081  10.121   6.895  0.6226 -0.3684  0.8352
  134MOL0     C18009   1.623  10.140   6.874 -0.1236 -0.0791  0.8428
  134MOL0     C18010   1.617  10.076   6.750  0.2182 -0.7999 -0.4921
  134MOL0     C18011   1.502  10.065   6.677 -0.0772  0.5917 -0.1147
  134MOL0     C18012   1.382  10.121   6.722 -0.2331 -1.0101  0.4137
  134MOL0     O18013   1.260  10.107   6.658 -0.0130 -0.2041 -0.8571
  134MOL0     C18014   1.255  10.074   6.520 -0.8485 -0.1866 -0.5580
  134MOL0     C18015   1.108  10.081   6.476 -0.1684 -0.5506  0.3222
  134MOL0     C18016   1.080  10.040   6.322  0.1184 -0.0024  0.0108
  134MOL0     C18017   0.940   9.983   6.286  0.0526 -0.5820  0.9331
  134MOL0     C18018   0.831  10.059   6.350 -0.3318 -0.6702  0.0552
  134MOL0     C18019   0.741  10.117   6.403 -0.7330 -0.5414  0.0291
  134MOL0     C18020   1.384  10.184   6.841  0.5767 -0.3598  0.3332
  134MOL0     C18021   1.501  10.199   6.915 -0.8018  0.3864 -0.2726
  134MOL0     C18022   1.503  10.318   7.025  0.0511  0.8683  1.1137
  134MOL0     H18023   1.936   9.953   7.154  1.9764 -0.3216  1.7961
  134MOL0     H18024   2.150   9.943   7.234 -3.9057  2.9519  2.3226
  134MOL0     H18025   2.485  10.073   6.974 -1.7230 -2.3148  0.4553
  134MOL0     H18026   2.462  10.214   7.087  2.1019  0.4726  1.7571
  134MOL0     H18027   2.621   9.965   7.140 -0.5855  0.1989 -0.1015
  134MOL0     H18028   2.612  10.106   7.256  1.6121  0.1647 -0.7437
  134MOL0     H18029   2.725  10.237   7.073  3.8531 -0.7003 -0.8215
  134MOL0     H18030   2.739  10.074   6.994 -2.1661 -3.4248  2.0395
  134MOL0     H18031   2.852  10.150   7.283  2.0004 -2.1808  2.2058
  134MOL0     H18032   2.858   9.995   7.205 -1.8198  0.7771  1.0094
  134MOL0     H18033   3.060  10.050   7.125  2.5529  1.4220 -1.1826
  134MOL0     H18034   2.982  10.152   7.007  1.9657  0.2546 -0.6277
  134MOL0     H18035   2.998  10.317   7.242  0.6077 -0.7530  0.8529
  134MOL0     H18036   3.145  10.224   7.246  1.2086  1.7467 -1.3404
  134MOL0     H18037   3.186  10.425   7.128 -1.3524 -1.1711  2.2676
  134MOL0     H18038   3.049  10.394   7.019 -0.4389 -1.6015 -0.5331
  134MOL0     H18039   3.184  10.224   6.892 -1.0129  0.3588 -0.4337
  134MOL0     H18040   3.234  10.380   6.896  1.4132  1.1554  1.5928
  134MOL0     H18041   3.358  10.046   7.021 -2.4272  0.8009 -1.9023
  134MOL0     H18042   3.687  10.093   7.215 -1.9425  2.1107  0.0730
  134MOL0     H18043   3.569   9.970   7.185  0.3683 -1.3884 -1.3644
  134MOL0     H18044   3.739   9.889   7.051 -0.2449 -0.3373 -2.2309
  134MOL0     H18045   3.690  10.003   6.942 -0.4757 -0.5930  0.5742
  134MOL0     H18046   3.918  10.059   7.159 -1.6918 -2.4079  1.0594
  134MOL0     H18047   3.885  10.156   7.017  4.8850  1.0102  0.3321
  134MOL0     H18048   4.076  10.030   6.968  0.1270  0.2459  1.8090
  134MOL0     H18049   3.939   9.960   6.879  0.3487 -1.9070  0.7370
  134MOL0     H18050   4.228   9.920   6.875  0.1146  0.0848  1.8490
  134MOL0     H18051   4.399   9.762   6.800  1.0370 -0.0390  1.3431
  134MOL0     H18052   4.722   9.547   6.948 -1.3685  0.3688 -0.2815
  134MOL0     H18053   4.937   9.415   6.917  0.4429  1.3887  0.7743
  134MOL0     H18054   4.848   9.061   6.694  0.6220  0.5650  0.9619
  134MOL0     H18055   4.939   9.118   6.551 -0.8673 -1.0299 -0.4754
  134MOL0     H18056   5.010   8.908   6.645 -1.0866 -1.5301  1.0495
  134MOL0     H18057   5.135   9.027   6.669  0.7955 -2.3952  1.7945
  134MOL0     H18058   5.078   9.030   6.915  0.4644  1.5916 -2.1722
  134MOL0     H18059   4.923   8.951   6.882 -1.0492  0.4977 -0.4146
  134MOL0     H18060   5.189   8.805   6.843 -0.7103  0.7023  0.1640
  134MOL0     H18061   5.025   8.750   6.807 -0.9294  2.0443 -1.1374
  134MOL0     H18062   4.983   8.791   7.060 -0.2541 -0.8727 -0.3346
  134MOL0     H18063   5.151   8.816   7.076 -0.0086  0.2234 -0.1553
  134MOL0     H18064   5.051   8.557   6.940  2.1508  2.4653 -4.4177
  134MOL0     H18065   5.209   8.585   6.997 -0.3295 -2.3362 -0.8056
  134MOL0     H18066   4.972   8.627   7.174  0.9598  3.1584 -3.1878
  134MOL0     H18067   5.135   8.612   7.234 -1.2681 -0.3460  1.5062
  134MOL0     H18068   5.039   8.400   7.292 -3.0544  0.6522  0.8602
  134MOL0     H18069   4.964   8.394   7.123 -0.7950  3.0682  0.9829
  134MOL0     H18070   4.748   9.238   6.576 -0.2970 -0.1599  0.5797
  134MOL0     H18071   4.562   9.398   6.592  0.1861 -0.4012 -0.6494
  134MOL0     H18072   4.228   9.455   7.033 -1.3186  1.4731  1.7346
  134MOL0     H18073   4.042   9.599   7.094  0.9696 -3.2542 -0.4210
  134MOL0     H18074   2.278  10.162   6.882  2.4395 -2.7834  0.1156
  134MOL0     H18075   2.065  10.162   6.795  2.7431 -3.4697 -0.9694
  134MOL0     H18076   1.709  10.026   6.720  2.1304  1.3064  1.5052
  134MOL0     H18077   1.505   9.994   6.595  1.7210  0.3552  0.1071
  134MOL0     H18078   1.278   9.967   6.511 -3.5926 -1.0324  1.1869
  134MOL0     H18079   1.324  10.137   6.463 -3.0680  2.0023 -1.0143
  134MOL0     H18080   1.083  10.187   6.469  0.9973 -0.3800 -3.1045
  134MOL0     H18081   1.047  10.019   6.543 -1.3090 -2.2516 -2.1401
  134MOL0     H18082   1.157   9.970   6.289 -0.5897 -2.0610  2.4030
  134MOL0     H18083   1.100  10.134   6.270 -0.8507 -1.1165 -2.5645
  134MOL0     H18084   0.924   9.992   6.178 -2.1662  2.4944  1.3851
  134MOL0     H18085   0.935   9.878   6.314 -1.7466 -1.0712 -0.9270
  134MOL0     H18086   0.659  10.166   6.451 -0.2010 -0.5163  0.9436
  134MOL0     H18087   1.301  10.235   6.888  0.3054 -1.1175  0.6886
  134MOL0     H18088   1.405  10.366   7.026  0.7279  2.3463  0.6215
  134MOL0     H18089   1.529  10.288   7.126  1.0985 -2.6239 -0.0623
  134MOL0     H18090   1.568  10.398   6.987  0.5328 -0.9284 -2.2736
  135MOL0     O18091   5.736   0.044   8.265  0.6451  0.3620  0.7289
  135MOL0     C18092   5.694   0.041   8.150 -0.1502 -0.2043 -0.7175
  135MOL0     O18093   5.768   0.000   8.040 -0.0585 -0.5668  0.0591
  135MOL0     C18094   5.885  -0.070   8.044 -0.1052  0.0146 -0.3559
  135MOL0     C18095   5.963  -0.065   7.926  0.2291 -0.9737 -0.0915
  135MOL0     C18096   6.092  -0.114   7.924 -0.2720  0.1676  0.6773
  135MOL0     C18097   6.132  -0.186   8.029 -0.0453  0.8893 -0.7575
  135MOL0     O18098   6.263  -0.227   8.024  0.4300 -0.3119 -0.0313
  135MOL0     C18099   6.311  -0.338   8.103 -0.1412  0.8128  0.3505
  135MOL0     C18100   6.433  -0.403   8.036 -0.1968  0.2872 -0.5175
  135MOL0     C18101   6.450  -0.549   8.077  0.1049 -0.7097 -0.5470
  135MOL0     C18102   6.585  -0.610   8.023  0.4604  0.2276 -0.2612
  135MOL0     C18103   6.704  -0.568   8.114 -0.7398  0.0293 -0.2646
  135MOL0     C18104   6.806  -0.491   8.041  0.5625 -0.7936 -0.7429
  135MOL0     C18105   6.889  -0.395   8.122  0.2475  1.3592 -0.1503
  135MOL0     C18106   6.800  -0.284   8.177 -0.7644 -0.3544  0.3630
  135MOL0     N18107   6.893  -0.198   8.248  0.3600 -0.5908  0.7018
  135MOL0     C18108   6.910  -0.071   8.206 -0.5943 -0.0936  0.2654
  135MOL0     C18109   6.966  -0.007   8.311  0.0980 -0.3901 -0.1042
  135MOL0     C18110   6.993   0.141   8.322 -0.3233 -0.6013  0.6892
  135MOL0     C18111   6.862   0.220   8.324  0.4605  0.7489  0.4436
  135MOL0     C18112   6.779   0.194   8.444  0.9484 -1.0807 -0.0236
  135MOL0     C18113   6.678   0.305   8.481 -0.2284 -0.3360  0.1280
  135MOL0     O18114   6.589   0.335   8.373  0.1009 -0.0048  0.2582
  135MOL0     C18115   6.486   0.431   8.386  0.0872 -0.2242  0.6281
  135MOL0     C18116   6.462   0.502   8.502 -0.4946 -1.2132 -0.2738
  135MOL0     C18117   6.360   0.599   8.516  0.6144  0.4671  0.0921
  135MOL0     C18118   6.286   0.631   8.406 -0.6187  0.0698 -0.8482
  135MOL0     C18119   6.183   0.743   8.425  0.1287  0.1371  0.9903
  135MOL0     O18120   6.130   0.781   8.312  0.3432  0.3092  0.2728
  135MOL0     C18121   6.028   0.873   8.322  0.3324  0.3422  0.3332
  135MOL0     C18122   5.922   0.855   8.228 -0.1313 -0.0676  0.4455
  135MOL0     C18123   5.795   0.921   8.227  0.2737 -0.4922 -0.1741
  135MOL0     C18124   5.780   1.029   8.314  0.4898  0.7977 -0.3523
  135MOL0     O18125   5.675   1.120   8.325  0.5174  0.6083 -0.4302
  135MOL0     C18126   5.562   1.091   8.249  0.2133  0.3561 -0.5389
  135MOL0     C18127   5.460   1.190   8.309 -0.1223  0.3209  0.3963
  135MOL0     C18128   5.421   1.150   8.453 -0.1604  1.1398  0.4109
  135MOL0     C18129   5.320   1.252   8.507  0.2236 -0.8633 -0.7103
  135MOL0     C18130   5.165   1.213   8.484  0.0622 -0.5561  0.2543
  135MOL0     C18131   5.069   1.336   8.501  0.2342 -0.7341  0.3753
  135MOL0     C18132   4.913   1.303   8.479 -0.1401 -1.1766  0.1115
  135MOL0     C18133   4.827   1.433   8.480 -0.7289  0.3203 -0.1388
  135MOL0    Cl18134   4.664   1.395   8.425 -0.1359  0.1389  0.2684
  135MOL0     C18135   5.875   1.047   8.413  0.1240 -0.5454 -0.4044
  135MOL0     C18136   5.999   0.968   8.414 -0.6795  0.6215 -0.0268
  135MOL0     O18137   6.140   0.765   8.536  0.2692  0.1627  0.4246
  135MOL0     C18138   6.313   0.568   8.285  0.1214  0.0216  0.2769
  135MOL0     C18139   6.401   0.465   8.279 -0.6626 -0.4723 -0.5329
  135MOL0     N18140   7.007  -0.103   8.405  0.7320  0.1773  0.3786
  135MOL0     N18141   6.951  -0.219   8.368  0.3291  0.2618 -0.0957
  135MOL0     C18142   6.052  -0.214   8.142  0.1544 -0.3899 -0.1441
  135MOL0     C18143   5.926  -0.158   8.154 -0.3526 -0.9137 -0.3974
  135MOL0     C18144   5.557   0.099   8.120  0.1716  0.9890  0.7175
  135MOL0     C18145   5.507   0.082   7.990 -0.0084 -0.7254 -1.2558
  135MOL0     C18146   5.389   0.135   7.943 -0.1527  0.1067 -0.1026
  135MOL0     C18147   5.315   0.224   8.026  0.0570  1.1149 -0.2556
  135MOL0     O18148   5.207   0.290   7.975 -0.5554 -0.2564  0.8263
  135MOL0     C18149   5.178   0.425   8.008  0.3205  0.1590  1.2452
  135MOL0     C18150   5.293   0.501   7.961 -0.7278 -0.0707 -0.3395
  135MOL0     C18151   5.282   0.653   7.993 -0.0570  0.4601  0.1218
  135MOL0     C18152   5.281   0.678   8.155 -0.4503  0.1241 -0.7339
  135MOL0     C18153   5.229   0.813   8.175 -0.8460 -0.5699 -0.1531
  135MOL0     C18154   5.172   0.918   8.183  1.0318  0.9407  0.8078
  135MOL0     C18155   5.357   0.238   8.163 -0.4187  0.2888  0.2556
  135MOL0     C18156   5.478   0.177   8.205  0.3924 -0.0925 -0.1661
  135MOL0     C18157   5.519   0.197   8.350 -0.6552 -0.4626 -0.1468
  135MOL0     H18158   5.934  -0.016   7.834  2.6600  0.3383 -0.2401
  135MOL0     H18159   6.149  -0.100   7.833 -1.3794  3.0981  0.3288
  135MOL0     H18160   6.326  -0.306   8.207 -1.6833 -3.5731  2.1683
  135MOL0     H18161   6.237  -0.419   8.104 -0.1228  0.7295 -1.4325
  135MOL0     H18162   6.517  -0.339   8.067  0.4992 -0.0932 -1.5634
  135MOL0     H18163   6.422  -0.399   7.928 -1.5558  2.2277 -0.3525
  135MOL0     H18164   6.369  -0.611   8.038  0.3717 -1.2460 -0.2734
  135MOL0     H18165   6.455  -0.558   8.186  0.8399  1.2033 -0.3842
  135MOL0     H18166   6.571  -0.718   8.030 -1.6489  0.3654 -1.4163
  135MOL0     H18167   6.603  -0.583   7.919 -0.2817  3.8694  0.4143
  135MOL0     H18168   6.669  -0.524   8.208  1.8214 -0.2174  0.8697
  135MOL0     H18169   6.763  -0.654   8.147  1.7373  2.2948  1.6708
  135MOL0     H18170   6.877  -0.561   7.996 -1.1037 -3.7099  0.8368
  135MOL0     H18171   6.755  -0.433   7.964  2.2760 -0.1144 -1.4260
  135MOL0     H18172   6.968  -0.354   8.058  0.3160 -0.6462 -1.4412
  135MOL0     H18173   6.934  -0.441   8.211  1.0815  0.0063 -1.2311
  135MOL0     H18174   6.752  -0.237   8.090 -2.4686  0.6976  1.8030
  135MOL0     H18175   6.721  -0.332   8.235 -2.1132 -0.9820 -1.8319
  135MOL0     H18176   6.877  -0.026   8.113 -1.0631 -0.4786  0.2393
  135MOL0     H18177   7.056   0.159   8.409  1.7601  0.5652 -0.9577
  135MOL0     H18178   7.061   0.177   8.244  1.2096 -1.2089  1.6981
  135MOL0     H18179   6.874   0.329   8.322  0.2394  0.7655 -0.0029
  135MOL0     H18180   6.803   0.201   8.234  2.5665 -0.8723 -0.6716
  135MOL0     H18181   6.851   0.184   8.525  1.7196 -0.2175 -0.5701
  135MOL0     H18182   6.724   0.100   8.447 -0.2388 -0.3834  2.4963
  135MOL0     H18183   6.722   0.401   8.508 -1.4660  0.0397  0.8644
  135MOL0     H18184   6.621   0.275   8.569  1.4191  2.0895  2.1598
  135MOL0     H18185   6.520   0.485   8.593 -2.5809  0.7417  1.5507
  135MOL0     H18186   6.339   0.635   8.616 -0.0634 -1.2423  0.6088
  135MOL0     H18187   5.949   0.791   8.145 -0.6006  1.6285 -1.0828
  135MOL0     H18188   5.720   0.895   8.153 -1.5651  0.8255  1.1457
  135MOL0     H18189   5.588   1.114   8.145 -2.2437 -1.6123 -1.6954
  135MOL0     H18190   5.530   0.987   8.259 -2.6250  1.2477  0.7507
  135MOL0     H18191   5.491   1.295   8.314 -1.1396  0.7060 -0.8594
  135MOL0     H18192   5.378   1.196   8.237  0.3585  2.7222 -0.0454
  135MOL0     H18193   5.373   1.052   8.457  1.7314  0.1050 -0.7093
  135MOL0     H18194   5.509   1.152   8.518  0.5701 -0.4853 -0.4685
  135MOL0     H18195   5.329   1.347   8.453 -1.1531  1.0091  2.0963
  135MOL0     H18196   5.345   1.270   8.612  1.1219 -1.3989 -0.8277
  135MOL0     H18197   5.130   1.135   8.552  0.3857 -1.4391 -0.5726
  135MOL0     H18198   5.156   1.169   8.385 -2.1644 -0.6720  0.4458
  135MOL0     H18199   5.085   1.380   8.600  4.0993 -2.0685  0.4905
  135MOL0     H18200   5.090   1.416   8.429 -2.7965 -0.6685 -0.6041
  135MOL0     H18201   4.887   1.235   8.560  2.4836  0.1123  2.1995
  135MOL0     H18202   4.902   1.257   8.380 -1.7241  0.2028 -0.3928
  135MOL0     H18203   4.822   1.475   8.581  0.9094 -2.7297  1.3477
  135MOL0     H18204   4.874   1.507   8.415  1.8239 -0.6811  0.4442
  135MOL0     H18205   5.857   1.107   8.502  3.5392 -0.2401  0.2237
  135MOL0     H18206   6.065   0.987   8.498  0.1917 -1.3790 -0.1983
  135MOL0     H18207   6.264   0.605   8.195  1.0929  1.9326  0.4698
  135MOL0     H18208   6.438   0.406   8.195  0.6143 -1.4526  0.6578
  135MOL0     H18209   6.090  -0.271   8.227 -0.2632 -1.8309 -0.8935
  135MOL0     H18210   5.870  -0.171   8.246  2.2102  1.5593  1.7144
  135MOL0     H18211   5.561   0.026   7.914  0.7524 -0.2033 -1.1105
  135MOL0     H18212   5.373   0.122   7.836 -1.5138 -0.5161  0.1473
  135MOL0     H18213   5.167   0.420   8.117  0.4195 -2.5632  1.2083
  135MOL0     H18214   5.086   0.458   7.960 -0.6951 -1.2944  2.1119
  135MOL0     H18215   5.306   0.487   7.853  1.4149 -1.6974  0.0588
  135MOL0     H18216   5.382   0.464   8.013 -0.6806 -2.4079 -1.9812
  135MOL0     H18217   5.198   0.698   7.939 -0.1718 -0.6344 -0.6254
  135MOL0     H18218   5.366   0.709   7.951 -0.8810  1.8582  0.2686
  135MOL0     H18219   5.215   0.610   8.210 -0.7443  1.5443  0.7609
  135MOL0     H18220   5.377   0.656   8.202 -2.2896 -0.1636  3.3675
  135MOL0     H18221   5.116   1.009   8.178 -0.0543  0.3234  1.4531
  135MOL0     H18222   5.306   0.310   8.226  2.2959  2.1322  0.4977
  135MOL0     H18223   5.443   0.258   8.401  0.8372  3.4308 -2.1813
  135MOL0     H18224   5.532   0.101   8.402 -0.2766 -0.4042 -0.1322
  135MOL0     H18225   5.615   0.249   8.354 -0.2515 -1.1186 -1.1141
  136MOL0     O18226   0.942   9.409   6.127 -0.4800  0.5311 -0.0606
  136MOL0     C18227   0.849   9.335   6.146  0.2245 -0.0010  0.4552
  136MOL0     O18228   0.858   9.221   6.219 -0.4269  0.2919 -0.1722
  136MOL0     C18229   0.993   9.183   6.260 -0.5405  0.4981  0.1310
  136MOL0     C18230   1.031   9.189   6.394 -0.5931  0.1326 -0.4242
  136MOL0     C18231   1.153   9.130   6.430 -0.0150 -0.6767 -0.4900
  136MOL0     C18232   1.234   9.070   6.342 -0.9865 -0.3745  0.4275
  136MOL0     O18233   1.352   8.999   6.367 -0.5525 -0.2828 -0.0719
  136MOL0     C18234   1.428   9.038   6.486  0.5055  0.3492  0.5926
  136MOL0     C18235   1.573   8.994   6.487  0.1962  0.3528  0.5878
  136MOL0     C18236   1.642   9.074   6.367 -0.3935  0.5005 -0.1435
  136MOL0     C18237   1.777   9.112   6.407 -0.8991 -0.1898  0.5775
  136MOL0     C18238   1.886   9.138   6.287  0.4819 -1.1982 -0.2775
  136MOL0     C18239   1.863   9.260   6.199 -0.1129 -0.8700  0.0511
  136MOL0     C18240   1.871   9.395   6.278  1.2099  0.6039  0.0201
  136MOL0     C18241   1.841   9.521   6.191 -0.6964  0.2316 -0.9765
  136MOL0     N18242   1.725   9.481   6.102 -0.8034 -0.6674  0.6070
  136MOL0     C18243   1.599   9.449   6.148  0.7384 -0.5027 -0.1413
  136MOL0     C18244   1.529   9.418   6.038 -0.4946  0.2417 -0.0405
  136MOL0     C18245   1.386   9.365   6.027  0.9628 -0.2411  0.0511
  136MOL0     C18246   1.287   9.434   6.128 -0.6570  0.3950 -0.7996
  136MOL0     C18247   1.274   9.584   6.092  1.0462  0.4819 -0.2022
  136MOL0     C18248   1.193   9.663   6.190  0.1083 -0.1016  0.4446
  136MOL0     O18249   1.229   9.642   6.328 -0.5586  0.1496  0.1718
  136MOL0     C18250   1.354   9.667   6.374  0.1592 -0.2787 -0.1193
  136MOL0     C18251   1.416   9.561   6.441  0.1447 -0.6583  0.0514
  136MOL0     C18252   1.539   9.576   6.502 -0.0096 -0.3741 -0.6375
  136MOL0     C18253   1.614   9.693   6.476  0.5209 -0.0148  0.6953
  136MOL0     C18254   1.756   9.712   6.538  0.1115  1.0268  0.7515
  136MOL0     O18255   1.793   9.609   6.628 -0.0148  0.0749 -0.0528
  136MOL0     C18256   1.920   9.613   6.682 -0.6220  0.4822 -0.5210
  136MOL0     C18257   2.000   9.490   6.654 -0.3276 -0.4396 -0.2334
  136MOL0     C18258   2.133   9.490   6.700 -0.5920 -0.4407  0.8151
  136MOL0     C18259   2.181   9.586   6.789 -0.0941 -0.6991  0.8711
  136MOL0     O18260   2.304   9.577   6.840  0.2336  0.2400  0.3119
  136MOL0     C18261   2.310   9.544   6.979  0.2615 -0.4403  0.0382
  136MOL0     C18262   2.346   9.669   7.057  0.1763 -0.5236  0.5356
  136MOL0     C18263   2.354   9.639   7.214  0.0286 -1.0231  0.2205
  136MOL0     C18264   2.463   9.547   7.262 -0.2530 -0.1118 -0.1864
  136MOL0     C18265   2.608   9.601   7.226 -0.3857  0.3621  0.1511
  136MOL0     C18266   2.702   9.488   7.272 -0.1937  0.1319  0.5881
  136MOL0     C18267   2.843   9.524   7.309  0.7118 -0.4967 -0.7536
  136MOL0     C18268   2.842   9.649   7.410 -0.1900  0.0690 -0.1442
  136MOL0    Cl18269   3.003   9.648   7.472 -0.7035  0.0349 -0.0330
  136MOL0     C18270   2.100   9.703   6.815  0.8361 -0.1401 -0.4867
  136MOL0     C18271   1.971   9.721   6.760 -0.6937 -0.6362 -0.0855
  136MOL0     O18272   1.819   9.814   6.509 -0.2782  0.1572 -0.7693
  136MOL0     C18273   1.564   9.790   6.394 -0.0272 -0.5039  0.2807
  136MOL0     C18274   1.432   9.786   6.346 -0.4934  0.0962 -0.2432
  136MOL0     N18275   1.620   9.429   5.927  0.1006 -0.0778 -0.3218
  136MOL0     N18276   1.739   9.463   5.965  0.3721  0.1843 -0.2907
  136MOL0     C18277   1.197   9.068   6.207  0.3167  0.0268 -0.3633
  136MOL0     C18278   1.078   9.128   6.163 -1.3819 -0.6666  0.2243
  136MOL0     C18279   0.722   9.354   6.065  0.5307  0.0798 -0.0010
  136MOL0     C18280   0.612   9.262   6.088 -0.1940 -0.5378  0.5860
  136MOL0     C18281   0.488   9.267   6.031 -0.4226 -0.1847  0.1289
  136MOL0     C18282   0.468   9.375   5.941  0.1472  0.7654 -0.2222
  136MOL0     O18283   0.353   9.380   5.867  0.0193  0.6122  0.1812
  136MOL0     C18284   0.236   9.312   5.919 -0.7466 -0.3826  0.3722
  136MOL0     C18285   0.182   9.368   6.052  0.2239  0.3889 -0.2892
  136MOL0     C18286   0.150   9.523   6.039 -0.3354  0.6035  0.1224
  136MOL0     C18287   0.100   9.564   6.176  0.2346 -0.1798  0.4504
  136MOL0     C18288   0.052   9.706   6.166 -0.8425  0.1537 -0.1983
  136MOL0     C18289   0.008   9.816   6.170 -0.4260 -0.6412 -0.5314
  136MOL0     C18290   0.569   9.463   5.909 -0.4373  0.3666 -0.0807
  136MOL0     C18291   0.699   9.448   5.965 -0.2512 -0.7110  0.3036
  136MOL0     C18292   0.804   9.548   5.927  0.1909  0.9420 -0.6045
  136MOL0     H18293   0.963   9.219   6.473  1.2343  0.0959  1.2403
  136MOL0     H18294   1.172   9.134   6.537 -0.5313  0.4327 -0.4172
  136MOL0     H18295   1.423   9.147   6.493  2.0594  0.5091 -0.3299
  136MOL0     H18296   1.376   8.990   6.570 -0.0981  2.6737  1.6255
  136MOL0     H18297   1.572   8.885   6.475 -0.1848  0.5157 -1.0091
  136MOL0     H18298   1.627   9.016   6.580 -0.0087  2.4810  0.2618
  136MOL0     H18299   1.592   9.169   6.347  1.1127  1.9279  2.2869
  136MOL0     H18300   1.641   9.012   6.277  0.7020  0.5560 -0.2131
  136MOL0     H18301   1.777   9.207   6.462  1.0681  1.0691 -1.4376
  136MOL0     H18302   1.820   9.038   6.475 -0.8351 -0.7506 -0.0678
  136MOL0     H18303   1.986   9.146   6.332  0.1577  0.0908  0.2775
  136MOL0     H18304   1.884   9.056   6.215  1.5531 -0.5813 -1.0611
  136MOL0     H18305   1.938   9.273   6.120  1.1355  2.1231  1.5625
  136MOL0     H18306   1.762   9.248   6.161 -0.0342  0.5788 -0.6920
  136MOL0     H18307   1.962   9.408   6.337 -0.3594  1.9913  2.3223
  136MOL0     H18308   1.788   9.395   6.349 -0.3221 -2.0017 -1.6019
  136MOL0     H18309   1.811   9.603   6.256  0.1438 -0.2878  0.1047
  136MOL0     H18310   1.935   9.548   6.140  0.1476  0.6499  0.7367
  136MOL0     H18311   1.562   9.459   6.249  1.5577 -0.9245  0.2028
  136MOL0     H18312   1.355   9.380   5.923  1.2300  2.0413  0.2563
  136MOL0     H18313   1.383   9.259   6.055 -0.1354  0.3478  2.4675
  136MOL0     H18314   1.189   9.386   6.137 -0.5109  0.3576  1.0793
  136MOL0     H18315   1.317   9.411   6.231 -2.4946  1.8978  0.1399
  136MOL0     H18316   1.218   9.584   5.998  0.1611  3.8371  0.1900
  136MOL0     H18317   1.369   9.633   6.071  1.7651 -0.3805  0.9016
  136MOL0     H18318   1.087   9.636   6.190 -0.0963  0.4457 -2.2736
  136MOL0     H18319   1.200   9.769   6.166  0.8380 -0.4024 -0.7853
  136MOL0     H18320   1.351   9.474   6.440  2.0609 -2.1700  0.6861
  136MOL0     H18321   1.588   9.499   6.561 -1.7829 -1.6924 -0.8242
  136MOL0     H18322   1.954   9.413   6.593 -1.4161  0.3697 -0.4825
  136MOL0     H18323   2.194   9.402   6.686 -0.7363 -0.3018 -0.9201
  136MOL0     H18324   2.210   9.508   7.004  0.8669 -1.0598  1.7459
  136MOL0     H18325   2.379   9.464   7.011  0.8616  1.5320  4.4705
  136MOL0     H18326   2.443   9.705   7.024 -0.9038  1.5930 -0.4964
  136MOL0     H18327   2.273   9.747   7.033 -0.2906 -0.6764  1.4180
  136MOL0     H18328   2.370   9.735   7.262  0.5267 -0.4699 -0.9981
  136MOL0     H18329   2.256   9.612   7.254 -0.8385  1.8971  0.3016
  136MOL0     H18330   2.449   9.448   7.217  4.1749 -1.2035  0.3375
  136MOL0     H18331   2.450   9.519   7.367 -2.4348  0.9420 -0.1173
  136MOL0     H18332   2.617   9.703   7.266 -2.6231  2.6018 -4.2024
  136MOL0     H18333   2.632   9.612   7.119  2.5529 -1.2251  0.5475
  136MOL0     H18334   2.658   9.440   7.360 -0.7634 -5.0563 -2.0898
  136MOL0     H18335   2.706   9.412   7.193 -2.7427  1.9635 -1.4882
  136MOL0     H18336   2.889   9.554   7.214 -1.1229  1.5468 -1.0873
  136MOL0     H18337   2.894   9.443   7.362 -0.0737 -0.8450 -0.5224
  136MOL0     H18338   2.825   9.741   7.353  0.0973  0.1345 -0.1278
  136MOL0     H18339   2.765   9.641   7.487  0.5223  1.1791  0.7136
  136MOL0     H18340   2.150   9.782   6.869  1.2322  0.8509 -2.2112
  136MOL0     H18341   1.909   9.798   6.803 -0.6698 -1.9543  2.4819
  136MOL0     H18342   1.621   9.883   6.394  1.5720 -1.3593  3.1729
  136MOL0     H18343   1.388   9.875   6.302  3.0417  1.2869 -1.7719
  136MOL0     H18344   1.268   9.024   6.137  1.5804  0.8845  0.3354
  136MOL0     H18345   1.051   9.117   6.059  0.3262 -1.1077 -0.2015
  136MOL0     H18346   0.631   9.177   6.153 -0.8343  0.6615  2.4147
  136MOL0     H18347   0.431   9.176   6.045  1.8033 -2.0463 -1.9538
  136MOL0     H18348   0.253   9.205   5.934  2.3913  0.1049  1.1145
  136MOL0     H18349   0.166   9.323   5.836 -0.3879 -0.6525  0.0264
  136MOL0     H18350   0.243   9.350   6.141 -1.1349  1.1209  0.8323
  136MOL0     H18351   0.093   9.312   6.081 -0.5687 -0.2734 -3.6099
  136MOL0     H18352   0.070   9.552   5.972 -0.4050 -0.1591 -0.1343
  136MOL0     H18353   0.239   9.581   6.011  1.0275 -1.9199 -1.1145
  136MOL0     H18354   0.006   9.510   6.192 -0.3538  0.5589 -0.3900
  136MOL0     H18355   0.183   9.547   6.245  0.1008  2.3134  1.3230
  136MOL0     H18356  -0.027   9.917   6.180  1.1739  0.2772 -3.2029
  136MOL0     H18357   0.566   9.532   5.825  1.4742  1.7614  0.9097
  136MOL0     H18358   0.877   9.494   5.866  0.5230 -1.3184  1.6520
  136MOL0     H18359   0.760   9.630   5.869 -2.5910 -0.0319 -0.0355
  136MOL0     H18360   0.856   9.589   6.014  1.4586 -0.0109 -0.8912
  137MOL0     O18361   5.539   2.520   0.817 -0.1398  0.0232  0.3784
  137MOL0     C18362   5.597   2.565   0.719 -0.2989  0.9814  0.9159
  137MOL0     O18363   5.534   2.577   0.596 -0.0854  0.3047  0.3499
  137MOL0     C18364   5.417   2.517   0.575 -0.4959  0.3270  0.3494
  137MOL0     C18365   5.385   2.417   0.475  0.2947  1.1934  0.0743
  137MOL0     C18366   5.256   2.367   0.461  1.3962  0.2298 -0.1195
  137MOL0     C18367   5.158   2.397   0.558 -0.0155 -0.5687  0.8427
  137MOL0     O18368   5.040   2.324   0.556 -0.7270 -0.5220  0.5945
  137MOL0     C18369   4.963   2.316   0.678 -0.3923  0.5160 -0.9042
  137MOL0     C18370   4.824   2.253   0.669 -0.2535  0.0861  0.7670
  137MOL0     C18371   4.740   2.297   0.552 -0.3186 -0.2987  0.1542
  137MOL0     C18372   4.604   2.234   0.578 -0.2954  0.0723  0.0871
  137MOL0     C18373   4.518   2.245   0.446  0.6293 -0.2986  0.6944
  137MOL0     C18374   4.483   2.395   0.402 -0.5330  0.3073  0.1103
  137MOL0     C18375   4.381   2.411   0.292  1.2859  0.3099 -0.0061
  137MOL0     C18376   4.314   2.551   0.281  0.3038  0.4660  0.5028
  137MOL0     N18377   4.399   2.661   0.259 -0.4876 -0.5124  0.5279
  137MOL0     C18378   4.493   2.704   0.341  0.1683 -0.2774  0.3188
  137MOL0     C18379   4.537   2.813   0.270 -0.1965 -0.1989 -0.1003
  137MOL0     C18380   4.645   2.901   0.320  0.0711  0.0369 -0.2858
  137MOL0     C18381   4.765   2.944   0.234  0.6845 -0.1338 -0.0990
  137MOL0     C18382   4.854   2.820   0.232 -0.0081  0.7880 -0.6352
  137MOL0     C18383   4.962   2.841   0.128  0.5479  0.3263  0.5502
  137MOL0     O18384   5.060   2.937   0.171  0.3126 -0.0286  0.0820
  137MOL0     C18385   5.167   2.966   0.099  0.3231 -1.4920  0.0250
  137MOL0     C18386   5.180   2.925  -0.038 -0.4382  0.0999 -0.9415
  137MOL0     C18387   5.292   2.948  -0.111  0.7375  0.2719  1.0043
  137MOL0     C18388   5.395   3.022  -0.059  0.1587 -1.3335  0.1218
  137MOL0     C18389   5.523   3.039  -0.132 -0.0314 -0.3789 -0.3298
  137MOL0     O18390   5.518   3.079  -0.259 -0.4774 -0.2195 -0.0124
  137MOL0     C18391   5.626   3.110  -0.336 -0.2626 -0.7527 -0.0435
  137MOL0     C18392   5.742   3.037  -0.331 -0.6898  0.6643  0.2919
  137MOL0     C18393   5.864   3.083  -0.403  0.4594  0.0432 -0.1004
  137MOL0     C18394   5.843   3.182  -0.501 -0.3080  0.3543 -0.6882
  137MOL0     O18395   5.951   3.190  -0.587  0.0680  0.5757  0.4918
  137MOL0     C18396   5.968   3.317  -0.663 -0.0303 -0.6461  0.1918
  137MOL0     C18397   6.026   3.404  -0.551 -0.6642 -0.0049  0.2698
  137MOL0     C18398   6.085   3.527  -0.621 -0.1042 -0.7620 -0.4471
  137MOL0     C18399   6.205   3.585  -0.542 -1.3297 -0.8143  0.8734
  137MOL0     C18400   6.172   3.630  -0.404 -0.3683 -1.0567  0.5242
  137MOL0     C18401   6.287   3.731  -0.361 -0.4276 -0.6037 -1.6711
  137MOL0     C18402   6.263   3.754  -0.215  0.3977  0.1822 -0.3201
  137MOL0     C18403   6.348   3.868  -0.164  0.4750  0.4048 -0.3200
  137MOL0    Cl18404   6.279   4.026  -0.223  0.3330  0.0280 -0.2586
  137MOL0     C18405   5.716   3.241  -0.519  0.5958 -0.7996 -0.8770
  137MOL0     C18406   5.609   3.207  -0.436 -0.0721  0.5967  0.3263
  137MOL0     O18407   5.624   3.023  -0.069 -0.5804 -0.0578  0.1365
  137MOL0     C18408   5.384   3.072   0.079  0.3543 -0.2503  0.4287
  137MOL0     C18409   5.269   3.049   0.152 -1.0930  0.6306 -0.3168
  137MOL0     N18410   4.467   2.839   0.156  0.1679 -0.1196  0.2309
  137MOL0     N18411   4.383   2.746   0.153  0.0612 -0.4026 -0.0402
  137MOL0     C18412   5.188   2.489   0.657  0.7383 -0.3430  0.4174
  137MOL0     C18413   5.307   2.552   0.661  0.0907 -0.0930 -0.1848
  137MOL0     C18414   5.749   2.586   0.735 -0.0239  0.7585 -0.5930
  137MOL0     C18415   5.803   2.551   0.864  1.5319  1.4014 -0.1766
  137MOL0     C18416   5.934   2.571   0.898  0.0929 -0.0489 -0.0936
  137MOL0     C18417   6.023   2.645   0.811 -0.1029  0.5138 -0.4498
  137MOL0     O18418   6.157   2.672   0.829  0.4261 -0.7900 -0.1409
  137MOL0     C18419   6.220   2.600   0.941 -0.6645 -0.2483 -0.0442
  137MOL0     C18420   6.366   2.638   0.936  0.3989 -0.8469  0.7840
  137MOL0     C18421   6.435   2.642   1.069  0.3342 -0.6343  0.1276
  137MOL0     C18422   6.577   2.690   1.068  0.3016 -0.2029  0.9717
  137MOL0     C18423   6.658   2.624   0.967  1.4213  0.2176  0.4461
  137MOL0     C18424   6.716   2.568   0.873  0.8554 -0.7669 -0.8049
  137MOL0     C18425   5.965   2.680   0.684  0.8108  0.2817 -0.2024
  137MOL0     C18426   5.840   2.649   0.646  0.0609  0.8221 -0.7353
  137MOL0     C18427   5.802   2.684   0.507 -1.0111 -0.3974 -0.1793
  137MOL0     H18428   5.469   2.378   0.417  0.1429  2.2364 -0.8999
  137MOL0     H18429   5.251   2.298   0.377  1.8633 -0.1075  0.1292
  137MOL0     H18430   5.016   2.257   0.754 -0.8391  1.8511  0.5003
  137MOL0     H18431   4.947   2.413   0.726 -1.5617  0.9809 -2.1759
  137MOL0     H18432   4.774   2.260   0.766  1.3968 -2.1823  1.8734
  137MOL0     H18433   4.836   2.145   0.654 -2.1833 -0.1365  0.6049
  137MOL0     H18434   4.791   2.288   0.455  1.3575  1.2611  0.8350
  137MOL0     H18435   4.730   2.406   0.555  1.8300 -0.0075 -0.9296
  137MOL0     H18436   4.618   2.129   0.603  1.1586 -0.5621 -3.0020
  137MOL0     H18437   4.560   2.296   0.657  0.6884 -0.9694  1.5056
  137MOL0     H18438   4.560   2.196   0.357  0.1610  1.3028 -0.4471
  137MOL0     H18439   4.424   2.193   0.470 -0.0843  0.7612  0.2742
  137MOL0     H18440   4.448   2.433   0.499  1.2178  1.0922  0.4728
  137MOL0     H18441   4.574   2.444   0.368 -0.2103 -1.5485 -1.9462
  137MOL0     H18442   4.304   2.337   0.318 -0.6234  2.2796  0.2326
  137MOL0     H18443   4.432   2.380   0.200 -1.6795 -2.0154 -1.0442
  137MOL0     H18444   4.232   2.546   0.209  1.8976  0.1893 -1.3781
  137MOL0     H18445   4.275   2.564   0.383  1.4017  0.2676  0.9717
  137MOL0     H18446   4.509   2.661   0.439 -0.2040 -1.4798 -0.1368
  137MOL0     H18447   4.590   2.986   0.361  2.7876  1.6710  0.2306
  137MOL0     H18448   4.681   2.864   0.416 -1.2588  0.2827  0.3309
  137MOL0     H18449   4.729   2.970   0.134 -2.0655 -2.0276  0.3064
  137MOL0     H18450   4.803   3.033   0.285 -2.1037 -0.0129  2.0070
  137MOL0     H18451   4.787   2.739   0.202 -0.2157  0.7992 -0.1995
  137MOL0     H18452   4.891   2.788   0.330 -1.2450 -0.1184 -0.4439
  137MOL0     H18453   4.927   2.871   0.028  2.6099 -0.4273 -0.4556
  137MOL0     H18454   5.016   2.746   0.124  1.4678  0.8459  0.5206
  137MOL0     H18455   5.108   2.855  -0.079  1.3436 -2.4872  0.0877
  137MOL0     H18456   5.302   2.893  -0.204  0.2916  0.2593  0.9663
  137MOL0     H18457   5.733   2.948  -0.270 -1.0071  0.0413 -0.6498
  137MOL0     H18458   5.964   3.040  -0.409  2.6054  4.6247 -3.8972
  137MOL0     H18459   6.039   3.299  -0.744  0.9977  1.5471  0.5454
  137MOL0     H18460   5.879   3.361  -0.709  1.2158 -1.3575 -3.2445
  137MOL0     H18461   5.954   3.441  -0.478  0.9825  0.3500  1.7917
  137MOL0     H18462   6.103   3.343  -0.503  1.4636  3.1262  1.1435
  137MOL0     H18463   6.119   3.500  -0.721 -0.0811  0.6497 -0.8404
  137MOL0     H18464   6.005   3.602  -0.628  0.1526 -0.6244 -2.2994
  137MOL0     H18465   6.246   3.669  -0.599  1.9502 -3.5359 -1.1630
  137MOL0     H18466   6.283   3.508  -0.544 -2.5032 -2.0231 -1.3798
  137MOL0     H18467   6.156   3.541  -0.342  1.2690  0.7332  3.8136
  137MOL0     H18468   6.079   3.687  -0.409  1.9341  3.0402  0.3701
  137MOL0     H18469   6.381   3.677  -0.375 -0.9654 -2.3226  0.6694
  137MOL0     H18470   6.285   3.825  -0.417  0.5573  0.6408  0.2561
  137MOL0     H18471   6.300   3.673  -0.151  0.2453  0.8592  0.6542
  137MOL0     H18472   6.158   3.767  -0.186  1.0585 -0.2271  2.5890
  137MOL0     H18473   6.345   3.873  -0.055 -0.0152 -0.3179 -0.2965
  137MOL0     H18474   6.452   3.859  -0.195  0.3562  2.5233 -1.5320
  137MOL0     H18475   5.690   3.309  -0.599 -0.7112  0.0012  0.2088
  137MOL0     H18476   5.515   3.260  -0.446 -0.8365 -1.1802 -3.4142
  137MOL0     H18477   5.465   3.130   0.123 -0.3694  0.4996  0.7804
  137MOL0     H18478   5.259   3.087   0.253  0.1703 -2.0777  0.9300
  137MOL0     H18479   5.119   2.520   0.735  0.7816 -1.7954  1.0745
  137MOL0     H18480   5.329   2.634   0.728 -0.8062 -1.2372  1.5917
  137MOL0     H18481   5.745   2.505   0.943  1.8899 -0.2505 -0.8451
  137MOL0     H18482   5.964   2.529   0.993 -2.4334 -0.9945  0.3655
  137MOL0     H18483   6.205   2.492   0.932  0.0599 -0.3092 -0.6239
  137MOL0     H18484   6.185   2.629   1.041 -4.4695 -2.3130 -0.6071
  137MOL0     H18485   6.375   2.736   0.888 -3.0681 -0.3281  0.9121
  137MOL0     H18486   6.410   2.571   0.861 -1.9039 -1.0376 -0.4907
  137MOL0     H18487   6.427   2.549   1.126  1.1796 -0.4107  0.6236
  137MOL0     H18488   6.381   2.705   1.141  1.7112  0.6428  0.0831
  137MOL0     H18489   6.584   2.797   1.044 -0.5648 -0.4641 -0.5824
  137MOL0     H18490   6.617   2.669   1.168 -1.7867 -0.2150  1.8680
  137MOL0     H18491   6.762   2.511   0.795 -0.3179 -0.7567 -1.5344
  137MOL0     H18492   6.038   2.722   0.615  2.5419 -0.8532  0.8561
  137MOL0     H18493   5.888   2.715   0.447  0.1945 -2.7246  0.2414
  137MOL0     H18494   5.747   2.604   0.457  2.4550 -3.3019  0.2664
  137MOL0     H18495   5.745   2.777   0.513  2.4564  2.0025 -1.1913
  138MOL0     O18496  10.094   1.727   4.863 -0.3750 -0.3699 -0.7547
  138MOL0     C18497  10.035   1.719   4.761  1.2623  0.3351 -0.4181
  138MOL0     O18498  10.091   1.707   4.641  0.0500  0.9030  0.8230
  138MOL0     C18499  10.225   1.726   4.613 -0.2116  0.6166 -0.0810
  138MOL0     C18500  10.326   1.679   4.700 -0.5091  0.8874  0.0766
  138MOL0     C18501  10.457   1.708   4.671  0.0972  0.3759 -1.0529
  138MOL0     C18502  10.490   1.794   4.564 -0.0761  0.4365 -0.2176
  138MOL0     O18503  10.615   1.847   4.552  0.3164  0.2687  0.2392
  138MOL0     C18504  10.600   1.995   4.569 -0.9611 -0.4604  0.2057
  138MOL0     C18505  10.741   2.072   4.599  0.6596 -0.4786 -0.0333
  138MOL0     C18506  10.833   1.987   4.692 -0.0089 -0.0357  0.0283
  138MOL0     C18507  10.779   1.944   4.831 -0.2526 -0.3601  0.2251
  138MOL0     C18508  10.739   2.064   4.925  0.0380 -0.0935  0.1373
  138MOL0     C18509  10.853   2.104   5.021 -0.3083 -0.0912  0.7059
  138MOL0     C18510  10.830   2.233   5.096 -0.7812 -0.3535 -0.4824
  138MOL0     C18511  10.957   2.241   5.197  0.2571  0.4211  0.1797
  138MOL0     N18512  11.062   2.317   5.131 -0.1605  0.1533  0.0012
  138MOL0     C18513  11.171   2.281   5.059 -1.2014  0.0534  0.6016
  138MOL0     C18514  11.231   2.397   5.009 -0.3360  1.3659  0.1074
  138MOL0     C18515  11.356   2.405   4.941  0.4031  0.0878 -0.7329
  138MOL0     C18516  11.476   2.404   5.034  0.1352 -0.9911  0.3375
  138MOL0     C18517  11.609   2.440   4.964 -0.3867 -0.2329  0.8940
  138MOL0     C18518  11.615   2.572   4.899 -0.2036 -0.2919 -0.1585
  138MOL0     O18519  11.718   2.566   4.797  0.0504 -0.2326  0.2966
  138MOL0     C18520  11.837   2.623   4.825 -0.3635 -0.0279  0.5059
  138MOL0     C18521  11.878   2.652   4.952 -0.1750 -1.0270 -0.6673
  138MOL0     C18522  12.013   2.698   4.976  0.2623  0.4373 -0.0352
  138MOL0     C18523  12.101   2.718   4.864 -0.9146 -0.1771  0.2322
  138MOL0     C18524  12.246   2.744   4.898  0.6039 -0.2421 -0.1264
  138MOL0     O18525  12.333   2.747   4.788  0.7439  0.6670 -0.5791
  138MOL0     C18526  12.462   2.716   4.806 -0.1903 -0.1965 -0.1850
  138MOL0     C18527  12.507   2.609   4.887  1.6075 -0.4874 -0.3525
  138MOL0     C18528  12.642   2.581   4.893 -0.1976  0.2096  0.1643
  138MOL0     C18529  12.737   2.654   4.825  0.0374  0.3080  0.3371
  138MOL0     O18530  12.868   2.612   4.834  0.1616  0.1864  0.6402
  138MOL0     C18531  12.962   2.712   4.815  1.1616 -0.0247  0.4494
  138MOL0     C18532  13.079   2.678   4.897  0.4625 -0.1980  0.2886
  138MOL0     C18533  13.191   2.776   4.873  0.3388  0.8661  0.7494
  138MOL0     C18534  13.293   2.768   4.990  0.5370  0.0470  0.1805
  138MOL0     C18535  13.399   2.874   4.964  0.1651  0.4414  0.1706
  138MOL0     C18536  13.491   2.848   4.843  0.7634 -0.5141  0.3680
  138MOL0     C18537  13.618   2.935   4.846 -0.0249  0.7674 -0.1575
  138MOL0     C18538  13.707   2.874   4.747 -0.2599 -0.0640  0.6118
  138MOL0    Cl18539  13.873   2.951   4.777 -0.2937 -0.1534 -0.2144
  138MOL0     C18540  12.688   2.768   4.744  0.5547  0.6719 -0.1243
  138MOL0     C18541  12.555   2.790   4.736  0.6426 -0.5631 -0.0574
  138MOL0     O18542  12.281   2.765   5.013  0.4253 -0.4155 -0.7588
  138MOL0     C18543  12.053   2.680   4.738 -0.5344 -0.1985 -0.1607
  138MOL0     C18544  11.921   2.648   4.714  0.2618  0.2381 -0.8977
  138MOL0     N18545  11.148   2.504   5.036 -0.7574 -0.0688 -0.9006
  138MOL0     N18546  11.055   2.449   5.112 -0.8047  0.1625  0.7235
  138MOL0     C18547  10.398   1.825   4.461 -0.2137 -0.2816  0.3842
  138MOL0     C18548  10.265   1.797   4.492 -0.5469 -0.8692  1.0382
  138MOL0     C18549   9.886   1.719   4.756  0.5023  0.1398  0.0662
  138MOL0     C18550   9.824   1.722   4.628 -1.3303  0.3638 -0.1278
  138MOL0     C18551   9.684   1.702   4.627 -0.2169  0.0553  0.1922
  138MOL0     C18552   9.601   1.674   4.738  0.8056  0.2609  0.8984
  138MOL0     O18553   9.466   1.640   4.730 -0.2058 -0.2239  0.2548
  138MOL0     C18554   9.435   1.510   4.768 -0.6261  1.4375 -0.4440
  138MOL0     C18555   9.297   1.492   4.834  0.0449 -0.4525  0.2384
  138MOL0     C18556   9.303   1.537   4.986  0.0538  0.1249 -0.3581
  138MOL0     C18557   9.168   1.536   5.054  0.6949 -0.0896 -0.0330
  138MOL0     C18558   9.083   1.649   5.006  0.3277 -0.0592 -0.4092
  138MOL0     C18559   9.000   1.733   4.966  0.3062 -0.0943 -0.4657
  138MOL0     C18560   9.665   1.684   4.868  1.0612  0.1067  0.6770
  138MOL0     C18561   9.802   1.704   4.873  0.1692 -0.0256  0.0992
  138MOL0     C18562   9.855   1.695   5.019 -0.0324  0.4715 -0.0014
  138MOL0     H18563  10.307   1.617   4.787 -1.3689 -1.1328 -1.4601
  138MOL0     H18564  10.532   1.671   4.740 -0.1531 -0.7187 -1.3459
  138MOL0     H18565  10.554   2.044   4.483  1.5694  2.7210  0.4708
  138MOL0     H18566  10.533   2.015   4.654 -3.2579  0.5419 -1.7365
  138MOL0     H18567  10.718   2.167   4.646  0.6731  0.0198 -1.0023
  138MOL0     H18568  10.795   2.097   4.507  0.2373 -0.3631 -0.2529
  138MOL0     H18569  10.918   2.048   4.724  0.7608 -2.2552  2.5233
  138MOL0     H18570  10.865   1.904   4.630  0.1566  1.4240 -1.9171
  138MOL0     H18571  10.698   1.874   4.808 -1.4002  1.2402 -0.8108
  138MOL0     H18572  10.846   1.879   4.887  0.6597 -1.1059 -1.6252
  138MOL0     H18573  10.705   2.150   4.867 -0.2022 -2.1728 -3.0375
  138MOL0     H18574  10.653   2.038   4.987  0.8215 -2.3158  0.3990
  138MOL0     H18575  10.869   2.019   5.088  0.7032 -0.3712  0.1333
  138MOL0     H18576  10.945   2.128   4.968  0.1509  0.6973  1.8267
  138MOL0     H18577  10.737   2.208   5.148 -0.4507 -3.4362 -1.1605
  138MOL0     H18578  10.823   2.326   5.040  2.3757  0.5255  0.3672
  138MOL0     H18579  10.921   2.299   5.283 -2.3055 -0.4061 -0.2686
  138MOL0     H18580  10.989   2.140   5.224 -2.3084 -0.4910  0.0673
  138MOL0     H18581  11.208   2.179   5.052 -1.1010  0.1376 -0.1686
  138MOL0     H18582  11.369   2.322   4.872 -1.0430 -1.3531  0.6674
  138MOL0     H18583  11.355   2.502   4.890  1.2638 -0.4508 -1.8034
  138MOL0     H18584  11.458   2.487   5.103  0.1255 -0.2657 -0.5123
  138MOL0     H18585  11.493   2.307   5.080  0.6784 -0.0838  2.1311
  138MOL0     H18586  11.628   2.361   4.892 -2.8179 -0.4376  0.3732
  138MOL0     H18587  11.688   2.445   5.040  1.2275 -0.1502 -0.7370
  138MOL0     H18588  11.625   2.662   4.961 -0.2551 -0.3745 -0.0284
  138MOL0     H18589  11.523   2.597   4.846 -0.4559  2.4659  1.3937
  138MOL0     H18590  11.824   2.629   5.043  1.3843 -1.8367  0.0842
  138MOL0     H18591  12.051   2.714   5.077 -0.6904 -3.5591  1.1455
  138MOL0     H18592  12.445   2.541   4.945  1.6849  0.5008  0.9624
  138MOL0     H18593  12.676   2.490   4.943 -0.0285 -1.2140 -2.3906
  138MOL0     H18594  12.987   2.716   4.709 -0.1409 -2.5434 -0.0318
  138MOL0     H18595  12.934   2.811   4.852  0.9582  0.2670 -0.4615
  138MOL0     H18596  13.050   2.674   5.002 -2.4298 -0.3534 -0.4455
  138MOL0     H18597  13.097   2.570   4.888  1.2760 -0.0088 -0.4498
  138MOL0     H18598  13.238   2.751   4.777  0.1848  1.0999  0.6093
  138MOL0     H18599  13.146   2.876   4.866 -4.2240 -1.0491 -1.2862
  138MOL0     H18600  13.342   2.671   4.981 -0.6174 -0.4774 -0.7189
  138MOL0     H18601  13.244   2.792   5.085  2.1460  2.1976  0.5479
  138MOL0     H18602  13.459   2.875   5.056 -0.0239 -1.9229  0.3834
  138MOL0     H18603  13.363   2.977   4.950  0.8323  0.5432 -0.9541
  138MOL0     H18604  13.528   2.745   4.844  1.5237 -0.2457  0.7237
  138MOL0     H18605  13.444   2.868   4.746  0.1502 -0.1574  0.7331
  138MOL0     H18606  13.669   2.933   4.942  1.6426  0.0061 -1.0263
  138MOL0     H18607  13.583   3.032   4.809 -1.0094 -0.4699 -2.7235
  138MOL0     H18608  13.716   2.766   4.759 -2.1895 -0.1417  1.7722
  138MOL0     H18609  13.677   2.884   4.642 -0.1100 -0.2731  0.5479
  138MOL0     H18610  12.755   2.838   4.695 -0.1664  2.9630  1.9839
  138MOL0     H18611  12.540   2.870   4.664 -0.4020 -0.9718 -0.3059
  138MOL0     H18612  12.112   2.693   4.648 -1.3842  2.1380 -0.4588
  138MOL0     H18613  11.891   2.631   4.611  0.1333  3.6924 -1.5795
  138MOL0     H18614  10.430   1.874   4.370  0.6256 -1.3275  0.0908
  138MOL0     H18615  10.194   1.823   4.415 -0.7759  0.1432  1.5684
  138MOL0     H18616   9.882   1.712   4.537 -1.3588 -5.0605  0.1414
  138MOL0     H18617   9.639   1.690   4.529  2.8709 -0.0123 -1.3262
  138MOL0     H18618   9.504   1.479   4.847 -1.1592 -0.2505 -0.6007
  138MOL0     H18619   9.451   1.448   4.679 -0.1640 -1.1574  1.3232
  138MOL0     H18620   9.262   1.389   4.839  0.8208 -0.8111 -1.3740
  138MOL0     H18621   9.230   1.557   4.776  0.9146  2.1523  1.9347
  138MOL0     H18622   9.357   1.632   4.990  3.6239 -1.7681 -0.1924
  138MOL0     H18623   9.363   1.466   5.044  0.6316  0.2854 -0.7553
  138MOL0     H18624   9.112   1.443   5.037  1.7110 -0.8861  0.8491
  138MOL0     H18625   9.203   1.543   5.157  0.1248 -0.6476  0.2113
  138MOL0     H18626   8.933   1.810   4.932  1.0622  0.4760 -0.6973
  138MOL0     H18627   9.605   1.662   4.956  0.9819 -3.2201 -0.0622
  138MOL0     H18628   9.934   1.769   5.030 -0.7318  1.4239 -1.1086
  138MOL0     H18629   9.779   1.740   5.084  1.6759  2.2815  0.8571
  138MOL0     H18630   9.880   1.591   5.039 -0.3220  0.2706 -0.6643
  139MOL0     O18631   1.627   9.146   7.439  0.3928  0.6386 -0.6057
  139MOL0     C18632   1.523   9.157   7.505 -0.3153  0.5099 -0.0228
  139MOL0     O18633   1.512   9.150   7.638 -0.1105 -0.4098  0.0432
  139MOL0     C18634   1.610   9.117   7.732 -0.2706  0.3107  0.1203
  139MOL0     C18635   1.585   9.160   7.868  0.4182  0.3438  0.5023
  139MOL0     C18636   1.676   9.119   7.971  0.8204 -0.2729 -0.0488
  139MOL0     C18637   1.796   9.064   7.943  0.8699 -0.4013 -0.7742
  139MOL0     O18638   1.892   9.035   8.039  0.2900 -0.3204  0.2564
  139MOL0     C18639   1.941   9.153   8.108 -0.6557 -0.9550 -0.0862
  139MOL0     C18640   2.006   9.263   8.027  0.0634  0.5136  0.1716
  139MOL0     C18641   2.086   9.368   8.106  0.7500  0.8183 -1.0289
  139MOL0     C18642   2.092   9.507   8.042  0.0147  0.7100  0.4277
  139MOL0     C18643   2.230   9.571   8.055 -0.9491 -0.2426  0.0825
  139MOL0     C18644   2.278   9.586   8.202 -0.3141 -0.1839 -0.3859
  139MOL0     C18645   2.408   9.671   8.209 -0.3709  0.2626  0.3977
  139MOL0     C18646   2.444   9.695   8.355  0.3395  0.0720 -0.3533
  139MOL0     N18647   2.569   9.774   8.363  0.3382 -0.0201  0.0198
  139MOL0     C18648   2.582   9.910   8.362  0.3633  0.4727 -0.6331
  139MOL0     C18649   2.710   9.931   8.335 -0.6998  0.0957 -0.2856
  139MOL0     C18650   2.775  10.065   8.315  0.0692 -0.4734  0.0871
  139MOL0     C18651   2.857  10.066   8.184  0.2525 -0.2357  0.7276
  139MOL0     C18652   2.967  10.171   8.169 -0.3588  0.2192 -0.3160
  139MOL0     C18653   3.043  10.168   8.037  0.1071  0.2496  0.7311
  139MOL0     O18654   3.138  10.273   8.044  0.2767  0.0442 -0.0815
  139MOL0     C18655   3.272  10.257   8.012 -0.4417  0.3744 -0.4290
  139MOL0     C18656   3.361  10.364   8.023  0.9373  0.2519  0.1946
  139MOL0     C18657   3.492  10.351   7.981 -0.3178 -1.7426 -0.1994
  139MOL0     C18658   3.546  10.234   7.927  0.6880 -0.5453  0.1677
  139MOL0     C18659   3.691  10.226   7.904  0.2592  0.3671 -0.5849
  139MOL0     O18660   3.742  10.103   7.858 -0.7666  0.5524  0.0970
  139MOL0     C18661   3.881  10.090   7.842  0.5996  0.1334  0.7552
  139MOL0     C18662   3.934  10.058   7.716 -0.4501 -0.5207 -0.7756
  139MOL0     C18663   4.071  10.054   7.704  1.0733 -0.4327 -0.6365
  139MOL0     C18664   4.160  10.076   7.816 -0.3090 -0.5395  0.7405
  139MOL0     O18665   4.292  10.071   7.814 -0.6705  0.3986  0.0882
  139MOL0     C18666   4.365  10.059   7.687 -0.4943 -0.2377  0.0804
  139MOL0     C18667   4.512  10.087   7.714  0.8080 -0.0953 -0.3269
  139MOL0     C18668   4.587  10.057   7.578 -0.6280  0.2130  0.2387
  139MOL0     C18669   4.739  10.074   7.596  0.3604 -0.1008 -0.3514
  139MOL0     C18670   4.817  10.072   7.471  0.0183 -0.6659  0.0434
  139MOL0     C18671   4.964  10.078   7.494  0.2650 -0.1989  0.3417
  139MOL0     C18672   5.023   9.948   7.553 -0.5328 -0.2333  0.4959
  139MOL0     C18673   5.169   9.953   7.569 -0.0658 -0.2807 -0.7524
  139MOL0    Cl18674   5.250   9.989   7.404  0.5331  0.3774  0.4870
  139MOL0     C18675   4.105  10.096   7.942  0.6766 -0.3406 -0.5290
  139MOL0     C18676   3.963  10.106   7.952  0.1450 -0.8113 -0.1563
  139MOL0     O18677   3.756  10.330   7.908  0.4838 -0.1607  0.9221
  139MOL0     C18678   3.458  10.131   7.896 -0.7459  0.2485 -0.5493
  139MOL0     C18679   3.325  10.145   7.941  0.0313  0.0980 -0.4714
  139MOL0     N18680   2.779   9.810   8.329 -0.2548 -0.5381 -0.0898
  139MOL0     N18681   2.692   9.718   8.350  0.1806 -0.1607  0.3967
  139MOL0     C18682   1.816   9.025   7.819  0.2620  0.6323  0.3930
  139MOL0     C18683   1.731   9.052   7.711  0.2898  0.0926  0.7459
  139MOL0     C18684   1.396   9.193   7.429  0.4462 -0.5441 -0.4995
  139MOL0     C18685   1.282   9.126   7.487  0.4687 -0.4663  0.3149
  139MOL0     C18686   1.157   9.113   7.412 -0.2464  0.7467  0.1967
  139MOL0     C18687   1.148   9.165   7.290 -0.8612 -0.1517 -0.0603
  139MOL0     O18688   1.037   9.151   7.210  0.8991 -0.3211 -0.1506
  139MOL0     C18689   0.899   9.160   7.268 -0.6454 -1.0524  0.1840
  139MOL0     C18690   0.841   9.285   7.197  1.1881  0.0566 -0.0951
  139MOL0     C18691   0.699   9.331   7.246 -0.0731  0.1358 -0.7670
  139MOL0     C18692   0.633   9.445   7.170 -0.3320  0.3825  0.4877
  139MOL0     C18693   0.708   9.569   7.171  0.1975  0.2519  0.2122
  139MOL0     C18694   0.763   9.679   7.184 -0.3336  0.2338  0.6022
  139MOL0     C18695   1.257   9.244   7.238  0.1843 -0.1086  0.1088
  139MOL0     C18696   1.380   9.246   7.302  0.3975  0.0470 -0.2292
  139MOL0     C18697   1.498   9.303   7.223 -0.0626  0.7014 -0.4583
  139MOL0     H18698   1.500   9.223   7.894 -0.2183 -0.2094 -0.2135
  139MOL0     H18699   1.645   9.137   8.074 -0.9249 -0.3651 -0.5328
  139MOL0     H18700   1.865   9.205   8.165  2.7565  1.1638  2.9314
  139MOL0     H18701   2.022   9.126   8.176 -1.6029  2.2291  2.5747
  139MOL0     H18702   1.934   9.308   7.959  0.7876  0.6983 -0.4925
  139MOL0     H18703   2.080   9.207   7.969 -1.9477 -1.1714 -0.8523
  139MOL0     H18704   2.188   9.329   8.110  0.4639  0.1245 -0.0356
  139MOL0     H18705   2.056   9.372   8.212  0.8969  0.0693 -0.9522
  139MOL0     H18706   2.069   9.510   7.935 -2.6331  1.2486  0.9311
  139MOL0     H18707   2.014   9.567   8.089 -2.2730 -2.0268  0.3704
  139MOL0     H18708   2.306   9.515   8.000 -2.3454 -0.6363 -1.5547
  139MOL0     H18709   2.227   9.662   7.995 -0.1751 -1.3204 -1.6901
  139MOL0     H18710   2.200   9.637   8.258  1.7334  2.5901  0.1579
  139MOL0     H18711   2.286   9.494   8.261 -0.7934  0.1982  0.2818
  139MOL0     H18712   2.395   9.765   8.155  1.8449  0.6893  0.4953
  139MOL0     H18713   2.490   9.616   8.162 -1.8027 -0.8549 -0.8964
  139MOL0     H18714   2.369   9.749   8.413 -1.0287 -2.2622  0.1818
  139MOL0     H18715   2.460   9.595   8.396 -1.0612  0.2975  0.8329
  139MOL0     H18716   2.505   9.986   8.375 -3.4777 -3.1954  0.0421
  139MOL0     H18717   2.700  10.144   8.304  0.5062 -0.2527 -1.6428
  139MOL0     H18718   2.841  10.086   8.400  1.2360  1.9947 -1.3519
  139MOL0     H18719   2.912   9.973   8.165  0.7292 -0.0408  1.1240
  139MOL0     H18720   2.783  10.074   8.104  0.3625  3.5859  0.8266
  139MOL0     H18721   3.038  10.141   8.247  0.8613 -1.1094 -1.8713
  139MOL0     H18722   2.931  10.270   8.200  1.8296 -0.1828  4.3545
  139MOL0     H18723   2.970  10.181   7.957  0.9811  0.3271 -0.0659
  139MOL0     H18724   3.101  10.077   8.018  2.1115  1.8764 -1.3885
  139MOL0     H18725   3.336  10.459   8.068  0.7176 -0.5230  1.7671
  139MOL0     H18726   3.550  10.439   8.010 -2.6375 -0.5358  1.0592
  139MOL0     H18727   3.868  10.040   7.632  1.0923  2.5340 -2.8199
  139MOL0     H18728   4.112  10.017   7.611  1.4595 -0.1609 -0.5799
  139MOL0     H18729   4.363   9.957   7.650 -0.2606  0.1589 -1.0665
  139MOL0     H18730   4.332  10.128   7.609  2.3034  1.5518  0.3190
  139MOL0     H18731   4.513  10.187   7.756 -0.9637 -0.4630  0.6558
  139MOL0     H18732   4.550  10.023   7.794  0.3060  0.5057  0.4005
  139MOL0     H18733   4.568   9.952   7.556  1.7141 -0.6666  1.9626
  139MOL0     H18734   4.555  10.123   7.497  0.0644 -0.8705 -0.9399
  139MOL0     H18735   4.778  10.004   7.671 -1.3322 -1.0015 -0.2702
  139MOL0     H18736   4.756  10.176   7.634  2.2001  0.2640 -1.9568
  139MOL0     H18737   4.780  10.156   7.412 -0.7523  0.5157  2.1167
  139MOL0     H18738   4.789   9.978   7.422 -1.2659 -0.3235  0.0666
  139MOL0     H18739   4.999  10.094   7.392 -0.2546 -0.3439  0.1433
  139MOL0     H18740   4.988  10.167   7.553 -3.3426  0.0349  1.6920
  139MOL0     H18741   5.006   9.868   7.481  2.8377 -0.4676 -0.2266
  139MOL0     H18742   4.978   9.924   7.650 -1.5622  2.6264  0.8308
  139MOL0     H18743   5.205  10.023   7.645 -0.2797 -0.3422 -0.5929
  139MOL0     H18744   5.200   9.853   7.601  1.3729 -0.1053 -1.5479
  139MOL0     H18745   4.170  10.124   8.024 -0.3785  1.5630 -0.2763
  139MOL0     H18746   3.915  10.145   8.041  0.6459 -2.0269  0.6669
  139MOL0     H18747   3.499  10.034   7.868  2.3937  1.1026  0.6926
  139MOL0     H18748   3.271  10.052   7.922 -1.5967  0.5136  1.7312
  139MOL0     H18749   1.912   8.975   7.810  0.5385  1.2405 -0.1142
  139MOL0     H18750   1.764   9.018   7.613  4.1697  0.8257  1.6321
  139MOL0     H18751   1.290   9.079   7.584  0.3606 -0.8135  0.1583
  139MOL0     H18752   1.073   9.057   7.453 -1.4007  0.8192 -1.9363
  139MOL0     H18753   0.894   9.185   7.375  1.1691 -0.4609  0.1669
  139MOL0     H18754   0.847   9.072   7.228  0.5456 -1.2066 -1.0755
  139MOL0     H18755   0.826   9.258   7.092  0.8685 -1.0953  0.2315
  139MOL0     H18756   0.916   9.365   7.204  2.0199 -0.5924 -1.2022
  139MOL0     H18757   0.705   9.369   7.349  0.3009 -0.3296 -0.6146
  139MOL0     H18758   0.639   9.240   7.244  0.5944 -0.2936 -1.2998
  139MOL0     H18759   0.619   9.414   7.067 -0.4975  1.5034  0.1569
  139MOL0     H18760   0.528   9.460   7.195 -0.2583 -2.0930  2.7854
  139MOL0     H18761   0.824   9.767   7.177  1.9289 -1.2628  0.4984
  139MOL0     H18762   1.243   9.288   7.140  0.5423 -2.0972 -0.8818
  139MOL0     H18763   1.573   9.226   7.203  0.9234  1.8699 -1.3809
  139MOL0     H18764   1.470   9.348   7.128 -0.4794 -2.9242 -2.2182
  139MOL0     H18765   1.557   9.376   7.278  0.4693 -0.3898  0.4581
  140MOL0     O18766   3.527   4.395   4.081  0.3211  0.3461  0.5769
  140MOL0     C18767   3.619   4.473   4.053  0.0163 -0.3605  0.5618
  140MOL0     O18768   3.615   4.613   4.039 -0.5341  0.5592  0.2442
  140MOL0     C18769   3.493   4.657   4.091 -0.0283 -0.0130 -0.0249
  140MOL0     C18770   3.479   4.721   4.214  0.9725 -0.2811 -0.5968
  140MOL0     C18771   3.355   4.778   4.252 -0.2292  0.3797 -0.4331
  140MOL0     C18772   3.247   4.776   4.163  0.7000  0.1650  0.3780
  140MOL0     O18773   3.122   4.843   4.177 -0.4818  0.4200 -0.1065
  140MOL0     C18774   3.097   4.911   4.305 -0.4727 -0.5003 -0.1774
  140MOL0     C18775   2.961   4.979   4.307  0.0559  0.0506  0.7023
  140MOL0     C18776   2.852   4.880   4.314  0.0099  0.0996 -0.1185
  140MOL0     C18777   2.715   4.951   4.324 -0.1290  0.1958 -0.8679
  140MOL0     C18778   2.603   4.864   4.373 -0.5014 -0.0147  0.0465
  140MOL0     C18779   2.474   4.921   4.331  1.0766  0.0899  0.9213
  140MOL0     C18780   2.349   4.865   4.406 -0.4840  0.5507  0.4830
  140MOL0     C18781   2.307   4.922   4.547  1.0800  0.5877  0.0192
  140MOL0     N18782   2.178   4.860   4.578  0.0160  0.5922 -0.5014
  140MOL0     C18783   2.057   4.903   4.524  0.3056 -0.2343 -0.5468
  140MOL0     C18784   1.971   4.817   4.580  0.5611  0.0879 -0.0226
  140MOL0     C18785   1.812   4.827   4.578 -0.4092 -0.4937  0.4001
  140MOL0     C18786   1.741   4.828   4.443 -0.1685 -0.2840  0.0593
  140MOL0     C18787   1.783   4.734   4.330  0.7558  0.2359  0.2561
  140MOL0     C18788   1.784   4.590   4.384 -0.2209 -0.7586 -0.4271
  140MOL0     O18789   1.836   4.507   4.281  1.1089 -0.4697  0.1010
  140MOL0     C18790   1.971   4.478   4.263 -0.1182 -0.3834  0.0014
  140MOL0     C18791   2.004   4.410   4.137  0.2383  0.5233  0.6007
  140MOL0     C18792   2.139   4.383   4.109 -0.3978 -0.0175  0.5159
  140MOL0     C18793   2.248   4.423   4.193  0.2021 -0.0583  1.2966
  140MOL0     C18794   2.387   4.408   4.150 -0.4679  0.0071  0.3042
  140MOL0     O18795   2.480   4.470   4.226 -0.6092  0.3962  0.0475
  140MOL0     C18796   2.607   4.448   4.200 -0.0283 -0.7082 -0.1208
  140MOL0     C18797   2.685   4.346   4.257  1.2579  0.4416  0.2004
  140MOL0     C18798   2.822   4.347   4.242  0.2822  0.2559  0.1633
  140MOL0     C18799   2.892   4.438   4.165 -0.1144 -0.6887  0.2809
  140MOL0     O18800   3.032   4.430   4.141  1.2070 -0.2075 -0.2147
  140MOL0     C18801   3.117   4.330   4.207  0.6496  0.0325 -0.4238
  140MOL0     C18802   3.097   4.175   4.166 -0.5004 -0.2423 -0.1243
  140MOL0     C18803   3.236   4.101   4.189  0.1297  0.1244  0.1481
  140MOL0     C18804   3.271   4.098   4.334  1.0634 -0.8317  0.8757
  140MOL0     C18805   3.413   4.053   4.341  0.0923 -0.3096  0.1389
  140MOL0     C18806   3.465   4.040   4.483  0.0210 -0.6213 -0.7047
  140MOL0     C18807   3.405   3.934   4.569  0.6332  0.1990  0.0151
  140MOL0     C18808   3.485   3.910   4.695 -0.5647 -0.5460  0.1664
  140MOL0    Cl18809   3.497   4.055   4.796  0.1339 -0.4067 -0.1570
  140MOL0     C18810   2.809   4.541   4.103  0.8871 -0.4213 -0.2743
  140MOL0     C18811   2.671   4.549   4.127 -0.2022  0.6510 -0.0424
  140MOL0     O18812   2.404   4.349   4.040 -0.5522  0.1987 -0.5123
  140MOL0     C18813   2.212   4.493   4.305 -0.6026  0.0905  0.2933
  140MOL0     C18814   2.080   4.521   4.341 -1.0889 -0.0451 -0.2860
  140MOL0     N18815   2.044   4.733   4.674 -0.1406  0.2041  0.5270
  140MOL0     N18816   2.165   4.766   4.670 -0.3657  0.0425 -0.4930
  140MOL0     C18817   3.265   4.723   4.036  0.1423 -0.1057 -0.4329
  140MOL0     C18818   3.386   4.669   4.002  0.2375  0.4386  0.1061
  140MOL0     C18819   3.744   4.423   4.009 -1.0224  0.2444 -0.6531
  140MOL0     C18820   3.851   4.513   3.979  1.1491  0.6099  0.0677
  140MOL0     C18821   3.984   4.472   3.952  0.3312 -1.5673  0.2623
  140MOL0     C18822   4.008   4.338   3.941 -0.1871 -0.2186  0.3567
  140MOL0     O18823   4.129   4.286   3.917  0.3277 -0.9865  0.8001
  140MOL0     C18824   4.249   4.363   3.900  0.1384  0.1333 -0.2718
  140MOL0     C18825   4.368   4.265   3.898  0.6678 -0.1449  0.4155
  140MOL0     C18826   4.493   4.342   3.876  0.3493 -0.3843 -0.7331
  140MOL0     C18827   4.610   4.240   3.846 -0.0842 -0.5504  0.0040
  140MOL0     C18828   4.637   4.157   3.969  0.5778 -0.4760  0.4715
  140MOL0     C18829   4.638   4.089   4.069 -0.3773  0.1559  0.7448
  140MOL0     C18830   3.900   4.243   3.955 -0.0430  0.4411 -0.7040
  140MOL0     C18831   3.765   4.282   3.990 -0.8260  1.2458  0.5547
  140MOL0     C18832   3.676   4.159   4.002  0.4244 -0.0582 -0.2562
  140MOL0     H18833   3.564   4.714   4.280  0.9418 -4.2137 -0.7762
  140MOL0     H18834   3.343   4.835   4.344 -0.6517  2.2020 -1.5596
  140MOL0     H18835   3.110   4.833   4.380 -2.5053  0.7355  1.6003
  140MOL0     H18836   3.180   4.981   4.318  0.7938 -2.2596  1.7582
  140MOL0     H18837   2.938   5.036   4.217 -2.2471 -0.5570  0.8413
  140MOL0     H18838   2.957   5.051   4.389  1.9290  2.7304 -1.3709
  140MOL0     H18839   2.876   4.809   4.394 -1.0785  1.3516  1.3937
  140MOL0     H18840   2.841   4.821   4.223 -1.3027 -2.6339  1.6601
  140MOL0     H18841   2.721   5.039   4.388 -1.3990 -0.8527  0.8013
  140MOL0     H18842   2.685   4.987   4.225 -1.1175 -0.2945 -0.7641
  140MOL0     H18843   2.605   4.761   4.334 -0.2947 -0.0875  0.2486
  140MOL0     H18844   2.590   4.851   4.480 -1.4302 -1.8057 -0.2350
  140MOL0     H18845   2.479   5.030   4.328 -5.1746  0.7226 -1.5829
  140MOL0     H18846   2.454   4.896   4.227  1.8620 -0.0304  0.7915
  140MOL0     H18847   2.357   4.756   4.411 -1.0903  0.3624 -1.7929
  140MOL0     H18848   2.260   4.888   4.347 -1.7764 -0.9182  1.7641
  140MOL0     H18849   2.378   4.898   4.627 -0.9742  0.9137  2.0398
  140MOL0     H18850   2.298   5.031   4.543 -1.5075  0.4444  0.6490
  140MOL0     H18851   2.031   4.978   4.450 -1.0292  1.2323  1.3152
  140MOL0     H18852   1.774   4.750   4.645 -1.1262 -0.5099 -0.0189
  140MOL0     H18853   1.784   4.922   4.626  0.6961 -0.2794  0.6487
  140MOL0     H18854   1.635   4.808   4.458 -0.5369 -0.1155 -1.9294
  140MOL0     H18855   1.746   4.930   4.403  2.5692  0.0771  1.1320
  140MOL0     H18856   1.883   4.758   4.293  0.6918  1.4832  0.8620
  140MOL0     H18857   1.703   4.742   4.255  1.1326  0.1552 -0.1566
  140MOL0     H18858   1.686   4.550   4.411 -0.6697  0.2006 -0.5995
  140MOL0     H18859   1.841   4.584   4.478 -3.1413  0.6692  1.5724
  140MOL0     H18860   1.931   4.387   4.059  0.1713 -0.9802  1.0831
  140MOL0     H18861   2.164   4.329   4.019 -1.2878  1.4382 -0.6466
  140MOL0     H18862   2.638   4.273   4.322  0.8805  0.6675  0.1848
  140MOL0     H18863   2.865   4.261   4.294 -1.3293 -0.9258 -0.3495
  140MOL0     H18864   3.220   4.353   4.179 -0.1212  0.0844 -3.4985
  140MOL0     H18865   3.099   4.346   4.314 -2.5590 -0.1675 -0.8306
  140MOL0     H18866   3.018   4.124   4.221  0.3314 -1.6566 -0.1942
  140MOL0     H18867   3.088   4.170   4.057  4.7207  0.2961 -0.8350
  140MOL0     H18868   3.229   3.996   4.161 -3.5841  0.9374 -2.8583
  140MOL0     H18869   3.318   4.147   4.134  0.5243 -1.3216 -0.5120
  140MOL0     H18870   3.197   4.033   4.381  1.1132 -0.7561  1.0593
  140MOL0     H18871   3.265   4.198   4.380  1.1731 -0.8277  0.8817
  140MOL0     H18872   3.472   4.134   4.297 -1.0902  2.4017  3.1406
  140MOL0     H18873   3.428   3.955   4.294 -0.1910  0.6363 -2.0162
  140MOL0     H18874   3.571   4.018   4.467  0.5271  0.0971  1.4564
  140MOL0     H18875   3.450   4.134   4.536  3.7109 -0.1715 -0.1457
  140MOL0     H18876   3.407   3.846   4.503 -0.9138 -1.4104  1.9712
  140MOL0     H18877   3.298   3.951   4.585  0.3060 -0.2627 -1.4923
  140MOL0     H18878   3.426   3.835   4.749 -1.9974 -1.0493 -1.9813
  140MOL0     H18879   3.581   3.868   4.666  0.7090  1.5751  1.0548
  140MOL0     H18880   2.861   4.613   4.040  1.1318  0.1687  0.5739
  140MOL0     H18881   2.609   4.630   4.091 -2.6270 -1.1365 -0.1324
  140MOL0     H18882   2.294   4.528   4.367 -0.5483  0.2868  0.1110
  140MOL0     H18883   2.059   4.585   4.427 -0.5627  1.9576 -1.5763
  140MOL0     H18884   3.191   4.723   3.956 -0.9346  0.1048  0.5289
  140MOL0     H18885   3.410   4.640   3.900  0.5028 -2.2646  0.8828
  140MOL0     H18886   3.829   4.619   3.990 -2.2134 -0.1005  1.5684
  140MOL0     H18887   4.061   4.544   3.926 -1.1188 -0.1773 -0.3536
  140MOL0     H18888   4.259   4.441   3.976 -1.5058  1.8560 -1.7345
  140MOL0     H18889   4.248   4.413   3.803 -0.9708 -2.0907 -1.4881
  140MOL0     H18890   4.352   4.188   3.822  1.9591 -1.7920  1.7559
  140MOL0     H18891   4.377   4.205   3.989 -0.4671 -0.0846  0.5875
  140MOL0     H18892   4.507   4.408   3.963 -1.4536  0.1268 -0.7988
  140MOL0     H18893   4.489   4.405   3.787 -6.0601  0.0873 -0.5496
  140MOL0     H18894   4.585   4.168   3.768  1.3183 -0.2604 -0.7419
  140MOL0     H18895   4.694   4.303   3.819  0.1513  0.0452  1.9755
  140MOL0     H18896   4.620   4.022   4.151 -0.1610  1.7100  2.1210
  140MOL0     H18897   3.923   4.137   3.942 -0.3482  0.5627 -2.5898
  140MOL0     H18898   3.712   4.068   3.953 -0.4981 -0.9599  0.6737
  140MOL0     H18899   3.659   4.133   4.107  1.6632  2.5102  0.6520
  140MOL0     H18900   3.579   4.172   3.953  0.8336 -0.4074 -1.1796
  141MOL0     O18901   8.173  10.684   6.237 -0.2112 -0.0999 -0.6660
  141MOL0     C18902   8.151  10.758   6.144  0.5589 -0.1342  0.9244
  141MOL0     O18903   8.210  10.878   6.123 -0.0932  0.0935 -0.6675
  141MOL0     C18904   8.336  10.885   6.179  0.6860  0.2277  1.4318
  141MOL0     C18905   8.439  10.781   6.164  0.2454 -0.3202 -0.7370
  141MOL0     C18906   8.565  10.798   6.228  0.3856  0.4796 -0.0931
  141MOL0     C18907   8.596  10.907   6.305  0.0394  0.1340  0.3649
  141MOL0     O18908   8.722  10.912   6.370  1.4402  0.0410 -0.2856
  141MOL0     C18909   8.822  10.972   6.284  0.1837  0.5937  0.6435
  141MOL0     C18910   8.958  10.961   6.351 -0.8729 -0.0356  0.1234
  141MOL0     C18911   9.064  11.041   6.279 -0.3490  0.6178 -0.5474
  141MOL0     C18912   9.202  11.040   6.348 -0.4992 -0.2887 -0.5384
  141MOL0     C18913   9.278  11.171   6.323  0.3966 -0.0274 -0.5642
  141MOL0     C18914   9.361  11.165   6.196  0.7036 -0.5467  0.0457
  141MOL0     C18915   9.456  11.282   6.176 -0.3406  0.3471 -0.1910
  141MOL0     C18916   9.380  11.406   6.162 -0.2192 -0.0425  0.6665
  141MOL0     N18917   9.466  11.514   6.106 -0.4743  0.1687  0.3773
  141MOL0     C18918   9.583  11.548   6.165 -0.2295  0.4695 -0.7355
  141MOL0     C18919   9.621  11.653   6.086  0.5109 -0.0992  0.4692
  141MOL0     C18920   9.758  11.712   6.112  0.1926 -0.2448  0.3152
  141MOL0     C18921   9.868  11.625   6.053  0.3408  0.3909 -0.3468
  141MOL0     C18922   9.897  11.649   5.908  0.8494  0.0698  0.2343
  141MOL0     C18923  10.016  11.580   5.852 -0.1036 -0.1675 -0.5467
  141MOL0     O18924  10.135  11.619   5.908 -0.8909  0.2371 -0.4720
  141MOL0     C18925  10.215  11.715   5.841  1.0228 -0.2407  0.9333
  141MOL0     C18926  10.170  11.792   5.736  0.2421 -0.4135 -0.4161
  141MOL0     C18927  10.253  11.881   5.671  1.2139 -0.6081 -0.5300
  141MOL0     C18928  10.391  11.891   5.706  0.0028 -0.9616 -0.5498
  141MOL0     C18929  10.483  11.969   5.625 -0.0908 -0.0993  0.0926
  141MOL0     O18930  10.611  11.974   5.665 -0.5095  0.4276 -0.6367
  141MOL0     C18931  10.709  12.030   5.587 -0.0651  1.1532  0.6454
  141MOL0     C18932  10.712  12.023   5.446  0.1997 -0.1706  0.2467
  141MOL0     C18933  10.810  12.071   5.363  0.3440 -1.1296 -0.2897
  141MOL0     C18934  10.917  12.143   5.422  0.1859 -0.3453 -0.6202
  141MOL0     O18935  11.015  12.184   5.338  0.1228 -0.0649 -0.1410
  141MOL0     C18936  11.116  12.279   5.386 -0.2057  0.6738  0.9392
  141MOL0     C18937  11.179  12.327   5.254 -0.3050 -1.5071 -0.4093
  141MOL0     C18938  11.285  12.441   5.281 -0.4537 -0.4854  0.8753
  141MOL0     C18939  11.312  12.509   5.142  0.2681 -0.1083 -0.2294
  141MOL0     C18940  11.401  12.631   5.142  0.8631 -0.3202 -0.1727
  141MOL0     C18941  11.449  12.671   5.005  0.1744  0.1254 -0.2426
  141MOL0     C18942  11.509  12.812   5.032 -0.7208  0.6753  0.5284
  141MOL0     C18943  11.570  12.868   4.906 -0.4137  0.0483 -0.5030
  141MOL0    Cl18944  11.720  12.786   4.880  0.0919 -0.1017 -0.1442
  141MOL0     C18945  10.924  12.149   5.564 -0.2304 -0.1437 -0.7899
  141MOL0     C18946  10.824  12.091   5.646  0.4162  0.3833 -0.0110
  141MOL0     O18947  10.429  12.046   5.546  0.6999  1.3683 -0.0015
  141MOL0     C18948  10.433  11.812   5.812 -0.4912 -0.4360 -0.5882
  141MOL0     C18949  10.346  11.733   5.883 -0.1501 -0.1010  0.6068
  141MOL0     N18950   9.525  11.679   5.988 -0.3798  0.9617 -0.2117
  141MOL0     N18951   9.430  11.591   6.000 -0.9587  0.1936  0.3672
  141MOL0     C18952   8.498  11.003   6.322 -0.5065  0.4598 -0.2715
  141MOL0     C18953   8.376  10.999   6.259  0.3143 -0.1030 -0.0596
  141MOL0     C18954   8.036  10.717   6.053 -0.0724 -1.1134  0.0781
  141MOL0     C18955   8.037  10.796   5.938 -0.2214 -0.0475 -0.4742
  141MOL0     C18956   7.947  10.760   5.831 -0.4000 -0.8567  0.2223
  141MOL0     C18957   7.855  10.658   5.844  0.1146  0.7629  0.6665
  141MOL0     O18958   7.777  10.620   5.737 -0.1875 -0.0501  0.2939
  141MOL0     C18959   7.805  10.670   5.609  0.7569 -0.0261 -0.9413
  141MOL0     C18960   7.690  10.624   5.518 -1.0312 -0.9522 -0.1039
  141MOL0     C18961   7.723  10.487   5.469 -0.9800 -0.2407 -0.1640
  141MOL0     C18962   7.804  10.480   5.337  0.7245 -0.0211 -0.2572
  141MOL0     C18963   7.944  10.484   5.363 -0.3106  0.0590 -0.4264
  141MOL0     C18964   8.065  10.487   5.396 -0.4062 -0.7892  0.0281
  141MOL0     C18965   7.850  10.591   5.973  0.0663 -0.0856 -0.4648
  141MOL0     C18966   7.934  10.619   6.071 -0.2231 -0.5261 -0.0495
  141MOL0     C18967   7.920  10.549   6.205 -0.0653 -0.0258  0.1822
  141MOL0     H18968   8.416  10.691   6.109  2.5885 -2.3091  1.3069
  141MOL0     H18969   8.636  10.717   6.214 -2.0603 -2.2682  2.0532
  141MOL0     H18970   8.828  10.928   6.184  2.4647  0.3658  0.8397
  141MOL0     H18971   8.784  11.074   6.272 -0.6463  0.1466 -0.9869
  141MOL0     H18972   8.981  10.854   6.355 -0.6730  0.0228  0.5255
  141MOL0     H18973   8.958  10.986   6.457 -1.0061 -1.3166  0.4474
  141MOL0     H18974   9.028  11.143   6.266  0.4244  1.1782  1.2763
  141MOL0     H18975   9.070  11.008   6.175  2.2750 -1.5320  0.1668
  141MOL0     H18976   9.193  11.051   6.456  0.3935  2.4781 -0.6834
  141MOL0     H18977   9.261  10.951   6.321 -0.0824 -0.8681  2.0405
  141MOL0     H18978   9.217  11.260   6.306  0.8848  0.2359 -0.9512
  141MOL0     H18979   9.349  11.180   6.406 -1.6976  0.2657  1.2794
  141MOL0     H18980   9.408  11.066   6.195 -1.7430 -1.7942 -0.8699
  141MOL0     H18981   9.299  11.164   6.106 -0.0151  1.3158  0.4655
  141MOL0     H18982   9.508  11.257   6.083  1.0015  3.2792 -0.3339
  141MOL0     H18983   9.532  11.289   6.254 -0.8982  3.9246  0.1737
  141MOL0     H18984   9.304  11.387   6.085  1.7087 -2.0740 -0.8528
  141MOL0     H18985   9.338  11.440   6.257 -0.0291  2.8409 -0.1775
  141MOL0     H18986   9.638  11.493   6.241  1.3923  0.3573 -1.9323
  141MOL0     H18987   9.780  11.810   6.069  3.5268 -1.4820 -1.1611
  141MOL0     H18988   9.774  11.717   6.220  0.4406 -0.6470  0.2968
  141MOL0     H18989   9.955  11.662   6.108 -0.6436  1.8505  0.2611
  141MOL0     H18990   9.850  11.520   6.079 -2.7354  1.1000  0.8029
  141MOL0     H18991   9.896  11.756   5.883 -1.3340  0.3157  1.1253
  141MOL0     H18992   9.813  11.602   5.856  1.2981 -0.2137 -0.2414
  141MOL0     H18993  10.017  11.583   5.742  4.2870 -4.4574 -1.0006
  141MOL0     H18994  10.004  11.472   5.867 -1.4319  0.1169  0.6463
  141MOL0     H18995  10.069  11.792   5.698  0.0012  1.9607  0.0869
  141MOL0     H18996  10.220  11.945   5.590  1.6534 -0.5020 -0.6309
  141MOL0     H18997  10.627  11.973   5.400  0.5281  0.0222 -0.5705
  141MOL0     H18998  10.807  12.058   5.256  1.2201 -0.3594 -0.4168
  141MOL0     H18999  11.076  12.360   5.448  2.3918  1.7147  1.3792
  141MOL0     H19000  11.196  12.227   5.440  0.1718 -0.9032 -1.0420
  141MOL0     H19001  11.219  12.253   5.184  1.9081 -1.6264  0.8833
  141MOL0     H19002  11.091  12.367   5.202 -2.1914 -1.8451  2.2790
  141MOL0     H19003  11.236  12.515   5.346 -0.5853  1.0315 -0.8470
  141MOL0     H19004  11.377  12.399   5.321 -0.9699 -2.5697  0.0217
  141MOL0     H19005  11.216  12.537   5.097 -0.0807  1.6957  1.5166
  141MOL0     H19006  11.355  12.432   5.077  0.1294 -1.9218  1.7217
  141MOL0     H19007  11.477  12.619   5.219 -1.5156  0.9357  2.5630
  141MOL0     H19008  11.345  12.722   5.167  0.9640  0.0341 -1.1527
  141MOL0     H19009  11.524  12.602   4.965  0.6072  1.7427 -2.3793
  141MOL0     H19010  11.367  12.673   4.933 -1.4601 -1.5737  1.4499
  141MOL0     H19011  11.587  12.811   5.109 -1.8861 -0.3195  1.7530
  141MOL0     H19012  11.435  12.886   5.062 -1.5763 -0.1983  0.6371
  141MOL0     H19013  11.498  12.866   4.824  0.9436 -0.0243 -1.7413
  141MOL0     H19014  11.586  12.976   4.913 -2.9178  0.5683 -1.6472
  141MOL0     H19015  11.003  12.192   5.624 -0.9573 -0.4779  0.4532
  141MOL0     H19016  10.829  12.097   5.754  0.6100 -1.7707  0.1475
  141MOL0     H19017  10.539  11.804   5.834 -0.8285 -2.4083  0.5531
  141MOL0     H19018  10.379  11.651   5.944 -1.4813 -0.6758  0.5918
  141MOL0     H19019   8.537  11.092   6.369  2.4346  0.6513 -2.7643
  141MOL0     H19020   8.293  11.069   6.258 -0.7659 -1.1040  3.2941
  141MOL0     H19021   8.101  10.884   5.928 -0.3554 -0.1895 -4.2141
  141MOL0     H19022   7.945  10.819   5.741 -1.7874  0.2759  0.9496
  141MOL0     H19023   7.905  10.634   5.582  2.5076  1.7453  2.4918
  141MOL0     H19024   7.803  10.780   5.605  1.9189  0.0145 -5.1720
  141MOL0     H19025   7.682  10.686   5.429 -2.2977 -0.4140  0.3647
  141MOL0     H19026   7.591  10.620   5.564 -0.6351  0.0126  0.8719
  141MOL0     H19027   7.626  10.446   5.436 -0.9054 -0.7934  0.2961
  141MOL0     H19028   7.761  10.423   5.548 -5.6305 -4.0241 -0.5348
  141MOL0     H19029   7.777  10.389   5.282 -1.3526 -0.1892  0.9184
  141MOL0     H19030   7.776  10.562   5.270  0.7790  1.0207  0.9733
  141MOL0     H19031   8.171  10.475   5.405 -0.5868 -1.1067  2.1800
  141MOL0     H19032   7.772  10.517   5.987 -0.5377  0.2673 -1.8682
  141MOL0     H19033   7.820  10.509   6.222  0.8126 -1.4829  2.5255
  141MOL0     H19034   7.996  10.471   6.203 -0.4338 -0.3829  0.1274
  141MOL0     H19035   7.940  10.626   6.280 -0.1435  1.1955 -1.0126
  142MOL0     O19036   5.837   7.520  10.937  0.6544 -0.9296 -0.0535
  142MOL0     C19037   5.839   7.442  11.032  0.7406  0.5753  0.2587
  142MOL0     O19038   5.949   7.417  11.111  0.2790  0.0613  0.2304
  142MOL0     C19039   6.059   7.489  11.087 -0.5825  0.6306 -0.2446
  142MOL0     C19040   6.061   7.626  11.119 -0.5154  0.4960 -0.7866
  142MOL0     C19041   6.173   7.698  11.090 -0.3907  0.2271 -0.4783
  142MOL0     C19042   6.284   7.641  11.014 -0.3317  0.3325 -0.3618
  142MOL0     O19043   6.402   7.701  10.983 -0.3354  0.4094  0.7326
  142MOL0     C19044   6.400   7.848  10.986 -0.7449  0.6548  0.6714
  142MOL0     C19045   6.545   7.904  10.944  0.9912  0.3521  0.1759
  142MOL0     C19046   6.654   7.844  11.029 -0.1218  0.5543 -0.0200
  142MOL0     C19047   6.781   7.925  11.043 -0.4001 -0.1283  1.2974
  142MOL0     C19048   6.899   7.847  11.102  0.1894 -0.3003  0.7455
  142MOL0     C19049   7.012   7.947  11.103  0.8861  0.0075 -0.3865
  142MOL0     C19050   7.138   7.879  11.166  0.2527 -0.2137 -1.1857
  142MOL0     C19051   7.208   7.790  11.066 -0.1583 -0.0682  0.5713
  142MOL0     N19052   7.353   7.779  11.081 -1.0070 -0.3375 -0.6087
  142MOL0     C19053   7.418   7.765  11.203 -0.2818 -0.1203  0.3458
  142MOL0     C19054   7.550   7.744  11.176  1.2374  0.2617 -1.3625
  142MOL0     C19055   7.647   7.695  11.271 -0.1176  0.2212  0.7604
  142MOL0     C19056   7.626   7.543  11.295  0.5642 -0.1037  0.4774
  142MOL0     C19057   7.716   7.465  11.396  0.3220 -0.3082  0.2038
  142MOL0     C19058   7.856   7.452  11.350  0.3013 -0.6585 -0.3413
  142MOL0     O19059   7.910   7.577  11.340  0.6179 -0.0184  0.0011
  142MOL0     C19060   8.043   7.594  11.321  0.3223  0.2400  0.3133
  142MOL0     C19061   8.131   7.482  11.301 -0.2533 -0.2261  0.0374
  142MOL0     C19062   8.269   7.494  11.284  0.0906 -0.0960  0.0071
  142MOL0     C19063   8.335   7.624  11.286 -0.5270 -0.9149  0.1844
  142MOL0     C19064   8.478   7.641  11.275  0.4799  0.0107 -0.3009
  142MOL0     O19065   8.526   7.767  11.263  0.3578 -0.0962  0.3156
  142MOL0     C19066   8.660   7.794  11.248  0.1080 -0.6002  0.0479
  142MOL0     C19067   8.771   7.716  11.235 -0.1135  0.8936 -0.7137
  142MOL0     C19068   8.901   7.775  11.224  0.3661  0.7547  0.2141
  142MOL0     C19069   8.920   7.914  11.237 -0.4376 -0.6530  0.2529
  142MOL0     O19070   9.052   7.959  11.250  0.5610 -0.2550  0.8460
  142MOL0     C19071   9.067   8.075  11.337  0.5477  0.3798  0.9114
  142MOL0     C19072   9.208   8.123  11.303 -0.1163 -0.1329  0.0658
  142MOL0     C19073   9.233   8.258  11.374 -0.4596  1.1419  0.8567
  142MOL0     C19074   9.386   8.273  11.380 -0.1639 -0.4265 -0.2839
  142MOL0     C19075   9.407   8.410  11.439 -0.0377 -0.1340 -0.7610
  142MOL0     C19076   9.547   8.473  11.419  0.2160  0.2068  0.2190
  142MOL0     C19077   9.567   8.627  11.461 -0.5919  0.3889 -0.0199
  142MOL0     C19078   9.715   8.670  11.458 -0.7404 -0.0391 -0.1999
  142MOL0    Cl19079   9.828   8.564  11.364 -0.2042  0.1980  0.3053
  142MOL0     C19080   8.799   7.993  11.242 -0.7828 -0.1272 -0.7854
  142MOL0     C19081   8.677   7.928  11.251 -0.0318  0.3107 -0.9685
  142MOL0     O19082   8.545   7.535  11.264  0.9341  0.0556 -0.2972
  142MOL0     C19083   8.251   7.735  11.301  0.0440  0.3260 -0.1483
  142MOL0     C19084   8.111   7.718  11.317  0.3241  0.7000  0.1064
  142MOL0     N19085   7.567   7.752  11.041  0.3921 -0.3401 -0.2866
  142MOL0     N19086   7.450   7.767  10.986  0.0878  0.5501  0.0045
  142MOL0     C19087   6.267   7.508  10.974 -0.0671  0.3875 -0.1945
  142MOL0     C19088   6.164   7.433  11.011  0.1109  0.0905  0.0794
  142MOL0     C19089   5.731   7.339  11.048 -0.6231 -0.4819 -0.0092
  142MOL0     C19090   5.764   7.208  11.071 -0.1760 -0.3105 -0.2715
  142MOL0     C19091   5.661   7.108  11.074  0.4394  0.3536  0.5981
  142MOL0     C19092   5.534   7.140  11.047 -0.0540 -0.5675 -0.4958
  142MOL0     O19093   5.435   7.047  11.049  0.1813  0.4321  0.1874
  142MOL0     C19094   5.433   6.963  10.930  0.0924 -0.4113 -0.3900
  142MOL0     C19095   5.307   6.882  10.907  0.5426 -0.4645  0.2816
  142MOL0     C19096   5.185   6.973  10.859  0.3942  0.6321 -0.1775
  142MOL0     C19097   5.128   7.067  10.964 -0.2135 -0.6134  0.0085
  142MOL0     C19098   5.011   7.138  10.909 -0.4718  0.7699  0.2814
  142MOL0     C19099   4.906   7.195  10.877  0.2788 -0.3324  0.2824
  142MOL0     C19100   5.502   7.277  11.024  0.4167  0.0945  0.3793
  142MOL0     C19101   5.596   7.378  11.028  0.5507 -0.2715  0.5628
  142MOL0     C19102   5.552   7.520  11.017  0.1251 -0.6852  0.0755
  142MOL0     H19103   5.974   7.670  11.167 -0.0565  0.0398  0.4824
  142MOL0     H19104   6.175   7.804  11.115 -3.1200 -0.1522  1.9407
  142MOL0     H19105   6.328   7.880  10.910  0.3437 -3.2393 -2.3436
  142MOL0     H19106   6.372   7.878  11.087 -0.7381  0.5574  0.7037
  142MOL0     H19107   6.546   8.013  10.953  0.6351  0.3914 -0.2257
  142MOL0     H19108   6.569   7.893  10.838  1.5012  1.4235  0.1584
  142MOL0     H19109   6.682   7.742  11.001 -0.9208  0.8801 -2.2257
  142MOL0     H19110   6.615   7.840  11.131  0.3943 -0.6545  0.1480
  142MOL0     H19111   6.808   7.938  10.938  1.4957  4.4405  2.0846
  142MOL0     H19112   6.762   8.021  11.093 -0.9235 -0.6934  2.2130
  142MOL0     H19113   6.865   7.816  11.201 -0.6008 -0.3542  0.4641
  142MOL0     H19114   6.924   7.759  11.042 -1.5064 -1.4440  1.6198
  142MOL0     H19115   7.043   7.985  11.005  3.1514  0.2501  0.3682
  142MOL0     H19116   6.977   8.026  11.170  0.1368 -1.3778  0.9256
  142MOL0     H19117   7.106   7.825  11.255 -1.2051  2.2668 -0.1038
  142MOL0     H19118   7.201   7.960  11.203 -0.5895 -0.2056  0.3214
  142MOL0     H19119   7.164   7.690  11.060 -1.1156  0.3734  0.0991
  142MOL0     H19120   7.192   7.843  10.972 -1.3135 -1.2149  0.0932
  142MOL0     H19121   7.378   7.745  11.302  0.6462 -0.1698  0.7140
  142MOL0     H19122   7.746   7.710  11.226  1.1311 -1.0864  2.8986
  142MOL0     H19123   7.644   7.751  11.365  0.9093  1.0564  0.3071
  142MOL0     H19124   7.522   7.529  11.324  0.9287  0.1675  1.9922
  142MOL0     H19125   7.643   7.486  11.203  0.1218  1.9257 -0.9358
  142MOL0     H19126   7.669   7.366  11.394 -0.8033  0.2238 -1.1977
  142MOL0     H19127   7.703   7.521  11.489  1.1837  0.9457 -0.4188
  142MOL0     H19128   7.840   7.405  11.253 -2.7843  2.6677 -1.6934
  142MOL0     H19129   7.911   7.393  11.423 -2.0390 -1.4163  0.9123
  142MOL0     H19130   8.088   7.382  11.300  0.5816 -0.7016 -3.9119
  142MOL0     H19131   8.320   7.400  11.264 -0.7334 -0.2504 -1.5940
  142MOL0     H19132   8.770   7.608  11.239  1.4832  0.8918  0.7969
  142MOL0     H19133   8.982   7.702  11.218  0.6193  1.1357 -3.8190
  142MOL0     H19134   8.996   8.154  11.308  1.0132  0.2881 -0.5908
  142MOL0     H19135   9.046   8.042  11.439 -0.3815 -2.9687 -0.2401
  142MOL0     H19136   9.284   8.050  11.334  2.7203  2.0917 -1.1884
  142MOL0     H19137   9.224   8.141  11.196  1.4102  1.2470  0.4877
  142MOL0     H19138   9.187   8.332  11.309  0.4201  1.8743  1.0494
  142MOL0     H19139   9.178   8.261  11.469 -3.5478 -0.1509 -0.7454
  142MOL0     H19140   9.436   8.271  11.282  0.2863 -2.8088 -0.0717
  142MOL0     H19141   9.446   8.203  11.439  0.7682  2.0176  1.8834
  142MOL0     H19142   9.383   8.400  11.545 -2.0725  0.4608 -1.1122
  142MOL0     H19143   9.339   8.486  11.398  1.3510  3.6345  3.1250
  142MOL0     H19144   9.616   8.411  11.476  0.6690  0.8450  0.3652
  142MOL0     H19145   9.568   8.461  11.312  0.8506 -0.1497  0.3814
  142MOL0     H19146   9.520   8.645  11.558 -3.1756  0.8351 -1.2752
  142MOL0     H19147   9.520   8.686  11.383  0.5520  2.6376  0.9026
  142MOL0     H19148   9.711   8.773  11.423 -0.6051 -0.7564 -2.5352
  142MOL0     H19149   9.754   8.673  11.560  0.0651  1.6846 -0.5397
  142MOL0     H19150   8.806   8.101  11.232 -0.3533 -0.3477 -3.4204
  142MOL0     H19151   8.591   7.994  11.254 -0.3985 -0.1860 -0.0340
  142MOL0     H19152   8.294   7.832  11.325  1.0592 -0.1961  0.2193
  142MOL0     H19153   8.052   7.809  11.321  1.4388  1.3865  2.5101
  142MOL0     H19154   6.344   7.452  10.923 -0.4830  0.7511 -1.2559
  142MOL0     H19155   6.165   7.326  10.992 -1.7578 -0.3196  1.9532
  142MOL0     H19156   5.868   7.181  11.091 -0.1132  0.4347  0.4612
  142MOL0     H19157   5.694   7.008  11.102 -0.2925  0.3229  1.3641
  142MOL0     H19158   5.518   6.895  10.939 -1.1032 -1.9233 -0.0201
  142MOL0     H19159   5.471   7.029  10.852  3.1131  0.4097  1.6148
  142MOL0     H19160   5.270   6.827  10.994 -0.4173 -0.4206 -0.0784
  142MOL0     H19161   5.331   6.814  10.824  2.0543  0.7786 -0.3461
  142MOL0     H19162   5.107   6.902  10.830 -0.5499  0.0666  3.2616
  142MOL0     H19163   5.227   7.028  10.775  0.1449 -1.1703 -1.5282
  142MOL0     H19164   5.106   7.024  11.063  3.2252  3.8380  3.1616
  142MOL0     H19165   5.199   7.140  11.003  0.9756 -1.5754 -0.3193
  142MOL0     H19166   4.806   7.230  10.866  0.4960 -0.3469 -2.2107
  142MOL0     H19167   5.395   7.291  11.015 -0.3414 -3.9494  1.1462
  142MOL0     H19168   5.567   7.564  10.918  0.1528  0.0966  0.4257
  142MOL0     H19169   5.444   7.532  11.030  0.4212  1.0013  1.2710
  142MOL0     H19170   5.611   7.576  11.089  2.5273 -2.3668 -0.4584
  143MOL0     O19171   3.683   6.506   3.025 -0.0853 -0.2749  0.4368
  143MOL0     C19172   3.708   6.526   3.143  0.3538 -0.4062  0.6627
  143MOL0     O19173   3.831   6.558   3.192 -0.1527 -0.4200  0.2190
  143MOL0     C19174   3.926   6.613   3.115 -0.2270  0.2725  0.5431
  143MOL0     C19175   3.921   6.667   2.985 -0.0283 -0.7147 -0.5935
  143MOL0     C19176   4.042   6.692   2.914 -0.4642 -0.0412 -0.1632
  143MOL0     C19177   4.168   6.671   2.975 -0.2739 -0.5271 -0.9393
  143MOL0     O19178   4.282   6.716   2.906 -0.3901 -0.2184 -1.0766
  143MOL0     C19179   4.384   6.769   2.993 -0.3839 -0.6534 -0.0546
  143MOL0     C19180   4.496   6.796   2.895 -0.6837 -0.1555  0.6452
  143MOL0     C19181   4.622   6.841   2.964 -0.8429  0.1860  0.3249
  143MOL0     C19182   4.742   6.857   2.870  1.0230  0.4003  0.2759
  143MOL0     C19183   4.878   6.880   2.940  0.1108  0.5600 -0.2002
  143MOL0     C19184   4.997   6.848   2.845 -0.3366  0.2342 -0.2501
  143MOL0     C19185   5.125   6.923   2.890  0.4715  0.5720  1.0950
  143MOL0     C19186   5.258   6.876   2.818  0.6548  0.8588 -0.2755
  143MOL0     N19187   5.370   6.966   2.854 -0.1670  0.1436  0.5700
  143MOL0     C19188   5.501   6.947   2.826 -0.4141  0.1946  0.5410
  143MOL0     C19189   5.572   7.037   2.892 -0.5608 -0.3144 -0.3871
  143MOL0     C19190   5.723   7.054   2.889 -0.6091 -0.3174  0.7040
  143MOL0     C19191   5.749   7.206   2.920 -0.1061  1.3384  0.1755
  143MOL0     C19192   5.893   7.227   2.967  0.9205  0.2951 -0.4106
  143MOL0     C19193   5.996   7.188   2.863 -0.2833  0.3757  0.5358
  143MOL0     O19194   6.116   7.228   2.922 -0.3329 -0.3666 -0.2608
  143MOL0     C19195   6.228   7.226   2.849 -0.2496 -0.5103 -0.2298
  143MOL0     C19196   6.238   7.182   2.713 -0.3431 -0.3150 -0.9911
  143MOL0     C19197   6.360   7.181   2.645 -0.6345 -0.7577 -0.1729
  143MOL0     C19198   6.473   7.238   2.701  0.0608  0.7691  0.5158
  143MOL0     C19199   6.598   7.243   2.628 -0.2771 -0.1184  0.5100
  143MOL0     O19200   6.689   7.324   2.689 -0.1143 -1.0388  0.1859
  143MOL0     C19201   6.805   7.345   2.621 -0.8063  0.0485 -1.3919
  143MOL0     C19202   6.918   7.260   2.647 -0.0898  0.0322  1.0137
  143MOL0     C19203   7.047   7.292   2.595 -0.3391  0.6818  0.1059
  143MOL0     C19204   7.051   7.395   2.488  0.4063  0.9461 -0.3878
  143MOL0     O19205   7.162   7.423   2.416  0.5767 -0.2943  0.1424
  143MOL0     C19206   7.259   7.316   2.400 -0.4610  0.0313 -0.3442
  143MOL0     C19207   7.376   7.373   2.313  0.3124  0.8607 -0.8878
  143MOL0     C19208   7.477   7.255   2.281 -0.5990 -0.5033  0.1168
  143MOL0     C19209   7.605   7.311   2.228  0.0955 -0.0777 -0.3924
  143MOL0     C19210   7.714   7.198   2.231  0.3929  0.2371  0.0470
  143MOL0     C19211   7.842   7.227   2.165  0.4528  0.1138  0.6756
  143MOL0     C19212   7.939   7.111   2.179  0.2805 -0.1347 -0.0586
  143MOL0     C19213   8.035   7.105   2.057 -0.0615  0.1394 -0.3242
  143MOL0    Cl19214   8.154   6.965   2.068  0.1369 -0.0049  0.2257
  143MOL0     C19215   6.935   7.463   2.459 -0.5754  0.2066  0.1711
  143MOL0     C19216   6.814   7.449   2.533 -0.4181  0.8541  0.1840
  143MOL0     O19217   6.608   7.189   2.518 -0.2769 -0.3515 -0.2443
  143MOL0     C19218   6.467   7.277   2.839  0.7060 -0.1602 -0.0953
  143MOL0     C19219   6.345   7.266   2.915  0.6263  0.1855 -0.5066
  143MOL0     N19220   5.485   7.101   2.981  0.1848  0.4450 -1.0922
  143MOL0     N19221   5.367   7.061   2.950  0.1241  0.6995  0.0108
  143MOL0     C19222   4.176   6.613   3.099 -0.3035 -0.2554  0.0184
  143MOL0     C19223   4.053   6.590   3.169 -0.2875  0.2678 -0.5177
  143MOL0     C19224   3.622   6.467   3.245 -0.4323  0.7668  0.0532
  143MOL0     C19225   3.681   6.429   3.367 -0.2505 -0.3873 -0.3657
  143MOL0     C19226   3.605   6.378   3.476 -0.2115  0.6467 -0.5703
  143MOL0     C19227   3.462   6.361   3.460 -1.0009 -0.5442 -0.2249
  143MOL0     O19228   3.368   6.313   3.551 -0.0876  0.8535  0.2648
  143MOL0     C19229   3.415   6.194   3.617 -0.4507  0.1492  0.5349
  143MOL0     C19230   3.352   6.162   3.749  0.9087  0.2771 -0.2647
  143MOL0     C19231   3.199   6.145   3.726  0.4820 -0.1116  0.5848
  143MOL0     C19232   3.167   6.000   3.673 -0.1718  0.3341  0.8085
  143MOL0     C19233   3.022   5.978   3.649  0.7815 -0.7661  0.3069
  143MOL0     C19234   2.901   5.954   3.637 -0.5436 -0.1738 -0.1804
  143MOL0     C19235   3.405   6.397   3.338 -0.2252  0.5281  0.3138
  143MOL0     C19236   3.478   6.443   3.230  0.2538 -0.0275  0.0051
  143MOL0     C19237   3.400   6.493   3.114 -0.1953  0.7449  1.2853
  143MOL0     H19238   3.821   6.672   2.942 -0.4922 -0.1115  0.5204
  143MOL0     H19239   4.042   6.732   2.813 -1.6513  0.1490 -0.1010
  143MOL0     H19240   4.348   6.866   3.028 -0.6071 -0.5490 -0.5609
  143MOL0     H19241   4.423   6.704   3.072  1.6667 -2.5151 -2.4072
  143MOL0     H19242   4.456   6.875   2.832 -0.3010  1.3673  2.2371
  143MOL0     H19243   4.526   6.706   2.839 -0.1075 -1.0230  2.2719
  143MOL0     H19244   4.647   6.758   3.031  0.9277  0.3391 -0.0861
  143MOL0     H19245   4.610   6.935   3.018 -1.5432 -0.6637  1.7266
  143MOL0     H19246   4.744   6.764   2.812  2.1908 -0.6938  1.9878
  143MOL0     H19247   4.721   6.938   2.800 -1.7987 -0.4446  0.0155
  143MOL0     H19248   4.880   6.981   2.981  1.1566 -0.5496  2.8102
  143MOL0     H19249   4.886   6.812   3.026  3.6663  1.5984  0.4510
  143MOL0     H19250   5.008   6.739   2.839  1.4097  0.3939 -0.5101
  143MOL0     H19251   4.980   6.889   2.745  1.9557 -2.1366 -1.7496
  143MOL0     H19252   5.140   6.897   2.996  0.3445 -0.2452  0.9148
  143MOL0     H19253   5.113   7.030   2.870  2.4236  0.6239 -0.0961
  143MOL0     H19254   5.272   6.772   2.847 -0.3385  1.0312  0.9100
  143MOL0     H19255   5.240   6.879   2.710  3.1072 -0.4154 -0.7940
  143MOL0     H19256   5.541   6.866   2.767  0.0733  0.8283 -0.0129
  143MOL0     H19257   5.763   7.011   2.981  0.8699  1.9467  1.1955
  143MOL0     H19258   5.767   7.035   2.791 -0.1433  0.9396  0.6606
  143MOL0     H19259   5.725   7.258   2.827 -2.2035 -2.3739 -1.5896
  143MOL0     H19260   5.683   7.250   2.995  0.2706  2.0997  0.0773
  143MOL0     H19261   5.909   7.153   3.045 -2.0897 -0.9401 -0.8333
  143MOL0     H19262   5.898   7.333   2.996 -1.0607 -0.1990  2.0295
  143MOL0     H19263   5.980   7.229   2.762 -1.2659 -2.0121 -0.3378
  143MOL0     H19264   5.993   7.079   2.857 -0.0743  0.3950 -0.0360
  143MOL0     H19265   6.155   7.126   2.671  1.2048 -2.9712 -0.7011
  143MOL0     H19266   6.369   7.145   2.543  1.7193  1.0505 -0.6937
  143MOL0     H19267   6.911   7.175   2.715  1.8267  0.5267  1.8844
  143MOL0     H19268   7.135   7.232   2.616 -0.9418 -0.5798 -0.8253
  143MOL0     H19269   7.307   7.280   2.492 -0.7062 -0.4849 -0.4130
  143MOL0     H19270   7.211   7.229   2.353  0.1487 -0.2418 -0.4755
  143MOL0     H19271   7.338   7.413   2.219 -0.3430 -2.3526 -2.1010
  143MOL0     H19272   7.428   7.453   2.367  0.5702  0.8915 -1.1746
  143MOL0     H19273   7.506   7.192   2.366  1.2558 -1.9293 -1.4816
  143MOL0     H19274   7.433   7.194   2.202  1.4938  0.3306 -1.8092
  143MOL0     H19275   7.644   7.394   2.287 -1.7511  1.7323 -1.5707
  143MOL0     H19276   7.589   7.364   2.133  2.0073 -0.1228 -0.7919
  143MOL0     H19277   7.682   7.110   2.175 -0.9646 -0.0953  1.2917
  143MOL0     H19278   7.715   7.154   2.331  0.3363  2.2253  0.9754
  143MOL0     H19279   7.819   7.255   2.062 -1.1592  0.3288  1.0657
  143MOL0     H19280   7.889   7.314   2.213  1.5919 -0.9866  1.6223
  143MOL0     H19281   7.887   7.015   2.177  3.0836 -1.7540 -0.2910
  143MOL0     H19282   7.986   7.129   2.276  0.9079 -1.2086 -0.1593
  143MOL0     H19283   7.980   7.090   1.964 -0.9908  1.7220 -0.0649
  143MOL0     H19284   8.084   7.199   2.032 -2.8040  1.1175 -2.6157
  143MOL0     H19285   6.951   7.550   2.396 -0.3334  0.0332 -0.0071
  143MOL0     H19286   6.729   7.512   2.513 -1.3258  0.5603  2.8132
  143MOL0     H19287   6.558   7.306   2.891  0.1050  1.8452 -0.0822
  143MOL0     H19288   6.354   7.286   3.021  2.8504  2.0696 -0.9828
  143MOL0     H19289   4.268   6.597   3.154 -0.1823 -0.0132 -0.1102
  143MOL0     H19290   4.054   6.541   3.266  0.2546 -1.5655 -1.4040
  143MOL0     H19291   3.782   6.455   3.398 -0.0675  0.7491 -1.7760
  143MOL0     H19292   3.645   6.354   3.574  3.4416  1.2952 -1.7490
  143MOL0     H19293   3.522   6.205   3.637 -0.4040 -0.9449  0.9921
  143MOL0     H19294   3.408   6.117   3.540  1.7259  1.6843 -1.3560
  143MOL0     H19295   3.371   6.236   3.828  1.5173  0.9275 -1.0112
  143MOL0     H19296   3.387   6.062   3.777 -0.9189  0.5880  3.8464
  143MOL0     H19297   3.157   6.219   3.658  1.5502 -1.0013 -1.1399
  143MOL0     H19298   3.141   6.162   3.817 -1.8258  2.0063 -1.1553
  143MOL0     H19299   3.213   5.987   3.575 -2.6756 -0.9196 -0.2920
  143MOL0     H19300   3.202   5.915   3.733  1.8879  0.8801  0.4513
  143MOL0     H19301   2.800   5.921   3.630 -1.2210  2.0105 -2.2116
  143MOL0     H19302   3.298   6.386   3.322 -0.5312  2.7678  0.5357
  143MOL0     H19303   3.411   6.436   3.021 -2.8797  1.0092  0.7277
  143MOL0     H19304   3.293   6.508   3.129 -0.7711  1.2852 -2.3870
  143MOL0     H19305   3.444   6.591   3.091 -0.1233  0.0810 -1.9266
  144MOL0     O19306   7.543   1.177   5.348  1.2911 -0.2624 -0.7180
  144MOL0     C19307   7.558   1.270   5.431  1.1498 -0.4528  1.4174
  144MOL0     O19308   7.654   1.365   5.405 -0.4175 -1.3567 -0.7788
  144MOL0     C19309   7.732   1.374   5.288  0.4863 -0.7518 -0.3277
  144MOL0     C19310   7.672   1.365   5.161 -0.7013 -0.1680  1.0315
  144MOL0     C19311   7.745   1.365   5.043 -0.9489  0.7831 -0.2489
  144MOL0     C19312   7.883   1.396   5.053  0.7769 -0.7087  0.8002
  144MOL0     O19313   7.953   1.410   4.940  0.2290 -0.2175 -0.0510
  144MOL0     C19314   8.093   1.450   4.947 -0.1407 -0.0427 -0.4636
  144MOL0     C19315   8.177   1.481   4.821  0.4457  0.2269 -0.3032
  144MOL0     C19316   8.144   1.618   4.759 -0.3134 -0.8727  0.4319
  144MOL0     C19317   8.221   1.649   4.622  0.5705 -0.4266  0.0443
  144MOL0     C19318   8.198   1.795   4.576 -0.7303 -0.5795  0.0938
  144MOL0     C19319   8.245   1.822   4.434 -0.5079  0.0524 -0.7108
  144MOL0     C19320   8.146   1.744   4.345  0.0740  0.2374  0.4223
  144MOL0     C19321   8.160   1.774   4.191  0.6494  0.3298  0.0087
  144MOL0     N19322   8.288   1.746   4.127  0.9470  0.2591  0.4341
  144MOL0     C19323   8.342   1.623   4.111  0.0412  0.2056  0.6573
  144MOL0     C19324   8.451   1.655   4.032  0.3306  0.3716 -0.6449
  144MOL0     C19325   8.553   1.564   3.976  0.4391  0.2525 -0.5022
  144MOL0     C19326   8.505   1.434   3.918 -0.2416  1.5888  0.1681
  144MOL0     C19327   8.392   1.437   3.792 -0.8915  0.2922 -0.3924
  144MOL0     C19328   8.441   1.492   3.673 -0.0033 -0.1561  0.7235
  144MOL0     O19329   8.365   1.497   3.556  0.7545  0.3728 -0.5420
  144MOL0     C19330   8.428   1.431   3.447  0.6254 -0.0389  0.1420
  144MOL0     C19331   8.408   1.301   3.413  0.6377 -0.0512  0.2732
  144MOL0     C19332   8.482   1.238   3.310 -0.1292  1.4471 -0.9927
  144MOL0     C19333   8.590   1.312   3.251 -0.3410  0.3349 -0.2676
  144MOL0     C19334   8.670   1.254   3.140 -0.5613 -0.2237  0.2914
  144MOL0     O19335   8.763   1.335   3.090 -0.1289  0.5504 -0.0032
  144MOL0     C19336   8.850   1.278   2.994 -0.4232 -0.1034 -0.0751
  144MOL0     C19337   8.809   1.203   2.884  0.4081  0.2292 -0.3414
  144MOL0     C19338   8.911   1.160   2.787  0.8154 -0.3149  0.1640
  144MOL0     C19339   9.052   1.186   2.813  0.3339 -0.2183  0.3148
  144MOL0     O19340   9.159   1.149   2.736  0.2787  1.1305 -0.1499
  144MOL0     C19341   9.150   1.016   2.688 -0.4179  0.1386 -0.0458
  144MOL0     C19342   9.283   0.977   2.634  0.3916 -0.1172 -0.2027
  144MOL0     C19343   9.291   0.848   2.554 -0.6675 -0.0967 -0.1953
  144MOL0     C19344   9.435   0.818   2.518 -0.6153 -0.1685 -0.1550
  144MOL0     C19345   9.467   0.683   2.478 -0.0921  0.3911 -0.2626
  144MOL0     C19346   9.370   0.617   2.378 -0.1695 -0.1092 -0.2066
  144MOL0     C19347   9.428   0.484   2.343 -0.3297 -0.0170  0.4249
  144MOL0     C19348   9.334   0.423   2.244 -0.3957  0.2022  0.9071
  144MOL0    Cl19349   9.407   0.282   2.159  0.0934 -0.2063 -0.0478
  144MOL0     C19350   9.089   1.264   2.919 -0.7590 -0.6486  0.8927
  144MOL0     C19351   8.989   1.316   3.008  0.3675 -0.7599 -0.4671
  144MOL0     O19352   8.656   1.136   3.110  0.0232  0.4210 -0.2311
  144MOL0     C19353   8.620   1.442   3.286 -0.0178 -0.1538  0.3487
  144MOL0     C19354   8.544   1.500   3.388  0.4830 -0.0936  0.0183
  144MOL0     N19355   8.454   1.788   3.998 -0.3522 -0.2069  0.1027
  144MOL0     N19356   8.354   1.843   4.063 -0.1687  0.2152 -0.1214
  144MOL0     C19357   7.942   1.396   5.184 -0.6230 -0.3777 -0.6697
  144MOL0     C19358   7.868   1.387   5.301  0.5579  0.0501 -0.2148
  144MOL0     C19359   7.474   1.287   5.545  0.6348 -0.0568 -0.5130
  144MOL0     C19360   7.522   1.356   5.658  0.1402 -0.8627 -0.2192
  144MOL0     C19361   7.446   1.358   5.782 -0.4837  0.9031  0.2165
  144MOL0     C19362   7.318   1.310   5.798  0.0842 -1.1623 -0.1547
  144MOL0     O19363   7.265   1.335   5.925 -0.5571  1.1241 -0.0756
  144MOL0     C19364   7.159   1.235   5.958 -0.3138  0.7600 -0.1922
  144MOL0     C19365   7.117   1.247   6.096  0.5274  0.0017  0.2167
  144MOL0     C19366   7.038   1.377   6.103  0.1484 -0.5955 -0.3895
  144MOL0     C19367   6.992   1.409   6.246 -0.6612 -0.2238  0.0280
  144MOL0     C19368   6.887   1.517   6.239  0.2389 -0.3441 -0.0359
  144MOL0     C19369   6.811   1.602   6.193 -0.5145 -0.8641  0.3316
  144MOL0     C19370   7.268   1.248   5.687  0.1208 -0.2592  0.3548
  144MOL0     C19371   7.345   1.232   5.564  0.2858  0.1073  0.0197
  144MOL0     C19372   7.277   1.160   5.453  0.0334  1.2132 -0.0903
  144MOL0     H19373   7.564   1.368   5.152 -0.7453 -0.6319  1.3859
  144MOL0     H19374   7.702   1.357   4.944  0.1605  1.2596 -0.7955
  144MOL0     H19375   8.102   1.539   5.010 -1.9167  0.6523 -1.1313
  144MOL0     H19376   8.138   1.359   4.986 -2.8723 -0.0186  3.2217
  144MOL0     H19377   8.156   1.399   4.751  0.4474 -0.8653  0.9255
  144MOL0     H19378   8.282   1.479   4.851  0.3188  2.4266  0.4585
  144MOL0     H19379   8.173   1.695   4.831 -0.0852  1.0543 -1.6181
  144MOL0     H19380   8.041   1.635   4.727  0.5099  0.9016 -1.4853
  144MOL0     H19381   8.329   1.639   4.634  1.0998  0.2084 -3.3179
  144MOL0     H19382   8.190   1.578   4.545 -0.3204  2.7685 -2.8591
  144MOL0     H19383   8.095   1.830   4.579 -0.0609  1.5167  1.1466
  144MOL0     H19384   8.253   1.863   4.642  0.9729 -1.2864 -0.5139
  144MOL0     H19385   8.253   1.931   4.421 -1.0569  0.6080  2.6930
  144MOL0     H19386   8.341   1.770   4.421  0.9936  2.7789 -1.3562
  144MOL0     H19387   8.044   1.774   4.371 -0.2265  0.1630 -0.6304
  144MOL0     H19388   8.153   1.635   4.359 -1.5055  0.2143  1.3016
  144MOL0     H19389   8.086   1.717   4.134  1.5780 -0.0281 -0.8744
  144MOL0     H19390   8.128   1.879   4.188 -0.4702  0.1323  2.4906
  144MOL0     H19391   8.316   1.527   4.153 -0.6355  0.4091  0.7262
  144MOL0     H19392   8.626   1.604   3.904  0.4222  1.0391 -0.0936
  144MOL0     H19393   8.612   1.534   4.063 -1.1133 -2.8613 -0.4044
  144MOL0     H19394   8.601   1.393   3.886  1.2414  3.6219  1.7487
  144MOL0     H19395   8.464   1.378   4.003  0.5447  2.2795  1.0280
  144MOL0     H19396   8.303   1.495   3.820 -1.3929 -0.7195  0.1774
  144MOL0     H19397   8.360   1.333   3.775  2.5275 -0.6923 -1.4826
  144MOL0     H19398   8.534   1.437   3.652 -0.9698 -2.1704  1.3988
  144MOL0     H19399   8.457   1.598   3.692 -2.2093  0.8056 -2.0693
  144MOL0     H19400   8.326   1.252   3.465  0.2228  0.9911  0.6186
  144MOL0     H19401   8.457   1.134   3.291 -2.9856  1.6008  1.1847
  144MOL0     H19402   8.706   1.172   2.868  0.2211  0.6291  0.0740
  144MOL0     H19403   8.886   1.115   2.691  1.5628  0.7330 -0.5441
  144MOL0     H19404   9.108   0.946   2.761 -1.3648  0.1693 -0.5418
  144MOL0     H19405   9.083   1.027   2.602 -2.9357 -1.7252  1.5206
  144MOL0     H19406   9.320   1.054   2.566 -0.0198  0.3008  0.0411
  144MOL0     H19407   9.350   0.967   2.721  1.4550 -1.6997 -1.1521
  144MOL0     H19408   9.264   0.758   2.610  1.5869 -1.4383 -1.1049
  144MOL0     H19409   9.224   0.852   2.467  0.9969  1.3745 -1.4780
  144MOL0     H19410   9.487   0.831   2.613  1.0386 -1.6182 -0.8276
  144MOL0     H19411   9.467   0.887   2.440  0.4634 -2.2221 -1.6142
  144MOL0     H19412   9.469   0.620   2.567 -1.6235  0.0901 -0.4108
  144MOL0     H19413   9.570   0.672   2.443  0.2961  0.7433  0.7346
  144MOL0     H19414   9.267   0.612   2.414 -0.0210  0.2192  0.2657
  144MOL0     H19415   9.373   0.673   2.283 -2.1838  2.1822  0.9593
  144MOL0     H19416   9.444   0.421   2.431 -2.5492 -0.9424  0.2397
  144MOL0     H19417   9.524   0.493   2.291 -0.2994 -0.6691  0.3597
  144MOL0     H19418   9.258   0.374   2.305 -0.2778 -1.2241 -0.0597
  144MOL0     H19419   9.290   0.484   2.164  2.1628 -0.8769 -1.4733
  144MOL0     H19420   9.194   1.275   2.942 -1.0961 -0.7294  2.5950
  144MOL0     H19421   9.020   1.371   3.096 -0.8929  1.8769 -1.5661
  144MOL0     H19422   8.692   1.502   3.231  1.5194 -3.0532 -1.0123
  144MOL0     H19423   8.571   1.601   3.419 -2.1818 -0.1866  3.3880
  144MOL0     H19424   8.049   1.415   5.184 -0.9964  2.1507 -0.1481
  144MOL0     H19425   7.907   1.377   5.402 -0.8244  0.8878  0.4406
  144MOL0     H19426   7.609   1.422   5.658 -1.2337  1.0613  0.3559
  144MOL0     H19427   7.493   1.410   5.865 -2.1844  0.9158  1.2290
  144MOL0     H19428   7.200   1.134   5.947 -0.0565  0.9502 -1.0203
  144MOL0     H19429   7.066   1.244   5.901 -0.6960  0.2738  0.3449
  144MOL0     H19430   7.209   1.259   6.154  0.7365  0.0304 -0.1167
  144MOL0     H19431   7.065   1.155   6.123 -2.3344  1.2900 -0.4095
  144MOL0     H19432   6.952   1.363   6.037 -1.4035  2.6411  0.7419
  144MOL0     H19433   7.092   1.467   6.074 -1.7448  0.0698 -2.1465
  144MOL0     H19434   6.949   1.327   6.304 -3.7557  0.9997 -0.3716
  144MOL0     H19435   7.081   1.437   6.303  0.4410  0.2066 -1.8140
  144MOL0     H19436   6.751   1.680   6.149  0.3356 -0.9503 -1.0482
  144MOL0     H19437   7.176   1.190   5.686  1.1757 -2.0911 -2.4582
  144MOL0     H19438   7.324   1.073   5.406 -2.8128  0.0282 -0.9568
  144MOL0     H19439   7.177   1.124   5.479  0.1744  0.4662 -0.5325
  144MOL0     H19440   7.266   1.236   5.376 -2.3588  1.1497  0.1228
  145MOL0     O19441  10.131   8.971   7.524  0.6849  0.5048  0.2038
  145MOL0     C19442  10.133   8.975   7.648  0.2233 -0.1137  0.1010
  145MOL0     O19443  10.241   8.978   7.730 -0.3610  0.6741  0.0365
  145MOL0     C19444  10.365   8.989   7.669 -0.0539 -0.2722 -0.2555
  145MOL0     C19445  10.385   9.095   7.574 -0.3204  0.8067  0.3603
  145MOL0     C19446  10.515   9.125   7.536 -0.0682 -0.6035  0.5058
  145MOL0     C19447  10.629   9.057   7.582  0.1428 -0.2037  0.3405
  145MOL0     O19448  10.760   9.082   7.548 -0.3207  0.0078 -0.0075
  145MOL0     C19449  10.775   9.161   7.437  0.1870  0.1703  0.4665
  145MOL0     C19450  10.926   9.188   7.405 -0.1990 -0.4736  0.0285
  145MOL0     C19451  10.921   9.306   7.306 -0.6850  0.3269 -0.1724
  145MOL0     C19452  11.064   9.326   7.250 -0.7409  0.8450 -0.9147
  145MOL0     C19453  11.088   9.466   7.205 -0.8430  0.1298  1.1141
  145MOL0     C19454  11.012   9.504   7.082  0.6143  0.0246  0.7180
  145MOL0     C19455  11.053   9.636   7.016  0.1067  0.6327  0.0737
  145MOL0     C19456  11.025   9.751   7.103 -0.5934 -0.5382 -0.2042
  145MOL0     N19457  10.889   9.798   7.106 -0.3785 -0.7351  0.3787
  145MOL0     C19458  10.814   9.829   6.996  0.3700  0.2331 -0.3334
  145MOL0     C19459  10.695   9.868   7.047  1.3051 -1.1335  0.4047
  145MOL0     C19460  10.574   9.911   6.966  0.4555  0.6214  0.3741
  145MOL0     C19461  10.616  10.037   6.889 -0.5074  0.1310  1.1460
  145MOL0     C19462  10.623  10.165   6.972 -0.1608 -0.2932 -0.1636
  145MOL0     C19463  10.767  10.193   7.016  0.7022 -0.3263  0.3684
  145MOL0     O19464  10.767  10.325   7.083 -0.5321  0.0533  0.4854
  145MOL0     C19465  10.892  10.366   7.129 -0.0297 -0.9593 -0.6374
  145MOL0     C19466  11.013  10.293   7.129  0.8570 -0.3208 -0.1089
  145MOL0     C19467  11.128  10.341   7.187 -0.2740 -0.0752  0.4287
  145MOL0     C19468  11.133  10.474   7.240 -0.1644  0.3941  0.3598
  145MOL0     C19469  11.263  10.524   7.276  0.2584 -0.0748  0.2127
  145MOL0     O19470  11.353  10.442   7.328  0.7021  0.3051  0.9581
  145MOL0     C19471  11.473  10.473   7.383  0.5240  0.0955  0.8396
  145MOL0     C19472  11.514  10.396   7.494  0.4898  0.6484  0.4952
  145MOL0     C19473  11.637  10.421   7.559 -0.2554 -0.3871 -0.5036
  145MOL0     C19474  11.717  10.533   7.513 -0.0099  0.0602 -0.3221
  145MOL0     O19475  11.831  10.567   7.583  0.6808  0.0914  0.0397
  145MOL0     C19476  11.929  10.651   7.530 -0.7858 -0.8790  0.2698
  145MOL0     C19477  12.049  10.657   7.622  0.5427 -0.4438  0.1640
  145MOL0     C19478  12.151  10.764   7.591  0.3828 -0.0768 -0.1976
  145MOL0     C19479  12.271  10.765   7.698 -0.3337 -0.3395 -0.0980
  145MOL0     C19480  12.375  10.879   7.662  0.4272  0.0099 -0.0160
  145MOL0     C19481  12.475  10.884   7.768 -0.4086 -0.3646  0.2577
  145MOL0     C19482  12.588  10.997   7.743 -0.3508 -0.2507  0.2962
  145MOL0     C19483  12.664  11.009   7.869 -0.5799 -0.0744  0.0133
  145MOL0    Cl19484  12.780  11.139   7.858 -0.2850 -0.0173  0.0649
  145MOL0     C19485  11.670  10.604   7.405 -0.2535 -0.0937  0.0280
  145MOL0     C19486  11.554  10.571   7.339 -0.0397  0.7675 -0.2337
  145MOL0     O19487  11.274  10.645   7.270  0.4420 -0.5215 -0.6920
  145MOL0     C19488  11.012  10.552   7.227 -0.4386 -1.3916  0.5676
  145MOL0     C19489  10.896  10.499   7.171  0.0888 -0.0633 -0.7838
  145MOL0     N19490  10.702   9.862   7.183  0.0270 -0.4946  0.0172
  145MOL0     N19491  10.819   9.824   7.211  0.4819 -0.6585 -0.2280
  145MOL0     C19492  10.599   8.946   7.662 -0.2284  0.0505 -0.6709
  145MOL0     C19493  10.471   8.917   7.707 -1.2687 -0.1150  0.6917
  145MOL0     C19494  10.008   8.959   7.713  0.0232 -0.1427 -0.9976
  145MOL0     C19495   9.985   9.040   7.830 -0.7132  0.0117 -0.3853
  145MOL0     C19496   9.861   9.030   7.896  0.5069 -0.1194 -0.0365
  145MOL0     C19497   9.769   8.939   7.843  0.0163  0.1828 -0.4218
  145MOL0     O19498   9.637   8.925   7.887 -0.0125 -0.2956 -0.0311
  145MOL0     C19499   9.580   9.026   7.970  0.6878 -0.9329 -0.4941
  145MOL0     C19500   9.436   8.985   8.011  0.3961  0.7728 -0.1082
  145MOL0     C19501   9.346   9.038   7.903  0.8507  0.5141  0.4841
  145MOL0     C19502   9.202   9.000   7.947 -0.3710 -0.3775  0.0185
  145MOL0     C19503   9.088   9.028   7.856 -0.4252 -0.7118 -0.1771
  145MOL0     C19504   8.995   9.022   7.792  0.4704 -0.4896 -0.2773
  145MOL0     C19505   9.797   8.854   7.735  0.3854  0.4640 -0.0257
  145MOL0     C19506   9.914   8.864   7.665  1.1435  0.3783 -0.5518
  145MOL0     C19507   9.921   8.761   7.546  0.0535 -0.6247 -0.0861
  145MOL0     H19508  10.302   9.157   7.541 -1.2804 -0.0947  1.0219
  145MOL0     H19509  10.523   9.217   7.479  1.9199 -0.5011  0.8611
  145MOL0     H19510  10.734   9.112   7.348 -0.6119  3.3450 -1.0755
  145MOL0     H19511  10.733   9.261   7.452 -0.4092 -0.2829  1.9269
  145MOL0     H19512  10.974   9.093   7.382 -2.9800 -2.3940  1.4667
  145MOL0     H19513  10.981   9.223   7.493  2.2700 -2.3862 -0.6462
  145MOL0     H19514  10.867   9.393   7.344 -0.7631  0.5157 -0.6940
  145MOL0     H19515  10.875   9.262   7.217  2.0311 -2.8707 -0.1946
  145MOL0     H19516  11.143   9.301   7.322 -0.1298  1.9183 -1.1939
  145MOL0     H19517  11.064   9.250   7.171 -2.1395  0.0852 -0.2093
  145MOL0     H19518  11.065   9.534   7.288 -2.0504  1.5931 -0.3576
  145MOL0     H19519  11.196   9.476   7.191 -1.1145  2.7258  0.3026
  145MOL0     H19520  11.019   9.422   7.009 -2.9496  1.1127 -1.0489
  145MOL0     H19521  10.908   9.517   7.112  0.4778  2.0695 -0.4547
  145MOL0     H19522  10.997   9.652   6.924 -1.4451  2.2449  1.2047
  145MOL0     H19523  11.160   9.637   6.992 -0.1649 -1.6592 -1.4889
  145MOL0     H19524  11.061   9.736   7.205  1.2524  0.8018 -0.5985
  145MOL0     H19525  11.082   9.837   7.066 -0.3499 -1.0886 -1.1562
  145MOL0     H19526  10.845   9.835   6.892  1.9334  2.6230  0.1979
  145MOL0     H19527  10.547   9.832   6.896  1.0969  1.3277 -0.7108
  145MOL0     H19528  10.484   9.925   7.026 -0.3692 -1.3154 -0.3358
  145MOL0     H19529  10.718  10.030   6.849 -0.1426  1.5450  1.7711
  145MOL0     H19530  10.535  10.050   6.816 -2.1166 -0.7543  2.6963
  145MOL0     H19531  10.542  10.157   7.044  0.0949 -1.1466  0.0494
  145MOL0     H19532  10.600  10.242   6.898  1.9570  2.0886  1.4563
  145MOL0     H19533  10.817  10.206   6.920 -1.9948  0.0186 -1.1024
  145MOL0     H19534  10.802  10.114   7.083 -1.3151 -1.0791  0.6221
  145MOL0     H19535  11.022  10.189   7.098 -0.0244 -1.0325  1.8132
  145MOL0     H19536  11.213  10.274   7.183 -2.0760 -2.5800  1.0858
  145MOL0     H19537  11.452  10.315   7.530 -0.3705  0.2411 -1.7121
  145MOL0     H19538  11.660  10.369   7.651  0.0545  1.0423  0.2549
  145MOL0     H19539  11.959  10.606   7.435  1.7650  3.0078 -1.0081
  145MOL0     H19540  11.885  10.751   7.528 -1.1812 -0.9842  2.1171
  145MOL0     H19541  12.005  10.671   7.721  0.4914 -0.1770  0.1019
  145MOL0     H19542  12.098  10.561   7.604 -2.9525 -1.6917 -4.7124
  145MOL0     H19543  12.184  10.759   7.487  2.7186 -2.2751  0.5579
  145MOL0     H19544  12.102  10.861   7.600  0.9046  0.2196 -0.5617
  145MOL0     H19545  12.318  10.666   7.700  1.1892  0.3710  0.8533
  145MOL0     H19546  12.222  10.775   7.795 -0.5196 -1.7883 -0.0221
  145MOL0     H19547  12.322  10.971   7.637  0.6694 -0.5279 -2.7976
  145MOL0     H19548  12.429  10.848   7.573  0.8942  2.9199 -0.8235
  145MOL0     H19549  12.416  10.907   7.858 -1.6373  0.3564 -0.7036
  145MOL0     H19550  12.526  10.790   7.792  0.5365 -0.4102 -1.7887
  145MOL0     H19551  12.544  11.096   7.731  0.6208  0.6432  3.2864
  145MOL0     H19552  12.664  10.969   7.669  0.1456  0.3364  0.5742
  145MOL0     H19553  12.602  11.038   7.954 -0.3126  0.3980  0.0526
  145MOL0     H19554  12.710  10.913   7.894  1.1818  0.6585 -0.2339
  145MOL0     H19555  11.737  10.685   7.378  0.6439 -0.3631  1.3137
  145MOL0     H19556  11.511  10.630   7.259 -0.4978 -0.5467 -0.9729
  145MOL0     H19557  11.005  10.652   7.268 -1.7049 -2.0779  2.1327
  145MOL0     H19558  10.803  10.554   7.168  0.5827  1.0594  1.8435
  145MOL0     H19559  10.685   8.907   7.715 -0.4111  1.4026  0.7040
  145MOL0     H19560  10.455   8.846   7.788 -1.1217 -0.5505  0.3406
  145MOL0     H19561  10.059   9.106   7.874  1.1511 -2.2030 -0.0343
  145MOL0     H19562   9.832   9.101   7.974 -0.9093 -0.9712  0.2504
  145MOL0     H19563   9.577   9.126   7.927  1.8885  0.6111  2.7388
  145MOL0     H19564   9.640   9.040   8.060 -2.4274 -0.2122  1.6271
  145MOL0     H19565   9.406   9.020   8.110 -0.0697  0.2375 -0.0541
  145MOL0     H19566   9.432   8.876   8.009  3.3158  0.5976 -1.4960
  145MOL0     H19567   9.381   8.992   7.810 -0.7902  0.5749 -0.2049
  145MOL0     H19568   9.367   9.144   7.887 -1.4981  0.9565 -0.1230
  145MOL0     H19569   9.200   8.896   7.979 -0.0470 -1.5905 -3.5439
  145MOL0     H19570   9.194   9.062   8.037 -1.7297  4.2087 -2.8906
  145MOL0     H19571   8.913   9.009   7.724  1.5962  0.9682 -2.0147
  145MOL0     H19572   9.725   8.780   7.699  0.3440  1.8025 -2.9655
  145MOL0     H19573   9.867   8.674   7.583 -3.3914  2.5377  3.2243
  145MOL0     H19574   9.870   8.800   7.457  0.5420 -1.1793 -0.6193
  145MOL0     H19575  10.027   8.739   7.527 -0.2444 -1.3881 -0.9371
  146MOL0     O19576   0.916   8.737   1.879 -0.3343 -0.0174 -0.0995
  146MOL0     C19577   0.898   8.860   1.858  0.5812  0.0547 -0.3691
  146MOL0     O19578   0.987   8.958   1.890 -0.0585 -0.8010  0.0939
  146MOL0     C19579   1.107   8.941   1.954  0.2062 -0.1978  0.0756
  146MOL0     C19580   1.163   9.052   2.031 -0.2488 -0.5950 -0.7236
  146MOL0     C19581   1.290   9.043   2.092  0.3202  0.7545  0.4537
  146MOL0     C19582   1.370   8.931   2.066 -1.0792  0.2793  0.6593
  146MOL0     O19583   1.493   8.891   2.118  1.1036 -0.9223  0.0697
  146MOL0     C19584   1.538   8.957   2.233 -0.2000  0.0002 -0.2532
  146MOL0     C19585   1.623   8.857   2.312 -0.3746  0.0411  0.4439
  146MOL0     C19586   1.769   8.888   2.334  0.2713  0.7082  0.8754
  146MOL0     C19587   1.845   8.855   2.201  0.4996  0.1471  0.1335
  146MOL0     C19588   1.992   8.840   2.237  0.8677  0.1490  0.3415
  146MOL0     C19589   2.061   8.781   2.117 -0.2251 -0.3484 -0.3555
  146MOL0     C19590   2.214   8.778   2.140  1.2209  0.1703 -1.0108
  146MOL0     C19591   2.285   8.735   2.009 -0.1845  0.3052 -0.1255
  146MOL0     N19592   2.425   8.716   1.999 -0.0091  0.2395 -0.1849
  146MOL0     C19593   2.484   8.616   2.068  0.5331  0.5828 -1.8394
  146MOL0     C19594   2.610   8.655   2.086 -0.1043 -0.2646  0.2560
  146MOL0     C19595   2.713   8.586   2.176  0.0879 -0.7609  0.9485
  146MOL0     C19596   2.864   8.595   2.137  0.6393  0.0897  0.7713
  146MOL0     C19597   2.903   8.521   2.006 -0.0507  0.1610  0.1803
  146MOL0     C19598   3.036   8.578   1.963  0.3934 -0.2351  0.1040
  146MOL0     O19599   3.140   8.577   2.063 -0.3698  0.4370  0.1917
  146MOL0     C19600   3.270   8.609   2.038 -0.7457  1.0603 -0.4833
  146MOL0     C19601   3.350   8.623   2.147  0.4439  0.1091 -0.7524
  146MOL0     C19602   3.489   8.648   2.136 -0.1165 -1.0007  0.4743
  146MOL0     C19603   3.544   8.664   2.002 -0.2784  0.2741  0.2089
  146MOL0     C19604   3.687   8.691   1.985  0.5541 -0.0004  0.1667
  146MOL0     O19605   3.742   8.717   1.862  0.8691  0.7940 -0.6822
  146MOL0     C19606   3.880   8.719   1.861  0.4657 -0.0893  0.2345
  146MOL0     C19607   3.936   8.634   1.769  0.1708  0.3786  0.7038
  146MOL0     C19608   4.072   8.615   1.751  0.7497 -0.2200  0.4129
  146MOL0     C19609   4.157   8.699   1.821 -0.0840  0.0549  0.3677
  146MOL0     O19610   4.294   8.687   1.809  0.3195  0.2672  0.2786
  146MOL0     C19611   4.351   8.644   1.678 -0.0302 -0.5518 -0.5459
  146MOL0     C19612   4.433   8.757   1.627  0.0885  0.5200 -0.1671
  146MOL0     C19613   4.564   8.782   1.704 -0.1702  0.2726 -0.3133
  146MOL0     C19614   4.644   8.885   1.621  1.1533 -0.4431 -0.7497
  146MOL0     C19615   4.755   8.953   1.699 -0.0023 -0.2227  1.1682
  146MOL0     C19616   4.843   9.050   1.620  0.0046  0.0546 -0.1750
  146MOL0     C19617   4.951   8.987   1.527  0.2049  0.5461 -0.4122
  146MOL0     C19618   5.072   9.068   1.497  0.6734 -0.9109  0.0611
  146MOL0    Cl19619   5.170   9.100   1.637  0.5367 -0.0537  0.0929
  146MOL0     C19620   4.103   8.786   1.916 -0.4145 -1.4923  0.4675
  146MOL0     C19621   3.965   8.797   1.942 -0.0893 -0.0318  0.1368
  146MOL0     O19622   3.747   8.681   2.092 -0.1571 -0.8739  0.8403
  146MOL0     C19623   3.461   8.644   1.893  1.0815  0.4978  0.3742
  146MOL0     C19624   3.321   8.617   1.909 -0.4916 -0.4662  0.8708
  146MOL0     N19625   2.631   8.774   2.016 -0.2121 -0.5375  0.3089
  146MOL0     N19626   2.513   8.814   1.977 -0.1404 -0.6792 -0.3384
  146MOL0     C19627   1.324   8.829   1.977  0.3822 -0.1104  0.8169
  146MOL0     C19628   1.197   8.839   1.925  0.1059  0.1797 -0.0032
  146MOL0     C19629   0.759   8.904   1.821 -0.2769  0.2258 -0.2615
  146MOL0     C19630   0.651   8.818   1.835  0.0158  0.6980 -0.3334
  146MOL0     C19631   0.523   8.856   1.818 -0.0159 -0.4903 -0.2020
  146MOL0     C19632   0.492   8.984   1.788 -0.3082 -0.1851 -0.0204
  146MOL0     O19633   0.359   9.012   1.779 -0.0807  0.2391 -0.9623
  146MOL0     C19634   0.324   9.149   1.750  0.1803 -0.1240 -0.0616
  146MOL0     C19635   0.172   9.177   1.762  0.1389  0.5960  0.4531
  146MOL0     C19636   0.128   9.311   1.694  0.4185  0.6217 -0.2992
  146MOL0     C19637  -0.029   9.300   1.684 -0.2132  0.3999  0.0012
  146MOL0     C19638  -0.115   9.323   1.802 -0.8823  0.1638  0.3118
  146MOL0     C19639  -0.180   9.342   1.911 -1.0389 -0.8021  0.1092
  146MOL0     C19640   0.597   9.066   1.758 -0.4534 -0.4312 -0.4425
  146MOL0     C19641   0.730   9.039   1.783 -0.3496  0.6478  0.0065
  146MOL0     C19642   0.827   9.153   1.787  0.2756  1.1616 -0.3472
  146MOL0     H19643   1.106   9.143   2.045 -0.5278 -0.6674 -1.3830
  146MOL0     H19644   1.334   9.119   2.156  2.7240 -0.3978  0.2887
  146MOL0     H19645   1.594   9.048   2.210  1.7914 -0.5188  2.0821
  146MOL0     H19646   1.463   8.996   2.303  3.6026  1.7037  3.3369
  146MOL0     H19647   1.604   8.757   2.272 -1.6725 -0.2103  1.5870
  146MOL0     H19648   1.576   8.859   2.411 -1.7255  2.6534 -0.1589
  146MOL0     H19649   1.797   8.824   2.418 -3.4382 -0.4015  1.4311
  146MOL0     H19650   1.780   8.996   2.351 -0.2007  0.8748  0.1637
  146MOL0     H19651   1.807   8.771   2.140 -0.4659  0.7789 -0.1630
  146MOL0     H19652   1.827   8.937   2.130 -2.4551  0.1618  0.7544
  146MOL0     H19653   2.033   8.936   2.268  0.8349 -0.5145  2.6716
  146MOL0     H19654   2.010   8.761   2.311 -1.4975 -1.7300 -0.9282
  146MOL0     H19655   2.020   8.684   2.089  0.3817  0.0023 -2.7482
  146MOL0     H19656   2.041   8.838   2.025  0.4759 -4.1865 -3.1526
  146MOL0     H19657   2.240   8.708   2.220  1.5125 -0.0022 -1.2563
  146MOL0     H19658   2.252   8.877   2.166  1.3711 -0.0955 -0.1981
  146MOL0     H19659   2.243   8.639   1.976 -0.8887  0.4718  0.2702
  146MOL0     H19660   2.263   8.812   1.935 -1.6340  1.7889  1.7387
  146MOL0     H19661   2.431   8.530   2.107  2.7584 -0.4785 -0.9769
  146MOL0     H19662   2.694   8.618   2.279 -3.1788 -0.2567  0.2960
  146MOL0     H19663   2.678   8.482   2.173  0.1773 -0.7795 -1.1760
  146MOL0     H19664   2.882   8.702   2.126  0.1559  0.0295 -0.9667
  146MOL0     H19665   2.929   8.553   2.214 -2.4027 -2.7967  2.0288
  146MOL0     H19666   2.817   8.532   1.939  0.2284 -2.4856 -0.7412
  146MOL0     H19667   2.894   8.413   2.019 -1.2031  0.1887 -0.2475
  146MOL0     H19668   3.015   8.677   1.923  0.5775 -1.0762 -2.2293
  146MOL0     H19669   3.075   8.527   1.874 -1.8467  0.2508 -1.2272
  146MOL0     H19670   3.312   8.611   2.247 -2.1035 -0.8527 -1.7637
  146MOL0     H19671   3.560   8.657   2.218  2.5381  0.9274 -1.8131
  146MOL0     H19672   3.868   8.579   1.704  1.2363  0.6475 -0.6923
  146MOL0     H19673   4.092   8.536   1.680 -1.2640 -0.0088 -0.4702
  146MOL0     H19674   4.416   8.556   1.691 -1.1764 -1.1220  2.0384
  146MOL0     H19675   4.277   8.612   1.604 -0.0568 -4.2057  0.8144
  146MOL0     H19676   4.443   8.748   1.519 -2.7131  1.8564 -0.6313
  146MOL0     H19677   4.373   8.849   1.631 -2.5954 -0.9421 -2.6159
  146MOL0     H19678   4.547   8.821   1.805  0.0797  1.7170 -0.8008
  146MOL0     H19679   4.617   8.689   1.723  0.0163  0.5679  0.7106
  146MOL0     H19680   4.576   8.953   1.569  1.6667  0.9527  0.3505
  146MOL0     H19681   4.698   8.816   1.556 -0.0962 -1.8765 -0.3239
  146MOL0     H19682   4.814   8.869   1.737  1.3495  0.0114 -0.3181
  146MOL0     H19683   4.716   9.016   1.779 -2.6944 -0.9001  0.4946
  146MOL0     H19684   4.781   9.118   1.560 -0.4589 -0.4742 -0.2976
  146MOL0     H19685   4.892   9.114   1.695  0.9518 -1.0649  0.1853
  146MOL0     H19686   4.899   8.958   1.435 -0.1465  0.1567 -0.0973
  146MOL0     H19687   4.997   8.898   1.571 -1.1265  0.2320  0.3936
  146MOL0     H19688   5.144   9.022   1.428  1.9806  3.2771 -1.7064
  146MOL0     H19689   5.046   9.168   1.460  0.3898 -1.9331 -2.7089
  146MOL0     H19690   4.168   8.855   1.968 -1.4866 -0.0081 -0.0738
  146MOL0     H19691   3.936   8.864   2.023  2.8269 -0.2544  1.5151
  146MOL0     H19692   3.506   8.622   1.797 -0.1824  0.2943 -0.2008
  146MOL0     H19693   3.247   8.604   1.830 -2.4217 -2.3685  2.8398
  146MOL0     H19694   1.393   8.747   1.961  1.3739  0.8525 -0.0499
  146MOL0     H19695   1.155   8.761   1.862  0.6199 -0.8815  0.9256
  146MOL0     H19696   0.684   8.722   1.871  4.8653  2.2571  0.0827
  146MOL0     H19697   0.444   8.782   1.824  1.2179 -1.7478  2.2596
  146MOL0     H19698   0.360   9.165   1.648 -1.6877 -1.7611 -1.0297
  146MOL0     H19699   0.371   9.224   1.815  1.3314 -1.5253  0.7800
  146MOL0     H19700   0.141   9.163   1.866  2.5825 -2.1783  0.9522
  146MOL0     H19701   0.129   9.090   1.710  0.5098  0.8760 -0.3459
  146MOL0     H19702   0.169   9.309   1.592 -0.6625  1.7175 -0.7807
  146MOL0     H19703   0.169   9.400   1.743  2.3658 -0.6097  0.4480
  146MOL0     H19704  -0.049   9.381   1.613  1.0495  0.8955  0.1766
  146MOL0     H19705  -0.048   9.206   1.632  1.4770  0.0715 -0.0846
  146MOL0     H19706  -0.231   9.350   2.004 -0.2062  0.8426  0.4521
  146MOL0     H19707   0.569   9.169   1.735 -1.4332 -0.3726  0.8630
  146MOL0     H19708   0.780   9.247   1.756  0.2916  1.5171  0.6749
  146MOL0     H19709   0.867   9.167   1.888  0.1146 -3.8333  0.6374
  146MOL0     H19710   0.897   9.149   1.703 -1.2125 -0.1680 -1.5945
  147MOL0     O19711   0.776   2.100  10.279  0.2913 -0.2032 -0.5924
  147MOL0     C19712   0.843   2.165  10.191  0.2058 -0.6186 -0.7768
  147MOL0     O19713   0.783   2.269  10.115  0.1361 -0.1772  0.0881
  147MOL0     C19714   0.647   2.287  10.130  0.0150 -0.1175  0.4227
  147MOL0     C19715   0.554   2.190  10.090 -0.6925 -0.7198  0.2270
  147MOL0     C19716   0.416   2.209  10.110  0.2132  0.1715 -0.2858
  147MOL0     C19717   0.369   2.336  10.159 -0.5651  0.6461 -0.3073
  147MOL0     O19718   0.236   2.378  10.167  0.7516  0.1129  0.1764
  147MOL0     C19719   0.139   2.270  10.162  0.7690 -0.1760  0.0313
  147MOL0     C19720   0.001   2.329  10.193 -0.7231 -0.2822 -0.2135
  147MOL0     C19721  -0.122   2.239  10.155 -0.4468  0.6403 -0.2538
  147MOL0     C19722  -0.259   2.287  10.207 -0.0522  0.8883 -0.2515
  147MOL0     C19723  -0.378   2.197  10.185 -0.0995 -0.4913  0.2275
  147MOL0     C19724  -0.502   2.267  10.240 -0.0332 -0.9803 -0.0630
  147MOL0     C19725  -0.638   2.183  10.228  0.0362  0.1634 -0.1163
  147MOL0     C19726  -0.761   2.266  10.276 -0.2755 -0.4821  0.5951
  147MOL0     N19727  -0.777   2.244  10.413  0.8735  0.0881 -0.8523
  147MOL0     C19728  -0.820   2.132  10.471  0.2256 -0.4857  0.9031
  147MOL0     C19729  -0.836   2.164  10.602  0.1839  0.6528 -0.0001
  147MOL0     C19730  -0.869   2.079  10.719  0.5702 -1.2257  0.0414
  147MOL0     C19731  -0.745   2.026  10.790 -0.1228 -0.0059  0.0031
  147MOL0     C19732  -0.676   1.919  10.711 -0.0103  1.2860  0.9183
  147MOL0     C19733  -0.531   1.949  10.682  0.2857 -0.1468 -0.6009
  147MOL0     O19734  -0.515   2.047  10.578  0.1630 -0.5712  0.2305
  147MOL0     C19735  -0.401   2.123  10.578 -0.9027 -0.4992  0.6949
  147MOL0     C19736  -0.281   2.065  10.530  0.7017  0.3874  0.7604
  147MOL0     C19737  -0.160   2.134  10.547  0.3969  0.2354  0.7442
  147MOL0     C19738  -0.153   2.268  10.586 -0.5892 -0.0756  0.6417
  147MOL0     C19739  -0.030   2.340  10.585 -0.2045  0.4531 -0.7063
  147MOL0     O19740   0.076   2.264  10.574 -0.2227  0.2094 -0.2907
  147MOL0     C19741   0.210   2.304  10.571  0.2444 -0.5684 -0.1705
  147MOL0     C19742   0.304   2.200  10.581  0.7519  0.8505 -0.1093
  147MOL0     C19743   0.442   2.217  10.597 -0.5755  0.3788  0.6415
  147MOL0     C19744   0.489   2.353  10.577 -0.1800 -0.0535  0.4655
  147MOL0     O19745   0.621   2.393  10.581  0.1339 -0.1740 -0.6203
  147MOL0     C19746   0.721   2.297  10.552 -0.6278 -1.5909 -0.2104
  147MOL0     C19747   0.784   2.208  10.660 -0.6607  0.5708 -0.0711
  147MOL0     C19748   0.930   2.253  10.690 -0.5893  0.2960 -0.3641
  147MOL0     C19749   0.941   2.387  10.770 -0.7759 -0.1828  0.5925
  147MOL0     C19750   1.090   2.430  10.769 -0.5377  0.3807 -0.0505
  147MOL0     C19751   1.134   2.501  10.900 -1.0587 -0.2198 -0.6560
  147MOL0     C19752   1.157   2.410  11.023 -0.2180  0.1868 -0.0678
  147MOL0     C19753   1.269   2.307  11.013  0.3483  0.0456 -0.0568
  147MOL0    Cl19754   1.414   2.404  11.014 -0.0570 -0.1383 -0.1850
  147MOL0     C19755   0.399   2.458  10.575 -0.3975 -0.8865  1.5917
  147MOL0     C19756   0.261   2.438  10.560 -0.4686  0.1132 -0.3081
  147MOL0     O19757  -0.036   2.460  10.575  0.4123  0.3992 -1.2782
  147MOL0     C19758  -0.272   2.326  10.624  0.8397  0.0147  0.0973
  147MOL0     C19759  -0.393   2.253  10.626  0.3899 -0.4066 -0.0169
  147MOL0     N19760  -0.792   2.296  10.617 -0.0222  1.3012 -0.2521
  147MOL0     N19761  -0.755   2.338  10.509  0.2736 -0.7129 -0.5454
  147MOL0     C19762   0.465   2.428  10.190 -0.3479 -0.3710  0.6632
  147MOL0     C19763   0.601   2.406  10.174 -0.0381 -0.3011 -0.3628
  147MOL0     C19764   0.998   2.164  10.196 -0.0594  0.5539  0.8732
  147MOL0     C19765   1.058   2.263  10.121 -0.1017 -0.7323 -1.2292
  147MOL0     C19766   1.193   2.274  10.120 -0.7015  0.0346  0.0096
  147MOL0     C19767   1.273   2.186  10.192 -0.3566 -0.7875 -0.3542
  147MOL0     O19768   1.410   2.197  10.205  0.2635  0.1168 -0.3693
  147MOL0     C19769   1.495   2.288  10.135  0.3915  0.0889  0.3994
  147MOL0     C19770   1.518   2.244   9.991 -0.7957 -0.1786  0.2364
  147MOL0     C19771   1.604   2.117   9.989 -0.8639 -0.2062 -0.5977
  147MOL0     C19772   1.600   2.057   9.843  1.0800  0.2682  0.0713
  147MOL0     C19773   1.464   2.027   9.786  0.3369 -0.0045 -0.6295
  147MOL0     C19774   1.355   2.008   9.738 -0.5757 -0.1539  0.2011
  147MOL0     C19775   1.211   2.092  10.262  0.5666 -0.7089 -0.5263
  147MOL0     C19776   1.072   2.072  10.274 -0.0281 -0.2386  0.1410
  147MOL0     C19777   1.019   1.973  10.372 -0.2064 -0.2040 -0.2775
  147MOL0     H19778   0.588   2.093  10.053  1.3580  0.4723 -1.1895
  147MOL0     H19779   0.337   2.135  10.095 -1.0070  1.2233  0.6843
  147MOL0     H19780   0.139   2.239  10.057 -0.3936 -0.6851  0.1670
  147MOL0     H19781   0.164   2.190  10.232  1.0861 -0.2053 -0.1113
  147MOL0     H19782  -0.021   2.430  10.157  0.5142  1.0095  2.4117
  147MOL0     H19783  -0.003   2.348  10.301 -2.7172 -1.1002 -0.1046
  147MOL0     H19784  -0.097   2.142  10.197  0.2948 -0.1173 -2.3590
  147MOL0     H19785  -0.125   2.233  10.046  1.7957  0.2788 -0.3488
  147MOL0     H19786  -0.243   2.315  10.312  2.1866  0.1646 -0.3364
  147MOL0     H19787  -0.289   2.386  10.173 -0.8443  0.9166  0.4871
  147MOL0     H19788  -0.372   2.171  10.079  2.8287 -0.2563  0.2493
  147MOL0     H19789  -0.367   2.099  10.234 -1.6395 -0.9680 -0.3162
  147MOL0     H19790  -0.481   2.289  10.345  1.1797 -1.1586 -0.2474
  147MOL0     H19791  -0.518   2.364  10.193 -0.5505 -1.2843 -0.5362
  147MOL0     H19792  -0.632   2.089  10.284 -1.0483 -0.8625 -1.6476
  147MOL0     H19793  -0.655   2.167  10.121 -1.3316 -3.5668  0.4950
  147MOL0     H19794  -0.743   2.372  10.258 -0.4649 -0.7692 -1.5774
  147MOL0     H19795  -0.838   2.235  10.204 -1.0720  1.7067  0.4381
  147MOL0     H19796  -0.836   2.037  10.421 -0.3657 -0.5604  1.2284
  147MOL0     H19797  -0.929   2.132  10.794 -0.4189 -1.1279 -0.8083
  147MOL0     H19798  -0.927   1.998  10.676 -1.9961  1.5930 -2.2699
  147MOL0     H19799  -0.673   2.108  10.797  1.6758 -1.5882  1.0789
  147MOL0     H19800  -0.773   1.989  10.889  1.7685 -0.8665  0.2459
  147MOL0     H19801  -0.718   1.907  10.611 -0.9433 -1.8720  1.5695
  147MOL0     H19802  -0.673   1.824  10.766  2.1461  1.9543  2.0700
  147MOL0     H19803  -0.488   1.857  10.641  1.0786 -0.8684  1.7110
  147MOL0     H19804  -0.470   1.972  10.770  1.4219 -0.9962 -1.1320
  147MOL0     H19805  -0.277   1.963  10.494  1.3840  0.5412  0.3777
  147MOL0     H19806  -0.070   2.077  10.528 -1.1968 -3.0155  2.1311
  147MOL0     H19807   0.262   2.100  10.587  1.2745  0.7145  3.5291
  147MOL0     H19808   0.508   2.132  10.584 -0.1806  0.2812  2.9656
  147MOL0     H19809   0.681   2.229  10.476 -0.5235 -0.6062 -1.1606
  147MOL0     H19810   0.806   2.354  10.515  0.3782  0.2132  4.2458
  147MOL0     H19811   0.732   2.218  10.756  2.1757  0.1730  1.6036
  147MOL0     H19812   0.776   2.110  10.612  0.9601  0.0364  0.6945
  147MOL0     H19813   0.982   2.177  10.749 -1.6962 -1.6777 -1.7998
  147MOL0     H19814   0.987   2.268  10.599  1.7979  0.0277  1.0041
  147MOL0     H19815   0.896   2.386  10.870 -0.3177 -0.7818  0.7983
  147MOL0     H19816   0.885   2.467  10.719 -4.6018 -2.9509  0.0098
  147MOL0     H19817   1.112   2.490  10.681 -1.3866  0.0788 -0.4809
  147MOL0     H19818   1.143   2.335  10.759 -0.9004 -0.5574  4.5372
  147MOL0     H19819   1.228   2.554  10.880  0.2221 -1.9293  0.5373
  147MOL0     H19820   1.060   2.578  10.924 -1.5803 -0.4479 -1.5023
  147MOL0     H19821   1.069   2.348  11.040 -0.9486  1.8628  2.9222
  147MOL0     H19822   1.179   2.473  11.109 -2.9608 -1.4622  2.0045
  147MOL0     H19823   1.279   2.237  11.096 -0.6371 -1.0026 -0.7948
  147MOL0     H19824   1.261   2.252  10.919  1.0052  0.1427 -0.1736
  147MOL0     H19825   0.432   2.562  10.581 -1.6616 -0.2586 -0.9699
  147MOL0     H19826   0.199   2.526  10.547  2.6704  2.5578 -0.0148
  147MOL0     H19827  -0.281   2.429  10.657  1.6537  0.1643 -0.1310
  147MOL0     H19828  -0.491   2.291  10.655 -0.3746 -1.4596 -1.0875
  147MOL0     H19829   0.432   2.524  10.228 -0.8467 -0.3322  0.1400
  147MOL0     H19830   0.675   2.485  10.184  1.5488 -1.5573 -1.6349
  147MOL0     H19831   0.993   2.321  10.057 -2.2782  0.0182  1.4552
  147MOL0     H19832   1.244   2.349  10.059  1.5701 -1.0957  0.4104
  147MOL0     H19833   1.593   2.299  10.183 -0.4322 -0.5628  2.3761
  147MOL0     H19834   1.453   2.389  10.138 -0.3048 -0.1991  0.6890
  147MOL0     H19835   1.572   2.323   9.937 -2.5192 -1.0609 -2.9934
  147MOL0     H19836   1.422   2.229   9.941 -0.3189 -3.2030  0.0942
  147MOL0     H19837   1.567   2.047  10.064  1.7580 -1.6912 -0.5629
  147MOL0     H19838   1.708   2.144  10.011 -0.8197  0.5453 -1.6172
  147MOL0     H19839   1.644   2.129   9.774 -0.6510  0.8074 -0.5152
  147MOL0     H19840   1.650   1.960   9.845 -0.2744 -0.4644 -0.7731
  147MOL0     H19841   1.262   1.990   9.687  0.2679  1.0016 -1.8649
  147MOL0     H19842   1.283   2.029  10.314  0.4304 -1.3988 -1.1533
  147MOL0     H19843   0.938   1.918  10.325 -2.1486  2.5172 -0.3404
  147MOL0     H19844   1.092   1.898  10.405 -0.2880 -1.0347 -1.9176
  147MOL0     H19845   0.989   2.027  10.462 -1.5944 -0.4049 -0.6031
  148MOL0     O19846   8.734   3.488   8.104 -0.2976 -0.0983 -0.1729
  148MOL0     C19847   8.651   3.512   8.190  0.5466 -0.2955 -0.1485
  148MOL0     O19848   8.680   3.566   8.316 -0.2102  0.0721  0.0540
  148MOL0     C19849   8.810   3.581   8.344 -0.3515  0.4742  1.0049
  148MOL0     C19850   8.869   3.486   8.432 -0.0192 -0.5271  0.1734
  148MOL0     C19851   9.004   3.498   8.470  0.0469  0.7610  1.4664
  148MOL0     C19852   9.080   3.603   8.422 -0.9873 -0.7104 -0.2428
  148MOL0     O19853   9.209   3.618   8.470  0.3754 -0.2370  0.1840
  148MOL0     C19854   9.306   3.707   8.403  1.1231  0.7840 -0.3801
  148MOL0     C19855   9.425   3.735   8.495 -0.3447 -0.5610 -0.1173
  148MOL0     C19856   9.538   3.810   8.419  0.3922 -0.2768  0.8982
  148MOL0     C19857   9.628   3.895   8.496  0.1693 -0.3463 -0.5994
  148MOL0     C19858   9.698   3.996   8.403  0.1964  0.9689  0.1881
  148MOL0     C19859   9.783   4.081   8.478  0.6303 -1.1290  0.0500
  148MOL0     C19860   9.837   4.192   8.391  0.9381  0.7743  0.3388
  148MOL0     C19861   9.927   4.290   8.467  0.7061  0.3693  0.0292
  148MOL0     N19862  10.016   4.357   8.372 -0.7555  0.1733 -0.3272
  148MOL0     C19863   9.978   4.474   8.319  0.2645  0.1638  0.5425
  148MOL0     C19864  10.073   4.511   8.240 -0.0431 -0.5838  0.2506
  148MOL0     C19865  10.076   4.632   8.153 -0.2760  0.2724 -0.3211
  148MOL0     C19866  10.195   4.716   8.199  0.1940  0.5215  0.8509
  148MOL0     C19867  10.227   4.813   8.084  0.0932  0.2812 -0.1672
  148MOL0     C19868  10.346   4.892   8.112  0.2985  0.9294 -0.6473
  148MOL0     O19869  10.457   4.799   8.108 -0.3220 -0.7692  0.0066
  148MOL0     C19870  10.582   4.848   8.153 -0.7624  0.5041  0.0858
  148MOL0     C19871  10.688   4.759   8.170  0.2866 -0.4414 -0.0610
  148MOL0     C19872  10.825   4.800   8.196 -0.0803  0.2949 -0.2174
  148MOL0     C19873  10.850   4.937   8.210  0.4017 -0.3271 -0.1076
  148MOL0     C19874  10.986   4.978   8.240 -0.9832  0.2453 -0.8098
  148MOL0     O19875  11.079   4.883   8.282  0.1511 -0.4546  0.4777
  148MOL0     C19876  11.216   4.905   8.262  0.3581 -0.6173  0.4996
  148MOL0     C19877  11.265   4.962   8.141  0.7657  0.1183 -0.0377
  148MOL0     C19878  11.396   4.980   8.119 -0.8515 -0.2456 -1.2444
  148MOL0     C19879  11.495   4.949   8.219 -0.1460 -0.2944  1.1013
  148MOL0     O19880  11.631   4.965   8.204 -0.2326 -0.2735 -0.3155
  148MOL0     C19881  11.682   5.023   8.083 -0.2167 -0.5891 -0.4779
  148MOL0     C19882  11.820   4.971   8.049  0.0831 -0.1966  0.1612
  148MOL0     C19883  11.932   5.042   8.127 -0.4540 -0.2493 -0.2337
  148MOL0     C19884  11.964   5.187   8.076  0.4800 -0.2370 -1.0148
  148MOL0     C19885  12.112   5.236   8.097  0.1114 -0.0268 -0.6322
  148MOL0     C19886  12.214   5.201   7.987  0.8564  0.0938  0.5707
  148MOL0     C19887  12.208   5.269   7.855  0.4023  0.3347 -0.1424
  148MOL0     C19888  12.322   5.237   7.758 -0.2915  0.6488 -0.7171
  148MOL0    Cl19889  12.470   5.264   7.841  0.3633 -0.1050  0.1337
  148MOL0     C19890  11.448   4.903   8.346 -0.6103 -0.9788  0.8967
  148MOL0     C19891  11.309   4.887   8.361 -0.7102  0.4807 -1.1418
  148MOL0     O19892  11.019   5.089   8.203  0.0037 -0.7089  0.2723
  148MOL0     C19893  10.746   5.026   8.197 -0.2185  0.2998 -0.4952
  148MOL0     C19894  10.617   4.983   8.167 -0.2460  0.0275  0.2990
  148MOL0     N19895  10.172   4.420   8.259  0.1309 -0.5659 -0.0401
  148MOL0     N19896  10.144   4.325   8.333  0.5840 -0.3231  0.2123
  148MOL0     C19897   9.033   3.693   8.325  0.4368  0.4787 -0.1208
  148MOL0     C19898   8.898   3.685   8.297  0.2976  0.3137  0.6518
  148MOL0     C19899   8.507   3.513   8.158  0.7544 -0.5031  0.0714
  148MOL0     C19900   8.420   3.538   8.266  0.3198  0.8850 -0.4169
  148MOL0     C19901   8.287   3.511   8.255  0.7831  0.3663 -0.1792
  148MOL0     C19902   8.227   3.493   8.132  0.7576 -0.1422 -0.8856
  148MOL0     O19903   8.090   3.467   8.115 -0.4178 -0.3855  0.4771
  148MOL0     C19904   8.020   3.388   8.216 -0.7275 -1.0951 -0.0330
  148MOL0     C19905   8.033   3.229   8.203  0.4159 -0.3553 -0.5710
  148MOL0     C19906   7.995   3.187   8.065 -0.0467 -0.3741 -0.2022
  148MOL0     C19907   7.848   3.215   8.028 -0.1265 -0.3772 -0.5719
  148MOL0     C19908   7.831   3.153   7.902  0.3974  0.5253 -1.4640
  148MOL0     C19909   7.825   3.099   7.793  0.9130  0.5493 -0.5326
  148MOL0     C19910   8.309   3.489   8.022  0.6198 -0.5890 -0.4859
  148MOL0     C19911   8.446   3.493   8.035  0.2292  0.4508  0.2464
  148MOL0     C19912   8.523   3.471   7.904 -0.2890 -0.1101 -0.0196
  148MOL0     H19913   8.810   3.398   8.457  0.1867 -0.0734  2.4582
  148MOL0     H19914   9.045   3.424   8.538  0.4565  1.6226  2.1645
  148MOL0     H19915   9.338   3.665   8.307  0.9678 -4.6668  1.6042
  148MOL0     H19916   9.265   3.806   8.381 -0.4401 -0.2019 -2.1591
  148MOL0     H19917   9.472   3.640   8.524  0.5040 -0.7415 -1.9192
  148MOL0     H19918   9.400   3.790   8.586 -0.8251  1.2059 -1.2758
  148MOL0     H19919   9.493   3.871   8.340  1.6427  1.4722  1.4941
  148MOL0     H19920   9.595   3.726   8.378 -2.0150 -1.5033 -0.1207
  148MOL0     H19921   9.581   3.942   8.583  0.1353 -1.9171  0.2801
  148MOL0     H19922   9.698   3.824   8.542 -1.2246 -1.6967 -0.4864
  148MOL0     H19923   9.766   3.931   8.347 -0.5380  0.7468 -0.4648
  148MOL0     H19924   9.630   4.054   8.339 -0.1041  0.4595  0.0450
  148MOL0     H19925   9.720   4.116   8.560  0.2268  1.3634 -1.2286
  148MOL0     H19926   9.863   4.023   8.524  0.7746  0.2487  1.6299
  148MOL0     H19927   9.763   4.259   8.348  1.5584  1.7484  0.7534
  148MOL0     H19928   9.889   4.151   8.303 -3.1783 -0.5096 -1.7402
  148MOL0     H19929   9.862   4.363   8.516 -2.4989 -0.9399 -1.9358
  148MOL0     H19930   9.987   4.242   8.545 -0.0037  2.6371  2.0748
  148MOL0     H19931   9.880   4.519   8.325 -0.6874 -1.6515 -0.3653
  148MOL0     H19932  10.097   4.593   8.053  3.7381  2.4532 -0.5257
  148MOL0     H19933   9.986   4.695   8.153 -2.0144 -2.0561 -0.6803
  148MOL0     H19934  10.171   4.773   8.289  1.7719  0.4795  1.3339
  148MOL0     H19935  10.282   4.655   8.224  2.4060  2.8123 -0.7464
  148MOL0     H19936  10.134   4.871   8.078 -1.9349 -2.8292 -1.1269
  148MOL0     H19937  10.238   4.762   7.987 -2.0681 -0.8447  0.1222
  148MOL0     H19938  10.336   4.944   8.208 -0.7852 -1.1620  0.4163
  148MOL0     H19939  10.356   4.974   8.039 -0.1472  2.7354  1.2410
  148MOL0     H19940  10.661   4.654   8.172  1.1406 -0.6535  0.9798
  148MOL0     H19941  10.916   4.740   8.204  1.0078  2.1242  3.9787
  148MOL0     H19942  11.189   4.984   8.066 -1.7752 -1.5149  1.8869
  148MOL0     H19943  11.429   5.021   8.024  1.7356  0.1176 -0.2724
  148MOL0     H19944  11.634   4.986   7.992  4.2132 -4.1579 -1.7273
  148MOL0     H19945  11.688   5.131   8.096  0.9559 -0.6262 -0.6695
  148MOL0     H19946  11.822   4.863   8.066 -4.6360 -0.5705 -0.2251
  148MOL0     H19947  11.833   4.980   7.941  2.8385 -0.2228  0.4284
  148MOL0     H19948  11.900   5.033   8.232 -3.1986 -1.7699 -1.0954
  148MOL0     H19949  12.025   4.988   8.104 -1.1278 -1.3029 -0.5758
  148MOL0     H19950  11.893   5.246   8.135  1.5006  0.6180 -0.6017
  148MOL0     H19951  11.945   5.199   7.969  0.2915  1.2593 -0.8299
  148MOL0     H19952  12.146   5.176   8.183 -0.0036  1.8690  0.7973
  148MOL0     H19953  12.126   5.341   8.123  1.7449 -0.3273 -0.1375
  148MOL0     H19954  12.317   5.192   8.024  1.1887 -1.1377 -0.5626
  148MOL0     H19955  12.190   5.098   7.959  3.2880 -1.6827  4.1925
  148MOL0     H19956  12.216   5.372   7.890  0.1216  0.1899  0.3546
  148MOL0     H19957  12.110   5.243   7.814 -0.0351 -2.3558  2.2670
  148MOL0     H19958  12.308   5.135   7.723 -2.4029  1.1118 -1.3645
  148MOL0     H19959  12.301   5.303   7.673 -0.3505  0.5019 -0.8166
  148MOL0     H19960  11.518   4.889   8.427  0.9119 -0.4936 -0.2842
  148MOL0     H19961  11.271   4.850   8.457  0.8026  0.9671 -0.3301
  148MOL0     H19962  10.774   5.130   8.209  0.2301  0.2147 -0.7491
  148MOL0     H19963  10.540   5.052   8.133 -1.2484 -0.9371  0.5164
  148MOL0     H19964   9.085   3.768   8.267  2.2820 -0.2184  0.5546
  148MOL0     H19965   8.859   3.745   8.216  2.9148 -0.7183 -1.5541
  148MOL0     H19966   8.446   3.561   8.369 -4.2061 -0.1337  1.1648
  148MOL0     H19967   8.218   3.525   8.338  2.1218 -1.1570  1.2720
  148MOL0     H19968   7.914   3.409   8.196 -0.1413 -0.7916 -3.5125
  148MOL0     H19969   8.052   3.419   8.316  2.9979 -1.1664 -1.0679
  148MOL0     H19970   7.966   3.179   8.274  1.7919  0.4160  1.3656
  148MOL0     H19971   8.139   3.204   8.214  0.6843  0.6063 -0.8224
  148MOL0     H19972   8.019   3.081   8.059 -0.6593 -0.6137  1.1705
  148MOL0     H19973   8.060   3.235   7.991  2.3947 -4.5935 -1.1029
  148MOL0     H19974   7.785   3.164   8.102  0.5897 -2.2881 -1.2054
  148MOL0     H19975   7.829   3.322   8.035  3.3185  0.2463  1.6665
  148MOL0     H19976   7.820   3.041   7.702  0.0268 -1.9168  0.9855
  148MOL0     H19977   8.258   3.475   7.927 -3.6717  1.6977  1.1786
  148MOL0     H19978   8.456   3.468   7.817  0.3750  0.5620 -0.5761
  148MOL0     H19979   8.604   3.545   7.901  1.1543 -1.3120  3.7908
  148MOL0     H19980   8.578   3.377   7.907  0.0558  0.0124 -1.6377
  149MOL0     O19981   2.492   8.465  10.956  0.5583 -0.8326 -0.2395
  149MOL0     C19982   2.481   8.391  11.054  1.3372  1.1220 -0.7102
  149MOL0     O19983   2.579   8.333  11.126 -0.4974  0.2480 -0.4833
  149MOL0     C19984   2.700   8.359  11.070 -0.0739  0.3437 -0.3538
  149MOL0     C19985   2.761   8.474  11.115 -0.0345 -0.8601  0.2352
  149MOL0     C19986   2.869   8.519  11.042 -0.2194 -0.1933 -0.2101
  149MOL0     C19987   2.911   8.471  10.922 -0.5805  0.8899 -0.5293
  149MOL0     O19988   3.017   8.525  10.846  0.0121 -0.4935  0.3597
  149MOL0     C19989   3.114   8.611  10.913 -0.4146 -0.3368 -0.0678
  149MOL0     C19990   3.201   8.664  10.796  0.0219  0.0442  0.3271
  149MOL0     C19991   3.336   8.720  10.860  0.3236  0.4250  0.5526
  149MOL0     C19992   3.428   8.770  10.745  0.3423 -0.0780 -0.2817
  149MOL0     C19993   3.537   8.855  10.795 -1.2404 -0.3760  0.0267
  149MOL0     C19994   3.635   8.879  10.681  0.3915 -0.1116  0.3614
  149MOL0     C19995   3.773   8.931  10.748  0.0955 -0.9491  0.5131
  149MOL0     C19996   3.771   9.082  10.772  1.1211  0.3602 -0.3433
  149MOL0     N19997   3.906   9.132  10.811  0.1036  1.0996 -0.5084
  149MOL0     C19998   3.945   9.260  10.783 -0.2104 -0.4650  0.7979
  149MOL0     C19999   4.063   9.266  10.837  0.6670 -0.4328 -0.3710
  149MOL0     C20000   4.151   9.384  10.818  0.0304  0.3741  0.0536
  149MOL0     C20001   4.293   9.353  10.861  1.0498 -0.0804  0.1041
  149MOL0     C20002   4.375   9.477  10.841  0.4526  0.0525 -0.5657
  149MOL0     C20003   4.509   9.461  10.913 -0.2446 -0.0385  0.0935
  149MOL0     O20004   4.602   9.378  10.836 -0.1584  0.7334 -0.7418
  149MOL0     C20005   4.716   9.446  10.807  0.8199 -0.4337 -1.0362
  149MOL0     C20006   4.820   9.476  10.895  0.1847  0.0378 -0.3054
  149MOL0     C20007   4.939   9.532  10.864 -0.2929 -0.0656  0.0304
  149MOL0     C20008   4.973   9.544  10.728 -0.2618 -0.4293 -0.9220
  149MOL0     C20009   5.113   9.589  10.693  0.1554  0.1684 -0.3280
  149MOL0     O20010   5.203   9.575  10.786 -0.0158 -0.2622 -0.9538
  149MOL0     C20011   5.323   9.635  10.766  0.3296 -0.4543 -0.7628
  149MOL0     C20012   5.355   9.773  10.725  0.2488  0.4584 -0.0315
  149MOL0     C20013   5.484   9.829  10.716  0.1152 -0.0283 -0.8115
  149MOL0     C20014   5.597   9.751  10.751 -0.4380  0.1058  0.9056
  149MOL0     O20015   5.723   9.794  10.754 -0.0214 -0.3736 -0.2092
  149MOL0     C20016   5.745   9.897  10.848 -0.3621 -0.3821 -0.0694
  149MOL0     C20017   5.890   9.897  10.890 -0.2457 -0.8149  1.0279
  149MOL0     C20018   5.957   9.766  10.931 -0.0729 -0.2778  0.6529
  149MOL0     C20019   6.064   9.774  11.040 -0.5309  0.0018 -0.6573
  149MOL0     C20020   6.200   9.833  10.988 -0.2198  0.4167 -0.0330
  149MOL0     C20021   6.288   9.832  11.106  0.2192 -0.9349  0.3508
  149MOL0     C20022   6.430   9.865  11.046  0.0894  0.2014  0.4169
  149MOL0     C20023   6.532   9.897  11.161  0.3013 -0.4708 -0.1123
  149MOL0    Cl20024   6.581   9.742  11.235  0.0993 -0.1497  0.6162
  149MOL0     C20025   5.564   9.616  10.790  0.3736  0.2767 -0.6757
  149MOL0     C20026   5.431   9.561  10.790  0.5322  0.1717  0.5957
  149MOL0     O20027   5.127   9.645  10.585  0.0481 -0.0368  0.1119
  149MOL0     C20028   4.868   9.520  10.634  0.7741  0.6679 -0.9718
  149MOL0     C20029   4.738   9.480  10.677 -0.0045 -0.1563 -0.1354
  149MOL0     N20030   4.095   9.140  10.889 -0.1048  0.6394  0.9602
  149MOL0     N20031   3.996   9.064  10.882  0.1261  0.5931  0.2003
  149MOL0     C20032   2.847   8.352  10.872  0.9232  0.2403  0.4385
  149MOL0     C20033   2.748   8.294  10.954 -0.1985 -0.2703  0.7744
  149MOL0     C20034   2.344   8.355  11.097  0.5651  0.1634  0.1081
  149MOL0     C20035   2.338   8.241  11.178  0.3285 -0.2117 -0.9092
  149MOL0     C20036   2.215   8.188  11.214  0.1458  0.5694 -0.5001
  149MOL0     C20037   2.096   8.233  11.166  0.2091 -0.9591 -0.1448
  149MOL0     O20038   1.975   8.162  11.181 -0.2629  0.0063  1.0856
  149MOL0     C20039   1.976   8.009  11.181 -0.2413 -0.4357  0.0946
  149MOL0     C20040   1.868   7.965  11.271 -0.2479 -0.5058  1.4902
  149MOL0     C20041   1.734   7.971  11.198 -0.6180 -0.7952 -0.1417
  149MOL0     C20042   1.634   7.896  11.273 -0.1701  0.1084  0.5705
  149MOL0     C20043   1.612   7.959  11.403 -0.5500  0.1776 -0.2609
  149MOL0     C20044   1.579   8.007  11.511  0.3025 -0.2150  0.2019
  149MOL0     C20045   2.100   8.352  11.097 -0.1303 -0.1277 -0.0500
  149MOL0     C20046   2.223   8.414  11.066  0.4766  0.3567  0.5544
  149MOL0     C20047   2.207   8.555  11.003 -0.1691  0.6721 -0.1777
  149MOL0     H20048   2.725   8.528  11.202  3.3118 -2.2906  2.7485
  149MOL0     H20049   2.917   8.612  11.073 -3.4364  1.2492  0.8996
  149MOL0     H20050   3.084   8.699  10.970 -0.2319 -0.3613  0.0649
  149MOL0     H20051   3.176   8.555  10.983 -2.3164 -1.1707  1.0138
  149MOL0     H20052   3.138   8.739  10.745 -1.6028 -2.1612 -1.0956
  149MOL0     H20053   3.222   8.596  10.713 -0.0079  1.6856 -1.0932
  149MOL0     H20054   3.403   8.655  10.917  2.7320  0.8958 -1.5465
  149MOL0     H20055   3.313   8.809  10.918 -1.7143  0.3183  0.0064
  149MOL0     H20056   3.462   8.678  10.695  1.0604 -1.7897  3.0260
  149MOL0     H20057   3.363   8.827  10.679 -1.5541  0.0820  1.6155
  149MOL0     H20058   3.501   8.950  10.833  1.4386 -0.0106  1.9774
  149MOL0     H20059   3.594   8.802  10.872 -0.7748  0.8892  0.5797
  149MOL0     H20060   3.670   8.789  10.631  2.5338 -0.3712  2.1367
  149MOL0     H20061   3.594   8.956  10.615  0.9381  1.2708  1.5618
  149MOL0     H20062   3.852   8.915  10.674  0.3599 -0.2741  0.6452
  149MOL0     H20063   3.804   8.882  10.841  0.3286 -0.7646  0.5351
  149MOL0     H20064   3.742   9.134  10.680 -0.8819  1.7012  0.9766
  149MOL0     H20065   3.700   9.107  10.851  2.3781 -3.2835  2.2077
  149MOL0     H20066   3.895   9.324  10.711 -0.6754 -1.6376  0.0661
  149MOL0     H20067   4.165   9.416  10.714  0.6200 -2.9976 -1.0309
  149MOL0     H20068   4.109   9.467  10.875 -2.5014 -1.0527  0.4030
  149MOL0     H20069   4.287   9.338  10.969 -0.5806 -1.2240 -0.1017
  149MOL0     H20070   4.344   9.270  10.811  0.8896  0.1540 -0.4566
  149MOL0     H20071   4.338   9.571  10.885  3.5922  1.8855 -1.5434
  149MOL0     H20072   4.395   9.501  10.737  1.2818  1.7379 -0.0536
  149MOL0     H20073   4.494   9.428  11.016 -1.5833 -1.9491 -0.6452
  149MOL0     H20074   4.551   9.562  10.915  1.5757 -0.5919 -2.9189
  149MOL0     H20075   4.799   9.467  11.001  2.8339  0.0011  0.2757
  149MOL0     H20076   5.009   9.558  10.943 -1.5543 -0.0229  1.1746
  149MOL0     H20077   5.271   9.839  10.709 -0.1320  0.1612  0.7011
  149MOL0     H20078   5.493   9.935  10.694  0.2723  0.1354  0.0043
  149MOL0     H20079   5.721   9.995  10.807 -0.5127 -0.4132 -0.0568
  149MOL0     H20080   5.683   9.887  10.938  0.9673  2.2058  1.2412
  149MOL0     H20081   5.949   9.920  10.800  0.2590 -2.5580  0.8575
  149MOL0     H20082   5.904   9.975  10.964 -0.9797  2.8780 -2.3836
  149MOL0     H20083   5.872   9.705  10.963 -1.1622  1.1373  0.5458
  149MOL0     H20084   5.995   9.712  10.844  0.2581  1.5586 -0.3852
  149MOL0     H20085   6.080   9.669  11.066 -0.4145  0.4550  1.2485
  149MOL0     H20086   6.022   9.819  11.131  0.3427 -3.0428  1.4025
  149MOL0     H20087   6.196   9.938  10.960  0.1051  0.3236 -0.4317
  149MOL0     H20088   6.249   9.778  10.907  1.4300  0.6223  0.7857
  149MOL0     H20089   6.259   9.915  11.171 -0.3143  1.5117 -2.7417
  149MOL0     H20090   6.284   9.739  11.163 -0.2977 -1.7062 -0.8952
  149MOL0     H20091   6.417   9.959  10.991 -2.3291 -0.6237 -0.5526
  149MOL0     H20092   6.458   9.786  10.977 -1.5012 -0.5736  0.6102
  149MOL0     H20093   6.620   9.955  11.132 -0.7016  1.1585 -0.0002
  149MOL0     H20094   6.490   9.967  11.234  0.0211 -0.9272  0.1652
  149MOL0     H20095   5.635   9.539  10.819  0.1736  0.1488 -0.5181
  149MOL0     H20096   5.420   9.456  10.816  3.8688 -0.5110 -0.3977
  149MOL0     H20097   4.880   9.540  10.528  0.8952  0.3973 -1.0097
  149MOL0     H20098   4.668   9.432  10.609 -1.7330  0.7585  0.9239
  149MOL0     H20099   2.870   8.299  10.780  0.1502 -1.2278  1.0510
  149MOL0     H20100   2.685   8.214  10.917 -1.9859  0.8949  1.1550
  149MOL0     H20101   2.422   8.191  11.226  1.4501  3.2032  1.0561
  149MOL0     H20102   2.223   8.096  11.271 -0.8323  0.9456  0.2648
  149MOL0     H20103   2.069   7.976  11.228 -0.7552 -2.4462 -0.2119
  149MOL0     H20104   1.983   7.977  11.077  0.7845  0.5948 -0.1708
  149MOL0     H20105   1.862   8.018  11.367 -4.2072  1.4544  0.3221
  149MOL0     H20106   1.891   7.861  11.299  1.3869 -0.7071 -0.3576
  149MOL0     H20107   1.749   7.923  11.101  0.9363 -0.7999  0.0794
  149MOL0     H20108   1.703   8.075  11.186  0.4133 -0.6048 -1.4476
  149MOL0     H20109   1.538   7.881  11.224  0.3362 -0.5764 -0.2398
  149MOL0     H20110   1.668   7.792  11.284  0.8881  0.2007 -1.4142
  149MOL0     H20111   1.543   8.045  11.604 -2.0139 -0.2919 -0.6151
  149MOL0     H20112   2.010   8.398  11.057 -0.2601 -1.4149 -1.3007
  149MOL0     H20113   2.119   8.599  11.051  0.4972  0.9225  0.8720
  149MOL0     H20114   2.295   8.618  11.021  0.0186  0.2518  0.3997
  149MOL0     H20115   2.190   8.551  10.895 -0.7382  0.5674 -0.0880
  150MOL0     O20116   0.326   1.336  10.313 -0.0963  0.1909  0.2588
  150MOL0     C20117   0.262   1.357  10.420  0.8024  0.6544 -1.1064
  150MOL0     O20118   0.322   1.357  10.550  0.4349  0.3757 -0.5979
  150MOL0     C20119   0.449   1.313  10.569  0.0769 -0.0918  0.4591
  150MOL0     C20120   0.484   1.185  10.516 -0.2535  0.1833 -0.0293
  150MOL0     C20121   0.608   1.142  10.545  0.3327 -0.2186 -0.3707
  150MOL0     C20122   0.707   1.221  10.612  0.4659  0.1180 -0.5751
  150MOL0     O20123   0.836   1.172  10.614 -0.0437  0.1723 -0.1939
  150MOL0     C20124   0.927   1.220  10.710  0.0521 -0.3589  0.9984
  150MOL0     C20125   1.067   1.147  10.706  0.3900 -0.3528 -0.1699
  150MOL0     C20126   1.157   1.201  10.822 -0.5733  0.5261  0.3078
  150MOL0     C20127   1.303   1.156  10.795  0.2422  0.0999 -1.1442
  150MOL0     C20128   1.384   1.139  10.925 -0.3480 -0.6406  0.3902
  150MOL0     C20129   1.543   1.140  10.900  0.6661  0.3789  0.6412
  150MOL0     C20130   1.606   1.111  11.030  0.0928  0.2974  0.2773
  150MOL0     C20131   1.754   1.088  11.021 -0.0869 -0.5326  0.6116
  150MOL0     N20132   1.837   1.201  10.973 -0.8084 -0.4375 -0.6851
  150MOL0     C20133   1.816   1.336  10.985 -0.1437  0.2112 -0.6893
  150MOL0     C20134   1.912   1.397  10.903 -0.4484 -0.0697 -0.7279
  150MOL0     C20135   1.909   1.542  10.869 -0.1835 -0.5180 -0.5085
  150MOL0     C20136   2.044   1.613  10.843 -0.2009  0.2768  0.1976
  150MOL0     C20137   2.049   1.665  10.699 -0.9357  0.4718 -0.9890
  150MOL0     C20138   2.194   1.722  10.671  0.3270 -0.0164  0.1822
  150MOL0     O20139   2.236   1.813  10.774 -0.8909 -0.2559 -0.5890
  150MOL0     C20140   2.343   1.901  10.752 -0.4316  0.0511 -0.3483
  150MOL0     C20141   2.341   2.015  10.831 -0.3763  1.1483 -0.8081
  150MOL0     C20142   2.451   2.101  10.826  0.5027 -0.9122  0.4754
  150MOL0     C20143   2.553   2.092  10.721  0.6331 -0.7654 -0.7484
  150MOL0     C20144   2.660   2.191  10.698  0.3466 -0.1775  0.8800
  150MOL0     O20145   2.754   2.169  10.598 -0.8756  0.5314 -1.3734
  150MOL0     C20146   2.872   2.235  10.590  0.6270 -0.0998  0.3946
  150MOL0     C20147   2.940   2.314  10.693 -0.2665  0.6346 -0.8877
  150MOL0     C20148   3.080   2.345  10.672 -0.9291  0.6874 -0.7362
  150MOL0     C20149   3.142   2.335  10.550 -0.1764 -0.3540 -0.6364
  150MOL0     O20150   3.258   2.380  10.504 -1.1094  0.2836 -0.4316
  150MOL0     C20151   3.325   2.481  10.580  0.2000  0.1959 -0.2318
  150MOL0     C20152   3.458   2.496  10.495 -0.2792  0.4610 -0.5702
  150MOL0     C20153   3.546   2.616  10.550  0.1749 -0.0508  0.0139
  150MOL0     C20154   3.666   2.637  10.444  0.3879  1.1389  0.0265
  150MOL0     C20155   3.746   2.760  10.434 -0.2495 -0.4207 -0.1158
  150MOL0     C20156   3.650   2.890  10.432  0.9001 -0.7764  0.3190
  150MOL0     C20157   3.718   3.020  10.399 -0.9457  0.0952  0.2685
  150MOL0     C20158   3.605   3.111  10.356 -0.2457  0.4851 -0.8222
  150MOL0    Cl20159   3.527   3.052  10.197 -0.1166 -0.2483 -0.1829
  150MOL0     C20160   3.077   2.274  10.446  0.1524  0.0685  0.2167
  150MOL0     C20161   2.943   2.218  10.467  0.1860  0.5422 -0.3726
  150MOL0     O20162   2.655   2.287  10.774 -0.5361 -0.1344 -0.8632
  150MOL0     C20163   2.534   1.993  10.623 -0.6062  0.3171 -0.0496
  150MOL0     C20164   2.436   1.891  10.649 -0.2264  0.4971 -0.0491
  150MOL0     N20165   1.975   1.293  10.844 -1.0938 -0.8438  0.1522
  150MOL0     N20166   1.939   1.179  10.889  0.4585 -0.3301 -0.2677
  150MOL0     C20167   0.671   1.354  10.650 -0.4720 -0.3027 -0.0991
  150MOL0     C20168   0.541   1.392  10.630  0.2448 -0.3553 -0.5950
  150MOL0     C20169   0.119   1.353  10.409 -0.3289  0.7971 -0.3240
  150MOL0     C20170   0.048   1.334  10.529 -0.0493 -0.8694 -0.0319
  150MOL0     C20171  -0.094   1.319  10.535  0.0492 -1.1100  0.1295
  150MOL0     C20172  -0.161   1.322  10.417  0.6085 -0.3929 -0.3543
  150MOL0     O20173  -0.298   1.311  10.434 -0.2547  0.4295 -0.2882
  150MOL0     C20174  -0.372   1.290  10.320  0.2789 -0.1885 -0.0454
  150MOL0     C20175  -0.517   1.272  10.364  0.2251  0.0712  0.8690
  150MOL0     C20176  -0.536   1.223  10.507 -0.0642 -0.3839 -0.5226
  150MOL0     C20177  -0.670   1.174  10.551  0.6730 -0.3010 -0.4227
  150MOL0     C20178  -0.720   1.063  10.464  0.6419 -0.1306 -0.2597
  150MOL0     C20179  -0.752   0.982  10.384 -0.4816 -0.5063 -0.1026
  150MOL0     C20180  -0.093   1.339  10.292  0.3466 -0.8364 -0.0036
  150MOL0     C20181   0.043   1.369  10.287  0.2151  0.8677 -0.6467
  150MOL0     C20182   0.088   1.393  10.149  0.3253 -0.9475 -0.0450
  150MOL0     H20183   0.410   1.129  10.460  0.3925  1.0267 -1.7764
  150MOL0     H20184   0.633   1.043  10.508  0.9875  0.8132 -2.9391
  150MOL0     H20185   0.955   1.322  10.681  4.9754 -1.7800 -0.3130
  150MOL0     H20186   0.888   1.207  10.811  2.6002 -0.4024  2.0496
  150MOL0     H20187   1.117   1.151  10.609 -1.2367 -0.9516 -1.0760
  150MOL0     H20188   1.047   1.040  10.714 -1.7752 -0.1840 -2.0114
  150MOL0     H20189   1.120   1.154  10.913  1.8537 -1.4111  0.3993
  150MOL0     H20190   1.155   1.310  10.834  2.4118  0.8503 -1.1730
  150MOL0     H20191   1.292   1.060  10.743 -0.8913 -0.9320  0.8859
  150MOL0     H20192   1.342   1.230  10.724 -1.5752  1.7652 -0.5042
  150MOL0     H20193   1.365   1.215  11.002 -4.7329  1.1157 -2.0770
  150MOL0     H20194   1.353   1.040  10.961 -0.5004 -0.7609 -0.0731
  150MOL0     H20195   1.569   1.068  10.822  0.1400  2.7444 -1.8781
  150MOL0     H20196   1.570   1.237  10.858  1.1130  0.9652  2.1881
  150MOL0     H20197   1.570   1.015  11.069  0.9470 -0.7104 -1.2620
  150MOL0     H20198   1.583   1.188  11.103 -0.7238  1.4508 -1.1444
  150MOL0     H20199   1.801   1.065  11.117  0.3656  0.7898  0.7328
  150MOL0     H20200   1.768   0.999  10.960 -2.2565  1.6568 -3.5110
  150MOL0     H20201   1.727   1.382  11.028 -1.2573 -2.1317 -0.3137
  150MOL0     H20202   1.838   1.560  10.788 -0.6638  0.3707  0.0968
  150MOL0     H20203   1.858   1.600  10.947 -0.4250 -2.0213  0.4899
  150MOL0     H20204   2.055   1.696  10.913  2.5480  0.3348 -0.2194
  150MOL0     H20205   2.126   1.545  10.869 -1.4240 -1.1427  0.4823
  150MOL0     H20206   1.971   1.738  10.680  1.2239  3.3656  0.5235
  150MOL0     H20207   2.037   1.572  10.641 -0.2708 -1.8599  2.3244
  150MOL0     H20208   2.186   1.784  10.582 -1.1157 -0.8518 -0.3019
  150MOL0     H20209   2.262   1.637  10.662  0.0288 -0.0411 -2.4405
  150MOL0     H20210   2.272   2.022  10.915 -2.5259  0.2634 -2.4280
  150MOL0     H20211   2.458   2.176  10.904 -3.4242  1.0001 -0.7897
  150MOL0     H20212   2.897   2.341  10.789  1.6579  2.3061 -0.4235
  150MOL0     H20213   3.136   2.403  10.744 -1.8395  1.1947 -0.4232
  150MOL0     H20214   3.276   2.578  10.588 -0.3720 -0.2172  1.5899
  150MOL0     H20215   3.358   2.445  10.678 -0.2038  1.0820  0.2390
  150MOL0     H20216   3.526   2.411  10.502 -2.6397 -1.7463 -2.3392
  150MOL0     H20217   3.428   2.505  10.390 -1.4167 -0.7136 -0.3617
  150MOL0     H20218   3.485   2.704  10.571 -1.6008 -1.3264  0.4008
  150MOL0     H20219   3.581   2.590  10.651  1.6285 -0.8643 -0.6595
  150MOL0     H20220   3.617   2.616  10.349  3.2583 -5.2037 -0.5813
  150MOL0     H20221   3.738   2.555  10.451  1.0142  1.7121  0.4635
  150MOL0     H20222   3.810   2.753  10.345 -0.6479  1.7860 -0.6431
  150MOL0     H20223   3.809   2.775  10.522 -1.4037  1.2271  0.4692
  150MOL0     H20224   3.569   2.864  10.363 -0.2354 -1.6572  1.9334
  150MOL0     H20225   3.605   2.898  10.531  1.3582 -1.9254  0.6326
  150MOL0     H20226   3.798   3.013  10.325 -0.3079  1.2516  0.8288
  150MOL0     H20227   3.767   3.052  10.491 -1.7492  1.0288  0.3942
  150MOL0     H20228   3.531   3.102  10.437  0.3620  0.3053 -0.2803
  150MOL0     H20229   3.629   3.214  10.328  3.4283  0.3394  1.2021
  150MOL0     H20230   3.123   2.266  10.348 -0.2642  0.5160 -0.0204
  150MOL0     H20231   2.905   2.162  10.382 -0.5430 -1.5118  1.2230
  150MOL0     H20232   2.607   1.991  10.543 -0.3870 -1.4191  0.1622
  150MOL0     H20233   2.430   1.796  10.597  0.2323 -0.8470  2.2137
  150MOL0     H20234   0.736   1.428  10.697 -0.4546 -0.7770  0.6450
  150MOL0     H20235   0.492   1.482  10.667  0.2157  0.1505 -1.8423
  150MOL0     H20236   0.088   1.331  10.630 -0.4639  0.6600  0.2069
  150MOL0     H20237  -0.154   1.314  10.626 -0.1050  1.3671  0.2331
  150MOL0     H20238  -0.332   1.200  10.272 -1.6360  0.0057 -2.1911
  150MOL0     H20239  -0.371   1.377  10.253  0.0609  0.1042  0.3300
  150MOL0     H20240  -0.560   1.196  10.298  0.3514 -0.6651  1.6231
  150MOL0     H20241  -0.580   1.360  10.348  2.1234  1.0292 -2.2267
  150MOL0     H20242  -0.494   1.295  10.579  0.1729 -0.2886 -0.7568
  150MOL0     H20243  -0.462   1.143  10.517  0.1058 -0.2201 -0.4587
  150MOL0     H20244  -0.667   1.135  10.653 -3.3374 -1.1563 -0.4783
  150MOL0     H20245  -0.748   1.250  10.541  1.1025  0.1669 -0.2605
  150MOL0     H20246  -0.780   0.913  10.307 -2.5467  0.0929  0.0551
  150MOL0     H20247  -0.142   1.306  10.201  0.9460 -0.5158 -0.4491
  150MOL0     H20248   0.009   1.414  10.077  0.0448 -2.6542 -0.2984
  150MOL0     H20249   0.161   1.474  10.148 -0.9135  0.2033 -1.2383
  150MOL0     H20250   0.123   1.300  10.103  0.0170  1.0210 -4.8817
  151MOL0     O20251   4.330   1.510   1.031 -0.3350  0.1930  0.4330
  151MOL0     C20252   4.279   1.428   1.107  0.4705  0.0199  0.2119
  151MOL0     O20253   4.349   1.328   1.171 -0.4957  0.3275 -0.6924
  151MOL0     C20254   4.486   1.338   1.189  0.3159  0.5308  0.6422
  151MOL0     C20255   4.536   1.398   1.306  0.6611  0.6956 -0.2685
  151MOL0     C20256   4.672   1.413   1.314  0.1229 -0.6188  0.1167
  151MOL0     C20257   4.757   1.332   1.242  0.5085 -1.0340 -0.7396
  151MOL0     O20258   4.891   1.322   1.266 -1.1297  0.3916 -1.0592
  151MOL0     C20259   4.924   1.196   1.326  0.9098 -0.9012  0.2566
  151MOL0     C20260   5.076   1.164   1.313  0.0251  0.0271  0.5716
  151MOL0     C20261   5.143   1.256   1.416  0.6161  0.5335 -0.2840
  151MOL0     C20262   5.276   1.305   1.363  0.1472  0.7623  0.1946
  151MOL0     C20263   5.372   1.341   1.483 -0.1690 -0.0627  0.7097
  151MOL0     C20264   5.521   1.373   1.433  0.7631 -0.1856  0.2641
  151MOL0     C20265   5.523   1.505   1.350  0.5124  0.1412  0.5459
  151MOL0     C20266   5.667   1.562   1.325  0.7855 -0.4169 -0.3355
  151MOL0     N20267   5.743   1.567   1.452  0.2736 -0.6491 -0.0691
  151MOL0     C20268   5.706   1.615   1.574  0.0068 -0.2375  0.0190
  151MOL0     C20269   5.791   1.550   1.655  0.6472 -1.3340 -0.4159
  151MOL0     C20270   5.792   1.551   1.805 -0.4288 -0.1168 -0.1391
  151MOL0     C20271   5.718   1.428   1.853  0.4119  0.4828  0.1582
  151MOL0     C20272   5.799   1.295   1.847  0.4059 -0.8314 -1.0035
  151MOL0     C20273   5.957   1.309   1.875  1.0109  0.4591  0.0213
  151MOL0     O20274   5.991   1.166   1.871 -0.1357  0.0720 -0.1908
  151MOL0     C20275   6.122   1.126   1.884 -0.8249  0.2267  0.1912
  151MOL0     C20276   6.147   0.987   1.889 -0.4774  0.6761  1.3965
  151MOL0     C20277   6.273   0.939   1.889 -0.5469  0.0712  0.9950
  151MOL0     C20278   6.386   1.027   1.887 -0.4109  0.6354 -0.6997
  151MOL0     C20279   6.521   0.975   1.918 -0.6641  0.2832 -0.7501
  151MOL0     O20280   6.542   0.843   1.930 -0.3721  0.1864  0.0315
  151MOL0     C20281   6.671   0.792   1.951  0.0386  0.4814  0.0227
  151MOL0     C20282   6.729   0.702   1.854  0.3157  0.4866 -1.0298
  151MOL0     C20283   6.861   0.650   1.871 -0.1724 -0.4077  0.1927
  151MOL0     C20284   6.936   0.688   1.986  0.3704  0.0206  0.4868
  151MOL0     O20285   7.063   0.636   2.007  0.7439 -0.2479 -0.2850
  151MOL0     C20286   7.059   0.494   2.033 -0.5771 -0.2555  0.2578
  151MOL0     C20287   7.054   0.445   2.176  0.5201 -0.2757  0.0080
  151MOL0     C20288   7.184   0.482   2.251 -0.4804  0.5556 -0.9323
  151MOL0     C20289   7.162   0.405   2.394  0.0207  0.1730 -0.1714
  151MOL0     C20290   7.247   0.485   2.503  0.9223  0.4691 -0.4323
  151MOL0     C20291   7.183   0.613   2.545 -0.7054  0.5588  0.5707
  151MOL0     C20292   7.294   0.717   2.571 -0.5324 -0.7228 -1.0254
  151MOL0     C20293   7.227   0.845   2.628  0.6985  0.1170  0.0367
  151MOL0    Cl20294   7.342   0.981   2.619 -0.3667 -0.4229 -0.3484
  151MOL0     C20295   6.868   0.767   2.088  0.2143 -0.1513 -0.1272
  151MOL0     C20296   6.739   0.813   2.070  0.0066  0.0318  0.1255
  151MOL0     O20297   6.611   1.060   1.942 -0.5494 -0.9079  0.4023
  151MOL0     C20298   6.364   1.163   1.887  0.3464  0.2391  0.8916
  151MOL0     C20299   6.232   1.212   1.876 -0.2112 -0.4986  0.8211
  151MOL0     N20300   5.883   1.484   1.580 -0.2636  0.5605 -0.2342
  151MOL0     N20301   5.847   1.492   1.459 -0.0244 -0.6775 -0.0971
  151MOL0     C20302   4.708   1.268   1.132  0.8496  0.1185  0.0536
  151MOL0     C20303   4.573   1.278   1.098 -0.0786  0.1443 -0.0406
  151MOL0     C20304   4.135   1.447   1.124  0.2991 -1.1135  0.4052
  151MOL0     C20305   4.061   1.555   1.074  0.2922 -0.9152 -0.2644
  151MOL0     C20306   3.928   1.577   1.089  0.6461  0.7592 -0.3670
  151MOL0     C20307   3.852   1.479   1.148 -0.2506 -0.1804  0.0052
  151MOL0     O20308   3.717   1.498   1.132 -0.8631  0.0986  0.0537
  151MOL0     C20309   3.651   1.511   1.259  0.1272  0.3190 -0.2437
  151MOL0     C20310   3.510   1.449   1.261 -0.2077  0.2822 -0.4422
  151MOL0     C20311   3.514   1.299   1.221 -0.0784  0.1245  0.5211
  151MOL0     C20312   3.386   1.237   1.233  0.5795  1.2260  0.1308
  151MOL0     C20313   3.403   1.089   1.216  0.2742  0.0662 -0.3802
  151MOL0     C20314   3.412   0.975   1.184 -0.0323  0.4253  0.3721
  151MOL0     C20315   3.917   1.371   1.198 -0.0351  0.1889 -1.0145
  151MOL0     C20316   4.053   1.349   1.196  0.2860 -0.1794  0.6801
  151MOL0     C20317   4.108   1.226   1.252  0.1334  0.3092  0.3713
  151MOL0     H20318   4.465   1.443   1.375 -2.0656 -0.0415 -2.3933
  151MOL0     H20319   4.724   1.471   1.390  1.6440 -1.2469 -0.4319
  151MOL0     H20320   4.884   1.200   1.428 -0.8819  2.4722 -0.4069
  151MOL0     H20321   4.868   1.115   1.278  0.2076 -0.3174  0.0685
  151MOL0     H20322   5.119   1.181   1.214  1.1305  1.9945  1.3430
  151MOL0     H20323   5.101   1.064   1.349 -1.1560  0.2726  2.1658
  151MOL0     H20324   5.154   1.211   1.515 -2.6588  1.2855  0.5299
  151MOL0     H20325   5.085   1.348   1.428  0.1291  0.2869 -0.7621
  151MOL0     H20326   5.327   1.218   1.322 -0.4262  1.4480 -2.1227
  151MOL0     H20327   5.260   1.372   1.277  0.7369  0.5553 -0.0778
  151MOL0     H20328   5.330   1.429   1.532 -0.1705 -0.0559  0.6965
  151MOL0     H20329   5.378   1.255   1.551  0.7086  0.3223  1.1394
  151MOL0     H20330   5.578   1.384   1.525  0.4755 -0.3844  0.4691
  151MOL0     H20331   5.547   1.286   1.372 -3.1109 -2.3818  1.3570
  151MOL0     H20332   5.469   1.586   1.401  3.7028  2.7574  0.1037
  151MOL0     H20333   5.476   1.486   1.253 -0.7981  0.6147  1.0619
  151MOL0     H20334   5.714   1.504   1.245 -1.1438  1.8213 -3.2752
  151MOL0     H20335   5.647   1.664   1.292 -1.5059 -1.2863 -1.8119
  151MOL0     H20336   5.626   1.682   1.606  0.3922 -0.4389  1.4346
  151MOL0     H20337   5.888   1.571   1.853  0.0751 -1.3770 -0.5947
  151MOL0     H20338   5.725   1.633   1.833  1.4773  0.5475  3.0254
  151MOL0     H20339   5.692   1.449   1.958 -0.7620 -0.6905  0.1278
  151MOL0     H20340   5.631   1.420   1.787  2.3363  0.5254 -2.5025
  151MOL0     H20341   5.782   1.248   1.750 -1.7720 -2.7788  0.2060
  151MOL0     H20342   5.754   1.221   1.914 -1.7098  0.6818 -0.6449
  151MOL0     H20343   5.990   1.342   1.973  3.1841  2.0279 -1.1507
  151MOL0     H20344   6.010   1.374   1.804 -0.2074  1.8920  0.3643
  151MOL0     H20345   6.073   0.908   1.898  0.8808 -0.9183 -0.4165
  151MOL0     H20346   6.283   0.831   1.899 -1.7082 -0.4559 -2.1165
  151MOL0     H20347   6.685   0.682   1.757 -2.0623 -0.1486  0.0901
  151MOL0     H20348   6.905   0.579   1.801  0.1574  1.1191 -1.2287
  151MOL0     H20349   6.976   0.448   1.978 -2.1033 -1.1199  3.1281
  151MOL0     H20350   7.154   0.464   1.987 -0.2564 -0.0929  0.8078
  151MOL0     H20351   6.974   0.491   2.234 -1.1149 -2.5452 -0.2868
  151MOL0     H20352   7.039   0.337   2.172 -1.0347 -0.0495 -1.2967
  151MOL0     H20353   7.265   0.438   2.193  0.0505 -0.2903  0.4057
  151MOL0     H20354   7.193   0.591   2.257 -0.8611  0.6038 -1.2098
  151MOL0     H20355   7.190   0.300   2.404  1.2755  0.3653 -1.3068
  151MOL0     H20356   7.058   0.413   2.424 -0.2433  1.0372 -1.2698
  151MOL0     H20357   7.349   0.503   2.469 -0.0120  2.6718 -2.3315
  151MOL0     H20358   7.248   0.424   2.594 -0.3947  0.0711 -0.6682
  151MOL0     H20359   7.121   0.657   2.467  1.0973  2.4427  0.1159
  151MOL0     H20360   7.117   0.602   2.632 -0.2777  0.5507  0.8988
  151MOL0     H20361   7.338   0.750   2.477  0.7051  1.3225  0.2078
  151MOL0     H20362   7.378   0.688   2.634 -1.4217  1.1365  1.1569
  151MOL0     H20363   7.134   0.867   2.576 -0.0826 -2.9801 -0.0976
  151MOL0     H20364   7.194   0.825   2.731 -4.0747 -0.1351 -1.3469
  151MOL0     H20365   6.916   0.784   2.184 -0.9857 -0.2638  0.5165
  151MOL0     H20366   6.688   0.868   2.148  0.8218  0.7051  0.2067
  151MOL0     H20367   6.444   1.235   1.899 -0.1668  0.6041  2.3238
  151MOL0     H20368   6.218   1.318   1.899  0.6969 -0.5017  1.4411
  151MOL0     H20369   4.781   1.204   1.082  1.5090 -0.9873  2.3124
  151MOL0     H20370   4.531   1.220   1.017 -0.8344 -0.7745  0.9830
  151MOL0     H20371   4.105   1.631   1.010 -0.4449 -0.4350 -0.2158
  151MOL0     H20372   3.875   1.664   1.053  1.5820  2.2223  1.6198
  151MOL0     H20373   3.638   1.613   1.295 -0.3094  0.1270  0.1519
  151MOL0     H20374   3.698   1.454   1.340 -1.8714  0.0286  0.7682
  151MOL0     H20375   3.445   1.498   1.188 -0.8067  0.7072  0.3605
  151MOL0     H20376   3.475   1.464   1.364  1.2958  0.5244  0.0690
  151MOL0     H20377   3.583   1.259   1.295  0.0296 -0.2567  0.2147
  151MOL0     H20378   3.546   1.278   1.119 -1.2187 -1.9131  0.5271
  151MOL0     H20379   3.337   1.268   1.326 -2.1286  1.0779 -1.1518
  151MOL0     H20380   3.320   1.272   1.153  1.7821  0.8064 -1.0731
  151MOL0     H20381   3.428   0.875   1.148  2.5026  1.3282 -1.2725
  151MOL0     H20382   3.856   1.300   1.253 -0.5156  2.1210  1.1636
  151MOL0     H20383   4.194   1.250   1.314  0.6003  2.2588 -0.9144
  151MOL0     H20384   4.029   1.168   1.300  0.8912  1.5966  3.4235
  151MOL0     H20385   4.143   1.175   1.162  1.5990  2.7623 -0.5403
  152MOL0     O20386   8.364  10.616   5.217  0.7852 -0.4304  0.1567
  152MOL0     C20387   8.362  10.609   5.095  0.1430 -0.2070  0.0930
  152MOL0     O20388   8.475  10.597   5.021 -0.5664 -0.7311  0.4049
  152MOL0     C20389   8.607  10.594   5.069  0.7206 -0.1795  0.7450
  152MOL0     C20390   8.652  10.686   5.164 -0.5879  0.4243 -0.4673
  152MOL0     C20391   8.784  10.685   5.210  0.2607 -0.2022 -0.8485
  152MOL0     C20392   8.873  10.591   5.154 -0.5829  0.1305  0.9535
  152MOL0     O20393   9.006  10.595   5.192  0.0877 -0.0147  0.0300
  152MOL0     C20394   9.109  10.580   5.092  0.3356 -0.1358  1.0942
  152MOL0     C20395   9.240  10.618   5.155 -0.5600  0.3218  0.4574
  152MOL0     C20396   9.364  10.541   5.111 -0.6804  0.0575  0.9462
  152MOL0     C20397   9.492  10.621   5.137  0.0113  0.0798 -0.1312
  152MOL0     C20398   9.621  10.568   5.068  0.5857 -0.3143  0.5224
  152MOL0     C20399   9.733  10.675   5.071 -0.3248 -0.3066 -0.1543
  152MOL0     C20400   9.858  10.623   5.010 -0.8004 -0.3222  0.5055
  152MOL0     C20401   9.976  10.734   5.014  0.1360  0.0987 -0.1868
  152MOL0     N20402  10.104  10.674   4.956  0.8196 -0.7460 -0.6204
  152MOL0     C20403  10.176  10.729   4.852  0.4746  0.4489  0.0582
  152MOL0     C20404  10.282  10.647   4.852 -0.4351 -0.2475 -0.5251
  152MOL0     C20405  10.408  10.657   4.761 -0.1388  0.2180  0.7917
  152MOL0     C20406  10.546  10.671   4.835  0.0561  0.1232  0.5858
  152MOL0     C20407  10.549  10.817   4.894  0.2576 -0.7963  0.3825
  152MOL0     C20408  10.694  10.871   4.916 -0.2837 -0.7466  0.4942
  152MOL0     O20409  10.761  10.769   4.989 -0.0713  0.3492 -0.3129
  152MOL0     C20410  10.895  10.789   5.017  0.7665 -0.5392 -0.4959
  152MOL0     C20411  10.956  10.688   5.087 -0.4221 -0.2471 -0.8990
  152MOL0     C20412  11.092  10.705   5.129 -0.1853 -1.4704 -0.8157
  152MOL0     C20413  11.162  10.828   5.102  0.0809  0.1002 -0.1150
  152MOL0     C20414  11.301  10.849   5.148 -0.0037  0.1340 -0.1233
  152MOL0     O20415  11.353  10.975   5.128 -0.1427  0.0795 -0.5455
  152MOL0     C20416  11.470  11.015   5.194  0.3418 -0.1579  0.6489
  152MOL0     C20417  11.585  10.937   5.200 -0.6537 -0.1045  0.9475
  152MOL0     C20418  11.706  10.991   5.260  0.5856  0.5130 -0.2507
  152MOL0     C20419  11.717  11.118   5.317  0.0893  0.4491 -0.8042
  152MOL0     O20420  11.825  11.170   5.375 -0.4916 -0.0595 -0.4474
  152MOL0     C20421  11.807  11.266   5.472  0.2689 -0.6310 -0.2807
  152MOL0     C20422  11.932  11.301   5.558  1.2575 -0.3643  0.7134
  152MOL0     C20423  11.983  11.185   5.640  0.5006  0.4882 -0.9234
  152MOL0     C20424  12.052  11.068   5.576  0.0020  0.3271 -0.0074
  152MOL0     C20425  12.176  11.021   5.645  0.0943 -0.4290 -0.0050
  152MOL0     C20426  12.288  11.128   5.660 -0.0918 -1.5979 -0.3486
  152MOL0     C20427  12.406  11.079   5.745  0.1259  0.9127  0.6079
  152MOL0     C20428  12.534  11.155   5.704 -0.1906  0.3370 -0.1597
  152MOL0    Cl20429  12.669  11.105   5.808  0.4694 -0.2362  0.0004
  152MOL0     C20430  11.594  11.192   5.307 -0.0494 -0.5421  0.7686
  152MOL0     C20431  11.481  11.146   5.241  0.0661 -0.5700 -0.3847
  152MOL0     O20432  11.360  10.755   5.202 -1.0619 -0.3004 -0.3606
  152MOL0     C20433  11.089  10.928   5.037 -0.5224 -0.3689  0.0494
  152MOL0     C20434  10.960  10.909   4.993 -0.2888 -0.0315 -0.0332
  152MOL0     N20435  10.270  10.543   4.942  0.5133 -1.0079  0.3335
  152MOL0     N20436  10.160  10.562   5.005 -0.5385 -0.5693 -0.4660
  152MOL0     C20437   8.828  10.498   5.063  0.1316 -0.2723 -0.6336
  152MOL0     C20438   8.692  10.503   5.020  1.0740  0.3840 -0.6874
  152MOL0     C20439   8.229  10.628   5.028 -0.5274  0.4063  1.2821
  152MOL0     C20440   8.112  10.645   5.107  0.6924  0.0003  0.6226
  152MOL0     C20441   7.979  10.660   5.058  0.2200  0.3486 -0.4530
  152MOL0     C20442   7.957  10.652   4.925  0.5185 -0.2624  0.2562
  152MOL0     O20443   7.827  10.658   4.887  0.0023  0.7612  0.6388
  152MOL0     C20444   7.787  10.679   4.753 -0.3015 -0.4125  0.2097
  152MOL0     C20445   7.722  10.555   4.694 -1.1124 -0.3034 -0.5641
  152MOL0     C20446   7.593  10.502   4.759  0.2946 -0.7567  1.3372
  152MOL0     C20447   7.470  10.597   4.764  0.1891  0.4130 -0.8351
  152MOL0     C20448   7.425  10.638   4.629 -0.6755  0.2207 -0.9136
  152MOL0     C20449   7.379  10.668   4.517 -0.4025 -0.5444  0.3975
  152MOL0     C20450   8.073  10.622   4.836  0.7258  0.3160 -0.5050
  152MOL0     C20451   8.203  10.611   4.885 -0.9285  0.5622  0.4824
  152MOL0     C20452   8.316  10.584   4.781  0.1380  0.5205 -0.3380
  152MOL0     H20453   8.577  10.758   5.196  0.0831  0.3476  1.4688
  152MOL0     H20454   8.815  10.756   5.286 -1.4356 -0.7519  0.4044
  152MOL0     H20455   9.114  10.475   5.063  0.2853  0.3973 -0.9576
  152MOL0     H20456   9.104  10.642   5.002  3.0878  3.6224  3.2501
  152MOL0     H20457   9.225  10.610   5.263  1.7136 -2.1362  0.6979
  152MOL0     H20458   9.252  10.725   5.136 -0.8407 -0.0560 -2.2772
  152MOL0     H20459   9.356  10.532   5.002  1.2442  2.4799  0.5264
  152MOL0     H20460   9.350  10.439   5.147 -1.0004 -1.0735 -2.0497
  152MOL0     H20461   9.478  10.726   5.110  0.7051  1.4162  4.0176
  152MOL0     H20462   9.508  10.630   5.245 -3.6567  2.4216  0.4196
  152MOL0     H20463   9.649  10.470   5.108 -1.7216 -2.3819 -2.4840
  152MOL0     H20464   9.606  10.540   4.963  1.3771 -1.0056  0.5827
  152MOL0     H20465   9.703  10.767   5.020 -0.3096 -1.6590 -2.7612
  152MOL0     H20466   9.759  10.687   5.176  0.4324  2.2951 -0.5807
  152MOL0     H20467   9.830  10.605   4.906 -1.2096 -0.9733  0.7195
  152MOL0     H20468   9.895  10.529   5.052  1.3890 -0.3861 -1.3651
  152MOL0     H20469   9.937  10.813   4.948 -1.7326 -0.2402  0.4305
  152MOL0     H20470   9.997  10.771   5.115 -1.6833  1.4003 -0.2220
  152MOL0     H20471  10.142  10.821   4.806  1.6974  1.9603  1.9817
  152MOL0     H20472  10.408  10.570   4.694 -0.9097  0.1687  0.8415
  152MOL0     H20473  10.386  10.749   4.706 -2.7001 -0.7665  0.0298
  152MOL0     H20474  10.555  10.595   4.913  1.8981 -1.4719 -1.0648
  152MOL0     H20475  10.626  10.655   4.762 -0.2524  1.2014 -0.0019
  152MOL0     H20476  10.526  10.804   5.000  2.2335  1.2003  1.1575
  152MOL0     H20477  10.479  10.885   4.844  1.0442  1.4620  2.1800
  152MOL0     H20478  10.682  10.968   4.965 -0.6429 -0.5690  0.0570
  152MOL0     H20479  10.745  10.897   4.823 -0.4809  0.6564  0.7609
  152MOL0     H20480  10.909  10.593   5.112  0.9056 -0.7133 -0.0800
  152MOL0     H20481  11.151  10.636   5.189  1.0865  1.7707  2.0129
  152MOL0     H20482  11.588  10.837   5.157 -2.2922  0.5953 -1.0031
  152MOL0     H20483  11.808  10.954   5.255  0.3650 -0.0514 -0.6353
  152MOL0     H20484  11.777  11.363   5.431  0.6943 -1.1675 -1.9194
  152MOL0     H20485  11.732  11.231   5.544 -2.3251 -0.2356 -2.6098
  152MOL0     H20486  12.015  11.343   5.501  1.7843 -2.0802  0.1440
  152MOL0     H20487  11.913  11.382   5.629 -3.7183 -1.1861  0.6889
  152MOL0     H20488  12.041  11.220   5.726  3.1589  2.3108 -3.2877
  152MOL0     H20489  11.890  11.157   5.690  1.6120  0.3575  1.1819
  152MOL0     H20490  12.079  11.090   5.473  0.2110 -1.6360 -0.4179
  152MOL0     H20491  11.987  10.980   5.569  1.6385 -1.1326  1.7536
  152MOL0     H20492  12.205  10.930   5.593  1.9045 -1.7026  2.9850
  152MOL0     H20493  12.159  10.978   5.744 -0.7379 -0.7257 -0.2704
  152MOL0     H20494  12.330  11.158   5.563  1.5426 -1.2587  0.4309
  152MOL0     H20495  12.248  11.222   5.698  1.3106 -0.5566 -1.3506
  152MOL0     H20496  12.422  10.973   5.724 -1.0726  0.7853  0.2752
  152MOL0     H20497  12.391  11.076   5.853 -0.2452  1.1987  0.5654
  152MOL0     H20498  12.561  11.151   5.598  1.3953  0.8082  0.2033
  152MOL0     H20499  12.509  11.260   5.724  1.2662  1.2674 -2.7238
  152MOL0     H20500  11.589  11.300   5.321  1.1159 -0.5055  0.9952
  152MOL0     H20501  11.399  11.217   5.231  2.1843  2.0852 -0.3408
  152MOL0     H20502  11.128  11.029   5.032  0.2215 -0.4029  2.9889
  152MOL0     H20503  10.917  10.982   4.925  0.6889 -0.1418 -0.8010
  152MOL0     H20504   8.890  10.426   5.011 -2.8184 -3.2666 -0.3068
  152MOL0     H20505   8.641  10.433   4.954 -0.4358 -2.2896  3.0177
  152MOL0     H20506   8.119  10.657   5.215  0.6020 -0.9063  0.7392
  152MOL0     H20507   7.899  10.670   5.130  0.8571  0.2138  0.2925
  152MOL0     H20508   7.865  10.709   4.683 -0.8803 -0.9336 -0.6736
  152MOL0     H20509   7.702  10.747   4.748 -0.8967 -1.1345  0.3093
  152MOL0     H20510   7.794  10.475   4.676 -0.6147 -0.2146  0.8807
  152MOL0     H20511   7.685  10.589   4.597 -1.0885 -0.1533 -0.5208
  152MOL0     H20512   7.616  10.476   4.862  1.2076 -1.8536  0.8743
  152MOL0     H20513   7.562  10.405   4.717 -0.3103  0.3415 -0.9251
  152MOL0     H20514   7.392  10.537   4.812 -0.6380  0.7378 -1.7298
  152MOL0     H20515   7.476  10.680   4.835 -0.9801  0.0167 -0.2391
  152MOL0     H20516   7.325  10.690   4.427 -1.0207  2.6014  1.4250
  152MOL0     H20517   8.061  10.613   4.729 -1.9564  0.1708 -0.2770
  152MOL0     H20518   8.356  10.681   4.752  2.2237  0.1328  1.0720
  152MOL0     H20519   8.399  10.521   4.812  2.0652  3.2963  0.5533
  152MOL0     H20520   8.273  10.524   4.700 -0.7995 -0.4920  0.8598
  153MOL0     O20521   9.567   0.101   0.352  0.8607 -0.4174  0.1466
  153MOL0     C20522   9.503   0.111   0.459  0.1771 -0.2560  0.5194
  153MOL0     O20523   9.508   0.031   0.568 -0.1865 -0.0569  0.0128
  153MOL0     C20524   9.612  -0.051   0.590 -0.3820  0.2584 -0.3325
  153MOL0     C20525   9.712  -0.109   0.502 -0.5130  0.0618 -0.3458
  153MOL0     C20526   9.826  -0.172   0.556  0.0115 -0.1222 -0.5970
  153MOL0     C20527   9.835  -0.207   0.695  0.6294  0.8288  0.4641
  153MOL0     O20528   9.938  -0.285   0.748 -0.3546  0.1172  0.0863
  153MOL0     C20529  10.061  -0.270   0.683 -1.5811  0.3300 -0.2017
  153MOL0     C20530  10.177  -0.311   0.766  0.2957  0.1492  0.0179
  153MOL0     C20531  10.309  -0.244   0.721 -0.9139  0.0885 -1.0376
  153MOL0     C20532  10.428  -0.318   0.781 -0.5801 -0.4465  0.2477
  153MOL0     C20533  10.561  -0.273   0.711  0.9917 -0.2781  0.3292
  153MOL0     C20534  10.686  -0.359   0.739 -0.5242  0.5870 -0.7771
  153MOL0     C20535  10.688  -0.500   0.684 -0.0486  0.7006  0.1968
  153MOL0     C20536  10.715  -0.495   0.534  0.1306  0.1164  0.2552
  153MOL0     N20537  10.854  -0.530   0.494 -0.3400  0.1251  0.3041
  153MOL0     C20538  10.969  -0.470   0.555  0.7362  0.1206 -0.2941
  153MOL0     C20539  11.075  -0.509   0.476 -0.2911  0.5082  0.0270
  153MOL0     C20540  11.224  -0.460   0.487 -0.0830  0.2761  0.6974
  153MOL0     C20541  11.330  -0.569   0.471  1.0947  0.3102 -0.0299
  153MOL0     C20542  11.467  -0.494   0.481 -0.5753 -0.2349 -0.8103
  153MOL0     C20543  11.584  -0.590   0.472  0.2103 -0.2323  0.0017
  153MOL0     O20544  11.601  -0.665   0.596  0.2159 -0.3289  0.0073
  153MOL0     C20545  11.674  -0.619   0.698  0.5694 -0.5034 -0.2704
  153MOL0     C20546  11.733  -0.712   0.777 -0.7732  0.2186 -0.1541
  153MOL0     C20547  11.836  -0.679   0.868 -0.0438  1.0940  0.4324
  153MOL0     C20548  11.868  -0.548   0.881 -0.2216 -0.5411  0.1773
  153MOL0     C20549  11.983  -0.516   0.974 -0.5681  0.4494 -0.7698
  153MOL0     O20550  12.023  -0.383   0.974  0.1553  0.6691 -0.5583
  153MOL0     C20551  12.121  -0.330   1.061 -0.1999 -0.2046  0.1900
  153MOL0     C20552  12.122  -0.350   1.201  0.1416 -0.2115  0.1842
  153MOL0     C20553  12.229  -0.311   1.285 -0.0546  0.1518  0.0226
  153MOL0     C20554  12.329  -0.237   1.228 -0.2316  0.1682  0.6508
  153MOL0     O20555  12.449  -0.207   1.286 -0.1142  0.7461 -1.1391
  153MOL0     C20556  12.471  -0.242   1.427 -0.0222  0.4180 -0.0710
  153MOL0     C20557  12.620  -0.235   1.477  0.5027 -0.5228 -0.1697
  153MOL0     C20558  12.632  -0.249   1.625 -0.7359  0.4120 -0.7088
  153MOL0     C20559  12.773  -0.238   1.684  0.0530  0.5330 -0.1949
  153MOL0     C20560  12.761  -0.245   1.838  0.4636  0.6132  0.1461
  153MOL0     C20561  12.887  -0.209   1.916  0.3570 -0.0421  0.5480
  153MOL0     C20562  12.859  -0.199   2.059  0.2033 -0.0468 -0.5311
  153MOL0     C20563  12.797  -0.074   2.121  0.3665  0.8751  0.0163
  153MOL0    Cl20564  12.787  -0.101   2.295 -0.8720  0.2654 -0.0556
  153MOL0     C20565  12.322  -0.202   1.091 -0.3235  0.4200  0.2583
  153MOL0     C20566  12.228  -0.257   1.004 -0.1078 -0.8725 -0.2561
  153MOL0     O20567  12.031  -0.598   1.055  0.2866  0.0168 -0.5340
  153MOL0     C20568  11.802  -0.447   0.809  0.5292 -0.8634  0.4712
  153MOL0     C20569  11.710  -0.485   0.714 -1.0098 -0.5898 -0.4524
  153MOL0     N20570  11.023  -0.586   0.365 -0.0077  0.2133  0.6210
  153MOL0     N20571  10.890  -0.592   0.375  0.1223  0.5277 -0.7973
  153MOL0     C20572   9.735  -0.162   0.776  0.0538 -0.1812 -0.4644
  153MOL0     C20573   9.629  -0.083   0.726 -0.5149  0.5525 -0.4144
  153MOL0     C20574   9.399   0.219   0.468  0.5917 -0.7738  0.5740
  153MOL0     C20575   9.334   0.240   0.589 -0.5731  0.0934  0.5982
  153MOL0     C20576   9.239   0.339   0.608  0.8059  0.0593 -0.6804
  153MOL0     C20577   9.199   0.424   0.506 -0.4807  0.8790  0.5205
  153MOL0     O20578   9.103   0.521   0.528  0.7449  0.5491 -0.4952
  153MOL0     C20579   8.999   0.493   0.427 -0.8690 -0.4753  0.2536
  153MOL0     C20580   8.866   0.536   0.488 -0.4278 -0.2352  0.3865
  153MOL0     C20581   8.814   0.435   0.588 -0.3110  0.1769 -0.1159
  153MOL0     C20582   8.679   0.495   0.640 -0.2255 -0.1592  0.3444
  153MOL0     C20583   8.562   0.490   0.548  0.4639 -0.0705 -0.3761
  153MOL0     C20584   8.462   0.478   0.483 -0.0153 -0.4685  0.3160
  153MOL0     C20585   9.262   0.412   0.377 -1.0803  0.5801  0.1786
  153MOL0     C20586   9.368   0.315   0.357 -0.1372  0.0568  0.1195
  153MOL0     C20587   9.441   0.310   0.223  0.0010  0.6573 -0.0146
  153MOL0     H20588   9.704  -0.115   0.394  1.7148 -2.9869 -0.4614
  153MOL0     H20589   9.895  -0.199   0.477 -1.6354  1.8675 -2.8534
  153MOL0     H20590  10.051  -0.327   0.590 -3.0956 -0.9264  0.6789
  153MOL0     H20591  10.083  -0.167   0.653 -0.9769 -0.2506 -1.8750
  153MOL0     H20592  10.167  -0.420   0.769 -0.5003  0.2361  1.3035
  153MOL0     H20593  10.160  -0.279   0.869  0.7811 -1.3006  0.5708
  153MOL0     H20594  10.311  -0.148   0.773 -0.0826  0.1004 -1.0725
  153MOL0     H20595  10.311  -0.232   0.612 -0.4666  2.2793 -0.8463
  153MOL0     H20596  10.446  -0.295   0.886  3.7243  2.4662 -0.8646
  153MOL0     H20597  10.427  -0.426   0.765  0.2621 -0.0278 -3.8527
  153MOL0     H20598  10.525  -0.284   0.608  0.1959 -2.3779  0.7892
  153MOL0     H20599  10.573  -0.166   0.730  0.6946 -0.5955  2.6590
  153MOL0     H20600  10.780  -0.315   0.704  1.1614 -1.4491  0.9243
  153MOL0     H20601  10.686  -0.372   0.847 -2.1578  1.1799 -0.6725
  153MOL0     H20602  10.603  -0.563   0.714  0.9378 -0.4192  0.6881
  153MOL0     H20603  10.774  -0.554   0.722  1.5848 -0.4499 -4.5726
  153MOL0     H20604  10.643  -0.563   0.488  1.5594 -1.7542  0.6947
  153MOL0     H20605  10.695  -0.396   0.492  0.2152  0.2150  0.4434
  153MOL0     H20606  10.980  -0.399   0.637  2.0431 -0.1691 -0.2015
  153MOL0     H20607  11.240  -0.387   0.407  1.4522 -1.6190 -0.8259
  153MOL0     H20608  11.245  -0.398   0.575  1.7496  2.0360 -0.8748
  153MOL0     H20609  11.322  -0.647   0.548  1.7201 -0.5092 -0.7769
  153MOL0     H20610  11.318  -0.609   0.370 -0.3356  3.1557 -1.0905
  153MOL0     H20611  11.467  -0.442   0.577 -1.2339  0.1261 -1.0003
  153MOL0     H20612  11.471  -0.414   0.406  1.0018  0.3962 -0.0805
  153MOL0     H20613  11.679  -0.536   0.460  0.4080 -0.3110  1.0697
  153MOL0     H20614  11.571  -0.658   0.387  0.7239  0.8174 -0.9324
  153MOL0     H20615  11.704  -0.816   0.763  1.8969 -0.2583 -3.5047
  153MOL0     H20616  11.898  -0.757   0.912 -1.2059 -1.3138 -1.9180
  153MOL0     H20617  12.033  -0.397   1.242  1.1109 -4.0802 -1.7031
  153MOL0     H20618  12.232  -0.326   1.392 -1.5913  3.9755  0.7754
  153MOL0     H20619  12.422  -0.160   1.481  0.4115  1.8608 -1.7612
  153MOL0     H20620  12.431  -0.341   1.450  2.3639 -0.6441 -0.1779
  153MOL0     H20621  12.677  -0.313   1.427  0.2119  0.3612 -2.0115
  153MOL0     H20622  12.659  -0.139   1.442 -0.9407  0.1652  0.0151
  153MOL0     H20623  12.571  -0.171   1.672  0.7824  2.0355 -1.3230
  153MOL0     H20624  12.600  -0.347   1.661 -1.6759  1.3314  1.0956
  153MOL0     H20625  12.807  -0.140   1.649 -1.0207  0.6505 -0.9614
  153MOL0     H20626  12.840  -0.319   1.650  1.2065  0.2092  2.5992
  153MOL0     H20627  12.728  -0.347   1.862 -0.1963  0.9169  0.5762
  153MOL0     H20628  12.687  -0.168   1.864 -0.5954 -0.2349 -0.2634
  153MOL0     H20629  12.963  -0.286   1.902 -0.3375 -0.7738  0.7636
  153MOL0     H20630  12.922  -0.113   1.875  1.2256 -1.1908 -1.5816
  153MOL0     H20631  12.952  -0.210   2.115 -0.9708  2.0788  2.0775
  153MOL0     H20632  12.798  -0.281   2.096  0.5214 -0.2867 -0.5288
  153MOL0     H20633  12.852   0.018   2.099 -0.7552  2.5874  3.5449
  153MOL0     H20634  12.696  -0.069   2.081 -1.0591  0.0542  3.2302
  153MOL0     H20635  12.409  -0.148   1.053  1.6553 -1.9236  1.2220
  153MOL0     H20636  12.225  -0.237   0.897  0.8682 -2.2014 -0.5475
  153MOL0     H20637  11.820  -0.345   0.838  2.1883 -1.1271  0.4563
  153MOL0     H20638  11.669  -0.409   0.649  1.0963  0.1958 -0.9411
  153MOL0     H20639   9.731  -0.203   0.876  1.8737  1.6071  0.4078
  153MOL0     H20640   9.543  -0.065   0.789 -2.2152  1.7389 -2.9363
  153MOL0     H20641   9.352   0.181   0.678  1.5643  1.5527  1.2193
  153MOL0     H20642   9.192   0.345   0.706  1.2972 -1.6633 -0.2917
  153MOL0     H20643   8.997   0.391   0.386  0.3752 -0.5120  0.2434
  153MOL0     H20644   9.023   0.555   0.341 -0.3304  0.1437  0.8380
  153MOL0     H20645   8.791   0.551   0.411 -0.7083  0.8053  0.8520
  153MOL0     H20646   8.881   0.627   0.546 -0.4289  0.0304 -0.0293
  153MOL0     H20647   8.887   0.422   0.669  1.8051  0.7171 -1.8560
  153MOL0     H20648   8.793   0.343   0.533  1.0571 -0.4189  0.3219
  153MOL0     H20649   8.655   0.439   0.731  1.4334  1.5721  1.9470
  153MOL0     H20650   8.702   0.600   0.661 -0.7322  0.7147 -3.0240
  153MOL0     H20651   8.369   0.470   0.429 -0.4827 -2.7604  1.3221
  153MOL0     H20652   9.238   0.475   0.291  1.4831  0.8984 -0.3761
  153MOL0     H20653   9.442   0.212   0.174 -0.1319  0.5943  0.1113
  153MOL0     H20654   9.399   0.391   0.163  0.8033  1.7089  0.7959
  153MOL0     H20655   9.547   0.335   0.237  0.0020  1.3708 -1.1460
  154MOL0     O20656   5.856   3.694   7.129  0.7094  0.1638  0.0729
  154MOL0     C20657   5.834   3.807   7.082  0.8538 -0.6512  0.5266
  154MOL0     O20658   5.926   3.883   7.017  0.3429  0.4071 -0.1777
  154MOL0     C20659   6.061   3.849   6.994 -0.1572  0.7144 -0.7255
  154MOL0     C20660   6.118   3.718   7.018  0.1802 -1.2680  0.2732
  154MOL0     C20661   6.243   3.686   6.967  0.3392  0.3793 -0.2444
  154MOL0     C20662   6.316   3.779   6.897 -0.4308  0.0068 -0.8905
  154MOL0     O20663   6.441   3.730   6.863  0.1120 -0.2778 -0.7354
  154MOL0     C20664   6.514   3.803   6.761 -0.6040 -0.7792  0.0475
  154MOL0     C20665   6.619   3.719   6.695  0.6203 -0.3626 -0.0777
  154MOL0     C20666   6.720   3.671   6.788 -0.1004 -0.3851  0.0817
  154MOL0     C20667   6.813   3.568   6.716 -0.6001  0.2518  0.8855
  154MOL0     C20668   6.912   3.519   6.828 -0.0255 -0.3082  0.9117
  154MOL0     C20669   6.984   3.392   6.793 -0.6571  0.1951  0.6088
  154MOL0     C20670   7.077   3.411   6.676  0.3227 -0.3633 -0.2798
  154MOL0     C20671   7.199   3.491   6.726 -0.0359 -0.1468  0.2192
  154MOL0     N20672   7.294   3.519   6.611 -0.5703 -0.0969 -0.4701
  154MOL0     C20673   7.357   3.422   6.532 -0.1094  0.2801 -0.1170
  154MOL0     C20674   7.453   3.491   6.469 -0.0275 -0.6164 -0.4903
  154MOL0     C20675   7.567   3.420   6.398 -0.3114  0.1593 -0.3623
  154MOL0     C20676   7.703   3.431   6.479  0.3444  0.1145 -0.4652
  154MOL0     C20677   7.804   3.328   6.432 -0.0616 -0.1677 -0.0817
  154MOL0     C20678   7.885   3.374   6.310 -0.1299 -1.0182 -0.4223
  154MOL0     O20679   8.001   3.289   6.301 -0.0138  1.0814 -0.2446
  154MOL0     C20680   8.106   3.294   6.393  0.2996  0.1354  0.9476
  154MOL0     C20681   8.213   3.213   6.366  0.0407 -0.5820  0.1424
  154MOL0     C20682   8.337   3.231   6.426 -0.4059  0.5441  0.0245
  154MOL0     C20683   8.354   3.331   6.525 -0.5355  0.7310  0.1105
  154MOL0     C20684   8.478   3.366   6.581 -0.4956 -0.5231  0.3800
  154MOL0     O20685   8.472   3.427   6.702 -0.1385 -0.4590  0.3752
  154MOL0     C20686   8.591   3.417   6.776 -0.7486 -0.2282  0.6544
  154MOL0     C20687   8.666   3.299   6.785 -0.3078 -0.5317  0.0311
  154MOL0     C20688   8.786   3.307   6.858 -0.4162 -0.0607 -0.5099
  154MOL0     C20689   8.836   3.415   6.925  0.3900  0.2947 -0.6065
  154MOL0     O20690   8.937   3.393   7.015  0.1720 -0.6203  0.7691
  154MOL0     C20691   8.947   3.499   7.114 -0.8031 -0.1026 -0.0715
  154MOL0     C20692   9.047   3.460   7.216  0.8526  0.3656  0.0211
  154MOL0     C20693   9.022   3.321   7.275  0.0951 -0.1059  0.2244
  154MOL0     C20694   9.104   3.308   7.404  0.4075 -0.2028 -0.3229
  154MOL0     C20695   9.070   3.181   7.475  0.2681 -0.5473 -0.3491
  154MOL0     C20696   9.137   3.051   7.415 -0.1961  0.4088 -0.1020
  154MOL0     C20697   9.284   3.037   7.448  0.0587 -0.1714 -0.5440
  154MOL0     C20698   9.330   2.899   7.400 -0.3090  1.0664  0.2264
  154MOL0    Cl20699   9.506   2.915   7.416 -0.0199 -0.0519  0.7374
  154MOL0     C20700   8.768   3.532   6.898 -0.0338  0.1065  0.2847
  154MOL0     C20701   8.647   3.534   6.832  0.2839  0.1307  0.5993
  154MOL0     O20702   8.578   3.337   6.507 -0.2431  0.5379 -0.3050
  154MOL0     C20703   8.247   3.416   6.551  0.1988  0.4004 -0.4956
  154MOL0     C20704   8.125   3.389   6.495 -0.5186  0.1327 -0.0954
  154MOL0     N20705   7.436   3.626   6.491  0.3492 -0.3639  0.3339
  154MOL0     N20706   7.348   3.642   6.587 -0.5942  0.3820 -0.7949
  154MOL0     C20707   6.265   3.907   6.872  0.1227 -0.4738  0.5499
  154MOL0     C20708   6.135   3.937   6.911  0.3890  0.9313  0.0740
  154MOL0     C20709   5.694   3.871   7.097 -0.1314  0.6301 -0.2716
  154MOL0     C20710   5.630   3.883   7.224  0.1750 -0.0700 -0.6915
  154MOL0     C20711   5.513   3.960   7.232  0.8029  0.2734  0.5035
  154MOL0     C20712   5.460   4.032   7.125 -0.3839 -0.9709  0.1043
  154MOL0     O20713   5.339   4.101   7.126 -0.9567 -0.6762  0.0185
  154MOL0     C20714   5.248   4.093   7.235  0.2376 -0.6829 -0.5981
  154MOL0     C20715   5.121   4.176   7.215 -0.1337 -0.2618  0.6762
  154MOL0     C20716   5.157   4.329   7.193 -0.5198  0.2671 -0.4353
  154MOL0     C20717   5.043   4.425   7.204 -0.8486  0.3665  0.2587
  154MOL0     C20718   5.082   4.569   7.194 -0.5887  0.7108  0.1994
  154MOL0     C20719   5.112   4.685   7.185 -0.1695 -0.7855 -0.0081
  154MOL0     C20720   5.531   4.021   7.001 -0.0011 -0.3339  0.1238
  154MOL0     C20721   5.640   3.944   6.990 -0.1870 -0.0100  0.8539
  154MOL0     C20722   5.689   3.936   6.849  0.0278  0.3809  0.4592
  154MOL0     H20723   6.066   3.633   7.061  0.2531 -0.3476  2.3318
  154MOL0     H20724   6.281   3.589   6.998  0.6303  0.6695  0.3236
  154MOL0     H20725   6.437   3.829   6.688  0.9921  1.2230 -1.0488
  154MOL0     H20726   6.560   3.894   6.803 -0.8048 -0.6618  0.0099
  154MOL0     H20727   6.674   3.770   6.616  0.2494 -1.0590 -0.7985
  154MOL0     H20728   6.559   3.638   6.654 -1.2738  0.7007  0.4149
  154MOL0     H20729   6.664   3.625   6.870 -3.7933  0.4966 -1.7083
  154MOL0     H20730   6.776   3.762   6.810 -1.3367  0.9943 -2.1589
  154MOL0     H20731   6.759   3.477   6.688  1.6443 -1.2704  1.2138
  154MOL0     H20732   6.862   3.608   6.627  0.6914 -0.2337  1.3480
  154MOL0     H20733   6.978   3.601   6.857  0.9798  0.5844 -3.2801
  154MOL0     H20734   6.846   3.478   6.905 -2.0111 -0.4184 -0.7770
  154MOL0     H20735   7.042   3.365   6.882  4.3401 -0.4952 -2.4975
  154MOL0     H20736   6.907   3.316   6.773 -1.4315  1.0446  0.2790
  154MOL0     H20737   7.027   3.448   6.586  0.2111 -1.3047 -0.6113
  154MOL0     H20738   7.128   3.319   6.647  2.2855  0.9145 -1.1003
  154MOL0     H20739   7.173   3.589   6.767 -1.0593  1.7748 -4.3659
  154MOL0     H20740   7.249   3.436   6.806 -0.3825  1.4849  1.6353
  154MOL0     H20741   7.360   3.313   6.535 -1.8768  0.0937 -2.1862
  154MOL0     H20742   7.549   3.313   6.386  0.1047 -0.1711  1.6248
  154MOL0     H20743   7.569   3.450   6.293 -1.8430  3.7122  0.4655
  154MOL0     H20744   7.750   3.530   6.474 -2.2282  1.3943 -0.7163
  154MOL0     H20745   7.677   3.403   6.581  0.8869 -2.8064 -1.0367
  154MOL0     H20746   7.756   3.233   6.407 -0.0332  0.2197 -1.6918
  154MOL0     H20747   7.867   3.323   6.521 -0.7084  2.6680  0.6170
  154MOL0     H20748   7.915   3.479   6.309 -1.6636 -0.5292  0.7807
  154MOL0     H20749   7.818   3.363   6.223 -2.0500  2.4276  0.4499
  154MOL0     H20750   8.201   3.137   6.290 -0.1618  0.9694 -1.4341
  154MOL0     H20751   8.418   3.165   6.397 -3.3123 -2.1256 -2.8093
  154MOL0     H20752   8.620   3.209   6.747  0.0952 -2.0763  2.8841
  154MOL0     H20753   8.843   3.216   6.877 -1.3310 -0.6058 -0.2894
  154MOL0     H20754   8.973   3.597   7.073 -0.7489  0.5579  1.4602
  154MOL0     H20755   8.854   3.513   7.168 -0.4466 -1.5910  1.0039
  154MOL0     H20756   9.145   3.455   7.168  2.0839  2.0351  2.1865
  154MOL0     H20757   9.054   3.540   7.290 -1.3286 -0.6528  1.4502
  154MOL0     H20758   8.916   3.316   7.298  0.3016  1.0826  1.5298
  154MOL0     H20759   9.042   3.249   7.194  0.1675  1.2074 -0.9660
  154MOL0     H20760   9.080   3.399   7.461  0.3352  0.3589 -1.2274
  154MOL0     H20761   9.212   3.312   7.388  0.8713 -0.1290  2.3920
  154MOL0     H20762   8.961   3.171   7.467  0.0293  1.3935 -0.0030
  154MOL0     H20763   9.102   3.181   7.579  0.0020  0.1913 -0.2617
  154MOL0     H20764   9.089   2.957   7.442  0.2727  0.5948  1.4431
  154MOL0     H20765   9.132   3.063   7.306 -0.5657 -0.2550 -0.1645
  154MOL0     H20766   9.297   3.049   7.556  2.3127 -1.5978 -0.5705
  154MOL0     H20767   9.325   3.121   7.392  4.2774 -0.9452  0.9713
  154MOL0     H20768   9.286   2.824   7.467  0.6805 -0.8423 -1.1653
  154MOL0     H20769   9.309   2.891   7.293  1.1067 -0.5273  0.0180
  154MOL0     H20770   8.798   3.626   6.944  0.5601  0.6147 -1.0580
  154MOL0     H20771   8.601   3.628   6.803  2.2700  0.7887 -0.6520
  154MOL0     H20772   8.251   3.494   6.626 -1.4157  4.0191 -3.8427
  154MOL0     H20773   8.044   3.452   6.531 -0.9421  0.6378 -1.8497
  154MOL0     H20774   6.317   3.974   6.804 -1.3633 -0.3922 -0.5636
  154MOL0     H20775   6.089   4.032   6.885  1.0312  1.5610  1.1708
  154MOL0     H20776   5.651   3.821   7.310  3.1317 -2.1766 -2.7476
  154MOL0     H20777   5.450   3.958   7.321  2.0645  1.2239  1.4557
  154MOL0     H20778   5.290   4.134   7.327 -1.0611 -1.5852  0.4509
  154MOL0     H20779   5.221   3.990   7.260 -0.7044 -0.8597 -2.1628
  154MOL0     H20780   5.062   4.163   7.307  1.9424 -1.2326  1.9402
  154MOL0     H20781   5.063   4.140   7.129  0.0703 -1.9750  1.2048
  154MOL0     H20782   5.196   4.340   7.091 -1.7142  3.2040 -0.6943
  154MOL0     H20783   5.238   4.359   7.261  0.4500 -1.0349 -0.9671
  154MOL0     H20784   4.967   4.400   7.129 -1.8085  0.7439  1.0751
  154MOL0     H20785   5.003   4.415   7.305  0.0710  0.6784  0.6644
  154MOL0     H20786   5.127   4.787   7.157  0.5222 -1.2492 -1.4975
  154MOL0     H20787   5.497   4.075   6.913  1.9687 -0.7326 -0.9462
  154MOL0     H20788   5.617   3.958   6.770  0.0949 -1.8259 -0.2928
  154MOL0     H20789   5.789   3.978   6.834  0.5544 -0.3841  1.6405
  154MOL0     H20790   5.700   3.828   6.834 -3.6399 -0.2766  1.6414
  155MOL0     O20791   4.226   3.666   3.287 -0.0540  0.1199 -1.0516
  155MOL0     C20792   4.135   3.702   3.219  0.0928 -0.1711  0.1248
  155MOL0     O20793   4.141   3.801   3.122  0.3134 -0.1566 -0.3118
  155MOL0     C20794   4.260   3.860   3.085 -0.9562 -0.9246 -0.1984
  155MOL0     C20795   4.292   3.977   3.150 -0.3133 -0.6442 -0.8668
  155MOL0     C20796   4.416   4.039   3.128 -0.1236  0.3162 -0.0455
  155MOL0     C20797   4.496   4.001   3.015  0.2549 -0.2940 -0.3307
  155MOL0     O20798   4.616   4.073   2.989  0.3234  0.2310 -0.5561
  155MOL0     C20799   4.735   4.001   2.960 -0.4815  0.6024  0.0545
  155MOL0     C20800   4.854   4.094   2.988 -0.0977 -0.3131  0.0476
  155MOL0     C20801   5.000   4.033   2.966  0.0741  0.9419  0.4391
  155MOL0     C20802   5.106   4.142   2.989 -0.2376 -0.1687 -0.1140
  155MOL0     C20803   5.247   4.077   2.993 -0.7001  0.0986  0.3805
  155MOL0     C20804   5.353   4.171   3.044  0.3900  0.4791  0.2586
  155MOL0     C20805   5.490   4.106   3.081  0.0205 -0.1823 -0.0595
  155MOL0     C20806   5.478   4.034   3.210 -0.2633 -0.4717  0.4386
  155MOL0     N20807   5.599   3.962   3.251 -0.3060  0.4160  0.0350
  155MOL0     C20808   5.723   4.020   3.281  0.4515 -0.3443 -0.1182
  155MOL0     C20809   5.793   3.911   3.329 -0.5035 -0.3525  1.1043
  155MOL0     C20810   5.933   3.924   3.384 -0.2444  0.5919 -0.1249
  155MOL0     C20811   5.927   3.896   3.536  0.0350  0.2279  1.2140
  155MOL0     C20812   6.058   3.922   3.599 -0.3579 -0.5173 -0.5854
  155MOL0     C20813   6.173   3.829   3.557 -0.6503  0.2389 -0.5885
  155MOL0     O20814   6.297   3.847   3.614 -0.6732  0.2142 -0.5197
  155MOL0     C20815   6.414   3.806   3.563 -0.8463 -0.0826 -0.4894
  155MOL0     C20816   6.532   3.857   3.622  0.0086 -0.5398 -0.0314
  155MOL0     C20817   6.659   3.834   3.577  0.3434 -0.0559 -0.0355
  155MOL0     C20818   6.675   3.748   3.465  0.5864 -0.5686 -1.5768
  155MOL0     C20819   6.812   3.710   3.424  0.3014  0.0984  0.0016
  155MOL0     O20820   6.910   3.762   3.500 -0.1997 -0.2855  0.7901
  155MOL0     C20821   7.040   3.717   3.469  0.4260 -0.6824  0.0882
  155MOL0     C20822   7.129   3.699   3.576  0.3745 -0.3829  0.2294
  155MOL0     C20823   7.268   3.680   3.560  0.6018 -0.1999 -0.5996
  155MOL0     C20824   7.326   3.668   3.439  0.2279  0.2890  0.2969
  155MOL0     O20825   7.460   3.631   3.427 -0.3448  0.0555 -0.6909
  155MOL0     C20826   7.516   3.601   3.299 -0.6870 -0.9467  0.1410
  155MOL0     C20827   7.665   3.551   3.322  0.5513  0.2501 -0.2027
  155MOL0     C20828   7.737   3.525   3.186  0.3312  0.8758 -0.0136
  155MOL0     C20829   7.864   3.444   3.203 -0.1880  0.4141  0.3441
  155MOL0     C20830   7.977   3.482   3.100 -0.0143  0.3257  0.1807
  155MOL0     C20831   8.041   3.620   3.118 -0.3405 -0.0862  0.4792
  155MOL0     C20832   8.143   3.660   3.009 -0.7240  0.3703  0.1885
  155MOL0     C20833   8.239   3.765   3.061 -1.0934  0.2505 -0.1554
  155MOL0    Cl20834   8.147   3.903   3.140  0.2991 -0.5045  0.4332
  155MOL0     C20835   7.241   3.693   3.331  0.3314  0.0887  0.1700
  155MOL0     C20836   7.101   3.722   3.340 -0.1013 -0.7231  0.3942
  155MOL0     O20837   6.826   3.641   3.323  0.2452 -0.0153  0.2966
  155MOL0     C20838   6.564   3.676   3.419  0.0866 -0.4477 -0.6336
  155MOL0     C20839   6.439   3.713   3.465  0.3168  0.5201 -0.1629
  155MOL0     N20840   5.722   3.799   3.314  0.8279  0.5623  0.2774
  155MOL0     N20841   5.608   3.831   3.255  0.4915  0.0551  0.0572
  155MOL0     C20842   4.460   3.895   2.945  0.0609 -0.0870  0.1597
  155MOL0     C20843   4.344   3.820   2.978 -1.1907  0.3072 -0.2274
  155MOL0     C20844   3.998   3.648   3.253  0.7466  0.9745 -0.1261
  155MOL0     C20845   3.899   3.680   3.161  0.2859  0.7131 -0.4573
  155MOL0     C20846   3.768   3.628   3.176 -0.7067 -0.9131 -0.1622
  155MOL0     C20847   3.744   3.535   3.275  0.2612 -0.0458  0.2959
  155MOL0     O20848   3.626   3.474   3.290 -0.5171 -0.1028 -0.2551
  155MOL0     C20849   3.523   3.509   3.199 -0.0011 -0.0743  0.2464
  155MOL0     C20850   3.401   3.444   3.234  0.1886  0.2073  0.5330
  155MOL0     C20851   3.365   3.468   3.382  0.3818 -0.0834  0.0466
  155MOL0     C20852   3.247   3.382   3.440  0.0862  0.0970 -0.5464
  155MOL0     C20853   3.282   3.234   3.439  0.0741  0.4436 -0.9520
  155MOL0     C20854   3.283   3.114   3.456  0.5775 -0.0797 -0.2217
  155MOL0     C20855   3.841   3.511   3.373 -0.1072 -0.0829  0.5304
  155MOL0     C20856   3.969   3.565   3.369  1.5089 -0.7531 -0.5156
  155MOL0     C20857   4.054   3.529   3.483 -0.5838 -0.1059  0.4613
  155MOL0     H20858   4.230   4.014   3.232  0.7734 -1.1517  0.2062
  155MOL0     H20859   4.433   4.125   3.193 -1.4918  1.5908 -1.2835
  155MOL0     H20860   4.750   3.911   3.021 -0.2991  0.3819 -0.3123
  155MOL0     H20861   4.740   3.975   2.854  0.7403 -1.4200  0.5475
  155MOL0     H20862   4.854   4.125   3.093  1.2840 -3.3462  1.0503
  155MOL0     H20863   4.845   4.188   2.933  0.6348  1.1467  2.2743
  155MOL0     H20864   5.017   3.990   2.867  1.7806  1.6028  0.4197
  155MOL0     H20865   5.016   3.953   3.040 -0.3966 -0.7337 -1.1969
  155MOL0     H20866   5.105   4.223   2.915 -0.9480  0.3051  0.4108
  155MOL0     H20867   5.089   4.192   3.084  0.2960  0.5312 -0.3730
  155MOL0     H20868   5.253   3.986   3.053 -0.4763 -0.0051  0.2004
  155MOL0     H20869   5.275   4.057   2.890  2.3104  3.2516  0.4188
  155MOL0     H20870   5.369   4.248   2.968  0.9006  0.2049  0.0833
  155MOL0     H20871   5.322   4.224   3.135  1.1382 -0.8346  1.3096
  155MOL0     H20872   5.572   4.178   3.087  0.1255  0.0991 -3.1914
  155MOL0     H20873   5.510   4.040   2.995 -1.0762 -1.1505  0.3969
  155MOL0     H20874   5.441   4.102   3.287 -2.4763 -0.2421 -0.7361
  155MOL0     H20875   5.406   3.951   3.203 -0.8543  0.1337 -1.3588
  155MOL0     H20876   5.746   4.125   3.268 -0.0557  0.4609  4.1456
  155MOL0     H20877   5.997   3.847   3.340 -1.7893  0.5191 -2.4169
  155MOL0     H20878   5.976   4.023   3.366  1.1611 -0.3379 -2.4382
  155MOL0     H20879   5.849   3.961   3.578  0.1152  0.3132  1.2304
  155MOL0     H20880   5.902   3.791   3.553  2.7961 -1.2170 -2.5433
  155MOL0     H20881   6.037   3.899   3.704  1.7090 -3.0107 -0.6028
  155MOL0     H20882   6.095   4.022   3.579  1.5351 -1.3041 -1.2742
  155MOL0     H20883   6.180   3.820   3.448 -1.7454  0.2754 -0.6746
  155MOL0     H20884   6.138   3.729   3.584 -1.8904  0.9768  0.7014
  155MOL0     H20885   6.528   3.931   3.702  1.8940  0.6988 -1.0022
  155MOL0     H20886   6.742   3.881   3.630 -0.4863  0.8848  0.4486
  155MOL0     H20887   7.096   3.684   3.678  0.1810  0.4277  0.2857
  155MOL0     H20888   7.325   3.650   3.648  0.2043 -0.3230 -0.3790
  155MOL0     H20889   7.452   3.525   3.253 -2.1778  1.1922 -1.4698
  155MOL0     H20890   7.518   3.682   3.226  1.6189 -1.5785 -0.5879
  155MOL0     H20891   7.718   3.631   3.374 -0.8391  0.2566  1.2618
  155MOL0     H20892   7.668   3.459   3.380  3.4562 -1.0995 -2.2274
  155MOL0     H20893   7.671   3.470   3.120  0.8904  1.0298 -0.7146
  155MOL0     H20894   7.756   3.627   3.151 -0.2399  1.6270  1.7445
  155MOL0     H20895   7.851   3.335   3.202  0.6795  0.2938  0.7426
  155MOL0     H20896   7.906   3.467   3.302 -0.1268 -1.1134  0.7015
  155MOL0     H20897   7.937   3.495   2.999  2.2404  3.5605 -0.4746
  155MOL0     H20898   8.061   3.413   3.102 -0.4042 -0.1652 -0.4211
  155MOL0     H20899   7.960   3.692   3.131  0.8316  1.4814 -0.4383
  155MOL0     H20900   8.094   3.616   3.213  2.5763 -0.7696 -1.0420
  155MOL0     H20901   8.089   3.686   2.918  1.0870  2.4694 -0.3678
  155MOL0     H20902   8.209   3.578   2.980 -0.1935  1.1828 -0.9860
  155MOL0     H20903   8.306   3.725   3.138 -2.1219  0.4465  0.8600
  155MOL0     H20904   8.307   3.803   2.983  0.3145 -3.1532 -0.7672
  155MOL0     H20905   7.260   3.672   3.226 -3.5579 -1.6355 -0.3522
  155MOL0     H20906   7.053   3.758   3.250 -0.9595  0.7111  1.3913
  155MOL0     H20907   6.572   3.587   3.358  2.1550 -0.6931 -0.0580
  155MOL0     H20908   6.363   3.644   3.428  0.4139  1.0373 -1.3749
  155MOL0     H20909   4.521   3.859   2.862 -3.5949 -1.6056 -2.1270
  155MOL0     H20910   4.320   3.729   2.925 -1.0518 -2.2531  3.6891
  155MOL0     H20911   3.908   3.749   3.077  3.3049 -0.6571 -1.3795
  155MOL0     H20912   3.694   3.663   3.104 -0.2254  2.5945  0.8466
  155MOL0     H20913   3.545   3.472   3.099 -1.2878 -0.0077 -0.0816
  155MOL0     H20914   3.507   3.617   3.201  0.0093 -0.0750  0.3913
  155MOL0     H20915   3.404   3.337   3.211  0.4928  0.8891 -3.1101
  155MOL0     H20916   3.325   3.484   3.166  2.1455  1.1492 -1.1683
  155MOL0     H20917   3.328   3.570   3.397  0.4655 -0.1258  0.5420
  155MOL0     H20918   3.454   3.453   3.443  1.0015 -0.4991 -0.9386
  155MOL0     H20919   3.217   3.413   3.541  0.8501 -1.8152  0.3079
  155MOL0     H20920   3.163   3.398   3.372 -0.5734  2.7497  0.7509
  155MOL0     H20921   3.290   3.008   3.472 -0.1668 -0.8976 -4.1905
  155MOL0     H20922   3.811   3.446   3.455  1.4376 -1.2824  0.1920
  155MOL0     H20923   4.001   3.479   3.565  3.9231 -2.6121  2.2295
  155MOL0     H20924   4.130   3.460   3.443  1.2986  2.1045  0.0428
  155MOL0     H20925   4.118   3.610   3.520  1.6326 -1.9774  1.0366
  156MOL0     O20926   1.959   5.042   2.196 -0.3479  0.3217  0.3675
  156MOL0     C20927   1.888   5.046   2.295  0.6519 -0.3584 -0.3036
  156MOL0     O20928   1.934   5.076   2.423  0.0246  0.2983  0.4429
  156MOL0     C20929   2.073   5.096   2.429  0.0725  0.1667 -0.8442
  156MOL0     C20930   2.157   5.014   2.508 -0.2438 -0.0400  0.4367
  156MOL0     C20931   2.295   5.040   2.525  0.5804  0.2966 -0.2571
  156MOL0     C20932   2.349   5.153   2.466 -0.1251  0.4792 -0.1464
  156MOL0     O20933   2.482   5.186   2.483  0.0781 -0.1440  0.8101
  156MOL0     C20934   2.539   5.139   2.601 -0.4758 -0.4987  0.1115
  156MOL0     C20935   2.652   5.234   2.653  0.6037  0.4103  0.2013
  156MOL0     C20936   2.695   5.221   2.797  0.2202  0.0994  0.2027
  156MOL0     C20937   2.793   5.318   2.855 -0.2202 -0.4239  0.5935
  156MOL0     C20938   2.949   5.279   2.821 -0.0414 -0.5491  0.6958
  156MOL0     C20939   3.033   5.207   2.925 -0.2621 -0.1693 -0.9562
  156MOL0     C20940   3.186   5.185   2.896  0.5684 -0.6134  0.4579
  156MOL0     C20941   3.276   5.290   2.950  0.1555 -0.2531  0.5354
  156MOL0     N20942   3.424   5.258   2.950  0.0228  0.1989  1.3652
  156MOL0     C20943   3.492   5.207   2.845  0.5352  0.1905 -0.1889
  156MOL0     C20944   3.624   5.202   2.883  0.4966  0.6619 -1.1141
  156MOL0     C20945   3.741   5.163   2.788  1.0102 -0.5396  0.3951
  156MOL0     C20946   3.875   5.164   2.854  0.5412 -0.4723  0.8055
  156MOL0     C20947   3.981   5.141   2.748  0.6168  0.0944  0.6117
  156MOL0     C20948   4.125   5.117   2.813 -0.2039 -0.2914 -1.1838
  156MOL0     O20949   4.131   4.982   2.859 -0.9878 -0.2461  0.4303
  156MOL0     C20950   4.239   4.963   2.941  0.6081 -0.4983 -0.7664
  156MOL0     C20951   4.231   4.856   3.035  0.1590 -0.9527 -0.8961
  156MOL0     C20952   4.338   4.838   3.126 -0.7126 -0.3035 -0.6381
  156MOL0     C20953   4.448   4.929   3.132 -0.6429 -0.9227  0.8396
  156MOL0     C20954   4.552   4.910   3.243  0.5637 -0.1762  0.3227
  156MOL0     O20955   4.542   4.790   3.301 -0.0953 -0.3123 -0.2627
  156MOL0     C20956   4.656   4.741   3.366  0.1575 -0.3059 -0.3007
  156MOL0     C20957   4.790   4.757   3.322  0.5731  0.3528 -0.3324
  156MOL0     C20958   4.895   4.683   3.382 -0.1787  0.3693  0.5323
  156MOL0     C20959   4.870   4.595   3.491  0.3206  0.1281 -0.3985
  156MOL0     O20960   4.979   4.528   3.541 -0.2949 -0.0643  0.5094
  156MOL0     C20961   4.955   4.478   3.680  0.2850 -0.1176  0.3985
  156MOL0     C20962   5.092   4.479   3.750  0.1554 -1.1334 -0.0184
  156MOL0     C20963   5.132   4.628   3.771  0.0280 -0.5331  0.1477
  156MOL0     C20964   5.283   4.642   3.748 -0.3821  0.1190 -0.5523
  156MOL0     C20965   5.306   4.650   3.598  1.1819  0.7958  0.7663
  156MOL0     C20966   5.425   4.725   3.556 -0.1346  0.4129 -0.3037
  156MOL0     C20967   5.560   4.652   3.599  0.1689 -0.6418 -0.4197
  156MOL0     C20968   5.688   4.731   3.553 -0.2261 -0.1789  0.1897
  156MOL0    Cl20969   5.683   4.887   3.629  0.0896  0.0506  0.0921
  156MOL0     C20970   4.734   4.582   3.532 -0.9995 -0.5347  0.8943
  156MOL0     C20971   4.630   4.653   3.472 -0.2699 -0.2675 -0.2360
  156MOL0     O20972   4.636   4.996   3.261  0.3081  0.1643  0.0969
  156MOL0     C20973   4.460   5.030   3.034  0.1643 -0.0732 -0.0829
  156MOL0     C20974   4.358   5.043   2.943 -0.2634 -0.3300 -0.0806
  156MOL0     N20975   3.633   5.258   3.016  0.0631 -0.4220  0.5875
  156MOL0     N20976   3.512   5.284   3.053  0.1786  0.5612 -0.6186
  156MOL0     C20977   2.270   5.244   2.400  0.2800 -0.1125 -0.3322
  156MOL0     C20978   2.129   5.218   2.386  0.1514  0.1633  0.3410
  156MOL0     C20979   1.739   5.017   2.275  0.1274 -0.0884  0.3266
  156MOL0     C20980   1.642   5.080   2.347  0.7125 -0.1402 -0.3005
  156MOL0     C20981   1.506   5.071   2.311  0.0887  0.5257 -0.7791
  156MOL0     C20982   1.467   4.977   2.213 -0.1608 -0.0222 -0.5819
  156MOL0     O20983   1.328   4.954   2.175  0.5137 -0.3635  0.2281
  156MOL0     C20984   1.295   4.916   2.034 -0.2604  0.0003 -0.2919
  156MOL0     C20985   1.148   4.946   2.001 -0.8391  0.6633 -0.5531
  156MOL0     C20986   1.042   4.890   2.104 -0.5939 -1.2679  0.3883
  156MOL0     C20987   0.900   4.930   2.076 -0.1238  0.1950  0.2961
  156MOL0     C20988   0.817   4.814   2.079  0.3600  0.1834 -0.4823
  156MOL0     C20989   0.744   4.713   2.084 -0.0371 -0.1420 -0.3322
  156MOL0     C20990   1.568   4.895   2.149  0.2544  0.0824 -0.2994
  156MOL0     C20991   1.701   4.919   2.183 -0.1466  0.0381  0.8380
  156MOL0     C20992   1.808   4.830   2.112 -0.0652  0.4067 -0.4263
  156MOL0     H20993   2.123   4.920   2.550  1.0097 -0.3966  0.6999
  156MOL0     H20994   2.363   4.965   2.564 -1.6237 -1.2139  0.9524
  156MOL0     H20995   2.473   5.128   2.687  0.2325 -2.1032  0.4874
  156MOL0     H20996   2.582   5.040   2.583 -0.7252 -0.1285 -2.9947
  156MOL0     H20997   2.616   5.337   2.646  2.8565  1.3937  2.0960
  156MOL0     H20998   2.739   5.207   2.593  0.4213 -1.7754  0.8542
  156MOL0     H20999   2.731   5.119   2.814  0.7960  0.1395 -0.7470
  156MOL0     H21000   2.599   5.246   2.844  0.1554  2.2129 -0.9522
  156MOL0     H21001   2.773   5.418   2.814  2.1370 -0.4560 -0.8004
  156MOL0     H21002   2.799   5.328   2.964  0.8453 -0.6866  0.5746
  156MOL0     H21003   2.956   5.224   2.727 -0.3250  0.5222  0.0281
  156MOL0     H21004   3.002   5.373   2.806 -1.9315  0.6632  1.1759
  156MOL0     H21005   3.029   5.266   3.017  1.2784 -1.8669  0.2770
  156MOL0     H21006   2.994   5.106   2.942 -0.1117 -0.0124  0.3697
  156MOL0     H21007   3.194   5.170   2.788 -3.8190 -4.5097  0.3600
  156MOL0     H21008   3.223   5.088   2.928  1.8280 -0.6521 -0.9857
  156MOL0     H21009   3.256   5.379   2.890 -0.0512  0.1032  1.1260
  156MOL0     H21010   3.246   5.308   3.053  1.9786  0.9483  0.9041
  156MOL0     H21011   3.455   5.172   2.749  0.0008 -1.2221  0.4884
  156MOL0     H21012   3.719   5.058   2.768  0.2486 -0.3155 -0.0040
  156MOL0     H21013   3.748   5.219   2.694  3.1395 -2.4707 -0.6983
  156MOL0     H21014   3.895   5.260   2.902  1.7361 -0.2469 -0.1072
  156MOL0     H21015   3.882   5.084   2.928  6.4277 -0.7109  0.4334
  156MOL0     H21016   3.988   5.226   2.680 -1.9843  0.0572  0.1610
  156MOL0     H21017   3.977   5.047   2.691  2.6319  0.2963  0.0706
  156MOL0     H21018   4.148   5.192   2.889 -0.2363  0.6709 -2.1005
  156MOL0     H21019   4.200   5.128   2.734  0.3584  0.2521 -0.5890
  156MOL0     H21020   4.141   4.795   3.037  0.4715 -1.6348 -3.8829
  156MOL0     H21021   4.339   4.753   3.194 -0.7497 -2.3930 -3.0973
  156MOL0     H21022   4.825   4.816   3.238 -1.6123  0.4990 -1.2038
  156MOL0     H21023   4.996   4.706   3.352  0.4348  0.1453  2.3144
  156MOL0     H21024   4.887   4.553   3.723  1.3044  1.8681 -1.2517
  156MOL0     H21025   4.918   4.375   3.680  2.4761 -0.9526  0.0947
  156MOL0     H21026   5.083   4.436   3.850 -0.2357 -0.0745  0.4204
  156MOL0     H21027   5.166   4.428   3.689 -0.6180 -1.8818 -0.3542
  156MOL0     H21028   5.074   4.704   3.718 -0.3497 -1.7612 -1.2717
  156MOL0     H21029   5.108   4.650   3.875 -0.5110 -0.2159 -0.0426
  156MOL0     H21030   5.351   4.566   3.787  1.4582  2.2160  0.5435
  156MOL0     H21031   5.322   4.734   3.790  2.2024 -0.1472 -2.1189
  156MOL0     H21032   5.219   4.699   3.552  0.3554 -0.7405  0.6218
  156MOL0     H21033   5.312   4.551   3.551  0.4389 -0.0870  2.4243
  156MOL0     H21034   5.425   4.750   3.449  0.5636  1.0245 -0.1682
  156MOL0     H21035   5.423   4.821   3.607 -0.1087 -0.5389  1.5628
  156MOL0     H21036   5.557   4.551   3.558 -3.5086 -0.5886 -0.5240
  156MOL0     H21037   5.571   4.650   3.708 -1.7315  1.4389 -0.1316
  156MOL0     H21038   5.778   4.676   3.584 -0.2467 -0.4051 -0.1375
  156MOL0     H21039   5.690   4.759   3.447 -0.6981  2.1124  0.7363
  156MOL0     H21040   4.713   4.516   3.615  0.5085  0.1369  1.8439
  156MOL0     H21041   4.526   4.635   3.498 -0.5012 -1.3229 -1.7750
  156MOL0     H21042   4.540   5.103   3.038 -1.6881  2.0231  1.1913
  156MOL0     H21043   4.371   5.119   2.867 -2.5433 -2.2989 -2.6890
  156MOL0     H21044   2.297   5.344   2.369  0.6724  0.0287  0.4311
  156MOL0     H21045   2.072   5.297   2.337 -0.0080 -0.3629 -0.3242
  156MOL0     H21046   1.657   5.146   2.432 -6.5333  0.1811  1.4118
  156MOL0     H21047   1.432   5.128   2.366  0.2741 -0.1702  0.2342
  156MOL0     H21048   1.326   4.812   2.020  1.6564  0.1765  1.9779
  156MOL0     H21049   1.358   4.971   1.963  1.3941 -1.6002 -0.1457
  156MOL0     H21050   1.132   4.905   1.901  0.6637 -0.6263 -0.3270
  156MOL0     H21051   1.132   5.053   1.993  0.7600  0.8189 -2.7390
  156MOL0     H21052   1.074   4.926   2.202 -1.5830 -0.2290  0.3517
  156MOL0     H21053   1.045   4.780   2.105 -1.8044 -1.3344 -0.5857
  156MOL0     H21054   0.863   5.002   2.149  1.2520 -1.1126  2.3796
  156MOL0     H21055   0.890   4.967   1.973  2.3931  0.8866  0.2371
  156MOL0     H21056   0.676   4.631   2.094  0.4426 -0.3666  1.3570
  156MOL0     H21057   1.541   4.813   2.084  2.8887 -0.6705 -0.5654
  156MOL0     H21058   1.759   4.758   2.046 -4.3464  4.1813 -1.8841
  156MOL0     H21059   1.883   4.885   2.054  1.1353 -0.9686 -0.2259
  156MOL0     H21060   1.861   4.772   2.188  5.3716 -1.5922 -5.0226
  157MOL0     O21061   5.254   8.450   9.166 -0.2800  1.0206  0.2409
  157MOL0     C21062   5.236   8.556   9.106 -0.2571 -0.1727 -0.5075
  157MOL0     O21063   5.322   8.615   9.014 -0.5616 -0.5234  0.3776
  157MOL0     C21064   5.448   8.570   8.983  0.3549 -0.6124 -0.1341
  157MOL0     C21065   5.477   8.439   8.961 -0.5557 -0.2194  0.2642
  157MOL0     C21066   5.612   8.392   8.946  0.5856 -0.5956 -0.3542
  157MOL0     C21067   5.725   8.483   8.942  0.8796 -1.0490 -0.0650
  157MOL0     O21068   5.862   8.455   8.930  0.5982  0.0122 -0.1602
  157MOL0     C21069   5.902   8.322   8.937 -0.9974  0.0913 -0.3046
  157MOL0     C21070   6.054   8.336   8.919  0.8934 -0.0138  0.3226
  157MOL0     C21071   6.110   8.206   8.936  0.0932  0.1425 -0.3700
  157MOL0     C21072   6.265   8.212   8.922  0.1847  1.0193 -0.2553
  157MOL0     C21073   6.330   8.072   8.913  0.5478 -0.3047  0.1093
  157MOL0     C21074   6.476   8.090   8.869 -0.2848 -0.0557 -0.6178
  157MOL0     C21075   6.535   7.959   8.820 -0.2726 -0.3454 -0.1001
  157MOL0     C21076   6.683   7.950   8.798  1.2311  0.0610  0.5255
  157MOL0     N21077   6.716   7.836   8.711 -0.0024  0.9377 -0.0467
  157MOL0     C21078   6.742   7.710   8.751 -0.0356  0.6776 -0.4036
  157MOL0     C21079   6.757   7.642   8.629 -0.5394  0.4415  0.0287
  157MOL0     C21080   6.771   7.493   8.606 -0.7347  1.0320 -0.5001
  157MOL0     C21081   6.924   7.467   8.615 -0.3812 -0.5776  0.3366
  157MOL0     C21082   6.954   7.325   8.548  0.0433 -0.0280  0.3505
  157MOL0     C21083   7.064   7.244   8.628  0.0825  0.1377  0.0020
  157MOL0     O21084   7.193   7.310   8.602  0.2918  0.6193 -0.6121
  157MOL0     C21085   7.307   7.238   8.634 -0.5719 -0.1556 -0.0885
  157MOL0     C21086   7.311   7.113   8.696  0.2831 -0.0128  0.2268
  157MOL0     C21087   7.435   7.043   8.704 -0.4486  0.5674  0.0531
  157MOL0     C21088   7.556   7.103   8.661  0.3634  1.0411 -0.0758
  157MOL0     C21089   7.682   7.026   8.666  0.5665 -0.1809 -0.0030
  157MOL0     O21090   7.680   6.912   8.739 -0.7934  0.5954 -0.3849
  157MOL0     C21091   7.793   6.836   8.745 -0.3243  0.3567 -0.2941
  157MOL0     C21092   7.924   6.877   8.771  0.6308  1.2088  1.4080
  157MOL0     C21093   8.020   6.783   8.799 -0.5467 -0.1124  1.0130
  157MOL0     C21094   7.998   6.651   8.788  0.2389  0.5239  0.3910
  157MOL0     O21095   8.109   6.570   8.783 -0.2069 -0.1749  0.4197
  157MOL0     C21096   8.083   6.437   8.756 -0.1508  0.0778  0.0789
  157MOL0     C21097   8.215   6.354   8.741 -0.9748  0.0502  0.1283
  157MOL0     C21098   8.314   6.376   8.857 -0.0980 -0.8565 -0.4694
  157MOL0     C21099   8.439   6.287   8.862  0.4396 -0.2410  0.9639
  157MOL0     C21100   8.509   6.300   8.997 -0.1903 -0.8145 -0.4014
  157MOL0     C21101   8.525   6.156   9.047  0.2957 -1.1212  0.5292
  157MOL0     C21102   8.599   6.161   9.185 -0.4857  0.0597 -0.5263
  157MOL0     C21103   8.731   6.091   9.179  0.3469  0.8834 -0.4635
  157MOL0    Cl21104   8.839   6.162   9.053 -0.2248 -0.1367  0.2250
  157MOL0     C21105   7.860   6.612   8.768  0.8737 -0.1818  0.1655
  157MOL0     C21106   7.761   6.701   8.748  0.7943  0.0710 -0.0026
  157MOL0     O21107   7.777   7.064   8.596  0.9382  0.0237 -0.5559
  157MOL0     C21108   7.551   7.225   8.600  0.3430  0.6178 -0.2251
  157MOL0     C21109   7.424   7.290   8.580  0.7843 -0.1354  0.0033
  157MOL0     N21110   6.741   7.734   8.529 -0.4456 -0.0355  0.5246
  157MOL0     N21111   6.707   7.848   8.578 -0.1522  0.3247  0.1432
  157MOL0     C21112   5.688   8.621   8.958 -0.4484  0.0719  0.3904
  157MOL0     C21113   5.550   8.664   8.968 -0.1842  0.0832  0.1613
  157MOL0     C21114   5.109   8.634   9.128  0.1437 -0.0016 -0.7297
  157MOL0     C21115   5.077   8.718   9.018 -0.0040  0.5130  0.2220
  157MOL0     C21116   4.951   8.771   9.010  0.7657 -0.5871 -0.2099
  157MOL0     C21117   4.861   8.768   9.117 -0.0477 -0.8273 -0.0510
  157MOL0     O21118   4.732   8.817   9.099 -0.1056  0.6554 -0.2213
  157MOL0     C21119   4.659   8.877   9.209 -0.3321 -0.4466  0.3915
  157MOL0     C21120   4.543   8.968   9.162  0.4599  1.1830 -0.9134
  157MOL0     C21121   4.416   8.897   9.113 -0.8252 -0.3178 -0.5464
  157MOL0     C21122   4.308   9.000   9.073 -0.2963  0.8253 -0.2726
  157MOL0     C21123   4.184   8.928   9.040  1.0731  0.0536  0.3145
  157MOL0     C21124   4.077   8.866   9.030  0.1770 -0.0513  0.0042
  157MOL0     C21125   4.901   8.713   9.236 -0.2888 -0.5340 -1.5154
  157MOL0     C21126   5.024   8.635   9.241  0.8724 -0.6445  0.2021
  157MOL0     C21127   5.052   8.559   9.370 -0.0338  0.1439 -0.8031
  157MOL0     H21128   5.394   8.370   8.969  0.2460 -1.3520 -0.8173
  157MOL0     H21129   5.614   8.285   8.929 -1.2129 -0.9490  1.2983
  157MOL0     H21130   5.880   8.280   9.036  2.5619 -0.4106  0.3943
  157MOL0     H21131   5.855   8.260   8.861  2.2528 -0.3332 -2.1319
  157MOL0     H21132   6.107   8.405   8.986  0.0674  2.3333 -1.3080
  157MOL0     H21133   6.068   8.376   8.819 -3.2887  1.1237  0.0202
  157MOL0     H21134   6.077   8.145   8.851  0.5458 -0.5074 -0.0893
  157MOL0     H21135   6.079   8.158   9.029  1.7472  1.2878  0.8340
  157MOL0     H21136   6.284   8.262   8.827 -1.4819  0.1831 -1.0712
  157MOL0     H21137   6.305   8.258   9.013 -2.4065  0.7733  1.1188
  157MOL0     H21138   6.313   8.002   8.995 -1.8398 -4.0956 -3.2776
  157MOL0     H21139   6.272   8.021   8.836  0.8214  0.0234 -0.3219
  157MOL0     H21140   6.484   8.162   8.787 -1.8615  1.2880  0.3384
  157MOL0     H21141   6.535   8.123   8.955  2.1009  0.2415 -2.2702
  157MOL0     H21142   6.479   7.923   8.733 -3.4390 -1.0924  2.0481
  157MOL0     H21143   6.510   7.881   8.893 -0.1509  0.4583  0.8253
  157MOL0     H21144   6.700   8.042   8.742 -1.7222 -0.1775 -0.9613
  157MOL0     H21145   6.732   7.946   8.895  1.7864  1.9406  0.3649
  157MOL0     H21146   6.741   7.668   8.851 -0.4421  0.7808 -0.3632
  157MOL0     H21147   6.720   7.430   8.679  0.3857 -0.4515 -0.9350
  157MOL0     H21148   6.725   7.469   8.509  0.5718 -1.9131 -0.5193
  157MOL0     H21149   6.972   7.555   8.572 -0.1330 -0.7464  0.2682
  157MOL0     H21150   6.955   7.465   8.719  2.1752 -2.1392 -0.3721
  157MOL0     H21151   6.990   7.336   8.445  0.4739 -0.6663  0.4258
  157MOL0     H21152   6.858   7.274   8.555 -0.2914  0.7665  6.3424
  157MOL0     H21153   7.066   7.144   8.584  2.7348  1.8633 -4.6119
  157MOL0     H21154   7.042   7.235   8.734  0.6301 -0.5614  0.0570
  157MOL0     H21155   7.221   7.061   8.726 -0.3822  0.2175 -1.2772
  157MOL0     H21156   7.435   6.945   8.749  0.6342  0.1426 -0.8353
  157MOL0     H21157   7.939   6.984   8.782 -1.0484  1.7530 -0.8176
  157MOL0     H21158   8.116   6.831   8.814 -0.5022  1.0111 -2.1380
  157MOL0     H21159   8.026   6.400   8.842 -0.1776 -1.2552 -0.4779
  157MOL0     H21160   8.021   6.421   8.667  1.6587 -0.4801 -1.1333
  157MOL0     H21161   8.191   6.248   8.741 -0.9865  0.0362 -1.3418
  157MOL0     H21162   8.261   6.375   8.644  1.8258  2.2763  1.7770
  157MOL0     H21163   8.335   6.484   8.863 -0.4626 -0.8260  0.4718
  157MOL0     H21164   8.249   6.357   8.943 -2.7649  2.6179 -1.4645
  157MOL0     H21165   8.505   6.330   8.786 -1.6476  0.2394 -0.6484
  157MOL0     H21166   8.404   6.185   8.844  0.4104  0.1566 -1.5638
  157MOL0     H21167   8.448   6.361   9.063  2.3949 -1.2584  2.6164
  157MOL0     H21168   8.605   6.349   8.985  0.9409 -3.0305 -0.9672
  157MOL0     H21169   8.422   6.121   9.059  0.5759 -2.1344  0.1150
  157MOL0     H21170   8.573   6.087   8.977 -1.6074 -0.3236 -1.7157
  157MOL0     H21171   8.543   6.117   9.267 -1.1678  2.6744  0.5209
  157MOL0     H21172   8.614   6.263   9.221  0.5734 -1.1513  2.7913
  157MOL0     H21173   8.786   6.090   9.274  0.7754  2.1773 -0.6830
  157MOL0     H21174   8.717   5.988   9.145 -1.5067  0.4132  1.4946
  157MOL0     H21175   7.834   6.507   8.769 -1.6029  0.3466 -0.3273
  157MOL0     H21176   7.659   6.663   8.737  0.5909  0.5836  0.0961
  157MOL0     H21177   7.638   7.268   8.551 -0.5816  0.9079 -1.6856
  157MOL0     H21178   7.418   7.384   8.526  0.9202  1.0477  1.9199
  157MOL0     H21179   5.770   8.692   8.949 -0.6353  0.2353 -0.0543
  157MOL0     H21180   5.512   8.764   8.987 -0.2817 -0.2277  1.7220
  157MOL0     H21181   5.144   8.739   8.935 -0.6402 -2.3447 -1.1409
  157MOL0     H21182   4.910   8.815   8.920 -3.8406  0.0010  1.9165
  157MOL0     H21183   4.729   8.941   9.264 -1.1142  1.4934 -0.7373
  157MOL0     H21184   4.618   8.795   9.269  0.4590  0.1626  1.8087
  157MOL0     H21185   4.576   9.033   9.081  0.5205  2.3392  0.0112
  157MOL0     H21186   4.522   9.031   9.249 -0.8089 -2.8884  2.0754
  157MOL0     H21187   4.387   8.827   9.192 -0.7814  0.4534  0.1680
  157MOL0     H21188   4.450   8.836   9.028  1.2640 -1.1434  0.8081
  157MOL0     H21189   4.276   9.068   9.153 -1.7308 -0.5073  0.3271
  157MOL0     H21190   4.334   9.053   8.981 -0.7159 -1.1582 -1.5840
  157MOL0     H21191   3.985   8.812   9.026 -0.4102  0.9884 -2.3876
  157MOL0     H21192   4.845   8.716   9.329  2.3708  0.4310  0.1753
  157MOL0     H21193   5.069   8.454   9.343 -2.8726 -0.5581 -0.1258
  157MOL0     H21194   5.139   8.598   9.424  1.3039 -0.5158 -2.3838
  157MOL0     H21195   4.967   8.560   9.438  0.5383  2.3197 -0.0562
  158MOL0     O21196   2.327   8.588   4.090 -0.1153  0.2493  0.0228
  158MOL0     C21197   2.295   8.605   4.207  0.1121  0.1282  0.7612
  158MOL0     O21198   2.378   8.597   4.316 -0.1602  0.7212 -0.0865
  158MOL0     C21199   2.507   8.592   4.284  0.6294 -0.2507  0.3911
  158MOL0     C21200   2.575   8.709   4.257  0.6709 -1.3704  0.5839
  158MOL0     C21201   2.714   8.714   4.233  0.5155 -0.0326 -0.0691
  158MOL0     C21202   2.794   8.602   4.231 -0.2020  0.2486  0.2431
  158MOL0     O21203   2.933   8.609   4.208 -0.0646  0.6474  0.1556
  158MOL0     C21204   3.021   8.491   4.203 -0.8325  0.0234 -0.6523
  158MOL0     C21205   3.169   8.526   4.194 -0.3104  0.0690 -0.1748
  158MOL0     C21206   3.269   8.407   4.221 -0.3801  0.1928 -0.0390
  158MOL0     C21207   3.410   8.453   4.174 -0.4942 -0.3005  0.2405
  158MOL0     C21208   3.528   8.373   4.248 -0.3347  0.5582  0.2180
  158MOL0     C21209   3.646   8.383   4.156  0.8906  0.2592 -0.2433
  158MOL0     C21210   3.766   8.300   4.210 -0.3819 -0.3738 -0.0497
  158MOL0     C21211   3.880   8.306   4.112 -0.1622 -0.6902  0.4107
  158MOL0     N21212   3.992   8.226   4.155  0.0787  0.7021 -0.1991
  158MOL0     C21213   4.008   8.100   4.215 -0.2592 -0.2070 -0.2409
  158MOL0     C21214   4.132   8.093   4.256 -1.6736  0.2435 -0.1149
  158MOL0     C21215   4.182   7.985   4.354 -0.7912  0.8424 -0.5494
  158MOL0     C21216   4.337   7.978   4.356  0.4950  0.1043 -0.1817
  158MOL0     C21217   4.418   7.944   4.224  0.3693  0.5006  0.2437
  158MOL0     C21218   4.366   7.823   4.140  0.4395 -0.4289 -0.2629
  158MOL0     O21219   4.357   7.703   4.212 -0.4023  0.2815 -0.1325
  158MOL0     C21220   4.467   7.625   4.234 -0.2546  0.1956 -0.4176
  158MOL0     C21221   4.590   7.657   4.190 -0.4290  0.0422  0.7254
  158MOL0     C21222   4.704   7.567   4.216  0.5278 -0.4329  1.3069
  158MOL0     C21223   4.682   7.451   4.287 -0.0811  0.2581  0.2209
  158MOL0     C21224   4.795   7.359   4.326  0.3890  1.0680  0.3726
  158MOL0     O21225   4.919   7.407   4.289 -0.6597  0.5539 -0.1572
  158MOL0     C21226   5.035   7.366   4.353  0.0624  0.2677  0.6100
  158MOL0     C21227   5.088   7.239   4.358 -0.5879  0.4759  0.0084
  158MOL0     C21228   5.204   7.201   4.427  0.6691  0.2444  0.4314
  158MOL0     C21229   5.277   7.301   4.497 -0.0515  0.0148 -1.0002
  158MOL0     O21230   5.406   7.276   4.559  0.3631 -0.4808 -0.0579
  158MOL0     C21231   5.460   7.147   4.532 -0.0350  0.2891  0.5613
  158MOL0     C21232   5.579   7.121   4.621 -0.4647  0.4101 -0.9167
  158MOL0     C21233   5.683   7.020   4.573  0.0713  0.7294 -1.1511
  158MOL0     C21234   5.774   7.056   4.461 -0.2941  0.3270  0.4087
  158MOL0     C21235   5.909   6.984   4.470 -0.1998 -0.0038 -1.1317
  158MOL0     C21236   5.973   6.971   4.333  0.2656 -0.3084 -0.0682
  158MOL0     C21237   6.111   6.904   4.355 -0.9962 -1.2254 -0.3996
  158MOL0     C21238   6.218   7.003   4.308  0.2592 -0.1358 -0.2321
  158MOL0    Cl21239   6.220   7.014   4.123 -0.0196  0.4554  0.1513
  158MOL0     C21240   5.227   7.435   4.502  0.1708 -0.6795  0.2667
  158MOL0     C21241   5.113   7.468   4.414  0.5896 -0.1068  0.0966
  158MOL0     O21242   4.777   7.271   4.408  0.2359  0.2778  0.0372
  158MOL0     C21243   4.548   7.414   4.328  0.2282 -0.5896 -0.1848
  158MOL0     C21244   4.442   7.498   4.302  0.4081 -0.8566  0.4141
  158MOL0     N21245   4.198   8.207   4.219  1.0581  0.0837 -0.0463
  158MOL0     N21246   4.120   8.280   4.157  0.3530 -0.1563 -0.1643
  158MOL0     C21247   2.727   8.481   4.263 -0.8085 -0.8601 -0.5491
  158MOL0     C21248   2.587   8.478   4.298 -0.0054 -0.7011 -0.9415
  158MOL0     C21249   2.153   8.643   4.231 -0.0579 -1.1460 -0.2373
  158MOL0     C21250   2.057   8.567   4.164  0.2308 -0.0047  0.0323
  158MOL0     C21251   1.922   8.565   4.213  0.7336 -0.7610  0.6220
  158MOL0     C21252   1.883   8.646   4.311  0.4626 -1.1358 -0.2178
  158MOL0     O21253   1.753   8.632   4.356  0.0688  0.2468  0.4091
  158MOL0     C21254   1.717   8.716   4.471 -0.0240 -0.5011  0.2726
  158MOL0     C21255   1.569   8.713   4.497  0.2670  0.5695 -0.0875
  158MOL0     C21256   1.516   8.568   4.505  1.0930  0.1786  0.0808
  158MOL0     C21257   1.363   8.570   4.466 -0.9131  0.9931  0.3332
  158MOL0     C21258   1.288   8.625   4.576  0.6712  0.5623  0.6290
  158MOL0     C21259   1.210   8.657   4.668 -0.5545  0.4699  0.3183
  158MOL0     C21260   1.972   8.733   4.369 -0.4733 -0.3802 -0.1758
  158MOL0     C21261   2.110   8.728   4.333  0.6846  0.0925  0.0013
  158MOL0     C21262   2.207   8.802   4.416  1.1108 -0.0218  0.3754
  158MOL0     H21263   2.518   8.801   4.255  1.9173 -0.5743  0.2941
  158MOL0     H21264   2.751   8.814   4.215 -1.5990  1.3463  2.5092
  158MOL0     H21265   2.997   8.423   4.286 -2.6665 -0.4085 -1.4855
  158MOL0     H21266   3.002   8.427   4.117  1.1433 -3.3439  1.2094
  158MOL0     H21267   3.181   8.598   4.276  1.0535 -0.4692  0.1246
  158MOL0     H21268   3.198   8.580   4.103 -3.1828  1.5338 -0.3279
  158MOL0     H21269   3.236   8.312   4.177 -2.2821  1.0429 -0.5466
  158MOL0     H21270   3.275   8.400   4.330  1.6820  2.6112  0.0802
  158MOL0     H21271   3.420   8.443   4.066 -1.1057  1.3129  0.0080
  158MOL0     H21272   3.426   8.560   4.189 -3.2020  0.2570 -0.3869
  158MOL0     H21273   3.561   8.404   4.348 -0.9506 -1.4652  1.1116
  158MOL0     H21274   3.494   8.269   4.259 -1.3469  0.8890  0.3294
  158MOL0     H21275   3.610   8.338   4.063 -2.9641  0.8628  0.7909
  158MOL0     H21276   3.671   8.487   4.135 -1.8225  0.7296 -1.6621
  158MOL0     H21277   3.738   8.195   4.220  1.1448 -0.9113 -1.1146
  158MOL0     H21278   3.796   8.331   4.311 -0.4567  1.7080 -0.6210
  158MOL0     H21279   3.858   8.292   4.005 -0.0387  0.3436  0.2398
  158MOL0     H21280   3.917   8.408   4.117  1.3457 -1.0673 -1.6255
  158MOL0     H21281   3.923   8.037   4.240  0.2807 -1.1824 -0.8200
  158MOL0     H21282   4.150   8.011   4.455 -0.2123 -2.0670  0.4706
  158MOL0     H21283   4.135   7.891   4.323 -0.2024  0.0217  0.9404
  158MOL0     H21284   4.374   8.074   4.392  3.3750 -1.8599  2.5745
  158MOL0     H21285   4.359   7.906   4.435 -1.4512  0.4877  0.7888
  158MOL0     H21286   4.522   7.921   4.250  0.2743  0.1643  0.3286
  158MOL0     H21287   4.414   8.029   4.156  1.1639 -0.3424 -0.8972
  158MOL0     H21288   4.445   7.821   4.065 -0.2429 -3.2959 -1.0221
  158MOL0     H21289   4.270   7.856   4.098  0.4147  1.3356  1.0573
  158MOL0     H21290   4.618   7.750   4.143  1.4857 -0.5306  0.6526
  158MOL0     H21291   4.806   7.592   4.189 -0.0021 -0.1123 -0.5228
  158MOL0     H21292   5.025   7.166   4.308 -0.5853  0.8887 -0.6071
  158MOL0     H21293   5.238   7.099   4.410 -2.8474 -0.8110 -1.2495
  158MOL0     H21294   5.390   7.067   4.559 -1.4988  0.6131 -1.9924
  158MOL0     H21295   5.483   7.140   4.425 -0.4283  0.0908  0.4897
  158MOL0     H21296   5.632   7.213   4.646  2.3465 -1.5959  1.1409
  158MOL0     H21297   5.540   7.093   4.720 -0.1188  1.5474 -0.4425
  158MOL0     H21298   5.745   7.016   4.663 -1.1001  2.1871 -0.2235
  158MOL0     H21299   5.633   6.930   4.537  2.3405  0.0024 -2.6307
  158MOL0     H21300   5.801   7.162   4.458 -2.6073  0.9700 -0.5867
  158MOL0     H21301   5.721   7.027   4.369  0.5517 -2.1848  0.6519
  158MOL0     H21302   5.890   6.883   4.508 -2.0675  1.3684  1.9310
  158MOL0     H21303   5.977   7.031   4.541 -0.0652  0.8035 -1.7733
  158MOL0     H21304   5.914   6.901   4.273  4.0484 -2.1265 -1.9779
  158MOL0     H21305   5.973   7.068   4.283  1.9311  0.0270  0.5410
  158MOL0     H21306   6.112   6.813   4.295 -1.3681 -0.8866 -0.9202
  158MOL0     H21307   6.149   6.882   4.456  0.7688  1.2988 -0.4213
  158MOL0     H21308   6.186   7.095   4.358 -2.0034 -1.7861  1.6000
  158MOL0     H21309   6.310   6.960   4.348 -0.9811 -1.7081  1.0790
  158MOL0     H21310   5.265   7.517   4.561 -2.6036 -0.7455  2.3294
  158MOL0     H21311   5.069   7.567   4.412 -0.6157 -0.6115 -2.8611
  158MOL0     H21312   4.535   7.324   4.387  0.9925  0.5906  1.8608
  158MOL0     H21313   4.347   7.465   4.342  1.7366 -2.0955  2.7247
  158MOL0     H21314   2.780   8.386   4.267  2.1281  0.4266 -4.0606
  158MOL0     H21315   2.543   8.385   4.330  0.6280  0.4429  3.9703
  158MOL0     H21316   2.081   8.495   4.086 -1.7025 -0.8207  0.1104
  158MOL0     H21317   1.853   8.502   4.157  0.3639  1.0222 -1.0302
  158MOL0     H21318   1.749   8.820   4.458  1.4485 -0.9783 -0.2089
  158MOL0     H21319   1.777   8.683   4.557  1.3672  2.4024  0.5314
  158MOL0     H21320   1.519   8.773   4.420  0.1649 -0.3577 -0.7681
  158MOL0     H21321   1.551   8.741   4.601  2.5831 -0.9323  0.8083
  158MOL0     H21322   1.545   8.524   4.600  0.2298 -0.4736  0.0535
  158MOL0     H21323   1.561   8.497   4.436 -0.6669 -0.6411 -0.2959
  158MOL0     H21324   1.346   8.629   4.375 -0.5818 -0.2926 -0.5989
  158MOL0     H21325   1.315   8.474   4.445 -0.6856  0.8063  0.6638
  158MOL0     H21326   1.151   8.688   4.752 -1.8526 -1.2697  0.0885
  158MOL0     H21327   1.949   8.802   4.450  5.5338  0.5706  1.2212
  158MOL0     H21328   2.264   8.871   4.353 -1.7467  2.6912  0.5229
  158MOL0     H21329   2.154   8.875   4.478  1.6128 -1.3563  2.5104
  158MOL0     H21330   2.272   8.746   4.484 -1.3948 -0.9300  2.1628
  159MOL0     O21331  10.338   9.189   4.226 -0.0497  0.0391  0.3258
  159MOL0     C21332  10.364   9.200   4.107  0.1937 -0.4319 -0.0243
  159MOL0     O21333  10.267   9.213   4.008 -0.1210  0.6429 -0.3544
  159MOL0     C21334  10.132   9.240   4.017  0.1527 -0.3860 -0.5133
  159MOL0     C21335  10.065   9.323   3.923  0.3858 -0.5014 -1.2163
  159MOL0     C21336   9.924   9.354   3.920 -0.7174  0.0204 -0.7870
  159MOL0     C21337   9.853   9.310   4.037 -0.5500  0.4916 -0.4728
  159MOL0     O21338   9.724   9.348   4.062  0.2650 -0.1117  0.3104
  159MOL0     C21339   9.658   9.435   3.961 -0.8109  0.2862  0.7923
  159MOL0     C21340   9.527   9.471   4.010  0.6418 -0.9433 -0.6239
  159MOL0     C21341   9.416   9.369   3.966  0.0323 -0.6736  0.2087
  159MOL0     C21342   9.271   9.431   3.966 -0.5985  0.3803 -0.8760
  159MOL0     C21343   9.168   9.330   3.913 -0.1431  0.3200  0.1599
  159MOL0     C21344   9.035   9.335   3.979 -0.6491 -0.0611  0.5303
  159MOL0     C21345   8.937   9.230   3.929 -0.2519  0.6994  0.7715
  159MOL0     C21346   8.884   9.262   3.782  0.1659  0.4462  0.3780
  159MOL0     N21347   8.811   9.148   3.725 -0.8236 -0.7033 -0.5108
  159MOL0     C21348   8.737   9.064   3.804  1.1858 -0.0193  0.8060
  159MOL0     C21349   8.659   9.000   3.714  0.4384 -0.1277  0.1124
  159MOL0     C21350   8.552   8.893   3.741 -0.1390 -0.7453 -0.0386
  159MOL0     C21351   8.422   8.911   3.674  0.5325 -0.2982 -0.0212
  159MOL0     C21352   8.351   9.045   3.713 -0.6128 -0.2465 -0.2062
  159MOL0     C21353   8.288   9.050   3.860 -0.6594  0.4227 -0.2655
  159MOL0     O21354   8.247   9.175   3.918  0.0237  0.2004  0.5440
  159MOL0     C21355   8.339   9.267   3.953  0.8038  0.4301 -0.4874
  159MOL0     C21356   8.284   9.370   4.026 -0.2161  0.7505 -0.0568
  159MOL0     C21357   8.354   9.479   4.082 -0.0038  0.0575  0.1587
  159MOL0     C21358   8.495   9.467   4.078 -0.6764 -0.1530 -0.2516
  159MOL0     C21359   8.573   9.590   4.118 -0.0816 -0.3243  0.5128
  159MOL0     O21360   8.512   9.709   4.145 -0.1869  0.2461  0.0846
  159MOL0     C21361   8.600   9.812   4.174 -0.1394 -0.3762 -1.9852
  159MOL0     C21362   8.655   9.818   4.312  0.3500 -0.5231  0.8415
  159MOL0     C21363   8.742   9.916   4.352 -0.4846  0.0011  0.3358
  159MOL0     C21364   8.793  10.005   4.257  0.1259 -0.1100  0.3694
  159MOL0     O21365   8.889  10.092   4.309 -0.4130 -0.0603  0.0163
  159MOL0     C21366   8.939  10.197   4.226  0.1786 -0.2142  0.1107
  159MOL0     C21367   9.062  10.247   4.287  0.6013 -0.5233 -0.1998
  159MOL0     C21368   9.180  10.164   4.279 -0.0606  0.0022  0.3943
  159MOL0     C21369   9.281  10.237   4.373 -0.1052  0.5502 -0.2871
  159MOL0     C21370   9.431  10.198   4.367 -0.1019 -0.3854 -1.0267
  159MOL0     C21371   9.462  10.050   4.399  1.3473  0.5948  0.0601
  159MOL0     C21372   9.600  10.005   4.366  0.2063  0.2904  0.4940
  159MOL0     C21373   9.614   9.852   4.377  0.6730 -0.0275 -0.1516
  159MOL0    Cl21374   9.529   9.754   4.254  0.5733  0.1585  0.3325
  159MOL0     C21375   8.731  10.006   4.125 -0.1285 -0.0321  0.4815
  159MOL0     C21376   8.638   9.912   4.087 -0.1605 -0.2997 -0.2612
  159MOL0     O21377   8.690   9.582   4.085  0.4816 -0.2006 -0.6428
  159MOL0     C21378   8.555   9.358   4.013  0.3437  0.1880  0.3019
  159MOL0     C21379   8.478   9.254   3.955 -0.4843  0.1455 -0.3015
  159MOL0     N21380   8.691   9.045   3.589 -0.8799  0.6539  0.0913
  159MOL0     N21381   8.795   9.129   3.593 -0.4334  0.4870  0.6720
  159MOL0     C21382   9.922   9.224   4.122 -0.6917 -0.4559  0.1383
  159MOL0     C21383  10.052   9.186   4.114  0.2842  0.2542 -0.7731
  159MOL0     C21384  10.516   9.189   4.072 -0.6073  0.2416  0.0587
  159MOL0     C21385  10.535   9.193   3.935 -0.3522  0.0281  0.3218
  159MOL0     C21386  10.664   9.198   3.881 -0.8350  0.7664 -0.4564
  159MOL0     C21387  10.776   9.190   3.968 -0.3549 -0.4868  0.3664
  159MOL0     O21388  10.909   9.187   3.932  0.3904  0.0842  0.2432
  159MOL0     C21389  10.941   9.155   3.797 -0.4442 -0.0583 -0.1042
  159MOL0     C21390  11.092   9.118   3.788  0.1031  0.1209 -0.0288
  159MOL0     C21391  11.190   9.237   3.799  0.6784 -0.3198  0.2513
  159MOL0     C21392  11.344   9.204   3.782  0.4156  0.3248  1.0986
  159MOL0     C21393  11.430   9.313   3.828 -1.3067 -0.1004 -1.0115
  159MOL0     C21394  11.515   9.403   3.832  0.6994 -0.9188  0.0874
  159MOL0     C21395  10.757   9.183   4.099 -0.4056 -0.2941  0.6149
  159MOL0     C21396  10.633   9.172   4.158  0.5329 -0.2042  0.4076
  159MOL0     C21397  10.619   9.164   4.309 -0.8355 -0.2378 -0.3431
  159MOL0     H21398  10.125   9.377   3.849 -0.2147  0.6237 -0.9117
  159MOL0     H21399   9.893   9.429   3.848 -0.6169  0.1404 -0.7057
  159MOL0     H21400   9.710   9.531   3.953 -1.9521  0.8208 -0.6609
  159MOL0     H21401   9.656   9.393   3.860  0.5774  2.7545 -0.3381
  159MOL0     H21402   9.504   9.567   3.963 -0.9604 -1.1929 -0.4295
  159MOL0     H21403   9.529   9.480   4.119 -0.4390  0.9020 -0.7124
  159MOL0     H21404   9.421   9.286   4.037  3.2576  0.9004  2.0417
  159MOL0     H21405   9.442   9.339   3.864 -1.8042  1.2669 -0.9145
  159MOL0     H21406   9.249   9.479   4.062 -1.7285  1.6633 -1.7512
  159MOL0     H21407   9.274   9.514   3.895 -0.5699  0.5884 -0.6348
  159MOL0     H21408   9.150   9.360   3.810  1.8661  0.5777 -0.1559
  159MOL0     H21409   9.218   9.232   3.920 -0.9688 -0.0219  1.8816
  159MOL0     H21410   9.054   9.335   4.087  0.3811  0.7875  0.3697
  159MOL0     H21411   8.990   9.433   3.961 -0.6145  0.0209  0.8881
  159MOL0     H21412   8.850   9.222   3.994  0.3931 -1.1561  1.4522
  159MOL0     H21413   8.998   9.139   3.931  3.1078  2.7681  2.9196
  159MOL0     H21414   8.818   9.348   3.797 -0.3731  0.0637  0.2332
  159MOL0     H21415   8.961   9.292   3.711 -0.2696 -0.0591 -0.3185
  159MOL0     H21416   8.733   9.054   3.912  1.0160  0.0236  0.8029
  159MOL0     H21417   8.586   8.796   3.702 -1.4274 -1.5920  0.8680
  159MOL0     H21418   8.550   8.883   3.849 -0.9359  1.6040  0.2097
  159MOL0     H21419   8.438   8.918   3.566  0.1881  2.1009  0.0362
  159MOL0     H21420   8.343   8.836   3.687  0.2476  0.1490  0.8855
  159MOL0     H21421   8.265   9.050   3.646 -1.3016  2.2027  0.7698
  159MOL0     H21422   8.407   9.134   3.683  2.6575 -1.1763  2.4029
  159MOL0     H21423   8.358   9.014   3.936  1.1152  1.3919 -1.3931
  159MOL0     H21424   8.202   8.982   3.860 -0.3721  0.0117 -1.9739
  159MOL0     H21425   8.176   9.371   4.012 -0.1349 -1.0638 -0.9808
  159MOL0     H21426   8.302   9.564   4.125  0.9029  0.8756 -0.2870
  159MOL0     H21427   8.623   9.743   4.384 -0.8992 -2.0917 -1.2470
  159MOL0     H21428   8.774   9.932   4.455  0.3698  4.2577 -0.4097
  159MOL0     H21429   8.952  10.167   4.122 -2.5748 -0.6784 -0.1707
  159MOL0     H21430   8.871  10.283   4.228  0.3892 -0.0550  0.5214
  159MOL0     H21431   9.091  10.347   4.252  4.4107 -0.6560  2.0395
  159MOL0     H21432   9.041  10.254   4.394  1.0743  1.0716 -0.1877
  159MOL0     H21433   9.152  10.063   4.307  1.2617 -1.2605 -2.4170
  159MOL0     H21434   9.232  10.158   4.182  1.1735  1.2720  0.9294
  159MOL0     H21435   9.253  10.224   4.478 -0.3671  0.3927 -0.3743
  159MOL0     H21436   9.281  10.343   4.348 -3.5777  1.7370  3.5425
  159MOL0     H21437   9.494  10.258   4.433  0.0774 -0.8806 -0.7499
  159MOL0     H21438   9.462  10.212   4.263 -2.8303 -0.9488 -2.0066
  159MOL0     H21439   9.444  10.039   4.506 -0.5854 -1.7745 -0.4217
  159MOL0     H21440   9.383   9.989   4.356  1.7785 -0.1500  0.3033
  159MOL0     H21441   9.662  10.066   4.433 -0.1860  0.9637  0.2554
  159MOL0     H21442   9.628  10.040   4.266 -2.5146 -0.5881 -0.6467
  159MOL0     H21443   9.718   9.820   4.380  0.4906 -0.6946 -0.6915
  159MOL0     H21444   9.574   9.820   4.474  3.9062 -2.1174  0.6260
  159MOL0     H21445   8.758  10.076   4.046  2.9364  0.4182  1.7811
  159MOL0     H21446   8.601   9.924   3.986 -1.9440 -1.2099  0.2405
  159MOL0     H21447   8.662   9.358   3.994  0.1895 -1.6198 -0.8142
  159MOL0     H21448   8.532   9.181   3.897 -0.6923 -1.1468  1.0615
  159MOL0     H21449   9.866   9.199   4.211  0.2531  0.3629  0.9813
  159MOL0     H21450  10.099   9.132   4.196 -0.3119  2.9192  1.4492
  159MOL0     H21451  10.458   9.204   3.859  0.9871  1.0596 -0.9326
  159MOL0     H21452  10.675   9.212   3.774  1.9021  1.7308 -0.1335
  159MOL0     H21453  10.918   9.234   3.724  0.8514 -2.1298 -2.9503
  159MOL0     H21454  10.888   9.067   3.760  0.1818 -0.6138  0.3136
  159MOL0     H21455  11.118   9.070   3.694  0.5192  0.5326 -0.1266
  159MOL0     H21456  11.108   9.049   3.872  1.6603  1.3643  0.7531
  159MOL0     H21457  11.180   9.289   3.895 -1.7131  0.3462 -0.2793
  159MOL0     H21458  11.160   9.321   3.736 -0.1319 -0.2724  0.6818
  159MOL0     H21459  11.373   9.109   3.827  1.4608  1.3464  2.6707
  159MOL0     H21460  11.371   9.188   3.677  3.9088 -2.0498  2.1750
  159MOL0     H21461  11.576   9.491   3.843 -0.4024 -0.4216  3.7294
  159MOL0     H21462  10.850   9.180   4.154 -0.8441  1.2866  1.5267
  159MOL0     H21463  10.713   9.124   4.350 -0.3511  1.0592 -0.1355
  159MOL0     H21464  10.605   9.257   4.365  1.5167 -0.4364  0.7253
  159MOL0     H21465  10.545   9.091   4.342 -1.1918  1.7070  3.9620
  160MOL0     O21466   2.486   3.972   1.723 -0.4522  0.0269  0.1790
  160MOL0     C21467   2.390   3.938   1.661 -0.0195  0.1563 -0.3552
  160MOL0     O21468   2.369   3.950   1.523 -0.2554  0.5569  0.3336
  160MOL0     C21469   2.460   4.015   1.442  0.2024 -0.2399  0.2482
  160MOL0     C21470   2.413   4.093   1.335  0.1797  0.3933 -0.3796
  160MOL0     C21471   2.509   4.161   1.260  0.3192  0.2734  0.4142
  160MOL0     C21472   2.647   4.138   1.267  0.2124  0.2358 -0.1608
  160MOL0     O21473   2.747   4.179   1.181  0.3315  0.0344  0.0072
  160MOL0     C21474   2.708   4.220   1.044 -0.9836  0.3738 -0.6845
  160MOL0     C21475   2.841   4.219   0.956  0.7461  0.5987  0.8839
  160MOL0     C21476   2.823   4.229   0.802  0.8533 -0.8830  0.4255
  160MOL0     C21477   2.965   4.261   0.746  0.1446 -0.3932 -0.0807
  160MOL0     C21478   2.973   4.256   0.592 -0.7107  0.1434 -0.0792
  160MOL0     C21479   3.117   4.257   0.551 -0.2737 -1.3775  0.1431
  160MOL0     C21480   3.135   4.302   0.402 -0.3989 -0.2882  0.0572
  160MOL0     C21481   3.284   4.336   0.361  0.0444  0.2016 -0.2174
  160MOL0     N21482   3.365   4.212   0.359 -0.4309 -0.2428 -0.5584
  160MOL0     C21483   3.503   4.210   0.378  0.4752 -0.5180 -1.0166
  160MOL0     C21484   3.535   4.075   0.374 -0.3493 -0.3351  0.1362
  160MOL0     C21485   3.669   4.009   0.359 -0.3397  0.1089  0.1293
  160MOL0     C21486   3.693   3.931   0.491  0.7448 -1.7229  0.5793
  160MOL0     C21487   3.746   4.009   0.610 -0.3868  0.7386  0.6802
  160MOL0     C21488   3.875   4.083   0.584  0.9274  0.5954  0.8352
  160MOL0     O21489   3.978   4.001   0.536 -0.1316 -0.6020  0.2212
  160MOL0     C21490   4.098   4.071   0.508  0.1777  0.3901 -0.4385
  160MOL0     C21491   4.188   4.004   0.414 -0.4489 -0.3048  0.1187
  160MOL0     C21492   4.315   4.066   0.387 -0.7909  0.8697 -0.2994
  160MOL0     C21493   4.357   4.179   0.459  0.7648  0.1696  0.4172
  160MOL0     C21494   4.487   4.240   0.446  0.7479 -0.2847 -0.2533
  160MOL0     O21495   4.552   4.279   0.556  0.0649 -0.0653  0.7990
  160MOL0     C21496   4.690   4.303   0.541  0.0265 -0.1978  0.3856
  160MOL0     C21497   4.778   4.216   0.470  0.3014 -0.3297  0.7662
  160MOL0     C21498   4.917   4.236   0.478 -0.0805 -0.2840  0.3443
  160MOL0     C21499   4.964   4.342   0.548 -0.0723 -0.3827 -0.6222
  160MOL0     O21500   5.095   4.371   0.560 -0.6068  1.0126  0.2203
  160MOL0     C21501   5.175   4.265   0.609 -0.0287  0.9359  0.2161
  160MOL0     C21502   5.284   4.307   0.711 -0.7076  0.0727  0.6620
  160MOL0     C21503   5.388   4.203   0.744  0.5309 -0.5513  0.3086
  160MOL0     C21504   5.322   4.084   0.816  1.3392 -0.4610  0.2505
  160MOL0     C21505   5.413   3.962   0.834  0.7211 -0.2200 -0.1799
  160MOL0     C21506   5.352   3.869   0.946  0.4192  0.4116 -0.2472
  160MOL0     C21507   5.430   3.739   0.971 -0.6236  0.2463  0.8399
  160MOL0     C21508   5.361   3.632   1.043  0.2608  0.0583  0.0265
  160MOL0    Cl21509   5.323   3.673   1.214  0.1525  0.2087  0.0472
  160MOL0     C21510   4.878   4.420   0.624  0.1412  0.0220 -0.2247
  160MOL0     C21511   4.744   4.401   0.629 -0.1198  1.1257  0.5313
  160MOL0     O21512   4.517   4.258   0.328 -0.3461 -0.0555 -0.2747
  160MOL0     C21513   4.266   4.235   0.547 -0.0895  0.3729 -0.6417
  160MOL0     C21514   4.140   4.188   0.573  0.3026  0.3599  0.3050
  160MOL0     N21515   3.418   4.006   0.358 -0.2154  0.0780 -0.9421
  160MOL0     N21516   3.315   4.087   0.336 -0.4121 -0.2004 -0.9122
  160MOL0     C21517   2.682   4.053   1.369 -0.3794 -0.2181  0.8560
  160MOL0     C21518   2.600   4.000   1.463  0.9157 -0.0278 -0.0358
  160MOL0     C21519   2.267   3.865   1.726 -0.8844 -0.2317 -0.4085
  160MOL0     C21520   2.173   3.800   1.637 -0.0885 -0.0580  0.4134
  160MOL0     C21521   2.063   3.735   1.695  0.0573  0.0331 -0.6529
  160MOL0     C21522   2.051   3.728   1.835  0.8490  0.3540 -0.0369
  160MOL0     O21523   1.937   3.658   1.884  0.0889  0.0152 -0.0009
  160MOL0     C21524   1.890   3.667   2.016  0.3804  0.3512 -0.5972
  160MOL0     C21525   1.735   3.689   2.026 -0.8198 -0.5191  0.4090
  160MOL0     C21526   1.659   3.556   2.023  0.3208  0.4998  0.7254
  160MOL0     C21527   1.654   3.506   1.880 -0.1119  0.2215  0.7129
  160MOL0     C21528   1.587   3.380   1.872  0.4271  0.5406  0.4801
  160MOL0     C21529   1.524   3.284   1.824 -0.7289  0.0095 -0.0521
  160MOL0     C21530   2.141   3.788   1.916 -0.3434 -1.3268 -0.4057
  160MOL0     C21531   2.259   3.850   1.870  0.3629 -0.1780  0.0713
  160MOL0     C21532   2.349   3.906   1.975 -0.3125 -0.2726  0.4222
  160MOL0     H21533   2.305   4.084   1.328  0.0325  0.8689  0.9624
  160MOL0     H21534   2.475   4.234   1.187 -3.7586 -0.6387  1.1389
  160MOL0     H21535   2.631   4.152   1.005 -0.6549  0.4388 -1.4834
  160MOL0     H21536   2.664   4.320   1.047 -0.5272  0.5477  0.3293
  160MOL0     H21537   2.907   4.135   0.979  1.0364 -0.0829 -2.0892
  160MOL0     H21538   2.893   4.310   0.986 -0.8025  1.6737  0.4509
  160MOL0     H21539   2.766   4.322   0.790 -1.4528 -2.2962 -0.3227
  160MOL0     H21540   2.775   4.141   0.759  0.4278 -0.7841  0.6891
  160MOL0     H21541   2.997   4.362   0.773  2.4982 -0.9382 -0.5279
  160MOL0     H21542   3.035   4.187   0.788  1.3368 -0.4568 -2.0699
  160MOL0     H21543   2.926   4.163   0.557 -2.1021 -0.9238  3.9843
  160MOL0     H21544   2.926   4.345   0.551 -2.4209 -0.7933 -0.2335
  160MOL0     H21545   3.171   4.329   0.613 -1.7427 -1.0740  1.1189
  160MOL0     H21546   3.165   4.159   0.556  0.7674 -0.9533 -0.9346
  160MOL0     H21547   3.069   4.390   0.397 -2.9155 -1.9941  1.4794
  160MOL0     H21548   3.087   4.234   0.331 -1.5289  0.3113  0.2163
  160MOL0     H21549   3.278   4.379   0.261 -0.4377  0.0840 -0.2438
  160MOL0     H21550   3.324   4.405   0.435  0.2917  2.1737 -2.0911
  160MOL0     H21551   3.579   4.287   0.391 -0.3628 -0.0878  2.4901
  160MOL0     H21552   3.673   3.933   0.281  1.3103  0.4082 -0.1245
  160MOL0     H21553   3.753   4.074   0.331 -0.3313  0.1906  0.3419
  160MOL0     H21554   3.593   3.891   0.512  0.2941 -0.5817  0.6542
  160MOL0     H21555   3.760   3.849   0.462 -0.3151 -2.5520  0.3706
  160MOL0     H21556   3.766   3.930   0.683 -0.4350 -0.7542 -0.8485
  160MOL0     H21557   3.672   4.073   0.659  1.1694  1.6694  1.9097
  160MOL0     H21558   3.904   4.130   0.679 -3.1677  2.2697  1.4893
  160MOL0     H21559   3.856   4.168   0.517  2.0798 -1.2081 -1.9353
  160MOL0     H21560   4.166   3.909   0.367 -1.5176  1.4888 -3.3518
  160MOL0     H21561   4.390   4.016   0.326 -1.9151 -1.8396  0.4037
  160MOL0     H21562   4.738   4.128   0.420  1.3977 -1.2722  1.4715
  160MOL0     H21563   4.978   4.154   0.441  0.2567 -0.2947  0.9233
  160MOL0     H21564   5.107   4.188   0.645 -0.3011  0.1499 -1.8286
  160MOL0     H21565   5.228   4.225   0.521 -1.2200 -0.5565  0.1419
  160MOL0     H21566   5.343   4.387   0.666 -0.9766  0.4019  0.8882
  160MOL0     H21567   5.236   4.343   0.803  0.9640 -0.6272  1.8406
  160MOL0     H21568   5.429   4.165   0.649 -0.7582 -0.2899 -0.3694
  160MOL0     H21569   5.468   4.255   0.797  0.3297 -0.2987  0.3614
  160MOL0     H21570   5.247   4.061   0.740  2.4073 -0.9506 -0.6985
  160MOL0     H21571   5.279   4.127   0.907  0.3230  2.1162 -1.3481
  160MOL0     H21572   5.503   4.004   0.878  0.7711 -1.7058  1.2211
  160MOL0     H21573   5.433   3.915   0.737 -4.7752 -1.6932 -0.9835
  160MOL0     H21574   5.351   3.918   1.044  0.5586 -0.8417  0.3936
  160MOL0     H21575   5.246   3.846   0.934  0.4086  0.4328 -0.1971
  160MOL0     H21576   5.521   3.758   1.028  0.9226  1.1689 -1.7938
  160MOL0     H21577   5.461   3.705   0.872  1.5087  0.9263  1.2154
  160MOL0     H21578   5.272   3.606   0.985  2.3379 -1.7331 -2.6514
  160MOL0     H21579   5.419   3.539   1.044  1.0389  0.4951  2.7175
  160MOL0     H21580   4.924   4.486   0.697 -0.5980 -1.0333  1.2530
  160MOL0     H21581   4.682   4.477   0.675 -1.4667  0.6729 -0.4837
  160MOL0     H21582   4.297   4.319   0.608 -2.2983  0.6289  0.2343
  160MOL0     H21583   4.080   4.245   0.643  2.1860  0.3952  1.9981
  160MOL0     H21584   2.782   4.011   1.371 -0.4966 -0.6207 -0.6564
  160MOL0     H21585   2.621   3.924   1.537 -0.7733  0.1567  0.6761
  160MOL0     H21586   2.189   3.804   1.530 -1.6298  2.9581  0.1819
  160MOL0     H21587   1.983   3.692   1.635 -1.1862  0.1998  0.8528
  160MOL0     H21588   1.946   3.752   2.057  1.4667 -0.7054  0.1632
  160MOL0     H21589   1.909   3.584   2.084 -1.2768  1.0534  0.7945
  160MOL0     H21590   1.710   3.753   1.940  2.5795  1.4947  0.7333
  160MOL0     H21591   1.707   3.738   2.120 -0.6793 -0.7691  0.5795
  160MOL0     H21592   1.557   3.562   2.062 -0.9028 -1.4437 -1.8949
  160MOL0     H21593   1.714   3.478   2.076 -1.2852 -2.6241 -1.8926
  160MOL0     H21594   1.604   3.571   1.808 -1.2189 -2.7228 -1.3600
  160MOL0     H21595   1.753   3.478   1.843 -0.5947 -2.5318  1.2491
  160MOL0     H21596   1.464   3.215   1.769 -0.4001 -1.7115  1.6224
  160MOL0     H21597   2.143   3.779   2.025  1.9275 -0.1378 -0.2764
  160MOL0     H21598   2.349   4.016   1.974 -1.7835 -0.2423 -1.0693
  160MOL0     H21599   2.312   3.880   2.074 -0.6127 -0.3939  0.2769
  160MOL0     H21600   2.447   3.864   1.951 -0.8705 -0.3639 -1.9733
  161MOL0     O21601   3.884   4.006   5.288 -0.6893 -0.5720 -0.3476
  161MOL0     C21602   3.844   4.111   5.232  0.2628  0.1283 -0.5345
  161MOL0     O21603   3.899   4.169   5.120  0.4260  0.5994 -0.2543
  161MOL0     C21604   4.008   4.124   5.051 -0.7673  0.9251 -0.3182
  161MOL0     C21605   3.999   4.147   4.917 -0.1600  0.0692 -0.0614
  161MOL0     C21606   4.098   4.095   4.827  0.8989  0.6313 -0.6054
  161MOL0     C21607   4.201   4.015   4.874  0.3156  0.4371 -0.3280
  161MOL0     O21608   4.300   3.967   4.800 -0.6394 -0.0888 -0.7655
  161MOL0     C21609   4.271   3.924   4.674 -0.2951  0.3770  0.4184
  161MOL0     C21610   4.380   3.873   4.588  0.0866  0.5564 -1.0246
  161MOL0     C21611   4.509   3.957   4.602  0.0378  0.0183 -0.0360
  161MOL0     C21612   4.612   3.913   4.496 -0.4925 -0.3400  0.1415
  161MOL0     C21613   4.740   3.987   4.522 -0.7440 -0.1306  0.4625
  161MOL0     C21614   4.847   3.950   4.420 -0.4656  0.0784 -0.5902
  161MOL0     C21615   4.968   4.039   4.434 -0.3550  0.0677 -0.6006
  161MOL0     C21616   5.053   4.045   4.310  0.7208 -0.5401 -0.0307
  161MOL0     N21617   5.117   3.921   4.275 -0.1544 -0.0632 -0.2323
  161MOL0     C21618   5.251   3.898   4.260 -0.1616 -0.6875  0.2934
  161MOL0     C21619   5.267   3.770   4.213  0.5849 -0.3367 -1.4766
  161MOL0     C21620   5.399   3.716   4.162  0.3590 -0.0522 -0.6371
  161MOL0     C21621   5.428   3.766   4.027  0.2178  0.3188 -1.1614
  161MOL0     C21622   5.552   3.707   3.972  0.3052  0.2412 -0.1878
  161MOL0     C21623   5.595   3.764   3.839 -0.0503  0.2734 -0.0523
  161MOL0     O21624   5.706   3.682   3.794 -0.0851 -0.4018 -0.4555
  161MOL0     C21625   5.840   3.709   3.837  0.1132  0.3471 -0.7511
  161MOL0     C21626   5.930   3.620   3.796  0.4841  0.1700  0.9741
  161MOL0     C21627   6.065   3.629   3.832  0.0765  0.1742  0.2061
  161MOL0     C21628   6.107   3.729   3.915  0.2282 -0.0025 -0.5785
  161MOL0     C21629   6.247   3.738   3.946  0.4783 -1.3839 -0.4335
  161MOL0     O21630   6.312   3.629   3.927  0.0846  0.6896  0.4064
  161MOL0     C21631   6.443   3.628   3.976  0.4951 -0.7217 -0.1997
  161MOL0     C21632   6.551   3.631   3.884 -0.1898  0.1812  0.3397
  161MOL0     C21633   6.685   3.634   3.929 -0.4830  0.8670  0.2049
  161MOL0     C21634   6.712   3.624   4.063 -0.4035 -0.3999  0.6129
  161MOL0     O21635   6.844   3.635   4.110  0.0722  0.6602  0.3342
  161MOL0     C21636   6.923   3.527   4.053  0.9399 -0.3176  0.3381
  161MOL0     C21637   7.020   3.455   4.150 -0.1805  0.6012 -0.3402
  161MOL0     C21638   6.955   3.433   4.288 -0.2274  0.7177  0.1576
  161MOL0     C21639   6.838   3.335   4.289  0.4242 -0.1423  0.6101
  161MOL0     C21640   6.752   3.364   4.413  0.1499  0.2693 -0.2259
  161MOL0     C21641   6.612   3.304   4.392 -0.2202 -0.5440  0.8489
  161MOL0     C21642   6.511   3.344   4.506 -0.0732 -0.1943  0.0895
  161MOL0     C21643   6.366   3.320   4.459  0.2294  0.4143 -0.7016
  161MOL0    Cl21644   6.251   3.316   4.595  0.3254 -0.5316 -0.5760
  161MOL0     C21645   6.606   3.620   4.152  0.0238  0.1230  0.5181
  161MOL0     C21646   6.476   3.620   4.112 -0.0768 -0.3332 -0.1509
  161MOL0     O21647   6.298   3.845   3.979  0.0121  0.0730 -0.1219
  161MOL0     C21648   6.010   3.817   3.965  0.8288  0.1199  0.0086
  161MOL0     C21649   5.876   3.804   3.929 -0.3242 -0.0493 -0.3050
  161MOL0     N21650   5.140   3.708   4.211  0.6286  0.7725  0.0205
  161MOL0     N21651   5.056   3.802   4.250 -0.5638 -0.1772 -0.2672
  161MOL0     C21652   4.204   3.991   5.013  0.4569 -0.4614 -0.8452
  161MOL0     C21653   4.112   4.045   5.103 -0.0954  0.1397  0.4304
  161MOL0     C21654   3.717   4.158   5.273 -0.4907  0.5063 -0.5754
  161MOL0     C21655   3.617   4.156   5.172 -0.0454 -0.2737 -0.8510
  161MOL0     C21656   3.480   4.175   5.201  0.2256  0.0698  0.1777
  161MOL0     C21657   3.445   4.230   5.324  0.5456 -0.0311 -1.1154
  161MOL0     O21658   3.326   4.275   5.360  0.4065  0.9023 -0.5234
  161MOL0     C21659   3.254   4.356   5.272  0.5405 -0.0958 -0.2263
  161MOL0     C21660   3.111   4.364   5.318 -1.3417 -0.7295 -0.5666
  161MOL0     C21661   3.034   4.231   5.314 -0.9132 -0.2742  1.5181
  161MOL0     C21662   2.892   4.251   5.368 -0.1523  0.9994  0.8490
  161MOL0     C21663   2.815   4.327   5.277 -0.5141  1.3126  0.4862
  161MOL0     C21664   2.750   4.390   5.197 -0.6857  0.0439 -0.0660
  161MOL0     C21665   3.546   4.227   5.426  0.5077  0.2567  0.1381
  161MOL0     C21666   3.678   4.190   5.403 -0.3706  0.7834 -0.7596
  161MOL0     C21667   3.778   4.207   5.512 -0.4999 -0.0489 -0.0960
  161MOL0     H21668   3.922   4.219   4.890  1.7686  1.4430 -2.3454
  161MOL0     H21669   4.085   4.111   4.720 -0.2394 -4.0136 -1.3709
  161MOL0     H21670   4.187   3.854   4.676 -0.9616  1.1395  0.0540
  161MOL0     H21671   4.239   4.014   4.619 -0.4631  0.7185  1.0586
  161MOL0     H21672   4.334   3.865   4.489 -3.1998 -0.2246  0.4157
  161MOL0     H21673   4.386   3.764   4.593 -1.5277  0.2510 -3.7881
  161MOL0     H21674   4.564   3.935   4.694 -2.7833 -3.6568  1.0284
  161MOL0     H21675   4.481   4.062   4.609  1.0482  0.2726  0.4014
  161MOL0     H21676   4.632   3.806   4.485 -2.6060 -1.0213  2.1048
  161MOL0     H21677   4.574   3.945   4.399 -0.0618 -0.6025 -0.1157
  161MOL0     H21678   4.730   4.096   4.517  3.5770  0.3581 -3.5632
  161MOL0     H21679   4.788   3.965   4.618  3.0852  0.3420 -1.1786
  161MOL0     H21680   4.874   3.844   4.426  0.5985  0.3963  0.5256
  161MOL0     H21681   4.807   3.979   4.322  0.4287  1.4327 -0.5845
  161MOL0     H21682   5.031   4.006   4.517 -0.3116  0.4208 -0.4909
  161MOL0     H21683   4.941   4.143   4.455  2.4529  0.8466 -0.4876
  161MOL0     H21684   4.993   4.074   4.223  0.3809 -0.6184  0.1771
  161MOL0     H21685   5.129   4.124   4.321  0.6958 -0.6775  1.1726
  161MOL0     H21686   5.334   3.967   4.273 -2.6757  2.8323 -0.9125
  161MOL0     H21687   5.481   3.732   4.233 -2.0923 -1.7108  2.8394
  161MOL0     H21688   5.398   3.607   4.152  1.0225 -0.0664 -0.5724
  161MOL0     H21689   5.349   3.759   3.952  1.6400 -0.9601 -2.6133
  161MOL0     H21690   5.445   3.873   4.040  4.1011 -0.1740 -0.9416
  161MOL0     H21691   5.534   3.600   3.959  0.3733 -0.0159  1.6314
  161MOL0     H21692   5.630   3.712   4.049  2.2263  0.4419 -2.0386
  161MOL0     H21693   5.624   3.869   3.846 -2.3582  0.8837  2.0670
  161MOL0     H21694   5.505   3.750   3.779 -0.0389  0.1529 -0.0409
  161MOL0     H21695   5.905   3.549   3.717  0.8839 -1.4944  2.2842
  161MOL0     H21696   6.131   3.551   3.796 -1.2625 -0.4566 -0.9478
  161MOL0     H21697   6.523   3.634   3.779  3.1324 -1.8248 -0.7421
  161MOL0     H21698   6.764   3.635   3.854  0.5570 -1.9802  1.1148
  161MOL0     H21699   6.862   3.448   4.009  0.9544 -0.3795  0.4279
  161MOL0     H21700   6.983   3.567   3.970  1.6533 -1.5759  0.2255
  161MOL0     H21701   7.065   3.365   4.108 -0.9250  0.2416 -0.3891
  161MOL0     H21702   7.111   3.515   4.159 -0.3135  0.5794  1.5523
  161MOL0     H21703   7.028   3.397   4.361 -0.6542 -1.9704 -0.6308
  161MOL0     H21704   6.923   3.530   4.328  0.5023  0.1979  2.1304
  161MOL0     H21705   6.877   3.233   4.293 -2.7445 -1.4798  0.7836
  161MOL0     H21706   6.776   3.354   4.201 -0.2415  1.2894  1.3629
  161MOL0     H21707   6.733   3.471   4.413  3.1980  0.9168 -0.3763
  161MOL0     H21708   6.800   3.334   4.507 -0.3467  0.2174  0.0156
  161MOL0     H21709   6.580   3.345   4.296  1.8033 -2.4136 -0.7237
  161MOL0     H21710   6.611   3.194   4.384 -0.0318 -0.7451  2.9764
  161MOL0     H21711   6.516   3.445   4.548 -5.4557  0.6904 -0.6421
  161MOL0     H21712   6.534   3.280   4.592 -0.0708 -0.7508 -0.3256
  161MOL0     H21713   6.339   3.402   4.391  1.3062  1.7342  0.3962
  161MOL0     H21714   6.348   3.227   4.405  2.0662 -0.9699  0.9633
  161MOL0     H21715   6.627   3.618   4.258  0.5227 -3.3424  0.4698
  161MOL0     H21716   6.399   3.607   4.188  0.4626 -0.2164  0.4293
  161MOL0     H21717   6.040   3.900   4.028 -0.0838  0.6637 -0.2574
  161MOL0     H21718   5.801   3.878   3.954 -1.3832  0.5859 -4.6091
  161MOL0     H21719   4.292   3.938   5.048  1.4410  0.8200 -1.3065
  161MOL0     H21720   4.115   4.023   5.209  1.1136  1.3395  0.6658
  161MOL0     H21721   3.644   4.123   5.072 -1.1420 -2.2633 -0.5427
  161MOL0     H21722   3.407   4.168   5.121  1.0862  0.7356 -0.6869
  161MOL0     H21723   3.254   4.313   5.172 -0.4097 -0.9468  0.1268
  161MOL0     H21724   3.302   4.454   5.271 -3.4530  2.1426  1.9141
  161MOL0     H21725   3.054   4.440   5.264 -0.5104 -0.6603 -1.3665
  161MOL0     H21726   3.124   4.408   5.418  4.0696 -0.4411 -1.0910
  161MOL0     H21727   3.073   4.159   5.385 -0.3413 -0.3614  1.1202
  161MOL0     H21728   3.045   4.193   5.212 -1.3353 -1.5673  1.9382
  161MOL0     H21729   2.863   4.146   5.382  4.1119 -0.0704  3.5475
  161MOL0     H21730   2.903   4.298   5.466  0.4019  1.1164  0.7330
  161MOL0     H21731   2.714   4.464   5.128  1.1417  0.6266 -0.4465
  161MOL0     H21732   3.510   4.254   5.525 -0.1941 -2.1885  0.6254
  161MOL0     H21733   3.771   4.125   5.584  0.1780  0.9807  1.1662
  161MOL0     H21734   3.880   4.198   5.475 -1.1687 -0.0469 -2.0676
  161MOL0     H21735   3.761   4.304   5.559 -0.2288 -0.6319  1.2359
  162MOL0     O21736   4.875   7.141   7.397  0.2280 -0.3114 -0.2484
  162MOL0     C21737   4.815   7.193   7.297 -0.0156 -0.0822 -0.6143
  162MOL0     O21738   4.865   7.287   7.220 -0.1647  0.3639  0.3990
  162MOL0     C21739   4.993   7.320   7.243 -0.4402  0.2128  0.1194
  162MOL0     C21740   5.073   7.318   7.129  0.0971  0.0573 -0.6989
  162MOL0     C21741   5.206   7.352   7.140 -0.3914 -0.3601  0.3828
  162MOL0     C21742   5.262   7.393   7.258 -0.4735 -0.3890 -0.3726
  162MOL0     O21743   5.391   7.442   7.267 -0.1971 -1.0939  0.0509
  162MOL0     C21744   5.472   7.336   7.309 -0.4757 -0.4809  0.2140
  162MOL0     C21745   5.608   7.392   7.360 -1.0620 -0.4777 -0.8468
  162MOL0     C21746   5.676   7.468   7.242 -0.9736  1.5425 -0.6961
  162MOL0     C21747   5.825   7.516   7.280 -0.0211  0.6978 -0.3247
  162MOL0     C21748   5.888   7.592   7.177 -0.0528 -0.0948  0.7748
  162MOL0     C21749   6.023   7.659   7.225 -0.0050  0.6114  0.2025
  162MOL0     C21750   6.132   7.557   7.264  0.0231 -0.3700 -0.8190
  162MOL0     C21751   6.121   7.510   7.411  0.4393  0.1502 -0.2979
  162MOL0     N21752   6.249   7.464   7.469 -0.9615  0.3474 -0.4648
  162MOL0     C21753   6.305   7.511   7.580 -0.1929  0.7058 -0.4830
  162MOL0     C21754   6.428   7.453   7.599  0.2106 -0.4166  0.7429
  162MOL0     C21755   6.537   7.479   7.704 -0.8961  0.0354 -0.6079
  162MOL0     C21756   6.571   7.631   7.702  1.0624 -1.0435 -0.3227
  162MOL0     C21757   6.657   7.683   7.585 -0.2902  0.7464  0.5436
  162MOL0     C21758   6.794   7.611   7.592 -0.4069 -0.5519  0.0122
  162MOL0     O21759   6.837   7.573   7.726  0.3753  0.6162  0.2337
  162MOL0     C21760   6.951   7.502   7.739  0.4854  0.7734 -1.5008
  162MOL0     C21761   7.067   7.577   7.761 -0.6551  0.8215  0.8858
  162MOL0     C21762   7.195   7.517   7.778 -0.4241 -0.2870  0.3354
  162MOL0     C21763   7.212   7.376   7.771 -0.7188 -0.1835  0.3779
  162MOL0     C21764   7.351   7.324   7.768  0.7417 -0.1157  0.1423
  162MOL0     O21765   7.455   7.408   7.773 -0.1619 -0.5360 -0.0554
  162MOL0     C21766   7.581   7.360   7.753 -0.3563  0.6368  0.1007
  162MOL0     C21767   7.671   7.378   7.856  0.2578 -0.9946 -0.1520
  162MOL0     C21768   7.804   7.340   7.858  0.6083 -0.0296 -0.0534
  162MOL0     C21769   7.858   7.282   7.742  0.2821  0.1661 -0.3076
  162MOL0     O21770   7.988   7.237   7.741  0.1690  0.5217  0.0872
  162MOL0     C21771   8.086   7.324   7.769 -0.2908 -1.0552 -0.8390
  162MOL0     C21772   8.103   7.439   7.664 -0.3089  0.4358  0.7586
  162MOL0     C21773   8.191   7.547   7.729  0.1421 -0.8315 -0.1182
  162MOL0     C21774   8.333   7.509   7.754 -0.3874 -0.4103  0.1767
  162MOL0     C21775   8.419   7.629   7.793  1.0267  0.6597  0.2646
  162MOL0     C21776   8.560   7.598   7.827 -0.4236 -0.5720  0.4969
  162MOL0     C21777   8.634   7.723   7.878 -0.1177  0.0579  0.3286
  162MOL0     C21778   8.766   7.683   7.939 -0.1726 -0.7060  0.2521
  162MOL0    Cl21779   8.748   7.621   8.096  0.2477 -0.1516  0.2314
  162MOL0     C21780   7.782   7.288   7.628  0.8673 -0.9464  0.2386
  162MOL0     C21781   7.645   7.334   7.631 -0.0203 -0.0338  0.5508
  162MOL0     O21782   7.358   7.204   7.741 -0.3339  0.1133 -0.0888
  162MOL0     C21783   7.090   7.299   7.762 -0.5760 -0.8783  1.0422
  162MOL0     C21784   6.964   7.363   7.736 -0.7428  0.7264 -0.8508
  162MOL0     N21785   6.435   7.356   7.498 -0.2996  0.0702  0.2676
  162MOL0     N21786   6.336   7.367   7.422 -0.2314 -0.0901  0.1323
  162MOL0     C21787   5.177   7.409   7.372  0.4751 -0.5069  0.1337
  162MOL0     C21788   5.042   7.366   7.369 -0.7219  0.4478 -0.5043
  162MOL0     C21789   4.677   7.144   7.267 -0.5254  0.0167  0.1183
  162MOL0     C21790   4.606   7.090   7.372  0.0804  0.7076  0.3699
  162MOL0     C21791   4.486   7.028   7.359 -0.2544 -0.2781  0.2867
  162MOL0     C21792   4.418   7.034   7.237 -0.5530  0.6190  0.2494
  162MOL0     O21793   4.304   6.972   7.204 -0.8880 -0.0742 -0.0068
  162MOL0     C21794   4.230   6.896   7.307 -0.0253  0.1659  0.2167
  162MOL0     C21795   4.089   6.864   7.264 -0.0671  0.1966  0.1811
  162MOL0     C21796   4.000   6.987   7.267  0.1605 -0.2051  0.0325
  162MOL0     C21797   3.868   6.971   7.211 -0.1260 -1.1243  0.5518
  162MOL0     C21798   3.793   6.868   7.277  0.1208 -0.6557 -0.3543
  162MOL0     C21799   3.737   6.785   7.339  0.1001  0.7087  0.0984
  162MOL0     C21800   4.482   7.111   7.131  0.3635 -0.6180  0.6529
  162MOL0     C21801   4.611   7.156   7.139  0.0633 -1.0177  0.3527
  162MOL0     C21802   4.664   7.231   7.021  0.0429 -0.1533  0.0788
  162MOL0     H21803   5.028   7.290   7.035 -2.7394  2.7149 -0.2822
  162MOL0     H21804   5.281   7.350   7.062  1.5662  1.8374  2.0780
  162MOL0     H21805   5.432   7.281   7.395  0.3829 -2.8033 -0.7866
  162MOL0     H21806   5.497   7.256   7.239 -0.8353 -0.9763  0.6412
  162MOL0     H21807   5.672   7.306   7.379 -2.2711 -1.8563 -2.7403
  162MOL0     H21808   5.609   7.441   7.458 -2.0120 -0.9832 -0.5743
  162MOL0     H21809   5.623   7.560   7.215  1.2701  2.8055 -1.0141
  162MOL0     H21810   5.677   7.403   7.154  1.3232  2.0088 -1.0753
  162MOL0     H21811   5.824   7.582   7.367  0.8277 -0.4225  0.5716
  162MOL0     H21812   5.893   7.434   7.305  2.5296  3.2699  1.9685
  162MOL0     H21813   5.903   7.535   7.085  0.2474  2.6231 -0.9920
  162MOL0     H21814   5.811   7.665   7.149  0.3805  0.3321  0.6719
  162MOL0     H21815   6.077   7.718   7.149  3.5724 -4.2236 -1.5775
  162MOL0     H21816   6.000   7.731   7.303 -0.8798  2.3793 -1.5919
  162MOL0     H21817   6.229   7.605   7.256  0.4653 -0.8064  1.2199
  162MOL0     H21818   6.131   7.473   7.193 -2.2948  0.4288 -1.8422
  162MOL0     H21819   6.079   7.588   7.475  0.0596 -0.6746  0.4799
  162MOL0     H21820   6.058   7.421   7.416 -0.9175  0.8886 -2.7408
  162MOL0     H21821   6.275   7.599   7.636  1.0081  2.0884 -1.9212
  162MOL0     H21822   6.492   7.451   7.800  0.8385  0.1565  0.2697
  162MOL0     H21823   6.627   7.416   7.702 -2.3357 -2.2099  0.4686
  162MOL0     H21824   6.476   7.686   7.694  0.0859 -2.5348  0.5042
  162MOL0     H21825   6.622   7.658   7.795 -0.1393 -1.5643  0.5127
  162MOL0     H21826   6.682   7.789   7.591  0.0772  0.5764  2.9215
  162MOL0     H21827   6.613   7.657   7.488 -1.8201 -2.6077  1.9744
  162MOL0     H21828   6.874   7.678   7.559  2.9165 -3.4069  1.6116
  162MOL0     H21829   6.791   7.514   7.541 -0.6070  0.8172 -2.7471
  162MOL0     H21830   7.053   7.685   7.754  0.8480  0.9626 -1.0441
  162MOL0     H21831   7.285   7.577   7.782  0.4427 -1.5847  1.1016
  162MOL0     H21832   7.630   7.426   7.944  1.8372 -1.3797  0.8327
  162MOL0     H21833   7.860   7.371   7.946 -0.2253 -2.5286  1.4588
  162MOL0     H21834   8.067   7.375   7.864  2.2460 -1.5128  0.0134
  162MOL0     H21835   8.175   7.263   7.788  0.5597  0.4628  0.3417
  162MOL0     H21836   8.147   7.391   7.576  0.7790  0.6173  1.1807
  162MOL0     H21837   8.008   7.485   7.634 -0.1801  1.2776  1.6110
  162MOL0     H21838   8.187   7.633   7.661 -0.8607  0.4834  1.5327
  162MOL0     H21839   8.145   7.573   7.825  1.3783  1.1966 -0.0216
  162MOL0     H21840   8.383   7.463   7.668  1.4773  0.0456  0.9560
  162MOL0     H21841   8.341   7.437   7.836 -0.3524  0.0179  0.5527
  162MOL0     H21842   8.379   7.670   7.886 -1.0610  1.1178 -0.7725
  162MOL0     H21843   8.421   7.705   7.714 -0.5198 -1.3010 -1.7817
  162MOL0     H21844   8.573   7.518   7.901  0.1519 -2.1620 -1.2579
  162MOL0     H21845   8.607   7.561   7.736 -2.5552 -0.3021 -0.7677
  162MOL0     H21846   8.574   7.766   7.958  2.9496 -0.3180  2.9864
  162MOL0     H21847   8.652   7.789   7.793 -2.2446  0.9912  0.5408
  162MOL0     H21848   8.836   7.621   7.884 -1.5720 -1.2711 -0.9690
  162MOL0     H21849   8.817   7.777   7.958  0.1640 -0.4015 -1.9704
  162MOL0     H21850   7.814   7.246   7.533  1.3117  0.4466 -0.2558
  162MOL0     H21851   7.581   7.310   7.546 -0.7776  1.1516  0.7699
  162MOL0     H21852   7.100   7.192   7.750  2.6695 -0.3542 -3.0036
  162MOL0     H21853   6.881   7.301   7.704 -1.0526  0.0060  1.2501
  162MOL0     H21854   5.213   7.452   7.465  2.0220  0.6341 -0.9458
  162MOL0     H21855   4.978   7.373   7.456 -3.8236 -2.5947 -2.2833
  162MOL0     H21856   4.655   7.077   7.469 -2.4411  0.2490  1.6535
  162MOL0     H21857   4.449   6.971   7.443 -1.5841 -0.6088 -0.4803
  162MOL0     H21858   4.237   6.947   7.403  0.7001  0.4177  0.0397
  162MOL0     H21859   4.285   6.803   7.326 -1.3323 -0.9202 -1.0141
  162MOL0     H21860   4.049   6.779   7.321 -1.1757  0.7661  0.2756
  162MOL0     H21861   4.094   6.828   7.161  2.0641  2.7145 -0.7034
  162MOL0     H21862   4.046   7.061   7.201  0.9694 -1.6070 -1.0210
  162MOL0     H21863   3.985   7.023   7.369 -2.2916 -0.9580  0.0011
  162MOL0     H21864   3.815   7.067   7.219  1.3277 -0.2362 -0.1890
  162MOL0     H21865   3.885   6.961   7.104 -1.7476  3.4235 -0.3552
  162MOL0     H21866   3.691   6.713   7.403 -0.5645  0.2320 -0.8926
  162MOL0     H21867   4.421   7.128   7.043  1.6783 -0.3737 -0.2559
  162MOL0     H21868   4.640   7.337   7.037 -0.5799 -0.2440 -0.2124
  162MOL0     H21869   4.772   7.230   7.008 -0.0681  0.2904 -0.9550
  162MOL0     H21870   4.615   7.206   6.927 -0.3478 -0.3750  0.3356
  163MOL0     O21871   5.813   9.648   2.701  0.3186  0.7784  0.0833
  163MOL0     C21872   5.762   9.741   2.756  0.1853 -0.0729 -0.9694
  163MOL0     O21873   5.837   9.833   2.820 -0.4835  0.1028  0.8332
  163MOL0     C21874   5.973   9.869   2.798  0.0185  0.5010 -0.4002
  163MOL0     C21875   6.025   9.961   2.886  0.2322 -0.5792 -0.8863
  163MOL0     C21876   6.162   9.998   2.881 -0.1253  0.4201 -0.5630
  163MOL0     C21877   6.251   9.942   2.785  0.4875 -0.3374 -0.3618
  163MOL0     O21878   6.389   9.967   2.785  0.2442 -0.3350 -0.0338
  163MOL0     C21879   6.433  10.068   2.880 -0.5270  0.5036  0.1603
  163MOL0     C21880   6.579  10.115   2.861 -0.2005  0.5508  0.8428
  163MOL0     C21881   6.673  10.012   2.935  0.7485 -0.0685  0.2612
  163MOL0     C21882   6.822  10.055   2.945  1.0501 -1.1109  0.2683
  163MOL0     C21883   6.895  10.066   2.804  0.1384  0.3547  0.6743
  163MOL0     C21884   7.021  10.153   2.808  0.0523  0.6619  0.0797
  163MOL0     C21885   7.134  10.091   2.889 -0.1439  0.0469 -1.0052
  163MOL0     C21886   7.204   9.952   2.838 -0.3099 -0.0741  0.2616
  163MOL0     N21887   7.204   9.960   2.689 -0.2274 -0.5928  0.5350
  163MOL0     C21888   7.282  10.041   2.610  0.6466 -0.4187 -0.2563
  163MOL0     C21889   7.242  10.025   2.484  0.8972  0.0281  0.1639
  163MOL0     C21890   7.304  10.084   2.361  0.0759 -0.0649 -0.2306
  163MOL0     C21891   7.447  10.042   2.336 -0.0393 -0.7223 -0.4101
  163MOL0     C21892   7.528  10.130   2.233  0.0718  0.6817 -0.4985
  163MOL0     C21893   7.673  10.123   2.273  0.1112  0.3686  0.3153
  163MOL0     O21894   7.713   9.990   2.226  0.4138  0.0917 -0.2792
  163MOL0     C21895   7.837   9.941   2.250 -0.2445 -0.9318  0.4254
  163MOL0     C21896   7.858   9.802   2.213 -0.4894  0.0109 -0.1207
  163MOL0     C21897   7.983   9.746   2.237  0.5301  0.5580  0.4073
  163MOL0     C21898   8.087   9.822   2.289 -0.3080 -0.8429 -0.4360
  163MOL0     C21899   8.218   9.757   2.304 -0.4581 -0.3564 -0.2190
  163MOL0     O21900   8.317   9.841   2.354 -0.0420  0.5941  0.0466
  163MOL0     C21901   8.447   9.792   2.353 -0.2900 -0.9912 -0.0064
  163MOL0     C21902   8.531   9.856   2.454  0.3729 -0.2253 -0.1036
  163MOL0     C21903   8.669   9.845   2.454  0.3425  0.1275  0.1514
  163MOL0     C21904   8.726   9.754   2.368 -0.2548 -0.3720  0.3793
  163MOL0     O21905   8.859   9.742   2.386 -0.4513  0.5370  0.2788
  163MOL0     C21906   8.938   9.776   2.260  0.1862  0.3703  0.1781
  163MOL0     C21907   9.019   9.905   2.298 -0.2161 -0.6973  0.0450
  163MOL0     C21908   9.137   9.861   2.390  0.2860 -0.2202 -0.1587
  163MOL0     C21909   9.212   9.985   2.425  0.0392 -0.3073 -0.6974
  163MOL0     C21910   9.335   9.941   2.499 -0.1752  0.5054  0.3655
  163MOL0     C21911   9.432  10.057   2.525 -0.6360 -0.0420 -0.3084
  163MOL0     C21912   9.503  10.036   2.656 -0.7539 -0.7268 -0.6747
  163MOL0     C21913   9.601   9.923   2.639 -1.3124 -0.5735 -0.4156
  163MOL0    Cl21914   9.701   9.918   2.787 -0.2059 -0.1619 -0.0398
  163MOL0     C21915   8.649   9.693   2.264 -0.3192  0.0954  0.7355
  163MOL0     C21916   8.510   9.713   2.253 -0.3350  0.0536  0.2514
  163MOL0     O21917   8.236   9.638   2.280  0.1358 -0.3177 -0.3123
  163MOL0     C21918   8.066   9.951   2.321  0.2853  0.4657 -0.2700
  163MOL0     C21919   7.946  10.006   2.307  0.6288 -0.1214  0.9102
  163MOL0     N21920   7.134   9.930   2.481  0.4309  0.3633  0.1940
  163MOL0     N21921   7.118   9.888   2.605 -0.3627 -0.2540 -0.4914
  163MOL0     C21922   6.192   9.863   2.686  0.7078  0.2882  0.7207
  163MOL0     C21923   6.058   9.828   2.695 -0.2132  0.5027 -0.5683
  163MOL0     C21924   5.618   9.772   2.733 -0.7707 -0.0547  0.1688
  163MOL0     C21925   5.577   9.903   2.749 -0.6991 -0.0703  0.5999
  163MOL0     C21926   5.440   9.928   2.716 -0.0303 -0.5899 -0.5242
  163MOL0     C21927   5.354   9.828   2.673 -0.2763  0.2362 -0.2666
  163MOL0     O21928   5.220   9.845   2.639  0.0426  0.3557 -1.0121
  163MOL0     C21929   5.121   9.826   2.740 -0.4827  0.1191 -0.7699
  163MOL0     C21930   4.979   9.834   2.693  0.4388  0.4209 -0.2303
  163MOL0     C21931   4.942   9.720   2.600  0.2797 -0.6442  0.3708
  163MOL0     C21932   4.809   9.743   2.538  0.2915 -0.4440  0.1939
  163MOL0     C21933   4.697   9.744   2.632  0.4745 -0.0532  0.6141
  163MOL0     C21934   4.614   9.765   2.715 -0.7814  0.9340 -0.4860
  163MOL0     C21935   5.392   9.704   2.674  0.3594  0.8783 -0.6349
  163MOL0     C21936   5.524   9.669   2.703 -0.3194 -0.2392 -0.0153
  163MOL0     C21937   5.550   9.522   2.691 -1.0035 -0.4738  0.4278
  163MOL0     H21938   5.962   9.999   2.965 -1.1980  1.0610 -2.7251
  163MOL0     H21939   6.195  10.058   2.964  0.7103 -3.6744  2.3989
  163MOL0     H21940   6.368  10.154   2.860 -4.0249 -1.6905  1.1187
  163MOL0     H21941   6.429  10.039   2.986  0.7332  1.0610  0.3806
  163MOL0     H21942   6.592  10.218   2.896 -1.9491  1.2371 -0.3937
  163MOL0     H21943   6.595  10.115   2.753 -1.8018  2.8862  0.5313
  163MOL0     H21944   6.661   9.909   2.899  1.2089  0.0839 -0.3416
  163MOL0     H21945   6.632  10.009   3.037 -0.9629 -0.2938 -0.4028
  163MOL0     H21946   6.817  10.153   2.993 -0.2216 -0.7104 -0.6211
  163MOL0     H21947   6.875   9.987   3.012  2.4558  1.5173  2.0024
  163MOL0     H21948   6.912   9.967   2.759 -1.5491 -0.2292  1.2271
  163MOL0     H21949   6.824  10.103   2.729 -0.2666 -1.4912  0.0944
  163MOL0     H21950   7.053  10.175   2.706  2.3336 -1.6340  0.2152
  163MOL0     H21951   7.001  10.247   2.860  2.9812  0.9267  0.8961
  163MOL0     H21952   7.104  10.077   2.993  0.9166 -1.5545 -0.8890
  163MOL0     H21953   7.217  10.162   2.897 -2.0715  2.2951  0.5384
  163MOL0     H21954   7.308   9.954   2.873  0.3903 -0.8295 -1.6529
  163MOL0     H21955   7.151   9.862   2.869  0.1077 -0.9952 -1.5506
  163MOL0     H21956   7.363  10.109   2.639 -0.8430  0.6773  1.5950
  163MOL0     H21957   7.248  10.050   2.274  1.4623 -1.6102 -0.5939
  163MOL0     H21958   7.296  10.192   2.349 -1.4245 -0.0613  0.5873
  163MOL0     H21959   7.496  10.048   2.434  3.3151 -0.2819 -1.9818
  163MOL0     H21960   7.460   9.939   2.299  1.0121 -0.1788 -1.6423
  163MOL0     H21961   7.496  10.233   2.249  1.6440  0.7544  3.1007
  163MOL0     H21962   7.503  10.104   2.129 -1.9803 -1.9968  0.5280
  163MOL0     H21963   7.686  10.148   2.378 -2.6262  0.6940  0.6662
  163MOL0     H21964   7.727  10.196   2.213  1.6319 -1.2357 -0.3484
  163MOL0     H21965   7.776   9.756   2.158  0.2030  0.6945 -1.8022
  163MOL0     H21966   7.987   9.638   2.225 -2.7789  0.4845 -1.2234
  163MOL0     H21967   8.477   9.909   2.532  0.8998 -2.2025  1.6862
  163MOL0     H21968   8.726   9.899   2.529 -0.4248  0.0405  0.8145
  163MOL0     H21969   8.997   9.689   2.229 -1.0748 -0.7251  0.7286
  163MOL0     H21970   8.878   9.807   2.174  2.4925 -0.9563 -2.0187
  163MOL0     H21971   9.058   9.944   2.204  1.5999 -2.5076 -0.0314
  163MOL0     H21972   8.952   9.981   2.340 -0.0286 -0.6104  0.1907
  163MOL0     H21973   9.097   9.820   2.484  2.0286  2.5036  1.8938
  163MOL0     H21974   9.196   9.782   2.342 -2.1227 -0.2730 -3.4009
  163MOL0     H21975   9.151  10.048   2.490  1.0103  2.2162 -2.1216
  163MOL0     H21976   9.244  10.052   2.344 -0.1537  0.9788  0.2586
  163MOL0     H21977   9.377   9.871   2.426 -4.3380  0.2671 -2.1682
  163MOL0     H21978   9.306   9.892   2.592 -0.4974  2.8938  1.5945
  163MOL0     H21979   9.515  10.061   2.454 -0.9405  3.8933 -0.6745
  163MOL0     H21980   9.379  10.152   2.537  3.0100  2.1344  0.2266
  163MOL0     H21981   9.444  10.014   2.746  2.9635 -3.5475  1.3848
  163MOL0     H21982   9.557  10.127   2.684 -0.1719 -1.1211 -0.4868
  163MOL0     H21983   9.549   9.827   2.627 -0.5713 -1.2155  1.2713
  163MOL0     H21984   9.669   9.935   2.554 -2.0048  0.8723 -0.8131
  163MOL0     H21985   8.703   9.629   2.195 -1.3956 -3.3727  2.8406
  163MOL0     H21986   8.453   9.664   2.175 -0.5224  2.1412 -0.9900
  163MOL0     H21987   8.152  10.011   2.347  0.2347  0.9559 -1.2020
  163MOL0     H21988   7.933  10.114   2.313 -0.2633 -0.2582  1.8777
  163MOL0     H21989   6.252   9.829   2.603 -0.5246  0.4076 -0.2500
  163MOL0     H21990   6.025   9.765   2.613 -1.0389  0.8530 -0.5156
  163MOL0     H21991   5.637   9.990   2.773 -0.6153  0.4653 -1.4178
  163MOL0     H21992   5.380  10.018   2.719 -1.3226 -1.4427  1.3677
  163MOL0     H21993   5.137   9.908   2.812  2.1915 -1.1008  0.1362
  163MOL0     H21994   5.139   9.739   2.803 -1.9585  0.6304  0.4226
  163MOL0     H21995   4.955   9.932   2.650  1.0255  0.5135 -0.3545
  163MOL0     H21996   4.915   9.830   2.782  2.8201 -1.5835  1.5500
  163MOL0     H21997   4.927   9.632   2.662  0.6532 -0.5871  0.5449
  163MOL0     H21998   5.019   9.705   2.523 -0.4956 -0.0854 -0.5441
  163MOL0     H21999   4.807   9.840   2.489  0.6544  1.0636  2.9888
  163MOL0     H22000   4.781   9.661   2.471 -2.3808  1.5364 -1.2904
  163MOL0     H22001   4.556   9.799   2.799  0.2985 -1.4149  1.3563
  163MOL0     H22002   5.320   9.629   2.640  0.8429 -0.1892  0.6144
  163MOL0     H22003   5.575   9.505   2.585  1.3604  2.2929  0.4116
  163MOL0     H22004   5.636   9.488   2.749 -1.4905 -0.2085  1.3178
  163MOL0     H22005   5.471   9.457   2.727 -0.2408 -1.8642 -0.2980
  164MOL0     O22006   8.229   4.973   0.144  0.1546 -0.3153  0.2545
  164MOL0     C22007   8.211   5.090   0.179 -0.3194 -0.6993 -0.6558
  164MOL0     O22008   8.095   5.150   0.196  0.0933 -0.0530 -0.2608
  164MOL0     C22009   7.991   5.071   0.159 -0.5938 -0.5153 -1.2548
  164MOL0     C22010   7.949   4.961   0.242 -0.3656  0.1409  0.1115
  164MOL0     C22011   7.836   4.884   0.204  0.1076 -0.3469  0.0255
  164MOL0     C22012   7.774   4.908   0.077  0.5046 -0.7382  0.0910
  164MOL0     O22013   7.675   4.829   0.028  0.3619 -0.6367  0.0553
  164MOL0     C22014   7.663   4.693   0.065 -0.2213  0.6449  0.6420
  164MOL0     C22015   7.587   4.615  -0.041 -0.2580  0.1272 -0.1685
  164MOL0     C22016   7.667   4.589  -0.166  0.3344 -0.9328  0.7456
  164MOL0     C22017   7.592   4.513  -0.273  0.4405  0.5292  0.7322
  164MOL0     C22018   7.654   4.511  -0.408  0.4589 -0.2360 -1.1204
  164MOL0     C22019   7.597   4.619  -0.499  0.6028  0.2811 -0.3131
  164MOL0     C22020   7.653   4.598  -0.641 -0.1939 -0.3390 -0.3898
  164MOL0     C22021   7.590   4.678  -0.752 -0.0372 -0.7352  0.0969
  164MOL0     N22022   7.666   4.684  -0.886 -0.0829 -0.1177  0.5415
  164MOL0     C22023   7.779   4.759  -0.913 -0.9054 -0.1844 -0.2109
  164MOL0     C22024   7.798   4.761  -1.046  0.0729 -0.5684  1.5032
  164MOL0     C22025   7.917   4.828  -1.119  0.0183  0.1835 -0.1164
  164MOL0     C22026   8.057   4.771  -1.092  0.2889 -0.2185  0.5749
  164MOL0     C22027   8.118   4.854  -0.974  0.4830 -0.2933 -0.1190
  164MOL0     C22028   8.253   4.907  -1.023  0.4181  0.0202  0.5822
  164MOL0     O22029   8.358   4.812  -1.058 -0.1302  0.7457  0.7029
  164MOL0     C22030   8.483   4.856  -1.083  0.3592 -0.0501  0.7571
  164MOL0     C22031   8.568   4.761  -1.137 -0.2729  0.7725 -0.5013
  164MOL0     C22032   8.701   4.792  -1.173  0.1899 -0.3186 -0.9405
  164MOL0     C22033   8.750   4.927  -1.149 -0.4374  0.4940 -0.8795
  164MOL0     C22034   8.890   4.960  -1.184 -0.8982 -1.2029 -0.0518
  164MOL0     O22035   8.964   4.859  -1.227 -0.2350  0.9165  0.2991
  164MOL0     C22036   9.098   4.869  -1.224 -0.2873  0.7610  0.3476
  164MOL0     C22037   9.176   4.831  -1.118 -0.5408  0.4222  0.4282
  164MOL0     C22038   9.311   4.839  -1.117  0.2338 -0.3623 -0.7536
  164MOL0     C22039   9.382   4.881  -1.232  0.1495  0.1495  0.1566
  164MOL0     O22040   9.519   4.886  -1.249  0.4066 -0.2299 -0.5760
  164MOL0     C22041   9.606   4.828  -1.154  0.0444 -0.1991  0.1094
  164MOL0     C22042   9.756   4.852  -1.192  0.3339  0.2963  0.1289
  164MOL0     C22043   9.863   4.797  -1.094  0.1705  0.0725  0.1321
  164MOL0     C22044   9.874   4.882  -0.962  0.2172 -0.4847 -0.6137
  164MOL0     C22045   9.964   4.819  -0.854 -0.0710 -0.0308 -0.1122
  164MOL0     C22046  10.100   4.771  -0.911  0.8866  0.7097  0.4481
  164MOL0     C22047  10.199   4.762  -0.800 -0.4310  0.2400 -0.2482
  164MOL0     C22048  10.343   4.717  -0.832  0.1036  0.1140 -0.3010
  164MOL0    Cl22049  10.420   4.831  -0.944  0.6042 -0.1419  0.0642
  164MOL0     C22050   9.306   4.928  -1.345  0.6554  0.0828  0.6111
  164MOL0     C22051   9.165   4.908  -1.340  0.6414 -0.4256 -0.0932
  164MOL0     O22052   8.931   5.075  -1.177  0.1667  0.0042  0.6747
  164MOL0     C22053   8.662   5.026  -1.095 -0.1547  0.1852 -0.1293
  164MOL0     C22054   8.530   4.993  -1.067 -0.7790 -0.0831  1.1184
  164MOL0     N22055   7.703   4.682  -1.100 -0.5714 -0.0892  0.3981
  164MOL0     N22056   7.618   4.630  -1.006  0.0921  0.2592 -0.1528
  164MOL0     C22057   7.814   5.014  -0.007 -0.0249 -0.0114  0.1278
  164MOL0     C22058   7.918   5.094   0.039  0.1124 -0.0453 -0.2574
  164MOL0     C22059   8.329   5.169   0.217  0.0725  0.0069 -1.1737
  164MOL0     C22060   8.354   5.296   0.158  0.0599 -0.4341  0.0571
  164MOL0     C22061   8.474   5.363   0.183 -1.8082  0.1850  0.9744
  164MOL0     C22062   8.576   5.314   0.269 -0.3656  0.3306 -1.2522
  164MOL0     O22063   8.702   5.369   0.296 -0.5031  0.1997  0.1160
  164MOL0     C22064   8.746   5.474   0.211 -0.3882  0.3431  0.6629
  164MOL0     C22065   8.893   5.512   0.239  0.0232 -0.2917 -0.1333
  164MOL0     C22066   8.916   5.573   0.376  0.2139  0.6343 -0.0889
  164MOL0     C22067   9.063   5.621   0.390 -0.0060 -0.4044  0.4421
  164MOL0     C22068   9.173   5.525   0.380 -0.4807  0.6700  0.7819
  164MOL0     C22069   9.268   5.442   0.387 -0.0962 -0.1344  0.5572
  164MOL0     C22070   8.550   5.190   0.330  0.5950  0.1302  0.2136
  164MOL0     C22071   8.432   5.120   0.309 -0.4183 -0.0466  0.5368
  164MOL0     C22072   8.422   4.987   0.385  0.3515 -0.1869 -0.2666
  164MOL0     H22073   8.011   4.928   0.324  0.1176  0.4851 -0.1118
  164MOL0     H22074   7.797   4.804   0.265 -3.4821 -0.0650 -1.6434
  164MOL0     H22075   7.764   4.652   0.075 -0.2668  0.0800 -0.8984
  164MOL0     H22076   7.618   4.689   0.165 -0.0967 -0.8929  0.6650
  164MOL0     H22077   7.496   4.667  -0.073  0.0110 -1.6371 -4.6442
  164MOL0     H22078   7.557   4.516  -0.005  2.2324 -0.9656 -0.9074
  164MOL0     H22079   7.752   4.524  -0.140  1.6329 -0.0026 -1.0257
  164MOL0     H22080   7.706   4.681  -0.209 -2.3316 -0.9832 -2.0887
  164MOL0     H22081   7.576   4.410  -0.239  0.4166  0.4923  0.6097
  164MOL0     H22082   7.497   4.567  -0.284 -0.4335 -0.8717  1.1324
  164MOL0     H22083   7.763   4.521  -0.399  0.1907  1.2820  1.2032
  164MOL0     H22084   7.636   4.410  -0.446 -0.5472 -0.7086  0.5187
  164MOL0     H22085   7.491   4.590  -0.501  0.7231 -0.1547 -2.0410
  164MOL0     H22086   7.614   4.715  -0.450  1.1858 -0.9635  2.0603
  164MOL0     H22087   7.648   4.494  -0.675 -1.6828 -1.8853  3.9236
  164MOL0     H22088   7.757   4.633  -0.634 -1.6711  4.3148  2.2234
  164MOL0     H22089   7.494   4.628  -0.769 -1.2848  1.9003 -1.2278
  164MOL0     H22090   7.582   4.780  -0.715 -1.8543 -0.7836 -0.0698
  164MOL0     H22091   7.843   4.808  -0.840 -1.1846  1.5734 -1.0959
  164MOL0     H22092   7.892   4.813  -1.224 -1.7552 -3.9327  0.7016
  164MOL0     H22093   7.909   4.937  -1.108  0.7444  0.1027  1.6917
  164MOL0     H22094   8.057   4.665  -1.065  0.9402 -0.1698  0.7952
  164MOL0     H22095   8.104   4.794  -1.188 -0.7217  1.1248  0.3743
  164MOL0     H22096   8.135   4.786  -0.891 -0.8292 -0.2088  0.2420
  164MOL0     H22097   8.057   4.939  -0.941  0.2310 -1.0423  1.4021
  164MOL0     H22098   8.288   4.959  -0.933 -0.3284 -1.5965  1.8439
  164MOL0     H22099   8.225   4.979  -1.101  0.5904 -1.4472 -0.8967
  164MOL0     H22100   8.521   4.669  -1.170 -0.9062  1.8371 -2.7671
  164MOL0     H22101   8.766   4.716  -1.216  0.6503 -0.4857  0.0189
  164MOL0     H22102   9.112   4.798  -1.037 -2.3703  0.5238 -0.9034
  164MOL0     H22103   9.369   4.823  -1.027  1.3106 -0.8460 -1.5079
  164MOL0     H22104   9.591   4.869  -1.054  4.4359 -2.1716  1.8652
  164MOL0     H22105   9.596   4.719  -1.150  0.4671 -0.2280  0.4105
  164MOL0     H22106   9.778   4.793  -1.282  0.9653 -1.8731  1.6242
  164MOL0     H22107   9.764   4.954  -1.230  0.1210  0.1024 -0.4501
  164MOL0     H22108   9.840   4.691  -1.080 -1.9199 -0.0313 -2.9578
  164MOL0     H22109   9.960   4.809  -1.143 -0.6106  2.6422 -0.9407
  164MOL0     H22110   9.777   4.898  -0.913  0.3526  0.8654 -0.7526
  164MOL0     H22111   9.910   4.982  -0.987  0.7809 -0.5576 -0.0930
  164MOL0     H22112   9.918   4.730  -0.809 -2.0400  1.6869  1.4726
  164MOL0     H22113   9.974   4.890  -0.772 -2.9655  0.2882  0.0611
  164MOL0     H22114  10.086   4.675  -0.960  0.5711  0.2647  1.3746
  164MOL0     H22115  10.148   4.836  -0.985  1.1508 -2.2274 -2.1179
  164MOL0     H22116  10.162   4.680  -0.737  0.3761 -0.7536 -1.0472
  164MOL0     H22117  10.192   4.849  -0.733 -0.0783 -0.0552  0.1822
  164MOL0     H22118  10.399   4.716  -0.738  0.7306 -0.8244 -0.6637
  164MOL0     H22119  10.347   4.620  -0.883  1.0832  1.3922 -2.8527
  164MOL0     H22120   9.349   4.966  -1.436  0.1517 -0.3352  0.1908
  164MOL0     H22121   9.095   4.940  -1.416 -0.8581 -1.0419  0.9911
  164MOL0     H22122   8.691   5.129  -1.081  2.0171  0.1651 -3.3061
  164MOL0     H22123   8.467   5.072  -1.029 -1.6001  0.2956 -0.9096
  164MOL0     H22124   7.786   5.033  -0.110  3.0162 -1.1784 -1.0323
  164MOL0     H22125   7.951   5.186  -0.009 -0.7127  0.3792 -0.0420
  164MOL0     H22126   8.283   5.359   0.105  2.0956  2.0891  0.0823
  164MOL0     H22127   8.487   5.464   0.145 -2.4175  0.3833  1.2810
  164MOL0     H22128   8.687   5.564   0.233  2.2442  1.6886  2.8296
  164MOL0     H22129   8.726   5.452   0.106 -2.1967  4.2557  0.0159
  164MOL0     H22130   8.907   5.585   0.159 -3.0236 -0.7177 -1.2038
  164MOL0     H22131   8.963   5.429   0.224  2.4068  0.9443  2.9612
  164MOL0     H22132   8.887   5.492   0.443  0.4517  1.3254  0.8566
  164MOL0     H22133   8.847   5.656   0.397 -0.6988 -0.6967  2.5957
  164MOL0     H22134   9.076   5.696   0.311  2.4717 -1.2524 -0.0381
  164MOL0     H22135   9.068   5.654   0.494 -0.7469  1.0100  0.0620
  164MOL0     H22136   9.349   5.373   0.392  1.0065  1.1630  1.3774
  164MOL0     H22137   8.621   5.146   0.399  1.1178 -0.2373 -0.5510
  164MOL0     H22138   8.457   4.902   0.325  1.1228 -0.8464  1.0615
  164MOL0     H22139   8.482   4.993   0.476 -0.0212 -1.0437  0.0418
  164MOL0     H22140   8.322   4.967   0.425  0.7890  0.1994  1.0872
  165MOL0     O22141  11.295   1.666   2.522  0.8216  0.3940 -0.6486
  165MOL0     C22142  11.199   1.687   2.458  0.9609  0.7101 -0.1752
  165MOL0     O22143  11.177   1.662   2.328  0.1300 -0.4782  0.1162
  165MOL0     C22144  11.288   1.667   2.240 -0.1600  0.1768  0.4939
  165MOL0     C22145  11.256   1.615   2.111  0.3030 -0.0195 -1.1774
  165MOL0     C22146  11.343   1.634   1.996  0.6657  0.0452 -0.0910
  165MOL0     C22147  11.462   1.709   2.007 -0.1583 -0.8789 -0.9838
  165MOL0     O22148  11.532   1.726   1.895 -0.2982 -0.5374 -0.1337
  165MOL0     C22149  11.651   1.803   1.898  0.5806  0.0069 -1.0755
  165MOL0     C22150  11.718   1.795   1.759 -0.3219 -0.2112 -0.0267
  165MOL0     C22151  11.773   1.658   1.723 -0.5231 -0.3444 -0.9186
  165MOL0     C22152  11.832   1.645   1.590  0.5298 -0.1582  0.3259
  165MOL0     C22153  11.946   1.728   1.556  0.2751 -0.8747  0.5034
  165MOL0     C22154  12.070   1.712   1.645  0.6465  1.1869  0.3962
  165MOL0     C22155  12.183   1.793   1.602  0.0703 -0.2150 -0.0843
  165MOL0     C22156  12.156   1.942   1.598  0.4481 -0.0603 -0.2103
  165MOL0     N22157  12.278   2.025   1.593 -0.1197 -0.6597 -0.1394
  165MOL0     C22158  12.344   2.052   1.481  0.7001  0.1254  1.1391
  165MOL0     C22159  12.458   2.109   1.522 -0.8860  0.3854  0.2288
  165MOL0     C22160  12.571   2.144   1.425  0.3108  0.1214  0.0964
  165MOL0     C22161  12.715   2.085   1.462  0.5409  0.4766  0.1730
  165MOL0     C22162  12.811   2.160   1.373 -1.2753  0.2185  0.2878
  165MOL0     C22163  12.952   2.116   1.404  0.6080  0.2294 -0.1737
  165MOL0     O22164  13.055   2.207   1.371 -0.2478 -0.2410  0.5948
  165MOL0     C22165  13.139   2.186   1.254 -0.3867 -0.1757  0.2740
  165MOL0     C22166  13.265   2.246   1.236  0.8751  0.4724 -0.8794
  165MOL0     C22167  13.343   2.229   1.123 -0.0084  0.0526 -0.2479
  165MOL0     C22168  13.292   2.159   1.017  0.4076  0.8494 -0.1007
  165MOL0     C22169  13.361   2.158   0.890  0.1405 -0.6071  0.1760
  165MOL0     O22170  13.304   2.105   0.789  0.2436 -0.7076  0.4179
  165MOL0     C22171  13.377   2.064   0.682  0.1124  0.1643 -0.0609
  165MOL0     C22172  13.394   1.921   0.679  0.3579 -0.1929 -0.5780
  165MOL0     C22173  13.469   1.862   0.577  0.5474  0.0330 -0.5905
  165MOL0     C22174  13.531   1.930   0.472  0.5448 -0.3540 -0.0042
  165MOL0     O22175  13.597   1.873   0.368 -0.1431 -0.2174 -0.1668
  165MOL0     C22176  13.691   1.931   0.277 -0.0652 -1.2690 -0.6067
  165MOL0     C22177  13.805   1.833   0.269  0.0263  0.0551 -0.9556
  165MOL0     C22178  13.921   1.883   0.180 -0.1488  0.3105 -0.5239
  165MOL0     C22179  14.002   1.756   0.121 -0.8411  0.1649 -0.4299
  165MOL0     C22180  14.119   1.804   0.032  0.1089  0.1612 -0.0781
  165MOL0     C22181  14.222   1.890   0.116  0.0431  0.9111 -0.5685
  165MOL0     C22182  14.330   1.940   0.022  0.4723 -0.1859 -0.7024
  165MOL0     C22183  14.460   1.966   0.112  0.1232 -0.4593 -0.4406
  165MOL0    Cl22184  14.605   2.025   0.016  0.2146  0.5226 -0.4621
  165MOL0     C22185  13.519   2.066   0.484 -0.2415  0.6595 -0.4551
  165MOL0     C22186  13.445   2.138   0.582 -1.0206 -0.5951  0.0755
  165MOL0     O22187  13.473   2.209   0.892 -0.2937  1.0957 -0.0394
  165MOL0     C22188  13.172   2.088   1.024 -0.6913  0.1161 -0.6721
  165MOL0     C22189  13.094   2.106   1.137  0.3134  0.2763 -0.2222
  165MOL0     N22190  12.455   2.126   1.659  0.3523 -0.4067 -0.2734
  165MOL0     N22191  12.343   2.082   1.696 -0.2879 -0.4632 -0.4186
  165MOL0     C22192  11.490   1.763   2.138 -0.0296  0.8206  0.1383
  165MOL0     C22193  11.405   1.739   2.249 -0.0442 -0.0287  0.5705
  165MOL0     C22194  11.087   1.742   2.543 -0.1593 -0.3334  0.2447
  165MOL0     C22195  10.965   1.667   2.559  0.0270 -0.3197  0.8665
  165MOL0     C22196  10.856   1.719   2.634  0.3821  1.2000 -0.2633
  165MOL0     C22197  10.863   1.838   2.699  0.2499  0.0442  0.7102
  165MOL0     O22198  10.767   1.897   2.780 -0.6168 -0.2758  0.0516
  165MOL0     C22199  10.645   1.841   2.791  0.3119  1.1006 -0.2068
  165MOL0     C22200  10.644   1.704   2.872  0.1515 -0.6216 -0.4285
  165MOL0     C22201  10.662   1.730   3.030  0.2867  0.5248 -0.6592
  165MOL0     C22202  10.811   1.766   3.046 -0.3044  0.0600 -0.8893
  165MOL0     C22203  10.849   1.774   3.190  0.4575 -0.1336  0.5781
  165MOL0     C22204  10.896   1.771   3.300 -0.1508  0.2643 -0.6022
  165MOL0     C22205  10.978   1.911   2.681  0.2648  0.2318  0.1503
  165MOL0     C22206  11.091   1.867   2.607  0.2562 -0.0213  0.3232
  165MOL0     C22207  11.203   1.967   2.591 -0.1565  0.7957  0.5291
  165MOL0     H22208  11.150   1.592   2.102  0.0019  0.6328  0.4574
  165MOL0     H22209  11.316   1.597   1.898 -2.4416  1.5037  0.0780
  165MOL0     H22210  11.623   1.906   1.920  0.6275 -0.2304  0.1363
  165MOL0     H22211  11.716   1.767   1.978 -0.2183 -2.5929 -1.4786
  165MOL0     H22212  11.794   1.872   1.744 -1.3479  0.3401 -3.1826
  165MOL0     H22213  11.651   1.824   1.677 -3.2793  0.2987  2.4156
  165MOL0     H22214  11.689   1.589   1.739 -0.2043  0.0815  4.0256
  165MOL0     H22215  11.855   1.625   1.787  0.2397  2.1027 -0.5442
  165MOL0     H22216  11.856   1.538   1.584 -2.0024 -1.0342  3.2281
  165MOL0     H22217  11.756   1.659   1.512  1.1283 -2.9180 -0.8855
  165MOL0     H22218  11.973   1.714   1.451 -1.2601  0.6888 -0.1514
  165MOL0     H22219  11.911   1.830   1.572 -2.9266 -1.5272 -1.6149
  165MOL0     H22220  12.059   1.737   1.751  1.9980 -0.3059  0.9329
  165MOL0     H22221  12.094   1.606   1.640 -0.6571  0.9185 -0.8204
  165MOL0     H22222  12.211   1.755   1.503 -0.4457 -1.2783  0.1661
  165MOL0     H22223  12.266   1.774   1.672  0.6571  3.4325  0.3907
  165MOL0     H22224  12.100   1.951   1.504 -0.7667 -1.0147  0.3847
  165MOL0     H22225  12.099   1.979   1.684  0.7810  0.5602 -0.2536
  165MOL0     H22226  12.324   2.014   1.381  2.1748  0.3997  0.7120
  165MOL0     H22227  12.556   2.115   1.320 -0.7505 -1.0937  0.5705
  165MOL0     H22228  12.577   2.254   1.427  0.6453  0.0958  0.5279
  165MOL0     H22229  12.736   2.094   1.569  0.8223  1.1758  0.0680
  165MOL0     H22230  12.724   1.984   1.422 -0.5145 -0.0570  1.2346
  165MOL0     H22231  12.815   2.264   1.407  2.5849 -0.1960  1.5615
  165MOL0     H22232  12.785   2.154   1.267  1.3226 -2.3504 -0.3271
  165MOL0     H22233  12.958   2.015   1.363 -4.1195  0.2158 -1.3372
  165MOL0     H22234  12.971   2.114   1.512  0.4137  2.0166 -0.0724
  165MOL0     H22235  13.317   2.291   1.320  1.1402 -0.3216 -0.6085
  165MOL0     H22236  13.438   2.281   1.124 -1.0060  1.9901 -0.7030
  165MOL0     H22237  13.357   1.866   0.766 -1.0628  0.5762 -0.6682
  165MOL0     H22238  13.469   1.754   0.588  1.5224 -0.0742 -1.4857
  165MOL0     H22239  13.649   1.949   0.178 -2.1561  1.2616  0.6059
  165MOL0     H22240  13.734   2.019   0.327 -3.5090 -0.0194  0.4003
  165MOL0     H22241  13.845   1.808   0.367  2.2916 -0.4772 -1.9544
  165MOL0     H22242  13.751   1.744   0.235 -0.4047 -0.1418  0.1967
  165MOL0     H22243  13.878   1.946   0.102  1.8206  0.2401 -1.7427
  165MOL0     H22244  13.986   1.942   0.245 -0.1663  0.7472 -0.8990
  165MOL0     H22245  13.933   1.689   0.069 -3.3310  1.0664  1.5247
  165MOL0     H22246  14.034   1.700   0.209 -1.2113  0.3701 -0.1633
  165MOL0     H22247  14.093   1.871  -0.051  2.5613  0.9461 -0.2828
  165MOL0     H22248  14.173   1.719  -0.011 -0.0291  0.3103 -0.5573
  165MOL0     H22249  14.179   1.970   0.176 -1.0770 -1.5345  2.1573
  165MOL0     H22250  14.268   1.815   0.181  1.0740  0.3111 -1.9468
  165MOL0     H22251  14.302   2.032  -0.030  3.0951  0.4894 -1.0697
  165MOL0     H22252  14.356   1.863  -0.052  1.8973  0.4669 -0.9117
  165MOL0     H22253  14.425   2.052   0.170  2.5236  1.1506 -1.2560
  165MOL0     H22254  14.494   1.884   0.177 -0.9681 -2.9149 -2.7461
  165MOL0     H22255  13.577   2.123   0.412  1.5012  0.7238  0.9373
  165MOL0     H22256  13.425   2.245   0.581 -1.4091 -0.6639  0.0916
  165MOL0     H22257  13.135   2.032   0.938 -1.5344 -1.2425  0.5162
  165MOL0     H22258  12.993   2.067   1.128 -0.5624  1.3035  3.4147
  165MOL0     H22259  11.581   1.820   2.154  1.0322 -0.6484 -0.4702
  165MOL0     H22260  11.427   1.785   2.345 -1.1556  0.9073  0.3941
  165MOL0     H22261  10.950   1.567   2.520 -2.9076  0.2665  0.2648
  165MOL0     H22262  10.760   1.670   2.647 -0.5574  1.8371 -3.7765
  165MOL0     H22263  10.606   1.819   2.692  1.4975 -1.7894 -0.1392
  165MOL0     H22264  10.575   1.915   2.831  0.2153  0.1414  1.5135
  165MOL0     H22265  10.725   1.634   2.849  2.1929  1.6667 -0.6413
  165MOL0     H22266  10.547   1.654   2.866  0.6112 -1.4472 -1.2444
  165MOL0     H22267  10.645   1.637   3.085 -0.4418  1.5195  0.8793
  165MOL0     H22268  10.589   1.803   3.067  1.3426  0.4558  1.7542
  165MOL0     H22269  10.882   1.700   2.994  2.5850  0.8302  1.7482
  165MOL0     H22270  10.818   1.865   3.001 -2.2332  0.8548  0.4357
  165MOL0     H22271  10.928   1.781   3.401 -1.2948  0.9604 -0.2883
  165MOL0     H22272  10.974   2.017   2.705 -1.3642 -0.1723  1.8910
  165MOL0     H22273  11.242   2.000   2.688  0.9341  1.0332  0.0118
  165MOL0     H22274  11.281   1.926   2.527 -1.2914 -1.3735  0.4059
  165MOL0     H22275  11.166   2.054   2.538  1.5506  0.1418 -1.8640
  166MOL0     O22276  10.304   5.848   3.116 -0.4816  0.0563  0.0296
  166MOL0     C22277  10.287   5.727   3.134  0.0221 -0.4357  0.2685
  166MOL0     O22278  10.388   5.630   3.146  0.2971 -0.0940 -0.4827
  166MOL0     C22279  10.526   5.661   3.131  0.0961  0.0567  0.0140
  166MOL0     C22280  10.567   5.749   3.026 -0.0317  0.3300  0.7012
  166MOL0     C22281  10.700   5.771   3.012  0.3799 -0.7785  0.4518
  166MOL0     C22282  10.792   5.728   3.104 -0.3146 -0.5632 -1.4220
  166MOL0     O22283  10.921   5.779   3.096  0.4745  0.3672  0.3902
  166MOL0     C22284  11.016   5.695   3.025  0.6094  0.0234 -0.2407
  166MOL0     C22285  11.155   5.733   3.048  0.1690 -0.4453 -0.0172
  166MOL0     C22286  11.210   5.671   3.177  0.1476 -0.2647 -0.2023
  166MOL0     C22287  11.160   5.727   3.319  0.0993  0.2669 -0.1867
  166MOL0     C22288  11.254   5.694   3.449  0.4012  1.2881  0.6676
  166MOL0     C22289  11.387   5.755   3.446 -0.4393 -0.4546 -0.1303
  166MOL0     C22290  11.455   5.706   3.578  0.9030  0.0572 -0.2857
  166MOL0     C22291  11.595   5.766   3.617  0.4451  0.3484  0.7825
  166MOL0     N22292  11.690   5.741   3.518 -0.3474  0.3745  0.1350
  166MOL0     C22293  11.792   5.828   3.480  0.7618  0.1628  0.6004
  166MOL0     C22294  11.848   5.755   3.378 -0.1982  0.1970 -0.0016
  166MOL0     C22295  11.962   5.812   3.293  0.8065  0.0950 -0.4206
  166MOL0     C22296  12.098   5.826   3.377 -0.2632  0.6187 -0.6680
  166MOL0     C22297  12.152   5.694   3.427 -0.5646  0.0704  1.2959
  166MOL0     C22298  12.299   5.700   3.483 -0.1108 -0.5001  0.3797
  166MOL0     O22299  12.317   5.775   3.601 -0.2100 -0.5165  0.0325
  166MOL0     C22300  12.444   5.772   3.660  0.3397 -0.1948  0.4998
  166MOL0     C22301  12.453   5.836   3.780  0.3049 -0.7461 -0.4071
  166MOL0     C22302  12.573   5.828   3.854 -0.0459 -0.5199 -0.2166
  166MOL0     C22303  12.683   5.758   3.811  0.7578 -0.0617  0.0044
  166MOL0     C22304  12.814   5.742   3.883  0.6077  0.2469  0.4315
  166MOL0     O22305  12.912   5.671   3.813  0.4092  0.2750  1.0514
  166MOL0     C22306  13.039   5.650   3.846 -0.4422 -0.4757 -0.1916
  166MOL0     C22307  13.110   5.541   3.782  0.4606  0.2423 -0.6913
  166MOL0     C22308  13.244   5.518   3.811 -0.6402  1.5169 -0.2799
  166MOL0     C22309  13.314   5.594   3.895 -0.1642  0.6913 -0.4968
  166MOL0     O22310  13.448   5.569   3.927 -0.2349 -0.7161 -0.4918
  166MOL0     C22311  13.532   5.689   3.941  0.3073 -0.1185  0.0175
  166MOL0     C22312  13.677   5.644   3.961 -0.5450 -0.2822 -0.2435
  166MOL0     C22313  13.763   5.771   3.968 -0.3018  0.0772 -0.1997
  166MOL0     C22314  13.914   5.745   3.979  0.4429 -0.4121 -0.4923
  166MOL0     C22315  14.003   5.863   4.010 -1.0411  0.6199  0.2674
  166MOL0     C22316  14.149   5.834   4.004 -0.3218 -0.9792 -0.6130
  166MOL0     C22317  14.235   5.948   4.071 -0.8744 -0.8658  0.4848
  166MOL0     C22318  14.376   5.925   4.019  0.1498  0.3777  0.7578
  166MOL0    Cl22319  14.492   5.989   4.142 -0.0208 -0.0792  0.0954
  166MOL0     C22320  13.241   5.705   3.950 -0.2634  0.6310  0.4294
  166MOL0     C22321  13.108   5.720   3.940  1.1330  0.0325  0.5245
  166MOL0     O22322  12.834   5.791   3.995 -0.0579 -0.1977 -0.6644
  166MOL0     C22323  12.681   5.709   3.685  0.7243 -0.3891  0.4385
  166MOL0     C22324  12.556   5.709   3.612  0.1526  0.3030  0.4945
  166MOL0     N22325  11.785   5.634   3.361  1.1531 -0.5241  0.3769
  166MOL0     N22326  11.689   5.630   3.440 -0.2862 -1.4001  0.2903
  166MOL0     C22327  10.759   5.642   3.206 -0.1590 -0.0840 -0.0393
  166MOL0     C22328  10.620   5.604   3.218 -0.6848  0.3057 -0.1668
  166MOL0     C22329  10.145   5.673   3.121 -0.0623  0.2537  0.6968
  166MOL0     C22330  10.117   5.568   3.203  0.2696 -0.0151 -0.0639
  166MOL0     C22331   9.987   5.509   3.197  0.1214  0.0976  0.5273
  166MOL0     C22332   9.887   5.555   3.111  0.1751 -0.0440 -0.3597
  166MOL0     O22333   9.754   5.513   3.127 -0.4031 -0.5954  0.2746
  166MOL0     C22334   9.731   5.378   3.179 -0.7899 -0.1663  0.0578
  166MOL0     C22335   9.700   5.400   3.331 -0.7488  0.3062  0.2824
  166MOL0     C22336   9.565   5.484   3.356 -1.2314  0.0974 -0.4195
  166MOL0     C22337   9.533   5.475   3.507 -0.2727  0.1431  0.2993
  166MOL0     C22338   9.418   5.553   3.549  0.8183 -0.9642  0.1512
  166MOL0     C22339   9.323   5.622   3.578 -0.3665 -0.0120 -0.2659
  166MOL0     C22340   9.922   5.657   3.024  0.7214  0.3045  0.3362
  166MOL0     C22341  10.050   5.716   3.028  0.7044  0.0899  0.2890
  166MOL0     C22342  10.079   5.832   2.935  0.1620  0.1291 -0.4271
  166MOL0     H22343  10.494   5.811   2.973  0.1471  1.9126  2.2143
  166MOL0     H22344  10.741   5.831   2.931 -0.2093 -1.9019 -0.7099
  166MOL0     H22345  11.003   5.589   3.046  1.4062  0.7213  5.0267
  166MOL0     H22346  10.995   5.718   2.920 -3.1478  2.5247  0.8389
  166MOL0     H22347  11.159   5.842   3.048  0.8510 -0.4245 -2.3678
  166MOL0     H22348  11.217   5.698   2.965 -1.9716 -2.2063 -0.9446
  166MOL0     H22349  11.316   5.694   3.165 -0.4388  1.9248 -1.6164
  166MOL0     H22350  11.192   5.563   3.184  0.9243 -0.3788  0.0696
  166MOL0     H22351  11.137   5.834   3.309 -2.2290 -0.2458 -0.8251
  166MOL0     H22352  11.066   5.682   3.350  1.8623 -1.8600  2.6400
  166MOL0     H22353  11.194   5.715   3.538 -1.0568 -1.3708  0.4037
  166MOL0     H22354  11.260   5.585   3.450  1.8331  1.3532  2.1794
  166MOL0     H22355  11.440   5.719   3.357 -1.8013 -1.5798 -0.5169
  166MOL0     H22356  11.390   5.865   3.440  2.2814 -0.2757  2.3345
  166MOL0     H22357  11.466   5.597   3.576 -0.6365 -0.1655  1.3523
  166MOL0     H22358  11.381   5.732   3.654 -1.4405 -0.6225 -2.1975
  166MOL0     H22359  11.583   5.874   3.630  2.3626  0.7264 -0.1835
  166MOL0     H22360  11.618   5.715   3.711 -2.3269 -0.4422  1.1397
  166MOL0     H22361  11.811   5.928   3.520  2.4214 -0.4890  1.5287
  166MOL0     H22362  11.968   5.743   3.209 -2.3533 -1.1820  0.2449
  166MOL0     H22363  11.927   5.906   3.250  0.0877 -0.1278 -0.3328
  166MOL0     H22364  12.169   5.868   3.306 -0.1686 -0.8737 -1.5069
  166MOL0     H22365  12.092   5.891   3.465 -0.1830 -0.2551  0.0045
  166MOL0     H22366  12.157   5.619   3.347  3.7641  0.7236  0.6685
  166MOL0     H22367  12.084   5.658   3.505  1.3230 -5.8485  0.6887
  166MOL0     H22368  12.371   5.734   3.407  1.5697 -1.1624  1.6027
  166MOL0     H22369  12.332   5.600   3.513  0.3302 -0.5033 -0.0869
  166MOL0     H22370  12.372   5.901   3.813 -0.1626 -1.3786 -0.2911
  166MOL0     H22371  12.584   5.883   3.947  0.4656  0.2065 -0.6969
  166MOL0     H22372  13.063   5.472   3.713  1.0199  0.3074 -1.1468
  166MOL0     H22373  13.290   5.425   3.780 -1.7105  0.6631  0.5914
  166MOL0     H22374  13.528   5.736   3.842  4.3314 -1.3483 -0.9064
  166MOL0     H22375  13.502   5.755   4.023  1.2529  0.9498 -0.4686
  166MOL0     H22376  13.679   5.582   4.051  2.1457 -1.1982 -0.8598
  166MOL0     H22377  13.713   5.583   3.878  1.5013  0.4412  0.0470
  166MOL0     H22378  13.742   5.826   3.876 -0.0199  0.6330  0.0591
  166MOL0     H22379  13.719   5.827   4.051 -1.7260 -0.0071 -0.8661
  166MOL0     H22380  13.941   5.702   3.882 -1.9815  1.2108 -2.0231
  166MOL0     H22381  13.931   5.672   4.059  1.6183  0.6217  0.2224
  166MOL0     H22382  13.988   5.896   4.113  0.6995 -0.9433  1.0793
  166MOL0     H22383  13.991   5.942   3.935 -0.1362 -0.5543 -1.1745
  166MOL0     H22384  14.179   5.751   4.069 -1.7766 -0.0218  1.3827
  166MOL0     H22385  14.172   5.815   3.898  0.0160  3.1171 -1.4319
  166MOL0     H22386  14.241   5.938   4.179 -0.8009  0.9211  0.6757
  166MOL0     H22387  14.197   6.045   4.038 -0.9499 -0.7506  0.9060
  166MOL0     H22388  14.400   5.818   4.020  3.1700  0.9763  0.1978
  166MOL0     H22389  14.399   5.975   3.925  2.6637 -0.3512  0.9102
  166MOL0     H22390  13.297   5.778   4.006  0.0849  1.3456 -0.8074
  166MOL0     H22391  13.061   5.798   3.999  0.8408  1.5197 -1.5362
  166MOL0     H22392  12.764   5.666   3.629  0.0999 -1.8666  0.6135
  166MOL0     H22393  12.576   5.665   3.515  1.8430 -1.0427  1.3890
  166MOL0     H22394  10.833   5.603   3.275  4.0991  1.5619 -3.2753
  166MOL0     H22395  10.584   5.546   3.302 -1.7617 -0.0340 -0.8323
  166MOL0     H22396  10.194   5.530   3.269 -1.6222 -0.1018  2.2598
  166MOL0     H22397   9.981   5.420   3.258  0.0036  0.1768  0.6313
  166MOL0     H22398   9.814   5.308   3.163  0.2347  0.6297  1.5964
  166MOL0     H22399   9.640   5.352   3.124 -0.8743  0.7147 -0.2378
  166MOL0     H22400   9.783   5.456   3.374  0.8560 -1.9933  0.3531
  166MOL0     H22401   9.693   5.302   3.380 -0.0547  0.2363  0.2467
  166MOL0     H22402   9.484   5.458   3.287 -1.1136  0.6057 -0.7522
  166MOL0     H22403   9.591   5.586   3.327 -0.5801 -0.0902 -0.5150
  166MOL0     H22404   9.515   5.368   3.520  1.3079 -0.3113 -0.8690
  166MOL0     H22405   9.619   5.498   3.572 -0.0130 -1.2330  0.4732
  166MOL0     H22406   9.224   5.664   3.582 -2.1245 -3.7241 -0.6566
  166MOL0     H22407   9.841   5.708   2.973  0.2717 -1.6139 -0.9878
  166MOL0     H22408  10.178   5.817   2.891 -0.7244 -3.7747 -1.4257
  166MOL0     H22409  10.007   5.833   2.853 -0.3821  0.7659  0.0444
  166MOL0     H22410  10.065   5.928   2.986  0.0861  1.7269 -3.2542
  167MOL0     O22411   1.132   3.134   9.273 -0.4210 -0.0154 -0.1798
  167MOL0     C22412   1.113   3.099   9.159  0.6904  0.0270  0.2722
  167MOL0     O22413   1.200   3.132   9.054  0.3148  0.5522 -0.3104
  167MOL0     C22414   1.321   3.187   9.084 -0.6180  0.0820  0.3105
  167MOL0     C22415   1.341   3.324   9.049 -0.7247  0.0723 -0.2375
  167MOL0     C22416   1.474   3.376   9.065  0.4233 -0.6222 -0.0253
  167MOL0     C22417   1.577   3.313   9.132 -0.6522 -0.3596  0.5910
  167MOL0     O22418   1.707   3.376   9.143  0.0859 -0.9110  0.4467
  167MOL0     C22419   1.822   3.290   9.176  0.2304  0.2324  0.0977
  167MOL0     C22420   1.866   3.282   9.327 -0.0059  0.5000  0.1272
  167MOL0     C22421   1.994   3.196   9.334  0.3709 -0.5249 -0.3552
  167MOL0     C22422   2.061   3.187   9.479  0.0301  0.5474 -0.2577
  167MOL0     C22423   2.159   3.298   9.508 -0.6864 -0.0872  0.1126
  167MOL0     C22424   2.189   3.315   9.657 -0.2507  0.1884  0.3319
  167MOL0     C22425   2.266   3.447   9.686  0.4502  0.0293 -0.1671
  167MOL0     C22426   2.269   3.467   9.841 -0.0979  0.4220 -0.2566
  167MOL0     N22427   2.288   3.611   9.878 -0.3970  0.2702  0.1241
  167MOL0     C22428   2.377   3.687   9.809  0.1521  0.6151  0.4753
  167MOL0     C22429   2.379   3.806   9.878  0.4402  1.1789  0.4387
  167MOL0     C22430   2.482   3.913   9.865 -0.0347  0.4307 -0.2570
  167MOL0     C22431   2.470   3.982   9.721  0.2608 -0.1869 -0.2801
  167MOL0     C22432   2.611   4.036   9.679  0.0925 -0.6488  1.0686
  167MOL0     C22433   2.708   3.928   9.622  0.2758 -0.1972  0.1688
  167MOL0     O22434   2.740   3.822   9.725 -0.1361 -1.4152 -0.5833
  167MOL0     C22435   2.873   3.783   9.718  0.3869  0.2404  0.1938
  167MOL0     C22436   2.969   3.785   9.619 -0.2826  0.2758 -0.5806
  167MOL0     C22437   3.102   3.745   9.630  0.0596  0.6734  0.0147
  167MOL0     C22438   3.142   3.691   9.755 -0.2763  0.2786 -0.2951
  167MOL0     C22439   3.284   3.643   9.768  0.3673 -0.1692 -0.8946
  167MOL0     O22440   3.316   3.574   9.879 -0.8635  0.2251  0.0456
  167MOL0     C22441   3.452   3.538   9.899  0.0990  0.4269  0.2279
  167MOL0     C22442   3.555   3.633   9.897  0.0423 -0.2602  0.0444
  167MOL0     C22443   3.687   3.601   9.923 -0.3176  0.4343  0.0153
  167MOL0     C22444   3.726   3.470   9.949 -0.1819  0.0510  0.0324
  167MOL0     O22445   3.862   3.447   9.970  0.1707 -0.2187 -0.2252
  167MOL0     C22446   3.918   3.319   9.954  0.2939  0.5319 -0.1917
  167MOL0     C22447   3.959   3.265  10.095 -0.8243  0.0011 -0.7438
  167MOL0     C22448   4.041   3.138  10.101 -0.7020 -0.8046 -0.0188
  167MOL0     C22449   3.969   3.023  10.043 -0.4941 -0.6345 -0.6099
  167MOL0     C22450   4.050   2.895  10.048 -0.0638 -0.2718  0.1651
  167MOL0     C22451   4.081   2.841  10.190  1.4119 -0.6864  0.9362
  167MOL0     C22452   4.172   2.721  10.197 -0.1577  0.3414 -0.4687
  167MOL0     C22453   4.173   2.653  10.334  0.0125 -0.0618 -0.0034
  167MOL0    Cl22454   4.257   2.754  10.459  0.1541 -0.1707  0.2112
  167MOL0     C22455   3.623   3.376   9.957 -0.3696 -0.0796 -0.2141
  167MOL0     C22456   3.492   3.407   9.922 -0.2739  0.3904 -0.8070
  167MOL0     O22457   3.364   3.671   9.677  0.0007 -0.4857 -0.4918
  167MOL0     C22458   3.046   3.686   9.861  0.3341  0.5182  0.2912
  167MOL0     C22459   2.916   3.730   9.837  1.2592  1.0591 -0.4518
  167MOL0     N22460   2.288   3.803   9.979 -0.4365 -0.2559  0.0292
  167MOL0     N22461   2.233   3.684   9.979 -0.2089 -0.4024  0.5912
  167MOL0     C22462   1.556   3.181   9.178 -0.2224 -0.4680  0.5485
  167MOL0     C22463   1.432   3.120   9.141  0.1325 -0.8940  0.3173
  167MOL0     C22464   1.002   3.003   9.130  0.2172 -0.0259  0.0064
  167MOL0     C22465   1.025   2.906   9.024  0.1110 -0.6659  0.7326
  167MOL0     C22466   0.940   2.804   8.982 -0.3847  0.2410 -0.1152
  167MOL0     C22467   0.830   2.778   9.065 -0.6289 -0.4027 -0.2672
  167MOL0     O22468   0.732   2.693   9.033  0.1267  0.4990  0.1605
  167MOL0     C22469   0.725   2.563   9.087  0.3595  0.5032 -0.5638
  167MOL0     C22470   0.792   2.454   8.999 -0.4048  0.4716 -0.1406
  167MOL0     C22471   0.772   2.300   9.048  0.5244  0.6454  0.3153
  167MOL0     C22472   0.642   2.270   9.118  0.5892  0.0095 -1.2673
  167MOL0     C22473   0.529   2.276   9.026 -0.4901  0.1079 -0.3063
  167MOL0     C22474   0.432   2.256   8.955 -0.8747 -0.3005 -0.8572
  167MOL0     C22475   0.804   2.861   9.174 -0.2534  0.6523 -0.1133
  167MOL0     C22476   0.883   2.974   9.208 -1.1325  0.4950  1.1693
  167MOL0     C22477   0.848   3.049   9.340  0.0220 -0.1526  0.3953
  167MOL0     H22478   1.264   3.387   9.007 -0.9596 -1.2169 -1.8470
  167MOL0     H22479   1.497   3.468   9.012  1.1292  0.8745  2.6847
  167MOL0     H22480   1.807   3.190   9.134 -0.8977  0.5455 -0.2525
  167MOL0     H22481   1.901   3.340   9.120 -0.4196 -0.9659 -1.9868
  167MOL0     H22482   1.795   3.240   9.400  2.0706  0.9440  2.5509
  167MOL0     H22483   1.882   3.385   9.360 -3.1001  1.4648 -1.0379
  167MOL0     H22484   2.063   3.247   9.266 -0.5399 -0.5187 -1.3063
  167MOL0     H22485   1.977   3.100   9.283 -0.2442  0.6314 -2.4547
  167MOL0     H22486   1.985   3.190   9.557  2.9065  2.4858  2.7544
  167MOL0     H22487   2.099   3.086   9.493 -3.2720 -1.4065 -3.4725
  167MOL0     H22488   2.252   3.263   9.462 -0.7970 -2.7416  1.6624
  167MOL0     H22489   2.118   3.389   9.464 -0.3563 -0.4807 -1.0444
  167MOL0     H22490   2.099   3.322   9.719  1.4658  0.2122  3.0260
  167MOL0     H22491   2.255   3.239   9.701 -0.0813  0.7917  1.1532
  167MOL0     H22492   2.205   3.528   9.644 -1.4467  0.3405  2.8594
  167MOL0     H22493   2.367   3.444   9.645 -0.4471  0.0495 -2.5507
  167MOL0     H22494   2.180   3.427   9.891  1.6386 -1.1272  1.8259
  167MOL0     H22495   2.349   3.411   9.890  0.5050  1.1534 -0.3933
  167MOL0     H22496   2.432   3.658   9.720 -1.7861 -0.0730 -0.5534
  167MOL0     H22497   2.474   3.992   9.941  1.1759  3.4296 -3.0039
  167MOL0     H22498   2.588   3.886   9.869  0.6005  2.6133 -0.7892
  167MOL0     H22499   2.432   3.911   9.646 -0.0744  0.9970 -1.2539
  167MOL0     H22500   2.402   4.066   9.733  2.8036  1.8371  0.8402
  167MOL0     H22501   2.663   4.090   9.759  0.4609 -0.8898  0.9924
  167MOL0     H22502   2.594   4.105   9.596  2.9076 -0.3309  0.6729
  167MOL0     H22503   2.795   3.982   9.583 -1.3477  2.3368 -0.1794
  167MOL0     H22504   2.669   3.880   9.531  1.2276 -3.2122  1.2330
  167MOL0     H22505   2.932   3.817   9.522 -0.6751  1.7739  0.0509
  167MOL0     H22506   3.164   3.760   9.543  0.5176  1.4079  0.4536
  167MOL0     H22507   3.517   3.728   9.860 -2.0133 -1.7766 -1.9586
  167MOL0     H22508   3.756   3.684   9.917 -2.4512  2.2578 -0.8623
  167MOL0     H22509   3.842   3.261   9.900  0.9970 -0.3399 -0.2523
  167MOL0     H22510   4.012   3.330   9.900  0.3717  0.5349 -0.0547
  167MOL0     H22511   4.030   3.338  10.135 -0.9147 -0.7104  0.8014
  167MOL0     H22512   3.867   3.257  10.153 -0.0764  3.7647  1.2903
  167MOL0     H22513   4.132   3.149  10.040 -1.4047 -2.4495 -1.4583
  167MOL0     H22514   4.079   3.129  10.203  1.6154 -0.1805 -0.7469
  167MOL0     H22515   3.962   3.033   9.934  2.0865  0.5019 -0.7344
  167MOL0     H22516   3.870   3.009  10.088 -1.0080  0.6119 -1.3106
  167MOL0     H22517   4.151   2.904  10.006 -1.2519  2.4989 -2.4167
  167MOL0     H22518   4.001   2.815   9.993  0.4629  0.4829 -1.4524
  167MOL0     H22519   4.129   2.915  10.256 -0.9428  0.9631  0.9226
  167MOL0     H22520   3.984   2.813  10.231  1.0125 -0.7011  0.0033
  167MOL0     H22521   4.272   2.758  10.175  0.4938  0.3040  2.0697
  167MOL0     H22522   4.137   2.650  10.122 -3.6371  0.1255  1.1355
  167MOL0     H22523   4.077   2.621  10.375  0.6876 -2.0277  0.1052
  167MOL0     H22524   4.233   2.562  10.328 -0.6011 -0.3788 -1.9764
  167MOL0     H22525   3.646   3.275   9.989 -1.0808  0.6001  2.7923
  167MOL0     H22526   3.424   3.323   9.934 -0.0058  0.2142 -0.4995
  167MOL0     H22527   3.078   3.649   9.958 -0.5036  0.7473  0.6647
  167MOL0     H22528   2.852   3.733   9.925 -0.1966  3.6351 -1.4750
  167MOL0     H22529   1.627   3.126   9.239  1.3857 -0.0904 -0.9157
  167MOL0     H22530   1.417   3.019   9.179  1.3671 -0.5585  1.8168
  167MOL0     H22531   1.113   2.904   8.961 -0.3359  0.6759  0.0209
  167MOL0     H22532   0.974   2.737   8.904 -2.3526 -3.1479  1.6870
  167MOL0     H22533   0.617   2.546   9.098  0.4290  1.1397  1.3975
  167MOL0     H22534   0.776   2.579   9.182 -1.1410 -0.4703  0.4644
  167MOL0     H22535   0.900   2.472   8.998 -0.3769  0.5368  1.3811
  167MOL0     H22536   0.753   2.459   8.897  1.1923  2.5493 -0.7074
  167MOL0     H22537   0.856   2.270   9.112  0.2830 -2.7264 -0.7280
  167MOL0     H22538   0.785   2.238   8.958 -0.1829 -0.8046  1.1738
  167MOL0     H22539   0.656   2.176   9.172 -0.5426  0.0758 -0.8398
  167MOL0     H22540   0.627   2.343   9.198  1.4569  0.1297 -1.2050
  167MOL0     H22541   0.341   2.250   8.900  0.2667 -1.9142 -2.6981
  167MOL0     H22542   0.714   2.849   9.234  0.5390 -0.7160  0.8434
  167MOL0     H22543   0.922   3.020   9.414 -0.5556  0.7447  1.3437
  167MOL0     H22544   0.863   3.156   9.322  2.7771 -0.0848  2.4588
  167MOL0     H22545   0.746   3.031   9.374 -0.4766 -3.0749 -2.1367
  168MOL0     O22546   8.146   5.446  10.994 -0.3183 -0.2381 -0.4414
  168MOL0     C22547   8.153   5.379  11.097  0.3640 -0.1943 -0.3070
  168MOL0     O22548   8.047   5.354  11.177  0.5757  0.4356 -0.1503
  168MOL0     C22549   7.930   5.389  11.123 -1.2453  0.0702 -0.3755
  168MOL0     C22550   7.883   5.516  11.140  0.5797  0.4853  0.5051
  168MOL0     C22551   7.770   5.554  11.082  0.5076  1.3110  0.2580
  168MOL0     C22552   7.690   5.457  11.014  0.2950  0.0080  0.0715
  168MOL0     O22553   7.566   5.493  10.963  0.2466  0.0625  0.4135
  168MOL0     C22554   7.541   5.610  10.892  0.0840  0.2306 -0.3435
  168MOL0     C22555   7.401   5.618  10.830 -0.6551 -0.5607 -0.2055
  168MOL0     C22556   7.395   5.552  10.689  0.0888  0.8812 -0.2212
  168MOL0     C22557   7.372   5.392  10.716  0.0798 -0.7440  0.0788
  168MOL0     C22558   7.394   5.307  10.598  0.8618 -0.4428  0.7994
  168MOL0     C22559   7.516   5.311  10.514 -0.0666 -0.0732 -0.0321
  168MOL0     C22560   7.640   5.300  10.600 -0.4892 -0.4856 -0.2195
  168MOL0     C22561   7.762   5.335  10.524  0.1560  0.3425  1.0950
  168MOL0     N22562   7.875   5.256  10.574 -0.4258  0.2582 -0.2451
  168MOL0     C22563   7.970   5.319  10.648 -0.3572 -0.1094  0.6342
  168MOL0     C22564   8.055   5.219  10.677 -0.6816  0.1566  0.0868
  168MOL0     C22565   8.197   5.235  10.738 -0.0345 -0.2628 -0.1218
  168MOL0     C22566   8.303   5.160  10.661 -0.1594  0.2234 -0.4918
  168MOL0     C22567   8.434   5.170  10.751  0.9443 -0.3007  0.6109
  168MOL0     C22568   8.553   5.110  10.679 -0.1247 -0.8747 -0.2542
  168MOL0     O22569   8.649   5.093  10.786  0.0729 -0.9710 -0.0632
  168MOL0     C22570   8.767   5.033  10.752  0.0502  0.8865 -0.3081
  168MOL0     C22571   8.857   4.993  10.854  0.0280 -0.4753 -0.3936
  168MOL0     C22572   8.987   4.951  10.828  0.0510 -0.8079 -0.0447
  168MOL0     C22573   9.034   4.950  10.693 -0.3012  1.0187 -0.7744
  168MOL0     C22574   9.184   4.910  10.677  0.2996  0.0954  0.9106
  168MOL0     O22575   9.265   4.914  10.785  0.1665  0.3148  0.4315
  168MOL0     C22576   9.382   4.835  10.774  0.7284  0.3219  0.8352
  168MOL0     C22577   9.506   4.887  10.725 -0.1048  0.1709  0.5740
  168MOL0     C22578   9.616   4.808  10.707  0.0993  0.1339  0.9027
  168MOL0     C22579   9.606   4.674  10.743 -0.4375 -0.4102  0.9382
  168MOL0     O22580   9.722   4.607  10.713  0.2028  0.2211 -0.3152
  168MOL0     C22581   9.720   4.466  10.708  0.0016  0.2379  0.0470
  168MOL0     C22582   9.838   4.409  10.632  1.0810 -0.3714  0.2546
  168MOL0     C22583   9.972   4.459  10.688  0.6726 -0.3667  0.4629
  168MOL0     C22584  10.080   4.350  10.694  0.3191 -0.2054  0.2090
  168MOL0     C22585  10.122   4.294  10.559  0.4743 -0.5781  0.6192
  168MOL0     C22586  10.264   4.231  10.558 -0.0706  0.1901 -1.0770
  168MOL0     C22587  10.270   4.109  10.655 -0.9707  0.5368 -0.4627
  168MOL0     C22588  10.388   4.027  10.629  0.3682 -0.0867 -0.0882
  168MOL0    Cl22589  10.362   3.944  10.475 -0.0868  0.2182 -0.3561
  168MOL0     C22590   9.491   4.617  10.795 -0.4126 -0.5280 -0.3061
  168MOL0     C22591   9.381   4.702  10.809 -0.4897  0.1183 -0.7753
  168MOL0     O22592   9.205   4.849  10.569  0.3386 -0.7613  0.2747
  168MOL0     C22593   8.945   4.989  10.593  0.2277  0.7598 -0.3688
  168MOL0     C22594   8.810   5.020  10.618  0.9800 -0.5883 -0.4360
  168MOL0     N22595   8.011   5.100  10.634  0.3693  0.8640  0.8000
  168MOL0     N22596   7.908   5.128  10.560  0.3322 -0.4940 -0.5647
  168MOL0     C22597   7.736   5.326  11.002 -0.6225 -0.2280 -0.2590
  168MOL0     C22598   7.855   5.294  11.053  0.1458  0.8468 -0.6880
  168MOL0     C22599   8.262   5.286  11.112  0.3562  0.7107  0.1130
  168MOL0     C22600   8.232   5.154  11.151 -0.1550  0.9058  0.3627
  168MOL0     C22601   8.333   5.064  11.193  0.1885 -0.5551  0.4794
  168MOL0     C22602   8.467   5.108  11.192 -0.8242  0.0847 -0.6621
  168MOL0     O22603   8.571   5.028  11.239  0.3780 -0.2515 -0.5046
  168MOL0     C22604   8.535   4.896  11.293 -0.9189 -0.8364  0.4644
  168MOL0     C22605   8.650   4.792  11.290 -0.9181  0.0588  0.4639
  168MOL0     C22606   8.591   4.652  11.326 -0.0669 -0.1697 -0.1041
  168MOL0     C22607   8.686   4.530  11.317  0.4140 -0.8739 -0.1138
  168MOL0     C22608   8.816   4.559  11.371 -0.6332 -1.2038  0.1635
  168MOL0     C22609   8.934   4.573  11.418 -0.3466 -0.2265  0.4331
  168MOL0     C22610   8.496   5.239  11.159  0.1784 -0.0296  0.0998
  168MOL0     C22611   8.394   5.330  11.116 -0.1208 -0.1397 -0.2432
  168MOL0     C22612   8.437   5.476  11.097  0.0723 -0.2234 -0.0839
  168MOL0     H22613   7.933   5.590  11.201 -2.0194  2.4991  0.3957
  168MOL0     H22614   7.740   5.658  11.088  1.1180  1.4414  1.2164
  168MOL0     H22615   7.551   5.695  10.960  0.1572  0.2793 -0.4150
  168MOL0     H22616   7.624   5.621  10.821  1.1330  0.9504  0.9662
  168MOL0     H22617   7.380   5.724  10.814 -0.9999 -0.8626 -1.9888
  168MOL0     H22618   7.332   5.571  10.901 -1.0018  0.1351 -0.0717
  168MOL0     H22619   7.490   5.571  10.638  0.0495  2.1406  0.1590
  168MOL0     H22620   7.308   5.601  10.647  1.2705  2.0264 -1.4088
  168MOL0     H22621   7.444   5.363  10.793  2.2986 -0.1545 -1.6533
  168MOL0     H22622   7.275   5.373  10.763 -0.8844 -1.1844 -1.9830
  168MOL0     H22623   7.377   5.203  10.628 -1.7186  0.4780  3.0162
  168MOL0     H22624   7.308   5.320  10.532  1.4052  0.5726  0.2653
  168MOL0     H22625   7.517   5.231  10.440  1.8804 -0.4820  0.3787
  168MOL0     H22626   7.513   5.402  10.452 -1.0501 -0.6731 -0.8856
  168MOL0     H22627   7.651   5.199  10.639  1.6296 -1.6518 -3.4535
  168MOL0     H22628   7.636   5.365  10.688  1.3017  0.5186 -0.8302
  168MOL0     H22629   7.747   5.308  10.419 -3.5978 -0.4560  1.6899
  168MOL0     H22630   7.769   5.443  10.539 -0.0657  0.1774  2.4749
  168MOL0     H22631   7.981   5.426  10.665 -3.1954  0.8262 -2.4324
  168MOL0     H22632   8.231   5.340  10.742  2.0010 -0.5790 -3.8806
  168MOL0     H22633   8.188   5.200  10.841  0.9396 -1.7657 -0.5270
  168MOL0     H22634   8.268   5.058  10.644 -0.1178  0.3097 -1.1015
  168MOL0     H22635   8.315   5.209  10.564  1.9064  1.5739  0.3664
  168MOL0     H22636   8.414   5.129  10.850 -1.9796  0.8795  0.6081
  168MOL0     H22637   8.451   5.273  10.783 -0.2548  0.1869 -0.2395
  168MOL0     H22638   8.584   5.183  10.604 -1.3112 -1.0137 -0.8936
  168MOL0     H22639   8.530   5.017  10.626 -1.7973  0.1317 -1.3511
  168MOL0     H22640   8.817   4.996  10.955  1.8962 -0.1342  0.3790
  168MOL0     H22641   9.049   4.929  10.914 -0.3373 -0.4888  0.3195
  168MOL0     H22642   9.506   4.993  10.702 -1.6284 -0.0570 -0.6655
  168MOL0     H22643   9.709   4.854  10.676  0.2407  1.4591  3.0742
  168MOL0     H22644   9.731   4.424  10.808 -0.2007  1.1626  0.4668
  168MOL0     H22645   9.627   4.428  10.664  0.8182  1.2924 -2.7692
  168MOL0     H22646   9.837   4.300  10.629  0.2105 -0.3786  0.4339
  168MOL0     H22647   9.841   4.449  10.529  1.5662  1.3738  0.9028
  168MOL0     H22648   9.998   4.542  10.622  0.8315 -0.1502  0.7982
  168MOL0     H22649   9.961   4.488  10.793 -2.0962 -3.2025  1.1107
  168MOL0     H22650  10.045   4.265  10.753  0.0758 -0.4797 -0.3255
  168MOL0     H22651  10.175   4.391  10.731 -0.4730  0.7921  1.2049
  168MOL0     H22652  10.119   4.386  10.500 -1.2464 -1.6350 -1.0615
  168MOL0     H22653  10.044   4.224  10.527 -0.2820  0.6641 -0.3213
  168MOL0     H22654  10.297   4.210  10.456 -2.3531 -0.2264 -1.7922
  168MOL0     H22655  10.330   4.311  10.594 -0.5147 -0.1331  0.5614
  168MOL0     H22656  10.182   4.046  10.641 -0.1648 -0.2872 -2.2313
  168MOL0     H22657  10.271   4.141  10.759  1.6610  0.2507 -0.3239
  168MOL0     H22658  10.478   4.089  10.634 -1.0365  2.2072 -1.2532
  168MOL0     H22659  10.391   3.946  10.702  0.6249 -2.1676 -2.2468
  168MOL0     H22660   9.474   4.513  10.820 -0.6415 -0.4809 -0.2655
  168MOL0     H22661   9.294   4.654  10.852 -1.2808  3.4041  1.6549
  168MOL0     H22662   8.994   5.007  10.497  1.2752  1.2081  0.2336
  168MOL0     H22663   8.751   5.065  10.539  2.8021  0.6541 -1.1674
  168MOL0     H22664   7.673   5.263  10.941  0.2948  0.2924 -1.8125
  168MOL0     H22665   7.904   5.198  11.049 -1.1720 -0.1394  2.6467
  168MOL0     H22666   8.130   5.117  11.158  0.4066 -0.5807  1.2281
  168MOL0     H22667   8.292   4.971  11.231 -2.4953  0.1394 -0.4438
  168MOL0     H22668   8.451   4.844  11.246 -0.6908  0.9366 -2.0901
  168MOL0     H22669   8.494   4.920  11.392 -1.1882  0.2318  0.1060
  168MOL0     H22670   8.735   4.819  11.353 -1.4849  2.4345  0.3111
  168MOL0     H22671   8.690   4.804  11.189 -0.4535  0.0595  0.6453
  168MOL0     H22672   8.519   4.637  11.245  0.7612  2.4067 -1.4298
  168MOL0     H22673   8.538   4.655  11.421 -1.6575 -0.9615 -0.9329
  168MOL0     H22674   8.645   4.449  11.377 -0.5355 -0.3855 -0.0895
  168MOL0     H22675   8.704   4.489  11.217  0.7528  0.0654 -0.4472
  168MOL0     H22676   9.030   4.587  11.463 -0.4724  0.6640  0.4479
  168MOL0     H22677   8.592   5.288  11.173 -0.8623  1.3240  3.3465
  168MOL0     H22678   8.460   5.506  10.994  2.3335 -1.7319 -0.0851
  168MOL0     H22679   8.347   5.530  11.128  1.2242  0.3043  2.5396
  168MOL0     H22680   8.509   5.509  11.171  0.5918 -0.7206 -0.3640
  169MOL0     O22681  11.073   3.185   3.008 -0.1730  0.0439  1.0052
  169MOL0     C22682  11.096   3.238   2.894 -0.6070  0.6132  0.3479
  169MOL0     O22683  11.226   3.261   2.848 -0.6240 -0.2673  0.4059
  169MOL0     C22684  11.339   3.207   2.906 -0.6766  0.3311 -0.7126
  169MOL0     C22685  11.381   3.075   2.892  0.6139  0.7128 -0.8632
  169MOL0     C22686  11.497   3.025   2.949 -1.6230 -0.4033  0.5224
  169MOL0     C22687  11.576   3.113   3.026 -0.1220  1.1602  0.9361
  169MOL0     O22688  11.690   3.064   3.081 -0.0702 -0.1035 -0.0735
  169MOL0     C22689  11.786   2.990   3.006 -0.9050  0.2272 -0.3018
  169MOL0     C22690  11.892   2.927   3.098  0.6044  0.5001 -0.1253
  169MOL0     C22691  12.006   2.867   3.008  0.4357 -0.7366  0.6306
  169MOL0     C22692  12.119   2.811   3.103  0.6215  0.2650 -0.1463
  169MOL0     C22693  12.255   2.786   3.035  0.0400 -0.3597 -0.2216
  169MOL0     C22694  12.344   2.696   3.120 -0.9450  0.6251 -0.0211
  169MOL0     C22695  12.470   2.673   3.036  0.0821 -0.1194  0.3717
  169MOL0     C22696  12.570   2.572   3.099  0.8353 -0.4256  0.0506
  169MOL0     N22697  12.699   2.578   3.026 -0.1819  0.4472 -0.3671
  169MOL0     C22698  12.792   2.682   3.034  0.1506 -0.0575 -0.0603
  169MOL0     C22699  12.899   2.637   2.964 -0.1095 -0.0130  0.4105
  169MOL0     C22700  13.017   2.720   2.933 -0.2494 -0.3008 -0.0034
  169MOL0     C22701  13.147   2.682   3.003 -0.1922 -0.1067 -0.2072
  169MOL0     C22702  13.274   2.677   2.917 -0.3187  0.5071 -0.5137
  169MOL0     C22703  13.404   2.651   3.003 -0.8112 -0.3572 -0.3459
  169MOL0     O22704  13.504   2.609   2.905 -0.7376  0.4218  0.4492
  169MOL0     C22705  13.633   2.596   2.950 -0.5523 -0.0520 -0.3265
  169MOL0     C22706  13.735   2.598   2.852  0.4398  0.8410 -0.0731
  169MOL0     C22707  13.868   2.587   2.889  0.2697  0.6183 -0.0248
  169MOL0     C22708  13.907   2.589   3.024  0.6913  0.2214 -0.6588
  169MOL0     C22709  14.050   2.601   3.064 -0.0758 -0.5608  0.2557
  169MOL0     O22710  14.130   2.631   2.959 -0.8407 -0.1748 -0.7584
  169MOL0     C22711  14.256   2.651   3.002 -0.0691 -0.4231  0.1361
  169MOL0     C22712  14.299   2.781   3.026 -0.0517 -0.4647  0.1808
  169MOL0     C22713  14.428   2.807   3.065  0.3648 -0.7338  0.2805
  169MOL0     C22714  14.520   2.706   3.086  0.8169 -0.5745 -0.1385
  169MOL0     O22715  14.652   2.741   3.105  0.4374 -0.2199 -0.2122
  169MOL0     C22716  14.688   2.872   3.147 -0.3329  0.6511 -0.3887
  169MOL0     C22717  14.839   2.889   3.145  0.5617  0.2317 -0.2866
  169MOL0     C22718  14.906   2.829   3.012 -0.1432  0.1678 -0.2274
  169MOL0     C22719  14.835   2.845   2.879 -0.0432 -0.2109  0.8257
  169MOL0     C22720  14.925   2.837   2.753 -0.2573 -0.0006 -0.8051
  169MOL0     C22721  14.990   2.700   2.732 -1.1052  0.4787  0.0485
  169MOL0     C22722  15.051   2.687   2.593  0.2859 -0.0949 -0.0699
  169MOL0     C22723  15.124   2.815   2.556  0.0261  0.0512 -0.9190
  169MOL0    Cl22724  15.238   2.772   2.425  0.4734 -0.1010 -0.4281
  169MOL0     C22725  14.481   2.573   3.064 -0.1682  0.8364 -0.3651
  169MOL0     C22726  14.347   2.543   3.032 -0.8329 -0.6700 -0.1529
  169MOL0     O22727  14.087   2.605   3.185  0.2723  0.3852  0.0959
  169MOL0     C22728  13.807   2.584   3.128  0.5351  0.4799 -0.2106
  169MOL0     C22729  13.675   2.578   3.085  0.3863  0.9636  0.1443
  169MOL0     N22730  12.874   2.514   2.916  0.4526  0.0228 -0.2360
  169MOL0     N22731  12.755   2.477   2.948 -0.0056  0.1803 -0.8026
  169MOL0     C22732  11.536   3.243   3.046 -0.3913  0.7961  0.4851
  169MOL0     C22733  11.420   3.292   2.984 -0.1568  0.4660 -0.8537
  169MOL0     C22734  10.987   3.282   2.805 -0.0824  0.1407  0.4461
  169MOL0     C22735  11.020   3.350   2.678 -0.2368  0.7128 -0.4833
  169MOL0     C22736  10.929   3.365   2.578 -0.1537  0.2862  0.4047
  169MOL0     C22737  10.796   3.322   2.592 -0.8410  0.3708  0.1216
  169MOL0     O22738  10.690   3.343   2.509  0.3187 -0.4726  0.5732
  169MOL0     C22739  10.687   3.464   2.431  0.3086  0.0483 -0.1758
  169MOL0     C22740  10.701   3.592   2.510 -0.1735 -0.0742  0.8013
  169MOL0     C22741  10.690   3.713   2.432  1.0181 -0.3634  0.4952
  169MOL0     C22742  10.816   3.738   2.343  0.3645  0.7973  0.0715
  169MOL0     C22743  10.939   3.745   2.416  0.1434  0.0771 -1.0320
  169MOL0     C22744  11.037   3.756   2.487 -0.0204  0.3364  0.4449
  169MOL0     C22745  10.762   3.266   2.716 -0.3985 -0.1790 -0.0491
  169MOL0     C22746  10.855   3.238   2.822  0.3874 -0.5100  0.3150
  169MOL0     C22747  10.797   3.160   2.942 -0.1946 -0.4785  0.2369
  169MOL0     H22748  11.302   3.010   2.853 -0.7764 -0.0847  2.8976
  169MOL0     H22749  11.524   2.920   2.941 -0.2418 -0.2090  2.1410
  169MOL0     H22750  11.747   2.909   2.944  2.2846 -1.3811 -0.3875
  169MOL0     H22751  11.840   3.057   2.939  0.6767 -1.1673 -0.4758
  169MOL0     H22752  11.848   2.843   3.153  0.3692  0.5065 -0.3022
  169MOL0     H22753  11.931   2.991   3.177 -1.1920 -0.6623  1.7957
  169MOL0     H22754  12.043   2.944   2.940  0.6416  0.2864  1.8496
  169MOL0     H22755  11.975   2.780   2.949  2.7350 -1.4599  0.4217
  169MOL0     H22756  12.138   2.877   3.189 -1.0393 -1.7844  1.9320
  169MOL0     H22757  12.074   2.717   3.135  1.2939  0.1858  0.6162
  169MOL0     H22758  12.238   2.747   2.935  3.0751 -0.3656 -0.8026
  169MOL0     H22759  12.305   2.882   3.021  0.5654  0.3322  4.6217
  169MOL0     H22760  12.371   2.755   3.208 -0.6321 -0.1406  0.4037
  169MOL0     H22761  12.289   2.604   3.142 -0.7737  0.3125 -0.8458
  169MOL0     H22762  12.527   2.767   3.034  1.9738 -1.1569 -3.4040
  169MOL0     H22763  12.442   2.647   2.934 -1.0231  1.1217  0.3360
  169MOL0     H22764  12.581   2.605   3.202 -2.1165  2.0506 -0.2788
  169MOL0     H22765  12.517   2.476   3.093 -0.8378  0.5622 -2.3891
  169MOL0     H22766  12.780   2.785   3.064 -2.5388 -0.9812  2.4723
  169MOL0     H22767  13.019   2.702   2.825 -0.4471 -2.8822  0.3450
  169MOL0     H22768  12.997   2.827   2.941 -0.1320 -0.3590  1.3435
  169MOL0     H22769  13.160   2.761   3.078 -0.4024 -0.1422 -0.1309
  169MOL0     H22770  13.142   2.586   3.055 -0.2670 -0.2947 -0.5587
  169MOL0     H22771  13.287   2.769   2.859  2.5059 -0.2360 -1.2500
  169MOL0     H22772  13.260   2.597   2.843  1.6933  0.8162 -1.2812
  169MOL0     H22773  13.392   2.562   3.066  0.0408 -0.4171 -0.2606
  169MOL0     H22774  13.431   2.745   3.052 -0.1144 -0.4519 -0.5412
  169MOL0     H22775  13.701   2.617   2.750  0.6563  4.1174  0.3460
  169MOL0     H22776  13.943   2.581   2.810  3.7971  3.3185  2.7986
  169MOL0     H22777  14.235   2.869   3.017 -0.8075 -1.1855 -2.0715
  169MOL0     H22778  14.455   2.911   3.079  2.0317 -1.0384 -0.4169
  169MOL0     H22779  14.655   2.948   3.075  2.2423  1.4703 -0.8055
  169MOL0     H22780  14.664   2.904   3.249  4.8956 -1.3267  1.8283
  169MOL0     H22781  14.862   2.995   3.155  3.0473 -0.3661  1.3665
  169MOL0     H22782  14.881   2.835   3.231 -2.1726 -2.3635 -0.4223
  169MOL0     H22783  15.000   2.884   3.007 -0.5901  1.1632  1.3014
  169MOL0     H22784  14.933   2.726   3.032 -1.0568 -0.5529 -2.3963
  169MOL0     H22785  14.780   2.940   2.883 -0.7694 -0.6817  4.3280
  169MOL0     H22786  14.755   2.773   2.859  0.7416 -0.6659 -0.8552
  169MOL0     H22787  14.998   2.916   2.773 -1.3055  0.1533  3.4751
  169MOL0     H22788  14.862   2.874   2.672 -3.7615  0.7665  1.9773
  169MOL0     H22789  15.081   2.696   2.792  0.4535  0.9118 -2.1510
  169MOL0     H22790  14.921   2.617   2.743  0.5483 -0.7467  1.9090
  169MOL0     H22791  14.976   2.682   2.513  1.4601 -0.2286 -1.1889
  169MOL0     H22792  15.126   2.608   2.589  1.5695  1.1352 -1.5496
  169MOL0     H22793  15.062   2.897   2.519  0.1455  0.2970 -0.5845
  169MOL0     H22794  15.172   2.861   2.643  0.2992  0.5820 -1.3422
  169MOL0     H22795  14.553   2.496   3.090 -0.9559  0.8795  2.2244
  169MOL0     H22796  14.309   2.445   3.005  0.0883 -0.7653 -1.1833
  169MOL0     H22797  13.828   2.587   3.235  2.9514  1.5532 -0.6590
  169MOL0     H22798  13.599   2.581   3.162 -1.4678 -2.0242 -1.3768
  169MOL0     H22799  11.605   3.313   3.092 -1.9861  2.6226  0.2492
  169MOL0     H22800  11.384   3.394   2.997 -1.7322  0.0184 -1.5708
  169MOL0     H22801  11.121   3.384   2.660  0.2192 -1.0356 -1.4223
  169MOL0     H22802  10.955   3.419   2.487  1.5112  1.3084  1.4315
  169MOL0     H22803  10.586   3.465   2.390  0.4342  0.9992 -0.4850
  169MOL0     H22804  10.762   3.463   2.351  0.8310 -0.9379  0.3059
  169MOL0     H22805  10.797   3.590   2.563  0.2045 -2.4549  0.1717
  169MOL0     H22806  10.616   3.584   2.578  0.1131 -0.5208  1.1161
  169MOL0     H22807  10.675   3.793   2.504  3.2978 -1.9317  2.9079
  169MOL0     H22808  10.611   3.710   2.356  0.7686 -0.8535  0.7728
  169MOL0     H22809  10.825   3.676   2.254  0.6866 -0.3717  0.8925
  169MOL0     H22810  10.805   3.841   2.307 -0.4573  0.7385  0.1386
  169MOL0     H22811  11.122   3.782   2.546 -0.4265 -0.5234  1.4353
  169MOL0     H22812  10.657   3.244   2.733 -0.6337  0.9071 -0.0113
  169MOL0     H22813  10.713   3.098   2.909  0.7412 -2.6732  1.7709
  169MOL0     H22814  10.869   3.087   2.979 -3.5902 -2.8141  2.8161
  169MOL0     H22815  10.770   3.229   3.023  0.7192  1.2956 -0.8809
  170MOL0     O22816   8.845   3.902   7.975  0.3276 -0.3914 -0.4123
  170MOL0     C22817   8.800   3.842   7.882 -0.1529  0.7911  0.6005
  170MOL0     O22818   8.875   3.781   7.787 -0.0830  0.4877 -0.0982
  170MOL0     C22819   8.992   3.720   7.835 -0.3142  0.1265 -0.1877
  170MOL0     C22820   9.008   3.642   7.950  0.0828 -0.5488 -0.4184
  170MOL0     C22821   9.135   3.600   7.993  0.5683 -0.1734  0.6146
  170MOL0     C22822   9.249   3.646   7.936 -0.9381 -1.1729  0.1064
  170MOL0     O22823   9.371   3.613   8.004 -0.6154  0.8423 -0.4789
  170MOL0     C22824   9.485   3.696   7.969 -0.6136 -0.6657  0.3983
  170MOL0     C22825   9.610   3.652   8.042  0.0896  0.0303 -0.2901
  170MOL0     C22826   9.729   3.741   8.024 -0.3170  0.3273  0.6458
  170MOL0     C22827   9.834   3.702   8.123  0.0807 -0.1236  0.8984
  170MOL0     C22828   9.944   3.807   8.101 -0.1293  0.9536  1.2897
  170MOL0     C22829  10.061   3.809   8.200 -0.3140  0.3450 -0.1138
  170MOL0     C22830  10.161   3.915   8.162  0.1788 -0.2968 -0.0591
  170MOL0     C22831  10.239   3.990   8.273 -0.2350  0.2890  0.5113
  170MOL0     N22832  10.311   3.906   8.364 -0.0538  0.0593 -0.3029
  170MOL0     C22833  10.427   3.837   8.336  0.5132  0.2519  0.3455
  170MOL0     C22834  10.460   3.781   8.456 -0.1383 -0.6865 -0.3202
  170MOL0     C22835  10.590   3.722   8.485 -0.1612 -0.5487  1.3156
  170MOL0     C22836  10.699   3.808   8.440 -0.1054  0.9028 -0.3881
  170MOL0     C22837  10.836   3.737   8.457  0.7351 -0.0997 -0.2988
  170MOL0     C22838  10.948   3.836   8.421  0.3810  0.0247 -0.3990
  170MOL0     O22839  11.062   3.778   8.482 -0.4957 -0.1597  0.2402
  170MOL0     C22840  11.179   3.853   8.488  0.7966  0.6319  0.1655
  170MOL0     C22841  11.279   3.814   8.574 -0.2690 -0.1328  0.0665
  170MOL0     C22842  11.405   3.876   8.572 -0.3717 -0.2272 -0.1067
  170MOL0     C22843  11.428   3.976   8.480 -0.4941  0.8221  0.2377
  170MOL0     C22844  11.563   4.040   8.469 -0.4336 -0.2297 -0.2821
  170MOL0     O22845  11.563   4.160   8.400 -0.0473 -0.6102 -0.2753
  170MOL0     C22846  11.686   4.222   8.396 -0.6153  0.3492  1.0266
  170MOL0     C22847  11.787   4.169   8.305  0.2767 -0.0561 -0.5995
  170MOL0     C22848  11.922   4.227   8.311  0.3782 -0.4185 -0.4283
  170MOL0     C22849  11.947   4.344   8.397  0.1667  0.2140  0.4332
  170MOL0     O22850  12.070   4.391   8.414 -0.2986  0.0017 -0.0301
  170MOL0     C22851  12.106   4.432   8.549  0.3479 -0.4921  0.2707
  170MOL0     C22852  12.254   4.435   8.546 -0.2637  0.0823 -0.1417
  170MOL0     C22853  12.314   4.482   8.681 -0.0914 -0.4644  0.3422
  170MOL0     C22854  12.459   4.533   8.662  0.7011  0.1402 -0.1017
  170MOL0     C22855  12.521   4.581   8.803  0.0419  0.1063 -0.3174
  170MOL0     C22856  12.672   4.581   8.805  0.5895  0.0378  0.2762
  170MOL0     C22857  12.715   4.569   8.948  0.4537 -0.5576  0.0448
  170MOL0     C22858  12.858   4.580   8.965 -0.6295 -0.0214  0.1941
  170MOL0    Cl22859  12.916   4.749   8.951 -0.2456  0.5715 -0.2021
  170MOL0     C22860  11.837   4.388   8.480  0.5594  0.4229 -0.3422
  170MOL0     C22861  11.712   4.337   8.467  0.0998 -0.0229  0.0350
  170MOL0     O22862  11.666   3.977   8.503  0.3729 -0.8381  0.2421
  170MOL0     C22863  11.327   4.005   8.391  0.3416  0.1501  0.4976
  170MOL0     C22864  11.200   3.953   8.395  0.3753 -0.0072 -0.1520
  170MOL0     N22865  10.369   3.819   8.553  0.8846 -0.0797 -0.4718
  170MOL0     N22866  10.279   3.896   8.495  0.4208 -0.7405  0.0805
  170MOL0     C22867   9.236   3.722   7.818 -0.5112  1.1459  0.0149
  170MOL0     C22868   9.110   3.748   7.765  0.4234  0.2909  0.0791
  170MOL0     C22869   8.650   3.837   7.866 -1.0457  0.1808 -0.2089
  170MOL0     C22870   8.573   3.855   7.988  0.0485  0.3217  0.4437
  170MOL0     C22871   8.434   3.849   7.990  0.3138 -0.6937  0.0850
  170MOL0     C22872   8.370   3.817   7.868  0.3637 -0.6686 -0.2246
  170MOL0     O22873   8.232   3.809   7.846 -0.3179 -0.1068 -1.0173
  170MOL0     C22874   8.150   3.813   7.960  0.2281 -0.2077  0.8074
  170MOL0     C22875   8.013   3.769   7.924  0.0359  0.1258 -0.3789
  170MOL0     C22876   8.008   3.661   7.809  0.1017 -0.0069 -0.4462
  170MOL0     C22877   7.878   3.592   7.818 -0.2148  0.3885  0.8989
  170MOL0     C22878   7.776   3.679   7.769 -0.1484  0.1241  0.2280
  170MOL0     C22879   7.689   3.753   7.728 -0.2701 -0.3323  0.5412
  170MOL0     C22880   8.442   3.802   7.750 -0.0935 -0.5716  0.6867
  170MOL0     C22881   8.577   3.808   7.745 -0.1902 -0.3391  0.0410
  170MOL0     C22882   8.648   3.807   7.606  0.4745 -0.1215 -0.1613
  170MOL0     H22883   8.923   3.613   8.012  1.0423 -0.8567  0.8016
  170MOL0     H22884   9.137   3.538   8.083  0.2252  0.0005  0.7407
  170MOL0     H22885   9.517   3.685   7.865 -0.6349 -2.5177  0.5537
  170MOL0     H22886   9.460   3.799   7.998 -0.9124 -0.6750  0.1737
  170MOL0     H22887   9.629   3.550   8.005 -1.6194  0.0724 -1.4276
  170MOL0     H22888   9.590   3.660   8.149 -1.3708  2.2866 -0.6663
  170MOL0     H22889   9.695   3.845   8.030 -0.5580  0.2142  1.3397
  170MOL0     H22890   9.774   3.722   7.926 -0.1609 -2.0014  1.1247
  170MOL0     H22891   9.795   3.704   8.226 -2.6114 -4.5935  0.2128
  170MOL0     H22892   9.856   3.596   8.106 -2.0691 -0.4140 -0.4343
  170MOL0     H22893   9.982   3.774   8.004 -0.2413  1.7272  0.9729
  170MOL0     H22894   9.909   3.910   8.089 -0.4523  0.6718 -0.4917
  170MOL0     H22895  10.015   3.846   8.292  0.7064  1.3786 -0.0008
  170MOL0     H22896  10.098   3.708   8.220  0.7883 -0.2012 -4.0650
  170MOL0     H22897  10.109   3.998   8.113 -1.4996  0.5359  2.8704
  170MOL0     H22898  10.236   3.883   8.089  0.1378 -2.1152  0.6546
  170MOL0     H22899  10.306   4.055   8.215 -0.9066 -0.6728 -1.4398
  170MOL0     H22900  10.164   4.050   8.326 -1.2655  0.6521 -1.2556
  170MOL0     H22901  10.484   3.837   8.244 -0.0537  0.1940 -0.0118
  170MOL0     H22902  10.607   3.697   8.590  0.7722 -1.1423  1.0413
  170MOL0     H22903  10.590   3.629   8.427  1.7630 -0.1806  0.6279
  170MOL0     H22904  10.696   3.847   8.338  3.2880  0.0686 -0.9532
  170MOL0     H22905  10.707   3.893   8.509 -0.0033  1.4746 -1.0963
  170MOL0     H22906  10.841   3.658   8.381 -2.1944 -1.3559  0.6575
  170MOL0     H22907  10.850   3.701   8.560  0.6216  1.8574  0.4436
  170MOL0     H22908  10.928   3.933   8.468 -0.4635 -1.0018  1.4732
  170MOL0     H22909  10.960   3.839   8.312  1.0836 -1.5645 -0.3951
  170MOL0     H22910  11.261   3.724   8.633  0.7487  0.0985  0.7594
  170MOL0     H22911  11.484   3.841   8.638 -1.0320 -1.5337  0.0312
  170MOL0     H22912  11.764   4.077   8.252 -3.3806 -0.9432  2.0804
  170MOL0     H22913  12.009   4.192   8.257 -0.3528 -1.0872 -1.2034
  170MOL0     H22914  12.059   4.530   8.560 -0.4909 -0.9138  0.5078
  170MOL0     H22915  12.067   4.368   8.628 -0.9657 -0.7286 -0.5423
  170MOL0     H22916  12.300   4.340   8.518  1.8749  0.5392  1.5342
  170MOL0     H22917  12.285   4.514   8.477 -1.6394  0.2532 -0.6048
  170MOL0     H22918  12.258   4.572   8.706  1.3816  0.6437 -0.1727
  170MOL0     H22919  12.306   4.410   8.764  3.1368 -1.2983  0.0752
  170MOL0     H22920  12.466   4.621   8.597  0.2972  0.5377  0.3770
  170MOL0     H22921  12.512   4.451   8.615  2.5084  0.3425  1.4665
  170MOL0     H22922  12.478   4.519   8.882  1.0948 -0.1297  0.0888
  170MOL0     H22923  12.477   4.680   8.817  0.8832  0.3165  0.9659
  170MOL0     H22924  12.700   4.487   8.757  0.7374 -0.5840  1.5324
  170MOL0     H22925  12.722   4.663   8.753 -0.5165  0.6552  0.1541
  170MOL0     H22926  12.672   4.476   8.987 -0.6488 -0.3480 -0.6016
  170MOL0     H22927  12.669   4.648   9.008  1.7518  0.0762  0.2319
  170MOL0     H22928  12.897   4.549   9.062 -0.2760 -2.5049 -0.6775
  170MOL0     H22929  12.903   4.518   8.886 -4.4427 -1.9366 -0.7279
  170MOL0     H22930  11.844   4.474   8.545 -1.7637 -0.3635  1.0489
  170MOL0     H22931  11.628   4.390   8.512  1.9673  2.0534  1.3069
  170MOL0     H22932  11.359   4.062   8.304  2.9052 -0.0893  1.2171
  170MOL0     H22933  11.134   3.985   8.316  1.3358 -3.9163 -2.8661
  170MOL0     H22934   9.321   3.760   7.761 -1.6183  0.6986 -2.0100
  170MOL0     H22935   9.095   3.807   7.675  1.1270  0.9064  0.3566
  170MOL0     H22936   8.622   3.874   8.083 -0.5729  2.9031  0.3274
  170MOL0     H22937   8.380   3.857   8.084 -0.1163 -0.5869 -0.1682
  170MOL0     H22938   8.154   3.914   8.002 -0.3625  0.5122 -0.7660
  170MOL0     H22939   8.185   3.747   8.040  0.0086  0.3462  1.3710
  170MOL0     H22940   7.954   3.852   7.885  1.7775  0.7944 -1.7593
  170MOL0     H22941   7.962   3.733   8.014  3.3343 -2.3147  0.7282
  170MOL0     H22942   8.081   3.581   7.830  1.2944  1.0443 -0.4468
  170MOL0     H22943   8.029   3.701   7.710  1.3796 -1.0748 -0.6370
  170MOL0     H22944   7.882   3.511   7.745  2.4810 -1.3667  2.7876
  170MOL0     H22945   7.852   3.543   7.913 -0.5141 -0.4166  0.4146
  170MOL0     H22946   7.632   3.836   7.691  2.5714  1.4971 -0.0657
  170MOL0     H22947   8.392   3.793   7.654  0.9884 -1.8739  0.2217
  170MOL0     H22948   8.568   3.809   7.531  2.2615  0.2136 -2.1827
  170MOL0     H22949   8.714   3.894   7.598  0.2170  0.4204  2.6087
  170MOL0     H22950   8.699   3.711   7.593 -1.8656 -1.6046  0.9856
  171MOL0     O22951   7.062   5.233  10.829  0.2515 -0.4561 -0.0427
  171MOL0     C22952   7.053   5.234  10.949 -0.8265  0.3848  0.2054
  171MOL0     O22953   7.131   5.159  11.033 -0.6093  0.1107 -0.3263
  171MOL0     C22954   7.251   5.106  10.994 -0.3880 -0.5492  0.3515
  171MOL0     C22955   7.301   5.078  10.865  1.3302 -0.7980 -0.3504
  171MOL0     C22956   7.435   5.042  10.845 -0.3899  0.9643  0.2193
  171MOL0     C22957   7.519   5.022  10.956 -0.5854  0.7912 -0.3892
  171MOL0     O22958   7.658   4.988  10.964 -0.4021  0.3872  0.4417
  171MOL0     C22959   7.741   4.969  10.853  0.0051 -0.5239 -0.4151
  171MOL0     C22960   7.870   4.884  10.881 -0.2468  1.2361 -0.1285
  171MOL0     C22961   7.924   4.883  11.024  0.3913  0.4174 -0.8258
  171MOL0     C22962   8.042   4.784  11.020  0.2415 -0.7540 -0.3246
  171MOL0     C22963   8.069   4.741  11.165 -0.2676  0.3419 -0.3189
  171MOL0     C22964   8.179   4.643  11.185 -0.6437  0.7204  1.3484
  171MOL0     C22965   8.207   4.615  11.328 -0.0618 -0.1391  0.3618
  171MOL0     C22966   8.091   4.606  11.427 -0.1850 -0.2756  0.8578
  171MOL0     N22967   8.140   4.589  11.563 -0.4840  0.1451 -0.3909
  171MOL0     C22968   8.196   4.690  11.644 -0.0995 -0.0002 -0.0879
  171MOL0     C22969   8.186   4.636  11.767 -0.2510  0.4684 -0.4502
  171MOL0     C22970   8.240   4.692  11.896 -0.0201  0.6513 -0.6363
  171MOL0     C22971   8.386   4.636  11.912  0.0188 -0.7759  0.1972
  171MOL0     C22972   8.453   4.705  12.030 -0.3557 -0.7022  0.0034
  171MOL0     C22973   8.589   4.647  12.056 -0.3944  0.3475  0.1541
  171MOL0     O22974   8.676   4.640  11.946 -0.6767  0.0651 -0.1119
  171MOL0     C22975   8.796   4.570  11.969  0.3309  0.6391  0.6173
  171MOL0     C22976   8.829   4.490  12.080 -0.1068 -0.3217 -0.3736
  171MOL0     C22977   8.947   4.429  12.090 -0.6561 -0.2097 -0.4136
  171MOL0     C22978   9.032   4.420  11.982 -0.3264 -0.3638  0.0828
  171MOL0     C22979   9.145   4.325  11.983 -0.3165  1.0743 -0.2157
  171MOL0     O22980   9.203   4.300  11.867 -0.7651 -0.4056  0.1628
  171MOL0     C22981   9.314   4.215  11.868  0.7833 -0.2069 -0.6452
  171MOL0     C22982   9.293   4.079  11.848  0.0875 -0.1565 -0.1818
  171MOL0     C22983   9.399   3.993  11.812  0.5161 -0.0158 -0.4732
  171MOL0     C22984   9.531   4.032  11.820 -0.5702 -0.3601  1.6753
  171MOL0     O22985   9.633   3.940  11.814  0.1693  0.1264  0.2808
  171MOL0     C22986   9.768   3.990  11.810  0.1073  0.5851  0.4325
  171MOL0     C22987   9.874   3.876  11.793  0.6960 -0.0911 -0.3993
  171MOL0     C22988   9.871   3.766  11.904  0.4141 -0.1493  0.4037
  171MOL0     C22989   9.876   3.815  12.042  0.0141 -0.2320  0.5519
  171MOL0     C22990   9.863   3.703  12.148 -0.3520 -0.0635  0.3199
  171MOL0     C22991   9.943   3.570  12.139 -0.0182  0.1968  0.9956
  171MOL0     C22992   9.947   3.487  12.269  0.0730 -0.7185  0.6969
  171MOL0     C22993  10.033   3.368  12.224 -0.0672 -0.1226 -0.7043
  171MOL0    Cl22994  10.009   3.238  12.329  0.0962 -0.2786 -0.2465
  171MOL0     C22995   9.558   4.169  11.856  0.0340  0.8678  0.3380
  171MOL0     C22996   9.450   4.260  11.875  0.3450  0.4085 -0.3421
  171MOL0     O22997   9.179   4.272  12.091  0.4007 -0.5210  0.3894
  171MOL0     C22998   9.003   4.486  11.863  0.1017 -0.2546 -0.4265
  171MOL0     C22999   8.885   4.563  11.855 -0.4957 -0.3327 -0.2828
  171MOL0     N23000   8.139   4.505  11.755  0.0136  0.3083  0.1104
  171MOL0     N23001   8.110   4.481  11.634 -0.5806  0.0761  0.1643
  171MOL0     C23002   7.470   5.054  11.082  0.7704  0.4179 -0.3971
  171MOL0     C23003   7.337   5.090  11.104 -0.0817  0.0336  0.1608
  171MOL0     C23004   6.933   5.288  11.001 -0.5739  0.2793  1.3234
  171MOL0     C23005   6.848   5.205  11.069  0.3973 -0.1493 -0.7899
  171MOL0     C23006   6.734   5.261  11.129  0.3082  0.9760  0.1173
  171MOL0     C23007   6.707   5.396  11.120 -0.0865 -0.4260  0.0789
  171MOL0     O23008   6.588   5.438  11.183  0.5776 -0.2495 -0.4746
  171MOL0     C23009   6.564   5.581  11.185  0.3808 -0.3672 -1.1052
  171MOL0     C23010   6.480   5.625  11.062 -0.5261  0.4049 -0.2686
  171MOL0     C23011   6.353   5.544  11.053 -0.1873 -0.2497  0.3139
  171MOL0     C23012   6.287   5.587  10.919 -0.3059  0.4353  0.0142
  171MOL0     C23013   6.165   5.518  10.894 -0.1412  0.9068 -0.3325
  171MOL0     C23014   6.053   5.462  10.867  0.5815 -0.1309 -0.6119
  171MOL0     C23015   6.799   5.475  11.056  0.4511 -0.4339  0.4239
  171MOL0     C23016   6.911   5.425  10.991 -0.0610  0.3504 -0.7359
  171MOL0     C23017   7.014   5.516  10.941 -1.0476  0.4744  0.6067
  171MOL0     H23018   7.235   5.086  10.779  1.6827 -1.3913 -0.6815
  171MOL0     H23019   7.472   5.022  10.745 -0.3453 -3.1543  0.8822
  171MOL0     H23020   7.683   4.908  10.783  2.5081  0.6394 -3.8045
  171MOL0     H23021   7.764   5.065  10.804  2.0084  0.2988  1.9708
  171MOL0     H23022   7.948   4.935  10.823 -2.1845  1.0403 -3.1521
  171MOL0     H23023   7.866   4.786  10.831  1.1569  1.6390 -1.1066
  171MOL0     H23024   7.847   4.845  11.091  1.0279 -1.3490 -1.0359
  171MOL0     H23025   7.954   4.983  11.055 -0.1650 -0.1152  1.7100
  171MOL0     H23026   8.019   4.688  10.973 -1.7841 -2.0702  2.9833
  171MOL0     H23027   8.129   4.835  10.978 -0.6035  0.2016 -0.9771
  171MOL0     H23028   8.079   4.827  11.232  1.8919 -0.3939  0.3746
  171MOL0     H23029   7.979   4.693  11.204  0.9024  1.2275  3.9640
  171MOL0     H23030   8.153   4.548  11.137  1.6189  0.3547  0.7248
  171MOL0     H23031   8.268   4.679  11.132 -1.5803  1.6878  0.3700
  171MOL0     H23032   8.266   4.699  11.367 -1.1926  1.0927 -0.4841
  171MOL0     H23033   8.265   4.523  11.339 -0.2486 -0.0230  3.2989
  171MOL0     H23034   8.027   4.695  11.423  1.4027  0.8614 -2.4621
  171MOL0     H23035   8.033   4.524  11.383  1.3369  0.2012 -2.3241
  171MOL0     H23036   8.242   4.786  11.624 -1.7876  2.0147  4.4231
  171MOL0     H23037   8.239   4.801  11.900  0.8629  0.6092  1.5213
  171MOL0     H23038   8.172   4.656  11.974  0.7408  2.0145  0.7136
  171MOL0     H23039   8.375   4.529  11.932 -0.4444 -0.4366  1.8661
  171MOL0     H23040   8.448   4.655  11.823  1.5766 -4.4900  0.3077
  171MOL0     H23041   8.395   4.684  12.121  2.0647  1.0290  2.0529
  171MOL0     H23042   8.466   4.812  12.012  0.0964 -0.2915  2.4352
  171MOL0     H23043   8.566   4.542  12.080  0.3950 -0.0534 -0.7674
  171MOL0     H23044   8.636   4.687  12.147 -0.8764  2.3973 -0.4508
  171MOL0     H23045   8.759   4.482  12.162  1.2734 -2.5257  0.6786
  171MOL0     H23046   8.957   4.370  12.181 -1.4189  1.8938  1.1388
  171MOL0     H23047   9.189   4.047  11.836 -0.6865  2.0403  0.2470
  171MOL0     H23048   9.375   3.895  11.774 -3.4844 -0.1004  1.6583
  171MOL0     H23049   9.781   4.055  11.723  1.6181  2.7268  2.1542
  171MOL0     H23050   9.775   4.048  11.902  0.8395  0.9539  0.1580
  171MOL0     H23051   9.864   3.837  11.691  2.2932 -0.3925 -0.4666
  171MOL0     H23052   9.969   3.930  11.785 -0.7213  2.2462 -4.4278
  171MOL0     H23053   9.785   3.700  11.887  1.8465 -1.5849 -1.7589
  171MOL0     H23054   9.963   3.709  11.890  1.0781  0.7823  0.8403
  171MOL0     H23055   9.794   3.885  12.060 -0.0845 -0.0150 -0.6656
  171MOL0     H23056   9.963   3.880  12.061  0.1075 -0.4948  1.0367
  171MOL0     H23057   9.756   3.682  12.142 -1.6712  5.3931 -1.1178
  171MOL0     H23058   9.878   3.749  12.246 -1.5105 -0.0209  0.4808
  171MOL0     H23059   9.890   3.518  12.059  0.4104  1.8403 -0.4256
  171MOL0     H23060  10.042   3.598  12.099 -0.5780  0.7396 -0.0743
  171MOL0     H23061   9.846   3.455  12.296 -0.6968  1.8814  1.2603
  171MOL0     H23062   9.989   3.550  12.348 -0.4648  1.6241 -0.7642
  171MOL0     H23063  10.001   3.331  12.126  2.0800 -2.1091 -0.7395
  171MOL0     H23064  10.139   3.386  12.204 -0.4212  0.2446 -2.4148
  171MOL0     H23065   9.658   4.206  11.875  1.8891 -3.2404 -0.3008
  171MOL0     H23066   9.453   4.368  11.887 -0.3388  0.8485 -3.2588
  171MOL0     H23067   9.073   4.491  11.780  0.8221  1.6984  0.2481
  171MOL0     H23068   8.859   4.623  11.768  2.2851  1.3553 -0.0803
  171MOL0     H23069   7.534   5.035  11.167  2.5892  0.0167 -1.7890
  171MOL0     H23070   7.296   5.109  11.203 -0.0844  0.6933  0.0393
  171MOL0     H23071   6.870   5.098  11.072 -0.3772 -0.3223 -1.0482
  171MOL0     H23072   6.658   5.207  11.185  1.9854  0.5024  2.0436
  171MOL0     H23073   6.653   5.642  11.199  1.0578 -1.0186 -2.4104
  171MOL0     H23074   6.510   5.602  11.278  0.3983  0.5625 -1.2978
  171MOL0     H23075   6.539   5.611  10.970 -0.2686 -0.9424  0.0754
  171MOL0     H23076   6.455   5.731  11.073  0.3196  0.6038 -0.1933
  171MOL0     H23077   6.286   5.561  11.138 -0.5218 -3.6592  0.8608
  171MOL0     H23078   6.370   5.437  11.044 -1.5887 -0.3585 -1.5784
  171MOL0     H23079   6.275   5.695  10.920  1.4399  0.7916 -3.1830
  171MOL0     H23080   6.365   5.576  10.843  2.3163 -1.4622  2.7871
  171MOL0     H23081   5.977   5.395  10.832  1.5715 -2.0755  0.7628
  171MOL0     H23082   6.784   5.582  11.048 -0.4415 -0.6575 -1.8128
  171MOL0     H23083   7.039   5.486  10.838 -0.5064 -0.8694  1.1008
  171MOL0     H23084   6.976   5.619  10.936  1.4930  1.4383 -1.4353
  171MOL0     H23085   7.102   5.519  11.005 -1.9177  0.6665  1.8185
  172MOL0     O23086   0.428   0.868   3.192  0.1004  0.3755  0.4400
  172MOL0     C23087   0.389   0.758   3.232  1.0158  0.3952  0.9055
  172MOL0     O23088   0.415   0.698   3.352 -0.2601 -0.2324  0.4331
  172MOL0     C23089   0.454   0.780   3.453 -0.5786 -0.0689  0.8208
  172MOL0     C23090   0.581   0.781   3.501  0.9546 -0.0819 -0.5525
  172MOL0     C23091   0.605   0.848   3.620 -0.1188  0.7150  0.5880
  172MOL0     C23092   0.502   0.911   3.693 -0.5259 -0.1259  0.6519
  172MOL0     O23093   0.535   0.975   3.816 -0.1444 -0.4366 -0.1759
  172MOL0     C23094   0.431   1.045   3.877 -0.0956 -0.1842 -0.4724
  172MOL0     C23095   0.480   1.124   3.997  0.4120  0.2745  1.1999
  172MOL0     C23096   0.507   1.019   4.110 -0.4444  0.0833 -0.6907
  172MOL0     C23097   0.551   1.086   4.235 -0.0546 -0.4581 -0.7149
  172MOL0     C23098   0.576   0.986   4.350 -0.5744 -0.1849  1.1722
  172MOL0     C23099   0.590   1.061   4.483 -0.6574 -0.5389 -0.0291
  172MOL0     C23100   0.706   1.159   4.498 -0.8652  0.0803 -1.1024
  172MOL0     C23101   0.753   1.187   4.646 -0.3207  0.0553 -0.2269
  172MOL0     N23102   0.852   1.302   4.646  0.0923  0.8906  0.3224
  172MOL0     C23103   0.946   1.318   4.552 -0.2542  0.3694  0.2149
  172MOL0     C23104   1.020   1.427   4.593 -0.8480  0.2889  0.5877
  172MOL0     C23105   1.136   1.480   4.522  0.0789 -0.6007  0.0355
  172MOL0     C23106   1.269   1.413   4.555  0.0837  0.0716 -0.4993
  172MOL0     C23107   1.385   1.495   4.491 -0.2949  1.0620  0.7863
  172MOL0     C23108   1.528   1.448   4.541  0.5231  0.4202 -0.4561
  172MOL0     O23109   1.539   1.486   4.678  0.3602 -0.5867  0.1473
  172MOL0     C23110   1.657   1.453   4.749  0.2205 -0.0561  0.3835
  172MOL0     C23111   1.763   1.385   4.693 -0.0466  0.0070  0.2888
  172MOL0     C23112   1.876   1.386   4.768 -0.3156  0.4719  0.2436
  172MOL0     C23113   1.895   1.423   4.904  0.7172  0.2849  0.0926
  172MOL0     C23114   2.024   1.406   4.972  0.4471  0.8180 -0.2157
  172MOL0     O23115   2.136   1.367   4.904  0.4056  0.2107  0.2045
  172MOL0     C23116   2.248   1.339   4.977 -0.0288  0.1033  0.8601
  172MOL0     C23117   2.258   1.222   5.051 -0.0850  0.1162 -0.8460
  172MOL0     C23118   2.381   1.192   5.111 -0.7985  0.2995  0.1288
  172MOL0     C23119   2.501   1.275   5.085 -0.4167 -0.3499 -0.0265
  172MOL0     O23120   2.627   1.264   5.149  0.3481 -0.3729 -0.0286
  172MOL0     C23121   2.674   1.127   5.141  0.3890 -0.4248  0.3254
  172MOL0     C23122   2.825   1.127   5.154 -1.3598 -0.2063 -0.0826
  172MOL0     C23123   2.886   1.016   5.235  0.4012  0.4251 -0.0975
  172MOL0     C23124   2.855   0.876   5.180  0.6819 -0.1094 -0.1213
  172MOL0     C23125   2.903   0.763   5.277 -0.0560  0.6964  0.1273
  172MOL0     C23126   3.053   0.760   5.298  0.3931 -0.0624  0.5475
  172MOL0     C23127   3.125   0.697   5.175 -0.7083 -0.9740 -0.4419
  172MOL0     C23128   3.122   0.547   5.192  1.1202 -0.5853 -0.2236
  172MOL0    Cl23129   3.192   0.488   5.045 -0.3078  0.0108  0.2326
  172MOL0     C23130   2.482   1.394   5.001  0.4500 -0.2237  0.6565
  172MOL0     C23131   2.356   1.425   4.957 -0.4201  0.1821 -0.2017
  172MOL0     O23132   2.012   1.399   5.098  0.2526 -0.4972  0.2496
  172MOL0     C23133   1.779   1.485   4.964 -0.0374 -0.2607 -0.0915
  172MOL0     C23134   1.663   1.503   4.882 -0.5650  0.0528 -0.6402
  172MOL0     N23135   0.955   1.474   4.711  0.5369  0.1756 -0.0625
  172MOL0     N23136   0.858   1.400   4.738 -1.5169 -0.5634  0.2927
  172MOL0     C23137   0.367   0.897   3.645 -0.6934  0.0136 -1.6381
  172MOL0     C23138   0.344   0.835   3.526  0.3256 -0.1040  0.0771
  172MOL0     C23139   0.324   0.675   3.132  0.2283 -0.4569  0.1011
  172MOL0     C23140   0.199   0.614   3.166 -0.4738  0.2292  0.0905
  172MOL0     C23141   0.139   0.529   3.078  0.2164 -0.3608 -0.1289
  172MOL0     C23142   0.193   0.497   2.953 -0.4136 -0.5763  0.6121
  172MOL0     O23143   0.145   0.419   2.850  0.2171 -1.2473 -0.5043
  172MOL0     C23144   0.003   0.381   2.859  0.1795  0.2703 -0.3149
  172MOL0     C23145  -0.051   0.324   2.730 -0.3713 -0.4475 -0.8170
  172MOL0     C23146  -0.187   0.260   2.730  0.1149 -0.7208 -0.4657
  172MOL0     C23147  -0.178   0.128   2.803 -0.4939  0.5481 -0.5252
  172MOL0     C23148  -0.287   0.037   2.802  0.0878 -0.1778 -0.5370
  172MOL0     C23149  -0.384  -0.026   2.780  0.0130  0.3036 -0.7018
  172MOL0     C23150   0.313   0.552   2.920 -0.4944 -0.4528  0.3181
  172MOL0     C23151   0.384   0.644   3.004  0.6930 -0.4128  0.0209
  172MOL0     C23152   0.521   0.692   2.967  0.3200 -0.3183 -0.1000
  172MOL0     H23153   0.661   0.733   3.446 -0.0388 -2.6786  0.1249
  172MOL0     H23154   0.706   0.853   3.658  1.0321 -0.3083 -2.0828
  172MOL0     H23155   0.387   1.112   3.802  0.6823 -0.6831 -1.4025
  172MOL0     H23156   0.351   0.980   3.914  0.8911 -0.6343  0.9517
  172MOL0     H23157   0.410   1.197   4.038  1.3645  1.7814  0.2430
  172MOL0     H23158   0.567   1.186   3.972  0.4823  0.3627  1.6467
  172MOL0     H23159   0.587   0.954   4.073 -0.0118 -0.3779  0.9688
  172MOL0     H23160   0.418   0.962   4.139  1.6533 -0.8935  5.2488
  172MOL0     H23161   0.642   1.143   4.212  0.8391 -2.2768 -1.9640
  172MOL0     H23162   0.472   1.157   4.261  0.2378  0.0134 -1.0838
  172MOL0     H23163   0.488   0.922   4.362  0.2009 -1.4744  0.2184
  172MOL0     H23164   0.664   0.926   4.325 -1.6608 -1.5240  0.3968
  172MOL0     H23165   0.499   1.117   4.508 -0.9063  0.5109 -2.9277
  172MOL0     H23166   0.590   0.985   4.562 -0.5576  0.3200  0.8098
  172MOL0     H23167   0.677   1.253   4.449  2.3374  0.8263 -1.7890
  172MOL0     H23168   0.784   1.130   4.427 -0.7621  1.1912 -1.4700
  172MOL0     H23169   0.665   1.212   4.707  0.0581  0.3184  0.2192
  172MOL0     H23170   0.808   1.106   4.695 -0.3995 -1.3122 -2.2671
  172MOL0     H23171   0.962   1.265   4.458 -0.5622 -1.7892  1.3218
  172MOL0     H23172   1.134   1.457   4.415  0.8514 -1.6643  0.2338
  172MOL0     H23173   1.138   1.589   4.531 -0.7461 -0.7297  2.1949
  172MOL0     H23174   1.280   1.421   4.663 -2.6825  0.4204 -0.1673
  172MOL0     H23175   1.265   1.312   4.513 -2.8937 -0.5815  1.0820
  172MOL0     H23176   1.364   1.600   4.513  1.3459  1.5095  0.3556
  172MOL0     H23177   1.373   1.485   4.383  2.2809  1.6588  0.3902
  172MOL0     H23178   1.600   1.492   4.471  0.1384 -1.6519 -2.2545
  172MOL0     H23179   1.537   1.339   4.530 -0.4934  0.4318 -1.5892
  172MOL0     H23180   1.769   1.346   4.592 -1.1414  0.6647 -0.0470
  172MOL0     H23181   1.966   1.338   4.729 -1.2746 -2.2728  1.1984
  172MOL0     H23182   2.171   1.163   5.076 -0.6507  0.0402 -2.8144
  172MOL0     H23183   2.393   1.103   5.172  1.7394  1.7575  1.9336
  172MOL0     H23184   2.638   1.064   5.223  1.9692 -1.1826  0.4757
  172MOL0     H23185   2.640   1.073   5.052 -0.7766 -0.1737  0.6031
  172MOL0     H23186   2.871   1.138   5.055  1.1133  1.2717  1.1173
  172MOL0     H23187   2.856   1.216   5.210 -3.1866  0.9872 -0.8745
  172MOL0     H23188   2.991   1.044   5.248  0.1584  0.9013  1.0583
  172MOL0     H23189   2.848   1.019   5.338  1.3800  0.3099  0.2775
  172MOL0     H23190   2.899   0.859   5.082 -0.3535 -3.0071 -0.1764
  172MOL0     H23191   2.746   0.870   5.172  0.5651  2.6061 -1.6055
  172MOL0     H23192   2.857   0.668   5.247  1.7992 -0.4921  0.8073
  172MOL0     H23193   2.855   0.788   5.371  0.1520  3.2496 -0.3825
  172MOL0     H23194   3.075   0.865   5.319 -3.2734  0.8467  0.3959
  172MOL0     H23195   3.070   0.693   5.383  0.9205  0.2766  0.7113
  172MOL0     H23196   3.227   0.735   5.165 -0.7288 -0.7810  0.0652
  172MOL0     H23197   3.076   0.725   5.082  0.7833 -1.0487 -1.2914
  172MOL0     H23198   3.175   0.519   5.283  1.0192  2.3507  0.8629
  172MOL0     H23199   3.021   0.511   5.211  1.1616  0.1110  1.5398
  172MOL0     H23200   2.568   1.460   4.985 -1.1598  2.2522  1.6012
  172MOL0     H23201   2.348   1.513   4.894  1.4708 -0.6610 -1.7175
  172MOL0     H23202   1.771   1.523   5.065  0.6858 -0.6148  0.1126
  172MOL0     H23203   1.579   1.559   4.921 -0.2479  0.5382 -0.6514
  172MOL0     H23204   0.286   0.945   3.700 -0.2555  1.1610 -1.9700
  172MOL0     H23205   0.245   0.818   3.485 -0.2947  0.9646  1.0664
  172MOL0     H23206   0.154   0.629   3.264 -1.7606 -0.3763 -0.3876
  172MOL0     H23207   0.038   0.491   3.097 -0.0049  0.3481  0.1633
  172MOL0     H23208  -0.048   0.473   2.889 -0.4941 -1.4241  4.7684
  172MOL0     H23209  -0.018   0.309   2.939 -1.6583  0.9019 -0.1733
  172MOL0     H23210   0.033   0.264   2.693  2.5202  3.3068 -0.8727
  172MOL0     H23211  -0.051   0.405   2.656  0.6887 -0.7034 -1.1183
  172MOL0     H23212  -0.231   0.248   2.630  0.9645 -0.7948 -0.8337
  172MOL0     H23213  -0.249   0.323   2.795 -0.1769  0.1480 -1.5527
  172MOL0     H23214  -0.106   0.065   2.748  1.5036  2.9339 -0.8266
  172MOL0     H23215  -0.142   0.129   2.906 -0.0106 -2.4828 -0.5495
  172MOL0     H23216  -0.466  -0.083   2.741 -0.1970  0.3718 -0.3685
  172MOL0     H23217   0.350   0.535   2.819  2.7509  4.6820  0.2523
  172MOL0     H23218   0.551   0.628   2.884  0.1875  0.9314 -1.1229
  172MOL0     H23219   0.531   0.794   2.929 -1.4074 -0.6255 -1.5355
  172MOL0     H23220   0.591   0.683   3.051  0.6334  2.0476 -0.0525
  173MOL0     O23221   7.794   6.619   9.435  0.6939  0.0928  0.0498
  173MOL0     C23222   7.791   6.646   9.553  0.0128  0.0873  0.1674
  173MOL0     O23223   7.686   6.688   9.625  0.3290  0.3579 -0.3460
  173MOL0     C23224   7.557   6.690   9.577  0.0620 -0.3525  0.3943
  173MOL0     C23225   7.489   6.572   9.544  0.2823 -0.1286  0.1857
  173MOL0     C23226   7.360   6.586   9.499  0.3344 -0.4318  0.0347
  173MOL0     C23227   7.294   6.714   9.477 -0.4558 -0.1446 -0.0830
  173MOL0     O23228   7.162   6.741   9.431  0.6693  0.3881 -0.6190
  173MOL0     C23229   7.063   6.634   9.421 -0.0332  0.1679  0.9279
  173MOL0     C23230   6.920   6.677   9.376  0.1824  0.2553 -0.5822
  173MOL0     C23231   6.846   6.548   9.346 -0.5015 -0.7053 -0.8500
  173MOL0     C23232   6.728   6.578   9.258 -0.2413  0.2723  0.1592
  173MOL0     C23233   6.664   6.444   9.230 -0.2575  0.9724 -0.2912
  173MOL0     C23234   6.512   6.455   9.210 -0.0827 -1.3750  0.2319
  173MOL0     C23235   6.470   6.514   9.073 -0.4422 -0.2585  0.1306
  173MOL0     C23236   6.323   6.551   9.063  0.3899 -0.3882 -0.1360
  173MOL0     N23237   6.223   6.439   9.055 -0.3645  0.5716 -0.6208
  173MOL0     C23238   6.170   6.374   9.165  0.2535 -0.0944 -0.2938
  173MOL0     C23239   6.072   6.291   9.126 -0.2293 -0.3780  0.3498
  173MOL0     C23240   5.997   6.198   9.215 -0.6073 -0.0698  0.0127
  173MOL0     C23241   6.035   6.054   9.187 -0.4497  0.1550  0.9010
  173MOL0     C23242   6.008   5.965   9.307  0.3540  0.6572  0.7882
  173MOL0     C23243   6.042   5.823   9.288  0.3452 -0.1546 -0.5460
  173MOL0     O23244   6.162   5.813   9.209 -0.4682 -0.1888  0.1392
  173MOL0     C23245   6.284   5.785   9.278  0.3360 -1.0217  0.0038
  173MOL0     C23246   6.390   5.751   9.198  0.4386 -0.0995 -0.2627
  173MOL0     C23247   6.517   5.725   9.244  0.3432  0.7936  0.3271
  173MOL0     C23248   6.545   5.750   9.378 -0.4151  1.3684 -0.9251
  173MOL0     C23249   6.677   5.709   9.428  0.2895 -0.2538 -0.1274
  173MOL0     O23250   6.763   5.663   9.333  0.1106  0.3617  0.4836
  173MOL0     C23251   6.894   5.625   9.350 -0.2593 -0.0040  0.1758
  173MOL0     C23252   6.960   5.556   9.247  0.2683  0.0289 -0.2283
  173MOL0     C23253   7.088   5.513   9.265 -0.2114 -0.1163 -1.2465
  173MOL0     C23254   7.168   5.554   9.374  0.1198  0.2545 -0.1207
  173MOL0     O23255   7.309   5.523   9.387  0.0308 -0.4152 -0.3359
  173MOL0     C23256   7.369   5.474   9.261  0.9582 -0.6592 -0.0698
  173MOL0     C23257   7.517   5.479   9.269  0.6237 -0.1820  0.1592
  173MOL0     C23258   7.580   5.365   9.362  0.2601  0.7093 -0.4416
  173MOL0     C23259   7.648   5.421   9.485 -0.1417 -0.8139 -0.7977
  173MOL0     C23260   7.539   5.486   9.573  0.5343  0.0195  0.5953
  173MOL0     C23261   7.579   5.521   9.716 -0.8316 -0.3081 -0.3690
  173MOL0     C23262   7.476   5.594   9.792  0.2163  0.0046  0.0704
  173MOL0     C23263   7.461   5.734   9.733 -0.4752 -0.3779 -0.5252
  173MOL0    Cl23264   7.588   5.838   9.808  0.2735  0.4081 -0.2547
  173MOL0     C23265   7.113   5.634   9.474  0.0386 -0.0680  0.0216
  173MOL0     C23266   6.978   5.670   9.463 -0.1727 -0.2202 -0.1596
  173MOL0     O23267   6.697   5.731   9.546 -0.1605  0.2238 -0.8333
  173MOL0     C23268   6.432   5.788   9.465 -0.4160  0.3270  0.3262
  173MOL0     C23269   6.299   5.800   9.420 -0.0560  0.7696 -0.5197
  173MOL0     N23270   6.061   6.307   8.988 -0.4112  0.3831 -0.2238
  173MOL0     N23271   6.156   6.388   8.950  0.1748  0.4039 -0.3104
  173MOL0     C23272   7.371   6.824   9.505  0.3497 -0.7071 -0.5279
  173MOL0     C23273   7.500   6.814   9.548 -0.3244 -0.6083  0.5193
  173MOL0     C23274   7.922   6.639   9.626 -0.4415  0.0853  0.5903
  173MOL0     C23275   7.946   6.754   9.696 -0.3496  0.6530  0.0887
  173MOL0     C23276   8.057   6.756   9.776  0.2973  0.1455  0.6707
  173MOL0     C23277   8.150   6.654   9.779 -0.0259 -0.3822 -0.2194
  173MOL0     O23278   8.254   6.666   9.872  0.5637  0.3795  0.3113
  173MOL0     C23279   8.356   6.569   9.868 -0.2713  0.5415 -0.2063
  173MOL0     C23280   8.461   6.606   9.975  0.1780 -0.3532  0.0015
  173MOL0     C23281   8.559   6.724   9.953  0.1438 -0.2019 -0.2273
  173MOL0     C23282   8.619   6.774  10.087  0.4786  0.4026 -0.2790
  173MOL0     C23283   8.524   6.853  10.176 -0.2753  0.0433  0.5355
  173MOL0     C23284   8.477   6.919  10.253  0.5688 -0.4275  0.8009
  173MOL0     C23285   8.127   6.535   9.700  0.9733  0.1073 -0.2695
  173MOL0     C23286   8.006   6.527   9.628  0.0097  0.4574 -0.8319
  173MOL0     C23287   7.967   6.398   9.561 -0.3981  0.1799  0.1252
  173MOL0     H23288   7.528   6.471   9.546  1.8021  0.4231  2.2829
  173MOL0     H23289   7.317   6.488   9.478 -0.3895 -0.1475  0.1365
  173MOL0     H23290   7.110   6.556   9.359  1.3019 -0.9695  3.2201
  173MOL0     H23291   7.038   6.584   9.516  1.4535  0.6322  1.5938
  173MOL0     H23292   6.933   6.737   9.285  1.9246  1.6497  0.5084
  173MOL0     H23293   6.870   6.735   9.454  0.2723 -0.6875  0.1959
  173MOL0     H23294   6.823   6.500   9.442 -0.8373  0.4689 -0.3306
  173MOL0     H23295   6.913   6.484   9.288  1.7073  1.1949 -0.5354
  173MOL0     H23296   6.657   6.656   9.288  0.8787  1.7869 -0.9429
  173MOL0     H23297   6.767   6.603   9.159 -0.8460  6.1968  1.0530
  173MOL0     H23298   6.720   6.387   9.155  1.6709  1.7169  0.5248
  173MOL0     H23299   6.670   6.387   9.324  1.2595 -0.5476 -1.2548
  173MOL0     H23300   6.474   6.353   9.221 -2.0845 -0.4414  3.3756
  173MOL0     H23301   6.455   6.509   9.287  0.3903  0.8895 -0.9302
  173MOL0     H23302   6.497   6.446   8.992 -0.5089 -0.5217  0.3275
  173MOL0     H23303   6.524   6.608   9.063  1.7076 -0.7727  4.4622
  173MOL0     H23304   6.303   6.626   9.140 -0.8042  1.1089 -1.7957
  173MOL0     H23305   6.314   6.618   8.976 -0.3333  0.9643  0.9323
  173MOL0     H23306   6.200   6.399   9.266  0.6078  1.5259 -0.7744
  173MOL0     H23307   6.018   6.225   9.319 -2.0948 -0.9318  0.5703
  173MOL0     H23308   5.890   6.214   9.196 -1.0629 -0.7586  1.7222
  173MOL0     H23309   5.974   6.022   9.101 -0.8887  0.4837  1.0900
  173MOL0     H23310   6.143   6.053   9.167 -0.4348 -0.6324  0.9808
  173MOL0     H23311   5.900   5.974   9.325  0.6788 -1.0522  4.3631
  173MOL0     H23312   6.074   5.999   9.388  1.8146 -0.2404  0.0195
  173MOL0     H23313   5.957   5.783   9.231 -0.3124  0.6965 -0.1673
  173MOL0     H23314   6.043   5.767   9.382 -0.5992  0.1866 -0.3207
  173MOL0     H23315   6.355   5.738   9.096 -0.0774 -1.2686  0.0354
  173MOL0     H23316   6.597   5.691   9.179  0.3751 -1.0594  1.2568
  173MOL0     H23317   6.902   5.528   9.160 -0.7021  0.2362  0.3437
  173MOL0     H23318   7.136   5.450   9.191  2.6136 -0.6103  0.8526
  173MOL0     H23319   7.357   5.366   9.250 -0.4452 -0.6219  0.8385
  173MOL0     H23320   7.337   5.532   9.173 -1.9861  0.6957  1.7457
  173MOL0     H23321   7.555   5.466   9.168 -1.3139  1.1716 -0.8026
  173MOL0     H23322   7.550   5.581   9.294 -0.1930 -0.1357  1.1082
  173MOL0     H23323   7.503   5.297   9.399  1.6439 -0.0758  1.1397
  173MOL0     H23324   7.652   5.306   9.304 -1.4533 -2.7130  0.6481
  173MOL0     H23325   7.715   5.501   9.453 -1.1444 -0.7088 -2.7556
  173MOL0     H23326   7.697   5.351   9.554 -1.0164 -0.8055 -0.1528
  173MOL0     H23327   7.460   5.412   9.563 -0.4161  1.2681 -2.6852
  173MOL0     H23328   7.509   5.577   9.519  2.3893 -0.8794 -2.2207
  173MOL0     H23329   7.622   5.435   9.769  1.5411 -0.3628 -2.1562
  173MOL0     H23330   7.666   5.588   9.709  0.2219 -1.0507  3.4789
  173MOL0     H23331   7.506   5.594   9.897 -3.0948  0.1005  1.1235
  173MOL0     H23332   7.382   5.540   9.801 -0.0074  0.5384  1.0374
  173MOL0     H23333   7.470   5.731   9.624  1.5894 -1.8452 -0.3786
  173MOL0     H23334   7.368   5.782   9.764 -0.7680 -1.1060 -0.2735
  173MOL0     H23335   7.178   5.671   9.553  0.6590  5.0465 -2.4996
  173MOL0     H23336   6.932   5.733   9.538 -2.2704 -2.1682  0.2995
  173MOL0     H23337   6.447   5.806   9.571  1.6488  0.4098  0.0671
  173MOL0     H23338   6.221   5.836   9.486  0.6366  0.5800  0.4292
  173MOL0     H23339   7.330   6.922   9.482  1.5414  0.0989  0.6097
  173MOL0     H23340   7.550   6.910   9.554 -0.7216 -0.2470 -1.3424
  173MOL0     H23341   7.872   6.834   9.693 -1.5655 -0.3722 -4.3318
  173MOL0     H23342   8.073   6.848   9.831 -1.9519  0.4401  0.9290
  173MOL0     H23343   8.407   6.582   9.772  2.9575  0.7661  1.3962
  173MOL0     H23344   8.319   6.468   9.886 -2.2427  1.5023  1.6110
  173MOL0     H23345   8.529   6.523   9.998 -0.3096 -1.8775 -3.3800
  173MOL0     H23346   8.399   6.628  10.062  0.5287  0.8955 -0.0508
  173MOL0     H23347   8.509   6.808   9.905 -0.1885 -0.3962 -0.2219
  173MOL0     H23348   8.638   6.696   9.882 -0.4117 -0.5573 -0.7065
  173MOL0     H23349   8.668   6.689  10.136  3.2544  1.2463 -1.4356
  173MOL0     H23350   8.701   6.840  10.058  1.1933 -1.2526 -2.3164
  173MOL0     H23351   8.452   6.992  10.327  1.2232  0.3056  0.3174
  173MOL0     H23352   8.195   6.450   9.699  0.3451 -0.4724  1.7779
  173MOL0     H23353   7.963   6.408   9.452 -1.4843 -0.5913  0.0717
  173MOL0     H23354   8.044   6.321   9.574  0.0366  0.0063 -2.8424
  173MOL0     H23355   7.867   6.359   9.584 -0.5802  0.5694 -0.0040
  174MOL0     O23356   5.080  10.472   9.452  0.2025 -0.7632 -0.0999
  174MOL0     C23357   4.958  10.464   9.441  0.3005  0.3863 -0.2459
  174MOL0     O23358   4.882  10.375   9.521 -0.4520 -0.0857 -0.1035
  174MOL0     C23359   4.931  10.340   9.640  1.0018  0.4141  0.9467
  174MOL0     C23360   4.935  10.434   9.744 -1.4265 -0.7837 -0.8932
  174MOL0     C23361   4.995  10.402   9.860  0.2469 -0.0394  0.0217
  174MOL0     C23362   5.063  10.282   9.886 -0.8525  0.4948  0.0433
  174MOL0     O23363   5.142  10.280   9.998  0.5147 -0.0057  0.2599
  174MOL0     C23364   5.207  10.154  10.028 -0.3583  0.5504  0.1122
  174MOL0     C23365   5.234  10.147  10.176 -0.5239  0.5081  1.0005
  174MOL0     C23366   5.324  10.032  10.199  0.1241 -0.0466 -0.6048
  174MOL0     C23367   5.371  10.030  10.344  0.0643 -0.0214  0.1710
  174MOL0     C23368   5.506   9.969  10.357 -0.0106  0.7592  0.4012
  174MOL0     C23369   5.626  10.061  10.329  0.4770  0.2202 -0.5522
  174MOL0     C23370   5.757  10.006  10.392 -0.6832 -0.2847 -0.0636
  174MOL0     C23371   5.796   9.875  10.331 -0.2328  0.0343 -0.5375
  174MOL0     N23372   5.928   9.835  10.376 -0.5080 -0.3372  0.5396
  174MOL0     C23373   5.954   9.775  10.500 -0.1840 -0.6732  0.5290
  174MOL0     C23374   6.087   9.746  10.489 -0.1764 -0.5823  0.8286
  174MOL0     C23375   6.153   9.654  10.586  0.3322  0.8287  0.2606
  174MOL0     C23376   6.118   9.498  10.596 -0.2563 -0.4235 -0.3693
  174MOL0     C23377   6.117   9.434  10.453  0.3612  0.1415 -0.0694
  174MOL0     C23378   5.998   9.467  10.363  0.5318 -0.3691 -0.4705
  174MOL0     O23379   5.882   9.442  10.445  0.4303  0.0979 -0.8925
  174MOL0     C23380   5.756   9.475  10.386 -0.6057  0.0377 -0.2269
  174MOL0     C23381   5.735   9.507  10.252  0.4460 -0.4191  0.2781
  174MOL0     C23382   5.615   9.564  10.202  0.1756  0.2115 -0.3596
  174MOL0     C23383   5.504   9.578  10.284 -0.3802 -0.1538 -0.1134
  174MOL0     C23384   5.371   9.623  10.229 -0.0583 -0.0413 -0.0525
  174MOL0     O23385   5.336   9.567  10.108  0.0143  0.0833  0.7099
  174MOL0     C23386   5.206   9.586  10.069 -0.2986  0.1768 -0.4078
  174MOL0     C23387   5.169   9.708  10.001 -0.7458  0.2084 -0.5667
  174MOL0     C23388   5.039   9.718   9.945 -0.4770  0.0085 -0.6756
  174MOL0     C23389   4.948   9.616   9.971  0.2564 -0.2652  0.1535
  174MOL0     O23390   4.811   9.623   9.935  0.1832 -0.2710 -0.3463
  174MOL0     C23391   4.778   9.718   9.828  0.2350  0.0361  0.0724
  174MOL0     C23392   4.824   9.676   9.686  0.0758  0.2134 -0.7167
  174MOL0     C23393   4.743   9.739   9.582  0.9894  0.6385  0.6559
  174MOL0     C23394   4.784   9.887   9.560 -0.8306 -0.4456 -0.6519
  174MOL0     C23395   4.754   9.941   9.417 -0.4862 -0.0662 -0.4517
  174MOL0     C23396   4.842   9.903   9.295 -0.1897  0.0417 -0.1095
  174MOL0     C23397   4.988   9.920   9.332  0.2286 -0.4758  1.0314
  174MOL0     C23398   5.063   9.868   9.212  0.1642  0.4683 -0.0204
  174MOL0    Cl23399   5.053   9.684   9.212 -0.1307 -0.4935 -0.3364
  174MOL0     C23400   4.984   9.510  10.049  0.0196  0.0323 -0.4811
  174MOL0     C23401   5.113   9.487  10.097  0.2787  0.5689 -0.6357
  174MOL0     O23402   5.301   9.695  10.305 -0.3579  0.0359  0.3649
  174MOL0     C23403   5.527   9.540  10.419  0.5961  0.4171  0.2787
  174MOL0     C23404   5.649   9.486  10.467 -0.8731 -0.5935  0.2716
  174MOL0     N23405   6.139   9.810  10.377  0.0940  0.0169  0.1443
  174MOL0     N23406   6.042   9.862  10.316  0.1000  0.5412  0.5768
  174MOL0     C23407   5.055  10.185   9.783 -0.2674  0.8434 -0.1892
  174MOL0     C23408   4.978  10.210   9.672 -0.4104  0.7519  1.0434
  174MOL0     C23409   4.890  10.519   9.320 -0.0660  0.1352 -0.2157
  174MOL0     C23410   4.751  10.506   9.307  0.3356  1.3346 -0.2121
  174MOL0     C23411   4.673  10.560   9.204  0.3326  0.7195 -0.4798
  174MOL0     C23412   4.742  10.630   9.099  0.0528  0.8497  0.3468
  174MOL0     O23413   4.677  10.688   8.989  0.0084  0.0626 -0.3301
  174MOL0     C23414   4.533  10.696   8.985  0.0466  0.4934 -1.2011
  174MOL0     C23415   4.497  10.802   9.092 -0.4344  0.2417 -0.4111
  174MOL0     C23416   4.496  10.946   9.039 -0.7635  0.3423  0.7733
  174MOL0     C23417   4.410  11.035   9.123 -0.0898 -0.8294 -0.1599
  174MOL0     C23418   4.411  11.175   9.076  1.0636 -0.6772  1.1563
  174MOL0     C23419   4.399  11.289   9.039  0.3823  0.0262 -0.5277
  174MOL0     C23420   4.884  10.638   9.109  1.1578  1.4143  1.0459
  174MOL0     C23421   4.955  10.580   9.216 -0.1576 -0.4620  0.1186
  174MOL0     C23422   5.106  10.605   9.198  0.0516 -0.0725  0.7529
  174MOL0     H23423   4.895  10.535   9.747  3.6142  1.5141  1.7256
  174MOL0     H23424   5.000  10.483   9.932  0.2021 -0.2949  0.3165
  174MOL0     H23425   5.136  10.074  10.007  1.3692 -0.6491 -1.5498
  174MOL0     H23426   5.300  10.138   9.973  0.7891 -1.0795  2.4011
  174MOL0     H23427   5.136  10.140  10.225 -1.0454  1.3288  0.1166
  174MOL0     H23428   5.292  10.232  10.210 -0.6053  0.2450  1.8201
  174MOL0     H23429   5.413  10.038  10.137  1.1353 -1.8057  0.6029
  174MOL0     H23430   5.270   9.942  10.170 -0.0012 -0.1304 -0.1230
  174MOL0     H23431   5.377  10.133  10.383 -0.2274 -0.2382  0.8072
  174MOL0     H23432   5.308   9.978  10.417  0.6419  1.7281  2.0126
  174MOL0     H23433   5.515   9.938  10.462 -1.5442 -0.6629  0.1557
  174MOL0     H23434   5.518   9.880  10.296 -0.6407 -0.2796  1.7367
  174MOL0     H23435   5.644  10.068  10.221 -0.9757 -2.4758 -1.0752
  174MOL0     H23436   5.598  10.153  10.381  0.3032 -1.1415  1.9442
  174MOL0     H23437   5.749   9.988  10.500 -1.2263  0.7563  0.0772
  174MOL0     H23438   5.829  10.086  10.376 -2.5542  1.7483  1.1148
  174MOL0     H23439   5.723   9.811  10.381  0.2950  0.8281  1.3222
  174MOL0     H23440   5.801   9.875  10.222  1.1110 -0.7473 -0.4993
  174MOL0     H23441   5.884   9.732  10.571 -1.3888  1.1528  0.5067
  174MOL0     H23442   6.261   9.660  10.569  1.1339 -2.0557  3.2135
  174MOL0     H23443   6.134   9.694  10.686 -1.0978 -0.2904  0.4793
  174MOL0     H23444   6.195   9.448  10.655  1.0489  0.4313 -1.2898
  174MOL0     H23445   6.023   9.479  10.647 -1.2565 -2.6125 -2.7991
  174MOL0     H23446   6.120   9.331  10.492  0.9296  0.8906  2.0141
  174MOL0     H23447   6.214   9.458  10.409  0.4976  1.7343  1.0402
  174MOL0     H23448   5.989   9.398  10.278 -0.5809 -1.0234  0.1579
  174MOL0     H23449   5.995   9.571  10.331  1.0744 -0.3902 -0.5987
  174MOL0     H23450   5.817   9.510  10.180  1.0400 -1.9921  0.8560
  174MOL0     H23451   5.616   9.583  10.095  2.9399  0.5414 -0.3279
  174MOL0     H23452   5.249   9.778   9.982 -2.1546  2.0141 -0.1690
  174MOL0     H23453   5.006   9.807   9.891 -1.1744 -0.1568 -0.5349
  174MOL0     H23454   4.669   9.718   9.835  0.2922 -2.0971  1.9452
  174MOL0     H23455   4.811   9.822   9.838  2.1760 -0.6906  1.8945
  174MOL0     H23456   4.932   9.685   9.674  0.2853 -1.7286 -0.5634
  174MOL0     H23457   4.794   9.571   9.682 -3.6116  1.1243 -1.3221
  174MOL0     H23458   4.781   9.687   9.493  3.0521 -0.5679  2.1423
  174MOL0     H23459   4.638   9.713   9.596  1.9216 -3.0507  1.8991
  174MOL0     H23460   4.886   9.915   9.586 -1.3558  1.7348 -0.8164
  174MOL0     H23461   4.737   9.956   9.630  2.3787 -2.0021  3.4031
  174MOL0     H23462   4.753  10.050   9.431  1.0168  0.0239 -0.8661
  174MOL0     H23463   4.651   9.917   9.388  0.0224 -1.0494 -1.4945
  174MOL0     H23464   4.825   9.800   9.264  0.1989 -0.2879  0.7399
  174MOL0     H23465   4.809   9.964   9.211  0.0817  2.4010  1.3969
  174MOL0     H23466   5.016   9.868   9.424  1.8647 -1.0712  0.2354
  174MOL0     H23467   5.016  10.025   9.348 -0.9836  0.1409 -0.5532
  174MOL0     H23468   5.008   9.907   9.126 -5.1123 -2.2513  1.6886
  174MOL0     H23469   5.166   9.904   9.220  1.5661 -3.3359  1.6226
  174MOL0     H23470   4.911   9.436  10.080  1.0791 -1.2611 -0.9754
  174MOL0     H23471   5.141   9.397  10.150  0.3937  0.9193 -0.0981
  174MOL0     H23472   5.441   9.556  10.483 -0.8967  0.7637 -1.7284
  174MOL0     H23473   5.663   9.452  10.569 -0.9703 -0.8771  0.1885
  174MOL0     H23474   5.118  10.097   9.786  0.7001  1.4107 -2.0480
  174MOL0     H23475   4.971  10.125   9.604  0.5454  0.0160  1.8432
  174MOL0     H23476   4.694  10.464   9.390  1.1307  2.1710  0.7923
  174MOL0     H23477   4.567  10.537   9.203  0.7158 -1.2638 -0.1744
  174MOL0     H23478   4.483  10.602   9.010  1.4705  0.2545  1.0473
  174MOL0     H23479   4.495  10.718   8.885 -3.3360 -2.1178 -0.6853
  174MOL0     H23480   4.559  10.799   9.182  1.5103  2.0632 -1.5912
  174MOL0     H23481   4.397  10.769   9.123 -0.6649  0.3682 -1.0007
  174MOL0     H23482   4.444  10.938   8.943  1.9281  1.9358 -0.9391
  174MOL0     H23483   4.595  10.989   9.023 -0.1561 -0.3892  2.3714
  174MOL0     H23484   4.307  11.000   9.119 -0.0473 -1.0424  0.4678
  174MOL0     H23485   4.436  11.037   9.229 -0.5817  2.7198 -0.0039
  174MOL0     H23486   4.399  11.391   9.004  2.2364 -0.5148 -2.3117
  174MOL0     H23487   4.931  10.674   9.018  2.2569 -0.4298  0.8326
  174MOL0     H23488   5.126  10.639   9.096  0.6615 -3.1397 -0.2399
  174MOL0     H23489   5.125  10.684   9.272 -2.5216  0.4063  0.9852
  174MOL0     H23490   5.175  10.521   9.212  0.4847  0.0362 -0.5444
  175MOL0     O23491   6.866   7.867   5.937  0.6073  0.1829  0.4225
  175MOL0     C23492   6.831   7.970   5.984  0.2700  0.4241 -0.2199
  175MOL0     O23493   6.918   8.054   6.037  0.2930 -0.1350  0.0602
  175MOL0     C23494   7.053   8.024   6.050 -0.7434 -0.3884  0.3713
  175MOL0     C23495   7.110   7.919   6.120  0.0174 -0.1714 -0.2069
  175MOL0     C23496   7.244   7.880   6.116 -0.6838 -0.9592 -0.1017
  175MOL0     C23497   7.333   7.959   6.036  0.2180 -0.6530  0.1827
  175MOL0     O23498   7.471   7.936   6.019  0.2590  0.2900  1.1059
  175MOL0     C23499   7.548   7.927   6.140 -0.0001 -0.4526  0.0502
  175MOL0     C23500   7.657   8.030   6.128  0.0693  0.0672 -0.1493
  175MOL0     C23501   7.750   8.003   6.249  0.4310 -0.5288 -0.2047
  175MOL0     C23502   7.862   8.105   6.250 -0.5873  0.3403 -0.6492
  175MOL0     C23503   7.976   8.050   6.328 -0.5001  0.4012 -0.2836
  175MOL0     C23504   8.079   8.159   6.326  0.1147 -0.3593  0.1779
  175MOL0     C23505   8.217   8.111   6.376  1.5289  0.1562  0.4918
  175MOL0     C23506   8.302   8.219   6.424  0.7512 -0.6162  0.3926
  175MOL0     N23507   8.425   8.175   6.487  0.1166  0.5171 -0.6689
  175MOL0     C23508   8.440   8.182   6.624  0.0101  0.8263 -0.0279
  175MOL0     C23509   8.572   8.193   6.641  0.5122  0.0232  0.2694
  175MOL0     C23510   8.629   8.228   6.779  0.5609  0.3825  0.2741
  175MOL0     C23511   8.771   8.285   6.755  0.1501 -1.3073 -0.1973
  175MOL0     C23512   8.860   8.296   6.874  0.7821 -0.1254  1.0676
  175MOL0     C23513   8.995   8.347   6.826  0.8309 -0.8042 -0.2281
  175MOL0     O23514   9.051   8.242   6.741  0.4246 -0.1584  0.2509
  175MOL0     C23515   9.184   8.258   6.708  0.1783 -0.1267 -0.5655
  175MOL0     C23516   9.229   8.184   6.602 -1.1773  0.4163 -0.5600
  175MOL0     C23517   9.366   8.187   6.567  0.3214 -0.2090  0.3338
  175MOL0     C23518   9.453   8.282   6.621  0.2413  0.0749 -0.6505
  175MOL0     C23519   9.591   8.298   6.565 -0.5729  0.3947  0.0350
  175MOL0     O23520   9.617   8.225   6.457 -0.5523 -0.0701  0.6040
  175MOL0     C23521   9.757   8.189   6.426 -0.4657  0.3336  0.7665
  175MOL0     C23522   9.846   8.171   6.527 -0.4198  0.4129  0.3013
  175MOL0     C23523   9.976   8.128   6.495 -0.5920 -0.2186  0.2605
  175MOL0     C23524  10.012   8.082   6.368 -0.2026 -0.1763  0.9070
  175MOL0     O23525  10.121   8.012   6.324 -0.0468  0.3859  0.3040
  175MOL0     C23526  10.243   8.037   6.394 -0.3550 -0.0176  0.5135
  175MOL0     C23527  10.278   7.932   6.505 -0.1384 -0.5154 -0.1850
  175MOL0     C23528  10.427   7.934   6.554  0.5081  0.2039  0.3239
  175MOL0     C23529  10.447   7.803   6.628  0.3653  0.5886  0.3384
  175MOL0     C23530  10.518   7.702   6.546  0.1761  0.3790  0.1607
  175MOL0     C23531  10.536   7.567   6.627 -0.8634 -0.4208 -0.5193
  175MOL0     C23532  10.633   7.467   6.559 -0.2518  0.2437  0.6357
  175MOL0     C23533  10.560   7.340   6.521 -0.4046 -0.1959  0.2640
  175MOL0    Cl23534  10.451   7.377   6.391 -0.5152  0.6156 -0.0938
  175MOL0     C23535   9.905   8.093   6.261 -0.4568 -0.3321 -0.5183
  175MOL0     C23536   9.786   8.147   6.295 -0.3820 -0.4528 -0.4002
  175MOL0     O23537   9.673   8.371   6.621  0.1868 -0.1521  0.2011
  175MOL0     C23538   9.399   8.367   6.718  0.7977  0.0230  0.0049
  175MOL0     C23539   9.265   8.362   6.758  0.1400 -0.0053 -0.7804
  175MOL0     N23540   8.638   8.186   6.521  0.7546  0.1002  0.4137
  175MOL0     N23541   8.550   8.163   6.432 -0.2517  0.0936  0.6821
  175MOL0     C23542   7.272   8.067   5.952 -0.3387  0.0914  0.9944
  175MOL0     C23543   7.142   8.103   5.966  0.3670 -0.8080  0.1582
  175MOL0     C23544   6.692   8.005   5.989 -0.5879  0.1133 -0.4445
  175MOL0     C23545   6.656   8.139   6.031 -0.4660 -0.6115  0.4392
  175MOL0     C23546   6.532   8.183   6.043  0.7007  0.8423 -1.2883
  175MOL0     C23547   6.425   8.104   6.006 -0.6781 -0.6075 -0.2503
  175MOL0     O23548   6.293   8.138   6.022  0.2035 -0.4556 -0.6259
  175MOL0     C23549   6.259   8.261   6.098 -0.4566 -0.1185  0.8872
  175MOL0     C23550   6.112   8.263   6.131  0.5860  0.4276  0.2521
  175MOL0     C23551   6.014   8.254   6.008 -0.6043 -0.4599 -0.3542
  175MOL0     C23552   5.994   8.116   5.957 -1.1950  0.0540  0.7044
  175MOL0     C23553   5.872   8.094   5.884 -0.0437 -0.7038  0.1416
  175MOL0     C23554   5.769   8.068   5.820  0.0159 -0.0187 -1.6837
  175MOL0     C23555   6.460   7.977   5.948 -0.3989  0.7607  0.2150
  175MOL0     C23556   6.584   7.927   5.947  0.9209  0.6512  0.5823
  175MOL0     C23557   6.592   7.783   5.872 -0.5174  0.1473 -1.4470
  175MOL0     H23558   7.053   7.842   6.169 -0.7702  1.0171  0.8099
  175MOL0     H23559   7.281   7.792   6.169 -0.3887 -1.7390 -1.5617
  175MOL0     H23560   7.487   7.951   6.227 -1.4637 -0.4722 -0.9431
  175MOL0     H23561   7.579   7.822   6.144  0.7263 -0.2446 -0.0431
  175MOL0     H23562   7.617   8.131   6.126  1.0206  0.4683  0.5361
  175MOL0     H23563   7.705   8.014   6.031 -1.8928 -0.4050 -1.0833
  175MOL0     H23564   7.794   7.904   6.236 -1.4560 -1.3677 -0.5469
  175MOL0     H23565   7.692   7.998   6.342 -2.2595 -0.4840 -1.7731
  175MOL0     H23566   7.889   8.131   6.148 -1.8412  1.0704 -0.8161
  175MOL0     H23567   7.819   8.197   6.292 -1.1927  0.7652 -2.1502
  175MOL0     H23568   7.961   8.030   6.434  1.6039 -1.6340 -0.2934
  175MOL0     H23569   8.022   7.962   6.281  3.9010  0.3775  3.3512
  175MOL0     H23570   8.084   8.211   6.230 -1.7932  0.0129  0.2372
  175MOL0     H23571   8.043   8.234   6.397 -0.1385 -2.1391  2.0222
  175MOL0     H23572   8.264   8.063   6.290 -1.9747 -4.4764  0.7729
  175MOL0     H23573   8.190   8.026   6.438  3.2015 -1.1073 -0.4183
  175MOL0     H23574   8.329   8.283   6.340 -0.7971  0.5330  0.7225
  175MOL0     H23575   8.252   8.287   6.494 -2.8649  0.0295 -2.5075
  175MOL0     H23576   8.355   8.177   6.692 -0.2089 -1.4548 -0.3979
  175MOL0     H23577   8.557   8.291   6.832  0.5359  2.4718 -2.0688
  175MOL0     H23578   8.641   8.127   6.818  2.3028  0.4888  0.1197
  175MOL0     H23579   8.819   8.225   6.678  1.4716 -0.5334 -0.0088
  175MOL0     H23580   8.751   8.386   6.718  0.8634 -1.0851  0.0130
  175MOL0     H23581   8.880   8.196   6.913 -0.5324 -1.1304 -0.6781
  175MOL0     H23582   8.821   8.363   6.951 -1.3040 -1.7223  1.5256
  175MOL0     H23583   9.058   8.355   6.916 -2.7277  0.6043  2.3430
  175MOL0     H23584   8.990   8.448   6.786  0.4409 -0.5641  0.4269
  175MOL0     H23585   9.159   8.111   6.561  1.4938 -1.0276 -2.8767
  175MOL0     H23586   9.388   8.116   6.488 -1.6562 -2.5408  1.7119
  175MOL0     H23587   9.819   8.184   6.631  0.0639 -2.1212  0.8149
  175MOL0     H23588  10.046   8.131   6.579  0.3157  0.4946 -0.4959
  175MOL0     H23589  10.312   8.018   6.311  0.1787 -0.6347  1.0894
  175MOL0     H23590  10.265   8.140   6.422  0.9778 -0.2081  0.2104
  175MOL0     H23591  10.207   7.949   6.586 -0.3015  1.2557 -0.6755
  175MOL0     H23592  10.253   7.831   6.471  1.0751 -0.4814 -1.2848
  175MOL0     H23593  10.499   7.936   6.472 -0.2281 -4.0728 -0.6816
  175MOL0     H23594  10.445   8.013   6.627  0.5355 -1.0145  1.6855
  175MOL0     H23595  10.346   7.764   6.648 -0.6958  1.2926 -2.8909
  175MOL0     H23596  10.496   7.825   6.723  0.2562  2.2463  0.0335
  175MOL0     H23597  10.615   7.744   6.518 -0.2480  0.9276 -0.5098
  175MOL0     H23598  10.459   7.685   6.456 -0.0803 -0.0904  0.4092
  175MOL0     H23599  10.587   7.599   6.719 -1.3158  1.6115 -0.9244
  175MOL0     H23600  10.437   7.529   6.655 -1.2871 -0.0798 -1.5132
  175MOL0     H23601  10.718   7.448   6.625 -0.7936  0.8986  1.5594
  175MOL0     H23602  10.682   7.517   6.475  0.2290  0.1955  0.8830
  175MOL0     H23603  10.627   7.261   6.485 -2.1268 -0.2244 -3.2920
  175MOL0     H23604  10.507   7.293   6.604 -1.7376 -1.1404 -1.0633
  175MOL0     H23605   9.929   8.052   6.164  0.1670  2.4675 -1.6311
  175MOL0     H23606   9.710   8.157   6.219 -0.2162 -3.1877 -1.0101
  175MOL0     H23607   9.457   8.451   6.753  2.5223 -0.9124 -0.4827
  175MOL0     H23608   9.233   8.439   6.828 -0.4119 -1.1968  0.3344
  175MOL0     H23609   7.344   8.123   5.892 -0.1006  0.4314  1.5935
  175MOL0     H23610   7.102   8.189   5.913  2.4624 -1.1968 -2.2460
  175MOL0     H23611   6.729   8.214   6.060  0.2475 -0.2565 -2.0846
  175MOL0     H23612   6.532   8.277   6.098  2.4932 -0.4439  1.1021
  175MOL0     H23613   6.281   8.352   6.042 -1.2924 -0.0200  0.6941
  175MOL0     H23614   6.310   8.265   6.194 -0.8034  2.0221  1.0246
  175MOL0     H23615   6.089   8.363   6.170 -0.2927 -0.2576  1.5808
  175MOL0     H23616   6.083   8.191   6.208 -0.6669 -0.4919 -1.0270
  175MOL0     H23617   6.047   8.320   5.927 -2.4313  0.1773 -0.6311
  175MOL0     H23618   5.922   8.297   6.049  0.8002  1.7994  0.6222
  175MOL0     H23619   6.068   8.098   5.878 -1.0795 -2.0272  1.2104
  175MOL0     H23620   6.018   8.037   6.030 -0.1424 -1.3722 -1.0821
  175MOL0     H23621   5.673   8.041   5.781 -1.8505  2.9883  0.4175
  175MOL0     H23622   6.382   7.904   5.930  1.3327 -1.3286  0.8051
  175MOL0     H23623   6.500   7.724   5.876  0.4576 -1.3530  1.1748
  175MOL0     H23624   6.628   7.801   5.770  2.6758  2.9293 -0.0277
  175MOL0     H23625   6.676   7.724   5.910 -0.3368 -0.8487 -3.2982
  176MOL0     O23626   8.619   7.411   8.457 -0.4861 -0.5584  0.4348
  176MOL0     C23627   8.564   7.457   8.555 -0.5375 -0.3360  0.0570
  176MOL0     O23628   8.603   7.436   8.684  0.0280  0.2106  0.5234
  176MOL0     C23629   8.704   7.342   8.706  0.0536  0.7447 -0.0651
  176MOL0     C23630   8.679   7.223   8.775 -0.4511 -0.5447 -0.0933
  176MOL0     C23631   8.787   7.136   8.813  0.1035 -0.2923 -0.0341
  176MOL0     C23632   8.921   7.171   8.786 -0.2594  0.1308  0.1807
  176MOL0     O23633   9.026   7.102   8.838 -0.2218 -0.2851 -0.3091
  176MOL0     C23634   9.030   6.971   8.810 -0.7412  1.0056  0.6796
  176MOL0     C23635   9.126   6.936   8.692 -0.2909 -0.0897  0.4789
  176MOL0     C23636   9.270   6.972   8.714 -0.4821  0.0210 -0.3427
  176MOL0     C23637   9.356   6.920   8.598  0.3041  0.7253 -0.3617
  176MOL0     C23638   9.508   6.933   8.640 -0.3306  0.6423 -0.0608
  176MOL0     C23639   9.605   6.878   8.537  1.2851  0.2100  0.5648
  176MOL0     C23640   9.746   6.918   8.577  0.0602 -0.6593  0.5793
  176MOL0     C23641   9.862   6.856   8.490 -0.3497 -0.1590 -0.1956
  176MOL0     N23642   9.980   6.924   8.537  0.0094  0.8041  0.3236
  176MOL0     C23643  10.073   6.878   8.627  0.2664  0.5232 -0.3152
  176MOL0     C23644  10.174   6.965   8.633  0.1127  0.1336 -0.6787
  176MOL0     C23645  10.289   6.968   8.724 -0.2350  0.7116 -0.4980
  176MOL0     C23646  10.407   6.897   8.648 -0.2248 -0.0801  0.1255
  176MOL0     C23647  10.539   6.896   8.731  0.4566 -0.8400  0.5088
  176MOL0     C23648  10.658   6.882   8.632  0.2845  0.2063 -1.2762
  176MOL0     O23649  10.760   6.818   8.710 -0.2055 -0.3025 -0.4849
  176MOL0     C23650  10.895   6.854   8.713  0.1223  0.1369 -1.1610
  176MOL0     C23651  10.961   6.964   8.639  0.2098  0.4953  0.9765
  176MOL0     C23652  11.099   6.981   8.655  0.2946 -0.0701 -0.2834
  176MOL0     C23653  11.174   6.905   8.740 -0.4269 -0.3542 -0.0416
  176MOL0     C23654  11.323   6.914   8.750  0.2211 -0.8534  1.2623
  176MOL0     O23655  11.392   6.989   8.656  0.5607 -0.1413  0.1408
  176MOL0     C23656  11.533   6.992   8.662  0.3141  0.0209  0.1221
  176MOL0     C23657  11.603   7.103   8.608  0.0752 -0.4423  0.1004
  176MOL0     C23658  11.740   7.110   8.607  0.0238  0.1613 -0.6947
  176MOL0     C23659  11.822   7.002   8.636  0.4632 -0.1259 -0.8045
  176MOL0     O23660  11.961   7.011   8.642  0.0983  0.5060  0.1490
  176MOL0     C23661  12.021   7.141   8.649  0.3607  0.1322  0.4838
  176MOL0     C23662  12.156   7.144   8.714 -0.0693  0.0395 -0.5448
  176MOL0     C23663  12.260   7.072   8.627 -0.5379 -0.1582  0.7217
  176MOL0     C23664  12.404   7.093   8.681  0.2859 -1.1824 -0.2914
  176MOL0     C23665  12.511   7.079   8.564  0.2979  0.2897 -0.2576
  176MOL0     C23666  12.666   7.099   8.599  0.7052 -0.2025 -0.1952
  176MOL0     C23667  12.749   7.076   8.472  0.7032  0.5057  0.2135
  176MOL0     C23668  12.900   7.127   8.490  0.5494 -0.4976  0.4151
  176MOL0    Cl23669  12.891   7.293   8.548  0.5035 -0.2184  0.5955
  176MOL0     C23670  11.752   6.881   8.670  0.6115  0.5402 -0.8498
  176MOL0     C23671  11.611   6.879   8.688  0.5034 -0.7305  0.0755
  176MOL0     O23672  11.376   6.865   8.845 -0.0328  0.0840 -0.0795
  176MOL0     C23673  11.108   6.809   8.816  0.0917  0.0448  0.3944
  176MOL0     C23674  10.971   6.782   8.803  0.5913  0.4194  0.0383
  176MOL0     N23675  10.135   7.068   8.547  0.2448  0.1940  0.7179
  176MOL0     N23676  10.032   7.034   8.479  0.0586  0.0680  0.0140
  176MOL0     C23677   8.940   7.280   8.697 -0.4946  0.0613 -0.7060
  176MOL0     C23678   8.831   7.361   8.665 -1.0098  0.3368  0.3102
  176MOL0     C23679   8.448   7.546   8.544  0.7684  0.1410 -0.0248
  176MOL0     C23680   8.349   7.546   8.645 -0.5533  0.5456  0.2659
  176MOL0     C23681   8.227   7.614   8.635 -0.0442 -0.3605 -0.2715
  176MOL0     C23682   8.197   7.681   8.518  0.3464 -0.1455 -0.3324
  176MOL0     O23683   8.078   7.742   8.476  0.2780 -0.2698  0.1252
  176MOL0     C23684   7.991   7.789   8.582  0.4530  0.1302  0.1790
  176MOL0     C23685   7.906   7.904   8.507 -0.5974  0.8590  0.2262
  176MOL0     C23686   7.813   7.983   8.592 -1.2362 -0.8432  0.0387
  176MOL0     C23687   7.753   8.096   8.507  0.4851  0.0008 -0.4832
  176MOL0     C23688   7.653   8.036   8.417  0.4120  0.2171 -0.7447
  176MOL0     C23689   7.575   7.984   8.335 -0.5202  0.2557 -0.0573
  176MOL0     C23690   8.282   7.678   8.407 -1.0102  0.0985 -0.0260
  176MOL0     C23691   8.411   7.616   8.418  0.4508 -0.1135 -0.1886
  176MOL0     C23692   8.510   7.644   8.307  0.1652  0.1292 -0.5081
  176MOL0     H23693   8.582   7.187   8.806  0.0412 -0.4010  1.7537
  176MOL0     H23694   8.763   7.061   8.888  3.4650 -2.1576 -0.6166
  176MOL0     H23695   9.059   6.917   8.901  0.8459 -0.4363 -0.6178
  176MOL0     H23696   8.928   6.934   8.794 -0.3473 -1.0940  2.5269
  176MOL0     H23697   9.096   7.005   8.612 -3.5904  0.6566  2.1486
  176MOL0     H23698   9.109   6.831   8.666  3.4731 -1.0734  1.4478
  176MOL0     H23699   9.301   6.924   8.808  0.7105  1.6381  0.1460
  176MOL0     H23700   9.281   7.081   8.726 -0.2633 -0.0279 -0.0740
  176MOL0     H23701   9.321   6.817   8.581 -0.3715  0.3039  2.9572
  176MOL0     H23702   9.342   6.976   8.505  1.8155 -0.9073 -1.6471
  176MOL0     H23703   9.524   7.041   8.640  0.5089  0.5276 -0.1455
  176MOL0     H23704   9.518   6.894   8.742 -0.1649  0.4796 -0.1377
  176MOL0     H23705   9.599   6.769   8.533  0.6217  0.2458  0.4432
  176MOL0     H23706   9.584   6.909   8.435  0.0737  0.4671  0.8806
  176MOL0     H23707   9.766   6.887   8.680  2.4023 -0.4978  0.2421
  176MOL0     H23708   9.758   7.027   8.575  1.8015 -0.8301  0.1773
  176MOL0     H23709   9.880   6.749   8.501  1.5549 -0.2436 -3.0563
  176MOL0     H23710   9.845   6.869   8.383 -1.3440  0.4572  0.0223
  176MOL0     H23711  10.081   6.786   8.684 -0.7686 -0.2663 -1.3990
  176MOL0     H23712  10.316   7.071   8.749  0.5815  0.7278 -1.3556
  176MOL0     H23713  10.263   6.912   8.814  0.6013  2.7764  1.0977
  176MOL0     H23714  10.380   6.792   8.635 -0.1286 -0.4166  2.3444
  176MOL0     H23715  10.424   6.952   8.555  0.2328 -2.5409 -1.3464
  176MOL0     H23716  10.528   6.813   8.801  0.4273 -1.2154  0.0652
  176MOL0     H23717  10.546   6.987   8.790  0.3843  0.6372 -1.6290
  176MOL0     H23718  10.684   6.979   8.589  1.3755 -0.0155 -1.1364
  176MOL0     H23719  10.619   6.814   8.555 -1.0454  1.1417 -1.4699
  176MOL0     H23720  10.910   7.019   8.561  0.0639 -4.8926 -3.3932
  176MOL0     H23721  11.136   7.072   8.609  1.6736 -1.7316 -2.6692
  176MOL0     H23722  11.552   7.190   8.569  0.6231 -1.1697 -2.3903
  176MOL0     H23723  11.789   7.203   8.581  0.8004 -1.0154 -3.8110
  176MOL0     H23724  12.033   7.183   8.549 -1.5808  1.2092  0.6424
  176MOL0     H23725  11.962   7.209   8.712 -1.1311  0.4204 -1.1549
  176MOL0     H23726  12.180   7.251   8.715 -0.0827  0.1407 -3.2421
  176MOL0     H23727  12.165   7.105   8.816  0.8704  2.9209  0.5771
  176MOL0     H23728  12.233   6.967   8.615  1.1850 -0.5413 -0.1017
  176MOL0     H23729  12.258   7.111   8.525 -0.6848  0.9801  1.1400
  176MOL0     H23730  12.424   7.027   8.766 -1.2333 -3.2969 -1.4877
  176MOL0     H23731  12.402   7.198   8.710 -3.9906 -0.9080 -1.0624
  176MOL0     H23732  12.489   7.142   8.477 -0.1059 -0.2870 -0.5808
  176MOL0     H23733  12.507   6.976   8.527  3.6408  0.5895 -1.8526
  176MOL0     H23734  12.677   7.200   8.639  1.4766  0.3861 -1.8311
  176MOL0     H23735  12.681   7.017   8.670 -3.8302 -2.9744 -1.9797
  176MOL0     H23736  12.702   7.132   8.390  0.0964 -0.8822 -0.4042
  176MOL0     H23737  12.743   6.975   8.431  0.5533  1.2408 -1.6961
  176MOL0     H23738  12.948   7.063   8.565 -0.1069 -0.8455  0.5509
  176MOL0     H23739  12.959   7.131   8.399  1.2151 -1.2413  0.7992
  176MOL0     H23740  11.817   6.808   8.717  1.9272  0.4633 -2.6863
  176MOL0     H23741  11.566   6.786   8.722  0.2604 -0.3938  0.6943
  176MOL0     H23742  11.160   6.763   8.899  0.7895 -0.0495 -0.0845
  176MOL0     H23743  10.934   6.703   8.867 -0.1406  1.8820  1.4923
  176MOL0     H23744   9.040   7.305   8.663  1.2619 -1.6522  2.6670
  176MOL0     H23745   8.849   7.434   8.587  0.5264  0.3594  0.6407
  176MOL0     H23746   8.376   7.496   8.737 -0.8236 -1.0428 -0.4870
  176MOL0     H23747   8.149   7.598   8.709 -0.1570 -1.6520 -0.6396
  176MOL0     H23748   8.047   7.827   8.668  0.5638  0.2651  0.0497
  176MOL0     H23749   7.916   7.724   8.627 -0.1105  2.9854  3.8416
  176MOL0     H23750   7.865   7.856   8.417  1.6966  2.2270 -1.6327
  176MOL0     H23751   7.978   7.972   8.462  0.4985  0.3861  1.2341
  176MOL0     H23752   7.878   8.031   8.666  2.5874 -1.4809 -2.5877
  176MOL0     H23753   7.735   7.932   8.649 -2.0967  2.9016  2.5888
  176MOL0     H23754   7.705   8.170   8.573 -0.0183  0.2971 -1.1712
  176MOL0     H23755   7.831   8.150   8.453  2.6505 -1.3487  1.0884
  176MOL0     H23756   7.521   7.928   8.261  0.9780  0.3485 -1.2704
  176MOL0     H23757   8.255   7.737   8.320  3.4071  2.5678 -0.0265
  176MOL0     H23758   8.526   7.551   8.252 -1.5264 -0.3444 -0.2632
  176MOL0     H23759   8.472   7.722   8.240 -3.1936 -0.9180 -0.0065
  176MOL0     H23760   8.597   7.691   8.353 -0.1560  0.3329 -0.0966
  177MOL0     O23761   0.486   4.553   0.309 -0.6989 -0.6524  0.7474
  177MOL0     C23762   0.461   4.443   0.360 -0.8395 -0.7062  0.3119
  177MOL0     O23763   0.548   4.367   0.433  0.3576 -0.0762  0.1993
  177MOL0     C23764   0.672   4.415   0.456 -0.3766 -0.4323 -0.7196
  177MOL0     C23765   0.691   4.483   0.577  0.0173 -1.0710  0.3200
  177MOL0     C23766   0.816   4.537   0.598 -0.9890 -0.0150 -0.1490
  177MOL0     C23767   0.934   4.493   0.532  0.6688  0.0981  0.0290
  177MOL0     O23768   1.060   4.524   0.574  0.0224 -0.2341  0.4824
  177MOL0     C23769   1.088   4.626   0.672  0.2403 -1.1121  0.2075
  177MOL0     C23770   1.235   4.604   0.705 -0.2889  0.2221  0.8130
  177MOL0     C23771   1.304   4.730   0.771 -0.7358 -0.7681  0.5422
  177MOL0     C23772   1.390   4.696   0.901  0.4046 -0.2607  0.5241
  177MOL0     C23773   1.502   4.799   0.929  0.1408  0.8975 -0.5915
  177MOL0     C23774   1.583   4.847   0.813 -0.5099 -0.2248  0.2236
  177MOL0     C23775   1.714   4.919   0.855  0.3164 -0.0103 -0.0306
  177MOL0     C23776   1.770   4.996   0.737  0.1842 -0.0610 -0.0841
  177MOL0     N23777   1.901   5.051   0.761 -0.1767 -0.1876 -0.1721
  177MOL0     C23778   2.013   5.045   0.681  0.7867 -0.0089  0.6856
  177MOL0     C23779   2.109   5.109   0.752  0.0362  0.6298  0.1462
  177MOL0     C23780   2.251   5.134   0.712  0.7048 -0.7312  0.8236
  177MOL0     C23781   2.260   5.237   0.594 -0.4964  0.0881 -0.4553
  177MOL0     C23782   2.394   5.315   0.584 -0.1671 -0.3952 -0.1754
  177MOL0     C23783   2.420   5.412   0.700 -0.3769 -0.8123  0.1471
  177MOL0     O23784   2.533   5.370   0.785  0.1269  0.4465 -0.2394
  177MOL0     C23785   2.656   5.342   0.734 -0.4556 -0.2207  0.0758
  177MOL0     C23786   2.736   5.248   0.803 -0.2840  1.0888  0.1942
  177MOL0     C23787   2.861   5.202   0.774 -1.0242 -0.8376  0.4066
  177MOL0     C23788   2.921   5.276   0.663  0.9798  0.5100  0.7244
  177MOL0     C23789   3.062   5.233   0.628 -0.2684  0.0804 -0.8420
  177MOL0     O23790   3.124   5.130   0.698  0.7660  0.1079  0.2108
  177MOL0     C23791   3.253   5.096   0.673  0.6756 -0.0900 -0.8240
  177MOL0     C23792   3.293   5.058   0.541 -0.6187 -0.3841 -0.1598
  177MOL0     C23793   3.420   5.017   0.512  0.5806 -0.3954 -0.0694
  177MOL0     C23794   3.511   5.002   0.616 -0.1316  0.0208  0.3675
  177MOL0     O23795   3.639   4.955   0.600 -0.5120  0.5240  0.1877
  177MOL0     C23796   3.704   4.997   0.478 -0.4661  0.7462  0.0722
  177MOL0     C23797   3.857   4.987   0.501  0.2583  0.2916 -0.0403
  177MOL0     C23798   3.917   4.853   0.467  0.6244 -1.3737  0.3658
  177MOL0     C23799   4.070   4.865   0.450  0.0329 -0.9659 -1.1913
  177MOL0     C23800   4.139   4.730   0.437  0.0990 -0.9527  0.4597
  177MOL0     C23801   4.282   4.745   0.417  0.2858 -0.2709  0.3098
  177MOL0     C23802   4.367   4.614   0.411  0.1675  0.2299 -0.3767
  177MOL0     C23803   4.508   4.616   0.352 -0.3676 -0.2106 -0.0686
  177MOL0    Cl23804   4.629   4.713   0.441 -0.3130  0.5193  0.1326
  177MOL0     C23805   3.470   5.039   0.748 -0.2207 -0.2836 -0.4584
  177MOL0     C23806   3.342   5.085   0.778 -0.2296  0.2858  0.5709
  177MOL0     O23807   3.111   5.303   0.540 -0.2806  0.0644  0.1838
  177MOL0     C23808   2.843   5.364   0.589  0.0178 -0.0487 -0.1103
  177MOL0     C23809   2.714   5.403   0.625  1.0470  0.6522  0.5108
  177MOL0     N23810   2.068   5.133   0.878 -0.0051 -0.0749  0.1257
  177MOL0     N23811   1.942   5.103   0.878  0.0468 -0.7837 -0.8634
  177MOL0     C23812   0.915   4.412   0.417  0.3573  0.5142 -0.9263
  177MOL0     C23813   0.782   4.387   0.375 -0.1657  0.6793 -0.5821
  177MOL0     C23814   0.319   4.409   0.375  0.2245  0.3550  0.0627
  177MOL0     C23815   0.265   4.374   0.501 -0.2390 -0.0156  0.4034
  177MOL0     C23816   0.135   4.354   0.527 -0.5024 -0.1923 -1.3314
  177MOL0     C23817   0.041   4.366   0.423  0.1213 -0.2654  0.1978
  177MOL0     O23818  -0.100   4.350   0.435  0.2861 -0.2514 -0.0721
  177MOL0     C23819  -0.166   4.309   0.557 -0.4313  0.2310  0.3936
  177MOL0     C23820  -0.323   4.336   0.551 -0.7961 -0.0281  0.2666
  177MOL0     C23821  -0.396   4.235   0.458  0.4505  0.2833 -0.3627
  177MOL0     C23822  -0.547   4.233   0.476 -0.3670  0.4957 -0.4669
  177MOL0     C23823  -0.613   4.331   0.391 -0.0659  0.3491  0.4353
  177MOL0     C23824  -0.660   4.411   0.315 -0.5999 -0.1970 -0.5923
  177MOL0     C23825   0.093   4.382   0.295 -0.1989  1.2264  0.4838
  177MOL0     C23826   0.231   4.407   0.267 -0.8703  0.1534  0.5593
  177MOL0     C23827   0.290   4.441   0.129  0.3143 -0.4360 -0.2665
  177MOL0     H23828   0.605   4.495   0.643  0.7813  2.3678  0.8859
  177MOL0     H23829   0.829   4.599   0.686  0.4246 -2.4108  1.4694
  177MOL0     H23830   1.080   4.725   0.627  0.8833 -1.0889  0.1390
  177MOL0     H23831   1.023   4.624   0.760 -0.6185  3.1460 -0.1128
  177MOL0     H23832   1.280   4.588   0.606  0.0468  2.6096  0.5146
  177MOL0     H23833   1.262   4.519   0.769  1.7729  2.3234  2.9465
  177MOL0     H23834   1.219   4.792   0.799  0.2884  0.0195  2.0674
  177MOL0     H23835   1.371   4.785   0.704  0.2800 -0.1134  2.0464
  177MOL0     H23836   1.325   4.683   0.987  0.6460  0.5379  0.8429
  177MOL0     H23837   1.434   4.600   0.874 -0.2714 -0.0797 -1.4274
  177MOL0     H23838   1.463   4.887   0.980 -1.8716 -1.4262  2.2437
  177MOL0     H23839   1.564   4.749   1.005 -0.2411  2.8198  1.0697
  177MOL0     H23840   1.613   4.771   0.741 -1.5880 -0.3076 -0.1597
  177MOL0     H23841   1.529   4.928   0.763  0.6505  1.6118  1.7898
  177MOL0     H23842   1.790   4.847   0.887  0.5705 -0.3691 -1.3770
  177MOL0     H23843   1.696   4.991   0.935  2.1013  1.6269 -1.0283
  177MOL0     H23844   1.786   4.924   0.656  2.0082 -0.7842  0.8482
  177MOL0     H23845   1.695   5.064   0.698 -0.4252 -0.7467 -0.1361
  177MOL0     H23846   2.018   5.017   0.576 -0.1688 -1.6784  1.0472
  177MOL0     H23847   2.288   5.163   0.810 -1.3296 -0.0485  1.4346
  177MOL0     H23848   2.303   5.040   0.692  2.4227 -0.1979  2.5003
  177MOL0     H23849   2.240   5.184   0.500  1.9787 -2.0135  0.0930
  177MOL0     H23850   2.186   5.317   0.604 -0.1202  1.0732 -4.0200
  177MOL0     H23851   2.398   5.375   0.493  3.1753 -0.9160 -0.4941
  177MOL0     H23852   2.477   5.244   0.576  0.0453 -0.0074 -1.8800
  177MOL0     H23853   2.333   5.432   0.763  0.1035  0.4339  0.4574
  177MOL0     H23854   2.432   5.507   0.646 -0.4785 -2.0627 -2.1885
  177MOL0     H23855   2.686   5.201   0.887 -1.9249  1.8057 -0.3405
  177MOL0     H23856   2.919   5.125   0.825  1.2595  1.7174  1.9162
  177MOL0     H23857   3.210   5.043   0.472  0.3981 -2.1227 -1.0861
  177MOL0     H23858   3.436   5.000   0.406 -1.0559 -0.1337 -0.3846
  177MOL0     H23859   3.664   4.944   0.391  0.3958  0.9718 -0.4681
  177MOL0     H23860   3.691   5.102   0.450  2.1149  0.9752 -0.5259
  177MOL0     H23861   3.902   5.064   0.437  0.2842  0.0903 -0.2696
  177MOL0     H23862   3.873   5.024   0.602 -0.4696 -1.0810  0.5979
  177MOL0     H23863   3.908   4.782   0.550 -2.2548 -0.6749  0.7670
  177MOL0     H23864   3.867   4.812   0.379 -0.8437  0.0406  0.5087
  177MOL0     H23865   4.115   4.908   0.540  0.0965  0.1799 -1.7531
  177MOL0     H23866   4.090   4.940   0.373 -0.0053  0.1588 -0.1458
  177MOL0     H23867   4.091   4.685   0.349 -1.0309  1.6771 -0.3883
  177MOL0     H23868   4.114   4.678   0.529  0.4171  0.5482  1.4298
  177MOL0     H23869   4.282   4.792   0.318 -3.9723  0.7877  0.6240
  177MOL0     H23870   4.313   4.823   0.488 -0.4890 -1.4731  2.0284
  177MOL0     H23871   4.313   4.535   0.357 -0.4149  2.8629 -3.9848
  177MOL0     H23872   4.385   4.577   0.513  0.0552 -2.0773 -1.1280
  177MOL0     H23873   4.543   4.512   0.352 -1.7213 -0.6914  0.7485
  177MOL0     H23874   4.501   4.660   0.253 -0.9741 -0.7885 -0.2939
  177MOL0     H23875   3.541   5.028   0.829  0.3139 -1.7579 -1.0902
  177MOL0     H23876   3.312   5.121   0.876  0.1986 -0.1597  0.8731
  177MOL0     H23877   2.896   5.406   0.504  2.5043 -1.1413  0.7938
  177MOL0     H23878   2.664   5.484   0.572 -0.0750  1.4922  2.7272
  177MOL0     H23879   1.002   4.375   0.363  0.9243 -0.1467  0.4009
  177MOL0     H23880   0.765   4.332   0.283 -0.2344 -0.8998  0.3352
  177MOL0     H23881   0.322   4.381   0.593  0.5713  1.9468 -0.2070
  177MOL0     H23882   0.098   4.340   0.628  0.5867 -0.0047 -0.8983
  177MOL0     H23883  -0.133   4.377   0.636 -0.7948  2.6278 -1.3954
  177MOL0     H23884  -0.148   4.206   0.590 -2.1317 -1.1599 -2.5957
  177MOL0     H23885  -0.351   4.435   0.514 -0.8853 -1.0956 -2.7681
  177MOL0     H23886  -0.364   4.329   0.652  1.3845 -3.7211  1.1086
  177MOL0     H23887  -0.357   4.136   0.486 -0.4001 -0.2499 -1.0112
  177MOL0     H23888  -0.368   4.264   0.356  0.9668 -0.2751 -0.3871
  177MOL0     H23889  -0.590   4.135   0.451  0.2262 -0.3839  1.7802
  177MOL0     H23890  -0.578   4.252   0.579  1.5508  3.5931 -0.3343
  177MOL0     H23891  -0.705   4.479   0.247 -2.2851 -1.8561 -1.2316
  177MOL0     H23892   0.026   4.380   0.210 -0.4329 -1.1426  0.6539
  177MOL0     H23893   0.390   4.400   0.112 -0.3340 -1.9399 -0.6656
  177MOL0     H23894   0.220   4.403   0.053 -0.9800  0.3009  0.5140
  177MOL0     H23895   0.297   4.549   0.115 -0.1151 -0.3120  0.4546
  178MOL0     O23896  10.051  10.821   9.475  0.0817  0.8713 -0.0959
  178MOL0     C23897   9.992  10.774   9.578 -0.2289 -0.1674  0.5885
  178MOL0     O23898  10.059  10.767   9.701  0.1824 -0.3056 -0.4696
  178MOL0     C23899  10.193  10.776   9.713 -0.6394 -0.2827 -0.8005
  178MOL0     C23900  10.245  10.843   9.824  0.5108 -1.2008 -0.2567
  178MOL0     C23901  10.385  10.860   9.845  0.7599 -0.2693  0.4042
  178MOL0     C23902  10.473  10.812   9.753  0.3309 -0.6107  0.6439
  178MOL0     O23903  10.610  10.829   9.763 -0.3197  0.4394 -0.3837
  178MOL0     C23904  10.654  10.965   9.769 -1.1938 -0.7430 -0.8225
  178MOL0     C23905  10.711  10.997   9.912  1.0611 -0.3378 -0.4057
  178MOL0     C23906  10.716  11.148   9.936  0.1225 -0.3912 -0.5117
  178MOL0     C23907  10.802  11.193  10.057  0.1639  0.0752  0.2619
  178MOL0     C23908  10.949  11.181  10.021  0.6064 -0.1262  0.3832
  178MOL0     C23909  11.039  11.242  10.131  0.1719  0.6938  0.1082
  178MOL0     C23910  11.184  11.199  10.105 -1.3288 -0.3095 -0.2265
  178MOL0     C23911  11.296  11.272  10.183 -0.5934 -0.4004 -0.9091
  178MOL0     N23912  11.433  11.241  10.139 -0.4077  0.0073 -0.6364
  178MOL0     C23913  11.531  11.198  10.224 -0.1003 -0.3676 -0.3092
  178MOL0     C23914  11.643  11.197  10.148  0.3107 -0.2232 -0.8441
  178MOL0     C23915  11.780  11.140  10.184  0.1186 -0.5839 -0.0323
  178MOL0     C23916  11.833  11.052  10.067 -0.4128  0.0442  0.7270
  178MOL0     C23917  11.984  11.030  10.091  0.0391  0.5270  0.4899
  178MOL0     C23918  12.064  11.155  10.060 -0.1528 -0.6668 -0.3771
  178MOL0     O23919  12.199  11.125  10.026  0.5279  0.1289  0.1547
  178MOL0     C23920  12.298  11.218  10.015 -0.3518 -0.2037 -0.3401
  178MOL0     C23921  12.290  11.349  10.056  0.1871  0.4371 -0.4016
  178MOL0     C23922  12.395  11.440  10.036 -0.4556 -0.1705 -0.0711
  178MOL0     C23923  12.520  11.396   9.995  0.8991  0.5692 -0.4490
  178MOL0     C23924  12.632  11.485   9.956 -0.0131  1.2973  1.0267
  178MOL0     O23925  12.643  11.592  10.035  0.6808  0.0703  0.5985
  178MOL0     C23926  12.730  11.699  10.016 -0.4132  0.2128  0.0688
  178MOL0     C23927  12.814  11.721   9.902  0.4754  0.7085 -0.6960
  178MOL0     C23928  12.910  11.817   9.909 -0.1804 -0.6819  1.0974
  178MOL0     C23929  12.926  11.907  10.018  0.4423  0.6917  0.1917
  178MOL0     O23930  13.026  12.001  10.014 -0.8800 -0.6410  0.2000
  178MOL0     C23931  13.095  12.041  10.134  0.9168  0.7618 -0.0614
  178MOL0     C23932  13.232  12.081  10.109  0.2656 -0.1635 -0.7088
  178MOL0     C23933  13.327  11.956  10.102  0.0443 -0.8645 -0.7225
  178MOL0     C23934  13.466  11.990  10.048 -0.1438  0.3533  0.8246
  178MOL0     C23935  13.546  11.866  10.057  0.4485 -0.0330 -0.1398
  178MOL0     C23936  13.689  11.898  10.013  0.2808 -0.0481  0.2575
  178MOL0     C23937  13.787  11.786  10.072  0.3256  0.1258  0.6683
  178MOL0     C23938  13.927  11.839  10.052  0.2005 -0.3172  0.4501
  178MOL0    Cl23939  13.968  11.988  10.142 -0.1351  0.1843 -0.2393
  178MOL0     C23940  12.824  11.901  10.112  0.8255 -0.3210  0.3413
  178MOL0     C23941  12.731  11.796  10.115  1.0401 -0.1458  0.0285
  178MOL0     O23942  12.692  11.458   9.850  0.2917 -0.0743 -0.2065
  178MOL0     C23943  12.516  11.260   9.951 -0.0952  0.0265  0.1396
  178MOL0     C23944  12.412  11.174   9.953  0.6852  0.5063 -0.1420
  178MOL0     N23945  11.612  11.258  10.030 -0.0833  0.7708  0.7234
  178MOL0     N23946  11.486  11.272  10.020 -0.4053 -0.5526  0.0260
  178MOL0     C23947  10.429  10.739   9.654 -0.3150  0.0397  0.0784
  178MOL0     C23948  10.287  10.714   9.635  0.2389 -0.1525 -0.3096
  178MOL0     C23949   9.853  10.723   9.570  0.0280 -0.8445 -0.0947
  178MOL0     C23950   9.779  10.704   9.686  0.2188  0.2510  0.6971
  178MOL0     C23951   9.648  10.662   9.683 -0.2722 -0.7528  0.6195
  178MOL0     C23952   9.577  10.640   9.563  0.0289  0.3481 -0.1538
  178MOL0     O23953   9.444  10.610   9.556  0.9304  0.8779 -0.3290
  178MOL0     C23954   9.387  10.538   9.665  0.0043  0.3202 -0.2900
  178MOL0     C23955   9.272  10.462   9.606 -0.8454  0.5771  0.3827
  178MOL0     C23956   9.210  10.361   9.704  0.7245 -0.6611 -0.7422
  178MOL0     C23957   9.120  10.248   9.649 -0.4321  1.1702 -0.3180
  178MOL0     C23958   9.057  10.165   9.753  0.2347  0.0373 -0.1566
  178MOL0     C23959   8.999  10.102   9.842  0.2121 -0.2097 -0.1052
  178MOL0     C23960   9.644  10.675   9.445  0.1849 -0.3588  0.5274
  178MOL0     C23961   9.777  10.720   9.445 -0.9622 -0.9503  0.9337
  178MOL0     C23962   9.832  10.769   9.307 -0.1840  0.3458 -0.1565
  178MOL0     H23963  10.172  10.887   9.891  1.2513  0.3699 -0.4424
  178MOL0     H23964  10.428  10.905   9.934 -1.0628 -1.2472  1.8646
  178MOL0     H23965  10.727  10.985   9.690 -2.0426  1.1425 -1.1786
  178MOL0     H23966  10.570  11.035   9.758  0.5251  1.8782  1.4576
  178MOL0     H23967  10.800  10.943   9.946  0.4903 -0.1527  1.5496
  178MOL0     H23968  10.644  10.963   9.991  1.3309  2.1376  1.0244
  178MOL0     H23969  10.613  11.186   9.938 -0.1097 -1.0231 -0.3658
  178MOL0     H23970  10.756  11.191   9.844  0.0757  0.2064 -0.2587
  178MOL0     H23971  10.775  11.297  10.077  1.5657  0.6081 -0.4881
  178MOL0     H23972  10.793  11.151  10.157  1.8461 -0.7251  0.1125
  178MOL0     H23973  10.977  11.077  10.000  0.4003 -0.3875  1.3383
  178MOL0     H23974  10.971  11.241   9.932  1.2366 -1.2776 -0.2691
  178MOL0     H23975  11.040  11.351  10.140 -4.4583  0.9641 -0.1225
  178MOL0     H23976  11.014  11.194  10.226 -3.7188 -2.8733 -2.3179
  178MOL0     H23977  11.213  11.215  10.000 -1.4595  2.7295  0.1100
  178MOL0     H23978  11.200  11.093  10.125 -1.6265 -0.3939 -0.4308
  178MOL0     H23979  11.275  11.379  10.176 -0.1854 -0.3427 -1.3329
  178MOL0     H23980  11.277  11.247  10.288  0.2746 -0.1989 -0.6967
  178MOL0     H23981  11.513  11.152  10.321 -2.2814  4.3019  1.8151
  178MOL0     H23982  11.847  11.211  10.234 -2.0907  0.7135  1.2616
  178MOL0     H23983  11.752  11.075  10.268  1.7613  1.9521  2.6992
  178MOL0     H23984  11.770  10.963  10.067  0.5422 -0.8461 -3.4935
  178MOL0     H23985  11.826  11.099   9.968  1.3481 -1.8984 -0.4184
  178MOL0     H23986  12.013  10.946  10.027 -1.4201  1.0956 -0.9817
  178MOL0     H23987  11.991  11.010  10.199 -1.9880  1.3378  0.7980
  178MOL0     H23988  12.059  11.221  10.147 -0.8450 -0.1948 -0.7680
  178MOL0     H23989  12.015  11.202   9.974  0.0674 -0.4763 -0.4013
  178MOL0     H23990  12.198  11.385  10.101  0.4083 -0.4365  0.7933
  178MOL0     H23991  12.382  11.546  10.055  0.5543  0.4072 -2.3120
  178MOL0     H23992  12.806  11.664   9.810  1.1987 -2.3599  1.0290
  178MOL0     H23993  12.972  11.842   9.824 -1.7529 -3.3320 -0.9826
  178MOL0     H23994  13.042  12.128  10.175  0.8881  1.4874 -1.5573
  178MOL0     H23995  13.089  11.957  10.203 -0.2341  0.1614 -0.8444
  178MOL0     H23996  13.244  12.130  10.012 -0.4894 -1.0282 -1.2504
  178MOL0     H23997  13.265  12.139  10.196  1.1917 -1.9141  0.1509
  178MOL0     H23998  13.324  11.910  10.201 -0.3018 -1.0780 -0.8297
  178MOL0     H23999  13.285  11.892  10.024  1.0327 -1.1475 -1.0345
  178MOL0     H24000  13.496  12.080  10.102 -2.3991 -0.2831  3.3776
  178MOL0     H24001  13.473  12.024   9.944  0.5071  2.2649  1.4493
  178MOL0     H24002  13.511  11.782   9.995  0.2316 -0.5151  0.6211
  178MOL0     H24003  13.540  11.827  10.159 -0.8269  2.2543  0.7244
  178MOL0     H24004  13.699  11.909   9.905  1.8164  0.1801  0.4065
  178MOL0     H24005  13.714  11.999  10.046  1.0968 -0.0182 -0.4247
  178MOL0     H24006  13.780  11.690  10.021  0.1932  0.0954  0.7447
  178MOL0     H24007  13.772  11.765  10.179  0.5508 -2.4310  0.2648
  178MOL0     H24008  13.998  11.762  10.083 -0.0720 -1.4686 -1.6306
  178MOL0     H24009  13.939  11.849   9.944  0.4078 -3.0432  0.1524
  178MOL0     H24010  12.813  11.975  10.190 -2.5732 -0.4025  0.0825
  178MOL0     H24011  12.650  11.798  10.187  1.1640 -0.0495  0.1655
  178MOL0     H24012  12.606  11.231   9.897  0.7279  4.2345 -1.1193
  178MOL0     H24013  12.426  11.081   9.900  3.1209  2.1176 -2.6069
  178MOL0     H24014  10.501  10.707   9.580 -0.6243 -3.0219  0.9836
  178MOL0     H24015  10.261  10.673   9.538  1.1812  0.7546 -0.9727
  178MOL0     H24016   9.825  10.728   9.781 -2.1698  5.0345  0.9463
  178MOL0     H24017   9.602  10.655   9.781  0.6377 -0.1152  1.1083
  178MOL0     H24018   9.353  10.608   9.742  0.2532  1.5031 -1.2303
  178MOL0     H24019   9.460  10.467   9.705 -1.1025 -0.4108  0.4959
  178MOL0     H24020   9.315  10.419   9.515 -1.9185 -0.2316  0.2421
  178MOL0     H24021   9.194  10.536   9.586 -1.7702  0.5185  3.2531
  178MOL0     H24022   9.156  10.423   9.777  1.5163  2.2605 -2.4942
  178MOL0     H24023   9.297  10.329   9.761 -0.1933 -0.2998  0.9369
  178MOL0     H24024   9.034  10.281   9.590 -2.2129 -2.2852  0.1015
  178MOL0     H24025   9.186  10.185   9.588 -2.3720  1.2529 -2.6374
  178MOL0     H24026   8.955  10.059   9.930  0.8128  0.4949  0.5655
  178MOL0     H24027   9.583  10.674   9.355  1.2241 -1.8436 -0.1964
  178MOL0     H24028   9.861  10.873   9.322 -0.4080  0.5330 -1.0226
  178MOL0     H24029   9.920  10.711   9.278  1.3631  2.0481  0.9267
  178MOL0     H24030   9.758  10.756   9.228  0.5105  1.0685 -0.9508
  179MOL0     O24031   2.877   8.655   3.142 -1.1310 -0.6500 -0.6607
  179MOL0     C24032   2.842   8.702   3.252 -0.4028  0.6929  0.3036
  179MOL0     O24033   2.936   8.772   3.329 -0.1423 -0.0036 -0.0748
  179MOL0     C24034   3.059   8.813   3.288 -0.4413  0.5811  0.1388
  179MOL0     C24035   3.094   8.896   3.182 -0.4220  0.3636 -0.1050
  179MOL0     C24036   3.232   8.930   3.159 -0.2124 -0.1111 -0.2672
  179MOL0     C24037   3.338   8.882   3.224 -0.2261 -0.2413 -0.0963
  179MOL0     O24038   3.468   8.922   3.209  0.7049 -0.4708 -0.0442
  179MOL0     C24039   3.513   9.021   3.300  0.9432 -0.2245 -0.5504
  179MOL0     C24040   3.656   9.048   3.282  0.7812  0.1656  0.2129
  179MOL0     C24041   3.740   8.918   3.272  0.0000 -0.6180  0.1031
  179MOL0     C24042   3.737   8.845   3.402 -0.7237 -0.2612 -0.1477
  179MOL0     C24043   3.847   8.733   3.401  0.2014  0.0306  0.2056
  179MOL0     C24044   3.989   8.794   3.392  0.5942  0.3286  0.3239
  179MOL0     C24045   4.085   8.686   3.418 -0.5420 -0.1593  0.1102
  179MOL0     C24046   4.217   8.738   3.373 -0.3815  0.2185  0.1746
  179MOL0     N24047   4.323   8.639   3.383 -0.5806 -0.0807 -0.3618
  179MOL0     C24048   4.315   8.515   3.426  1.1095  0.4950  0.1568
  179MOL0     C24049   4.430   8.458   3.378  0.5249  0.0520 -0.5302
  179MOL0     C24050   4.457   8.310   3.392 -0.4969 -0.4690 -0.5921
  179MOL0     C24051   4.555   8.273   3.507 -0.3667 -1.0375 -0.0753
  179MOL0     C24052   4.696   8.341   3.485  0.2488  0.5065 -0.4143
  179MOL0     C24053   4.767   8.281   3.354  0.5495  0.5928 -1.1316
  179MOL0     O24054   4.784   8.138   3.391  0.0116 -0.4990  0.0840
  179MOL0     C24055   4.896   8.116   3.468  0.0074  0.0029  0.6529
  179MOL0     C24056   4.907   7.982   3.495 -0.5524 -0.5235  0.3180
  179MOL0     C24057   5.025   7.935   3.556 -0.2689  0.0725 -0.2394
  179MOL0     C24058   5.124   8.022   3.605  0.8555  0.2408 -0.7863
  179MOL0     C24059   5.240   7.965   3.669 -0.5575 -0.2950  0.4100
  179MOL0     O24060   5.314   8.049   3.739 -0.7004 -0.6923 -0.2759
  179MOL0     C24061   5.422   8.026   3.820 -0.4829  0.1124  0.8810
  179MOL0     C24062   5.489   7.898   3.844 -0.2173 -0.2543  0.0155
  179MOL0     C24063   5.583   7.880   3.946  0.3761 -0.0817 -0.4168
  179MOL0     C24064   5.618   7.986   4.034  0.7662  0.1341 -0.2923
  179MOL0     O24065   5.704   7.981   4.141 -0.6731 -0.1946  0.5467
  179MOL0     C24066   5.804   7.883   4.140 -0.5283 -0.4260 -0.2435
  179MOL0     C24067   5.894   7.921   4.267 -1.0396 -0.1853 -0.3477
  179MOL0     C24068   5.986   7.808   4.304  0.4586  0.9010  0.6571
  179MOL0     C24069   6.070   7.851   4.420 -0.4596 -0.1224  0.1768
  179MOL0     C24070   6.181   7.752   4.454  0.1114  0.9994  0.2077
  179MOL0     C24071   6.283   7.820   4.548  0.5368  0.5092 -0.3579
  179MOL0     C24072   6.395   7.730   4.593 -0.2679  0.7987  0.0692
  179MOL0     C24073   6.512   7.813   4.660  0.3282 -0.5784 -0.0874
  179MOL0    Cl24074   6.596   7.945   4.554  0.4653  0.1688  0.1929
  179MOL0     C24075   5.556   8.112   4.008  1.0931 -0.1729  0.2052
  179MOL0     C24076   5.462   8.134   3.908 -0.4138  0.4257 -0.1150
  179MOL0     O24077   5.268   7.845   3.658  0.6593  0.3520 -0.1443
  179MOL0     C24078   5.103   8.153   3.592  0.3868  0.0244  0.7719
  179MOL0     C24079   4.986   8.203   3.519 -0.1523 -0.5154 -0.6242
  179MOL0     N24080   4.487   8.543   3.285  0.0966 -0.0303  0.7822
  179MOL0     N24081   4.436   8.664   3.302  0.1327  0.3801 -1.1144
  179MOL0     C24082   3.297   8.807   3.333 -0.0174  1.3498 -0.2385
  179MOL0     C24083   3.164   8.769   3.365 -0.3359 -0.4053 -0.1021
  179MOL0     C24084   2.703   8.710   3.297 -0.7107 -0.3625  0.2462
  179MOL0     C24085   2.673   8.789   3.410 -0.3403 -0.2796  0.5713
  179MOL0     C24086   2.544   8.804   3.453 -0.0012 -0.3498  0.0857
  179MOL0     C24087   2.435   8.746   3.386 -0.5761  0.1518  0.0855
  179MOL0     O24088   2.301   8.745   3.426  0.1973 -0.0291 -0.3257
  179MOL0     C24089   2.285   8.761   3.568  0.7272 -0.0497  0.4309
  179MOL0     C24090   2.141   8.757   3.588 -0.3422 -0.3123  0.0904
  179MOL0     C24091   2.103   8.773   3.735  0.3655 -0.3064  0.6578
  179MOL0     C24092   2.103   8.640   3.809  0.4473  0.0929  0.1406
  179MOL0     C24093   1.971   8.573   3.831 -0.0277 -1.0986 -0.1729
  179MOL0     C24094   1.871   8.513   3.844  0.2097 -1.6745 -0.0379
  179MOL0     C24095   2.459   8.663   3.278  1.2517  0.9942 -0.5269
  179MOL0     C24096   2.595   8.635   3.238  0.4737 -0.1233 -0.0311
  179MOL0     C24097   2.605   8.548   3.124 -0.9621 -0.2872 -0.0646
  179MOL0     H24098   3.025   8.939   3.112  1.1712  0.8331 -1.4565
  179MOL0     H24099   3.242   8.997   3.074  4.4486  0.2879  0.3093
  179MOL0     H24100   3.469   9.119   3.279  1.9298  0.2508 -0.4224
  179MOL0     H24101   3.495   8.999   3.406  1.7861 -0.7080 -0.5011
  179MOL0     H24102   3.689   9.108   3.367  1.6556  0.1057 -0.0818
  179MOL0     H24103   3.663   9.103   3.188  0.2774 -2.4588 -1.4836
  179MOL0     H24104   3.835   8.951   3.229  0.5881 -2.3973 -0.0416
  179MOL0     H24105   3.703   8.847   3.197  0.8654  0.8412 -1.8027
  179MOL0     H24106   3.755   8.906   3.491  0.5400  1.6126 -1.6232
  179MOL0     H24107   3.644   8.790   3.420 -0.5694 -0.0119  1.6450
  179MOL0     H24108   3.828   8.671   3.489 -2.3600 -1.2793 -1.1497
  179MOL0     H24109   3.830   8.682   3.306 -1.2190 -0.0080  0.4509
  179MOL0     H24110   4.011   8.842   3.296  2.6395 -0.2190  0.4722
  179MOL0     H24111   4.000   8.878   3.462  1.6838 -0.1550  0.7525
  179MOL0     H24112   4.048   8.603   3.357 -3.0049 -0.0038  1.2836
  179MOL0     H24113   4.099   8.650   3.521 -2.4986  2.7870  1.5232
  179MOL0     H24114   4.220   8.762   3.266  2.6581  1.2020  0.3780
  179MOL0     H24115   4.252   8.828   3.424  0.5156 -0.1446  0.2213
  179MOL0     H24116   4.233   8.459   3.470  2.1611  0.1615  1.7895
  179MOL0     H24117   4.364   8.259   3.420  1.0592 -1.6085  3.1014
  179MOL0     H24118   4.487   8.267   3.296 -1.8797 -0.1921 -1.1780
  179MOL0     H24119   4.533   8.315   3.606  1.6001  1.1262 -0.4564
  179MOL0     H24120   4.556   8.164   3.513 -0.9795 -1.0257  0.3518
  179MOL0     H24121   4.746   8.338   3.582 -4.1880 -1.3817  2.1274
  179MOL0     H24122   4.694   8.448   3.463  1.8250  0.3828 -1.3687
  179MOL0     H24123   4.860   8.332   3.326  1.3722 -0.6576 -0.8054
  179MOL0     H24124   4.697   8.290   3.271  0.0980 -0.6746 -0.9136
  179MOL0     H24125   4.828   7.913   3.471 -0.3326 -0.7341  0.2028
  179MOL0     H24126   5.036   7.831   3.585  2.8341  0.4034  0.0751
  179MOL0     H24127   5.466   7.813   3.781  1.7731  0.0968 -1.2454
  179MOL0     H24128   5.639   7.789   3.964 -0.9989 -0.4421  2.5337
  179MOL0     H24129   5.762   7.782   4.144 -2.1781  0.2439  0.3228
  179MOL0     H24130   5.865   7.893   4.049  0.9711 -1.1406  0.6475
  179MOL0     H24131   5.956   8.008   4.242  0.6392 -1.4763 -0.8150
  179MOL0     H24132   5.824   7.940   4.349 -1.3581  0.9409 -0.8578
  179MOL0     H24133   5.927   7.724   4.342 -1.7009  1.8022 -0.5888
  179MOL0     H24134   6.048   7.775   4.220  1.7693  3.4399  0.5414
  179MOL0     H24135   6.009   7.877   4.507 -0.2499  0.8796  0.0319
  179MOL0     H24136   6.116   7.946   4.393  1.7189 -1.3371 -0.6979
  179MOL0     H24137   6.226   7.710   4.363 -0.0912  0.8127  0.1923
  179MOL0     H24138   6.139   7.663   4.501 -0.1776  0.4014 -1.1190
  179MOL0     H24139   6.314   7.913   4.500  2.4904 -0.1890 -0.5342
  179MOL0     H24140   6.215   7.843   4.632  0.8128 -1.5005  0.4787
  179MOL0     H24141   6.437   7.683   4.504  2.4817  3.1699 -0.0132
  179MOL0     H24142   6.352   7.655   4.660 -0.4187 -1.2116 -2.1768
  179MOL0     H24143   6.470   7.862   4.748 -0.4007  1.9642 -1.7558
  179MOL0     H24144   6.592   7.748   4.699  0.8250 -0.3750 -0.7380
  179MOL0     H24145   5.581   8.193   4.076  1.7907  0.0208 -0.2747
  179MOL0     H24146   5.415   8.232   3.910 -1.5782  0.0275 -2.8130
  179MOL0     H24147   5.183   8.219   3.623  1.5142 -0.5455 -0.7384
  179MOL0     H24148   4.978   8.311   3.512 -1.5731 -0.5491  0.1637
  179MOL0     H24149   3.384   8.775   3.388  0.1731  2.5640  0.1954
  179MOL0     H24150   3.140   8.687   3.432 -1.2735 -2.0158 -2.2897
  179MOL0     H24151   2.749   8.849   3.458 -0.7323  0.3383  0.4335
  179MOL0     H24152   2.523   8.850   3.549 -0.3459  0.3571 -0.3251
  179MOL0     H24153   2.330   8.851   3.610 -1.6305  2.1355 -1.4216
  179MOL0     H24154   2.332   8.683   3.629 -1.1626  0.6351  2.9086
  179MOL0     H24155   2.084   8.675   3.545 -3.3299  2.6113 -2.0658
  179MOL0     H24156   2.104   8.844   3.532 -1.0638 -1.2892 -1.0149
  179MOL0     H24157   2.004   8.820   3.739  0.2464 -0.5435  0.5280
  179MOL0     H24158   2.169   8.848   3.779  0.8272  0.1261 -0.7554
  179MOL0     H24159   2.178   8.569   3.774  1.6489  1.3859 -0.0245
  179MOL0     H24160   2.134   8.668   3.910 -2.8020 -1.9097  1.8860
  179MOL0     H24161   1.799   8.434   3.848  0.5537 -1.9560  0.8581
  179MOL0     H24162   2.372   8.618   3.231  0.4124  0.3787  1.5121
  179MOL0     H24163   2.523   8.479   3.104  0.4090 -1.6937 -1.0686
  179MOL0     H24164   2.627   8.616   3.041  0.1010  2.1827  2.0972
  179MOL0     H24165   2.686   8.477   3.143  0.8215  1.4370 -0.8586
  180MOL0     O24166   5.121   9.530   7.117 -0.7581 -0.2190 -0.2682
  180MOL0     C24167   5.121   9.637   7.171  1.2123 -0.6311  0.7134
  180MOL0     O24168   5.236   9.702   7.225  0.0043 -0.3653  0.3672
  180MOL0     C24169   5.358   9.654   7.245  0.2135 -0.5890 -0.4451
  180MOL0     C24170   5.479   9.735   7.253  0.1671  0.0938 -0.1659
  180MOL0     C24171   5.604   9.681   7.286 -0.1419  1.0078 -0.1581
  180MOL0     C24172   5.619   9.536   7.309  0.2247 -0.3242 -0.0366
  180MOL0     O24173   5.740   9.483   7.339  0.0055  0.2715 -0.7938
  180MOL0     C24174   5.761   9.345   7.317  0.4463 -0.1177 -0.1725
  180MOL0     C24175   5.923   9.324   7.332  0.4076  0.5039 -0.8706
  180MOL0     C24176   5.978   9.381   7.467  1.4344  0.0957  0.3645
  180MOL0     C24177   6.127   9.350   7.493 -0.3448 -0.2504 -0.2379
  180MOL0     C24178   6.160   9.409   7.633  0.3457 -0.5244  0.3980
  180MOL0     C24179   6.304   9.433   7.641  0.1362  0.3373 -0.1737
  180MOL0     C24180   6.356   9.491   7.772 -0.1938  0.4081 -0.2759
  180MOL0     C24181   6.509   9.481   7.782  0.1163  0.4179 -0.4419
  180MOL0     N24182   6.554   9.536   7.914  0.1729 -0.1233  0.6007
  180MOL0     C24183   6.627   9.465   8.007 -0.0653  0.2025  0.2008
  180MOL0     C24184   6.660   9.551   8.105 -1.5331 -0.5606  0.4848
  180MOL0     C24185   6.744   9.521   8.223 -0.7070  0.0459 -0.7026
  180MOL0     C24186   6.899   9.495   8.196 -0.0955  0.4538 -0.3248
  180MOL0     C24187   6.924   9.381   8.101  0.1512  0.0750  0.7573
  180MOL0     C24188   7.067   9.335   8.104  0.4134  0.5366  0.0831
  180MOL0     O24189   7.167   9.418   8.035 -0.2087 -0.2557  0.8987
  180MOL0     C24190   7.301   9.377   8.031  0.0211 -0.1642  0.0243
  180MOL0     C24191   7.353   9.253   8.035  0.6839 -0.0689  0.7645
  180MOL0     C24192   7.491   9.219   8.027 -0.1431 -0.4412 -0.5181
  180MOL0     C24193   7.586   9.322   8.004 -0.7685  0.3215 -0.5612
  180MOL0     C24194   7.730   9.302   7.993  0.8674 -0.1423  0.0631
  180MOL0     O24195   7.802   9.412   7.957  0.6993 -0.5693 -0.6591
  180MOL0     C24196   7.942   9.425   7.974  0.1965  0.2395  0.5398
  180MOL0     C24197   8.007   9.512   7.895 -1.4915  0.1906 -0.3724
  180MOL0     C24198   8.150   9.515   7.901  0.9540 -0.4985  0.4509
  180MOL0     C24199   8.223   9.433   7.989  0.7703 -0.3052  0.1040
  180MOL0     O24200   8.355   9.438   7.985 -0.4076 -0.0071  0.1378
  180MOL0     C24201   8.433   9.319   8.031 -0.0161 -0.6596  0.4182
  180MOL0     C24202   8.577   9.326   7.969  0.0856 -0.4667  0.4902
  180MOL0     C24203   8.576   9.266   7.826 -0.1610 -0.1468  0.3778
  180MOL0     C24204   8.698   9.286   7.727 -0.2440  0.8619 -0.6164
  180MOL0     C24205   8.720   9.434   7.700  0.4668  0.1593  0.1312
  180MOL0     C24206   8.779   9.479   7.565  0.0837  0.2203 -0.4691
  180MOL0     C24207   8.932   9.439   7.555  0.4006  0.1161  0.3167
  180MOL0     C24208   8.991   9.485   7.416  0.3185 -0.1053 -1.0607
  180MOL0    Cl24209   8.948   9.370   7.283  0.0280 -0.2152  0.0110
  180MOL0     C24210   8.150   9.357   8.080 -0.0366 -0.6662  0.1063
  180MOL0     C24211   8.008   9.352   8.073 -0.4026 -0.1726 -0.0013
  180MOL0     O24212   7.762   9.198   8.036  0.3449  0.7489 -0.2947
  180MOL0     C24213   7.530   9.450   7.994 -0.1455 -0.0762 -0.0828
  180MOL0     C24214   7.392   9.476   7.998 -1.0705  0.0452 -0.0423
  180MOL0     N24215   6.605   9.673   8.073  0.2071 -0.3376  0.7204
  180MOL0     N24216   6.548   9.666   7.955  0.0265  0.1426  0.2878
  180MOL0     C24217   5.500   9.458   7.300 -0.0436  0.2317 -0.3291
  180MOL0     C24218   5.376   9.509   7.266 -0.3652 -0.3875 -0.5142
  180MOL0     C24219   4.989   9.701   7.178  0.0156 -0.1502  0.1815
  180MOL0     C24220   4.986   9.843   7.190  0.0339 -0.4467  0.2385
  180MOL0     C24221   4.865   9.905   7.170 -0.9625  0.3004  0.4020
  180MOL0     C24222   4.744   9.841   7.161 -0.1656 -0.3025  0.5383
  180MOL0     O24223   4.637   9.922   7.144  0.2214  0.4238  0.7787
  180MOL0     C24224   4.506   9.874   7.092  0.3505  0.4789  0.3124
  180MOL0     C24225   4.406   9.894   7.204  0.4859 -0.4983 -0.9299
  180MOL0     C24226   4.382  10.051   7.205  0.4358  0.0619 -0.1414
  180MOL0     C24227   4.251  10.062   7.284  0.0433 -0.9800 -0.1926
  180MOL0     C24228   4.202  10.201   7.295 -0.3748  0.2583 -0.3638
  180MOL0     C24229   4.156  10.316   7.290 -1.1932  0.1242 -0.4552
  180MOL0     C24230   4.750   9.702   7.173 -0.8307  0.8509 -0.6780
  180MOL0     C24231   4.870   9.628   7.186 -0.0051 -0.4266  0.8189
  180MOL0     C24232   4.858   9.483   7.221  0.6129  0.8963  0.4711
  180MOL0     H24233   5.479   9.844   7.243 -2.6809  0.4765  2.4342
  180MOL0     H24234   5.696   9.735   7.302 -0.9732  2.3361  0.3480
  180MOL0     H24235   5.727   9.287   7.403  3.0429 -1.2898  0.1759
  180MOL0     H24236   5.726   9.315   7.218  0.0244 -0.6783  0.1449
  180MOL0     H24237   5.975   9.358   7.242 -3.5018 -0.8792 -3.9437
  180MOL0     H24238   5.936   9.215   7.329 -4.6835 -0.3395 -2.4226
  180MOL0     H24239   5.917   9.346   7.550 -0.0549  3.7352  0.9973
  180MOL0     H24240   5.978   9.490   7.454  0.3879 -0.0847 -1.4787
  180MOL0     H24241   6.152   9.244   7.490 -0.8069 -0.3754  0.2443
  180MOL0     H24242   6.179   9.402   7.412 -2.3066  1.9517 -0.2137
  180MOL0     H24243   6.116   9.505   7.663  0.1150 -0.8939  1.2797
  180MOL0     H24244   6.138   9.333   7.709  2.8777 -0.9451  0.7833
  180MOL0     H24245   6.345   9.332   7.629  0.6927  0.6719 -1.2775
  180MOL0     H24246   6.340   9.490   7.554  2.9343 -2.6277 -1.1549
  180MOL0     H24247   6.313   9.428   7.851 -0.1339 -1.8940 -1.9594
  180MOL0     H24248   6.333   9.597   7.766  2.0991  1.0114  0.6211
  180MOL0     H24249   6.539   9.375   7.786 -0.6697  0.2119  0.5144
  180MOL0     H24250   6.556   9.527   7.695 -0.8002 -0.3555 -1.3682
  180MOL0     H24251   6.657   9.361   8.008 -0.7412 -0.0242 -1.2664
  180MOL0     H24252   6.736   9.611   8.284 -0.4195  1.2434 -2.3851
  180MOL0     H24253   6.713   9.432   8.278 -1.0617 -0.8377 -2.2657
  180MOL0     H24254   6.940   9.584   8.148 -0.1460  0.5025 -0.2780
  180MOL0     H24255   6.947   9.469   8.291 -1.4814  0.5057  0.4094
  180MOL0     H24256   6.909   9.423   8.001  4.2816  4.1463  1.5254
  180MOL0     H24257   6.861   9.292   8.114  1.7821 -1.0872  0.8969
  180MOL0     H24258   7.070   9.237   8.056  1.3240 -0.0351  1.2757
  180MOL0     H24259   7.100   9.327   8.208 -0.9882  0.3631  0.5344
  180MOL0     H24260   7.281   9.173   8.045  2.5053 -1.6929  1.5196
  180MOL0     H24261   7.518   9.115   8.015  0.9360  0.1112 -4.0326
  180MOL0     H24262   7.967   9.583   7.823 -0.1249 -2.4955 -4.0471
  180MOL0     H24263   8.201   9.584   7.834 -0.3253 -0.4708 -0.5395
  180MOL0     H24264   8.452   9.338   8.137 -2.9763  0.4378  0.8589
  180MOL0     H24265   8.385   9.223   8.008 -0.9511 -0.1789  0.3243
  180MOL0     H24266   8.614   9.428   7.957 -0.1248 -0.5757 -1.4155
  180MOL0     H24267   8.644   9.266   8.032 -1.8547 -1.3818  1.7704
  180MOL0     H24268   8.554   9.160   7.838 -0.2657 -0.0935  0.6803
  180MOL0     H24269   8.491   9.313   7.775  0.2960 -0.8908 -1.1125
  180MOL0     H24270   8.688   9.228   7.635 -2.4008  0.9878 -0.5256
  180MOL0     H24271   8.786   9.248   7.780 -2.5207  0.3422  3.2571
  180MOL0     H24272   8.792   9.466   7.777  1.8235 -0.3571 -0.8779
  180MOL0     H24273   8.624   9.485   7.710  0.2208 -0.4286  0.8385
  180MOL0     H24274   8.729   9.428   7.483  1.6235 -1.0000 -0.6838
  180MOL0     H24275   8.755   9.586   7.564 -0.9349  0.0144 -0.0448
  180MOL0     H24276   8.950   9.331   7.564  2.3225  0.4343  0.7697
  180MOL0     H24277   8.980   9.486   7.640  1.3506 -3.2553  1.8358
  180MOL0     H24278   8.958   9.589   7.406 -1.0175 -0.6058 -2.2862
  180MOL0     H24279   9.099   9.468   7.422  0.4840  1.3307  1.1974
  180MOL0     H24280   8.195   9.297   8.159 -0.8548  0.1105  1.1917
  180MOL0     H24281   7.957   9.293   8.148 -1.9743  0.4063 -0.5658
  180MOL0     H24282   7.598   9.530   7.965 -1.7092  0.7011 -1.7954
  180MOL0     H24283   7.356   9.575   7.971  1.7959  0.9228 -1.0608
  180MOL0     H24284   5.504   9.358   7.342 -2.9422  1.7282  4.3765
  180MOL0     H24285   5.301   9.431   7.256  1.4585 -2.1621 -1.0347
  180MOL0     H24286   5.079   9.897   7.184 -0.1012 -0.3686 -1.6578
  180MOL0     H24287   4.859  10.013   7.163  0.0070  0.4270  1.3062
  180MOL0     H24288   4.517   9.768   7.068 -2.5410  0.1297  0.2099
  180MOL0     H24289   4.469   9.914   6.998  1.0090  0.0623 -0.1380
  180MOL0     H24290   4.440   9.858   7.302 -0.2385 -0.6372 -0.7245
  180MOL0     H24291   4.319   9.835   7.177  0.5787 -0.7245 -0.7390
  180MOL0     H24292   4.363  10.096   7.107 -1.9215  1.8695  1.0262
  180MOL0     H24293   4.465  10.105   7.252 -0.0964  0.3683  0.4757
  180MOL0     H24294   4.174   9.995   7.245 -0.8341  0.0696 -0.3148
  180MOL0     H24295   4.267  10.037   7.389 -1.1991  1.2561  0.6117
  180MOL0     H24296   4.127  10.419   7.292  1.1817  0.9023 -2.0443
  180MOL0     H24297   4.656   9.650   7.188  0.5706 -1.5194  0.3743
  180MOL0     H24298   4.939   9.441   7.279  0.8063 -0.2903 -0.6176
  180MOL0     H24299   4.768   9.462   7.279  3.0823 -2.5944  3.4404
  180MOL0     H24300   4.859   9.428   7.126  1.2977  0.3938  0.7662
  181MOL0     O24301   9.750   2.250   4.012 -0.4564 -0.2166 -0.2886
  181MOL0     C24302   9.776   2.130   4.010 -0.7693 -0.9036  0.4494
  181MOL0     O24303   9.889   2.087   4.066 -0.2360 -0.3963 -0.1537
  181MOL0     C24304   9.975   2.169   4.129 -0.1586  0.0858 -0.3666
  181MOL0     C24305  10.047   2.265   4.055  0.7084 -0.2705 -0.3890
  181MOL0     C24306  10.135   2.347   4.129  0.0664 -0.2560 -0.9977
  181MOL0     C24307  10.157   2.336   4.266 -1.0044 -0.4800  0.4882
  181MOL0     O24308  10.229   2.431   4.335  0.0595 -0.1172  0.3237
  181MOL0     C24309  10.312   2.517   4.264 -0.0279 -0.7835 -0.0495
  181MOL0     C24310  10.372   2.610   4.378 -0.2011 -0.3064 -0.6198
  181MOL0     C24311  10.450   2.727   4.308  0.0249 -0.5794 -0.2841
  181MOL0     C24312  10.484   2.832   4.417 -0.0743 -0.2621 -0.1040
  181MOL0     C24313  10.602   2.915   4.377  0.3502  0.0969  1.1521
  181MOL0     C24314  10.654   3.015   4.479 -0.0436 -0.7960 -0.8477
  181MOL0     C24315  10.801   3.048   4.460 -0.6757  0.6675  0.4051
  181MOL0     C24316  10.837   3.097   4.325 -0.1429 -0.1851 -0.1238
  181MOL0     N24317  10.975   3.158   4.334 -0.3982  0.1570 -0.6194
  181MOL0     C24318  11.019   3.255   4.424  0.5776  0.6119 -0.5000
  181MOL0     C24319  11.148   3.275   4.403  0.3210 -0.5887 -0.0405
  181MOL0     C24320  11.230   3.379   4.468  0.8709  0.4802  0.0137
  181MOL0     C24321  11.363   3.326   4.526  0.8923  0.0118  0.3024
  181MOL0     C24322  11.441   3.435   4.601  0.6698 -0.5160  0.0246
  181MOL0     C24323  11.545   3.380   4.691  0.5492 -0.1844 -0.5059
  181MOL0     O24324  11.621   3.502   4.722  0.3651 -0.3147 -0.3811
  181MOL0     C24325  11.747   3.482   4.780 -0.5856  1.1756 -0.1395
  181MOL0     C24326  11.812   3.593   4.838 -0.2482 -0.0378  0.9322
  181MOL0     C24327  11.947   3.580   4.880  0.3032 -0.4211  0.6240
  181MOL0     C24328  12.003   3.455   4.884 -0.7631 -0.1731 -0.1123
  181MOL0     C24329  12.146   3.433   4.944  1.6436  0.3680  1.1786
  181MOL0     O24330  12.195   3.311   4.950  0.1154 -0.7656 -0.6727
  181MOL0     C24331  12.322   3.285   4.986  0.0973  1.2132 -1.3441
  181MOL0     C24332  12.434   3.373   4.986  0.3949 -0.3627 -0.1363
  181MOL0     C24333  12.557   3.325   5.023 -0.3872  0.7215 -0.7009
  181MOL0     C24334  12.578   3.188   5.055 -0.6671 -0.1339 -0.0175
  181MOL0     O24335  12.697   3.153   5.103 -0.8437 -0.5994  0.8869
  181MOL0     C24336  12.760   3.053   5.017  0.2598 -0.6677  0.3535
  181MOL0     C24337  12.880   3.115   4.938 -0.5793 -0.2400 -0.6457
  181MOL0     C24338  12.980   3.164   5.040  0.4860 -0.0730  0.6341
  181MOL0     C24339  13.121   3.199   4.974 -0.0195 -0.4063 -0.0152
  181MOL0     C24340  13.238   3.224   5.075 -0.6338 -0.6976  0.0134
  181MOL0     C24341  13.252   3.360   5.138 -0.6764 -0.3376  0.5851
  181MOL0     C24342  13.331   3.354   5.272 -0.0526  0.4329 -0.7934
  181MOL0     C24343  13.378   3.492   5.317 -1.2913 -0.6131  0.6936
  181MOL0    Cl24344  13.500   3.486   5.441 -0.0562  0.0705  0.6529
  181MOL0     C24345  12.472   3.102   5.038 -0.2659 -0.2434  0.5020
  181MOL0     C24346  12.347   3.148   5.006 -0.7818 -0.9037 -0.3601
  181MOL0     O24347  12.194   3.535   4.986 -1.0711  0.1065 -0.1525
  181MOL0     C24348  11.936   3.337   4.842  0.3943 -0.5682 -0.6081
  181MOL0     C24349  11.805   3.353   4.793 -0.1799 -0.5657 -0.4818
  181MOL0     N24350  11.193   3.168   4.330  0.2778  0.4946 -0.5173
  181MOL0     N24351  11.086   3.098   4.285  0.0168 -0.1479 -0.1795
  181MOL0     C24352  10.089   2.236   4.332  0.0813 -0.2056 -0.5667
  181MOL0     C24353  10.003   2.151   4.268 -0.1941  0.6746  1.0727
  181MOL0     C24354   9.685   2.037   3.941  0.1105  0.5522 -0.0158
  181MOL0     C24355   9.739   1.930   3.867 -0.2629 -0.2648 -0.1240
  181MOL0     C24356   9.655   1.843   3.793  0.4879 -0.0160  0.4418
  181MOL0     C24357   9.516   1.854   3.800  0.4442  0.5640  0.3596
  181MOL0     O24358   9.437   1.776   3.716 -0.5061  0.3214  0.6013
  181MOL0     C24359   9.306   1.730   3.748 -0.5437  0.4943 -0.9960
  181MOL0     C24360   9.324   1.638   3.874  1.0063 -0.0197  0.8692
  181MOL0     C24361   9.430   1.523   3.878 -1.2008 -0.5382 -1.1022
  181MOL0     C24362   9.409   1.438   3.743 -0.1589 -0.7277 -0.2294
  181MOL0     C24363   9.276   1.371   3.748 -0.2688 -0.6481 -0.2304
  181MOL0     C24364   9.164   1.330   3.747  0.4853  0.2095  1.0819
  181MOL0     C24365   9.464   1.957   3.875  0.9439 -0.0303  0.9140
  181MOL0     C24366   9.543   2.047   3.948  0.1548 -0.2805 -0.1657
  181MOL0     C24367   9.481   2.137   4.055 -0.4119 -0.2274  0.0509
  181MOL0     H24368  10.038   2.275   3.948  0.5632  1.8824 -0.2090
  181MOL0     H24369  10.202   2.412   4.074  0.1974 -0.7015 -1.3762
  181MOL0     H24370  10.384   2.470   4.196  0.5350  0.6392 -0.4642
  181MOL0     H24371  10.252   2.583   4.201  0.2108  0.2932  0.8166
  181MOL0     H24372  10.439   2.560   4.449 -1.5974  0.8197  1.6093
  181MOL0     H24373  10.291   2.646   4.442  0.9066  1.6671 -0.2189
  181MOL0     H24374  10.384   2.775   4.236 -0.0335  2.8979  1.8728
  181MOL0     H24375  10.542   2.684   4.265  1.0200 -0.5683  1.7257
  181MOL0     H24376  10.394   2.893   4.431  0.0054 -0.2185  0.2084
  181MOL0     H24377  10.515   2.786   4.510  4.1940 -0.1208 -1.2679
  181MOL0     H24378  10.680   2.840   4.357 -0.9693 -1.2499  0.8942
  181MOL0     H24379  10.582   2.972   4.286 -0.5977  0.8917  1.8407
  181MOL0     H24380  10.600   3.110   4.477  1.3292  0.0584  0.8222
  181MOL0     H24381  10.642   2.974   4.579  0.5022 -2.7520 -1.5387
  181MOL0     H24382  10.857   2.958   4.488 -4.6866 -2.0761  0.4673
  181MOL0     H24383  10.818   3.136   4.523 -2.4639  1.5631 -0.2883
  181MOL0     H24384  10.828   3.023   4.245 -0.3191 -1.6410  1.2040
  181MOL0     H24385  10.758   3.165   4.290 -2.3637 -3.3294 -1.7874
  181MOL0     H24386  10.954   3.313   4.489  1.1905  2.7762 -1.7012
  181MOL0     H24387  11.258   3.448   4.388 -0.8662 -0.4476 -1.4716
  181MOL0     H24388  11.167   3.436   4.537  0.1257 -1.5882  1.1216
  181MOL0     H24389  11.348   3.246   4.598  0.5331 -1.9557 -1.8463
  181MOL0     H24390  11.423   3.287   4.443  0.0598 -2.0550  0.6129
  181MOL0     H24391  11.374   3.501   4.657 -1.3620 -1.0115 -1.6849
  181MOL0     H24392  11.495   3.500   4.530  2.2493 -1.6504  0.1379
  181MOL0     H24393  11.611   3.310   4.638  1.1673 -1.2643  1.5787
  181MOL0     H24394  11.502   3.332   4.780 -0.1917  1.2006 -0.0829
  181MOL0     H24395  11.766   3.691   4.835  0.6178  0.4042 -2.4499
  181MOL0     H24396  12.002   3.670   4.903  0.0602  0.4762 -1.9663
  181MOL0     H24397  12.412   3.477   4.965 -2.6575 -1.1768 -1.5402
  181MOL0     H24398  12.647   3.386   5.031  4.0290 -5.1375  2.3399
  181MOL0     H24399  12.794   2.973   5.084 -1.0787 -0.5908  1.1668
  181MOL0     H24400  12.687   3.011   4.947 -2.0343  2.0873  0.8947
  181MOL0     H24401  12.933   3.051   4.867  1.0893  0.6911 -0.3049
  181MOL0     H24402  12.845   3.203   4.882 -0.8758  2.2283  3.0704
  181MOL0     H24403  12.949   3.253   5.098 -0.7088  3.6738 -4.9443
  181MOL0     H24404  12.989   3.077   5.105 -3.0049 -1.1305 -0.0987
  181MOL0     H24405  13.100   3.279   4.903 -1.1118 -1.1233 -0.5316
  181MOL0     H24406  13.151   3.111   4.917 -0.2927 -0.0462 -0.7168
  181MOL0     H24407  13.336   3.203   5.031  1.8970  1.5945  4.0133
  181MOL0     H24408  13.234   3.147   5.152  4.1498 -1.4885 -0.2295
  181MOL0     H24409  13.309   3.429   5.075  0.5260  0.9305  2.9229
  181MOL0     H24410  13.153   3.402   5.159 -0.3299  0.6553  0.3127
  181MOL0     H24411  13.415   3.284   5.262  0.4200  0.8025  0.3884
  181MOL0     H24412  13.280   3.312   5.359 -1.3118  0.7003 -1.3871
  181MOL0     H24413  13.422   3.535   5.227  1.6945 -1.4215  1.6524
  181MOL0     H24414  13.298   3.551   5.363 -1.6999 -0.6672  0.0536
  181MOL0     H24415  12.484   2.997   5.065 -0.5251 -0.4168 -0.0475
  181MOL0     H24416  12.262   3.082   4.995  2.4513 -5.4011 -1.0914
  181MOL0     H24417  11.986   3.241   4.845  0.1209 -0.6774  1.0078
  181MOL0     H24418  11.761   3.264   4.748  1.5508 -1.9945  0.5070
  181MOL0     H24419  10.100   2.234   4.440 -2.8634  0.2267 -0.1573
  181MOL0     H24420   9.941   2.075   4.313 -0.7595  0.4139 -0.0979
  181MOL0     H24421   9.846   1.915   3.855 -0.3210  1.1431 -3.5765
  181MOL0     H24422   9.693   1.764   3.729  0.8984  1.3074 -0.9844
  181MOL0     H24423   9.264   1.666   3.670 -2.3355 -1.7279  1.5787
  181MOL0     H24424   9.235   1.810   3.769  0.3269  1.2943 -1.0460
  181MOL0     H24425   9.226   1.594   3.895  1.2754  0.0213  2.3511
  181MOL0     H24426   9.328   1.706   3.960 -0.1895  1.8345 -0.4731
  181MOL0     H24427   9.407   1.455   3.960 -0.3330  1.1508  0.6313
  181MOL0     H24428   9.535   1.554   3.878 -0.9848 -1.2566 -1.6078
  181MOL0     H24429   9.410   1.499   3.653 -2.3350 -2.3564 -1.4522
  181MOL0     H24430   9.489   1.363   3.745  0.0964 -0.4806 -0.9628
  181MOL0     H24431   9.065   1.290   3.755  1.5328 -2.8512  0.0887
  181MOL0     H24432   9.358   1.978   3.885  0.4325 -1.3284 -1.1336
  181MOL0     H24433   9.372   2.126   4.062 -0.5808  1.4254  0.2370
  181MOL0     H24434   9.520   2.104   4.152 -1.3750  0.3272  0.6382
  181MOL0     H24435   9.498   2.244   4.042 -0.7573  0.0998  1.9486
  182MOL0     O24436   2.982  11.139   4.926  0.7818  0.2057  0.1489
  182MOL0     C24437   2.961  11.163   4.807 -0.5156  0.2323 -0.2677
  182MOL0     O24438   3.008  11.268   4.737 -0.4913 -0.5449 -0.6911
  182MOL0     C24439   3.130  11.308   4.777 -0.0453  0.1103 -0.7492
  182MOL0     C24440   3.243  11.265   4.706 -0.7926  0.0597 -0.5518
  182MOL0     C24441   3.365  11.330   4.727  0.7598  0.4369 -0.8979
  182MOL0     C24442   3.380  11.433   4.829 -0.7689  0.6591  0.5877
  182MOL0     O24443   3.497  11.499   4.836 -0.0436  0.1273  0.2195
  182MOL0     C24444   3.514  11.597   4.939  0.8101  0.0745  0.1981
  182MOL0     C24445   3.608  11.706   4.923  0.6928 -0.2941 -1.5443
  182MOL0     C24446   3.751  11.649   4.906 -0.3628  0.4592  0.1804
  182MOL0     C24447   3.850  11.772   4.898 -0.7606  0.9394  0.0458
  182MOL0     C24448   3.999  11.722   4.907  0.0348 -0.4918 -0.6276
  182MOL0     C24449   4.048  11.611   4.817  0.9213  0.0112  0.0645
  182MOL0     C24450   4.003  11.635   4.671 -0.8503 -0.4855  0.2715
  182MOL0     C24451   4.078  11.741   4.598 -0.3363  0.8563  0.2122
  182MOL0     N24452   4.221  11.714   4.590 -0.4239  0.0560  0.6711
  182MOL0     C24453   4.272  11.617   4.512  1.0888 -0.0962  0.2734
  182MOL0     C24454   4.399  11.646   4.482  0.4503 -0.1527 -0.2979
  182MOL0     C24455   4.491  11.570   4.392 -1.2258  0.7335  0.1680
  182MOL0     C24456   4.440  11.435   4.347 -0.0778  0.1595 -0.2004
  182MOL0     C24457   4.528  11.366   4.249  0.2034 -1.3485  1.2562
  182MOL0     C24458   4.664  11.351   4.318  0.4185  0.7171  0.7613
  182MOL0     O24459   4.750  11.461   4.280 -0.1872  0.9828 -0.0282
  182MOL0     C24460   4.885  11.456   4.321  0.3795  0.8579 -0.7858
  182MOL0     C24461   4.959  11.326   4.340 -0.6411 -0.7303 -0.0522
  182MOL0     C24462   5.086  11.326   4.384 -0.3107 -0.2360  1.0828
  182MOL0     C24463   5.154  11.453   4.406  0.1419  0.6067 -0.0434
  182MOL0     C24464   5.287  11.453   4.464  0.1893  0.1576 -0.1849
  182MOL0     O24465   5.340  11.576   4.487  0.4720  0.0746 -0.1638
  182MOL0     C24466   5.465  11.575   4.540  0.1106  0.1261  0.0373
  182MOL0     C24467   5.491  11.634   4.661 -0.2996 -0.2831 -0.2725
  182MOL0     C24468   5.620  11.645   4.711  0.2223  0.5106  0.2091
  182MOL0     C24469   5.724  11.602   4.631 -0.3711  0.4081 -0.0695
  182MOL0     O24470   5.851  11.650   4.663 -0.0058  0.4836 -0.3021
  182MOL0     C24471   5.957  11.588   4.594  0.0432 -0.0249  0.4650
  182MOL0     C24472   6.089  11.628   4.668 -0.1656 -0.3648  0.5522
  182MOL0     C24473   6.071  11.613   4.817  0.0111 -0.6318  0.2503
  182MOL0     C24474   6.204  11.589   4.881  0.1197 -0.9334  0.1665
  182MOL0     C24475   6.181  11.573   5.031 -0.2051  0.3899  0.1609
  182MOL0     C24476   6.174  11.706   5.120 -0.1817 -0.1105  0.3320
  182MOL0     C24477   6.121  11.692   5.265  0.0388  0.1819  0.1042
  182MOL0     C24478   6.173  11.560   5.333 -0.3152 -0.3234  0.0208
  182MOL0    Cl24479   6.070  11.428   5.286 -0.0865 -0.3690 -0.0928
  182MOL0     C24480   5.696  11.526   4.517  0.5298 -0.2619  0.3536
  182MOL0     C24481   5.565  11.525   4.460  0.5677  0.1469 -1.5065
  182MOL0     O24482   5.344  11.346   4.493  0.4636  0.3051 -0.1432
  182MOL0     C24483   5.090  11.575   4.381  0.2349 -0.1374 -0.7662
  182MOL0     C24484   4.952  11.578   4.336  0.1993 -1.0261  0.3866
  182MOL0     N24485   4.429  11.764   4.546 -0.9005  0.3201  0.1248
  182MOL0     N24486   4.327  11.802   4.607 -0.3206 -0.1487  0.8657
  182MOL0     C24487   3.265  11.465   4.909  0.0596 -0.0381  0.0841
  182MOL0     C24488   3.141  11.408   4.878  0.1542 -0.7665  0.7032
  182MOL0     C24489   2.861  11.075   4.750  0.1862  0.0055  1.2087
  182MOL0     C24490   2.749  11.038   4.830 -0.2479  0.9800 -0.7715
  182MOL0     C24491   2.647  10.962   4.776  0.6152 -0.9655  0.1570
  182MOL0     C24492   2.655  10.910   4.645 -0.6934  0.6331  0.1878
  182MOL0     O24493   2.565  10.820   4.617  0.2291 -0.1217 -0.0096
  182MOL0     C24494   2.543  10.794   4.478 -0.0319  0.7074 -0.7385
  182MOL0     C24495   2.423  10.687   4.469 -0.0539  0.2612  0.2284
  182MOL0     C24496   2.449  10.552   4.527 -0.3079  1.1827  0.3576
  182MOL0     C24497   2.575  10.485   4.477 -0.5827 -0.4974  1.0154
  182MOL0     C24498   2.573  10.482   4.332 -1.1237 -0.7243  0.4385
  182MOL0     C24499   2.579  10.468   4.215  0.7598 -0.4077 -0.1333
  182MOL0     C24500   2.774  10.938   4.571  0.3705 -1.2031  0.3477
  182MOL0     C24501   2.869  11.030   4.617 -0.0849  0.3602 -0.4440
  182MOL0     C24502   2.977  11.075   4.516 -0.8700  0.3638 -0.0600
  182MOL0     H24503   3.218  11.202   4.621  0.8224  1.4479 -2.1426
  182MOL0     H24504   3.446  11.303   4.660  1.5930  0.8022 -0.0592
  182MOL0     H24505   3.421  11.655   4.947  2.2733  2.9563 -2.0363
  182MOL0     H24506   3.541  11.548   5.033  3.4106  1.7965  0.4326
  182MOL0     H24507   3.601  11.767   5.013  0.8152 -1.1750 -0.9164
  182MOL0     H24508   3.589  11.767   4.835  1.4509  1.7457 -0.3739
  182MOL0     H24509   3.755  11.578   4.822 -2.5140  1.2050 -0.6232
  182MOL0     H24510   3.768  11.583   4.992 -0.3679  0.8427  0.4758
  182MOL0     H24511   3.832  11.821   4.802 -2.4594  0.2156 -0.0365
  182MOL0     H24512   3.823  11.841   4.978 -1.9254 -0.6083  1.0618
  182MOL0     H24513   4.056  11.810   4.878  0.1263 -0.8824 -1.6665
  182MOL0     H24514   4.017  11.697   5.012 -0.8638  1.2286 -0.0080
  182MOL0     H24515   4.156  11.598   4.819  1.0102  0.4787 -1.0851
  182MOL0     H24516   4.007  11.517   4.854 -0.3883  0.7840  0.6880
  182MOL0     H24517   3.898  11.666   4.663 -0.8641  0.0855  2.1689
  182MOL0     H24518   4.019  11.541   4.617  3.4818  1.0088 -1.4321
  182MOL0     H24519   4.038  11.743   4.496 -1.3863 -1.5692  0.4966
  182MOL0     H24520   4.058  11.836   4.648  2.5521  0.8888  1.5090
  182MOL0     H24521   4.229  11.532   4.460  1.6648 -0.6796  0.7250
  182MOL0     H24522   4.507  11.621   4.296 -1.4396 -2.5174 -1.7585
  182MOL0     H24523   4.584  11.567   4.450 -1.3229  1.7615  0.4079
  182MOL0     H24524   4.409  11.368   4.427 -0.8118  0.4513 -0.2330
  182MOL0     H24525   4.347  11.466   4.298 -1.2863 -1.5148  0.9126
  182MOL0     H24526   4.543  11.436   4.167  1.3071 -1.7261  1.1167
  182MOL0     H24527   4.484  11.275   4.208  2.1385 -0.0831 -4.5622
  182MOL0     H24528   4.706  11.259   4.278  4.0017  1.6724  1.8918
  182MOL0     H24529   4.656  11.346   4.427 -0.2610 -2.2616  0.6364
  182MOL0     H24530   4.906  11.232   4.333 -0.9814 -0.5191 -0.3407
  182MOL0     H24531   5.138  11.232   4.403  0.1520  0.2159  2.1550
  182MOL0     H24532   5.410  11.685   4.711  3.3767  5.8596  0.4978
  182MOL0     H24533   5.629  11.708   4.799 -1.8326  1.3644 -0.1465
  182MOL0     H24534   5.950  11.480   4.607 -3.4874 -0.0515 -0.6841
  182MOL0     H24535   5.978  11.613   4.490  0.4934 -0.5131  0.4371
  182MOL0     H24536   6.167  11.559   4.633 -0.6741 -1.2300  1.0987
  182MOL0     H24537   6.126  11.728   4.642  1.7708 -1.3098 -0.5484
  182MOL0     H24538   6.024  11.702   4.858  0.2241 -1.0176  1.3669
  182MOL0     H24539   6.011  11.523   4.836 -0.7819 -0.4837 -1.3817
  182MOL0     H24540   6.261  11.680   4.861 -0.1331 -1.5212 -4.2494
  182MOL0     H24541   6.254  11.506   4.831  3.0155  0.6359  0.2537
  182MOL0     H24542   6.258  11.508   5.074  0.8074  0.7643 -1.0383
  182MOL0     H24543   6.088  11.515   5.038  0.7193 -1.3348 -0.9822
  182MOL0     H24544   6.279  11.731   5.134  0.0075  0.7095 -2.0779
  182MOL0     H24545   6.122  11.783   5.063 -1.9875 -0.6775  1.1360
  182MOL0     H24546   6.011  11.696   5.266 -0.0243 -0.8987 -0.3877
  182MOL0     H24547   6.158  11.781   5.317 -1.5719  0.5571  0.6697
  182MOL0     H24548   6.273  11.547   5.293  0.1232  1.2405  0.5220
  182MOL0     H24549   6.178  11.563   5.442  1.4515 -2.9888  0.0961
  182MOL0     H24550   5.769  11.486   4.447 -0.3282 -0.3634 -0.5093
  182MOL0     H24551   5.545  11.475   4.366  1.3704 -2.9058 -0.1591
  182MOL0     H24552   5.132  11.674   4.391  2.0951 -0.9183 -0.3184
  182MOL0     H24553   4.898  11.669   4.314 -1.9646 -2.2066  0.5371
  182MOL0     H24554   3.257  11.541   4.986  0.3973  2.4220 -2.1322
  182MOL0     H24555   3.054  11.449   4.928  2.1074  1.9525  2.1407
  182MOL0     H24556   2.743  11.061   4.936  2.3482 -0.4380 -0.2339
  182MOL0     H24557   2.565  10.928   4.838  1.6014 -1.4684  1.2472
  182MOL0     H24558   2.637  10.757   4.436  0.3404  0.4059  0.3309
  182MOL0     H24559   2.515  10.883   4.421 -0.4966  0.7493 -0.4538
  182MOL0     H24560   2.402  10.676   4.362  4.2242 -0.0755 -0.7703
  182MOL0     H24561   2.337  10.732   4.519 -0.3728  0.2638 -0.3129
  182MOL0     H24562   2.369  10.483   4.498  0.2280  0.3715  0.7804
  182MOL0     H24563   2.445  10.552   4.636 -3.1940 -1.8354  0.3976
  182MOL0     H24564   2.668  10.538   4.501  1.0893 -1.8861 -1.7608
  182MOL0     H24565   2.581  10.384   4.520 -3.6503 -1.0089  0.4754
  182MOL0     H24566   2.593  10.438   4.113 -2.2183  1.5491 -1.2422
  182MOL0     H24567   2.792  10.906   4.469  0.7474  2.1102 -0.7151
  182MOL0     H24568   2.974  11.181   4.489 -0.1702  0.2048 -0.7816
  182MOL0     H24569   3.072  11.056   4.566 -1.1684  0.9904  0.7647
  182MOL0     H24570   2.974  11.019   4.422 -3.2997 -3.0667  1.8104
  183MOL0     O24571   2.765   6.529   1.885  0.2901 -0.3816 -0.0963
  183MOL0     C24572   2.820   6.477   1.980 -0.8506  0.5683  0.0849
  183MOL0     O24573   2.763   6.452   2.103  1.0034 -0.4711  0.2804
  183MOL0     C24574   2.638   6.501   2.134 -0.1359 -0.8933  0.4682
  183MOL0     C24575   2.618   6.518   2.275  0.1287 -0.3745 -0.3412
  183MOL0     C24576   2.504   6.574   2.328 -0.3711 -0.5655  0.2528
  183MOL0     C24577   2.399   6.621   2.252 -1.0547 -0.5724  0.4900
  183MOL0     O24578   2.285   6.680   2.299  0.1433  0.1420  0.1939
  183MOL0     C24579   2.292   6.733   2.432  0.5501 -0.1849 -0.2025
  183MOL0     C24580   2.169   6.817   2.462  0.1752 -0.4239  0.6470
  183MOL0     C24581   2.039   6.729   2.464  0.3102  0.5795 -0.0129
  183MOL0     C24582   1.914   6.790   2.526  0.2976  0.4524  0.4579
  183MOL0     C24583   1.789   6.725   2.475 -0.1258  0.0723  0.5669
  183MOL0     C24584   1.755   6.589   2.523 -0.0488  0.8580 -0.7467
  183MOL0     C24585   1.614   6.548   2.500  0.6723  0.5337  0.4967
  183MOL0     C24586   1.584   6.400   2.538 -0.2973 -1.5954  0.8194
  183MOL0     N24587   1.616   6.367   2.678 -0.7763  0.3295 -0.2437
  183MOL0     C24588   1.532   6.366   2.780 -0.0502  0.5814 -0.0742
  183MOL0     C24589   1.603   6.315   2.890 -0.3395 -0.7361  0.1139
  183MOL0     C24590   1.545   6.285   3.025  0.0649 -0.8285  0.5369
  183MOL0     C24591   1.577   6.362   3.156  0.4366  0.2264  0.4679
  183MOL0     C24592   1.720   6.429   3.155 -0.0659  0.0612  0.4607
  183MOL0     C24593   1.828   6.317   3.181  0.6380  0.1829  0.2713
  183MOL0     O24594   1.945   6.366   3.233  0.5567 -0.3311 -0.5652
  183MOL0     C24595   2.044   6.408   3.154 -0.0389  0.0545 -0.5729
  183MOL0     C24596   2.026   6.438   3.022 -0.1945 -0.5793  0.0609
  183MOL0     C24597   2.128   6.476   2.943  0.7150 -0.2338 -0.3789
  183MOL0     C24598   2.254   6.525   3.000  0.7513 -0.4774  0.5925
  183MOL0     C24599   2.373   6.569   2.923 -0.2976  0.4438  0.5368
  183MOL0     O24600   2.357   6.606   2.797 -0.8086 -0.5799 -0.7142
  183MOL0     C24601   2.453   6.679   2.735  0.3872 -0.4389 -0.1771
  183MOL0     C24602   2.431   6.817   2.721  0.4157  0.1874  0.3316
  183MOL0     C24603   2.528   6.887   2.655 -0.3269 -0.2259 -0.1982
  183MOL0     C24604   2.641   6.821   2.598 -0.2049  0.5743 -0.0393
  183MOL0     O24605   2.738   6.882   2.535 -0.0611 -0.0626  0.0130
  183MOL0     C24606   2.719   7.012   2.480 -0.5615  0.3083 -0.6012
  183MOL0     C24607   2.834   7.054   2.388  0.4026  0.3318  0.9133
  183MOL0     C24608   2.859   6.959   2.272  0.4565 -0.0467  0.0715
  183MOL0     C24609   2.943   6.833   2.311  0.7524 -0.6318 -0.5640
  183MOL0     C24610   2.956   6.748   2.183 -0.5218 -0.2172 -0.1777
  183MOL0     C24611   3.076   6.806   2.097 -0.5690  0.6049  0.5733
  183MOL0     C24612   3.123   6.722   1.973 -0.1690  0.5223 -0.1027
  183MOL0     C24613   3.216   6.797   1.887  0.0657 -0.5436 -0.3513
  183MOL0    Cl24614   3.302   6.690   1.780  0.1462 -0.2464  0.4176
  183MOL0     C24615   2.660   6.685   2.618 -0.0846 -0.1312 -0.5774
  183MOL0     C24616   2.564   6.613   2.687  0.0958  0.5933 -1.1229
  183MOL0     O24617   2.485   6.569   2.977  0.4183  0.0010 -0.1170
  183MOL0     C24618   2.260   6.520   3.143 -0.5653 -1.0446 -0.0395
  183MOL0     C24619   2.159   6.461   3.212 -0.2916  0.2165 -0.1096
  183MOL0     N24620   1.725   6.273   2.834  0.3162 -1.0604  0.5910
  183MOL0     N24621   1.734   6.314   2.711 -0.3750  1.0704 -0.0928
  183MOL0     C24622   2.412   6.596   2.109 -0.4292  0.6880  0.5480
  183MOL0     C24623   2.528   6.540   2.054  0.6077  0.1209  0.3903
  183MOL0     C24624   2.961   6.422   1.963  0.5975 -0.0544 -0.2694
  183MOL0     C24625   3.030   6.394   2.078  0.2579 -0.0887 -0.2440
  183MOL0     C24626   3.161   6.347   2.081  0.4638 -0.1500 -0.0580
  183MOL0     C24627   3.232   6.342   1.956  0.4704  0.3229  0.0292
  183MOL0     O24628   3.369   6.343   1.948  0.3053  0.6092  0.0081
  183MOL0     C24629   3.433   6.443   2.031 -0.0762 -0.4186 -0.6418
  183MOL0     C24630   3.551   6.500   1.955 -0.1039 -0.0620  0.1429
  183MOL0     C24631   3.648   6.589   2.049 -0.0640  0.7678 -0.4709
  183MOL0     C24632   3.770   6.657   1.986  0.2804  0.3120 -0.3130
  183MOL0     C24633   3.850   6.726   2.084 -0.5882  0.6096  0.1302
  183MOL0     C24634   3.919   6.790   2.163 -0.7015 -0.0799 -0.1870
  183MOL0     C24635   3.163   6.349   1.842  0.3683  0.8399  0.2204
  183MOL0     C24636   3.026   6.391   1.836  0.5885  0.1780  0.2332
  183MOL0     C24637   2.963   6.418   1.701  0.0009  0.0286 -0.3691
  183MOL0     H24638   2.686   6.485   2.353 -1.3019 -2.0761  0.2352
  183MOL0     H24639   2.502   6.579   2.437 -1.3941 -2.1400  0.3403
  183MOL0     H24640   2.287   6.655   2.509 -0.6138  0.9956  0.9579
  183MOL0     H24641   2.386   6.789   2.433 -0.2184  1.1433 -0.3270
  183MOL0     H24642   2.160   6.898   2.389  0.3809 -0.3920  0.6558
  183MOL0     H24643   2.176   6.866   2.560 -1.0924  0.7436  0.1915
  183MOL0     H24644   2.070   6.635   2.511  2.7093  0.7166 -1.1461
  183MOL0     H24645   2.019   6.695   2.362  2.7069  0.7291 -0.5928
  183MOL0     H24646   1.913   6.800   2.635  0.4017  0.0379  0.4958
  183MOL0     H24647   1.929   6.893   2.492 -0.3072 -0.5248 -3.2282
  183MOL0     H24648   1.711   6.788   2.520 -0.8250 -1.9918  2.4413
  183MOL0     H24649   1.774   6.725   2.366  1.1831  0.5711  0.3761
  183MOL0     H24650   1.822   6.519   2.472  0.4378  2.3076 -2.1878
  183MOL0     H24651   1.770   6.576   2.631 -0.2986 -0.7382 -0.8697
  183MOL0     H24652   1.585   6.567   2.396  0.5560  0.9238  0.5998
  183MOL0     H24653   1.544   6.607   2.560  0.3447  1.0247 -0.3537
  183MOL0     H24654   1.479   6.379   2.516 -0.2227 -0.4712 -0.8014
  183MOL0     H24655   1.652   6.335   2.481  0.9400  0.1746  0.1828
  183MOL0     H24656   1.432   6.410   2.783 -0.1221  0.4535 -0.5106
  183MOL0     H24657   1.436   6.291   3.017  0.0896  1.2967  1.0918
  183MOL0     H24658   1.561   6.178   3.043  0.4038 -0.7967  0.4294
  183MOL0     H24659   1.504   6.444   3.166  1.1684  0.7373  2.0349
  183MOL0     H24660   1.564   6.299   3.245 -3.0127 -3.0396 -2.0288
  183MOL0     H24661   1.721   6.505   3.233 -2.1187 -1.5376  2.1681
  183MOL0     H24662   1.741   6.476   3.058  1.3090  1.4546  1.3954
  183MOL0     H24663   1.846   6.248   3.098  2.3567  1.8374 -0.8307
  183MOL0     H24664   1.793   6.264   3.270  2.6524 -0.4727  0.7301
  183MOL0     H24665   1.940   6.403   2.966  0.6528 -1.6021 -0.6458
  183MOL0     H24666   2.128   6.468   2.835  3.6404  0.0347 -0.5041
  183MOL0     H24667   2.340   6.870   2.746  1.0765  1.1366  0.7416
  183MOL0     H24668   2.497   6.988   2.633 -1.7919 -0.2297  1.6494
  183MOL0     H24669   2.625   7.014   2.424 -1.0152 -3.6916 -0.2725
  183MOL0     H24670   2.707   7.077   2.567 -1.5668 -1.7000  0.8170
  183MOL0     H24671   2.809   7.149   2.338 -2.1258 -1.2166 -1.0308
  183MOL0     H24672   2.926   7.060   2.448  0.2238 -0.7309  1.3059
  183MOL0     H24673   2.764   6.926   2.230  0.9564 -0.8790 -0.4204
  183MOL0     H24674   2.895   7.018   2.187 -2.9588  1.9895 -0.1509
  183MOL0     H24675   2.889   6.772   2.384 -0.4785 -1.5131 -2.1371
  183MOL0     H24676   3.042   6.865   2.344  0.2555  2.2677 -1.5660
  183MOL0     H24677   2.863   6.757   2.125  1.4505  2.8844 -3.2232
  183MOL0     H24678   2.979   6.644   2.210  0.2108 -0.8657 -3.0061
  183MOL0     H24679   3.049   6.907   2.064 -0.2395  0.7439  0.7244
  183MOL0     H24680   3.164   6.819   2.161  0.2784 -0.0989 -0.4179
  183MOL0     H24681   3.040   6.688   1.910 -0.5241  0.2780  0.4914
  183MOL0     H24682   3.179   6.634   2.006  3.6469  1.4753 -3.2316
  183MOL0     H24683   3.164   6.868   1.823 -1.2361 -2.3455 -1.3736
  183MOL0     H24684   3.293   6.843   1.950 -0.0621 -0.4509 -0.2624
  183MOL0     H24685   2.742   6.632   2.572  0.7699 -0.6734  1.4295
  183MOL0     H24686   2.566   6.505   2.691 -2.9010  0.2936 -3.9962
  183MOL0     H24687   2.349   6.554   3.194 -0.3396 -2.1297  0.3027
  183MOL0     H24688   2.163   6.450   3.320 -2.8063 -0.3524 -0.0110
  183MOL0     H24689   2.328   6.622   2.046  0.1846 -1.1665 -1.1669
  183MOL0     H24690   2.532   6.541   1.945  0.6117  2.1519  0.3846
  183MOL0     H24691   2.978   6.406   2.172 -0.5747 -0.4329 -0.6416
  183MOL0     H24692   3.208   6.330   2.178  1.1178  1.4298 -0.0790
  183MOL0     H24693   3.461   6.396   2.126 -2.3061  0.0616  0.3217
  183MOL0     H24694   3.361   6.524   2.043 -2.6666 -2.5158 -1.1966
  183MOL0     H24695   3.517   6.549   1.864  0.5538  1.4913  0.6981
  183MOL0     H24696   3.615   6.415   1.928  1.8417  1.0444  0.9808
  183MOL0     H24697   3.688   6.518   2.122  2.8578  1.6751 -1.0583
  183MOL0     H24698   3.594   6.662   2.110 -1.2617 -2.0194  2.0017
  183MOL0     H24699   3.817   6.583   1.921  2.1386  1.4384 -0.3090
  183MOL0     H24700   3.742   6.742   1.922  1.1770  1.2243  0.4666
  183MOL0     H24701   3.977   6.853   2.227  3.0341  0.5825 -3.8580
  183MOL0     H24702   3.217   6.329   1.750  1.9733  0.7801  1.1369
  183MOL0     H24703   2.865   6.373   1.683 -0.4090  0.6063  0.3869
  183MOL0     H24704   2.952   6.526   1.700  1.3469  0.1799 -0.3273
  183MOL0     H24705   3.032   6.394   1.620  2.3416  3.0516  0.5424
  184MOL0     O24706   8.815   7.959   0.947 -0.5148  0.3365 -0.1174
  184MOL0     C24707   8.793   7.850   0.998  0.4425 -0.5233 -0.5899
  184MOL0     O24708   8.874   7.776   1.076  0.8141 -0.3827 -0.2187
  184MOL0     C24709   8.996   7.826   1.116  0.0731  0.0132  0.5655
  184MOL0     C24710   9.103   7.824   1.024  0.3137 -0.0574  0.3636
  184MOL0     C24711   9.237   7.853   1.062 -0.1279 -0.0475  0.8916
  184MOL0     C24712   9.259   7.887   1.188 -0.1134 -0.0713 -0.9433
  184MOL0     O24713   9.385   7.896   1.250  0.0527 -0.1583  0.1967
  184MOL0     C24714   9.503   7.832   1.195 -0.1734  0.2727  0.0116
  184MOL0     C24715   9.613   7.855   1.298 -0.2311  0.4053  0.0822
  184MOL0     C24716   9.639   8.008   1.324 -0.3494 -0.2112 -0.5201
  184MOL0     C24717   9.779   8.039   1.389 -0.5857 -0.6187  0.2232
  184MOL0     C24718   9.905   7.999   1.312  0.6513 -0.3817  0.9278
  184MOL0     C24719   9.900   8.063   1.173 -0.1104 -0.0379 -0.1797
  184MOL0     C24720  10.022   8.025   1.093  0.7763 -0.1624  0.5842
  184MOL0     C24721  10.155   8.088   1.152  0.7926  0.1624  0.3615
  184MOL0     N24722  10.268   8.041   1.074 -0.0812  0.0096  0.4445
  184MOL0     C24723  10.298   8.052   0.941  0.6389  0.6347  0.1001
  184MOL0     C24724  10.409   7.981   0.916 -0.0632  0.2143 -0.2098
  184MOL0     C24725  10.486   7.973   0.784 -0.1743 -0.4739 -0.5109
  184MOL0     C24726  10.643   7.972   0.790 -0.3262 -0.3116  0.5143
  184MOL0     C24727  10.700   7.979   0.646 -0.0850 -0.2785  0.2896
  184MOL0     C24728  10.857   7.978   0.650  0.1277 -0.7927  0.4694
  184MOL0     O24729  10.919   7.893   0.746  0.2790  0.6752  0.1410
  184MOL0     C24730  11.049   7.929   0.783  0.4719  0.7113 -0.5198
  184MOL0     C24731  11.141   8.014   0.727 -0.5897 -0.4835  0.6119
  184MOL0     C24732  11.262   8.038   0.787 -0.1082 -0.6449 -1.0052
  184MOL0     C24733  11.301   7.983   0.905 -0.3957 -0.4013 -0.4246
  184MOL0     C24734  11.428   8.017   0.977  0.9455  0.3613  0.4814
  184MOL0     O24735  11.528   8.048   0.896  0.5139  0.7925 -0.2963
  184MOL0     C24736  11.649   8.088   0.946  0.2438 -0.1871 -0.2523
  184MOL0     C24737  11.719   8.025   1.043  0.4082  0.1000  0.2155
  184MOL0     C24738  11.853   8.066   1.069 -0.2052  0.0233 -0.3323
  184MOL0     C24739  11.915   8.180   1.014  0.3142  0.7570 -0.8152
  184MOL0     O24740  12.046   8.218   1.040  0.3892  0.1911 -0.5734
  184MOL0     C24741  12.095   8.181   1.169 -0.8785 -0.9815 -0.6868
  184MOL0     C24742  12.235   8.249   1.178  0.3923 -0.2637 -0.5240
  184MOL0     C24743  12.319   8.218   1.054 -0.2984  0.1922  0.1539
  184MOL0     C24744  12.465   8.270   1.078  0.3081 -1.8205  0.2540
  184MOL0     C24745  12.554   8.239   0.965 -0.1741  0.3233 -0.4783
  184MOL0     C24746  12.693   8.302   0.975  0.5351  0.9423  0.4091
  184MOL0     C24747  12.794   8.222   0.887 -0.0113  0.0849 -0.1892
  184MOL0     C24748  12.935   8.282   0.921 -0.4176  0.1997  1.0550
  184MOL0    Cl24749  13.070   8.202   0.833  0.2726  0.4423 -0.3097
  184MOL0     C24750  11.841   8.244   0.913  0.0422 -0.0605 -0.4795
  184MOL0     C24751  11.712   8.195   0.878  0.7118  0.1714 -0.1744
  184MOL0     O24752  11.437   8.014   1.100 -0.1619 -0.0274 -0.1102
  184MOL0     C24753  11.202   7.914   0.975  0.1132 -0.3707  0.5576
  184MOL0     C24754  11.076   7.892   0.914 -0.3845  0.1442 -0.1445
  184MOL0     N24755  10.450   7.925   1.042  0.4339 -0.5624  0.9121
  184MOL0     N24756  10.364   7.976   1.132 -0.5371 -0.1165 -0.0438
  184MOL0     C24757   9.156   7.900   1.284  0.2203 -0.2683  0.3633
  184MOL0     C24758   9.027   7.876   1.246 -0.6062 -0.5554  0.3127
  184MOL0     C24759   8.667   7.783   0.958 -0.4922 -0.4788  0.1580
  184MOL0     C24760   8.663   7.643   0.980  0.7350 -0.0849 -0.1595
  184MOL0     C24761   8.558   7.559   0.931  0.3531  0.0312 -0.3252
  184MOL0     C24762   8.451   7.615   0.867 -0.9843 -0.3093 -0.9244
  184MOL0     O24763   8.334   7.552   0.845  0.2386 -0.3954 -1.0045
  184MOL0     C24764   8.257   7.506   0.959  0.7800  0.3416  0.3296
  184MOL0     C24765   8.129   7.449   0.901 -0.8812  0.2160  0.6089
  184MOL0     C24766   8.040   7.371   1.002 -0.0635  0.2206 -0.6980
  184MOL0     C24767   7.923   7.313   0.921  0.3532  0.9060 -0.1956
  184MOL0     C24768   7.825   7.251   1.013  0.4245 -0.4556 -0.5163
  184MOL0     C24769   7.734   7.213   1.091 -0.2175 -0.4183 -0.1771
  184MOL0     C24770   8.454   7.759   0.851 -0.6329  0.4143  0.8074
  184MOL0     C24771   8.563   7.842   0.885 -0.8397  0.3174 -1.2028
  184MOL0     C24772   8.564   7.982   0.835  0.1118  0.4062 -0.5252
  184MOL0     H24773   9.070   7.795   0.925 -0.6507 -0.6546  0.8539
  184MOL0     H24774   9.313   7.852   0.985  1.6221  1.9482  2.4808
  184MOL0     H24775   9.488   7.723   1.192  2.7995 -0.2634  0.9553
  184MOL0     H24776   9.527   7.882   1.101  1.6597  1.7647  1.2015
  184MOL0     H24777   9.703   7.797   1.277 -0.9403 -0.8098  0.2999
  184MOL0     H24778   9.580   7.796   1.384 -2.8647 -1.5854 -2.0918
  184MOL0     H24779   9.561   8.035   1.395  0.1688 -1.7134  0.6556
  184MOL0     H24780   9.632   8.071   1.234  0.6883 -1.4036 -1.4769
  184MOL0     H24781   9.765   8.144   1.415 -0.9553 -1.5477  4.4150
  184MOL0     H24782   9.787   7.983   1.483 -1.8499 -2.3785 -0.6475
  184MOL0     H24783   9.993   8.032   1.367  2.4483 -1.8896 -0.8499
  184MOL0     H24784   9.920   7.893   1.288  0.6609  0.2288 -2.1595
  184MOL0     H24785   9.821   8.017   1.113  0.9636 -2.7043  0.3130
  184MOL0     H24786   9.894   8.172   1.183  3.8824  0.3745 -0.4334
  184MOL0     H24787  10.008   8.072   0.996  3.3400 -0.1498  0.1596
  184MOL0     H24788  10.028   7.917   1.082  2.6703 -0.3014  2.3388
  184MOL0     H24789  10.137   8.196   1.155  0.6741  0.1725 -0.6364
  184MOL0     H24790  10.169   8.051   1.255 -1.4798  1.6035  1.2802
  184MOL0     H24791  10.235   8.106   0.872 -2.0336  0.7489  2.4589
  184MOL0     H24792  10.456   7.880   0.734 -0.6826 -1.3715  1.3858
  184MOL0     H24793  10.454   8.058   0.723  0.9954 -0.9804 -1.9073
  184MOL0     H24794  10.676   8.059   0.847 -2.6784  2.7969 -2.4666
  184MOL0     H24795  10.670   7.876   0.835  0.3711 -0.2348  0.2733
  184MOL0     H24796  10.651   8.056   0.586  3.3684  1.5974 -0.3708
  184MOL0     H24797  10.675   7.884   0.599  0.2199  1.0509 -2.7892
  184MOL0     H24798  10.888   8.082   0.665  1.3091 -0.5078 -2.9088
  184MOL0     H24799  10.899   7.940   0.556 -0.2555 -0.7997  0.2984
  184MOL0     H24800  11.114   8.053   0.629  2.0038  3.4570  1.2084
  184MOL0     H24801  11.328   8.090   0.719 -1.3529 -0.0123 -1.7760
  184MOL0     H24802  11.675   7.935   1.084 -0.2582  0.5090  0.4181
  184MOL0     H24803  11.900   8.006   1.147 -2.3494  0.5635  1.4712
  184MOL0     H24804  12.031   8.217   1.250 -0.1182 -1.0514 -0.0416
  184MOL0     H24805  12.097   8.072   1.174 -0.1141 -0.9614  3.8011
  184MOL0     H24806  12.228   8.355   1.202  0.8014 -0.2008 -0.6653
  184MOL0     H24807  12.282   8.204   1.267 -1.6378  0.7353  1.1337
  184MOL0     H24808  12.314   8.112   1.030 -1.9015 -0.3264  2.4397
  184MOL0     H24809  12.271   8.271   0.971  1.6625  1.3763 -0.3036
  184MOL0     H24810  12.508   8.237   1.174  3.1173  2.6391  0.8396
  184MOL0     H24811  12.454   8.378   1.089 -4.6158 -2.0503 -0.3478
  184MOL0     H24812  12.518   8.264   0.864  0.5376 -1.9743 -1.3665
  184MOL0     H24813  12.562   8.130   0.959  1.9157  0.4862 -2.3643
  184MOL0     H24814  12.676   8.404   0.938 -0.3873  0.5795 -0.2008
  184MOL0     H24815  12.725   8.308   1.079  0.1027  0.2675  0.5874
  184MOL0     H24816  12.764   8.225   0.782  0.4129 -0.2556 -0.3286
  184MOL0     H24817  12.787   8.119   0.924 -0.3980  0.5747  1.1648
  184MOL0     H24818  12.953   8.381   0.877  1.8597 -0.9499 -0.7948
  184MOL0     H24819  12.956   8.278   1.028  2.5822 -1.5195  0.5174
  184MOL0     H24820  11.876   8.334   0.863 -2.3778  2.6983  2.3940
  184MOL0     H24821  11.655   8.248   0.803  1.6051 -1.5470 -2.1526
  184MOL0     H24822  11.219   7.883   1.078  0.4924 -0.5351  0.4474
  184MOL0     H24823  11.001   7.836   0.970  2.1874 -0.5775  2.8814
  184MOL0     H24824   9.172   7.930   1.387 -1.8684 -0.7798  0.8829
  184MOL0     H24825   8.945   7.893   1.316 -2.2690 -2.2364 -1.1015
  184MOL0     H24826   8.746   7.597   1.033  1.1712  0.1808 -0.6024
  184MOL0     H24827   8.550   7.456   0.964  0.1330 -0.4429 -1.7813
  184MOL0     H24828   8.237   7.589   1.026 -0.8290 -1.2641  1.9645
  184MOL0     H24829   8.317   7.428   1.006  1.8916  1.6834  1.2034
  184MOL0     H24830   8.160   7.374   0.828  0.2117  0.2296  1.0380
  184MOL0     H24831   8.083   7.531   0.844  3.8165  3.6173  1.0999
  184MOL0     H24832   7.990   7.444   1.068 -0.2599  0.4287 -1.0732
  184MOL0     H24833   8.109   7.302   1.051 -2.4781 -1.7654  0.0454
  184MOL0     H24834   7.873   7.385   0.856 -2.0478 -2.3526 -2.3062
  184MOL0     H24835   7.974   7.240   0.857  1.1445 -0.1104  1.5125
  184MOL0     H24836   7.659   7.184   1.162  0.2962 -1.6712 -0.1200
  184MOL0     H24837   8.369   7.802   0.799 -0.5785  0.2267  0.5553
  184MOL0     H24838   8.650   8.011   0.774 -0.1394 -0.0078 -1.0837
  184MOL0     H24839   8.476   8.001   0.773 -2.4750  0.4077  2.8169
  184MOL0     H24840   8.570   8.050   0.921 -1.8171 -1.1661  0.9523
  185MOL0     O24841   1.464   5.613   9.355  0.6019  0.1064 -0.3811
  185MOL0     C24842   1.355   5.661   9.311 -0.4860  0.2887 -0.0123
  185MOL0     O24843   1.344   5.741   9.201 -0.1161 -0.3736  0.8121
  185MOL0     C24844   1.466   5.764   9.131 -0.6727 -0.3108 -0.3660
  185MOL0     C24845   1.566   5.843   9.186  0.5851  0.1605  0.0166
  185MOL0     C24846   1.689   5.861   9.114  0.0431  0.1908  0.6813
  185MOL0     C24847   1.719   5.788   8.996 -0.1698 -0.0712 -0.8860
  185MOL0     O24848   1.843   5.815   8.938  0.8767  0.3378 -0.1312
  185MOL0     C24849   1.866   5.768   8.804 -0.2529  0.0964 -0.3995
  185MOL0     C24850   1.952   5.866   8.725  0.1030 -0.0103 -0.0181
  185MOL0     C24851   2.087   5.887   8.800  0.0189  0.2186 -0.3577
  185MOL0     C24852   2.186   5.776   8.788 -0.2433  0.5615  0.1276
  185MOL0     C24853   2.331   5.802   8.859 -0.2977 -0.7216  0.1911
  185MOL0     C24854   2.311   5.812   9.018  0.8280  0.2258 -0.6100
  185MOL0     C24855   2.453   5.840   9.074  0.7829 -0.3469 -0.0045
  185MOL0     C24856   2.453   5.822   9.222  0.0073 -0.5838 -0.0420
  185MOL0     N24857   2.588   5.843   9.283 -0.7877 -0.1859  0.2145
  185MOL0     C24858   2.687   5.738   9.289 -0.2954 -0.7129  0.3107
  185MOL0     C24859   2.797   5.806   9.339  0.5648  0.4348 -0.2447
  185MOL0     C24860   2.933   5.741   9.353  0.7739  0.1175 -0.5898
  185MOL0     C24861   2.972   5.704   9.497  0.4757 -1.2654 -0.0111
  185MOL0     C24862   3.100   5.629   9.501  0.1399 -0.0182  0.5374
  185MOL0     C24863   3.223   5.715   9.457 -0.3109 -0.0954 -0.3221
  185MOL0     O24864   3.242   5.687   9.309 -0.4653 -0.2867  0.0487
  185MOL0     C24865   3.342   5.754   9.254 -0.8025  0.8158 -0.6201
  185MOL0     C24866   3.384   5.703   9.129 -0.3624 -0.5809  0.1560
  185MOL0     C24867   3.488   5.755   9.055  0.2447  0.2936  0.5094
  185MOL0     C24868   3.570   5.852   9.121  0.0474  0.2343  0.0028
  185MOL0     C24869   3.677   5.921   9.045  0.3632  0.5104 -0.4502
  185MOL0     O24870   3.721   6.036   9.110  0.5220  0.2938 -0.0117
  185MOL0     C24871   3.828   6.097   9.071 -0.7889 -0.9382  0.2490
  185MOL0     C24872   3.843   6.140   8.934  0.1601  0.0826  0.2437
  185MOL0     C24873   3.967   6.183   8.884  0.1630  1.1614 -0.8899
  185MOL0     C24874   4.071   6.180   8.978 -0.0594 -0.6675  0.1923
  185MOL0     O24875   4.180   6.234   8.916 -0.8305  0.2312  0.2990
  185MOL0     C24876   4.272   6.310   8.992  0.1127 -0.4533  0.2494
  185MOL0     C24877   4.376   6.357   8.896 -0.6004 -0.7931  0.4754
  185MOL0     C24878   4.515   6.334   8.956 -0.1727 -0.4508 -0.1776
  185MOL0     C24879   4.622   6.420   8.879  0.0552  0.1089 -0.6926
  185MOL0     C24880   4.748   6.433   8.959  0.5750 -0.0744  0.6735
  185MOL0     C24881   4.856   6.537   8.911  0.6192  0.0565 -0.3763
  185MOL0     C24882   4.874   6.522   8.766 -0.0729 -0.3429 -0.5246
  185MOL0     C24883   4.988   6.609   8.719  0.2218  0.0132  0.4523
  185MOL0    Cl24884   4.989   6.607   8.539  0.2476  0.0197  0.4773
  185MOL0     C24885   4.057   6.145   9.108 -0.8109  0.3066  0.0914
  185MOL0     C24886   3.935   6.093   9.153 -0.1868  0.6791  0.0927
  185MOL0     O24887   3.724   5.867   8.950  0.7589  0.0542  0.5375
  185MOL0     C24888   3.545   5.889   9.252 -0.2348 -0.6972  0.4614
  185MOL0     C24889   3.434   5.839   9.321 -0.2519  0.9012  1.3874
  185MOL0     N24890   2.769   5.942   9.353  0.3186  0.0886  0.4498
  185MOL0     N24891   2.646   5.963   9.322 -0.4517 -0.1285  0.2123
  185MOL0     C24892   1.614   5.709   8.949 -0.3495  1.6166 -0.7714
  185MOL0     C24893   1.493   5.690   9.021  0.7951  0.3498  0.9417
  185MOL0     C24894   1.232   5.594   9.360 -0.1112 -0.6689 -0.3116
  185MOL0     C24895   1.147   5.537   9.267 -0.7236  0.6010 -0.3130
  185MOL0     C24896   1.023   5.478   9.311 -0.3642 -0.8060 -0.4657
  185MOL0     C24897   0.989   5.481   9.445 -0.4401  0.7299 -0.5115
  185MOL0     O24898   0.873   5.427   9.499 -0.6462  0.4753  0.4240
  185MOL0     C24899   0.875   5.286   9.484 -0.5792  0.1044 -0.0486
  185MOL0     C24900   0.784   5.226   9.583  0.2203 -0.6867  0.6108
  185MOL0     C24901   0.639   5.236   9.526  0.5905 -0.0601  0.7473
  185MOL0     C24902   0.534   5.263   9.629  0.1512 -0.0230  0.5016
  185MOL0     C24903   0.410   5.294   9.560 -0.3313  0.4137  0.0126
  185MOL0     C24904   0.300   5.302   9.512 -0.7130 -0.3854 -0.2889
  185MOL0     C24905   1.076   5.542   9.538 -1.2804 -0.1864  0.5517
  185MOL0     C24906   1.197   5.590   9.494  0.3526 -0.2928 -0.0927
  185MOL0     C24907   1.286   5.656   9.599 -0.1706 -0.8870 -0.0425
  185MOL0     H24908   1.549   5.882   9.286 -2.6304  0.8979 -0.6788
  185MOL0     H24909   1.760   5.915   9.177 -3.1037  2.0602  2.8980
  185MOL0     H24910   1.919   5.673   8.809  3.9034  2.1127 -1.2638
  185MOL0     H24911   1.774   5.745   8.749  0.9528 -0.8785 -2.1164
  185MOL0     H24912   1.897   5.960   8.727  2.6816  1.7254 -2.6010
  185MOL0     H24913   1.968   5.841   8.620 -1.1354  1.1314 -0.5115
  185MOL0     H24914   2.060   5.906   8.905  1.1312 -1.2257  0.2253
  185MOL0     H24915   2.149   5.973   8.772 -0.2403  0.4485 -0.2287
  185MOL0     H24916   2.150   5.684   8.835 -0.0662  0.0978 -0.6262
  185MOL0     H24917   2.193   5.751   8.681 -0.1502  3.5800 -0.6679
  185MOL0     H24918   2.386   5.711   8.832  0.6532  0.3953 -1.7924
  185MOL0     H24919   2.374   5.894   8.820  0.0823 -0.2559  1.6324
  185MOL0     H24920   2.241   5.889   9.052 -0.7248 -0.4704 -2.0464
  185MOL0     H24921   2.279   5.715   9.058  2.4740  0.4625  1.4466
  185MOL0     H24922   2.493   5.935   9.038 -1.1254  0.6297  0.3569
  185MOL0     H24923   2.524   5.764   9.039  1.8629 -0.0177  1.3838
  185MOL0     H24924   2.377   5.893   9.257  0.0072 -0.6094  0.0104
  185MOL0     H24925   2.424   5.721   9.253 -0.6871  0.1151  1.7266
  185MOL0     H24926   2.682   5.635   9.255 -1.1692 -0.5264 -0.1679
  185MOL0     H24927   2.934   5.651   9.292 -0.7253 -0.0236 -0.4217
  185MOL0     H24928   3.013   5.805   9.313  0.8183  0.6281  0.2746
  185MOL0     H24929   2.975   5.799   9.550  0.9983 -0.5489 -1.2760
  185MOL0     H24930   2.904   5.632   9.545  1.7642 -1.3437  1.7668
  185MOL0     H24931   3.091   5.540   9.438 -0.2509  0.2206  0.2521
  185MOL0     H24932   3.133   5.603   9.602 -1.5471 -0.8623  0.9118
  185MOL0     H24933   3.307   5.672   9.512 -0.5715 -0.3155 -0.0891
  185MOL0     H24934   3.199   5.816   9.490 -5.4083 -2.4587  5.1304
  185MOL0     H24935   3.332   5.633   9.064  2.4355 -2.0494 -0.6350
  185MOL0     H24936   3.510   5.728   8.952  1.6333 -0.6278  1.0085
  185MOL0     H24937   3.763   6.136   8.861  1.2128 -2.2626 -0.9153
  185MOL0     H24938   3.987   6.193   8.778  4.1159  1.5142 -0.2737
  185MOL0     H24939   4.209   6.394   9.022 -0.2669 -0.9425  0.8420
  185MOL0     H24940   4.314   6.263   9.081  1.8912 -0.0084 -0.3024
  185MOL0     H24941   4.372   6.320   8.793  1.1968  0.8394 -0.2409
  185MOL0     H24942   4.359   6.465   8.889 -1.1010 -0.6999  2.5056
  185MOL0     H24943   4.507   6.364   9.061 -1.3324  0.2200 -0.4303
  185MOL0     H24944   4.552   6.231   8.947  3.3064  0.6510  0.3714
  185MOL0     H24945   4.591   6.523   8.858 -3.0292 -0.5345  0.2493
  185MOL0     H24946   4.637   6.368   8.783  0.5569 -0.9967 -0.0323
  185MOL0     H24947   4.795   6.335   8.950  1.2738  0.4447 -4.6593
  185MOL0     H24948   4.721   6.452   9.064  0.4865 -0.8299  0.7890
  185MOL0     H24949   4.824   6.641   8.926  1.4766  0.6059 -2.0985
  185MOL0     H24950   4.949   6.511   8.962  0.9344  5.0657  2.2453
  185MOL0     H24951   4.778   6.539   8.716 -2.0313 -2.5578  2.1299
  185MOL0     H24952   4.902   6.419   8.746 -0.6451 -0.2391 -2.0037
  185MOL0     H24953   4.980   6.712   8.753 -1.2718 -0.2160  0.8820
  185MOL0     H24954   5.081   6.563   8.753  0.0682 -0.8980 -0.2877
  185MOL0     H24955   4.149   6.133   9.165 -0.1723 -0.4077 -1.0416
  185MOL0     H24956   3.923   6.036   9.245 -2.7371 -2.0480 -1.7555
  185MOL0     H24957   3.608   5.957   9.308 -0.2135  1.4507 -2.0027
  185MOL0     H24958   3.433   5.872   9.424  1.3970  3.5531  0.6475
  185MOL0     H24959   1.623   5.658   8.854 -2.8884  2.2975 -1.4316
  185MOL0     H24960   1.411   5.623   8.995  1.3886  0.5233 -1.5766
  185MOL0     H24961   1.167   5.539   9.161 -4.5399 -0.0482 -1.2221
  185MOL0     H24962   0.950   5.434   9.243  0.3108 -2.0648 -0.4039
  185MOL0     H24963   0.979   5.253   9.482 -0.4717  0.4640 -1.8018
  185MOL0     H24964   0.827   5.279   9.386 -0.5660  2.3397 -0.2446
  185MOL0     H24965   0.790   5.286   9.675  2.2356 -0.0816  0.1436
  185MOL0     H24966   0.820   5.125   9.606  3.2131  0.3499  1.0192
  185MOL0     H24967   0.618   5.140   9.477 -0.0440  1.4909 -2.1835
  185MOL0     H24968   0.642   5.319   9.456  5.3047 -0.3276  0.3346
  185MOL0     H24969   0.525   5.174   9.692 -1.8000 -0.5991 -0.5139
  185MOL0     H24970   0.573   5.346   9.688  0.1865 -0.1242  0.6212
  185MOL0     H24971   0.196   5.320   9.494 -1.1529 -0.1368  2.1734
  185MOL0     H24972   1.047   5.534   9.642 -0.4279 -4.5617  0.6669
  185MOL0     H24973   1.316   5.755   9.562 -1.5471 -1.0452 -1.6698
  185MOL0     H24974   1.228   5.669   9.691  0.7244  3.7364  0.1046
  185MOL0     H24975   1.374   5.593   9.615  0.7106  0.7579  2.3728
  186MOL0     O24976   6.596   1.121   8.270  0.8072  0.5709 -0.5237
  186MOL0     C24977   6.569   1.231   8.233 -0.1819 -0.5347  0.0876
  186MOL0     O24978   6.637   1.297   8.137  0.3327  0.2705 -0.3902
  186MOL0     C24979   6.739   1.233   8.078  0.4696  0.1121 -0.3378
  186MOL0     C24980   6.719   1.126   7.991 -0.2338 -0.0524  0.2465
  186MOL0     C24981   6.827   1.040   7.949  0.7398  0.2266 -0.4818
  186MOL0     C24982   6.956   1.069   7.992 -0.3755 -0.8554  0.0772
  186MOL0     O24983   7.076   1.005   7.969  0.2301  0.1711  0.0527
  186MOL0     C24984   7.062   0.862   7.952 -0.1684  0.0863 -0.1746
  186MOL0     C24985   7.187   0.805   7.873  0.3498 -0.1174 -0.0810
  186MOL0     C24986   7.187   0.651   7.856 -0.1401  0.2172 -0.5870
  186MOL0     C24987   7.332   0.602   7.844 -0.7001 -0.4519  0.4865
  186MOL0     C24988   7.330   0.451   7.860  0.2815 -1.2183 -0.8199
  186MOL0     C24989   7.459   0.376   7.858  1.0209 -0.5333 -0.3638
  186MOL0     C24990   7.550   0.417   7.751 -0.4456 -0.4458  0.3616
  186MOL0     C24991   7.658   0.303   7.727 -0.4624  0.9765 -0.1379
  186MOL0     N24992   7.624   0.229   7.598  0.3447  0.0616  0.4794
  186MOL0     C24993   7.680   0.238   7.472 -0.4367 -0.0953 -0.0733
  186MOL0     C24994   7.650   0.121   7.408  0.9330  0.0485  0.1285
  186MOL0     C24995   7.699   0.070   7.279 -0.3605 -1.0267 -0.1773
  186MOL0     C24996   7.850   0.047   7.289  0.3326 -0.6090  0.1281
  186MOL0     C24997   7.894  -0.062   7.379 -0.1945  0.4592 -0.3717
  186MOL0     C24998   8.046  -0.084   7.366 -0.4708  0.0353  0.2944
  186MOL0     O24999   8.122   0.010   7.444  0.3490  0.0420  0.4073
  186MOL0     C25000   8.250   0.031   7.412  0.3769 -0.7783  0.0607
  186MOL0     C25001   8.341  -0.059   7.352 -0.2582 -0.0546  0.4304
  186MOL0     C25002   8.469  -0.023   7.319  0.2993 -0.2907 -0.9783
  186MOL0     C25003   8.519   0.100   7.362 -0.5300  1.3655 -0.1693
  186MOL0     C25004   8.665   0.128   7.351  0.2070 -0.9081  0.6854
  186MOL0     O25005   8.710   0.255   7.392 -0.6350 -0.4684 -0.4235
  186MOL0     C25006   8.836   0.296   7.388  0.7522  0.5709  0.1776
  186MOL0     C25007   8.946   0.213   7.410 -0.2831 -0.0219 -0.8120
  186MOL0     C25008   9.075   0.263   7.422 -0.1694  0.1039  0.4030
  186MOL0     C25009   9.102   0.401   7.399 -0.3009  0.2991 -0.0216
  186MOL0     O25010   9.237   0.435   7.390 -0.2810  0.3964  0.2389
  186MOL0     C25011   9.245   0.572   7.441 -0.0347 -0.5394 -0.1093
  186MOL0     C25012   9.394   0.615   7.452 -0.4000  0.2974 -0.2089
  186MOL0     C25013   9.406   0.741   7.543 -0.4703  1.5005  0.7022
  186MOL0     C25014   9.546   0.803   7.537  0.2456  0.3391 -0.6167
  186MOL0     C25015   9.663   0.722   7.578  1.2388  0.0666  0.4795
  186MOL0     C25016   9.787   0.810   7.590  0.6225 -0.2697  0.0236
  186MOL0     C25017   9.901   0.725   7.647  0.1441 -1.1612  0.0747
  186MOL0     C25018  10.012   0.829   7.669 -0.4751 -0.3170 -0.0630
  186MOL0    Cl25019  10.165   0.762   7.718 -0.0554 -0.0319  0.4890
  186MOL0     C25020   8.994   0.488   7.368  0.4876 -0.1331  0.6836
  186MOL0     C25021   8.863   0.432   7.367  0.8833 -0.4620  0.8223
  186MOL0     O25022   8.731   0.048   7.292  0.2548 -0.1775  1.3996
  186MOL0     C25023   8.428   0.189   7.423  0.0396  0.3770  0.2898
  186MOL0     C25024   8.291   0.161   7.448  0.7320 -0.4000  0.3056
  186MOL0     N25025   7.582   0.039   7.493 -0.0797 -0.3797 -0.3115
  186MOL0     N25026   7.572   0.100   7.606  0.6809 -0.1234 -0.3662
  186MOL0     C25027   6.976   1.183   8.066  0.1204  0.4146 -0.0675
  186MOL0     C25028   6.867   1.257   8.113 -0.8832 -0.7470 -0.2669
  186MOL0     C25029   6.454   1.305   8.297  0.6860 -0.5308 -0.6983
  186MOL0     C25030   6.395   1.244   8.415 -0.2319 -0.4000  0.8146
  186MOL0     C25031   6.278   1.300   8.468  0.2225 -0.3395  0.2413
  186MOL0     C25032   6.228   1.422   8.423  0.0952  0.7427 -0.0497
  186MOL0     O25033   6.128   1.480   8.497  0.8120 -0.5250  0.1930
  186MOL0     C25034   6.106   1.622   8.499 -0.2439  0.2282  0.2713
  186MOL0     C25035   6.196   1.688   8.603 -0.6165 -0.7588 -0.6062
  186MOL0     C25036   6.149   1.666   8.747 -0.1569  0.6079  0.6284
  186MOL0     C25037   6.022   1.753   8.779 -0.1194  1.1293  0.6748
  186MOL0     C25038   5.892   1.684   8.816 -0.6511 -0.5702 -0.1675
  186MOL0     C25039   5.794   1.629   8.845 -0.1972 -0.0066  0.5221
  186MOL0     C25040   6.294   1.482   8.313 -0.2591 -1.0097 -0.3652
  186MOL0     C25041   6.411   1.435   8.256 -0.5120 -0.0262 -0.8377
  186MOL0     C25042   6.469   1.516   8.140 -0.3466  0.2728 -0.1254
  186MOL0     H25043   6.615   1.106   7.966 -0.3257 -1.0808  1.3874
  186MOL0     H25044   6.808   0.959   7.879 -0.6935  2.6724 -3.0815
  186MOL0     H25045   7.045   0.815   8.049  0.4669 -0.4344 -0.3093
  186MOL0     H25046   6.977   0.840   7.887  0.7473 -1.0592 -1.0429
  186MOL0     H25047   7.273   0.821   7.939 -1.0920  1.6826  1.4730
  186MOL0     H25048   7.203   0.866   7.783  0.5800  1.3470  0.9133
  186MOL0     H25049   7.127   0.633   7.766 -1.9513  0.5755  0.4794
  186MOL0     H25050   7.131   0.611   7.941 -2.9486 -0.6790 -2.6852
  186MOL0     H25051   7.380   0.637   7.753 -0.8928  1.5031  1.0878
  186MOL0     H25052   7.393   0.641   7.926  0.6746  1.4737 -1.3742
  186MOL0     H25053   7.277   0.432   7.954  0.4993  0.4693 -0.3307
  186MOL0     H25054   7.290   0.410   7.766  1.3544  0.6651 -2.1677
  186MOL0     H25055   7.501   0.378   7.959 -0.4620 -0.7828  0.2742
  186MOL0     H25056   7.424   0.272   7.853  1.9214 -0.9288  1.0906
  186MOL0     H25057   7.621   0.497   7.773  0.3351  0.3035 -4.0056
  186MOL0     H25058   7.498   0.444   7.658  1.4775  0.4865 -0.4860
  186MOL0     H25059   7.760   0.343   7.725 -0.0487 -0.0437  0.0475
  186MOL0     H25060   7.665   0.237   7.813  0.6554  1.6581  0.3232
  186MOL0     H25061   7.731   0.329   7.443 -1.1641  1.9396  4.2249
  186MOL0     H25062   7.649  -0.024   7.253 -0.1082 -1.6369  1.4303
  186MOL0     H25063   7.675   0.149   7.207 -1.3928 -1.0418  0.1290
  186MOL0     H25064   7.885   0.014   7.190  0.5043  1.4086 -0.5228
  186MOL0     H25065   7.896   0.142   7.317  0.1798 -0.6561  0.5321
  186MOL0     H25066   7.832  -0.153   7.378  1.4389 -0.7035 -1.4474
  186MOL0     H25067   7.875  -0.024   7.480  0.0049  1.0207 -0.5435
  186MOL0     H25068   8.081  -0.083   7.262  1.5862 -0.6771  0.9422
  186MOL0     H25069   8.068  -0.187   7.393  0.0299 -0.1800 -0.8638
  186MOL0     H25070   8.311  -0.159   7.324  0.8354 -0.8920  2.1465
  186MOL0     H25071   8.530  -0.098   7.270  1.0178  0.2933 -0.9944
  186MOL0     H25072   8.949   0.106   7.429  2.1551  0.0953 -0.1377
  186MOL0     H25073   9.158   0.198   7.448 -1.7010 -1.8687  0.5602
  186MOL0     H25074   9.188   0.648   7.389  0.2177 -0.9561 -1.0100
  186MOL0     H25075   9.200   0.583   7.540 -0.3031  1.6615 -0.4378
  186MOL0     H25076   9.456   0.534   7.493 -0.7457  0.4063  0.5531
  186MOL0     H25077   9.428   0.641   7.352 -1.4594 -1.1995 -0.9895
  186MOL0     H25078   9.334   0.820   7.515 -0.1131  1.5362 -0.1561
  186MOL0     H25079   9.382   0.714   7.646 -0.4705  3.1030  1.1597
  186MOL0     H25080   9.560   0.891   7.600  1.9895 -1.8011  2.2743
  186MOL0     H25081   9.569   0.834   7.435  2.2831  1.8231  0.2327
  186MOL0     H25082   9.661   0.650   7.497 -2.8679  2.0259 -1.4590
  186MOL0     H25083   9.641   0.670   7.672  0.8012  2.1307  1.6060
  186MOL0     H25084   9.809   0.842   7.488  0.2563 -1.7509 -0.5467
  186MOL0     H25085   9.765   0.895   7.655 -0.4529 -3.5938  4.5395
  186MOL0     H25086   9.933   0.644   7.580 -0.8453 -0.0573 -1.8133
  186MOL0     H25087   9.866   0.678   7.739  0.3242 -2.1232 -0.3276
  186MOL0     H25088  10.029   0.872   7.570  0.3777 -1.5860 -0.5007
  186MOL0     H25089   9.984   0.912   7.733 -0.4566 -0.7740  0.5469
  186MOL0     H25090   9.018   0.588   7.333  1.5480 -0.1161  1.4076
  186MOL0     H25091   8.789   0.505   7.337  0.7045 -1.0163 -0.1178
  186MOL0     H25092   8.465   0.281   7.466  0.0240 -0.3238  1.8421
  186MOL0     H25093   8.226   0.228   7.504  1.1888 -0.1189  0.5121
  186MOL0     H25094   7.077   1.212   8.094  0.3390 -0.4762  0.0830
  186MOL0     H25095   6.889   1.333   8.187  0.8279 -2.3644  1.0023
  186MOL0     H25096   6.432   1.149   8.450 -1.2173 -1.6870 -1.4245
  186MOL0     H25097   6.238   1.258   8.560  3.4689 -0.2823  1.7920
  186MOL0     H25098   6.003   1.649   8.524 -1.1816 -0.5881 -2.3796
  186MOL0     H25099   6.118   1.670   8.401  2.1799  1.7269  1.1987
  186MOL0     H25100   6.200   1.796   8.585 -1.0905 -0.9194 -1.7905
  186MOL0     H25101   6.298   1.657   8.579 -0.3391  0.5644 -1.2543
  186MOL0     H25102   6.228   1.696   8.817  0.6283 -1.5036  0.6991
  186MOL0     H25103   6.122   1.561   8.761  0.3287  0.4970  0.7648
  186MOL0     H25104   6.052   1.827   8.853  0.1203 -0.2434  1.9947
  186MOL0     H25105   5.993   1.815   8.694  0.8799 -1.1800 -1.4577
  186MOL0     H25106   5.713   1.566   8.877 -0.2430 -2.0860 -3.1956
  186MOL0     H25107   6.261   1.576   8.271 -4.8197 -3.5484 -3.4080
  186MOL0     H25108   6.573   1.547   8.154 -1.0948  2.4553  1.0703
  186MOL0     H25109   6.459   1.479   8.037 -3.3413  4.7018 -1.7446
  186MOL0     H25110   6.424   1.615   8.135  0.3127  0.5729 -0.3781
  187MOL0     O25111  10.184   2.629   9.905  0.2665  0.2267  0.0150
  187MOL0     C25112  10.145   2.731   9.844 -0.3788 -0.9852 -0.4337
  187MOL0     O25113  10.222   2.797   9.756  0.2177 -0.0705 -0.6998
  187MOL0     C25114  10.307   2.731   9.677 -0.8473  0.0218  0.0248
  187MOL0     C25115  10.391   2.821   9.598 -0.5897 -0.4868 -0.3181
  187MOL0     C25116  10.498   2.777   9.516  0.2279  0.3113 -0.2628
  187MOL0     C25117  10.516   2.636   9.505 -0.3833  0.0508 -0.3466
  187MOL0     O25118  10.611   2.593   9.408 -0.1456  0.2325  0.4386
  187MOL0     C25119  10.686   2.475   9.435  0.4411  0.5445  0.8310
  187MOL0     C25120  10.836   2.473   9.392 -0.1132  0.1761  0.6768
  187MOL0     C25121  10.905   2.601   9.445 -0.3738 -0.9166  0.5076
  187MOL0     C25122  11.050   2.586   9.402  0.0379  0.3844  0.9944
  187MOL0     C25123  11.125   2.706   9.458  0.1204  0.0611  0.0092
  187MOL0     C25124  11.270   2.697   9.421 -0.1162 -0.5414 -0.4572
  187MOL0     C25125  11.341   2.827   9.443  0.1875 -0.2268 -0.0175
  187MOL0     C25126  11.336   2.878   9.586  0.0605 -0.4118 -0.2494
  187MOL0     N25127  11.419   3.001   9.594 -0.0449 -0.0708  0.2927
  187MOL0     C25128  11.545   3.012   9.543 -0.9243  0.5922 -0.1706
  187MOL0     C25129  11.582   3.145   9.568 -0.1385 -0.0707  0.1990
  187MOL0     C25130  11.719   3.203   9.549  0.5443  0.2663 -0.2372
  187MOL0     C25131  11.817   3.174   9.662 -0.5619 -0.6370 -0.5216
  187MOL0     C25132  11.875   3.033   9.660 -0.7935  0.7711  0.3609
  187MOL0     C25133  11.998   3.019   9.752  0.0210 -0.1463  0.9119
  187MOL0     O25134  12.114   3.084   9.695 -0.2475 -0.2978  0.5123
  187MOL0     C25135  12.241   3.055   9.741 -0.2226 -0.5028  0.0946
  187MOL0     C25136  12.269   2.981   9.848  0.4109  0.1874  0.9962
  187MOL0     C25137  12.403   2.943   9.886 -0.2836  0.6109 -0.3303
  187MOL0     C25138  12.512   2.980   9.806  0.4927 -0.2254 -0.3637
  187MOL0     C25139  12.643   2.925   9.840  0.9170  0.5777  0.4576
  187MOL0     O25140  12.678   2.917   9.968  0.5677  0.2250 -0.1775
  187MOL0     C25141  12.792   2.860   9.994 -0.6394  0.5247  0.0608
  187MOL0     C25142  12.788   2.736  10.052 -0.4842 -0.0957 -0.2656
  187MOL0     C25143  12.908   2.685  10.107 -0.6048 -0.6193  0.0467
  187MOL0     C25144  13.030   2.753  10.100  0.0088  0.2851  0.1310
  187MOL0     O25145  13.143   2.695  10.150 -0.2738 -0.0183  0.0508
  187MOL0     C25146  13.272   2.747  10.141  0.2621  0.8063 -0.8795
  187MOL0     C25147  13.376   2.634  10.151 -0.4128  0.1291 -0.2323
  187MOL0     C25148  13.360   2.499  10.079  0.8471  0.7083  0.6813
  187MOL0     C25149  13.414   2.525   9.942  0.4356 -0.2276  0.1675
  187MOL0     C25150  13.423   2.400   9.862  0.0703  1.1094  0.2559
  187MOL0     C25151  13.532   2.309   9.913  0.2256  0.8254  0.2652
  187MOL0     C25152  13.564   2.191   9.820 -0.7301 -0.9493 -0.5124
  187MOL0     C25153  13.655   2.234   9.709  0.2449 -0.2845  0.7380
  187MOL0    Cl25154  13.814   2.270   9.748  0.1343 -0.0159  0.2633
  187MOL0     C25155  13.036   2.874  10.019 -1.0315  0.6003 -1.1491
  187MOL0     C25156  12.911   2.925   9.979  0.2862 -0.3843 -0.8153
  187MOL0     O25157  12.717   2.890   9.749 -0.2283 -0.4409 -0.0916
  187MOL0     C25158  12.490   3.071   9.702 -0.4074 -0.5113  0.4508
  187MOL0     C25159  12.356   3.106   9.668  0.2624  0.4275 -0.7018
  187MOL0     N25160  11.478   3.209   9.637  0.7281 -0.2074 -0.2030
  187MOL0     N25161  11.386   3.117   9.662  0.8909 -0.4938 -0.5174
  187MOL0     C25162  10.436   2.542   9.580 -1.1092 -0.5929  0.1284
  187MOL0     C25163  10.333   2.592   9.662  0.3896 -0.6649 -0.0482
  187MOL0     C25164  10.008   2.791   9.883 -0.6002  0.1551  0.8290
  187MOL0     C25165   9.966   2.905   9.821 -0.0117  0.1529 -0.8896
  187MOL0     C25166   9.836   2.952   9.824  0.0537  0.0070  0.3030
  187MOL0     C25167   9.744   2.898   9.908 -0.2780 -0.4770 -0.0413
  187MOL0     O25168   9.608   2.938   9.925 -1.0490  0.4111 -0.1998
  187MOL0     C25169   9.567   3.055   9.869  0.1523  0.1274  0.4555
  187MOL0     C25170   9.423   3.085   9.907 -1.4798 -0.1805 -0.3509
  187MOL0     C25171   9.374   3.203   9.823 -0.5173 -0.3948  1.0267
  187MOL0     C25172   9.221   3.238   9.851  0.4550 -0.1205  0.0724
  187MOL0     C25173   9.159   3.318   9.744 -0.3934 -0.4662  0.4742
  187MOL0     C25174   9.123   3.386   9.644  0.7968 -0.0123 -0.5598
  187MOL0     C25175   9.785   2.784   9.984  1.3518 -0.9962 -0.2313
  187MOL0     C25176   9.910   2.726   9.965 -0.1828 -0.1628 -0.4013
  187MOL0     C25177   9.941   2.598  10.047  0.4863 -0.5261 -0.0229
  187MOL0     H25178  10.371   2.927   9.601 -0.7292 -0.5231  0.0675
  187MOL0     H25179  10.567   2.845   9.467  0.5673  0.4566  0.4116
  187MOL0     H25180  10.690   2.452   9.542  1.4644 -1.2847  0.4341
  187MOL0     H25181  10.635   2.387   9.395 -0.2150  1.7440 -1.1114
  187MOL0     H25182  10.849   2.472   9.283 -1.3964  0.4536  0.5079
  187MOL0     H25183  10.881   2.380   9.429  2.6027  0.5305 -1.3713
  187MOL0     H25184  10.906   2.610   9.554  1.6012  1.6706  0.3872
  187MOL0     H25185  10.856   2.690   9.405  1.7059  0.5680  1.0706
  187MOL0     H25186  11.095   2.498   9.448 -1.3192 -1.7649 -1.4522
  187MOL0     H25187  11.062   2.589   9.293  0.3112  1.0307  1.0379
  187MOL0     H25188  11.082   2.798   9.418 -2.2816 -0.9439  0.1191
  187MOL0     H25189  11.098   2.715   9.564 -0.6358 -2.4537  0.1070
  187MOL0     H25190  11.319   2.618   9.479 -0.8738 -0.3426  0.4914
  187MOL0     H25191  11.275   2.669   9.316  3.0000  0.7639 -0.7597
  187MOL0     H25192  11.296   2.898   9.373  1.8286  1.7673  0.8757
  187MOL0     H25193  11.444   2.801   9.418 -0.0777 -0.1110 -1.2818
  187MOL0     H25194  11.230   2.898   9.608 -0.1502 -0.2430 -1.3655
  187MOL0     H25195  11.376   2.799   9.650 -1.2839 -1.6826 -0.9281
  187MOL0     H25196  11.616   2.939   9.505  0.0811  1.4620 -0.0096
  187MOL0     H25197  11.763   3.167   9.456 -0.1030  1.5083 -1.0450
  187MOL0     H25198  11.714   3.312   9.544  2.7016  0.4705  0.7193
  187MOL0     H25199  11.899   3.247   9.658  0.4662 -1.8254 -2.3258
  187MOL0     H25200  11.763   3.195   9.755  0.2223 -0.0087 -0.1949
  187MOL0     H25201  11.915   3.004   9.563  0.6035 -1.0572  1.4254
  187MOL0     H25202  11.804   2.952   9.678  0.9825 -2.4786 -5.0701
  187MOL0     H25203  12.024   2.914   9.764  4.7023  0.1692 -3.1536
  187MOL0     H25204  11.993   3.062   9.853  4.5549 -0.6701  1.5871
  187MOL0     H25205  12.199   2.962   9.930 -0.2440  1.1699  0.6850
  187MOL0     H25206  12.427   2.888   9.977 -1.4999 -1.1805 -1.0265
  187MOL0     H25207  12.705   2.666  10.052  1.5473 -2.6899 -0.6452
  187MOL0     H25208  12.909   2.590  10.160 -3.3548 -0.7757 -0.0323
  187MOL0     H25209  13.278   2.788  10.039  1.1953  1.1302 -0.7003
  187MOL0     H25210  13.285   2.817  10.224  1.9679  3.3984 -3.1656
  187MOL0     H25211  13.474   2.673  10.124 -0.1812 -0.2867  0.0017
  187MOL0     H25212  13.378   2.591  10.252  2.6715  2.0307  0.6480
  187MOL0     H25213  13.416   2.417  10.125 -1.5050 -1.8216 -0.7071
  187MOL0     H25214  13.255   2.471  10.088  1.2602 -0.4938  2.4318
  187MOL0     H25215  13.510   2.577   9.945 -0.7878  2.2011  3.8628
  187MOL0     H25216  13.342   2.591   9.893 -0.0916  1.1690  2.6477
  187MOL0     H25217  13.429   2.426   9.756 -2.7463 -0.1451 -0.3050
  187MOL0     H25218  13.329   2.345   9.869 -0.6198  1.7732 -2.4653
  187MOL0     H25219  13.621   2.366   9.942  1.2316  1.0169 -2.8005
  187MOL0     H25220  13.505   2.267  10.010 -1.0565 -0.5350 -0.6354
  187MOL0     H25221  13.469   2.150   9.785 -1.6072 -0.7134  1.4480
  187MOL0     H25222  13.604   2.117   9.890  1.2604  1.9067  1.6000
  187MOL0     H25223  13.669   2.146   9.645 -0.1313 -1.1951  1.8739
  187MOL0     H25224  13.604   2.313   9.653 -0.0587 -1.7890 -1.2181
  187MOL0     H25225  13.127   2.927   9.993 -0.2182  0.1586  0.6228
  187MOL0     H25226  12.910   3.025   9.937  1.6537  1.1302  2.4028
  187MOL0     H25227  12.558   3.105   9.625 -0.6573 -1.7543 -0.3274
  187MOL0     H25228  12.346   3.185   9.594 -0.7310  1.3631  0.3780
  187MOL0     H25229  10.446   2.435   9.568 -0.1840 -0.2715 -2.7917
  187MOL0     H25230  10.275   2.520   9.720 -0.0481 -0.3506 -0.0899
  187MOL0     H25231  10.036   2.971   9.771  0.5538  0.5618  0.3865
  187MOL0     H25232   9.810   3.031   9.755 -0.8270 -1.6674 -1.3543
  187MOL0     H25233   9.568   3.048   9.760 -0.8138 -0.1749  0.4602
  187MOL0     H25234   9.622   3.142   9.907  0.5622  0.1208 -0.1180
  187MOL0     H25235   9.424   3.102  10.015  1.7615 -3.3211  0.3201
  187MOL0     H25236   9.357   2.999   9.897  0.6080 -2.3000  2.3711
  187MOL0     H25237   9.387   3.170   9.720 -1.4460 -2.2039  1.4557
  187MOL0     H25238   9.422   3.301   9.836  0.9090 -1.3755  3.7330
  187MOL0     H25239   9.163   3.146   9.841 -0.2720  0.3863 -0.4283
  187MOL0     H25240   9.208   3.291   9.946 -1.4592  1.9069 -1.2411
  187MOL0     H25241   9.089   3.438   9.557  1.1688 -0.3505 -0.9063
  187MOL0     H25242   9.715   2.740  10.055 -1.2285 -0.3037 -2.2054
  187MOL0     H25243  10.022   2.614  10.119 -0.3272  0.4541  0.7104
  187MOL0     H25244   9.848   2.563  10.094 -1.5363  0.8764 -2.6921
  187MOL0     H25245   9.966   2.509   9.988 -0.2523 -0.7627  0.0109
  188MOL0     O25246   9.698   7.341   9.447 -0.8784 -0.6550  0.1313
  188MOL0     C25247   9.669   7.340   9.326 -0.6539 -1.0186 -0.3533
  188MOL0     O25248   9.755   7.338   9.224 -0.1328  0.2644 -0.4113
  188MOL0     C25249   9.884   7.290   9.247 -0.3178 -0.6104 -0.7820
  188MOL0     C25250   9.994   7.377   9.282  0.0583 -0.0296  0.8244
  188MOL0     C25251  10.112   7.322   9.332  0.6283  0.3975 -0.5417
  188MOL0     C25252  10.124   7.184   9.355  0.3356  0.6177  0.1294
  188MOL0     O25253  10.230   7.113   9.408  0.0536 -0.1414  0.2892
  188MOL0     C25254  10.359   7.181   9.399 -0.1353  0.1595  0.5850
  188MOL0     C25255  10.465   7.080   9.457 -1.1681  1.1006  0.4954
  188MOL0     C25256  10.608   7.142   9.430  0.4483  0.0283 -0.3491
  188MOL0     C25257  10.706   7.115   9.547 -0.3467 -0.5690 -0.5064
  188MOL0     C25258  10.840   7.186   9.527 -0.2002 -0.7541  0.0782
  188MOL0     C25259  10.951   7.151   9.636  0.6841  0.5673 -0.0375
  188MOL0     C25260  11.081   7.230   9.605 -0.0805 -0.0559 -0.2984
  188MOL0     C25261  11.203   7.191   9.687  0.0223  0.7513 -0.3663
  188MOL0     N25262  11.174   7.210   9.830 -0.1391  0.7151 -0.4406
  188MOL0     C25263  11.132   7.113   9.925  0.2539 -0.7827  0.1296
  188MOL0     C25264  11.136   7.174  10.042 -1.1482  0.2793  0.2016
  188MOL0     C25265  11.095   7.104  10.171  0.3030 -1.3036  0.8199
  188MOL0     C25266  11.081   7.200  10.293  0.1215  0.2036  0.6076
  188MOL0     C25267  11.217   7.236  10.363  0.0408  0.3228  0.0344
  188MOL0     C25268  11.174   7.343  10.471  1.0779 -0.1724  0.1402
  188MOL0     O25269  11.149   7.476  10.410 -0.0817  0.0045 -0.3998
  188MOL0     C25270  11.257   7.543  10.360  0.2528  0.7292 -0.2225
  188MOL0     C25271  11.248   7.607  10.237  0.4956  0.9927  0.3265
  188MOL0     C25272  11.348   7.684  10.190 -0.0803 -0.7046 -1.0909
  188MOL0     C25273  11.465   7.707  10.260 -0.2634  0.8495  0.8685
  188MOL0     C25274  11.559   7.804  10.208  0.2084 -0.5260  0.9249
  188MOL0     O25275  11.685   7.815  10.267  0.1333 -0.5392  0.6397
  188MOL0     C25276  11.776   7.915  10.254 -0.5017  0.2209 -0.3571
  188MOL0     C25277  11.794   7.993  10.145 -0.0790 -1.0334  0.0993
  188MOL0     C25278  11.904   8.079  10.132 -0.2581  0.1487  0.1199
  188MOL0     C25279  12.001   8.080  10.244 -0.9078  0.1402  0.1494
  188MOL0     O25280  12.118   8.159  10.226 -1.0907  0.2059 -0.8394
  188MOL0     C25281  12.226   8.142  10.321  0.4875  0.2032  0.2928
  188MOL0     C25282  12.323   8.262  10.292 -0.2958 -0.2647 -0.6839
  188MOL0     C25283  12.444   8.279  10.390 -0.3675 -0.1084  0.3280
  188MOL0     C25284  12.524   8.418  10.359  0.0057  0.1616 -0.3206
  188MOL0     C25285  12.651   8.415  10.462  1.3836  0.2369 -1.1636
  188MOL0     C25286  12.736   8.535  10.439 -1.1207 -0.9990  0.8029
  188MOL0     C25287  12.852   8.498  10.353 -0.0952 -0.3490 -0.0976
  188MOL0     C25288  12.931   8.633  10.317  0.6333 -0.9628  0.1751
  188MOL0    Cl25289  12.962   8.732  10.474  0.3280 -0.1836 -0.2183
  188MOL0     C25290  11.981   7.999  10.358 -0.8739 -0.4244  0.7637
  188MOL0     C25291  11.869   7.916  10.362 -0.5815  0.0390  0.4219
  188MOL0     O25292  11.512   7.877  10.119 -0.0614 -0.5841  0.1209
  188MOL0     C25293  11.481   7.628  10.371 -0.7838 -0.4598 -0.3536
  188MOL0     C25294  11.382   7.553  10.435  0.6518  0.4063 -0.4058
  188MOL0     N25295  11.174   7.304  10.023  0.1612 -0.1476  0.1769
  188MOL0     N25296  11.193   7.324   9.898  0.3088  0.1502 -0.0089
  188MOL0     C25297  10.021   7.103   9.305 -0.0521 -0.6737  0.0450
  188MOL0     C25298   9.900   7.155   9.252 -0.0080 -0.8250 -1.2458
  188MOL0     C25299   9.532   7.366   9.293  0.5530 -0.8219  0.1275
  188MOL0     C25300   9.508   7.424   9.161 -0.5491  0.5986 -0.8126
  188MOL0     C25301   9.379   7.456   9.133  0.3382 -0.4101 -0.0946
  188MOL0     C25302   9.274   7.433   9.221 -0.0152  0.2583  0.6272
  188MOL0     O25303   9.139   7.441   9.177 -0.1048  0.2152  0.5420
  188MOL0     C25304   9.113   7.474   9.045 -0.3924 -0.9676 -0.0391
  188MOL0     C25305   8.963   7.459   9.040  0.1372  0.7563 -0.1448
  188MOL0     C25306   8.894   7.570   9.125  0.7009 -0.3981 -0.4036
  188MOL0     C25307   8.747   7.582   9.082 -0.0704 -0.4575  0.3180
  188MOL0     C25308   8.665   7.464   9.099 -0.1050 -0.4812 -0.0440
  188MOL0     C25309   8.605   7.361   9.109  0.0130  0.0273  0.0497
  188MOL0     C25310   9.302   7.378   9.346 -0.0684 -0.2295 -0.8865
  188MOL0     C25311   9.429   7.340   9.390 -0.2699  0.5923  1.0113
  188MOL0     C25312   9.444   7.278   9.525  0.1629  0.3569 -0.1467
  188MOL0     H25313   9.984   7.484   9.298 -1.8988 -0.2609  1.5115
  188MOL0     H25314  10.198   7.380   9.363  1.4017 -1.9854  2.1732
  188MOL0     H25315  10.372   7.208   9.293 -3.0636  2.0027  0.5791
  188MOL0     H25316  10.368   7.271   9.462 -0.0240  2.5660 -2.5990
  188MOL0     H25317  10.452   6.989   9.398 -2.9412  2.8092 -1.9967
  188MOL0     H25318  10.441   7.059   9.561  0.9503 -3.8746  0.2370
  188MOL0     H25319  10.607   7.252   9.431  0.8627  0.0374 -0.8772
  188MOL0     H25320  10.653   7.109   9.337  1.7997 -0.4783  0.4604
  188MOL0     H25321  10.664   7.151   9.641  3.3989 -0.7300  1.3932
  188MOL0     H25322  10.718   7.007   9.558 -2.6928 -0.9642 -1.3258
  188MOL0     H25323  10.886   7.150   9.434 -2.6093 -2.1741 -0.6512
  188MOL0     H25324  10.825   7.294   9.534 -2.3257 -0.9900 -0.1952
  188MOL0     H25325  10.914   7.176   9.735 -0.7162 -3.5067  0.6813
  188MOL0     H25326  10.986   7.047   9.639  2.1259  0.9919 -1.1392
  188MOL0     H25327  11.058   7.335   9.626 -1.5367  0.5717 -4.1579
  188MOL0     H25328  11.097   7.220   9.497 -0.1661  1.0518 -0.4253
  188MOL0     H25329  11.211   7.082   9.684 -1.3060  0.6392 -0.1880
  188MOL0     H25330  11.292   7.244   9.652  1.3699 -0.8396  0.5062
  188MOL0     H25331  11.145   7.006   9.910  2.1239 -0.8952  2.0273
  188MOL0     H25332  10.993   7.069  10.156 -0.0646 -0.9871  2.4074
  188MOL0     H25333  11.170   7.025  10.185  1.5599 -0.7056 -1.8420
  188MOL0     H25334  11.039   7.294  10.256 -4.1654 -1.7206 -0.0339
  188MOL0     H25335  11.009   7.155  10.364 -0.3219  1.6116  1.0901
  188MOL0     H25336  11.277   7.274  10.280 -1.1994 -0.5029 -1.2848
  188MOL0     H25337  11.258   7.142  10.402 -1.1840 -0.7743 -1.2242
  188MOL0     H25338  11.250   7.349  10.550  1.7427 -1.6784 -0.3453
  188MOL0     H25339  11.088   7.305  10.526  0.4469 -2.3548 -2.1776
  188MOL0     H25340  11.161   7.599  10.173  1.5376  0.9189 -1.1323
  188MOL0     H25341  11.327   7.741  10.100 -0.8474 -0.0973 -0.5447
  188MOL0     H25342  11.732   7.987  10.056 -3.0653 -0.3266  1.9954
  188MOL0     H25343  11.934   8.133  10.043 -2.2393  0.8528 -0.1705
  188MOL0     H25344  12.185   8.151  10.422  0.5091  1.0570  0.2335
  188MOL0     H25345  12.276   8.045  10.307 -0.4736  0.0147 -2.4613
  188MOL0     H25346  12.368   8.252  10.192  1.3624 -2.0108  0.1694
  188MOL0     H25347  12.261   8.352  10.292 -0.8840 -0.6686 -0.6957
  188MOL0     H25348  12.391   8.286  10.485 -2.2748 -2.9642 -0.3952
  188MOL0     H25349  12.503   8.188  10.383  0.0548  0.2698 -3.5963
  188MOL0     H25350  12.455   8.501  10.379 -0.4084 -0.4190  0.6976
  188MOL0     H25351  12.554   8.427  10.254 -0.7759  2.2289 -0.4311
  188MOL0     H25352  12.711   8.323  10.465  1.2545  0.1391  1.9307
  188MOL0     H25353  12.602   8.416  10.560 -0.5878 -1.8448 -2.0240
  188MOL0     H25354  12.687   8.628  10.410  1.8913  0.8733  1.2320
  188MOL0     H25355  12.780   8.552  10.538  0.5164 -3.0381  0.5134
  188MOL0     H25356  12.823   8.455  10.257  0.3692  0.1571 -0.4683
  188MOL0     H25357  12.917   8.431  10.410  0.4072  0.1105 -0.1153
  188MOL0     H25358  13.025   8.609  10.267  0.2300 -0.2841 -0.9231
  188MOL0     H25359  12.863   8.688  10.252 -0.9548 -2.4836  0.4773
  188MOL0     H25360  12.056   7.986  10.435  0.0913 -0.5899 -0.1865
  188MOL0     H25361  11.856   7.840  10.438  1.6922 -1.7736 -0.8714
  188MOL0     H25362  11.569   7.656  10.429 -0.9770 -0.5782  0.0034
  188MOL0     H25363  11.406   7.508  10.530  2.2138  2.7376  0.3975
  188MOL0     H25364  10.032   6.995   9.303  4.2842 -0.4319 -1.9644
  188MOL0     H25365   9.814   7.091   9.231 -1.9005  1.5304 -1.0567
  188MOL0     H25366   9.582   7.466   9.094  0.7773  0.8070  0.7143
  188MOL0     H25367   9.369   7.511   9.040  2.5098  0.5590  0.1815
  188MOL0     H25368   9.164   7.410   8.972 -1.4032 -0.7145 -0.9957
  188MOL0     H25369   9.151   7.577   9.034  1.5132 -1.6740 -0.5663
  188MOL0     H25370   8.941   7.358   9.078  0.4456  1.0546  0.8497
  188MOL0     H25371   8.925   7.465   8.938 -3.1435  3.6003  1.0757
  188MOL0     H25372   8.953   7.660   9.106  2.2601 -1.5892 -1.4538
  188MOL0     H25373   8.895   7.533   9.228  2.3759  0.8807  0.0806
  188MOL0     H25374   8.704   7.663   9.141  2.2492  0.9573  0.1810
  188MOL0     H25375   8.742   7.606   8.975  0.6635  0.2273  0.4316
  188MOL0     H25376   8.553   7.268   9.092 -0.4051  0.1192  0.7683
  188MOL0     H25377   9.224   7.367   9.421  0.7824 -0.4697 -0.0237
  188MOL0     H25378   9.345   7.242   9.552 -0.9582  1.8319 -2.0312
  188MOL0     H25379   9.515   7.194   9.525  0.3612  0.5214 -0.7064
  188MOL0     H25380   9.482   7.352   9.597  3.0229 -0.6769 -0.4603
  189MOL0     O25381   8.239   0.975   2.678  0.5850 -0.7133  0.3205
  189MOL0     C25382   8.291   1.011   2.787 -0.1900 -0.3502 -0.5766
  189MOL0     O25383   8.434   1.009   2.813  0.0711 -0.0602  0.0085
  189MOL0     C25384   8.520   0.932   2.741  0.4882 -0.6208 -0.2144
  189MOL0     C25385   8.636   0.905   2.810 -0.5335 -0.4898 -0.9024
  189MOL0     C25386   8.747   0.848   2.750  0.2801  0.7754  0.3548
  189MOL0     C25387   8.747   0.819   2.612  0.4099 -0.4540 -0.1699
  189MOL0     O25388   8.855   0.768   2.541  0.4239 -0.5266 -0.6114
  189MOL0     C25389   8.838   0.664   2.443 -0.2902 -0.4085 -0.2834
  189MOL0     C25390   8.972   0.603   2.406 -0.7607 -0.7976  0.5603
  189MOL0     C25391   8.964   0.507   2.290 -0.2226  0.8996  0.0798
  189MOL0     C25392   8.963   0.369   2.345 -0.3213  0.5393  0.0112
  189MOL0     C25393   8.991   0.271   2.227 -0.6086  0.1153  0.3939
  189MOL0     C25394   9.013   0.131   2.285 -0.7682 -0.1783 -0.1075
  189MOL0     C25395   9.047   0.026   2.181 -0.6712  0.5076 -0.0013
  189MOL0     C25396   9.031  -0.115   2.242 -0.0257 -0.4979 -0.0672
  189MOL0     N25397   9.067  -0.213   2.136 -0.6864 -0.2632 -0.5970
  189MOL0     C25398   9.191  -0.260   2.126  0.1312  0.8272  0.1978
  189MOL0     C25399   9.172  -0.369   2.040 -0.6908 -0.4943 -0.1443
  189MOL0     C25400   9.267  -0.487   2.017  0.6693  0.5750  0.0191
  189MOL0     C25401   9.395  -0.478   2.105  0.3764  0.3525 -0.3655
  189MOL0     C25402   9.485  -0.598   2.071 -0.1749 -0.2088 -0.6359
  189MOL0     C25403   9.618  -0.597   2.136  0.2861 -0.1671  0.8435
  189MOL0     O25404   9.610  -0.625   2.278 -0.3315 -0.2906  0.1962
  189MOL0     C25405   9.677  -0.541   2.365 -0.0425  0.2979 -0.6711
  189MOL0     C25406   9.616  -0.427   2.418  0.2498  0.3933 -0.2286
  189MOL0     C25407   9.693  -0.340   2.501  0.0958 -0.6220 -0.1879
  189MOL0     C25408   9.828  -0.382   2.536  0.3966 -0.3803  0.1544
  189MOL0     C25409   9.902  -0.315   2.642  0.2202  0.6647  0.5813
  189MOL0     O25410  10.030  -0.368   2.668  0.1035  0.5203 -0.1742
  189MOL0     C25411  10.116  -0.316   2.761  0.5548 -0.0033  0.2414
  189MOL0     C25412  10.229  -0.397   2.780 -0.1180 -0.4814  0.5419
  189MOL0     C25413  10.334  -0.357   2.865  0.4938  0.0522  0.7882
  189MOL0     C25414  10.331  -0.245   2.930 -0.2772 -1.2266 -0.2423
  189MOL0     O25415  10.439  -0.216   3.011  0.2151 -0.1006  0.1619
  189MOL0     C25416  10.416  -0.144   3.135  0.7141 -0.0786  0.3051
  189MOL0     C25417  10.551  -0.133   3.218 -0.3075 -1.2506  0.1672
  189MOL0     C25418  10.631  -0.011   3.158  0.0387  0.0158 -0.8429
  189MOL0     C25419  10.765  -0.004   3.223 -0.0916 -0.6067  0.0539
  189MOL0     C25420  10.849   0.103   3.160 -0.0643 -0.7210 -0.6064
  189MOL0     C25421  10.989   0.122   3.222  0.7066  0.2627  0.7810
  189MOL0     C25422  11.085   0.012   3.170  0.6666  0.2208 -1.1047
  189MOL0     C25423  11.191  -0.018   3.267  0.5564  0.3687 -0.7090
  189MOL0    Cl25424  11.120  -0.061   3.428  0.3131 -0.0098  0.3927
  189MOL0     C25425  10.223  -0.149   2.904  0.1667  0.8947 -0.1926
  189MOL0     C25426  10.111  -0.187   2.827  0.3013  0.3021  0.7459
  189MOL0     O25427   9.847  -0.228   2.709  0.2091 -1.2601  0.0845
  189MOL0     C25428   9.877  -0.496   2.475 -1.1410  0.2609 -0.1788
  189MOL0     C25429   9.805  -0.571   2.386 -0.7650  0.4664  0.4797
  189MOL0     N25430   9.047  -0.374   1.999 -0.7200 -0.1883 -0.2711
  189MOL0     N25431   8.980  -0.285   2.061  0.3812 -0.6537  0.0809
  189MOL0     C25432   8.624   0.840   2.545  0.7777  0.1374 -0.3974
  189MOL0     C25433   8.506   0.881   2.613 -0.2931  0.7542  0.6632
  189MOL0     C25434   8.212   1.069   2.901 -0.2023  1.2831  0.0456
  189MOL0     C25435   8.279   1.099   3.026 -0.0076 -0.3216  0.0519
  189MOL0     C25436   8.196   1.143   3.137 -0.5639  1.0373 -0.3512
  189MOL0     C25437   8.062   1.160   3.133 -0.7269 -0.9682  0.0101
  189MOL0     O25438   7.997   1.218   3.238  0.2434  0.2850 -0.8250
  189MOL0     C25439   7.884   1.147   3.294 -0.3674 -0.6056  0.4490
  189MOL0     C25440   7.942   1.071   3.414  0.0103 -1.0236 -0.0137
  189MOL0     C25441   8.019   0.934   3.385  0.2287 -0.5792 -0.1047
  189MOL0     C25442   8.099   0.882   3.499 -0.1158  0.6604  0.2417
  189MOL0     C25443   8.242   0.916   3.499  0.3172  0.9851 -0.5224
  189MOL0     C25444   8.356   0.957   3.504 -0.2123  0.1975  0.3170
  189MOL0     C25445   7.994   1.133   3.020  0.3694  0.2366  0.8424
  189MOL0     C25446   8.069   1.083   2.909  0.5581  0.2578 -0.5225
  189MOL0     C25447   7.986   1.038   2.791 -0.8815 -0.6273 -0.2139
  189MOL0     H25448   8.644   0.938   2.913 -1.3519  0.7506 -1.2104
  189MOL0     H25449   8.840   0.809   2.791  0.0526 -0.5976 -0.3478
  189MOL0     H25450   8.769   0.595   2.491 -1.0055  1.9982  2.4318
  189MOL0     H25451   8.789   0.702   2.353  0.3712 -0.8317 -0.8355
  189MOL0     H25452   9.024   0.561   2.492  0.9013  0.3597  0.1706
  189MOL0     H25453   9.036   0.686   2.375 -2.4039  0.3191  0.0170
  189MOL0     H25454   9.050   0.523   2.225  0.2901  0.9483  0.7604
  189MOL0     H25455   8.873   0.520   2.230 -1.3031 -3.6755  0.3131
  189MOL0     H25456   9.041   0.360   2.421 -0.9542  0.2705  0.6325
  189MOL0     H25457   8.867   0.347   2.392  0.2085  0.4725  1.0883
  189MOL0     H25458   8.910   0.267   2.153 -1.3997 -0.1171  1.2402
  189MOL0     H25459   9.083   0.300   2.175  1.0015 -2.0570  1.8719
  189MOL0     H25460   9.085   0.138   2.367  0.0213  1.7860 -0.9039
  189MOL0     H25461   8.921   0.099   2.334  1.1357 -2.5430  2.2146
  189MOL0     H25462   9.146   0.047   2.139  0.2692  2.2863  2.8313
  189MOL0     H25463   8.976   0.034   2.098 -1.8926 -1.9693  0.7097
  189MOL0     H25464   9.096  -0.127   2.329  2.0906 -2.0391 -1.7455
  189MOL0     H25465   8.927  -0.138   2.268 -0.8663  2.1513 -0.7014
  189MOL0     H25466   9.282  -0.235   2.179  1.6259 -2.8713 -0.3520
  189MOL0     H25467   9.224  -0.584   2.043  0.2943  0.1946 -1.8968
  189MOL0     H25468   9.301  -0.494   1.914  1.1429 -1.0690  0.2569
  189MOL0     H25469   9.443  -0.382   2.087 -1.9046  1.4245 -1.0390
  189MOL0     H25470   9.366  -0.484   2.211  0.4636 -0.0295 -0.3595
  189MOL0     H25471   9.512  -0.606   1.965 -3.2062 -2.6735 -1.3642
  189MOL0     H25472   9.446  -0.694   2.106  0.0485 -0.4263 -0.9822
  189MOL0     H25473   9.669  -0.504   2.110  1.8184 -0.9921  0.8242
  189MOL0     H25474   9.675  -0.676   2.087  0.7399  0.4621  0.3445
  189MOL0     H25475   9.521  -0.396   2.376 -0.4449 -2.0337 -0.6051
  189MOL0     H25476   9.648  -0.252   2.546  0.7683  0.5566 -1.6852
  189MOL0     H25477  10.239  -0.481   2.711 -0.4434  2.1781 -3.0864
  189MOL0     H25478  10.429  -0.408   2.876 -0.2898 -1.5408  0.3633
  189MOL0     H25479  10.379  -0.044   3.112  2.1532  0.8011  1.5910
  189MOL0     H25480  10.337  -0.206   3.179  0.3036 -0.5028 -0.9844
  189MOL0     H25481  10.521  -0.123   3.323 -1.7144 -3.8157  0.0768
  189MOL0     H25482  10.608  -0.225   3.203  2.3418  0.6245 -2.3216
  189MOL0     H25483  10.649  -0.026   3.051  2.2875 -1.7459 -0.2941
  189MOL0     H25484  10.583   0.085   3.180  2.5012  0.9787  0.8818
  189MOL0     H25485  10.804  -0.103   3.198  0.2001 -0.4012 -0.3196
  189MOL0     H25486  10.752   0.006   3.331  0.5640 -1.7926  0.2592
  189MOL0     H25487  10.785   0.192   3.159  0.9058 -0.0100 -1.7842
  189MOL0     H25488  10.855   0.085   3.052  0.1671  0.7367 -0.8498
  189MOL0     H25489  11.039   0.217   3.202 -0.3275  0.5599 -0.5340
  189MOL0     H25490  10.969   0.120   3.330 -0.8296  2.2571  0.5876
  189MOL0     H25491  11.132   0.034   3.074  3.0098 -2.7644 -0.7961
  189MOL0     H25492  11.028  -0.080   3.151 -3.2783  1.5439  2.5478
  189MOL0     H25493  11.241  -0.108   3.231 -0.1113 -0.3301  0.1007
  189MOL0     H25494  11.269   0.056   3.284  0.9652 -0.0234 -0.8550
  189MOL0     H25495  10.204  -0.053   2.952 -3.1838 -0.2503  1.0478
  189MOL0     H25496  10.022  -0.126   2.837  0.9944  1.4582  0.0574
  189MOL0     H25497   9.978  -0.533   2.492 -1.3645  0.3889  1.6651
  189MOL0     H25498   9.848  -0.663   2.348 -0.6954 -0.3108  2.3697
  189MOL0     H25499   8.619   0.818   2.438 -0.0163  2.8457 -1.0100
  189MOL0     H25500   8.421   0.899   2.548  1.4661  1.9964 -1.4140
  189MOL0     H25501   8.386   1.092   3.042 -0.2890  0.3869  2.6784
  189MOL0     H25502   8.252   1.170   3.226 -2.3726  0.0777  1.1508
  189MOL0     H25503   7.842   1.072   3.226 -2.7461  0.0014  1.1559
  189MOL0     H25504   7.802   1.216   3.317  0.5149 -0.0002  1.9731
  189MOL0     H25505   7.868   1.054   3.492  1.1036 -0.2866  1.2197
  189MOL0     H25506   8.017   1.138   3.456 -0.2370 -0.0341 -1.0863
  189MOL0     H25507   8.081   0.957   3.298 -1.6220  3.1402 -0.6755
  189MOL0     H25508   7.944   0.857   3.364  0.0998 -0.6696  0.6452
  189MOL0     H25509   8.067   0.901   3.602  0.6641  0.0661  0.6092
  189MOL0     H25510   8.096   0.774   3.480 -0.6879  0.0977  3.0696
  189MOL0     H25511   8.450   0.997   3.534  0.0608 -0.7880  0.8512
  189MOL0     H25512   7.886   1.139   3.010  0.2936 -2.6413 -1.7213
  189MOL0     H25513   8.005   0.933   2.765  2.8215 -0.8558  2.6225
  189MOL0     H25514   7.879   1.049   2.813 -1.8232 -2.0789 -3.4724
  189MOL0     H25515   8.003   1.107   2.707 -0.3299 -2.2081 -1.4460
  190MOL0     O25516   7.720   2.163   7.165  0.0373  0.3557 -0.1795
  190MOL0     C25517   7.637   2.137   7.078  0.4930 -0.5205  0.2089
  190MOL0     O25518   7.669   2.106   6.949 -0.6022  0.4059  0.1412
  190MOL0     C25519   7.803   2.113   6.914  0.3676  0.3797  0.6188
  190MOL0     C25520   7.864   2.238   6.914 -0.4761 -0.5129  0.5125
  190MOL0     C25521   7.994   2.249   6.873  0.2960  0.0404  0.5315
  190MOL0     C25522   8.068   2.142   6.823 -0.9150 -0.8671  0.5279
  190MOL0     O25523   8.202   2.142   6.791 -0.0053 -0.1342  0.1121
  190MOL0     C25524   8.297   2.242   6.847 -0.8961  0.5220  0.6131
  190MOL0     C25525   8.435   2.195   6.808 -0.4198  0.2048 -0.1636
  190MOL0     C25526   8.458   2.232   6.659  0.2781 -0.1131 -0.1884
  190MOL0     C25527   8.566   2.136   6.592 -0.0804  0.0809  0.9310
  190MOL0     C25528   8.695   2.156   6.643 -0.4717  0.1690 -0.3617
  190MOL0     C25529   8.802   2.074   6.578  0.4228 -1.0490 -0.0735
  190MOL0     C25530   8.946   2.115   6.620  0.0082  1.0134 -1.1567
  190MOL0     C25531   9.014   2.015   6.711 -0.1166 -0.8457  0.5255
  190MOL0     N25532   9.137   2.074   6.775  0.4226 -0.3274 -0.1249
  190MOL0     C25533   9.244   2.126   6.710 -0.6580  0.4255  0.0394
  190MOL0     C25534   9.329   2.158   6.807 -1.1496 -0.6935 -0.5385
  190MOL0     C25535   9.466   2.205   6.785  0.0939  0.6521  0.1277
  190MOL0     C25536   9.567   2.121   6.852 -0.4980  0.5454  0.1355
  190MOL0     C25537   9.601   2.183   6.987 -0.0882 -0.4727  0.2590
  190MOL0     C25538   9.716   2.126   7.068  0.2183 -0.3087 -0.4065
  190MOL0     O25539   9.843   2.162   7.016 -1.0126 -0.1701 -0.4686
  190MOL0     C25540   9.945   2.193   7.104  0.0963  0.1564  0.8227
  190MOL0     C25541  10.046   2.275   7.053 -0.1193 -1.1200 -1.1050
  190MOL0     C25542  10.145   2.334   7.138 -0.0602 -0.3385 -0.7213
  190MOL0     C25543  10.154   2.295   7.271 -0.2531 -0.3571 -0.1722
  190MOL0     C25544  10.258   2.350   7.359 -0.6940 -0.1495 -0.0652
  190MOL0     O25545  10.327   2.452   7.309 -0.1950 -0.9052  0.1993
  190MOL0     C25546  10.428   2.511   7.378 -1.1825  0.7769 -0.1049
  190MOL0     C25547  10.561   2.454   7.380  0.0625 -0.7785 -0.4493
  190MOL0     C25548  10.663   2.533   7.432 -0.0598 -0.0206  0.9316
  190MOL0     C25549  10.638   2.662   7.474 -1.0136  0.8374 -0.2555
  190MOL0     O25550  10.749   2.722   7.524  0.2436 -0.4944 -0.7103
  190MOL0     C25551  10.756   2.866   7.539  0.0825 -0.1159  1.0127
  190MOL0     C25552  10.896   2.911   7.512 -0.1675 -0.5083  1.0239
  190MOL0     C25553  10.900   3.069   7.525  0.2093  0.4702 -0.4424
  190MOL0     C25554  11.047   3.108   7.510  0.1094 -0.0152 -0.1407
  190MOL0     C25555  11.086   3.239   7.570  0.5036  0.4429  0.3617
  190MOL0     C25556  10.974   3.353   7.549  0.0537 -0.8837 -0.1757
  190MOL0     C25557  11.018   3.457   7.655 -0.9685 -0.0156 -0.1516
  190MOL0     C25558  11.125   3.553   7.616 -0.6977 -0.2418  0.5112
  190MOL0    Cl25559  11.043   3.672   7.513 -0.1589 -0.1193  0.1651
  190MOL0     C25560  10.508   2.712   7.483  0.4800 -0.3671  0.3108
  190MOL0     C25561  10.403   2.631   7.436  0.0554  0.2207 -0.2290
  190MOL0     O25562  10.279   2.297   7.467  0.3191 -1.0433 -0.7996
  190MOL0     C25563  10.069   2.196   7.311  1.2588  1.1177 -0.4805
  190MOL0     C25564   9.965   2.147   7.232 -0.6761  0.0818 -0.9260
  190MOL0     N25565   9.276   2.131   6.928  0.7716 -0.2322  0.2309
  190MOL0     N25566   9.159   2.072   6.910 -0.3186 -0.3023 -0.1890
  190MOL0     C25567   8.010   2.013   6.821  0.1514 -0.1267  0.4093
  190MOL0     C25568   7.880   1.998   6.869  0.1064  0.0911  0.1628
  190MOL0     C25569   7.494   2.153   7.122  0.0670  0.6730 -0.1840
  190MOL0     C25570   7.464   2.227   7.236 -0.1366  1.1950  0.0327
  190MOL0     C25571   7.338   2.250   7.283  0.3411  0.4567  0.7229
  190MOL0     C25572   7.225   2.190   7.224  0.1936 -0.0895  0.0877
  190MOL0     O25573   7.107   2.208   7.286  0.1357 -0.1226 -0.2173
  190MOL0     C25574   6.990   2.169   7.219  0.3470 -0.2622  0.8159
  190MOL0     C25575   6.871   2.241   7.281 -0.2031  0.9108  0.1585
  190MOL0     C25576   6.893   2.395   7.296  0.3718 -0.0453  0.1135
  190MOL0     C25577   6.769   2.462   7.381 -1.2828  0.0782  0.3473
  190MOL0     C25578   6.638   2.448   7.320  0.6236  0.8868 -1.0448
  190MOL0     C25579   6.527   2.421   7.279 -0.8119 -1.0969  0.5984
  190MOL0     C25580   7.245   2.123   7.102 -0.4853  0.6324 -0.3501
  190MOL0     C25581   7.381   2.105   7.050  0.8102 -1.2409 -0.3454
  190MOL0     C25582   7.402   2.023   6.922  0.2794  0.4961 -0.6524
  190MOL0     H25583   7.810   2.329   6.941 -1.7397 -0.5257 -1.6842
  190MOL0     H25584   8.026   2.353   6.868  0.4131 -0.0453 -0.8478
  190MOL0     H25585   8.286   2.343   6.807 -1.7787  2.2009  4.6805
  190MOL0     H25586   8.304   2.254   6.955  1.7748  0.3668  0.5332
  190MOL0     H25587   8.437   2.086   6.810 -0.3833 -0.1190 -5.0902
  190MOL0     H25588   8.518   2.228   6.872  0.7776 -3.4604  0.4236
  190MOL0     H25589   8.479   2.338   6.641 -1.7006  0.1098 -1.4482
  190MOL0     H25590   8.366   2.211   6.603 -2.5559  2.2344  3.2176
  190MOL0     H25591   8.544   2.030   6.600  2.0586 -0.4301  0.6846
  190MOL0     H25592   8.561   2.156   6.484  0.8569  0.1130  0.8852
  190MOL0     H25593   8.712   2.261   6.620  0.7063 -0.3682 -2.2471
  190MOL0     H25594   8.694   2.142   6.752 -2.2813 -2.6863 -0.6282
  190MOL0     H25595   8.774   1.969   6.594 -1.1410 -0.7505 -0.6854
  190MOL0     H25596   8.803   2.087   6.470 -1.9995  2.2275  0.1370
  190MOL0     H25597   8.946   2.212   6.669  0.2444  0.7859 -0.7043
  190MOL0     H25598   9.007   2.120   6.529  0.7976  3.3262 -0.5604
  190MOL0     H25599   8.939   1.978   6.781 -2.0042 -0.4340 -1.1938
  190MOL0     H25600   9.046   1.931   6.649  0.3552  0.1521 -0.6436
  190MOL0     H25601   9.255   2.114   6.603 -0.3356  0.7397  0.0347
  190MOL0     H25602   9.496   2.200   6.680  1.3977  0.3907  0.4894
  190MOL0     H25603   9.473   2.311   6.812 -3.1734  1.6355 -2.2256
  190MOL0     H25604   9.542   2.015   6.849  1.3410  0.0929 -2.7903
  190MOL0     H25605   9.659   2.116   6.792 -1.0977 -0.1350 -0.7454
  190MOL0     H25606   9.514   2.187   7.054  0.2091  1.7385  0.5933
  190MOL0     H25607   9.630   2.285   6.961 -0.7172 -1.1077 -3.4890
  190MOL0     H25608   9.696   2.019   7.063  1.7127 -0.6916  0.9203
  190MOL0     H25609   9.697   2.150   7.173 -1.7635 -1.6263 -0.4082
  190MOL0     H25610  10.040   2.309   6.950  0.1412  1.5857 -0.3120
  190MOL0     H25611  10.219   2.405   7.103  0.3811 -0.6168 -0.3554
  190MOL0     H25612  10.588   2.356   7.341  1.3990 -0.0460 -1.4542
  190MOL0     H25613  10.764   2.493   7.436  0.7166  1.9080  3.7529
  190MOL0     H25614  10.683   2.914   7.472  0.5866  1.7960  1.7649
  190MOL0     H25615  10.718   2.890   7.638 -2.0479 -1.2925  0.5465
  190MOL0     H25616  10.967   2.868   7.583  1.9115 -1.3419 -1.4087
  190MOL0     H25617  10.939   2.868   7.421  0.3568 -0.5033  1.2683
  190MOL0     H25618  10.821   3.125   7.475 -0.2082  1.9124  1.6937
  190MOL0     H25619  10.878   3.086   7.631  0.5590 -0.6693 -0.1677
  190MOL0     H25620  11.062   3.111   7.402  1.5243  0.3407  0.0407
  190MOL0     H25621  11.104   3.023   7.548 -1.4392 -1.2386 -0.4303
  190MOL0     H25622  11.179   3.274   7.524 -0.4501  0.6910 -1.5030
  190MOL0     H25623  11.078   3.221   7.677 -1.9058 -4.8575 -0.3981
  190MOL0     H25624  10.963   3.398   7.450 -0.0692  0.8739  0.6134
  190MOL0     H25625  10.873   3.325   7.578 -0.3185  1.9926  1.6669
  190MOL0     H25626  11.051   3.416   7.751 -1.7484 -0.2920  0.0094
  190MOL0     H25627  10.926   3.509   7.683 -1.9953 -1.7594 -0.1071
  190MOL0     H25628  11.174   3.588   7.707  0.2108 -0.9803  0.3181
  190MOL0     H25629  11.203   3.515   7.550 -1.2479 -1.1821  0.3805
  190MOL0     H25630  10.481   2.806   7.530 -0.9043 -0.6324  0.0782
  190MOL0     H25631  10.302   2.666   7.454 -0.5876 -0.7175 -1.7064
  190MOL0     H25632  10.086   2.146   7.406 -1.3150  1.3655  0.1855
  190MOL0     H25633   9.900   2.075   7.279 -0.7116  0.8008  0.1529
  190MOL0     H25634   8.075   1.933   6.787 -1.7954 -0.4589 -2.9720
  190MOL0     H25635   7.841   1.897   6.878 -2.9288  0.9324 -2.1395
  190MOL0     H25636   7.532   2.261   7.313 -2.0457 -0.0678  2.4171
  190MOL0     H25637   7.318   2.301   7.376  2.1912 -0.9619  1.9893
  190MOL0     H25638   6.976   2.062   7.239 -0.1775 -0.1893  0.8600
  190MOL0     H25639   6.978   2.178   7.110 -0.4394  2.9306  1.0552
  190MOL0     H25640   6.843   2.204   7.380 -0.1178 -0.8688 -0.4422
  190MOL0     H25641   6.790   2.201   7.220 -1.3797 -1.5889  3.1169
  190MOL0     H25642   6.888   2.438   7.195  0.6420  0.9326  0.5040
  190MOL0     H25643   6.985   2.412   7.352  0.8619  2.6912 -1.3147
  190MOL0     H25644   6.770   2.417   7.480  2.4600  0.6947  0.7474
  190MOL0     H25645   6.776   2.571   7.395 -2.2368  0.3399 -1.0001
  190MOL0     H25646   6.426   2.410   7.245 -1.7783  2.1810  1.9718
  190MOL0     H25647   7.169   2.082   7.037  3.2420 -2.9551 -2.9486
  190MOL0     H25648   7.467   1.936   6.935 -0.9282 -0.1972  1.1580
  190MOL0     H25649   7.302   1.985   6.899 -0.6809  2.0189  0.7356
  190MOL0     H25650   7.448   2.089   6.848 -0.2742  1.4765 -0.1529
  191MOL0     O25651   1.432   5.698   2.041 -0.3431 -0.7755 -0.4185
  191MOL0     C25652   1.378   5.600   2.093 -0.3476 -0.1247 -0.1899
  191MOL0     O25653   1.427   5.512   2.190 -0.0782  0.1347  0.7172
  191MOL0     C25654   1.564   5.529   2.222 -0.1546 -0.2119  1.0175
  191MOL0     C25655   1.614   5.655   2.264 -0.0589 -0.1362 -0.0494
  191MOL0     C25656   1.751   5.660   2.307  0.8226 -0.0051  0.6225
  191MOL0     C25657   1.835   5.551   2.315  0.3594 -0.1147 -0.3013
  191MOL0     O25658   1.966   5.549   2.361  0.2804 -0.3630  0.5054
  191MOL0     C25659   2.029   5.669   2.389 -0.5478 -1.0649 -0.6054
  191MOL0     C25660   2.162   5.653   2.451  0.1279 -0.6717 -0.0285
  191MOL0     C25661   2.152   5.595   2.591  0.1048 -0.5380  0.0497
  191MOL0     C25662   2.284   5.611   2.666  0.5225  0.0374  0.4392
  191MOL0     C25663   2.331   5.759   2.686 -0.7011 -0.2389 -0.1078
  191MOL0     C25664   2.423   5.776   2.812  1.4210  0.3159 -0.2836
  191MOL0     C25665   2.549   5.695   2.817  0.6298 -0.0262  0.6446
  191MOL0     C25666   2.633   5.704   2.690 -0.2773  0.2238  0.4084
  191MOL0     N25667   2.695   5.837   2.671 -0.1984  0.5743  0.5732
  191MOL0     C25668   2.640   5.963   2.640  0.6135  0.5635 -0.4547
  191MOL0     C25669   2.738   6.056   2.654  0.1850 -0.1293 -0.4485
  191MOL0     C25670   2.730   6.203   2.616  0.0427  0.0765 -0.1248
  191MOL0     C25671   2.747   6.228   2.464 -0.4928 -0.5170  0.4257
  191MOL0     C25672   2.902   6.240   2.422  0.2257  0.0660 -0.0004
  191MOL0     C25673   2.984   6.109   2.409  0.3930  0.1100  0.3729
  191MOL0     O25674   3.115   6.148   2.389 -0.2661 -0.2283  0.0198
  191MOL0     C25675   3.218   6.046   2.397  0.3681  0.9591  0.9637
  191MOL0     C25676   3.203   5.907   2.401 -0.1775 -0.9109  1.0075
  191MOL0     C25677   3.308   5.815   2.387  0.2376  0.3736 -0.2463
  191MOL0     C25678   3.440   5.869   2.374 -0.3288  0.1720  0.1551
  191MOL0     C25679   3.557   5.783   2.349 -0.3417 -0.3560 -0.7018
  191MOL0     O25680   3.667   5.844   2.295 -0.4458 -0.3753  0.5927
  191MOL0     C25681   3.771   5.774   2.236 -0.1056  1.4694 -0.4333
  191MOL0     C25682   3.858   5.847   2.156 -0.3857  0.0072  0.4682
  191MOL0     C25683   3.961   5.790   2.074  0.1446  0.2044  0.1762
  191MOL0     C25684   3.994   5.656   2.096 -0.0837 -0.6702  0.5419
  191MOL0     O25685   4.103   5.585   2.054 -0.1821 -0.7279 -0.0755
  191MOL0     C25686   4.202   5.648   1.972 -0.2234 -0.0412  0.5285
  191MOL0     C25687   4.328   5.561   1.952  0.8788  0.2554 -1.3325
  191MOL0     C25688   4.396   5.600   1.817  0.1981 -0.3746  0.4935
  191MOL0     C25689   4.336   5.523   1.698 -0.2670 -0.6421 -0.4832
  191MOL0     C25690   4.402   5.586   1.579 -0.2306  0.0942  0.7731
  191MOL0     C25691   4.346   5.516   1.448 -0.7662 -0.0870 -0.6886
  191MOL0     C25692   4.439   5.530   1.332  0.1557 -0.3150  0.5504
  191MOL0     C25693   4.481   5.672   1.314 -0.5421 -0.6533  0.0642
  191MOL0    Cl25694   4.349   5.792   1.295 -0.4920 -0.0974 -0.1399
  191MOL0     C25695   3.910   5.581   2.183 -0.2276  0.1003  0.0918
  191MOL0     C25696   3.804   5.638   2.250  0.2015 -0.2766  0.0033
  191MOL0     O25697   3.548   5.668   2.376  0.4019  0.2015 -0.0939
  191MOL0     C25698   3.452   6.001   2.360 -0.8237 -0.8301 -0.0622
  191MOL0     C25699   3.348   6.090   2.375 -0.1498 -0.3094  0.3861
  191MOL0     N25700   2.843   5.985   2.691 -0.4042  0.3561 -0.3657
  191MOL0     N25701   2.824   5.860   2.695 -0.7542 -0.1317  0.1997
  191MOL0     C25702   1.783   5.432   2.264  0.6603  0.0443 -0.0731
  191MOL0     C25703   1.650   5.420   2.216 -0.5714  0.8612  0.0028
  191MOL0     C25704   1.244   5.574   2.025  0.5169 -0.0842 -0.1909
  191MOL0     C25705   1.151   5.680   2.014  0.0863  0.1113  0.9460
  191MOL0     C25706   1.029   5.653   1.942 -0.8703 -0.0954 -0.6553
  191MOL0     C25707   0.994   5.528   1.892  0.4520  0.1838  0.4054
  191MOL0     O25708   0.873   5.498   1.828 -0.2846 -0.4609  0.6879
  191MOL0     C25709   0.792   5.600   1.763 -0.6135  0.3583 -0.3201
  191MOL0     C25710   0.679   5.555   1.671 -1.1327  0.4438 -0.9593
  191MOL0     C25711   0.586   5.453   1.746 -0.5394  0.0610  0.8973
  191MOL0     C25712   0.435   5.476   1.745 -0.4154 -0.0547  0.2940
  191MOL0     C25713   0.397   5.610   1.782 -0.1390  0.0493 -0.2413
  191MOL0     C25714   0.356   5.716   1.829 -0.2425  0.1114  0.0248
  191MOL0     C25715   1.084   5.424   1.907  1.5460  0.6328  0.1451
  191MOL0     C25716   1.206   5.447   1.971 -0.7922 -0.4473 -0.8725
  191MOL0     C25717   1.309   5.328   1.980 -0.0096 -0.2544  0.3620
  191MOL0     H25718   1.556   5.746   2.269 -0.2731 -0.0005 -3.0049
  191MOL0     H25719   1.784   5.758   2.340  1.8566  0.0323 -0.4510
  191MOL0     H25720   2.056   5.713   2.292  2.2257 -2.0953 -0.3721
  191MOL0     H25721   1.971   5.745   2.442  1.4911 -0.5969  1.0523
  191MOL0     H25722   2.215   5.747   2.468 -1.0936 -0.5244  3.9691
  191MOL0     H25723   2.229   5.584   2.398 -0.5228 -4.0169  3.1035
  191MOL0     H25724   2.139   5.487   2.575 -0.2071 -0.9272  2.5345
  191MOL0     H25725   2.068   5.642   2.642 -0.3188 -0.2893 -0.8473
  191MOL0     H25726   2.261   5.568   2.764 -2.1996 -1.2475 -0.6505
  191MOL0     H25727   2.364   5.549   2.624  2.0532  1.3577  1.2785
  191MOL0     H25728   2.385   5.805   2.604  0.3660  2.9672  2.2037
  191MOL0     H25729   2.241   5.821   2.694 -0.0897  0.5338  1.0545
  191MOL0     H25730   2.443   5.884   2.821  0.2084  0.6884 -1.7880
  191MOL0     H25731   2.356   5.745   2.893 -0.0805  0.6505 -1.3643
  191MOL0     H25732   2.527   5.589   2.835 -0.2788 -0.3099 -1.8157
  191MOL0     H25733   2.601   5.730   2.906  1.6716  0.1512 -0.0229
  191MOL0     H25734   2.705   5.622   2.692 -0.9772 -0.4483 -0.9425
  191MOL0     H25735   2.576   5.679   2.600  0.0357  0.8281  0.0380
  191MOL0     H25736   2.535   5.982   2.617 -0.2022 -0.0589  2.3656
  191MOL0     H25737   2.630   6.243   2.635 -0.9251 -0.0466 -4.1071
  191MOL0     H25738   2.809   6.261   2.664 -0.2713  0.0930  0.3735
  191MOL0     H25739   2.699   6.151   2.404 -0.1614 -2.4290  2.4617
  191MOL0     H25740   2.696   6.320   2.433 -0.5479 -1.1211 -1.3557
  191MOL0     H25741   2.962   6.303   2.488 -1.1270 -0.6198  1.9542
  191MOL0     H25742   2.898   6.286   2.323 -1.9971 -1.0123 -0.4764
  191MOL0     H25743   2.942   6.052   2.326 -3.0694 -0.2789  2.2068
  191MOL0     H25744   2.984   6.048   2.500 -0.8292 -1.4978 -0.6519
  191MOL0     H25745   3.105   5.862   2.411 -0.1303 -0.9533  1.2825
  191MOL0     H25746   3.279   5.711   2.397 -0.2450  0.4660 -0.6484
  191MOL0     H25747   3.836   5.952   2.147  0.5551  0.4067  2.2873
  191MOL0     H25748   4.028   5.851   2.014  0.3760  1.2114  1.3894
  191MOL0     H25749   4.163   5.673   1.874  1.3501 -1.9283 -0.6588
  191MOL0     H25750   4.244   5.733   2.027 -0.0185 -1.6984  3.1313
  191MOL0     H25751   4.392   5.567   2.041  0.0462 -0.0104 -0.6988
  191MOL0     H25752   4.286   5.460   1.953  0.2283  0.4864  1.0103
  191MOL0     H25753   4.395   5.708   1.803  5.0185 -0.0782  0.5871
  191MOL0     H25754   4.503   5.576   1.822  0.1375 -1.1512 -1.3458
  191MOL0     H25755   4.231   5.549   1.681 -0.6922 -1.4391  0.7976
  191MOL0     H25756   4.350   5.417   1.718  2.3952 -0.0395  1.3608
  191MOL0     H25757   4.508   5.559   1.585 -0.1383  0.4014  0.5600
  191MOL0     H25758   4.390   5.694   1.567  0.3579  0.1672  0.8007
  191MOL0     H25759   4.338   5.410   1.476 -0.6754  0.1396  0.2451
  191MOL0     H25760   4.247   5.559   1.428  0.4619  2.5869 -1.4499
  191MOL0     H25761   4.376   5.507   1.246  0.5927 -1.8400  0.6189
  191MOL0     H25762   4.527   5.464   1.332 -1.8065 -3.2737 -2.7609
  191MOL0     H25763   4.554   5.692   1.394  0.8892 -2.9786 -0.5786
  191MOL0     H25764   4.544   5.672   1.225 -0.4863  0.3812  0.0811
  191MOL0     H25765   3.936   5.480   2.211 -2.1656  0.7353  5.1225
  191MOL0     H25766   3.749   5.567   2.311 -0.3818 -0.1646 -0.3864
  191MOL0     H25767   3.545   6.052   2.337 -2.0306  1.5904  0.0616
  191MOL0     H25768   3.356   6.198   2.368  0.4067 -0.0737  3.3996
  191MOL0     H25769   1.837   5.338   2.257 -2.1774 -1.6102 -1.7809
  191MOL0     H25770   1.626   5.325   2.168  2.1332 -0.2073  0.5785
  191MOL0     H25771   1.167   5.784   2.040  0.8103  1.5229 -4.1261
  191MOL0     H25772   0.968   5.739   1.917 -1.4571 -0.0668  0.7889
  191MOL0     H25773   0.856   5.660   1.698  0.1223 -1.3808 -1.2757
  191MOL0     H25774   0.756   5.658   1.849  2.9105  1.2073  0.7243
  191MOL0     H25775   0.716   5.508   1.580 -1.3689 -1.7752  0.0334
  191MOL0     H25776   0.621   5.644   1.643 -1.8711  0.5608  0.8138
  191MOL0     H25777   0.616   5.462   1.851  0.7560 -0.5072  0.5936
  191MOL0     H25778   0.613   5.351   1.718 -1.7685 -0.2857  0.9016
  191MOL0     H25779   0.388   5.455   1.648 -1.2852  0.2009  0.6489
  191MOL0     H25780   0.387   5.410   1.819  0.5742 -0.0473  0.9613
  191MOL0     H25781   0.312   5.799   1.881  0.6481  0.9624 -0.5550
  191MOL0     H25782   1.055   5.326   1.870  1.0082  0.8551 -0.0302
  191MOL0     H25783   1.278   5.243   1.919  1.6068 -0.6721  0.0734
  191MOL0     H25784   1.408   5.358   1.942 -0.3547  0.6556  0.1429
  191MOL0     H25785   1.317   5.289   2.082  1.6028 -0.3099  0.2366
  192MOL0     O25786   6.483   1.056  10.525 -0.2746 -0.0788  0.1350
  192MOL0     C25787   6.497   0.955  10.451 -0.2307 -0.2787 -1.0673
  192MOL0     O25788   6.612   0.928  10.384 -0.7246  0.1082 -0.5069
  192MOL0     C25789   6.727   1.005  10.409 -0.0024 -0.0894 -0.5615
  192MOL0     C25790   6.725   1.143  10.412 -1.3840  0.1452 -0.8061
  192MOL0     C25791   6.849   1.208  10.426 -0.9804 -0.3540  0.1261
  192MOL0     C25792   6.970   1.136  10.444  0.3073 -0.4194  0.0899
  192MOL0     O25793   7.083   1.211  10.469 -0.0566 -0.3733  0.0749
  192MOL0     C25794   7.198   1.198  10.386 -0.1149  0.1460  0.2803
  192MOL0     C25795   7.317   1.198  10.481 -1.1247 -0.7658  0.3826
  192MOL0     C25796   7.451   1.211  10.409 -0.9352  0.9749 -0.1321
  192MOL0     C25797   7.475   1.095  10.315  0.0682 -0.3698 -0.1388
  192MOL0     C25798   7.625   1.080  10.288 -0.2587  0.1712  0.1047
  192MOL0     C25799   7.697   1.200  10.233  0.2939 -0.5302 -0.6521
  192MOL0     C25800   7.829   1.171  10.168 -0.2362 -0.6395 -0.5247
  192MOL0     C25801   7.935   1.105  10.254  1.0630 -0.5651  0.7848
  192MOL0     N25802   7.934   0.959  10.239 -0.3683  0.0425  0.1332
  192MOL0     C25803   8.006   0.887  10.146  0.0563 -0.0698 -0.6197
  192MOL0     C25804   8.011   0.756  10.190  0.2857 -0.2124  0.0388
  192MOL0     C25805   8.091   0.645  10.119  1.1801  0.2413 -0.2696
  192MOL0     C25806   8.220   0.617  10.199 -0.3668 -0.5600  0.0937
  192MOL0     C25807   8.327   0.542  10.133  0.2441  0.2443  0.1562
  192MOL0     C25808   8.455   0.511  10.205  0.0081 -0.1405 -0.4862
  192MOL0     O25809   8.534   0.632  10.214  0.1899 -0.0387  0.0309
  192MOL0     C25810   8.667   0.632  10.191 -0.4169 -0.2497  0.6719
  192MOL0     C25811   8.707   0.759  10.144 -0.6557 -0.1966 -0.4418
  192MOL0     C25812   8.839   0.777  10.115 -1.0360  0.3566 -0.0168
  192MOL0     C25813   8.939   0.677  10.122  0.7666  0.0618  0.9322
  192MOL0     C25814   9.079   0.712  10.114  0.2186 -0.4827  0.2968
  192MOL0     O25815   9.165   0.611  10.129 -0.0605  0.5069  0.4110
  192MOL0     C25816   9.294   0.636  10.100  0.9382  0.4885 -0.5779
  192MOL0     C25817   9.390   0.590  10.196  0.0104 -0.7710 -0.1643
  192MOL0     C25818   9.525   0.608  10.184  0.5797  0.6413  0.2990
  192MOL0     C25819   9.579   0.670  10.076  0.5405  0.2054  0.0358
  192MOL0     O25820   9.717   0.705  10.081  0.4478 -0.8772  0.2173
  192MOL0     C25821   9.754   0.796   9.981 -0.2392 -0.9460 -0.0547
  192MOL0     C25822   9.903   0.844   9.997 -0.3448  0.2700  0.2609
  192MOL0     C25823   9.929   0.940  10.113  0.1005  0.2386  0.8042
  192MOL0     C25824  10.080   0.988  10.112 -0.1634  0.3517 -0.3256
  192MOL0     C25825  10.093   1.099  10.210 -0.7820 -0.8180 -0.6336
  192MOL0     C25826  10.241   1.149  10.219  0.9278  0.0860  0.3199
  192MOL0     C25827  10.267   1.261  10.308 -0.1946  0.0471 -1.0442
  192MOL0     C25828  10.384   1.342  10.268  0.5412 -0.2051  0.0950
  192MOL0    Cl25829  10.368   1.439  10.108 -0.2181  0.7813 -0.0376
  192MOL0     C25830   9.489   0.702   9.969  0.5526 -0.3372  0.6345
  192MOL0     C25831   9.349   0.686   9.980 -1.0771 -1.3726  0.3470
  192MOL0     O25832   9.117   0.829  10.084  0.4790  0.0820 -0.7539
  192MOL0     C25833   8.892   0.547  10.158  0.4665  0.5335  0.3271
  192MOL0     C25834   8.752   0.525  10.190 -1.0499 -0.3646  0.3711
  192MOL0     N25835   7.911   0.748  10.291 -0.0765 -0.5927 -0.3393
  192MOL0     N25836   7.880   0.873  10.326 -0.5244 -0.2514 -0.1888
  192MOL0     C25837   6.965   0.998  10.450  0.0091  0.2646  0.3126
  192MOL0     C25838   6.845   0.934  10.441  0.3340  0.1706 -0.0836
  192MOL0     C25839   6.384   0.849  10.439 -0.2195 -0.0835 -0.2098
  192MOL0     C25840   6.418   0.726  10.368  0.2963  0.0250 -0.4065
  192MOL0     C25841   6.323   0.626  10.359 -1.2647  0.2735 -0.0081
  192MOL0     C25842   6.198   0.638  10.417 -0.3934 -0.0356  0.8900
  192MOL0     O25843   6.118   0.530  10.401  0.3427  0.3350 -0.3479
  192MOL0     C25844   5.995   0.515  10.486  0.3695 -0.1428 -0.0516
  192MOL0     C25845   6.001   0.493  10.639 -0.9427 -0.0585 -0.0865
  192MOL0     C25846   5.859   0.463  10.698 -0.2258 -0.6069 -0.2488
  192MOL0     C25847   5.854   0.322  10.736  0.6297 -0.2297  0.4515
  192MOL0     C25848   5.727   0.254  10.741 -0.8072 -0.4204  0.4562
  192MOL0     C25849   5.619   0.194  10.747  0.0544 -0.5867 -0.5316
  192MOL0     C25850   6.163   0.753  10.491 -0.5922 -0.2588  0.8942
  192MOL0     C25851   6.249   0.860  10.493 -0.5601  0.1696  0.1999
  192MOL0     C25852   6.188   0.985  10.546 -0.7430 -1.0620 -0.1602
  192MOL0     H25853   6.626   1.183  10.388 -2.2866 -1.1457  0.5685
  192MOL0     H25854   6.849   1.316  10.419  1.1060 -0.3052  0.1605
  192MOL0     H25855   7.203   1.102  10.334 -2.0019 -0.5303  1.2629
  192MOL0     H25856   7.203   1.288  10.324 -1.9961 -0.6025 -1.0283
  192MOL0     H25857   7.315   1.103  10.535 -1.1313 -0.4921  0.8654
  192MOL0     H25858   7.322   1.281  10.552 -3.0497 -0.0662 -0.2328
  192MOL0     H25859   7.535   1.218  10.479 -0.1950 -2.6292 -0.4562
  192MOL0     H25860   7.460   1.306  10.356  1.2234  0.6063 -0.5469
  192MOL0     H25861   7.441   1.002  10.360 -0.1742 -0.5812 -0.7381
  192MOL0     H25862   7.421   1.108  10.220  1.2491 -1.3465 -0.9840
  192MOL0     H25863   7.674   1.049  10.382 -2.0909  1.7853  1.6841
  192MOL0     H25864   7.648   1.002  10.215 -0.2733 -0.5700  0.8775
  192MOL0     H25865   7.635   1.253  10.160  4.0266  1.7335 -2.4951
  192MOL0     H25866   7.699   1.272  10.315 -2.0818  0.2097 -1.1534
  192MOL0     H25867   7.878   1.262  10.133  1.4776 -1.2241  0.2395
  192MOL0     H25868   7.815   1.114  10.076  0.2985 -2.1619  0.2881
  192MOL0     H25869   8.034   1.145  10.230 -0.3020  2.4461 -0.3048
  192MOL0     H25870   7.912   1.138  10.355  0.2946  0.5878  0.2457
  192MOL0     H25871   8.078   0.923  10.073  0.6059  0.1460  0.0226
  192MOL0     H25872   8.031   0.556  10.102  0.0902  1.3605 -2.6856
  192MOL0     H25873   8.103   0.691  10.021 -1.4466  1.5744 -0.0582
  192MOL0     H25874   8.264   0.713  10.227 -1.4401 -0.2263  0.6938
  192MOL0     H25875   8.184   0.565  10.288 -1.2210 -0.7849 -0.3708
  192MOL0     H25876   8.334   0.597  10.039  0.3935  0.3130  0.2067
  192MOL0     H25877   8.279   0.445  10.117  0.5107 -0.2494  2.1384
  192MOL0     H25878   8.497   0.428  10.147  0.0812 -1.1842  0.9982
  192MOL0     H25879   8.446   0.485  10.311  0.3170 -1.1570 -0.7015
  192MOL0     H25880   8.637   0.841  10.131 -0.1652  0.0958 -1.3846
  192MOL0     H25881   8.862   0.883  10.104 -1.8590  0.5234 -0.1783
  192MOL0     H25882   9.367   0.543  10.291  0.5396  3.4547  2.2970
  192MOL0     H25883   9.603   0.577  10.253 -0.8899 -2.8824  0.5744
  192MOL0     H25884   9.727   0.778   9.877 -3.1590  2.5261 -0.0755
  192MOL0     H25885   9.690   0.883   9.999  0.2581 -0.7708  0.9549
  192MOL0     H25886   9.972   0.760  10.010 -1.2611 -0.2720  1.9962
  192MOL0     H25887   9.928   0.906   9.910 -2.5822 -0.1130 -0.7356
  192MOL0     H25888   9.861   1.025  10.112 -0.1941  0.0392  1.9508
  192MOL0     H25889   9.913   0.875  10.200 -0.0939 -2.3706 -1.0875
  192MOL0     H25890  10.101   1.026  10.011  1.1915 -1.1868 -0.6681
  192MOL0     H25891  10.146   0.905  10.138 -0.2608  0.2895 -0.2763
  192MOL0     H25892  10.064   1.061  10.309 -1.1435 -1.1902 -0.8802
  192MOL0     H25893  10.026   1.185  10.194 -0.0648 -0.2157 -0.4580
  192MOL0     H25894  10.307   1.077  10.268 -0.0107 -0.7244  0.4461
  192MOL0     H25895  10.276   1.164  10.117 -0.8229 -1.7965 -0.6382
  192MOL0     H25896  10.275   1.222  10.410 -0.9255  4.3530  0.8536
  192MOL0     H25897  10.185   1.333  10.308 -0.6440 -0.4073  0.7718
  192MOL0     H25898  10.403   1.407  10.354  1.5646  0.4493 -0.6024
  192MOL0     H25899  10.481   1.291  10.268  1.3046  1.1766  0.4335
  192MOL0     H25900   9.527   0.754   9.881  3.4200 -0.0690  1.9158
  192MOL0     H25901   9.301   0.727   9.892  2.1829  4.3483  0.7290
  192MOL0     H25902   8.960   0.467  10.188  3.2316  2.3993 -0.5800
  192MOL0     H25903   8.712   0.429  10.220  0.1869 -0.3434  2.2852
  192MOL0     H25904   7.057   0.949  10.480 -0.9402 -2.7334 -1.3469
  192MOL0     H25905   6.840   0.828  10.462 -0.8031  0.0317 -0.9608
  192MOL0     H25906   6.509   0.712  10.310  1.0811  3.5161 -0.2128
  192MOL0     H25907   6.362   0.532  10.320  3.5770  3.0609 -2.8241
  192MOL0     H25908   5.925   0.449  10.435  1.3947 -1.0142 -0.3789
  192MOL0     H25909   5.943   0.611  10.479 -0.1226 -0.5075 -1.6313
  192MOL0     H25910   6.056   0.577  10.683  2.1199 -2.9915  2.2616
  192MOL0     H25911   6.065   0.409  10.667 -1.8640 -0.0290  2.3705
  192MOL0     H25912   5.781   0.484  10.624 -1.3618  0.3348  1.1714
  192MOL0     H25913   5.845   0.524  10.788  1.2104 -0.8486  0.1657
  192MOL0     H25914   5.912   0.264  10.663 -0.6052  0.6446 -1.2989
  192MOL0     H25915   5.903   0.314  10.833 -1.1139 -1.7660  1.2679
  192MOL0     H25916   5.519   0.156  10.752 -0.3652  0.4250 -0.8652
  192MOL0     H25917   6.075   0.762  10.554 -3.1282  1.6191 -2.6265
  192MOL0     H25918   6.083   0.969  10.575 -0.0988 -4.1068  0.8096
  192MOL0     H25919   6.237   1.017  10.638 -2.8390 -0.5575  0.8504
  192MOL0     H25920   6.187   1.064  10.470 -3.5140 -0.9314 -0.0984
  193MOL0     O25921   9.503   5.253   8.349  0.1065  1.2273 -0.1721
  193MOL0     C25922   9.410   5.323   8.304  0.5790 -0.8125  0.0348
  193MOL0     O25923   9.388   5.459   8.321 -0.6689 -0.6960  0.2097
  193MOL0     C25924   9.484   5.528   8.395 -0.3727  0.5213  0.1391
  193MOL0     C25925   9.616   5.530   8.355  0.2497 -0.2264  0.3638
  193MOL0     C25926   9.710   5.608   8.424  0.6411  0.0971  0.6910
  193MOL0     C25927   9.663   5.701   8.515  0.5302  0.4073  0.3405
  193MOL0     O25928   9.744   5.789   8.567 -0.5011 -0.3342 -0.0370
  193MOL0     C25929   9.864   5.743   8.640 -0.1734 -0.5663  0.4334
  193MOL0     C25930   9.953   5.856   8.663  0.7949 -0.8288 -0.4831
  193MOL0     C25931  10.033   5.887   8.532 -0.2056 -0.6268  0.1890
  193MOL0     C25932  10.126   6.014   8.567  0.4140 -0.4466 -0.3643
  193MOL0     C25933  10.228   6.035   8.461 -0.3475 -0.1238 -0.4111
  193MOL0     C25934  10.175   6.097   8.330  0.0183 -0.2482  0.0686
  193MOL0     C25935  10.137   6.241   8.335 -0.4139  0.9190 -0.7453
  193MOL0     C25936  10.253   6.331   8.363  0.9739 -0.0890  0.1163
  193MOL0     N25937  10.217   6.477   8.358 -0.1795 -0.6901  0.3747
  193MOL0     C25938  10.267   6.569   8.272 -0.0654  0.9118  0.2167
  193MOL0     C25939  10.190   6.680   8.284 -0.5395  0.6137  0.0561
  193MOL0     C25940  10.218   6.811   8.231 -0.7580 -1.3966  0.0285
  193MOL0     C25941  10.323   6.886   8.308  0.1177  0.5159 -0.6261
  193MOL0     C25942  10.448   6.902   8.210  0.1759 -0.1521  0.7675
  193MOL0     C25943  10.590   6.933   8.262  0.0817 -0.3747  0.0870
  193MOL0     O25944  10.593   7.064   8.322 -0.1231  0.1519  0.3799
  193MOL0     C25945  10.701   7.145   8.304 -0.3753 -0.0987  0.0361
  193MOL0     C25946  10.683   7.279   8.334 -0.6143 -0.4611  0.3329
  193MOL0     C25947  10.801   7.360   8.333  0.3300  0.4190 -0.1241
  193MOL0     C25948  10.933   7.309   8.308 -0.1972 -0.0039  1.1147
  193MOL0     C25949  11.053   7.392   8.334  0.1202  0.3623  0.8411
  193MOL0     O25950  11.167   7.328   8.333 -0.3750 -0.0916 -0.0258
  193MOL0     C25951  11.289   7.391   8.326  0.7388  0.5348  1.2724
  193MOL0     C25952  11.337   7.526   8.338 -0.1092 -0.1729  0.5152
  193MOL0     C25953  11.464   7.567   8.304 -0.2528 -0.9460  0.4814
  193MOL0     C25954  11.562   7.472   8.288  0.7168  0.7090  1.1043
  193MOL0     O25955  11.690   7.521   8.268 -0.3569  0.1009  0.2326
  193MOL0     C25956  11.795   7.448   8.336 -0.0676 -0.2682 -0.0006
  193MOL0     C25957  11.916   7.528   8.308 -0.0162  0.5380  0.6029
  193MOL0     C25958  12.042   7.486   8.389 -0.0993  1.0352 -0.1530
  193MOL0     C25959  12.171   7.564   8.354  0.0670 -0.2720 -0.4348
  193MOL0     C25960  12.283   7.539   8.456 -0.4266  0.1132 -0.4715
  193MOL0     C25961  12.407   7.622   8.436 -0.3978  0.0825  0.3609
  193MOL0     C25962  12.512   7.607   8.548  0.1618  0.9325  0.3401
  193MOL0     C25963  12.592   7.465   8.558 -0.0726 -0.1923  0.3753
  193MOL0    Cl25964  12.661   7.425   8.403 -0.2585 -0.2848  0.5299
  193MOL0     C25965  11.527   7.336   8.292 -0.5311  0.8529 -0.0972
  193MOL0     C25966  11.395   7.305   8.299  0.3826 -0.7491 -0.7676
  193MOL0     O25967  11.034   7.514   8.330  0.1091  0.4371  0.1357
  193MOL0     C25968  10.944   7.175   8.267  0.6567 -0.5911 -0.0016
  193MOL0     C25969  10.833   7.094   8.258 -0.5213 -1.2867 -0.4313
  193MOL0     N25970  10.096   6.654   8.382 -0.2453 -0.0274 -0.8763
  193MOL0     N25971  10.118   6.539   8.426 -0.4253 -0.0723 -0.3514
  193MOL0     C25972   9.524   5.714   8.532 -0.2002 -0.5117 -0.3867
  193MOL0     C25973   9.438   5.616   8.487  0.2788 -0.4999 -0.3784
  193MOL0     C25974   9.286   5.253   8.263 -0.3779  0.7679  0.1707
  193MOL0     C25975   9.154   5.306   8.294  0.0798 -0.1730  0.0294
  193MOL0     C25976   9.039   5.230   8.278 -0.2196 -0.0264 -0.9195
  193MOL0     C25977   9.047   5.099   8.219  0.3983 -0.9523 -0.5436
  193MOL0     O25978   8.945   5.007   8.214  0.2414 -0.5475  0.3829
  193MOL0     C25979   8.813   5.032   8.280  0.8989 -0.3240 -0.4585
  193MOL0     C25980   8.725   5.112   8.194 -0.8597  0.3724  0.2555
  193MOL0     C25981   8.593   5.134   8.278  0.2183  0.5179 -0.2862
  193MOL0     C25982   8.494   5.234   8.211  0.4924 -0.9035  0.5199
  193MOL0     C25983   8.454   5.192   8.078  1.7141 -0.2780  0.0652
  193MOL0     C25984   8.395   5.135   7.987  0.2977  0.3338  0.0832
  193MOL0     C25985   9.168   5.053   8.178 -1.0228 -0.2833 -0.1732
  193MOL0     C25986   9.290   5.127   8.199 -0.4437  0.5354  0.7381
  193MOL0     C25987   9.414   5.072   8.146  0.1683 -0.5201  0.7789
  193MOL0     H25988   9.656   5.464   8.279  2.6849 -0.7367  1.9452
  193MOL0     H25989   9.815   5.606   8.396  1.4961  1.1401  3.4908
  193MOL0     H25990   9.829   5.699   8.734 -0.7511 -2.4524 -0.6207
  193MOL0     H25991   9.918   5.670   8.580 -0.0596  2.4471 -3.5908
  193MOL0     H25992  10.018   5.828   8.746  0.3306  2.6976  1.2603
  193MOL0     H25993   9.899   5.945   8.698  3.5917 -0.1827  2.7228
  193MOL0     H25994   9.964   5.922   8.455 -1.1120  0.7254  1.5450
  193MOL0     H25995  10.089   5.799   8.499 -1.0079 -2.9956  4.3873
  193MOL0     H25996  10.068   6.105   8.582  0.5001 -0.7575  2.3827
  193MOL0     H25997  10.172   5.993   8.664  3.2701  2.6015 -0.8572
  193MOL0     H25998  10.309   6.097   8.502  0.8612  1.2840 -4.4546
  193MOL0     H25999  10.277   5.939   8.444 -0.9651 -0.3980 -0.6661
  193MOL0     H26000  10.257   6.092   8.259  1.4449 -1.0687  1.6949
  193MOL0     H26001  10.082   6.054   8.290 -1.9904  4.6177 -1.2037
  193MOL0     H26002  10.057   6.246   8.410  1.9477  1.2261  1.9546
  193MOL0     H26003  10.098   6.275   8.239 -0.6856 -2.1860 -1.8534
  193MOL0     H26004  10.292   6.314   8.464  0.4733 -3.9971 -0.2123
  193MOL0     H26005  10.333   6.305   8.292  3.2452  0.9377  2.1421
  193MOL0     H26006  10.360   6.563   8.217  0.6147  2.6791  1.0880
  193MOL0     H26007  10.258   6.801   8.129 -1.0040 -0.4668 -0.1687
  193MOL0     H26008  10.123   6.866   8.231 -0.6801 -1.2183 -1.3467
  193MOL0     H26009  10.298   6.983   8.352 -1.8249  0.2881 -1.1180
  193MOL0     H26010  10.363   6.821   8.386 -1.2644  0.5804  0.1660
  193MOL0     H26011  10.426   6.980   8.137  1.2688 -1.0004 -0.5288
  193MOL0     H26012  10.467   6.809   8.156 -2.2698 -0.0521 -0.3628
  193MOL0     H26013  10.661   6.922   8.180 -2.1994  1.8833 -2.4291
  193MOL0     H26014  10.618   6.863   8.341 -1.5145  0.8358  1.8400
  193MOL0     H26015  10.585   7.318   8.360 -0.3340 -0.8664  2.0889
  193MOL0     H26016  10.787   7.457   8.379 -0.8239 -0.1176  0.6825
  193MOL0     H26017  11.258   7.594   8.367  2.5427  3.6218 -0.4668
  193MOL0     H26018  11.493   7.670   8.320  1.2735 -1.7245  3.2995
  193MOL0     H26019  11.775   7.432   8.443  1.3956 -2.5173 -0.0055
  193MOL0     H26020  11.814   7.352   8.288 -2.1847  0.0860 -1.6860
  193MOL0     H26021  11.938   7.520   8.201  0.5417  2.7670  0.5052
  193MOL0     H26022  11.885   7.632   8.318 -0.9973  0.3396 -0.2672
  193MOL0     H26023  12.008   7.506   8.491 -1.8168  3.1345 -1.0741
  193MOL0     H26024  12.069   7.380   8.380  0.2674  1.1110  0.0050
  193MOL0     H26025  12.140   7.668   8.361 -1.7520 -0.9071  2.4514
  193MOL0     H26026  12.198   7.535   8.252 -1.0232 -0.0919 -0.7868
  193MOL0     H26027  12.310   7.433   8.458 -0.1641  0.1836 -0.2121
  193MOL0     H26028  12.243   7.549   8.558 -0.3322 -1.3674 -0.2644
  193MOL0     H26029  12.458   7.589   8.346  1.9181 -1.9036  2.2539
  193MOL0     H26030  12.392   7.728   8.412 -2.2164 -0.7989 -3.0510
  193MOL0     H26031  12.457   7.619   8.642 -4.2646 -3.2974 -1.2548
  193MOL0     H26032  12.583   7.687   8.526 -0.2398  0.8619 -1.3619
  193MOL0     H26033  12.679   7.493   8.619 -0.3846  0.0296  0.7203
  193MOL0     H26034  12.534   7.383   8.600  1.3469 -0.8102  1.2288
  193MOL0     H26035  11.602   7.260   8.273  0.3684  1.1267  2.0529
  193MOL0     H26036  11.378   7.198   8.308  0.0718 -0.6388  0.0558
  193MOL0     H26037  11.042   7.143   8.232  1.0187  1.5352 -1.1616
  193MOL0     H26038  10.845   6.990   8.232 -2.3966 -1.6188 -0.1579
  193MOL0     H26039   9.483   5.786   8.603  0.0603  0.5662 -1.2961
  193MOL0     H26040   9.336   5.614   8.524  0.3150  2.8969  0.2432
  193MOL0     H26041   9.138   5.405   8.335 -0.3782 -0.1767 -0.1291
  193MOL0     H26042   8.946   5.269   8.318 -0.4039  0.9450 -2.2297
  193MOL0     H26043   8.827   5.069   8.381 -0.7364 -2.7478  0.7576
  193MOL0     H26044   8.763   4.935   8.285 -2.8752  1.4535 -0.4618
  193MOL0     H26045   8.713   5.072   8.093  1.7100 -0.6894  0.3075
  193MOL0     H26046   8.780   5.206   8.191  0.6852 -0.4838  0.7620
  193MOL0     H26047   8.619   5.164   8.380 -1.6309  1.1665  0.0346
  193MOL0     H26048   8.532   5.044   8.291  1.9928 -0.4578  2.0905
  193MOL0     H26049   8.406   5.248   8.274  0.6261 -3.6321  1.4454
  193MOL0     H26050   8.550   5.328   8.202 -0.6567  0.1799  3.4304
  193MOL0     H26051   8.341   5.091   7.905 -1.6021  1.0686  0.8885
  193MOL0     H26052   9.178   4.950   8.147 -2.6544 -0.4708 -0.1592
  193MOL0     H26053   9.389   5.002   8.065 -1.9969  0.9035  0.1260
  193MOL0     H26054   9.472   5.154   8.104 -1.3378  0.2126  0.0479
  193MOL0     H26055   9.471   5.019   8.222 -0.0500  0.2985  1.5275
  194MOL0     O26056   3.226   0.438   8.606  0.2079  0.3964 -0.7136
  194MOL0     C26057   3.151   0.372   8.529  1.6907 -0.5412 -0.0471
  194MOL0     O26058   3.185   0.331   8.403 -0.3715 -0.2268 -0.9363
  194MOL0     C26059   3.303   0.383   8.354  0.6249  0.8991  0.3448
  194MOL0     C26060   3.421   0.306   8.363  0.5836 -0.4751  0.3840
  194MOL0     C26061   3.541   0.365   8.321  0.3396  0.1980 -0.1131
  194MOL0     C26062   3.545   0.488   8.261 -0.2029 -0.4298 -0.1339
  194MOL0     O26063   3.672   0.531   8.223 -0.1149  0.2036 -0.0833
  194MOL0     C26064   3.667   0.649   8.143 -1.1327 -0.7372 -0.4142
  194MOL0     C26065   3.823   0.688   8.130 -0.1993  0.5983  0.3463
  194MOL0     C26066   3.902   0.576   8.060  0.7296  0.4307 -0.1311
  194MOL0     C26067   4.038   0.616   8.030  0.0940 -0.4320 -0.3883
  194MOL0     C26068   4.107   0.518   7.949  0.4596  0.2625 -0.2405
  194MOL0     C26069   4.255   0.556   7.952  0.1155  0.7256 -0.3088
  194MOL0     C26070   4.321   0.482   7.835  0.4429  0.0665  0.8291
  194MOL0     C26071   4.466   0.523   7.816 -0.0387 -0.0171 -0.5664
  194MOL0     N26072   4.518   0.485   7.689 -0.7599 -0.3913 -0.4109
  194MOL0     C26073   4.473   0.523   7.565 -0.0840 -0.5690 -0.5929
  194MOL0     C26074   4.559   0.472   7.479 -0.2132  0.2492 -0.1511
  194MOL0     C26075   4.554   0.469   7.327 -0.0482 -0.1223  0.6935
  194MOL0     C26076   4.633   0.585   7.269  0.4958 -1.3792  0.3429
  194MOL0     C26077   4.644   0.584   7.121 -0.1013 -0.5951  0.2094
  194MOL0     C26078   4.755   0.485   7.067 -0.3131  0.8814 -0.1637
  194MOL0     O26079   4.885   0.538   7.092 -0.0376  0.0016  0.1836
  194MOL0     C26080   5.005   0.465   7.099 -0.5386  0.1012  0.3100
  194MOL0     C26081   5.124   0.542   7.122 -0.8125 -0.5002 -0.3367
  194MOL0     C26082   5.251   0.482   7.135 -0.4241  0.0303  0.2578
  194MOL0     C26083   5.262   0.337   7.140 -0.0874  0.7551  0.7347
  194MOL0     C26084   5.389   0.265   7.171 -0.1198  0.0114 -0.4528
  194MOL0     O26085   5.396   0.130   7.140  0.0112  0.3167  0.2133
  194MOL0     C26086   5.520   0.069   7.142 -0.4177  0.0862 -0.4903
  194MOL0     C26087   5.650   0.129   7.156 -0.2165  0.8513 -0.6277
  194MOL0     C26088   5.767   0.052   7.146 -0.7112  0.9355 -0.9087
  194MOL0     C26089   5.760  -0.084   7.113  0.6186 -0.3066  0.1649
  194MOL0     O26090   5.885  -0.140   7.089  0.0453 -0.1752 -0.3767
  194MOL0     C26091   5.890  -0.281   7.079  1.0364 -0.0511  0.0220
  194MOL0     C26092   6.037  -0.326   7.077 -0.4035  0.3720 -0.0799
  194MOL0     C26093   6.067  -0.450   6.994 -0.6237  0.5345  0.1804
  194MOL0     C26094   6.209  -0.494   7.000 -0.4384  0.6003 -0.1145
  194MOL0     C26095   6.224  -0.627   6.925  1.0111  0.2706  0.1702
  194MOL0     C26096   6.376  -0.683   6.927  0.6458 -0.6303 -0.2427
  194MOL0     C26097   6.359  -0.829   6.877 -0.1638  0.4209 -0.4109
  194MOL0     C26098   6.492  -0.911   6.872 -0.0761  0.9493 -0.0086
  194MOL0    Cl26099   6.594  -0.833   6.753  0.4241 -0.4780  0.0402
  194MOL0     C26100   5.632  -0.148   7.123 -0.7377  0.3988  0.2909
  194MOL0     C26101   5.524  -0.074   7.118  0.3311 -0.1622 -0.3600
  194MOL0     O26102   5.466   0.328   7.248 -0.0074 -0.4341 -0.1897
  194MOL0     C26103   5.148   0.265   7.115  0.6267  0.5110 -0.4954
  194MOL0     C26104   5.022   0.328   7.090 -0.6972 -0.0405 -0.5101
  194MOL0     N26105   4.646   0.388   7.543  0.0936  0.1944  0.4427
  194MOL0     N26106   4.630   0.412   7.673  0.6908 -0.0673  0.6259
  194MOL0     C26107   3.426   0.560   8.237  0.6973  0.0945  0.2354
  194MOL0     C26108   3.308   0.511   8.296  0.3569 -0.3073  0.0991
  194MOL0     C26109   3.024   0.327   8.590 -0.2728 -0.8599 -0.3283
  194MOL0     C26110   2.941   0.245   8.515  0.7740  0.3649 -0.2049
  194MOL0     C26111   2.808   0.212   8.553  0.4388 -1.2764 -0.2894
  194MOL0     C26112   2.755   0.267   8.667 -0.3564 -0.2393 -0.3822
  194MOL0     O26113   2.617   0.257   8.674 -0.2188  0.3617 -0.1400
  194MOL0     C26114   2.546   0.345   8.758  0.7634 -0.4530 -0.0875
  194MOL0     C26115   2.389   0.325   8.742  0.1524  0.3702 -0.0821
  194MOL0     C26116   2.359   0.174   8.762  0.6009  0.1773 -0.2260
  194MOL0     C26117   2.214   0.150   8.805  0.3160  0.2278  0.0747
  194MOL0     C26118   2.112   0.215   8.707 -0.0177  0.5779  0.3612
  194MOL0     C26119   2.038   0.270   8.630 -0.5187  0.6372  0.1577
  194MOL0     C26120   2.839   0.339   8.755 -0.1515 -1.0925 -0.0689
  194MOL0     C26121   2.972   0.366   8.721  0.2830  0.0881 -0.3784
  194MOL0     C26122   3.043   0.439   8.829 -0.3959 -0.0954 -0.5265
  194MOL0     H26123   3.407   0.206   8.404 -1.6164  0.8348  3.1393
  194MOL0     H26124   3.635   0.311   8.325 -0.3230 -0.9282  2.9996
  194MOL0     H26125   3.619   0.640   8.045 -2.1775  1.2051 -0.1465
  194MOL0     H26126   3.623   0.729   8.205 -0.4184 -1.3270  0.8859
  194MOL0     H26127   3.864   0.708   8.230  0.5332  0.5160  0.0707
  194MOL0     H26128   3.829   0.782   8.074 -0.1720 -0.7139 -1.9520
  194MOL0     H26129   3.857   0.541   7.966 -0.1480 -2.7611  1.3434
  194MOL0     H26130   3.895   0.482   8.115  0.6544  1.2150  1.2300
  194MOL0     H26131   4.038   0.710   7.975  1.4025 -1.3693 -2.0631
  194MOL0     H26132   4.094   0.622   8.124  0.0484 -2.3855 -0.1843
  194MOL0     H26133   4.113   0.415   7.986 -0.4628  0.3516  0.1780
  194MOL0     H26134   4.062   0.518   7.849 -1.2016  2.4094  0.4491
  194MOL0     H26135   4.263   0.664   7.941 -0.3575  0.8433  0.4384
  194MOL0     H26136   4.313   0.533   8.042  1.5361  0.8194 -1.1811
  194MOL0     H26137   4.263   0.496   7.743  0.1106  0.6266  1.1141
  194MOL0     H26138   4.326   0.374   7.851  1.2087 -0.0432 -0.0750
  194MOL0     H26139   4.463   0.632   7.820  0.9813 -0.0055  0.4797
  194MOL0     H26140   4.527   0.493   7.901 -2.7407 -1.0653  1.1540
  194MOL0     H26141   4.407   0.603   7.533  0.5702 -0.3749 -1.4950
  194MOL0     H26142   4.593   0.373   7.294 -1.6101 -0.9399  1.1194
  194MOL0     H26143   4.453   0.485   7.286  0.7906 -0.7317 -1.8037
  194MOL0     H26144   4.601   0.684   7.303  2.6057 -0.4111 -0.2913
  194MOL0     H26145   4.733   0.586   7.315  0.2365  1.2093  1.0006
  194MOL0     H26146   4.663   0.685   7.084 -1.8738  1.0953  3.5043
  194MOL0     H26147   4.547   0.566   7.073  0.0417  3.2988 -2.0044
  194MOL0     H26148   4.739   0.485   6.959  0.2303  1.5951 -0.2568
  194MOL0     H26149   4.751   0.386   7.112  1.6888 -0.2703 -2.3096
  194MOL0     H26150   5.116   0.650   7.120 -1.0042 -0.4303  1.8452
  194MOL0     H26151   5.339   0.543   7.151 -0.3472  0.2385 -0.8637
  194MOL0     H26152   5.655   0.237   7.160 -1.1283  0.8803  0.1240
  194MOL0     H26153   5.869   0.089   7.159 -0.0738 -1.3959  1.6075
  194MOL0     H26154   5.834  -0.325   7.161 -0.0187 -1.2582 -1.2996
  194MOL0     H26155   5.846  -0.311   6.983 -0.0760 -0.1452  0.5563
  194MOL0     H26156   6.103  -0.247   7.041  4.4317 -3.1261  0.1641
  194MOL0     H26157   6.073  -0.331   7.180  3.5705 -0.6389 -1.3331
  194MOL0     H26158   6.014  -0.539   7.030  0.8088  0.1155  1.3449
  194MOL0     H26159   6.031  -0.430   6.892  0.8090  1.2169 -0.2309
  194MOL0     H26160   6.230  -0.513   7.106 -3.0409 -3.9394 -0.1717
  194MOL0     H26161   6.281  -0.427   6.951  0.9761 -0.0763  0.9465
  194MOL0     H26162   6.208  -0.595   6.822 -0.2544  3.0242  1.1265
  194MOL0     H26163   6.153  -0.705   6.955  0.6505  1.0993  1.5986
  194MOL0     H26164   6.443  -0.622   6.867 -0.0577 -0.1791 -0.5882
  194MOL0     H26165   6.420  -0.688   7.027  1.6839  1.0501 -0.5807
  194MOL0     H26166   6.310  -0.825   6.779  0.1138  1.3556 -0.5144
  194MOL0     H26167   6.289  -0.876   6.947  3.3988 -2.0728  1.8395
  194MOL0     H26168   6.546  -0.909   6.967  1.0115  3.0073 -0.6194
  194MOL0     H26169   6.476  -1.017   6.850  2.6570  0.8094 -1.7634
  194MOL0     H26170   5.620  -0.253   7.097 -1.0503  0.1872  1.2697
  194MOL0     H26171   5.425  -0.117   7.103 -0.1388  0.3728  1.0587
  194MOL0     H26172   5.151   0.157   7.114  1.5236  0.5217 -1.0733
  194MOL0     H26173   4.935   0.264   7.094 -0.0310 -0.9144  1.4279
  194MOL0     H26174   3.429   0.662   8.200 -0.5884 -0.0553 -0.3282
  194MOL0     H26175   3.216   0.566   8.280  0.2848 -0.3803  0.2672
  194MOL0     H26176   2.978   0.199   8.424 -1.4312 -2.6103  0.2487
  194MOL0     H26177   2.737   0.158   8.491 -2.8523  0.7933  1.3723
  194MOL0     H26178   2.552   0.443   8.710 -1.6141 -0.2918 -0.1470
  194MOL0     H26179   2.582   0.338   8.861 -2.3276 -0.3310  1.0981
  194MOL0     H26180   2.359   0.350   8.640  0.2587 -3.0613 -1.0745
  194MOL0     H26181   2.339   0.385   8.819  2.3721  2.9209 -0.4812
  194MOL0     H26182   2.423   0.136   8.842 -1.5214 -0.9205  1.0441
  194MOL0     H26183   2.393   0.120   8.673 -1.2938  1.7708 -2.0125
  194MOL0     H26184   2.189   0.044   8.818 -1.8784  0.8550  1.7424
  194MOL0     H26185   2.207   0.192   8.906  1.2486  0.5456  0.0144
  194MOL0     H26186   1.968   0.332   8.579 -2.7649 -0.1680  2.0600
  194MOL0     H26187   2.796   0.383   8.844  0.6084  2.4692 -1.2633
  194MOL0     H26188   3.063   0.542   8.800 -1.2487 -0.1193 -1.2311
  194MOL0     H26189   2.982   0.438   8.920  0.9172  0.5173  0.3969
  194MOL0     H26190   3.138   0.390   8.853  0.6716  1.3686 -1.6250
  195MOL0     O26191   9.926   0.067   4.362 -0.1640  0.6484 -0.2520
  195MOL0     C26192   9.837   0.155   4.363 -0.3776 -0.9276  0.4477
  195MOL0     O26193   9.854   0.279   4.302  0.5445 -0.5614 -0.5292
  195MOL0     C26194   9.974   0.301   4.235  0.2977 -1.0188 -0.0612
  195MOL0     C26195  10.058   0.397   4.284 -0.1231 -0.9547 -0.4519
  195MOL0     C26196  10.172   0.442   4.220 -0.6395  0.2664 -0.2722
  195MOL0     C26197  10.202   0.393   4.097  0.3609 -0.8419 -0.2030
  195MOL0     O26198  10.310   0.443   4.023  0.8835 -0.3686  0.0227
  195MOL0     C26199  10.418   0.497   4.107 -0.1195  0.1245 -0.4432
  195MOL0     C26200  10.543   0.535   4.031 -0.5646  0.3921 -1.1607
  195MOL0     C26201  10.628   0.413   3.978 -0.1007  0.7441  0.5020
  195MOL0     C26202  10.651   0.312   4.087 -0.2940 -0.1330 -1.5302
  195MOL0     C26203  10.754   0.203   4.036 -0.5135  0.7330 -0.0189
  195MOL0     C26204  10.784   0.099   4.149  0.3629  0.8115  0.1997
  195MOL0     C26205  10.880  -0.006   4.097 -0.0923 -0.5291 -0.4836
  195MOL0     C26206  10.908  -0.094   4.219 -0.3859  1.3776  0.5424
  195MOL0     N26207  10.969  -0.216   4.167 -1.0386  0.0368 -0.2586
  195MOL0     C26208  11.106  -0.217   4.126 -0.4574 -0.0093 -0.1634
  195MOL0     C26209  11.133  -0.352   4.134 -0.5347 -0.1000  0.6480
  195MOL0     C26210  11.271  -0.415   4.116  0.6719 -0.1333  0.4846
  195MOL0     C26211  11.379  -0.322   4.186 -0.5983  0.6402 -0.4248
  195MOL0     C26212  11.351  -0.327   4.337  0.0834 -0.2781  0.2959
  195MOL0     C26213  11.464  -0.268   4.431 -0.1628 -1.0444 -0.0800
  195MOL0     O26214  11.601  -0.297   4.385 -0.5407  0.7235  0.1329
  195MOL0     C26215  11.709  -0.221   4.421 -1.1172 -0.4708  0.1191
  195MOL0     C26216  11.710  -0.148   4.540  0.0923  0.0378  0.2592
  195MOL0     C26217  11.819  -0.072   4.592  1.1579 -0.2491  0.0348
  195MOL0     C26218  11.939  -0.063   4.510 -0.3456 -0.0086  0.1174
  195MOL0     C26219  12.060   0.014   4.560 -0.4802 -0.2285  0.4862
  195MOL0     O26220  12.060   0.050   4.691 -0.0109  0.3289 -0.3217
  195MOL0     C26221  12.165   0.114   4.749  0.2393  0.0906 -0.6280
  195MOL0     C26222  12.187   0.066   4.882 -0.1979 -0.5689  0.3690
  195MOL0     C26223  12.288   0.110   4.965  0.4262  0.5204 -0.8020
  195MOL0     C26224  12.374   0.225   4.929  0.6774 -0.0827  0.5059
  195MOL0     O26225  12.474   0.283   5.009  0.0964 -0.0481 -0.3435
  195MOL0     C26226  12.508   0.209   5.126 -0.2001  0.1000 -0.5838
  195MOL0     C26227  12.623   0.270   5.210 -0.4489 -0.5714 -0.6096
  195MOL0     C26228  12.673   0.191   5.328  0.4112 -0.2104  0.4703
  195MOL0     C26229  12.719   0.280   5.450 -0.7472 -0.2636  0.1660
  195MOL0     C26230  12.773   0.203   5.573 -0.6089  0.7064  0.4001
  195MOL0     C26231  12.760   0.290   5.702 -0.9418 -0.5763  0.9192
  195MOL0     C26232  12.842   0.418   5.698  0.2576  0.7318 -0.0570
  195MOL0     C26233  12.795   0.506   5.814  1.0888  0.1735 -0.9035
  195MOL0    Cl26234  12.889   0.648   5.801  0.2329  0.1084  0.2552
  195MOL0     C26235  12.351   0.275   4.798 -0.3570 -0.3246 -0.5742
  195MOL0     C26236  12.261   0.214   4.706 -1.4486 -0.2420  0.7266
  195MOL0     O26237  12.160   0.011   4.487  0.4881 -0.1063  0.0862
  195MOL0     C26238  11.936  -0.137   4.385 -0.0066  0.3875 -0.7972
  195MOL0     C26239  11.826  -0.209   4.342  0.1452 -0.3901  0.4264
  195MOL0     N26240  11.019  -0.419   4.182 -0.1054  0.0733  0.9322
  195MOL0     N26241  10.922  -0.337   4.203 -0.2970  0.4351  0.7171
  195MOL0     C26242  10.109   0.305   4.044 -0.6320  0.3006  0.5162
  195MOL0     C26243   9.999   0.253   4.107 -0.3746  0.5987  0.6765
  195MOL0     C26244   9.706   0.136   4.426  1.0787  0.3302 -0.2166
  195MOL0     C26245   9.601   0.227   4.392  0.2250  0.1311 -0.7596
  195MOL0     C26246   9.476   0.208   4.448  0.0037 -0.5762 -0.7967
  195MOL0     C26247   9.439   0.103   4.538 -0.3638 -0.5381 -0.5069
  195MOL0     O26248   9.320   0.102   4.600  0.6512  0.6927  0.1819
  195MOL0     C26249   9.198   0.127   4.536 -0.7515  0.4671  0.9206
  195MOL0     C26250   9.140   0.003   4.461 -0.1520 -0.7975  0.1948
  195MOL0     C26251   9.018   0.051   4.377 -1.6257  0.1913 -0.9523
  195MOL0     C26252   8.969  -0.063   4.298 -0.5331 -0.9567  0.6694
  195MOL0     C26253   8.823  -0.043   4.280  0.3958 -0.1834 -0.0478
  195MOL0     C26254   8.708  -0.019   4.265  0.1105  0.2864  0.4155
  195MOL0     C26255   9.542   0.025   4.573  0.6686  0.2885 -0.2596
  195MOL0     C26256   9.672   0.030   4.520  0.0282 -0.0552  0.3092
  195MOL0     C26257   9.772  -0.066   4.558 -0.2890 -0.3158 -0.4778
  195MOL0     H26258  10.041   0.421   4.388 -1.5492 -0.7191 -0.7163
  195MOL0     H26259  10.230   0.514   4.277  3.0031 -2.7896  0.2932
  195MOL0     H26260  10.388   0.585   4.166  0.9825 -1.1158  2.1413
  195MOL0     H26261  10.441   0.425   4.187  0.4095 -1.1319 -1.6966
  195MOL0     H26262  10.614   0.586   4.097  0.1597  0.1395 -1.7306
  195MOL0     H26263  10.519   0.600   3.947  5.1755  2.2617 -1.7861
  195MOL0     H26264  10.723   0.448   3.937 -0.5398 -0.0321 -1.2457
  195MOL0     H26265  10.576   0.359   3.899  0.3111  1.0775 -0.0045
  195MOL0     H26266  10.690   0.360   4.177 -0.0782  0.5871 -1.9980
  195MOL0     H26267  10.564   0.250   4.111  1.3402 -2.2347 -0.7400
  195MOL0     H26268  10.714   0.153   3.947  0.1752  1.5045 -0.7833
  195MOL0     H26269  10.847   0.250   4.002  1.1960 -2.7699 -0.6827
  195MOL0     H26270  10.829   0.148   4.236 -1.8214  1.4491  1.0404
  195MOL0     H26271  10.690   0.049   4.177  0.1088  0.5872 -0.9972
  195MOL0     H26272  10.967   0.044   4.054 -0.3089  0.3828  0.1198
  195MOL0     H26273  10.824  -0.067   4.025 -1.2056 -0.1213  0.0235
  195MOL0     H26274  10.979  -0.039   4.283 -0.2988  1.8199  0.0751
  195MOL0     H26275  10.828  -0.124   4.286  0.4159  3.3183  2.5023
  195MOL0     H26276  11.168  -0.134   4.093  1.6392 -1.3754  0.1092
  195MOL0     H26277  11.270  -0.518   4.153  1.2050  0.4641  2.2419
  195MOL0     H26278  11.296  -0.406   4.010  0.3606  0.7295  0.4760
  195MOL0     H26279  11.481  -0.357   4.168 -0.7145  0.8037 -1.4765
  195MOL0     H26280  11.369  -0.218   4.154 -1.4559  0.9566  0.8213
  195MOL0     H26281  11.334  -0.431   4.368 -1.2682 -0.3237 -0.5338
  195MOL0     H26282  11.259  -0.270   4.349  0.9945  1.2376  0.2805
  195MOL0     H26283  11.448  -0.305   4.533 -1.9925  0.1783  0.1483
  195MOL0     H26284  11.454  -0.159   4.437  1.6829 -0.8190 -0.5341
  195MOL0     H26285  11.625  -0.161   4.606 -0.2471 -0.0347 -0.1887
  195MOL0     H26286  11.810  -0.023   4.688  3.0816  2.7411 -1.1647
  195MOL0     H26287  12.117   0.003   4.937 -2.5372  3.3124  2.2587
  195MOL0     H26288  12.298   0.074   5.067 -0.0009  0.8227 -0.6499
  195MOL0     H26289  12.421   0.209   5.193  1.0466  2.1311  1.1261
  195MOL0     H26290  12.546   0.110   5.099  0.9798  0.6637 -1.0452
  195MOL0     H26291  12.709   0.294   5.147 -1.4533  2.2147 -1.1031
  195MOL0     H26292  12.590   0.371   5.240 -0.8474 -1.4627  2.2777
  195MOL0     H26293  12.601   0.114   5.359 -0.3385  0.0387 -0.5894
  195MOL0     H26294  12.761   0.136   5.293 -1.7491 -2.6013 -1.6336
  195MOL0     H26295  12.635   0.340   5.485 -0.2699  0.3397  0.3110
  195MOL0     H26296  12.796   0.348   5.410 -1.1275 -0.6272 -1.2471
  195MOL0     H26297  12.875   0.168   5.558 -0.6666 -0.6068  2.6036
  195MOL0     H26298  12.709   0.115   5.585 -3.3917  2.6877  1.0578
  195MOL0     H26299  12.652   0.309   5.707 -0.8287 -0.1155  1.7526
  195MOL0     H26300  12.789   0.235   5.792 -0.3754 -0.4757  0.8000
  195MOL0     H26301  12.821   0.477   5.608 -1.9867  1.1680  0.6652
  195MOL0     H26302  12.948   0.397   5.709 -0.1154 -1.6160 -0.4500
  195MOL0     H26303  12.691   0.538   5.803  0.9435  0.3382  0.7196
  195MOL0     H26304  12.814   0.456   5.909  0.6911  2.1999  0.2937
  195MOL0     H26305  12.401   0.369   4.772 -0.5789  0.3170  1.1730
  195MOL0     H26306  12.260   0.257   4.606 -0.2758 -0.3693  0.6432
  195MOL0     H26307  12.028  -0.136   4.327  1.4128 -1.3277  1.2545
  195MOL0     H26308  11.826  -0.264   4.249  2.5870 -1.2232  0.8530
  195MOL0     H26309  10.140   0.277   3.944  0.9011 -1.7277  1.4695
  195MOL0     H26310   9.926   0.191   4.057 -1.7773  3.7247 -1.4849
  195MOL0     H26311   9.619   0.321   4.342  0.5346  1.2722  1.3795
  195MOL0     H26312   9.395   0.278   4.434  0.6407  0.5276  0.7568
  195MOL0     H26313   9.216   0.212   4.470  4.5272 -0.2761  0.9357
  195MOL0     H26314   9.128   0.164   4.611 -2.0089  2.0719 -0.9600
  195MOL0     H26315   9.113  -0.079   4.530 -0.3978 -0.8460  0.0416
  195MOL0     H26316   9.215  -0.031   4.389 -0.8073  0.7298 -1.2666
  195MOL0     H26317   9.061   0.123   4.306  1.3566  0.0008  0.5209
  195MOL0     H26318   8.945   0.100   4.442  0.0258 -1.9532  2.8105
  195MOL0     H26319   9.020  -0.066   4.202  2.0954  1.3487  1.8397
  195MOL0     H26320   8.982  -0.159   4.349  1.9886 -1.8529 -1.4392
  195MOL0     H26321   8.603   0.000   4.260  0.0393 -0.2898 -0.5483
  195MOL0     H26322   9.523  -0.061   4.636  3.3257 -0.4017 -0.2949
  195MOL0     H26323   9.854  -0.013   4.608 -0.8350  1.3320 -1.2412
  195MOL0     H26324   9.745  -0.150   4.623  1.0717  0.0487  0.6002
  195MOL0     H26325   9.803  -0.119   4.468 -2.0464 -1.2746 -0.5743
  196MOL0     O26326   5.646   9.892  10.012 -0.3196  0.2676 -0.6849
  196MOL0     C26327   5.648   9.836   9.898  0.2179 -0.1197 -0.3873
  196MOL0     O26328   5.714   9.724   9.862 -0.4248  0.0538 -1.0713
  196MOL0     C26329   5.829   9.676   9.914  0.0579  0.8589 -0.5996
  196MOL0     C26330   5.855   9.537   9.890 -0.1069 -0.2085 -0.1510
  196MOL0     C26331   5.973   9.476   9.942  0.6038  0.4244 -0.1436
  196MOL0     C26332   6.074   9.551  10.010 -0.0233  0.5101  0.2485
  196MOL0     O26333   6.183   9.480  10.038 -0.3563  0.2116 -0.2763
  196MOL0     C26334   6.293   9.537  10.116  0.7587  0.1934  0.3243
  196MOL0     C26335   6.404   9.433  10.107 -0.5203  0.9509 -0.5038
  196MOL0     C26336   6.523   9.477  10.199  0.1813 -0.2714  0.8823
  196MOL0     C26337   6.650   9.389  10.201  0.3976 -0.3218  0.3423
  196MOL0     C26338   6.681   9.333  10.063  0.7544  1.4698  0.2226
  196MOL0     C26339   6.816   9.257  10.041  0.3514  0.7160  0.2064
  196MOL0     C26340   6.944   9.339  10.071  1.2817  0.5231 -0.9086
  196MOL0     C26341   6.952   9.455   9.977  0.0540  0.1184  0.7525
  196MOL0     N26342   7.025   9.416   9.857 -0.5091 -0.1839  0.6969
  196MOL0     C26343   6.980   9.321   9.762  0.6492 -0.7063  0.0794
  196MOL0     C26344   7.074   9.314   9.669 -0.0434  0.0150  0.4956
  196MOL0     C26345   7.064   9.244   9.538  0.7220 -0.4520 -0.1703
  196MOL0     C26346   7.144   9.118   9.533  0.1854 -0.1642  0.0448
  196MOL0     C26347   7.108   9.028   9.411  0.3122 -0.1464 -0.4141
  196MOL0     C26348   7.192   8.901   9.397 -0.2901  0.5373 -0.1440
  196MOL0     O26349   7.328   8.920   9.440  0.3262  0.4587  0.1193
  196MOL0     C26350   7.420   8.836   9.375 -0.1999 -0.7582  0.7718
  196MOL0     C26351   7.554   8.883   9.365  0.1105 -0.3369 -0.4523
  196MOL0     C26352   7.663   8.807   9.311  0.5623  0.4199 -0.1179
  196MOL0     C26353   7.627   8.688   9.238 -1.0692  0.0091  0.7740
  196MOL0     C26354   7.733   8.609   9.163  0.1186 -0.6099 -0.8545
  196MOL0     O26355   7.859   8.637   9.200  0.4875  0.3431  0.2287
  196MOL0     C26356   7.959   8.550   9.169 -0.7311  0.4315 -0.3865
  196MOL0     C26357   8.071   8.554   9.260  0.1427  0.4093  0.1634
  196MOL0     C26358   8.187   8.479   9.230 -0.0130  0.2243 -0.8388
  196MOL0     C26359   8.199   8.401   9.119  0.2363 -0.2575 -0.5146
  196MOL0     O26360   8.304   8.318   9.095 -0.2904  0.4962  0.0628
  196MOL0     C26361   8.421   8.314   9.187 -0.4619 -0.8668 -0.5184
  196MOL0     C26362   8.527   8.254   9.091  0.6292  1.1788 -0.6592
  196MOL0     C26363   8.669   8.251   9.164 -0.5761  0.2375  0.1037
  196MOL0     C26364   8.772   8.243   9.050 -0.1476  0.2774  0.4194
  196MOL0     C26365   8.912   8.240   9.100 -0.4898  0.3486 -0.4745
  196MOL0     C26366   9.009   8.302   9.004  0.5159  0.3814 -0.5666
  196MOL0     C26367   9.057   8.197   8.897  0.4941  0.3549 -0.7690
  196MOL0     C26368   9.183   8.240   8.825  0.1655 -0.1437  0.2586
  196MOL0    Cl26369   9.153   8.387   8.733 -0.1957  0.2653  0.5757
  196MOL0     C26370   8.097   8.396   9.024  0.1482 -0.9453  0.1588
  196MOL0     C26371   7.979   8.472   9.052  0.2455 -0.1059 -1.0299
  196MOL0     O26372   7.695   8.528   9.081  0.1383 -0.0480 -0.5770
  196MOL0     C26373   7.491   8.653   9.248 -1.3941  0.0969  0.6135
  196MOL0     C26374   7.388   8.718   9.311 -0.0894 -1.1626 -0.3392
  196MOL0     N26375   7.184   9.396   9.715 -0.1225  0.3895 -0.0653
  196MOL0     N26376   7.143   9.466   9.814  0.0628  0.5190 -0.0206
  196MOL0     C26377   6.047   9.684  10.022 -0.5888 -0.3841 -0.2455
  196MOL0     C26378   5.930   9.748   9.981 -0.8811  0.3952  0.4107
  196MOL0     C26379   5.550   9.883   9.797 -0.7410  0.6892 -0.0698
  196MOL0     C26380   5.537  10.022   9.784 -0.9392  0.7449 -0.2243
  196MOL0     C26381   5.438  10.072   9.699  0.3131  0.5693 -0.0424
  196MOL0     C26382   5.366   9.992   9.606 -0.3679  0.5428 -0.5650
  196MOL0     O26383   5.287  10.043   9.507 -0.1972  0.1938  0.1030
  196MOL0     C26384   5.279  10.183   9.477 -0.0306 -0.7688 -0.1255
  196MOL0     C26385   5.410  10.226   9.403 -0.3078 -0.3661 -0.3175
  196MOL0     C26386   5.423  10.172   9.261  0.6390 -0.4054 -0.4433
  196MOL0     C26387   5.549  10.234   9.189  0.7388 -0.5412 -0.5517
  196MOL0     C26388   5.550  10.194   9.048  1.0299 -0.6163  0.8191
  196MOL0     C26389   5.537  10.148   8.932  0.5627  0.0700 -0.0327
  196MOL0     C26390   5.375   9.853   9.627 -0.9951 -0.0349 -0.3008
  196MOL0     C26391   5.471   9.799   9.716 -0.4994  0.7276 -0.0380
  196MOL0     C26392   5.467   9.652   9.750 -0.9816  0.6253 -0.8232
  196MOL0     H26393   5.783   9.476   9.838 -0.4310 -1.3917  1.6116
  196MOL0     H26394   5.989   9.368   9.939 -0.6555  0.1668  1.1857
  196MOL0     H26395   6.319   9.636  10.076 -0.5496  1.1788  1.7846
  196MOL0     H26396   6.266   9.561  10.219 -0.1234  1.3062 -0.1381
  196MOL0     H26397   6.434   9.428  10.002 -2.2513 -1.1125 -0.9629
  196MOL0     H26398   6.372   9.333  10.137 -0.0584  0.5758 -1.2258
  196MOL0     H26399   6.485   9.503  10.298 -0.2886  1.5772  0.2608
  196MOL0     H26400   6.552   9.575  10.158 -1.3364 -1.2333 -2.8650
  196MOL0     H26401   6.735   9.451  10.232 -1.6610  1.4167  2.9469
  196MOL0     H26402   6.627   9.312  10.276 -0.7157  0.3961  0.7634
  196MOL0     H26403   6.606   9.257  10.039  0.4452  1.5196  1.0128
  196MOL0     H26404   6.672   9.407   9.983  3.2505  0.1791 -1.3861
  196MOL0     H26405   6.825   9.172  10.109  0.8192  1.4722  1.1104
  196MOL0     H26406   6.819   9.212   9.941 -3.1679  0.5138  0.0595
  196MOL0     H26407   7.030   9.272  10.072  0.6009 -0.5812  3.0095
  196MOL0     H26408   6.942   9.381  10.172  2.3447 -0.3395 -0.5135
  196MOL0     H26409   6.850   9.482   9.949 -0.8325 -1.7253  1.9494
  196MOL0     H26410   7.011   9.536  10.023  0.7434  0.8225 -1.2696
  196MOL0     H26411   6.876   9.290   9.760 -1.3733  4.8227  1.3171
  196MOL0     H26412   6.958   9.217   9.533 -0.5029  2.1106  4.8225
  196MOL0     H26413   7.092   9.310   9.455  0.3850 -0.9434 -0.6793
  196MOL0     H26414   7.249   9.147   9.538  0.0926  0.1218  0.4058
  196MOL0     H26415   7.122   9.054   9.619 -2.0535 -1.1109 -1.1562
  196MOL0     H26416   7.141   9.080   9.320  1.6885  0.1663  0.2393
  196MOL0     H26417   7.003   9.000   9.405  0.0841  0.5976 -0.0140
  196MOL0     H26418   7.187   8.863   9.295  0.1084 -0.9229  0.3632
  196MOL0     H26419   7.151   8.835   9.474  1.0749  0.8146  0.8636
  196MOL0     H26420   7.563   8.982   9.409  0.0703 -1.2105  1.6125
  196MOL0     H26421   7.766   8.841   9.315  1.4322 -2.1294  1.5497
  196MOL0     H26422   8.065   8.607   9.355  0.8489 -0.6047  0.7991
  196MOL0     H26423   8.264   8.468   9.306 -0.5950 -1.5726 -0.4587
  196MOL0     H26424   8.458   8.406   9.234  0.8859 -1.2978 -0.6752
  196MOL0     H26425   8.396   8.247   9.270 -0.8063  0.0325  0.1062
  196MOL0     H26426   8.509   8.149   9.067  4.0355  0.3655 -0.1600
  196MOL0     H26427   8.534   8.311   8.998  5.6389 -1.1591 -2.0462
  196MOL0     H26428   8.682   8.339   9.228  2.3861  1.0104 -1.3583
  196MOL0     H26429   8.677   8.157   9.218  0.1753 -1.5608 -2.8806
  196MOL0     H26430   8.747   8.321   8.977 -3.1768  0.3168  1.3640
  196MOL0     H26431   8.752   8.149   8.998 -2.1722  1.4928 -1.1579
  196MOL0     H26432   8.944   8.140   9.132  0.0300  0.0830 -1.7751
  196MOL0     H26433   8.922   8.300   9.191 -1.5312  0.4996 -0.4434
  196MOL0     H26434   8.975   8.396   8.960  4.4529  3.4082  2.0746
  196MOL0     H26435   9.098   8.338   9.058  1.2994  2.1359 -2.8542
  196MOL0     H26436   8.983   8.185   8.818 -0.7124  3.3708 -0.2565
  196MOL0     H26437   9.089   8.107   8.950  0.4259  1.3945  1.1267
  196MOL0     H26438   9.266   8.249   8.896  2.0307  0.1135 -1.8497
  196MOL0     H26439   9.211   8.168   8.747 -1.5537 -0.2346 -0.3134
  196MOL0     H26440   8.118   8.348   8.930  0.1227 -0.0005 -0.3393
  196MOL0     H26441   7.907   8.475   8.970 -2.6162  0.7819  1.3540
  196MOL0     H26442   7.454   8.569   9.190 -4.5022  1.8282 -0.1174
  196MOL0     H26443   7.290   8.671   9.301 -1.0650  0.6539  0.0948
  196MOL0     H26444   6.107   9.750  10.083 -0.4548 -0.3539 -0.4103
  196MOL0     H26445   5.900   9.851  10.002 -2.8163 -0.3738  1.6961
  196MOL0     H26446   5.601  10.085   9.845 -1.7772  0.3632  1.0922
  196MOL0     H26447   5.427  10.180   9.695  0.7086  0.5775 -2.3518
  196MOL0     H26448   5.269  10.249   9.564  0.5047 -1.5805  0.5675
  196MOL0     H26449   5.186  10.200   9.422 -1.7783 -1.6487  2.4181
  196MOL0     H26450   5.496  10.208   9.467 -0.6599  1.9183  0.8846
  196MOL0     H26451   5.400  10.335   9.398 -1.7543 -0.1556  3.5594
  196MOL0     H26452   5.325  10.189   9.217 -0.0031  0.5073  1.2659
  196MOL0     H26453   5.439  10.064   9.267 -2.0418 -0.8153  0.3389
  196MOL0     H26454   5.521  10.340   9.197  0.6003 -0.7123  3.5970
  196MOL0     H26455   5.646  10.219   9.237  1.9072 -0.8092 -2.8519
  196MOL0     H26456   5.524  10.094   8.841  2.0436 -0.7258  0.1944
  196MOL0     H26457   5.319   9.780   9.570  1.1255 -1.6172 -0.4925
  196MOL0     H26458   5.370   9.610   9.722 -0.4636 -1.6876  0.6106
  196MOL0     H26459   5.540   9.607   9.683  0.3108  1.4522 -0.0085
  196MOL0     H26460   5.486   9.634   9.856 -0.4304 -1.2276 -1.2061
  197MOL0     O26461   7.872   9.316   5.019  0.0173  0.4957  0.4334
  197MOL0     C26462   7.890   9.401   4.935 -0.1746  0.3146  0.1851
  197MOL0     O26463   8.008   9.450   4.892 -0.5999  0.3941 -0.0272
  197MOL0     C26464   8.124   9.398   4.953  0.4314 -0.2422  0.0313
  197MOL0     C26465   8.194   9.304   4.886  0.1986 -0.0134  0.6178
  197MOL0     C26466   8.301   9.233   4.945 -0.2521 -0.8486  0.7194
  197MOL0     C26467   8.340   9.265   5.079  0.2618  0.3842  0.1321
  197MOL0     O26468   8.445   9.200   5.133 -0.9215  0.3204 -0.5153
  197MOL0     C26469   8.548   9.139   5.048  0.7921 -0.7350  0.6157
  197MOL0     C26470   8.659   9.088   5.144  0.2242  0.0863  0.1026
  197MOL0     C26471   8.776   9.061   5.060 -0.4036 -0.0344  0.0812
  197MOL0     C26472   8.902   9.026   5.141  0.2777 -0.0514 -0.1543
  197MOL0     C26473   8.994   9.148   5.171 -0.0048 -0.2626  0.5941
  197MOL0     C26474   9.124   9.095   5.237 -0.6326  0.1782 -0.6216
  197MOL0     C26475   9.204   9.218   5.288 -0.5983 -0.2587 -0.5636
  197MOL0     C26476   9.287   9.274   5.173  0.3448 -0.3822 -0.0346
  197MOL0     N26477   9.409   9.194   5.145 -0.3489  0.5351  0.2029
  197MOL0     C26478   9.529   9.257   5.127  0.0870 -0.7652 -0.7600
  197MOL0     C26479   9.617   9.170   5.083 -0.1460 -0.0817 -0.1415
  197MOL0     C26480   9.761   9.213   5.045 -0.0675 -0.8413  0.6864
  197MOL0     C26481   9.867   9.160   5.135 -0.4752  0.5310 -0.4422
  197MOL0     C26482   9.937   9.042   5.066 -0.0415  0.2121  0.4461
  197MOL0     C26483  10.067   8.987   5.140  0.1296 -0.6229  0.9045
  197MOL0     O26484  10.164   9.094   5.151  0.2048  0.3941  0.5351
  197MOL0     C26485  10.249   9.128   5.045  0.0526 -0.7114  0.4648
  197MOL0     C26486  10.358   9.220   5.066  0.2235 -1.1785 -0.7311
  197MOL0     C26487  10.450   9.248   4.964 -0.4497 -0.5346  0.0096
  197MOL0     C26488  10.439   9.189   4.842  0.4344 -0.6795  0.3396
  197MOL0     C26489  10.532   9.228   4.731 -0.5174 -1.0952 -0.2109
  197MOL0     O26490  10.627   9.323   4.755  0.2983  0.2621 -0.0980
  197MOL0     C26491  10.722   9.341   4.661  0.5417  0.0624 -0.0132
  197MOL0     C26492  10.840   9.274   4.656  0.0885  0.2286 -0.0062
  197MOL0     C26493  10.942   9.310   4.565  0.0850  0.2402 -0.8529
  197MOL0     C26494  10.924   9.419   4.480 -0.1335  0.5675 -0.0672
  197MOL0     O26495  11.034   9.453   4.398  0.5450  0.4441 -0.0501
  197MOL0     C26496  10.995   9.516   4.281 -0.3253 -0.1470 -0.1953
  197MOL0     C26497  11.123   9.506   4.193  0.3436  0.3622 -0.0756
  197MOL0     C26498  11.144   9.609   4.083  0.5586  0.3626 -0.1841
  197MOL0     C26499  11.035   9.610   3.971 -0.5609 -0.2695 -0.0143
  197MOL0     C26500  11.090   9.685   3.851  0.0643 -0.5109  0.2485
  197MOL0     C26501  10.996   9.675   3.738 -0.5962 -0.5442 -0.3860
  197MOL0     C26502  11.037   9.759   3.621 -0.4468  0.4717 -0.1301
  197MOL0     C26503  10.931   9.756   3.515  0.3426 -0.1153 -0.3511
  197MOL0    Cl26504  10.784   9.836   3.569  0.1299 -0.0816 -0.1769
  197MOL0     C26505  10.796   9.478   4.473 -0.0586  0.3032 -0.3411
  197MOL0     C26506  10.700   9.445   4.567  0.8127  0.9742 -0.9722
  197MOL0     O26507  10.519   9.171   4.622 -0.3316  0.4072 -0.6792
  197MOL0     C26508  10.327   9.108   4.815  0.5065 -0.7324 -0.0046
  197MOL0     C26509  10.238   9.077   4.915  0.3871 -0.7086  0.1509
  197MOL0     N26510   9.550   9.051   5.058  0.1612 -0.3416 -0.5976
  197MOL0     N26511   9.425   9.067   5.097 -0.3044 -0.4668 -0.2612
  197MOL0     C26512   8.270   9.361   5.143  0.2228  0.2904  0.4416
  197MOL0     C26513   8.175   9.439   5.072  0.2126 -0.1685  0.1554
  197MOL0     C26514   7.763   9.445   4.868  0.8821  0.3470  0.1203
  197MOL0     C26515   7.634   9.402   4.918  0.3200 -0.2626  0.0849
  197MOL0     C26516   7.512   9.445   4.870  0.1523 -0.3600  0.2599
  197MOL0     C26517   7.513   9.532   4.761  0.2436 -0.6304  0.0064
  197MOL0     O26518   7.390   9.579   4.704 -1.2910  0.1049 -0.3306
  197MOL0     C26519   7.269   9.495   4.716  0.3490 -1.2904  0.7799
  197MOL0     C26520   7.183   9.550   4.596  0.0501 -0.4946  0.2584
  197MOL0     C26521   7.055   9.465   4.584  0.5698  0.4985 -0.4173
  197MOL0     C26522   7.058   9.334   4.501 -0.1936 -0.2016  0.0132
  197MOL0     C26523   7.119   9.352   4.367  1.3901  0.5558  0.4064
  197MOL0     C26524   7.148   9.374   4.259 -0.0582 -0.4447  0.8673
  197MOL0     C26525   7.625   9.586   4.716 -0.7412 -0.2596  0.4683
  197MOL0     C26526   7.746   9.534   4.761 -0.1383 -1.1736  1.0651
  197MOL0     C26527   7.862   9.563   4.673 -0.4346 -0.4304  1.7161
  197MOL0     H26528   8.159   9.273   4.788  2.0139  0.1337 -0.1111
  197MOL0     H26529   8.352   9.156   4.888  1.7071  0.2172  0.9407
  197MOL0     H26530   8.510   9.063   4.979 -0.9908  0.8449 -0.2247
  197MOL0     H26531   8.584   9.224   4.990 -0.1251 -0.1540  0.8749
  197MOL0     H26532   8.632   8.995   5.195  1.9457 -1.0445 -0.9619
  197MOL0     H26533   8.680   9.166   5.218  0.1131  1.2835 -1.0832
  197MOL0     H26534   8.796   9.141   4.989  1.9604 -1.0084 -0.4472
  197MOL0     H26535   8.750   8.978   4.995  1.1321 -0.2560 -0.2964
  197MOL0     H26536   8.882   8.964   5.228 -1.0224 -0.6323 -0.8267
  197MOL0     H26537   8.962   8.970   5.070  1.0764  1.0311 -0.3636
  197MOL0     H26538   9.013   9.201   5.077  0.0106  1.4121  1.5068
  197MOL0     H26539   8.939   9.223   5.229 -0.4020  2.0848 -2.5880
  197MOL0     H26540   9.095   9.034   5.322 -0.6890  2.0558  0.7634
  197MOL0     H26541   9.190   9.032   5.176  0.9197  0.0961  1.0506
  197MOL0     H26542   9.281   9.190   5.360  1.0781  2.6474 -1.0587
  197MOL0     H26543   9.142   9.292   5.340  1.0536  0.2314  0.8139
  197MOL0     H26544   9.229   9.296   5.083  0.5835  0.6110  0.0472
  197MOL0     H26545   9.320   9.367   5.220 -1.7010 -0.6457  2.0935
  197MOL0     H26546   9.535   9.360   5.164 -1.8452 -0.7679 -0.3208
  197MOL0     H26547   9.767   9.187   4.939 -4.9575 -1.2038  0.2756
  197MOL0     H26548   9.759   9.321   5.064  1.3105 -0.2749 -1.9384
  197MOL0     H26549   9.928   9.245   5.168 -1.1131  0.0143  2.3850
  197MOL0     H26550   9.823   9.116   5.225  0.0675 -0.9889 -0.9003
  197MOL0     H26551   9.961   9.067   4.962  2.0843 -2.2159  0.2522
  197MOL0     H26552   9.870   8.956   5.075  0.7778 -0.3368  1.5366
  197MOL0     H26553  10.115   8.902   5.091 -1.9098 -0.2953 -1.9040
  197MOL0     H26554  10.026   8.942   5.230 -6.5067 -0.9184 -1.6948
  197MOL0     H26555  10.371   9.275   5.159 -3.6077 -0.0817 -0.6526
  197MOL0     H26556  10.524   9.325   4.980  0.2195 -0.6436 -2.2951
  197MOL0     H26557  10.844   9.185   4.718 -3.7483  1.7458  2.8160
  197MOL0     H26558  11.043   9.271   4.573  0.4798  1.5008  1.2413
  197MOL0     H26559  10.907   9.476   4.230 -0.8707 -1.4134  1.6503
  197MOL0     H26560  10.977   9.622   4.301 -1.1266 -0.0562 -1.2813
  197MOL0     H26561  11.214   9.508   4.255  0.3166  0.7176 -0.0460
  197MOL0     H26562  11.112   9.409   4.143  0.5955  0.0012  0.5406
  197MOL0     H26563  11.153   9.707   4.131 -0.9115  0.8471 -0.8411
  197MOL0     H26564  11.239   9.575   4.040  0.6853  1.8631 -1.1689
  197MOL0     H26565  10.936   9.650   3.997 -0.1726  0.3973  0.4433
  197MOL0     H26566  11.003   9.510   3.938 -3.6386  0.8593 -0.8627
  197MOL0     H26567  11.180   9.632   3.819  1.0207  0.3441  1.4142
  197MOL0     H26568  11.115   9.791   3.862 -1.4268  0.0452 -1.2886
  197MOL0     H26569  10.991   9.571   3.702  3.4588 -0.0850 -2.8819
  197MOL0     H26570  10.901   9.712   3.777  1.3231  1.1379  3.2727
  197MOL0     H26571  11.128   9.711   3.584 -0.2360  0.5229  0.3167
  197MOL0     H26572  11.054   9.867   3.629 -0.6295  0.4020  1.4949
  197MOL0     H26573  10.960   9.817   3.429  0.4603  1.3495  0.6918
  197MOL0     H26574  10.908   9.653   3.488 -1.7678 -0.0606  1.0176
  197MOL0     H26575  10.772   9.565   4.414 -0.6436  2.7381  3.1766
  197MOL0     H26576  10.608   9.502   4.577 -0.5120 -1.1939 -0.1909
  197MOL0     H26577  10.307   9.059   4.720  0.3025 -1.9580  0.6392
  197MOL0     H26578  10.160   9.007   4.887  0.3684  0.3250 -2.6577
  197MOL0     H26579   8.300   9.393   5.243  2.4212 -2.8823  0.9325
  197MOL0     H26580   8.129   9.525   5.119  0.3080 -0.0818  0.0895
  197MOL0     H26581   7.630   9.333   5.001  1.5389 -2.8535 -1.8681
  197MOL0     H26582   7.414   9.405   4.897 -0.3185  0.5114 -0.1112
  197MOL0     H26583   7.217   9.504   4.812 -1.7216  1.0758 -0.4344
  197MOL0     H26584   7.297   9.392   4.693 -0.1191 -0.7474 -2.7978
  197MOL0     H26585   7.248   9.541   4.508  0.8330 -2.3964  0.9711
  197MOL0     H26586   7.163   9.656   4.611  0.9818 -0.5880  2.4751
  197MOL0     H26587   6.971   9.523   4.546  0.4937  0.5012 -0.2471
  197MOL0     H26588   7.032   9.439   4.688  1.2366  1.1634 -0.0862
  197MOL0     H26589   7.106   9.252   4.555  1.9981  0.1042 -1.3604
  197MOL0     H26590   6.958   9.305   4.467  1.7065 -2.4802 -4.4607
  197MOL0     H26591   7.194   9.390   4.164 -2.3186  3.6885  0.1984
  197MOL0     H26592   7.607   9.649   4.629 -0.3266 -1.4902 -0.5383
  197MOL0     H26593   7.915   9.470   4.651 -0.8662 -0.5445  1.0982
  197MOL0     H26594   7.819   9.595   4.577 -2.1568 -1.4662  2.0988
  197MOL0     H26595   7.922   9.650   4.699 -2.6470  1.5154  0.6810
  198MOL0     O26596   2.912   5.259   9.441 -0.6215 -0.3468  0.4274
  198MOL0     C26597   2.991   5.168   9.432 -0.7802  0.4775  0.5119
  198MOL0     O26598   2.971   5.047   9.486 -0.0015 -0.4199  0.1170
  198MOL0     C26599   2.841   5.020   9.526  0.2931  0.6681 -0.3869
  198MOL0     C26600   2.809   5.001   9.654  0.2164 -0.6977 -1.0339
  198MOL0     C26601   2.681   4.966   9.699  0.0676 -0.3385  0.3604
  198MOL0     C26602   2.576   4.953   9.609  0.7098 -0.4387 -0.0599
  198MOL0     O26603   2.459   4.920   9.669  0.3165 -0.1787  0.7967
  198MOL0     C26604   2.337   4.903   9.581 -0.3878 -0.5313 -0.2764
  198MOL0     C26605   2.242   4.798   9.635 -0.0325  0.6168  0.9691
  198MOL0     C26606   2.135   4.841   9.741  0.4948  0.0519  0.9050
  198MOL0     C26607   2.025   4.734   9.753  0.2861  0.2265  0.6743
  198MOL0     C26608   1.923   4.756   9.869 -0.2899 -0.1639  0.3909
  198MOL0     C26609   1.788   4.683   9.856 -0.1342 -1.0070  0.6180
  198MOL0     C26610   1.802   4.530   9.827 -0.2200 -0.1684  0.0225
  198MOL0     C26611   1.667   4.466   9.793  0.8879  0.8539 -0.3872
  198MOL0     N26612   1.690   4.320   9.791 -0.0989  1.0130 -0.2648
  198MOL0     C26613   1.642   4.232   9.886  0.2791  0.0572  0.2462
  198MOL0     C26614   1.678   4.109   9.843  0.2818 -0.4160  0.1450
  198MOL0     C26615   1.639   3.975   9.909 -0.3100 -0.5279  0.4053
  198MOL0     C26616   1.516   3.913   9.850  0.3615  0.0721 -0.2728
  198MOL0     C26617   1.397   4.002   9.882  0.5121 -0.6076 -1.0276
  198MOL0     C26618   1.323   4.057   9.767  0.2776  0.1378  0.0402
  198MOL0     O26619   1.216   4.130   9.822 -0.4805 -0.6323  0.1560
  198MOL0     C26620   1.094   4.066   9.832 -0.0776 -1.5883 -0.0671
  198MOL0     C26621   1.065   3.922   9.804  0.7281 -1.0231  0.0679
  198MOL0     C26622   0.933   3.886   9.810  0.6779  0.6008  0.6125
  198MOL0     C26623   0.834   3.975   9.847  1.2328  0.3295 -0.4445
  198MOL0     C26624   0.687   3.924   9.843  0.0214 -0.3270  0.7489
  198MOL0     O26625   0.599   4.027   9.819 -0.2772 -0.1285  0.3645
  198MOL0     C26626   0.461   4.024   9.828 -0.4514  0.3133  0.3046
  198MOL0     C26627   0.394   4.145   9.813  0.2532 -0.7825 -0.1215
  198MOL0     C26628   0.252   4.155   9.815 -0.1169 -0.0299 -0.2232
  198MOL0     C26629   0.177   4.037   9.844  0.0500  0.2874 -0.1047
  198MOL0     O26630   0.041   4.054   9.842 -0.0153  0.2292 -0.2340
  198MOL0     C26631  -0.048   3.938   9.814 -0.5672 -0.1781 -0.2012
  198MOL0     C26632  -0.158   3.988   9.718 -0.6835  0.3366  0.1749
  198MOL0     C26633  -0.087   4.007   9.581  0.1266 -0.8307  1.2952
  198MOL0     C26634  -0.193   4.034   9.470 -0.8986 -0.1272 -0.6457
  198MOL0     C26635  -0.132   4.019   9.328 -0.4678 -0.1158 -0.1723
  198MOL0     C26636  -0.228   4.040   9.214  0.1959 -0.7993  0.2507
  198MOL0     C26637  -0.216   3.933   9.112  0.3907  0.3661 -0.4845
  198MOL0     C26638  -0.078   3.923   9.041  0.1032  0.2830  0.2869
  198MOL0    Cl26639  -0.097   3.776   8.940  0.5352  0.1156 -0.0251
  198MOL0     C26640   0.243   3.918   9.870  0.4965  0.8572 -0.4819
  198MOL0     C26641   0.387   3.910   9.854  0.9083  0.2341  0.1118
  198MOL0     O26642   0.662   3.804   9.822  0.6291  0.4760 -0.4946
  198MOL0     C26643   0.866   4.111   9.883  0.2705  0.5746  0.2302
  198MOL0     C26644   0.995   4.161   9.867  0.3906  0.8669  0.2991
  198MOL0     N26645   1.733   4.118   9.721  0.2619  0.7112  0.0251
  198MOL0     N26646   1.743   4.243   9.688 -0.2250  0.3875 -0.3015
  198MOL0     C26647   2.602   4.996   9.475  0.3610  0.5174 -0.7865
  198MOL0     C26648   2.728   5.029   9.442 -0.5095 -0.3013 -0.9661
  198MOL0     C26649   3.126   5.202   9.382 -0.3055 -0.2112  0.1364
  198MOL0     C26650   3.233   5.134   9.443  0.9463  0.5175  0.3024
  198MOL0     C26651   3.362   5.163   9.408  0.3273 -1.0995 -0.0047
  198MOL0     C26652   3.395   5.257   9.306 -0.7584 -0.0745  0.3576
  198MOL0     O26653   3.528   5.273   9.260  0.6752 -0.0367 -0.0571
  198MOL0     C26654   3.617   5.171   9.287 -0.4456  0.2947 -0.9409
  198MOL0     C26655   3.692   5.180   9.424  0.1045  0.3371  0.9481
  198MOL0     C26656   3.809   5.284   9.425  1.1058 -0.7777 -1.1650
  198MOL0     C26657   3.930   5.229   9.361 -0.1951 -0.4865  0.2375
  198MOL0     C26658   4.041   5.329   9.349 -0.4471  0.5546 -0.9875
  198MOL0     C26659   4.125   5.410   9.322 -0.1391  0.4217 -0.2700
  198MOL0     C26660   3.285   5.318   9.243 -0.8309 -0.2292  1.2541
  198MOL0     C26661   3.157   5.292   9.275  0.6234 -0.0472  0.0521
  198MOL0     C26662   3.056   5.361   9.189  0.5194  0.3698  0.2883
  198MOL0     H26663   2.892   4.997   9.724 -0.4251 -0.0715 -0.2071
  198MOL0     H26664   2.681   4.943   9.805 -1.8481 -1.6589  0.1360
  198MOL0     H26665   2.285   4.997   9.563  0.0529 -0.1643  0.3283
  198MOL0     H26666   2.360   4.869   9.480 -4.2976 -1.4613 -1.0210
  198MOL0     H26667   2.302   4.721   9.684 -1.6515 -0.9825  0.5572
  198MOL0     H26668   2.175   4.764   9.556  0.5939  0.6695  0.4150
  198MOL0     H26669   2.082   4.935   9.723 -0.0560 -1.0166 -4.7116
  198MOL0     H26670   2.189   4.858   9.834  0.6705  0.8066  0.6710
  198MOL0     H26671   1.972   4.737   9.658  1.0346 -3.6003 -0.0160
  198MOL0     H26672   2.063   4.632   9.755 -0.4299 -0.0541  0.4543
  198MOL0     H26673   1.955   4.712   9.964 -2.8562 -2.5770  0.2537
  198MOL0     H26674   1.917   4.865   9.884 -0.2218 -0.1026 -0.0247
  198MOL0     H26675   1.745   4.709   9.954 -2.0020  1.5502 -0.7630
  198MOL0     H26676   1.720   4.733   9.786  0.6784  2.6306  2.1921
  198MOL0     H26677   1.851   4.476   9.907  3.5323  0.0657 -1.9006
  198MOL0     H26678   1.872   4.530   9.743 -0.8815 -0.2356 -0.5437
  198MOL0     H26679   1.588   4.489   9.866 -1.1515  1.3510 -2.6203
  198MOL0     H26680   1.618   4.491   9.698  0.5588 -3.5245 -1.5872
  198MOL0     H26681   1.584   4.264   9.972 -0.7573  0.1121 -0.4475
  198MOL0     H26682   1.719   3.900   9.906 -0.0983 -0.7900  4.9936
  198MOL0     H26683   1.621   4.000  10.014 -0.0461 -0.8539  0.5298
  198MOL0     H26684   1.531   3.910   9.742  1.4541  0.5949 -0.1406
  198MOL0     H26685   1.495   3.816   9.896 -0.1230 -0.1231 -0.8940
  198MOL0     H26686   1.430   4.091   9.936 -0.3393  0.5065 -2.2948
  198MOL0     H26687   1.334   3.938   9.945  2.2807 -0.8713  0.5674
  198MOL0     H26688   1.294   3.975   9.700 -0.2556 -0.6487  1.2083
  198MOL0     H26689   1.395   4.124   9.719  1.2588 -0.2631  0.9258
  198MOL0     H26690   1.140   3.846   9.786  1.1395 -0.6953  0.3669
  198MOL0     H26691   0.908   3.786   9.777  2.3293  0.1794  0.5320
  198MOL0     H26692   0.447   4.232   9.776 -2.1465  2.4265  3.2244
  198MOL0     H26693   0.201   4.250   9.798 -0.6528 -0.0745  1.0427
  198MOL0     H26694  -0.002   3.847   9.775 -0.3435 -0.2084  0.1313
  198MOL0     H26695  -0.102   3.910   9.904 -1.1918 -0.0608 -0.5356
  198MOL0     H26696  -0.244   3.920   9.712 -0.5806  0.0799  1.4130
  198MOL0     H26697  -0.202   4.084   9.746 -0.8490  0.5478 -0.7706
  198MOL0     H26698  -0.008   4.082   9.589  0.0887 -0.4825 -0.9409
  198MOL0     H26699  -0.031   3.914   9.566  3.2852  1.2490 -1.3873
  198MOL0     H26700  -0.231   4.135   9.489 -1.1236 -0.2696 -0.3232
  198MOL0     H26701  -0.277   3.966   9.484 -2.0617  1.6565  1.9417
  198MOL0     H26702  -0.073   3.926   9.328 -1.1875 -0.5825 -0.2324
  198MOL0     H26703  -0.055   4.095   9.314 -1.3880  0.6743 -1.1279
  198MOL0     H26704  -0.327   4.034   9.260 -0.0388 -1.8433 -0.3514
  198MOL0     H26705  -0.204   4.134   9.165  1.1897 -1.4508 -0.5562
  198MOL0     H26706  -0.288   3.947   9.032 -0.8662 -0.9580  0.3569
  198MOL0     H26707  -0.240   3.837   9.158 -1.8401  0.1925 -1.8915
  198MOL0     H26708  -0.049   4.008   8.980  0.7458 -0.4372 -0.4294
  198MOL0     H26709   0.005   3.908   9.111  2.4869 -0.9747 -2.6075
  198MOL0     H26710   0.177   3.834   9.888  0.5281  1.0769  0.7811
  198MOL0     H26711   0.428   3.809   9.853 -1.4302 -0.7876 -0.0027
  198MOL0     H26712   0.786   4.173   9.925  0.9656  1.7828 -0.1852
  198MOL0     H26713   1.012   4.268   9.874 -1.2611  1.0679  1.8030
  198MOL0     H26714   2.528   5.003   9.396  1.6057 -0.5598 -2.1154
  198MOL0     H26715   2.747   5.060   9.340  0.6906  0.6897 -0.4679
  198MOL0     H26716   3.216   5.053   9.513  2.9736  0.2227  0.5143
  198MOL0     H26717   3.441   5.111   9.460  2.8812  1.4685 -1.0143
  198MOL0     H26718   3.688   5.171   9.203 -1.5074  0.7252 -1.8692
  198MOL0     H26719   3.571   5.071   9.290 -0.4075  0.2973  1.3639
  198MOL0     H26720   3.729   5.082   9.457 -0.3128  0.5392  2.0757
  198MOL0     H26721   3.613   5.200   9.497 -0.5475 -0.3190  0.4435
  198MOL0     H26722   3.844   5.316   9.524 -0.5062  0.4283 -0.9374
  198MOL0     H26723   3.774   5.374   9.373 -1.3333  0.6061  2.4700
  198MOL0     H26724   3.961   5.132   9.401  0.3417 -0.6660 -0.5798
  198MOL0     H26725   3.904   5.207   9.257 -1.0132 -1.4968  0.6391
  198MOL0     H26726   4.193   5.490   9.303  0.5005 -0.3188 -1.1995
  198MOL0     H26727   3.303   5.389   9.163 -0.8489  0.7965  2.1363
  198MOL0     H26728   3.087   5.431   9.111 -1.9851 -1.0109 -2.1520
  198MOL0     H26729   2.995   5.285   9.138  2.2699  2.1966 -5.1897
  198MOL0     H26730   2.986   5.416   9.252 -1.0331 -3.0978  1.8911
  199MOL0     O26731   6.176   6.557  10.794  0.0016  0.4930  0.5648
  199MOL0     C26732   6.124   6.635  10.873  0.2868  0.7017 -0.3882
  199MOL0     O26733   6.187   6.734  10.942  0.2023  0.5231  0.2319
  199MOL0     C26734   6.329   6.735  10.932  0.4851  0.1106  0.2250
  199MOL0     C26735   6.387   6.795  10.825 -1.1270  0.0386 -0.3696
  199MOL0     C26736   6.526   6.805  10.808 -0.3828 -0.3526 -0.0892
  199MOL0     C26737   6.607   6.734  10.897 -0.0278 -0.4154 -0.4461
  199MOL0     O26738   6.737   6.723  10.890 -0.0914 -0.6369 -0.0219
  199MOL0     C26739   6.801   6.768  10.771  0.7033  0.8465  0.1403
  199MOL0     C26740   6.950   6.725  10.762  0.7753 -0.3432  0.4874
  199MOL0     C26741   7.035   6.793  10.875  0.3648 -0.0585  0.0892
  199MOL0     C26742   7.118   6.900  10.813 -0.4202 -0.4347  0.0165
  199MOL0     C26743   7.233   6.943  10.909 -0.6158 -0.0139  0.4626
  199MOL0     C26744   7.351   6.844  10.908 -0.6517 -0.9830  0.5850
  199MOL0     C26745   7.442   6.862  11.026  0.1071  0.3501  0.5956
  199MOL0     C26746   7.494   7.011  11.043  0.3099  0.4546  0.4640
  199MOL0     N26747   7.562   7.030  11.166  0.5934  0.1165 -0.4065
  199MOL0     C26748   7.691   6.983  11.192 -0.6202  0.7249 -0.9949
  199MOL0     C26749   7.711   6.983  11.328  0.4589  0.5392 -0.1533
  199MOL0     C26750   7.834   6.920  11.390  0.8120  0.2629 -0.5656
  199MOL0     C26751   7.925   7.038  11.436  0.4142  0.7167 -0.6245
  199MOL0     C26752   8.027   6.967  11.526 -0.9340 -0.9583 -0.4558
  199MOL0     C26753   8.136   6.881  11.456  0.3111  0.3642 -0.2830
  199MOL0     O26754   8.191   6.972  11.363  0.8047  0.2872  0.3055
  199MOL0     C26755   8.328   6.991  11.375  0.3771 -0.6485 -0.3415
  199MOL0     C26756   8.368   7.117  11.397  0.4985  0.0262 -0.0194
  199MOL0     C26757   8.497   7.153  11.420 -0.5078 -0.1882 -0.3222
  199MOL0     C26758   8.597   7.055  11.425  0.1673 -0.6213  0.2670
  199MOL0     C26759   8.736   7.085  11.452 -0.5500 -0.7102 -0.4517
  199MOL0     O26760   8.747   7.210  11.524 -0.0943 -0.2672 -0.1350
  199MOL0     C26761   8.862   7.275  11.540  0.5508 -0.4234  0.2040
  199MOL0     C26762   8.857   7.401  11.496  0.5949 -0.3937  0.7996
  199MOL0     C26763   8.968   7.490  11.514  0.6017  0.0377  0.1868
  199MOL0     C26764   9.084   7.437  11.567 -0.0693 -0.8558  0.4510
  199MOL0     O26765   9.211   7.497  11.568  0.1885  0.8113  0.0307
  199MOL0     C26766   9.231   7.615  11.484 -0.2549 -0.3350 -0.3216
  199MOL0     C26767   9.381   7.657  11.473  0.0773 -0.5338 -0.9443
  199MOL0     C26768   9.403   7.786  11.394 -0.3031 -0.4476 -0.2574
  199MOL0     C26769   9.551   7.820  11.355 -0.2350 -0.5487  0.0745
  199MOL0     C26770   9.569   7.971  11.326 -0.1412 -1.0430  0.1256
  199MOL0     C26771   9.703   8.006  11.268 -0.8325  0.4478  0.5735
  199MOL0     C26772   9.765   8.139  11.337 -0.1466 -0.1303  0.7443
  199MOL0     C26773   9.902   8.184  11.284  0.0103 -0.1892  0.1352
  199MOL0    Cl26774   9.911   8.205  11.110  0.0795 -0.2157  0.2217
  199MOL0     C26775   9.085   7.304  11.620 -0.2003  1.2669  0.2195
  199MOL0     C26776   8.974   7.220  11.601 -0.2722  0.1482 -0.0114
  199MOL0     O26777   8.831   7.015  11.408 -0.0686 -0.3461  0.4881
  199MOL0     C26778   8.555   6.928  11.371 -0.1088 -0.0327 -0.2460
  199MOL0     C26779   8.425   6.895  11.362 -0.8865 -0.0605  1.2214
  199MOL0     N26780   7.601   7.044  11.384 -0.1106 -0.6894 -0.6788
  199MOL0     N26781   7.515   7.070  11.291 -0.3600 -0.3309  0.6195
  199MOL0     C26782   6.543   6.683  11.007  0.2196  0.9471 -0.1057
  199MOL0     C26783   6.409   6.681  11.029 -0.4713  1.1786  0.3351
  199MOL0     C26784   5.975   6.626  10.871  0.7567  0.7365  0.5255
  199MOL0     C26785   5.907   6.750  10.870  0.3305  0.5009  0.3387
  199MOL0     C26786   5.767   6.746  10.855 -0.6186 -1.1829  0.1740
  199MOL0     C26787   5.694   6.630  10.841 -0.5399  0.0598  0.1557
  199MOL0     O26788   5.559   6.634  10.813  0.2666 -0.0402  0.8825
  199MOL0     C26789   5.518   6.564  10.689 -0.7282 -0.6940 -0.3200
  199MOL0     C26790   5.438   6.444  10.716  0.3508 -0.6429  0.5561
  199MOL0     C26791   5.407   6.367  10.587  0.2412  0.4068 -0.0074
  199MOL0     C26792   5.521   6.280  10.542 -1.5037 -0.1429 -1.7022
  199MOL0     C26793   5.481   6.211  10.423  0.6130 -0.2976  0.0899
  199MOL0     C26794   5.440   6.135  10.334  0.5398  1.4240 -1.5508
  199MOL0     C26795   5.765   6.510  10.875 -0.3164 -0.1023 -0.0944
  199MOL0     C26796   5.902   6.508  10.888  0.6476 -0.1827  0.1835
  199MOL0     C26797   5.965   6.371  10.909 -0.5472  0.6452  0.1512
  199MOL0     H26798   6.321   6.860  10.767 -0.7288 -1.8770 -3.1548
  199MOL0     H26799   6.566   6.860  10.723  3.3779 -0.0766  1.6606
  199MOL0     H26800   6.744   6.726  10.687 -1.1118  2.3745  0.5544
  199MOL0     H26801   6.799   6.877  10.767 -1.9225  0.8269 -2.8537
  199MOL0     H26802   6.990   6.741  10.662  0.9258 -0.7401  0.4837
  199MOL0     H26803   6.961   6.618  10.781  0.1257  0.1008  4.1511
  199MOL0     H26804   7.098   6.719  10.926  0.0660 -0.6819 -0.4234
  199MOL0     H26805   6.965   6.824  10.953  0.9591  0.5026  0.4035
  199MOL0     H26806   7.166   6.857  10.724  2.7438 -1.6767  2.1460
  199MOL0     H26807   7.054   6.984  10.786  0.3957  0.2606  0.2248
  199MOL0     H26808   7.268   7.046  10.896 -0.7388  0.4417  3.2137
  199MOL0     H26809   7.186   6.941  11.007 -1.6083  3.1894  0.1452
  199MOL0     H26810   7.320   6.739  10.915  0.7324 -1.4228  0.3593
  199MOL0     H26811   7.415   6.861  10.821  1.0771  0.7938  2.1123
  199MOL0     H26812   7.534   6.804  11.020  0.0923  0.5064 -2.8040
  199MOL0     H26813   7.388   6.827  11.115 -0.0974 -0.1355  0.2835
  199MOL0     H26814   7.569   7.035  10.967  0.1567  3.5131  1.1642
  199MOL0     H26815   7.411   7.080  11.025 -0.6939 -0.5186  1.1636
  199MOL0     H26816   7.778   6.952  11.135  0.3496 -0.5231  1.0633
  199MOL0     H26817   7.802   6.853  11.470  0.1610 -2.7432 -3.1690
  199MOL0     H26818   7.889   6.855  11.322 -1.4098 -0.9470 -1.2965
  199MOL0     H26819   7.976   7.098  11.359 -0.2535 -0.3558 -1.9331
  199MOL0     H26820   7.881   7.121  11.492  3.1741  1.5097  0.5641
  199MOL0     H26821   7.975   6.911  11.604 -2.8722  1.4268  0.0784
  199MOL0     H26822   8.083   7.044  11.581  1.4710 -2.6393 -0.3737
  199MOL0     H26823   8.078   6.797  11.416  1.1202 -0.4154  0.1360
  199MOL0     H26824   8.210   6.836  11.522  1.1467  0.4074 -1.1605
  199MOL0     H26825   8.297   7.199  11.404  1.5217  0.7686  2.8133
  199MOL0     H26826   8.507   7.258  11.448  0.4713 -0.1297 -0.8484
  199MOL0     H26827   8.769   7.438  11.443  0.1093 -1.0587  1.1229
  199MOL0     H26828   8.956   7.588  11.468  0.9715  1.1815  2.4021
  199MOL0     H26829   9.200   7.601  11.380  0.7469 -3.2394 -0.3196
  199MOL0     H26830   9.180   7.700  11.531  0.5866  0.2782 -0.5029
  199MOL0     H26831   9.427   7.670  11.571  1.1938 -0.1794 -1.5024
  199MOL0     H26832   9.440   7.579  11.423  0.7903 -0.7732  0.2385
  199MOL0     H26833   9.344   7.790  11.302 -0.9294  1.6222  0.1800
  199MOL0     H26834   9.367   7.876  11.446 -1.0421  0.7336 -2.6425
  199MOL0     H26835   9.568   7.767  11.261  0.6386 -0.5523  0.2316
  199MOL0     H26836   9.619   7.785  11.433  0.6434 -1.2869 -1.0000
  199MOL0     H26837   9.560   8.011  11.428  1.3623 -0.7397  0.1678
  199MOL0     H26838   9.494   8.016  11.261 -1.6153 -0.9330  1.8219
  199MOL0     H26839   9.771   7.923  11.293  0.9471  2.5514  3.3810
  199MOL0     H26840   9.696   8.016  11.159  0.4922 -2.0436  0.1788
  199MOL0     H26841   9.755   8.104  11.440 -0.2479 -3.2944 -0.2498
  199MOL0     H26842   9.697   8.225  11.331  1.0342  0.7448 -1.4639
  199MOL0     H26843   9.929   8.283  11.324 -0.6456 -0.2974  0.8595
  199MOL0     H26844   9.977   8.114  11.322  1.5628  1.5964  0.5052
  199MOL0     H26845   9.173   7.262  11.668 -0.3665  1.0950  0.3764
  199MOL0     H26846   8.984   7.122  11.646  0.0565  0.5020  0.7023
  199MOL0     H26847   8.632   6.853  11.353  1.9150  1.1038  2.8723
  199MOL0     H26848   8.390   6.796  11.337  1.7756 -0.3307 -2.1459
  199MOL0     H26849   6.598   6.633  11.087 -1.7953 -0.3793  0.5147
  199MOL0     H26850   6.375   6.640  11.124 -1.6550  0.7308 -0.2615
  199MOL0     H26851   5.961   6.845  10.867 -1.7918  1.8155  1.2664
  199MOL0     H26852   5.713   6.838  10.836 -0.3725 -0.5109  2.5290
  199MOL0     H26853   5.598   6.536  10.620  0.5228 -1.7018  1.4678
  199MOL0     H26854   5.453   6.638  10.641  0.2320 -1.5896 -3.2425
  199MOL0     H26855   5.341   6.465  10.762 -0.9117 -2.4676 -1.1314
  199MOL0     H26856   5.492   6.384  10.789 -1.5627  0.1353  2.7294
  199MOL0     H26857   5.389   6.439  10.507  1.2525  1.6469  0.8482
  199MOL0     H26858   5.310   6.320  10.608  1.0073 -0.9729  0.5410
  199MOL0     H26859   5.602   6.346  10.512 -0.1283 -0.9343  0.0874
  199MOL0     H26860   5.565   6.207  10.611  0.6067  0.7648 -2.0117
  199MOL0     H26861   5.406   6.055  10.271  0.6251 -1.8905  2.2365
  199MOL0     H26862   5.715   6.415  10.889  0.1970 -0.3467  0.1276
  199MOL0     H26863   5.913   6.303  10.977  1.5201 -1.2755 -0.0879
  199MOL0     H26864   5.990   6.327  10.813 -0.1630  0.9770  0.0930
  199MOL0     H26865   6.061   6.377  10.962 -0.1871 -0.0419 -0.4128
  200MOL0     O26866   0.637   9.833   0.141  1.5433  0.4799 -0.0257
  200MOL0     C26867   0.659   9.920   0.224  0.9223  0.2579  0.0628
  200MOL0     O26868   0.556   9.977   0.300 -0.6146 -0.2247 -0.1285
  200MOL0     C26869   0.427   9.936   0.290  0.4395  0.0930  0.6180
  200MOL0     C26870   0.375   9.821   0.244 -0.0954 -0.2643  0.3428
  200MOL0     C26871   0.235   9.814   0.241 -0.4717 -0.0199 -1.1701
  200MOL0     C26872   0.148   9.911   0.281 -0.0305  0.1133  0.2087
  200MOL0     O26873   0.013   9.865   0.283 -0.3007  0.2472  0.2511
  200MOL0     C26874  -0.090   9.952   0.339 -0.1567  0.5934  0.5493
  200MOL0     C26875  -0.234   9.895   0.349 -0.6154  0.2617 -0.0468
  200MOL0     C26876  -0.329  10.002   0.406 -0.0996  0.1261 -0.0311
  200MOL0     C26877  -0.474   9.964   0.399  0.1074 -1.0082  0.6502
  200MOL0     C26878  -0.501   9.840   0.487 -0.1733  0.2331 -0.5693
  200MOL0     C26879  -0.641   9.848   0.544  0.1349  0.5238  0.3196
  200MOL0     C26880  -0.747   9.826   0.436 -0.4388 -0.0217 -0.5450
  200MOL0     C26881  -0.896   9.849   0.487 -0.4744  1.0458  0.0318
  200MOL0     N26882  -0.914   9.992   0.489 -0.4396 -0.3598 -0.2407
  200MOL0     C26883  -0.854  10.081   0.582  0.7208 -0.6713  0.2128
  200MOL0     C26884  -0.866  10.205   0.519  0.2209  0.8970 -0.2116
  200MOL0     C26885  -0.794  10.325   0.557  0.3603 -0.2618 -0.9715
  200MOL0     C26886  -0.650  10.316   0.508  0.1578  0.1918  0.3176
  200MOL0     C26887  -0.577  10.449   0.539  0.3279 -1.0299 -0.1757
  200MOL0     C26888  -0.424  10.443   0.513  0.5133 -0.0821  0.6888
  200MOL0     O26889  -0.366  10.343   0.595  0.0659  0.0182  0.2065
  200MOL0     C26890  -0.234  10.324   0.599 -0.9041 -0.8716 -0.0774
  200MOL0     C26891  -0.181  10.240   0.693 -0.5292  0.2237 -0.1630
  200MOL0     C26892  -0.042  10.208   0.715 -0.8302 -0.3679 -0.2521
  200MOL0     C26893   0.049  10.281   0.633  0.5175  0.3121 -0.4510
  200MOL0     C26894   0.202  10.265   0.657  0.7222  0.2488 -0.1220
  200MOL0     O26895   0.245  10.193   0.767 -0.5267  0.2101  0.0685
  200MOL0     C26896   0.378  10.190   0.800  0.3624  0.7847  0.4765
  200MOL0     C26897   0.411  10.256   0.910 -0.0557 -0.5212 -0.1815
  200MOL0     C26898   0.545  10.256   0.963 -0.0092  0.3525  0.4502
  200MOL0     C26899   0.642  10.179   0.892 -0.0025 -0.7848  0.8029
  200MOL0     O26900   0.765  10.163   0.956 -0.5007 -0.9761  0.8939
  200MOL0     C26901   0.863  10.087   0.886 -0.4470  0.2451  0.5876
  200MOL0     C26902   0.994  10.095   0.952  0.2586  1.2154 -0.0016
  200MOL0     C26903   1.047  10.240   0.942  0.3600 -0.0135  0.1094
  200MOL0     C26904   1.173  10.247   1.019 -0.4673 -0.3185 -0.3728
  200MOL0     C26905   1.275  10.355   0.980  0.0860  0.6521 -0.7093
  200MOL0     C26906   1.302  10.376   0.829 -0.2496  0.7835  0.5814
  200MOL0     C26907   1.422  10.474   0.821 -0.0105  0.8694  0.0706
  200MOL0     C26908   1.453  10.495   0.672  0.4702  0.5682  0.0461
  200MOL0    Cl26909   1.581  10.384   0.614 -0.3468 -0.9329 -0.4435
  200MOL0     C26910   0.602  10.109   0.775  0.1668 -0.5779 -0.0910
  200MOL0     C26911   0.469  10.114   0.732 -0.1365  0.0632 -0.1622
  200MOL0     O26912   0.276  10.307   0.573  0.4522  0.0642  0.1282
  200MOL0     C26913   0.004  10.380   0.547 -0.1998 -0.8427 -0.4302
  200MOL0     C26914  -0.135  10.401   0.531 -0.2604 -0.3202 -0.8673
  200MOL0     N26915  -0.931  10.188   0.398  0.4359 -0.0078 -0.0055
  200MOL0     N26916  -0.961  10.063   0.383 -0.4042 -0.1903  0.4820
  200MOL0     C26917   0.197  10.033   0.338  1.0818  0.5409 -0.1429
  200MOL0     C26918   0.338  10.049   0.336  0.2332  0.6531  0.4462
  200MOL0     C26919   0.809   9.958   0.251  0.3553 -0.6089 -0.5245
  200MOL0     C26920   0.912   9.885   0.184 -0.0924  0.6373  0.2763
  200MOL0     C26921   1.042   9.901   0.225  0.2644  0.1239  0.8523
  200MOL0     C26922   1.082   9.994   0.311  0.1145  0.9981 -1.1018
  200MOL0     O26923   1.221  10.007   0.339  0.0759 -0.3413  0.9297
  200MOL0     C26924   1.258  10.072   0.462 -0.2459 -0.1161 -0.3297
  200MOL0     C26925   1.413  10.050   0.488  0.4692  0.1843 -0.4423
  200MOL0     C26926   1.497  10.059   0.365  0.2115 -0.1024  0.2990
  200MOL0     C26927   1.650  10.055   0.399  0.4857  0.2403  0.5055
  200MOL0     C26928   1.707   9.944   0.476 -1.2175 -0.5675 -0.4724
  200MOL0     C26929   1.754   9.839   0.519  0.5384 -0.4379 -0.2909
  200MOL0     C26930   0.985  10.069   0.378  1.7299  0.0404 -0.0366
  200MOL0     C26931   0.845  10.055   0.352 -0.3796  0.1280  0.4267
  200MOL0     C26932   0.747  10.129   0.441  0.7701  0.0969 -0.1344
  200MOL0     H26933   0.429   9.729   0.222 -0.8269 -1.1541  2.1139
  200MOL0     H26934   0.192   9.722   0.203 -0.3763  0.5613 -2.7592
  200MOL0     H26935  -0.060   9.988   0.438  0.6987  0.0235  0.5148
  200MOL0     H26936  -0.107  10.034   0.269  0.9840 -0.2717 -0.7966
  200MOL0     H26937  -0.230   9.809   0.417  0.6590 -1.3634 -2.0783
  200MOL0     H26938  -0.271   9.870   0.249  0.3120 -1.2987 -0.0339
  200MOL0     H26939  -0.312  10.097   0.354 -1.9256  0.7432  0.4119
  200MOL0     H26940  -0.306  10.013   0.512 -1.8385  0.6745  0.3262
  200MOL0     H26941  -0.539  10.037   0.448 -0.8292 -1.1136 -0.3691
  200MOL0     H26942  -0.514   9.952   0.298 -3.7349 -1.9847  2.1174
  200MOL0     H26943  -0.471   9.751   0.432  1.2514 -0.1655  0.7894
  200MOL0     H26944  -0.437   9.842   0.576 -0.7070  0.1606 -0.1760
  200MOL0     H26945  -0.634   9.764   0.614  1.0679 -0.2414 -0.6672
  200MOL0     H26946  -0.656   9.939   0.604 -3.5440  0.0929  0.2984
  200MOL0     H26947  -0.737   9.721   0.403 -4.4829 -0.4252 -0.9745
  200MOL0     H26948  -0.718   9.885   0.348  1.6226 -0.9895 -0.5665
  200MOL0     H26949  -0.952   9.798   0.408  0.0176 -1.3936  1.1665
  200MOL0     H26950  -0.913   9.800   0.584  0.1958  0.8025  0.0352
  200MOL0     H26951  -0.815  10.059   0.681 -1.0402  2.2449  1.6907
  200MOL0     H26952  -0.848  10.407   0.508 -0.6748 -1.1065 -1.2790
  200MOL0     H26953  -0.792  10.348   0.663 -0.7669 -1.0877 -0.7488
  200MOL0     H26954  -0.598  10.230   0.551 -1.8825 -2.8635 -2.8229
  200MOL0     H26955  -0.645  10.290   0.402 -0.7414 -2.5673  0.8648
  200MOL0     H26956  -0.596  10.461   0.646  0.5667  0.6387 -0.2933
  200MOL0     H26957  -0.614  10.538   0.488  0.0347 -1.7750 -1.2994
  200MOL0     H26958  -0.376  10.538   0.539  1.3191  0.0920 -1.2445
  200MOL0     H26959  -0.411  10.427   0.406 -1.5307  3.1206 -0.1832
  200MOL0     H26960  -0.250  10.191   0.760 -0.3247 -0.4523 -0.4281
  200MOL0     H26961  -0.000  10.144   0.793  1.2060 -0.6873 -1.5148
  200MOL0     H26962   0.337  10.313   0.964 -0.5541  2.6367 -3.7149
  200MOL0     H26963   0.571  10.309   1.054 -0.6541 -2.4628  2.4132
  200MOL0     H26964   0.828   9.983   0.892  0.5151 -0.2084 -1.0550
  200MOL0     H26965   0.865  10.107   0.778 -2.1514  0.4390  0.5670
  200MOL0     H26966   0.992  10.070   1.058 -2.2212  3.0736  0.4736
  200MOL0     H26967   1.062  10.025   0.903 -2.0688  0.0308 -1.7395
  200MOL0     H26968   1.043  10.270   0.837 -2.4639  0.5799  0.3139
  200MOL0     H26969   0.981  10.312   0.990 -2.2618 -2.1332 -0.0946
  200MOL0     H26970   1.226  10.151   1.013  1.8905  0.9211 -0.1194
  200MOL0     H26971   1.149  10.265   1.124  3.9818 -0.4593  0.8325
  200MOL0     H26972   1.370  10.363   1.034  0.8323  2.3775 -2.1555
  200MOL0     H26973   1.234  10.450   1.015 -1.1456 -0.4223  0.8677
  200MOL0     H26974   1.309  10.277   0.785 -1.5431  0.7540  0.4024
  200MOL0     H26975   1.221  10.431   0.782 -0.1219 -0.1779 -0.8113
  200MOL0     H26976   1.508  10.434   0.877  0.2108 -0.2004 -0.9726
  200MOL0     H26977   1.396  10.572   0.861 -0.1242  0.6454  0.5448
  200MOL0     H26978   1.359  10.478   0.618 -0.1452 -0.9033  1.5060
  200MOL0     H26979   1.473  10.602   0.661  1.1725  0.4455  0.0912
  200MOL0     H26980   0.672  10.048   0.719  1.7790  1.5696 -0.5314
  200MOL0     H26981   0.442  10.076   0.634 -1.6969  0.6649  0.0046
  200MOL0     H26982   0.088  10.433   0.503  0.2591 -0.6426  0.6574
  200MOL0     H26983  -0.162  10.483   0.465 -0.8662  0.7832  0.6817
  200MOL0     H26984   0.133  10.104   0.389  0.4881 -0.4095  0.4660
  200MOL0     H26985   0.375  10.135   0.391  1.1885  0.2999  0.3872
  200MOL0     H26986   0.890   9.807   0.111  2.6479 -0.2619  0.3098
  200MOL0     H26987   1.121   9.852   0.169 -2.8647 -0.7751 -3.2178
  200MOL0     H26988   1.192  10.028   0.537 -0.6300  0.7962 -0.1104
  200MOL0     H26989   1.244  10.180   0.454 -1.1877  0.0571  2.5191
  200MOL0     H26990   1.417   9.945   0.519  0.1685 -1.6537 -5.6411
  200MOL0     H26991   1.446  10.113   0.571 -1.1855 -1.3378  1.4963
  200MOL0     H26992   1.490  10.159   0.320  1.0620  0.9843  2.4539
  200MOL0     H26993   1.471   9.984   0.289 -0.1853  0.1598  0.1759
  200MOL0     H26994   1.713  10.063   0.310  3.0259  0.1662  2.1987
  200MOL0     H26995   1.668  10.149   0.452 -1.7316 -0.0584  1.8963
  200MOL0     H26996   1.792   9.748   0.559  0.9143  0.5215  1.6872
  200MOL0     H26997   1.019  10.141   0.452  0.1069 -0.7041  1.5060
  200MOL0     H26998   0.692  10.061   0.507 -0.3440 -0.0291 -1.1596
  200MOL0     H26999   0.804  10.186   0.515  0.8765  0.1146 -0.2302
  200MOL0     H27000   0.674  10.189   0.386  1.8654  2.4500  0.8081
  201MOL0     O27001   5.920   0.427   3.515 -0.1826  0.6441  0.8293
  201MOL0     C27002   5.889   0.518   3.587 -0.5531 -0.4202 -0.2504
  201MOL0     O27003   5.976   0.586   3.672  0.2968  0.1543  0.9842
  201MOL0     C27004   6.111   0.562   3.636 -0.7991 -0.2541  0.2054
  201MOL0     C27005   6.170   0.648   3.547  0.2620 -0.1933  0.7184
  201MOL0     C27006   6.298   0.627   3.509  0.3399 -1.2866 -0.6825
  201MOL0     C27007   6.378   0.525   3.566 -0.0944 -0.1100  0.5204
  201MOL0     O27008   6.512   0.498   3.533 -0.4374  0.2601  0.2923
  201MOL0     C27009   6.573   0.590   3.451  0.9521  0.3455  0.3472
  201MOL0     C27010   6.703   0.520   3.410  0.4318 -0.3398 -0.0672
  201MOL0     C27011   6.803   0.532   3.523  0.3535 -0.6281  0.5895
  201MOL0     C27012   6.917   0.435   3.509 -1.0281 -0.3481  0.1805
  201MOL0     C27013   7.000   0.458   3.637  0.1885 -0.0459 -0.1386
  201MOL0     C27014   7.127   0.382   3.655  0.2951 -0.1396  0.5317
  201MOL0     C27015   7.241   0.398   3.538  0.3020  0.3701 -0.7293
  201MOL0     C27016   7.377   0.329   3.567  0.2546  0.1960 -0.4800
  201MOL0     N27017   7.431   0.375   3.695  0.7498  0.2433 -0.5338
  201MOL0     C27018   7.477   0.299   3.799  1.2133  0.4205 -0.6098
  201MOL0     C27019   7.503   0.387   3.899 -0.1623 -0.3085 -0.2222
  201MOL0     C27020   7.550   0.348   4.037 -0.2460  0.9176  0.3219
  201MOL0     C27021   7.703   0.342   4.042  0.2226  0.4093  0.0446
  201MOL0     C27022   7.736   0.312   4.200 -0.1999 -0.1407 -0.4387
  201MOL0     C27023   7.873   0.347   4.252  0.4282  1.0429  0.1141
  201MOL0     O27024   7.972   0.277   4.177 -0.6426 -0.2190  0.6166
  201MOL0     C27025   8.111   0.313   4.191  0.2099  0.8741 -0.7504
  201MOL0     C27026   8.164   0.357   4.313 -0.3969 -0.1705 -0.3696
  201MOL0     C27027   8.298   0.390   4.338 -0.1707  1.1390 -0.2755
  201MOL0     C27028   8.390   0.379   4.235 -0.1804  0.2901  0.1427
  201MOL0     C27029   8.533   0.408   4.253  0.0817  0.6057 -0.3712
  201MOL0     O27030   8.620   0.359   4.162 -0.4026  0.1261 -0.5707
  201MOL0     C27031   8.748   0.397   4.186 -0.5342 -0.4347  0.1648
  201MOL0     C27032   8.811   0.477   4.091  0.2193  0.9976 -0.7512
  201MOL0     C27033   8.947   0.500   4.111  0.2107 -0.0502  0.5861
  201MOL0     C27034   9.009   0.459   4.224 -0.1032 -0.0754 -0.3665
  201MOL0     O27035   9.129   0.499   4.265  0.0728  0.2110 -0.1790
  201MOL0     C27036   9.174   0.624   4.206 -0.7139  0.9862  0.4772
  201MOL0     C27037   9.299   0.668   4.290  0.5630 -0.2459  0.3895
  201MOL0     C27038   9.423   0.594   4.240  0.2979  0.2752  0.1245
  201MOL0     C27039   9.535   0.606   4.335 -0.9069  0.2957 -0.5189
  201MOL0     C27040   9.672   0.588   4.273 -0.2892 -0.4626  0.4834
  201MOL0     C27041   9.726   0.714   4.203  0.6484 -0.1065 -0.3949
  201MOL0     C27042   9.869   0.676   4.177  0.0769  0.1759  0.3853
  201MOL0     C27043   9.889   0.589   4.064 -0.1410 -0.8386 -0.3951
  201MOL0    Cl27044   9.786   0.644   3.929 -0.1286  0.5018  0.2384
  201MOL0     C27045   8.951   0.377   4.314 -0.2557 -0.6757 -0.4230
  201MOL0     C27046   8.824   0.337   4.294  0.0788 -0.1022  0.1481
  201MOL0     O27047   8.562   0.468   4.357 -0.2506 -0.7166  0.4162
  201MOL0     C27048   8.339   0.325   4.114  0.2278  0.4167  0.6413
  201MOL0     C27049   8.200   0.296   4.085  0.4585  0.1804  0.1223
  201MOL0     N27050   7.500   0.510   3.844 -0.0161 -0.2971  0.7518
  201MOL0     N27051   7.455   0.506   3.725  0.2701  0.1797  0.0281
  201MOL0     C27052   6.313   0.442   3.654 -0.0162 -0.1042  1.0970
  201MOL0     C27053   6.179   0.457   3.689 -0.4834 -0.4073 -0.4585
  201MOL0     C27054   5.753   0.550   3.603  0.3484  0.1273  0.8905
  201MOL0     C27055   5.666   0.453   3.661  0.5415  0.1324  0.4187
  201MOL0     C27056   5.537   0.488   3.696 -0.2542  0.2197  0.4611
  201MOL0     C27057   5.488   0.613   3.665  0.6049 -0.1157  0.4588
  201MOL0     O27058   5.363   0.652   3.697  0.9053 -0.1291 -0.4782
  201MOL0     C27059   5.250   0.566   3.670 -0.9043 -0.1546 -0.2125
  201MOL0     C27060   5.216   0.553   3.522 -0.3609 -0.8120  0.0767
  201MOL0     C27061   5.074   0.498   3.507 -0.5928 -0.4269  0.0485
  201MOL0     C27062   4.961   0.588   3.556 -0.2852  0.0297 -0.6818
  201MOL0     C27063   4.828   0.512   3.546  0.7439  0.1949 -0.3915
  201MOL0     C27064   4.728   0.449   3.527  0.0611  0.1749  0.4198
  201MOL0     C27065   5.571   0.710   3.615  0.1122 -1.0594 -0.2289
  201MOL0     C27066   5.706   0.685   3.583  0.7511 -0.2661 -0.1695
  201MOL0     C27067   5.784   0.805   3.533 -0.2142  0.2407 -0.0633
  201MOL0     H27068   6.112   0.729   3.504  1.9861  0.6042 -0.1887
  201MOL0     H27069   6.340   0.704   3.445 -3.8910 -0.0451 -2.2449
  201MOL0     H27070   6.513   0.598   3.360  1.2837 -0.4258  0.0515
  201MOL0     H27071   6.593   0.690   3.491  1.7253  1.8376 -3.3158
  201MOL0     H27072   6.746   0.576   3.327  2.1324 -0.8469  0.4232
  201MOL0     H27073   6.682   0.420   3.372 -0.6032 -1.1004  2.3225
  201MOL0     H27074   6.759   0.506   3.620 -1.0281 -0.9090 -0.0899
  201MOL0     H27075   6.841   0.635   3.521 -0.6248 -0.2573  0.6393
  201MOL0     H27076   6.877   0.334   3.501 -2.5868  0.2491  0.1272
  201MOL0     H27077   6.977   0.435   3.417 -0.5245  1.7296  0.4579
  201MOL0     H27078   7.025   0.564   3.643 -3.3501  0.8710  0.4914
  201MOL0     H27079   6.939   0.426   3.722  1.3490  0.2481  0.8451
  201MOL0     H27080   7.177   0.427   3.742 -0.1008 -2.1444  1.8644
  201MOL0     H27081   7.100   0.278   3.676 -2.3371  0.6233  1.2467
  201MOL0     H27082   7.256   0.507   3.538  2.2705  0.1977  1.8599
  201MOL0     H27083   7.207   0.365   3.439  1.6365 -1.3278 -0.6590
  201MOL0     H27084   7.381   0.219   3.571  3.5660  0.2571  0.4811
  201MOL0     H27085   7.445   0.352   3.485 -1.3268 -1.3289 -2.3375
  201MOL0     H27086   7.471   0.191   3.794  1.8338  0.4051 -1.2270
  201MOL0     H27087   7.518   0.410   4.121  1.1059  0.1055  1.4839
  201MOL0     H27088   7.514   0.249   4.066  2.7919  0.2842  2.5289
  201MOL0     H27089   7.734   0.256   3.982 -1.2616  0.0638 -0.2839
  201MOL0     H27090   7.747   0.436   4.009 -0.8417  0.6384 -0.7505
  201MOL0     H27091   7.725   0.204   4.193 -0.3125 -0.2672  1.2379
  201MOL0     H27092   7.655   0.357   4.259 -0.7342 -0.5394 -0.8631
  201MOL0     H27093   7.876   0.317   4.358 -0.6916  2.9059  0.7215
  201MOL0     H27094   7.899   0.454   4.252  1.8682  0.7261  0.8948
  201MOL0     H27095   8.096   0.370   4.397 -0.8591 -1.0903 -0.5956
  201MOL0     H27096   8.319   0.434   4.435 -1.0242 -0.9620  0.9381
  201MOL0     H27097   8.771   0.515   3.998  0.3426  0.6131 -0.9629
  201MOL0     H27098   8.986   0.567   4.036 -1.5478  1.0130  0.5812
  201MOL0     H27099   9.207   0.626   4.102  1.2688  3.0351  1.0528
  201MOL0     H27100   9.098   0.701   4.218 -1.5830  0.0432  1.2101
  201MOL0     H27101   9.304   0.777   4.286  1.4473 -0.2026  2.0574
  201MOL0     H27102   9.262   0.652   4.391  0.0231 -0.9046  0.0983
  201MOL0     H27103   9.401   0.490   4.214  0.9953  0.9777 -3.8472
  201MOL0     H27104   9.450   0.645   4.147  0.1107 -0.7559 -0.5101
  201MOL0     H27105   9.519   0.542   4.422  3.0386 -1.1456 -0.6887
  201MOL0     H27106   9.524   0.700   4.391  0.4773 -1.8246  3.7462
  201MOL0     H27107   9.673   0.499   4.209 -2.1232 -0.5431  0.5357
  201MOL0     H27108   9.735   0.565   4.359 -0.1410 -2.6155 -0.1227
  201MOL0     H27109   9.666   0.733   4.113  0.7303  0.2451 -0.3747
  201MOL0     H27110   9.729   0.802   4.267  2.1238 -0.6971  0.4036
  201MOL0     H27111   9.918   0.635   4.266 -0.7030 -2.9538 -0.5338
  201MOL0     H27112   9.914   0.773   4.154 -0.0953  0.0074 -0.7215
  201MOL0     H27113   9.997   0.597   4.044 -0.0875 -0.0157  0.1698
  201MOL0     H27114   9.860   0.487   4.090 -0.6270 -0.5121  0.3761
  201MOL0     H27115   9.018   0.340   4.391  2.6666 -0.3215 -2.6092
  201MOL0     H27116   8.773   0.277   4.368 -1.4103  0.1650 -0.6092
  201MOL0     H27117   8.415   0.314   4.037  2.2442 -0.8603  2.6627
  201MOL0     H27118   8.164   0.255   3.991 -2.1498  1.9329  0.2671
  201MOL0     H27119   6.360   0.366   3.716  0.1032  0.1865  1.3679
  201MOL0     H27120   6.148   0.396   3.773  0.7106 -0.6682 -0.1982
  201MOL0     H27121   5.704   0.351   3.666  2.6991  0.8779  0.4423
  201MOL0     H27122   5.476   0.411   3.742  0.9093 -0.9890  0.0710
  201MOL0     H27123   5.175   0.619   3.729  0.1441  2.7316 -1.2689
  201MOL0     H27124   5.265   0.468   3.717  1.9082  1.1838  1.9582
  201MOL0     H27125   5.289   0.481   3.485 -0.6452 -1.8030  1.3847
  201MOL0     H27126   5.231   0.654   3.482 -1.8377 -1.0416 -1.1538
  201MOL0     H27127   5.077   0.403   3.560  2.6081  0.1855  1.1925
  201MOL0     H27128   5.065   0.480   3.400  2.9354  2.4342 -0.9403
  201MOL0     H27129   4.972   0.610   3.663 -1.6994  1.0208 -0.7039
  201MOL0     H27130   4.949   0.686   3.509 -0.1276 -0.4495 -1.7458
  201MOL0     H27131   4.647   0.379   3.519  0.5740 -0.5217  1.1219
  201MOL0     H27132   5.535   0.810   3.595  0.2114 -1.4064 -2.3220
  201MOL0     H27133   5.763   0.886   3.604 -2.8715 -0.5528  0.1684
  201MOL0     H27134   5.891   0.793   3.514 -0.1564  1.6225 -0.7628
  201MOL0     H27135   5.742   0.836   3.437 -1.2267  2.9865  1.1693
  202MOL0     O27136   5.784  10.927   3.652  0.0818 -0.2439 -0.0951
  202MOL0     C27137   5.833  10.925   3.538  0.1105  0.6236 -1.8118
  202MOL0     O27138   5.957  10.974   3.515  0.7156  0.6136 -0.0922
  202MOL0     C27139   6.039  10.993   3.623 -0.0007 -0.1890  0.5842
  202MOL0     C27140   6.007  11.083   3.731  0.8925  0.5600  0.3395
  202MOL0     C27141   6.089  11.111   3.838 -0.2845 -0.2900 -0.1552
  202MOL0     C27142   6.221  11.061   3.842 -1.3199 -0.1862  0.9130
  202MOL0     O27143   6.308  11.106   3.938  0.3677 -0.2532 -0.0900
  202MOL0     C27144   6.436  11.042   3.961 -0.0573  0.1031  0.8710
  202MOL0     C27145   6.495  11.093   4.086  0.1646  0.4789 -0.4066
  202MOL0     C27146   6.648  11.056   4.100  0.4627 -0.3573 -0.2654
  202MOL0     C27147   6.692  11.121   4.221 -0.8827 -0.4313 -0.8142
  202MOL0     C27148   6.847  11.136   4.239 -1.0526  0.0422 -0.4417
  202MOL0     C27149   6.879  11.153   4.383 -0.8906 -0.0927 -0.6869
  202MOL0     C27150   7.026  11.179   4.400 -0.5391  0.4387 -0.8686
  202MOL0     C27151   7.110  11.053   4.367 -1.1843 -0.3824 -0.3506
  202MOL0     N27152   7.234  11.038   4.450  0.7647  0.9125  0.6820
  202MOL0     C27153   7.252  11.033   4.577 -0.2520 -0.3596 -1.0927
  202MOL0     C27154   7.387  11.029   4.594 -0.8080 -0.2778 -1.0482
  202MOL0     C27155   7.460  11.016   4.724  0.3073  0.1190  0.2809
  202MOL0     C27156   7.394  11.111   4.825 -0.2134 -0.0532 -0.2271
  202MOL0     C27157   7.480  11.098   4.954 -0.0314 -1.0341 -0.0956
  202MOL0     C27158   7.486  10.958   5.015 -0.7823  0.7103  0.3571
  202MOL0     O27159   7.539  10.954   5.155  0.3031 -0.4884  0.6170
  202MOL0     C27160   7.669  10.970   5.193 -0.3595  0.0085  0.0239
  202MOL0     C27161   7.777  10.966   5.105 -0.9154  0.6812  0.7007
  202MOL0     C27162   7.907  10.978   5.165 -0.4025 -0.2760  0.0879
  202MOL0     C27163   7.936  10.980   5.299  0.3679  0.4880  0.6637
  202MOL0     C27164   8.075  10.982   5.357 -0.1347 -0.1967  0.3275
  202MOL0     O27165   8.176  11.018   5.283 -0.3695  0.7702  0.2998
  202MOL0     C27166   8.312  10.992   5.315 -0.6912  0.2720  0.6351
  202MOL0     C27167   8.370  10.888   5.397 -0.5786 -1.0185  0.7388
  202MOL0     C27168   8.504  10.893   5.438  1.0757 -0.4133  0.5129
  202MOL0     C27169   8.583  11.000   5.398 -0.6073  0.3775  0.9963
  202MOL0     O27170   8.713  11.028   5.446  0.6249  0.0606 -0.8231
  202MOL0     C27171   8.761  10.937   5.540 -0.1191  0.7560 -0.2800
  202MOL0     C27172   8.903  10.985   5.576  0.3077  0.2615  0.6649
  202MOL0     C27173   8.988  10.979   5.452  0.1961 -1.0544  0.3376
  202MOL0     C27174   9.132  11.032   5.474 -0.1558  0.4972  0.0582
  202MOL0     C27175   9.217  11.016   5.349  0.1697 -0.6526 -0.4617
  202MOL0     C27176   9.368  11.010   5.381  1.0212  1.0612 -1.1728
  202MOL0     C27177   9.450  11.018   5.246  0.1320 -0.0139 -0.4093
  202MOL0     C27178   9.600  11.006   5.286 -0.0106 -0.5087  0.1066
  202MOL0    Cl27179   9.635  11.118   5.426  0.0537 -0.0731 -0.1386
  202MOL0     C27180   8.526  11.095   5.314 -0.1516 -0.3866 -0.1010
  202MOL0     C27181   8.396  11.091   5.265 -0.5431  0.1256 -0.6654
  202MOL0     O27182   8.084  10.962   5.481  0.6448 -0.3399  0.5336
  202MOL0     C27183   7.819  10.982   5.386 -0.2777 -0.3454  0.3113
  202MOL0     C27184   7.695  10.994   5.329 -0.0107  0.3862 -1.1281
  202MOL0     N27185   7.447  11.039   4.472  0.5327 -0.2234 -0.6592
  202MOL0     N27186   7.350  11.025   4.386  0.3536  0.4803 -0.2523
  202MOL0     C27187   6.263  10.976   3.736 -0.0625  0.3884  0.0844
  202MOL0     C27188   6.173  10.946   3.632 -0.4922  0.5018 -1.1297
  202MOL0     C27189   5.751  10.866   3.433  0.4286 -0.0580  0.8686
  202MOL0     C27190   5.809  10.819   3.309  0.5448  0.1004 -0.4579
  202MOL0     C27191   5.739  10.752   3.216 -0.4892 -0.7189  0.2093
  202MOL0     C27192   5.603  10.723   3.228 -0.3952 -0.0355 -0.0871
  202MOL0     O27193   5.540  10.655   3.126 -0.2322  0.1387  0.2478
  202MOL0     C27194   5.396  10.665   3.103 -0.0722  1.1316  0.3313
  202MOL0     C27195   5.308  10.562   3.182  0.3000  0.3327 -0.9272
  202MOL0     C27196   5.163  10.616   3.195  0.4573 -0.4390  0.2821
  202MOL0     C27197   5.152  10.706   3.315  0.4131 -0.3880 -0.0073
  202MOL0     C27198   5.180  10.636   3.434  0.6423  0.3076 -0.4519
  202MOL0     C27199   5.209  10.572   3.529  1.0607  0.1237  1.0719
  202MOL0     C27200   5.543  10.768   3.349  0.5157 -0.1598 -0.2467
  202MOL0     C27201   5.607  10.843   3.448  0.6672  0.2697  0.7682
  202MOL0     C27202   5.508  10.887   3.560 -0.7526  0.1522  0.0961
  202MOL0     H27203   5.909  11.129   3.724  1.8818  2.5399 -2.0542
  202MOL0     H27204   6.059  11.164   3.928  0.3964  1.0608 -0.6865
  202MOL0     H27205   6.431  10.932   3.964  0.1611  0.1001  1.2303
  202MOL0     H27206   6.494  11.087   3.880 -1.7524  1.6489  0.4494
  202MOL0     H27207   6.449  11.053   4.177 -0.9305  0.3616 -1.0011
  202MOL0     H27208   6.474  11.200   4.095 -0.4051  0.5492 -2.1550
  202MOL0     H27209   6.707  11.093   4.016 -0.0857 -3.0050 -1.9375
  202MOL0     H27210   6.668  10.948   4.095 -3.1435 -1.1084 -1.5246
  202MOL0     H27211   6.651  11.222   4.233  0.2612 -0.2272  2.5058
  202MOL0     H27212   6.654  11.059   4.303 -0.6806 -0.8258 -1.0153
  202MOL0     H27213   6.895  11.048   4.196 -2.9897  0.3852 -3.6749
  202MOL0     H27214   6.883  11.221   4.179 -0.4410 -0.8206 -1.3332
  202MOL0     H27215   6.828  11.239   4.427 -0.5666  0.7998 -1.9968
  202MOL0     H27216   6.854  11.071   4.451 -2.0660  0.8562  0.0640
  202MOL0     H27217   7.047  11.201   4.505 -0.1905 -1.8506 -0.4010
  202MOL0     H27218   7.044  11.271   4.344  0.8946  1.0249  0.4566
  202MOL0     H27219   7.040  10.969   4.375  0.8672 -2.1147  0.2675
  202MOL0     H27220   7.144  11.051   4.263  2.1853 -1.6281  0.6492
  202MOL0     H27221   7.171  11.026   4.649  1.6166 -0.9344  1.0789
  202MOL0     H27222   7.449  10.913   4.760 -1.9143  0.0491 -0.4540
  202MOL0     H27223   7.564  11.050   4.721  0.6366 -0.8951 -0.9440
  202MOL0     H27224   7.393  11.212   4.782  0.0744 -0.5121 -1.3626
  202MOL0     H27225   7.296  11.075   4.859  0.2310  0.3800  1.5637
  202MOL0     H27226   7.425  11.150   5.033  0.8563  2.2003 -1.4093
  202MOL0     H27227   7.581  11.138   4.940  0.1380 -0.2955  2.6383
  202MOL0     H27228   7.552  10.893   4.957 -1.1388 -0.4453  1.2033
  202MOL0     H27229   7.388  10.908   5.018 -1.2522  1.5795 -0.0625
  202MOL0     H27230   7.766  10.949   4.998  0.3303  0.3742  0.6065
  202MOL0     H27231   7.991  10.957   5.100  0.1327 -0.1338  0.7136
  202MOL0     H27232   8.312  10.807   5.441 -1.0497 -1.2059 -0.1944
  202MOL0     H27233   8.521  10.811   5.508 -3.6697 -0.4895  1.9296
  202MOL0     H27234   8.695  10.932   5.626  0.9514 -0.1977  0.5282
  202MOL0     H27235   8.765  10.840   5.489  2.6093  1.0694 -0.8347
  202MOL0     H27236   8.910  11.080   5.629  0.5427 -0.0221  1.1414
  202MOL0     H27237   8.946  10.913   5.645 -0.1809 -0.0181  0.6812
  202MOL0     H27238   9.003  10.877   5.415  2.0594 -0.8202  0.3382
  202MOL0     H27239   8.955  11.047   5.373  2.1047  1.2838  1.4069
  202MOL0     H27240   9.177  10.972   5.554  1.6313  2.9179  0.9813
  202MOL0     H27241   9.116  11.134   5.508  0.9222  0.4081  0.8772
  202MOL0     H27242   9.201  11.109   5.294  0.7783 -1.2692 -1.7273
  202MOL0     H27243   9.176  10.927   5.299 -1.2141 -0.9050  1.0419
  202MOL0     H27244   9.392  11.089   5.453  0.6807  0.0184  0.1281
  202MOL0     H27245   9.402  10.914   5.420 -1.1787 -0.3579 -2.5534
  202MOL0     H27246   9.432  11.118   5.205 -0.9503  0.5861  1.4057
  202MOL0     H27247   9.426  10.933   5.182  1.4440 -0.3252 -0.5253
  202MOL0     H27248   9.620  10.904   5.318  0.9147 -0.8951 -1.6407
  202MOL0     H27249   9.666  11.033   5.203  0.3413  0.5789  0.7174
  202MOL0     H27250   8.590  11.179   5.289  0.4153 -1.3003 -1.8409
  202MOL0     H27251   8.351  11.170   5.205 -0.8172  0.6296  0.1962
  202MOL0     H27252   7.823  10.978   5.495  1.1352 -2.1146  0.2475
  202MOL0     H27253   7.612  11.000   5.399  1.1322 -0.4290  0.3495
  202MOL0     H27254   6.368  10.948   3.731 -0.3131 -0.6861  0.6480
  202MOL0     H27255   6.201  10.884   3.547  0.6113  0.9827 -1.1320
  202MOL0     H27256   5.910  10.854   3.287 -0.0091  1.9082 -0.2255
  202MOL0     H27257   5.794  10.726   3.126  1.1813 -0.8010  1.2138
  202MOL0     H27258   5.380  10.638   2.998  1.8470 -2.0053  0.7294
  202MOL0     H27259   5.374  10.769   3.130  0.2946  0.4431  3.7176
  202MOL0     H27260   5.352  10.536   3.279 -0.5857  2.0333 -0.0307
  202MOL0     H27261   5.308  10.469   3.125  1.9158  0.0150 -0.4757
  202MOL0     H27262   5.084  10.543   3.216 -0.1488 -0.0978 -0.7555
  202MOL0     H27263   5.145  10.678   3.106  1.0012  1.2832  1.3206
  202MOL0     H27264   5.221  10.790   3.303  0.2384  0.0621  1.8205
  202MOL0     H27265   5.056  10.758   3.311 -0.7261 -2.4041 -0.3054
  202MOL0     H27266   5.227  10.525   3.623 -0.6077 -0.1898  1.2602
  202MOL0     H27267   5.442  10.730   3.355  0.6096 -1.0721 -3.1515
  202MOL0     H27268   5.529  10.991   3.586  1.0061 -0.0778 -0.2692
  202MOL0     H27269   5.401  10.889   3.539 -0.1372  3.2327 -3.9021
  202MOL0     H27270   5.533  10.826   3.647 -0.3417 -1.2802 -0.9877
  203MOL0     O27271   2.245   4.065   5.753 -0.5419  0.2697 -0.1274
  203MOL0     C27272   2.164   4.109   5.672  0.1455  0.2366  0.4465
  203MOL0     O27273   2.170   4.094   5.535  0.2458  0.2536 -0.5602
  203MOL0     C27274   2.274   4.019   5.481  0.3164  0.1652 -0.1218
  203MOL0     C27275   2.234   3.885   5.446 -0.1408 -0.7572  0.4894
  203MOL0     C27276   2.343   3.802   5.409  0.0368 -0.4015 -0.2442
  203MOL0     C27277   2.473   3.848   5.385 -0.1012 -0.4030  0.0267
  203MOL0     O27278   2.580   3.780   5.331  0.2141 -0.1795 -0.2264
  203MOL0     C27279   2.574   3.638   5.349 -1.1355  0.3338 -0.6397
  203MOL0     C27280   2.708   3.564   5.299  0.3881 -0.2007  0.8410
  203MOL0     C27281   2.763   3.618   5.168  0.7018  0.2614  0.2794
  203MOL0     C27282   2.884   3.531   5.115  0.3013  0.4407  0.4016
  203MOL0     C27283   2.999   3.540   5.209  0.0356  0.4580  0.1364
  203MOL0     C27284   3.118   3.480   5.128 -0.5185  0.0324 -0.9183
  203MOL0     C27285   3.248   3.461   5.208 -0.4147 -0.1491  0.5605
  203MOL0     C27286   3.245   3.348   5.306 -0.2327 -0.7545  0.8802
  203MOL0     N27287   3.361   3.330   5.381 -0.0725  0.6413 -0.3981
  203MOL0     C27288   3.488   3.282   5.350 -0.6704 -0.2033 -0.2513
  203MOL0     C27289   3.554   3.291   5.469  0.0874 -0.1682 -0.3569
  203MOL0     C27290   3.685   3.216   5.498 -0.3238  0.2043 -0.7945
  203MOL0     C27291   3.686   3.064   5.470  0.2910 -0.1016  0.4080
  203MOL0     C27292   3.811   2.980   5.502  0.2516  0.1055 -0.1680
  203MOL0     C27293   3.938   3.006   5.412 -0.3080 -0.3257 -0.6750
  203MOL0     O27294   4.052   2.922   5.452 -0.1915  0.2373 -0.1219
  203MOL0     C27295   4.184   2.930   5.402 -0.7999 -0.0785 -0.6577
  203MOL0     C27296   4.225   3.039   5.321 -0.0998 -0.3779  0.4785
  203MOL0     C27297   4.358   3.049   5.268 -0.0373  0.9240 -0.1106
  203MOL0     C27298   4.448   2.947   5.298  0.1712  0.0719 -0.7192
  203MOL0     C27299   4.585   2.948   5.238 -0.1620  0.0534  0.6057
  203MOL0     O27300   4.656   2.832   5.246 -0.2536  0.0772 -0.2666
  203MOL0     C27301   4.781   2.827   5.193 -0.5674  0.0748 -0.0524
  203MOL0     C27302   4.807   2.841   5.055 -0.2433 -0.0478  0.6453
  203MOL0     C27303   4.938   2.841   4.997  0.7293 -0.5030  0.2714
  203MOL0     C27304   5.046   2.814   5.081 -0.2108 -0.2351  0.8216
  203MOL0     O27305   5.168   2.817   5.034  0.0141 -0.6121 -0.0981
  203MOL0     C27306   5.191   2.732   4.922 -0.5655 -0.8138  0.4934
  203MOL0     C27307   5.343   2.748   4.879  0.5149 -0.5800  0.2206
  203MOL0     C27308   5.345   2.855   4.772 -0.6622  0.3890 -0.0091
  203MOL0     C27309   5.482   2.922   4.761 -0.6197  0.4311  0.5949
  203MOL0     C27310   5.496   3.036   4.657  0.0190  0.4736 -0.5327
  203MOL0     C27311   5.632   3.099   4.670  0.5860 -0.0541  0.6326
  203MOL0     C27312   5.660   3.234   4.606  0.3725  0.1766  1.0850
  203MOL0     C27313   5.615   3.356   4.695 -0.4674  0.7335  0.3129
  203MOL0    Cl27314   5.444   3.332   4.749 -0.3147  0.0165 -0.2251
  203MOL0     C27315   5.027   2.800   5.219 -0.1257 -0.3521 -0.1371
  203MOL0     C27316   4.896   2.815   5.277 -0.2582  0.3425  0.0850
  203MOL0     O27317   4.630   3.054   5.204  0.5386  0.4022 -1.0618
  203MOL0     C27318   4.407   2.845   5.384 -0.4964 -0.3532  0.0981
  203MOL0     C27319   4.283   2.837   5.437  0.5392 -0.3157 -0.0455
  203MOL0     N27320   3.468   3.331   5.570  0.1411  0.0161 -0.0415
  203MOL0     N27321   3.357   3.370   5.516  0.8707  0.0563  0.7625
  203MOL0     C27322   2.505   3.981   5.403  0.2582 -0.4889  0.0480
  203MOL0     C27323   2.406   4.073   5.452  0.4051 -0.5314 -0.0856
  203MOL0     C27324   2.053   4.194   5.715 -0.1683  0.7613 -0.2571
  203MOL0     C27325   1.990   4.275   5.618  0.7878 -0.5727 -0.2222
  203MOL0     C27326   1.863   4.341   5.646 -0.6634 -0.6136 -0.3061
  203MOL0     C27327   1.809   4.335   5.773  0.1318 -0.0528 -0.4512
  203MOL0     O27328   1.688   4.391   5.810  0.1441  0.1286  0.1911
  203MOL0     C27329   1.573   4.355   5.734 -0.2412 -0.2241  0.7422
  203MOL0     C27330   1.535   4.205   5.731 -0.4705  0.0177 -0.1481
  203MOL0     C27331   1.415   4.169   5.646 -0.6369 -0.7505 -0.1588
  203MOL0     C27332   1.420   4.021   5.607  0.4268  0.2245  0.1505
  203MOL0     C27333   1.314   3.993   5.509  0.5667  0.2326 -0.0830
  203MOL0     C27334   1.223   3.948   5.442 -0.1721 -0.3648  0.1653
  203MOL0     C27335   1.877   4.263   5.870  0.4189  0.4495  0.6077
  203MOL0     C27336   1.995   4.189   5.841  0.0578 -0.0567  0.6426
  203MOL0     C27337   2.048   4.118   5.961 -0.3789  0.1231 -0.2824
  203MOL0     H27338   2.131   3.855   5.460 -0.2713 -1.1764 -1.1252
  203MOL0     H27339   2.329   3.695   5.400 -0.3656 -0.4304  0.6977
  203MOL0     H27340   2.560   3.605   5.452 -0.6383 -0.0260 -0.6837
  203MOL0     H27341   2.492   3.598   5.288 -0.8340 -0.3961 -0.5726
  203MOL0     H27342   2.688   3.457   5.294 -2.7933  0.2842  1.1295
  203MOL0     H27343   2.782   3.579   5.378  0.9234 -3.7230  1.1363
  203MOL0     H27344   2.784   3.725   5.169  0.4156  0.3191  1.5175
  203MOL0     H27345   2.678   3.594   5.102 -1.5440 -2.0864  3.6440
  203MOL0     H27346   2.852   3.428   5.097  0.4461  0.4852 -0.1248
  203MOL0     H27347   2.903   3.568   5.014  0.9193 -2.1964 -0.5194
  203MOL0     H27348   3.023   3.644   5.231 -1.8967  1.6475 -2.6989
  203MOL0     H27349   2.984   3.481   5.300 -1.6886  2.7980  1.4586
  203MOL0     H27350   3.094   3.381   5.087  0.0142  0.3893 -2.1329
  203MOL0     H27351   3.136   3.545   5.043 -0.7641 -0.4791 -1.3676
  203MOL0     H27352   3.284   3.551   5.259 -3.2301  0.4213  1.6730
  203MOL0     H27353   3.336   3.439   5.146 -1.7811 -1.6685 -0.9244
  203MOL0     H27354   3.162   3.375   5.371 -1.1636 -2.9012  0.6696
  203MOL0     H27355   3.213   3.252   5.264 -0.9053 -0.6703  1.1924
  203MOL0     H27356   3.524   3.254   5.251  1.5366 -2.2248  1.0080
  203MOL0     H27357   3.766   3.263   5.442  2.1124 -1.9347  0.6959
  203MOL0     H27358   3.701   3.211   5.606 -1.1711 -0.4039 -0.6822
  203MOL0     H27359   3.608   3.015   5.529  0.5107 -1.3460 -0.3038
  203MOL0     H27360   3.654   3.044   5.367 -4.8575 -2.9684  2.1740
  203MOL0     H27361   3.790   2.872   5.506  0.1304  0.1393  0.1903
  203MOL0     H27362   3.842   2.998   5.606  1.0899 -1.8924 -0.0073
  203MOL0     H27363   3.971   3.108   5.429 -1.8129  0.4222 -1.9453
  203MOL0     H27364   3.917   2.999   5.304  1.4265  3.7508 -1.4456
  203MOL0     H27365   4.156   3.120   5.300  1.4355  1.1159  0.9307
  203MOL0     H27366   4.379   3.135   5.205  0.4701  1.1707  0.3911
  203MOL0     H27367   4.720   2.855   4.992 -0.4034  0.7642  1.0366
  203MOL0     H27368   4.934   2.865   4.891  4.7003 -0.0639  0.0539
  203MOL0     H27369   5.160   2.628   4.931  0.6725 -1.1411  1.2801
  203MOL0     H27370   5.137   2.771   4.836 -1.8521 -0.5260  1.3993
  203MOL0     H27371   5.417   2.772   4.956  0.6216 -1.7069  0.4914
  203MOL0     H27372   5.383   2.655   4.836 -1.0822 -1.9832  1.6044
  203MOL0     H27373   5.321   2.805   4.678  2.0045  0.5169 -0.8241
  203MOL0     H27374   5.270   2.934   4.788  0.6035  2.1025 -1.9775
  203MOL0     H27375   5.558   2.849   4.733  0.3815  1.6753 -0.0167
  203MOL0     H27376   5.512   2.964   4.857  0.2502  1.1232  0.0329
  203MOL0     H27377   5.414   3.108   4.668 -1.5010 -1.3877  1.1698
  203MOL0     H27378   5.483   2.989   4.559 -1.4586 -0.8981  0.2637
  203MOL0     H27379   5.654   3.118   4.775  0.8462 -0.0449  0.5779
  203MOL0     H27380   5.701   3.025   4.626 -0.9099 -1.3712  0.4072
  203MOL0     H27381   5.596   3.231   4.517 -0.2886  1.9151  1.4791
  203MOL0     H27382   5.769   3.231   4.591  0.4641 -0.5037  1.8159
  203MOL0     H27383   5.671   3.361   4.789  1.6498 -0.4279 -0.8247
  203MOL0     H27384   5.627   3.453   4.644  0.3101  1.0334  1.0402
  203MOL0     H27385   5.109   2.778   5.286  0.9400  1.9551 -0.5617
  203MOL0     H27386   4.882   2.797   5.383  2.3696 -0.2673  0.4012
  203MOL0     H27387   4.473   2.762   5.405 -1.9832 -1.7039 -0.3657
  203MOL0     H27388   4.260   2.766   5.515 -0.7036  1.6517  1.4457
  203MOL0     H27389   2.603   4.022   5.379 -0.0146  0.7419  0.8835
  203MOL0     H27390   2.437   4.174   5.477 -2.2135 -0.0167  1.4517
  203MOL0     H27391   2.038   4.289   5.522  0.5642 -0.9356 -0.3866
  203MOL0     H27392   1.815   4.397   5.566 -0.6158  2.3008  1.5353
  203MOL0     H27393   1.588   4.389   5.631  0.5696  0.6056  1.1182
  203MOL0     H27394   1.499   4.417   5.784 -0.4673  1.9665 -2.0221
  203MOL0     H27395   1.531   4.169   5.835 -1.8716 -0.8313 -0.4724
  203MOL0     H27396   1.618   4.159   5.677  0.2797  2.2069 -0.9834
  203MOL0     H27397   1.417   4.230   5.556  2.5028  1.1447  1.0541
  203MOL0     H27398   1.320   4.185   5.698 -0.5271  0.1419 -0.2232
  203MOL0     H27399   1.507   3.980   5.554 -1.0911 -1.2715 -1.3078
  203MOL0     H27400   1.397   3.968   5.700 -2.0789  2.6009  0.9955
  203MOL0     H27401   1.141   3.922   5.377 -1.4110 -1.4103  2.0319
  203MOL0     H27402   1.819   4.252   5.961 -2.9496  3.4298 -0.9127
  203MOL0     H27403   2.001   4.158   6.051  0.5257 -0.1019  0.3084
  203MOL0     H27404   2.025   4.011   5.954  2.3178 -0.4293 -2.3399
  203MOL0     H27405   2.156   4.123   5.980 -0.2960 -3.9451  1.4838
  204MOL0     O27406   8.369   1.008   7.404  0.1375 -0.0420 -0.5085
  204MOL0     C27407   8.341   1.033   7.286  0.0880 -0.0906 -0.8946
  204MOL0     O27408   8.427   1.070   7.193  0.2035 -0.0135 -0.1736
  204MOL0     C27409   8.562   1.083   7.220 -0.4058  0.4759 -0.3062
  204MOL0     C27410   8.602   1.170   7.318 -0.2929  0.9547  0.1959
  204MOL0     C27411   8.736   1.211   7.325  1.2422  0.3010  0.7917
  204MOL0     C27412   8.825   1.161   7.230 -0.1837 -0.4510  0.0507
  204MOL0     O27413   8.950   1.212   7.233  0.0569  0.0412  0.2010
  204MOL0     C27414   8.982   1.303   7.124  1.0656  0.5225  0.1226
  204MOL0     C27415   8.987   1.454   7.153  0.9997  0.3860  0.4259
  204MOL0     C27416   9.087   1.489   7.260 -0.3816  0.6092  0.0664
  204MOL0     C27417   9.057   1.621   7.338  0.3795  0.6043  0.9303
  204MOL0     C27418   9.054   1.749   7.248 -0.7078  0.0005 -0.3509
  204MOL0     C27419   9.183   1.812   7.189  0.9740 -0.3890 -0.0516
  204MOL0     C27420   9.262   1.871   7.306 -0.1061  1.1029 -0.4889
  204MOL0     C27421   9.392   1.945   7.264  0.5711 -0.5641 -0.4902
  204MOL0     N27422   9.490   1.834   7.222  0.8447 -0.3084  0.0894
  204MOL0     C27423   9.584   1.774   7.304  0.1662  0.3739  0.1288
  204MOL0     C27424   9.630   1.676   7.228 -0.5604 -0.2949  0.4538
  204MOL0     C27425   9.748   1.587   7.270 -0.6375 -0.1972  0.5100
  204MOL0     C27426   9.877   1.664   7.283  0.7227  1.1366  0.1088
  204MOL0     C27427   9.921   1.719   7.144  1.2791  0.6047 -0.8899
  204MOL0     C27428  10.042   1.817   7.160  0.2455  0.5785  0.1004
  204MOL0     O27429  10.159   1.744   7.217  0.1903  0.0079 -0.4586
  204MOL0     C27430  10.276   1.815   7.231  0.3635  0.3548  0.1180
  204MOL0     C27431  10.381   1.751   7.308  0.6259  0.2008 -0.7478
  204MOL0     C27432  10.504   1.818   7.331 -0.1411  0.3476 -0.0786
  204MOL0     C27433  10.534   1.943   7.283 -0.7033  0.0590 -0.2680
  204MOL0     C27434  10.663   2.009   7.307  0.9844 -0.5530  1.2685
  204MOL0     O27435  10.753   1.949   7.386 -0.4087 -0.3878 -0.0174
  204MOL0     C27436  10.868   2.017   7.417 -0.2165 -0.2413 -0.1292
  204MOL0     C27437  10.853   2.147   7.478 -0.4138 -0.2975 -0.3471
  204MOL0     C27438  10.974   2.222   7.512  0.6336  0.4516 -0.1517
  204MOL0     C27439  11.104   2.169   7.482  0.2435  0.1436 -0.2765
  204MOL0     O27440  11.218   2.243   7.494 -0.8385 -0.3075 -0.4865
  204MOL0     C27441  11.225   2.310   7.617 -0.0192  0.7135 -0.3904
  204MOL0     C27442  11.369   2.366   7.635  0.0550 -0.6481 -0.2717
  204MOL0     C27443  11.474   2.267   7.683  0.1227  0.2203  0.9684
  204MOL0     C27444  11.613   2.327   7.701  0.0784  0.3573  0.4234
  204MOL0     C27445  11.702   2.218   7.772  0.2374  0.3856 -0.6376
  204MOL0     C27446  11.854   2.246   7.792  0.6390  0.6140 -0.4898
  204MOL0     C27447  11.929   2.247   7.655  0.1228  0.8808 -0.0345
  204MOL0     C27448  12.051   2.159   7.651 -0.1277  0.0860  0.8564
  204MOL0    Cl27449  12.169   2.215   7.770 -0.4755 -0.3973 -0.4556
  204MOL0     C27450  11.106   2.042   7.423  0.0089 -0.1775  0.4867
  204MOL0     C27451  10.997   1.969   7.389  0.2518 -0.5553 -0.0848
  204MOL0     O27452  10.682   2.127   7.252  0.5551  0.0802  0.4097
  204MOL0     C27453  10.428   2.009   7.213 -0.0938  0.2656  0.4094
  204MOL0     C27454  10.301   1.946   7.182 -0.5130  0.2284  0.4198
  204MOL0     N27455   9.574   1.687   7.102 -0.4089  0.3133  0.1255
  204MOL0     N27456   9.489   1.783   7.094  0.7010 -0.6822 -0.2307
  204MOL0     C27457   8.783   1.081   7.126 -0.2379  0.1656 -0.2276
  204MOL0     C27458   8.652   1.040   7.122 -0.3038  0.5839  0.4025
  204MOL0     C27459   8.212   0.985   7.245 -0.2350 -0.4771  0.4963
  204MOL0     C27460   8.211   0.918   7.116  0.3628 -0.5693 -0.1569
  204MOL0     C27461   8.096   0.862   7.065 -0.8217  0.2463  0.1175
  204MOL0     C27462   7.984   0.858   7.148 -0.5575 -0.7928  0.4095
  204MOL0     O27463   7.877   0.801   7.083  0.2116 -0.4648 -0.0293
  204MOL0     C27464   7.738   0.832   7.121  0.3608 -0.6442  0.0690
  204MOL0     C27465   7.639   0.770   7.022 -0.6208 -0.0434  0.3724
  204MOL0     C27466   7.494   0.767   7.076 -0.4198 -0.8310 -0.0012
  204MOL0     C27467   7.440   0.889   7.147  0.0290 -0.1299  0.2570
  204MOL0     C27468   7.304   0.849   7.178  0.0176 -0.0178 -0.1493
  204MOL0     C27469   7.193   0.807   7.195  0.3772  0.6369 -0.1584
  204MOL0     C27470   7.989   0.914   7.273 -0.0341  0.1024 -0.0521
  204MOL0     C27471   8.099   0.978   7.326 -0.0157 -1.3054 -0.1372
  204MOL0     C27472   8.092   1.029   7.468  0.8373 -0.2491 -0.3110
  204MOL0     H27473   8.524   1.213   7.379 -0.5339 -1.0699  1.3970
  204MOL0     H27474   8.758   1.280   7.406 -2.9352  2.5934  0.2598
  204MOL0     H27475   9.087   1.281   7.101  0.8028 -1.8383  0.9021
  204MOL0     H27476   8.923   1.284   7.034  3.1251  2.5252 -1.7471
  204MOL0     H27477   8.891   1.500   7.179  1.4878  1.5728  0.1929
  204MOL0     H27478   9.006   1.515   7.065 -0.1512  0.6671  0.3595
  204MOL0     H27479   9.180   1.501   7.204 -1.1425  1.1685 -1.1117
  204MOL0     H27480   9.096   1.401   7.324  2.0931  1.0560  0.4316
  204MOL0     H27481   8.962   1.604   7.390  0.6887  0.1313  1.3533
  204MOL0     H27482   9.136   1.625   7.414 -0.1752  0.0425  1.5562
  204MOL0     H27483   8.982   1.748   7.165 -2.2858 -0.9916  0.9571
  204MOL0     H27484   9.013   1.824   7.316  0.3270 -2.2312  2.9636
  204MOL0     H27485   9.241   1.738   7.133 -0.8218 -1.0764 -1.0837
  204MOL0     H27486   9.154   1.885   7.114 -1.8616 -1.6718 -0.3562
  204MOL0     H27487   9.292   1.788   7.371 -2.9220 -0.8275 -1.4457
  204MOL0     H27488   9.209   1.953   7.355  0.3226 -0.8385  3.7719
  204MOL0     H27489   9.370   2.023   7.191 -1.5216  1.1188  1.7983
  204MOL0     H27490   9.427   2.003   7.351 -0.7846  0.5731 -0.6763
  204MOL0     H27491   9.601   1.785   7.411  0.5610 -0.1990  0.1286
  204MOL0     H27492   9.719   1.552   7.369  0.7874  1.3051  1.5037
  204MOL0     H27493   9.771   1.504   7.201  1.0047 -0.4984  1.3585
  204MOL0     H27494   9.872   1.734   7.367  1.9716 -0.9752  2.0697
  204MOL0     H27495   9.953   1.589   7.308 -0.2343 -0.4250 -1.3799
  204MOL0     H27496   9.832   1.765   7.101  0.4730  2.1565  2.2087
  204MOL0     H27497   9.948   1.642   7.070 -0.0383  1.2933 -2.1199
  204MOL0     H27498  10.009   1.901   7.221  1.2222  1.3465 -0.3770
  204MOL0     H27499  10.058   1.850   7.056 -2.9897 -0.1449 -0.7268
  204MOL0     H27500  10.357   1.650   7.340  0.7702 -0.0274 -1.3335
  204MOL0     H27501  10.585   1.767   7.380  0.6866  0.2732 -1.4761
  204MOL0     H27502  10.753   2.184   7.495 -0.0898  0.7421 -0.6591
  204MOL0     H27503  10.964   2.321   7.555  3.2615 -0.6414  3.5405
  204MOL0     H27504  11.154   2.393   7.622 -2.8256 -1.5227  4.0286
  204MOL0     H27505  11.190   2.243   7.697 -2.8248  2.1626 -0.2439
  204MOL0     H27506  11.403   2.411   7.542  0.6137 -0.8572 -0.1735
  204MOL0     H27507  11.361   2.445   7.710 -0.5914  1.8954 -2.8603
  204MOL0     H27508  11.452   2.217   7.778 -0.8388 -4.2874 -1.3686
  204MOL0     H27509  11.474   2.193   7.603 -2.3830  3.0200 -1.8835
  204MOL0     H27510  11.605   2.409   7.774 -1.3698  0.7275 -0.1109
  204MOL0     H27511  11.642   2.363   7.602  0.8445  0.3055  0.6214
  204MOL0     H27512  11.696   2.114   7.737  1.7795  1.0271 -3.0464
  204MOL0     H27513  11.656   2.214   7.871 -1.4781  0.7780 -1.3908
  204MOL0     H27514  11.856   2.346   7.836 -0.9705  0.4504  0.0170
  204MOL0     H27515  11.901   2.174   7.860 -0.3230 -1.0690 -1.5453
  204MOL0     H27516  11.951   2.349   7.621  2.4058  0.3139 -0.3997
  204MOL0     H27517  11.862   2.204   7.581  2.4120  0.6699 -2.1288
  204MOL0     H27518  12.033   2.055   7.683  0.4430  1.0156  4.7093
  204MOL0     H27519  12.094   2.161   7.551  1.3833  3.7345  1.4181
  204MOL0     H27520  11.206   2.021   7.386  0.8530  2.1751  1.2230
  204MOL0     H27521  11.007   1.871   7.344  0.9010 -0.8371  0.6594
  204MOL0     H27522  10.446   2.104   7.164 -3.5963  0.6359 -0.3800
  204MOL0     H27523  10.226   2.004   7.130  1.1377  1.5251 -0.6171
  204MOL0     H27524   8.848   1.054   7.043  2.2987  1.1050  1.3377
  204MOL0     H27525   8.621   0.979   7.038 -2.2619 -1.2680  2.3597
  204MOL0     H27526   8.306   0.930   7.063 -0.7714  2.9135 -1.7427
  204MOL0     H27527   8.095   0.819   6.965  0.9575 -0.3105  0.2924
  204MOL0     H27528   7.721   0.937   7.097 -1.8489 -1.4909 -2.6047
  204MOL0     H27529   7.717   0.813   7.227 -0.9778  0.1000 -0.0498
  204MOL0     H27530   7.670   0.667   7.006 -0.7397  0.1505 -1.2978
  204MOL0     H27531   7.654   0.819   6.925 -2.2900 -1.4072 -0.6265
  204MOL0     H27532   7.485   0.680   7.142  0.1132 -0.1250  1.0207
  204MOL0     H27533   7.431   0.749   6.988 -0.5280 -2.0917  0.3098
  204MOL0     H27534   7.490   0.910   7.242  1.3606 -2.3401  0.1016
  204MOL0     H27535   7.444   0.978   7.083  0.4561 -0.8219 -0.7010
  204MOL0     H27536   7.106   0.748   7.215  2.4580 -1.9439  2.0102
  204MOL0     H27537   7.907   0.886   7.338 -0.3384 -0.9128 -0.8634
  204MOL0     H27538   8.153   1.119   7.481  1.2283 -0.5734  0.1800
  204MOL0     H27539   7.991   1.042   7.506  2.2355  0.6977  3.5177
  204MOL0     H27540   8.137   0.946   7.523 -0.6766 -3.5273 -3.5919
  205MOL0     O27541   7.831   9.094   8.850  0.7231  1.6007  0.5317
  205MOL0     C27542   7.902   9.021   8.924 -0.1088 -0.2298  0.1998
  205MOL0     O27543   7.865   8.985   9.053 -0.3998  0.4842 -0.1034
  205MOL0     C27544   7.772   9.069   9.110 -0.1342  0.2991  0.0815
  205MOL0     C27545   7.816   9.163   9.198  0.0325 -0.6636  0.1089
  205MOL0     C27546   7.726   9.256   9.260  0.5738 -0.0016 -0.0594
  205MOL0     C27547   7.590   9.252   9.230 -0.3460  0.0971  0.1875
  205MOL0     O27548   7.517   9.338   9.303  0.1743 -0.1916 -0.3405
  205MOL0     C27549   7.373   9.311   9.316 -0.3352  0.2395  0.6455
  205MOL0     C27550   7.293   9.386   9.212 -0.0822  0.6338 -0.1053
  205MOL0     C27551   7.318   9.541   9.210  0.8154  0.4282  0.6135
  205MOL0     C27552   7.307   9.609   9.347  0.3270 -0.8335  0.4472
  205MOL0     C27553   7.163   9.597   9.403 -0.1604 -0.1778  0.4693
  205MOL0     C27554   7.113   9.733   9.455  0.3973 -0.0693 -0.2355
  205MOL0     C27555   6.982   9.723   9.540  0.0762  0.7059 -0.3009
  205MOL0     C27556   6.857   9.721   9.448 -0.6426  0.0562  0.2476
  205MOL0     N27557   6.727   9.697   9.509  0.0078 -1.2559 -0.0824
  205MOL0     C27558   6.649   9.784   9.586 -0.0105 -0.6434 -0.6259
  205MOL0     C27559   6.563   9.705   9.658  0.2116 -0.0175 -1.3058
  205MOL0     C27560   6.453   9.759   9.746  0.5887 -0.3020  1.0459
  205MOL0     C27561   6.335   9.663   9.783  0.2012  0.7511 -0.8188
  205MOL0     C27562   6.249   9.618   9.663 -0.1246 -1.1862  0.0906
  205MOL0     C27563   6.178   9.728   9.590  1.3052 -0.0272 -0.7163
  205MOL0     O27564   6.108   9.826   9.678  0.2549 -0.4289  0.7298
  205MOL0     C27565   6.058   9.936   9.606  0.0166 -0.1604  0.0719
  205MOL0     C27566   5.917   9.959   9.603  0.2067 -0.0069  0.3613
  205MOL0     C27567   5.866  10.084   9.559  0.9090  0.3952  1.5894
  205MOL0     C27568   5.952  10.184   9.515 -0.3975  0.2868 -0.5992
  205MOL0     C27569   5.896  10.301   9.450 -0.3936  0.6460 -0.3016
  205MOL0     O27570   5.985  10.387   9.379  0.4867  0.8643 -0.1703
  205MOL0     C27571   5.930  10.489   9.315 -0.5550  0.5258 -0.5917
  205MOL0     C27572   5.845  10.472   9.196 -0.9450  0.3341 -0.0534
  205MOL0     C27573   5.791  10.580   9.131  0.4572 -0.2757  0.2979
  205MOL0     C27574   5.824  10.708   9.167  0.1985  0.8186 -1.4465
  205MOL0     O27575   5.775  10.806   9.087 -0.0472 -0.0673  0.0412
  205MOL0     C27576   5.743  10.929   9.152  0.2007  0.1136 -0.3515
  205MOL0     C27577   5.637  10.986   9.060  0.6135 -0.0442  0.0492
  205MOL0     C27578   5.495  10.908   9.072  0.3062 -0.1278 -0.9903
  205MOL0     C27579   5.388  11.008   9.043  0.5288  0.3984 -0.0270
  205MOL0     C27580   5.250  10.965   9.102  1.3751 -0.7092 -0.5364
  205MOL0     C27581   5.149  11.081   9.106 -0.1069 -0.6521  0.3831
  205MOL0     C27582   5.021  11.060   9.177  0.7738  0.5133  0.1779
  205MOL0     C27583   4.912  10.992   9.096 -0.4029  1.3175 -0.6985
  205MOL0    Cl27584   4.850  11.099   8.961  0.0506 -0.4850  0.3413
  205MOL0     C27585   5.912  10.722   9.281  0.0296  0.0548 -0.2536
  205MOL0     C27586   5.963  10.620   9.356 -0.5290 -0.1794  0.2055
  205MOL0     O27587   5.773  10.314   9.447 -0.0867  0.3404 -1.0498
  205MOL0     C27588   6.096  10.167   9.511  0.1651  0.2153  0.1489
  205MOL0     C27589   6.141  10.038   9.553  0.4569  0.0101  0.0204
  205MOL0     N27590   6.578   9.581   9.613 -0.5277  0.6209  0.5792
  205MOL0     N27591   6.678   9.577   9.532  0.1291  0.2711  0.4444
  205MOL0     C27592   7.548   9.148   9.147 -0.4776 -0.7503  0.1104
  205MOL0     C27593   7.638   9.063   9.079  0.2770 -0.2677 -0.3908
  205MOL0     C27594   8.022   8.960   8.864 -0.0706  0.3574 -0.7668
  205MOL0     C27595   8.042   8.818   8.888  0.8285 -0.3113 -0.1336
  205MOL0     C27596   8.146   8.753   8.839 -0.4322  0.1989  0.3153
  205MOL0     C27597   8.248   8.813   8.774  0.3357 -0.3729 -0.1007
  205MOL0     O27598   8.360   8.739   8.755  0.0653 -0.4417  0.7037
  205MOL0     C27599   8.445   8.774   8.648 -0.1382 -0.5417  0.6585
  205MOL0     C27600   8.551   8.666   8.618  0.2985 -0.2063  1.0825
  205MOL0     C27601   8.634   8.608   8.730 -0.8933  0.3638 -0.8689
  205MOL0     C27602   8.742   8.510   8.693  0.3702  0.0525  0.0291
  205MOL0     C27603   8.711   8.415   8.588  0.1816  0.2894 -0.3134
  205MOL0     C27604   8.693   8.350   8.482  0.8639  0.4239  0.4035
  205MOL0     C27605   8.246   8.948   8.754  1.1543 -0.2181  0.0570
  205MOL0     C27606   8.126   9.019   8.789  0.1522 -0.4984  0.2357
  205MOL0     C27607   8.108   9.162   8.740 -0.0718  0.1304 -0.5687
  205MOL0     H27608   7.923   9.167   9.216  0.5385 -2.8625 -1.9608
  205MOL0     H27609   7.761   9.335   9.325 -0.1452  2.3253 -2.3006
  205MOL0     H27610   7.345   9.206   9.303 -2.4790  1.0328 -2.3314
  205MOL0     H27611   7.339   9.339   9.416 -1.2286 -0.7625  0.6417
  205MOL0     H27612   7.190   9.350   9.217  1.5058 -5.0099 -1.0118
  205MOL0     H27613   7.317   9.337   9.117 -0.1984  0.7086 -0.1739
  205MOL0     H27614   7.245   9.590   9.145 -0.7729 -2.1311  0.3432
  205MOL0     H27615   7.412   9.560   9.157 -0.3442  1.5509 -1.1701
  205MOL0     H27616   7.371   9.558   9.420 -0.5075  0.5636  2.2380
  205MOL0     H27617   7.332   9.715   9.344  1.0129 -0.9554  1.3295
  205MOL0     H27618   7.099   9.583   9.315 -1.3770  2.7571  0.7640
  205MOL0     H27619   7.150   9.511   9.470  0.9612  0.5450  1.6427
  205MOL0     H27620   7.194   9.768   9.519 -0.6954  1.9217  0.1433
  205MOL0     H27621   7.106   9.808   9.375  0.7430 -1.1030 -1.2605
  205MOL0     H27622   6.966   9.808   9.606  0.0413  0.4715 -0.0040
  205MOL0     H27623   6.973   9.627   9.592  0.7597  1.1717  0.7117
  205MOL0     H27624   6.861   9.814   9.392 -0.6434 -0.6280 -0.9191
  205MOL0     H27625   6.875   9.640   9.377 -0.7960 -0.7744  1.1318
  205MOL0     H27626   6.666   9.891   9.581 -1.4313 -0.4476 -1.9836
  205MOL0     H27627   6.497   9.798   9.838  1.2350  1.3760  0.0733
  205MOL0     H27628   6.411   9.842   9.689 -0.3295 -0.8150  0.9438
  205MOL0     H27629   6.374   9.577   9.838 -2.2165  0.6357  0.8869
  205MOL0     H27630   6.276   9.711   9.861  0.4390 -0.3154  0.0431
  205MOL0     H27631   6.176   9.546   9.701 -0.3630 -0.6028  0.7626
  205MOL0     H27632   6.313   9.555   9.600  0.7100  0.3109 -0.6090
  205MOL0     H27633   6.101   9.683   9.528 -0.0801 -2.5715  2.5115
  205MOL0     H27634   6.244   9.785   9.525  1.6562 -0.8354 -1.0829
  205MOL0     H27635   5.859   9.890   9.663  0.2144 -0.5674 -0.2710
  205MOL0     H27636   5.760  10.108   9.549  1.4064  2.3229  0.4165
  205MOL0     H27637   5.832  10.370   9.160  1.3164 -0.3408  0.8342
  205MOL0     H27638   5.721  10.561   9.050  3.3695  1.7649 -2.9929
  205MOL0     H27639   5.698  10.916   9.251 -0.9625  3.2214 -0.3649
  205MOL0     H27640   5.827  10.999   9.157  0.2024  0.1192 -0.4336
  205MOL0     H27641   5.624  11.093   9.081  0.6983  0.6808 -3.0273
  205MOL0     H27642   5.676  10.977   8.958 -0.7265  0.4483 -0.5322
  205MOL0     H27643   5.481  10.823   9.004 -1.2564 -1.2430  0.6455
  205MOL0     H27644   5.485  10.871   9.175  1.1712  0.8733 -0.5330
  205MOL0     H27645   5.383  11.031   8.936  0.6533 -0.5788 -0.2551
  205MOL0     H27646   5.414  11.101   9.096 -2.0871  0.0481  2.1065
  205MOL0     H27647   5.272  10.935   9.205  0.2270  0.8872  0.2296
  205MOL0     H27648   5.212  10.879   9.046  1.6340 -0.1865 -1.5272
  205MOL0     H27649   5.194  11.168   9.155 -0.9515 -0.1071  0.2114
  205MOL0     H27650   5.129  11.115   9.004  1.5863  1.7792  0.7749
  205MOL0     H27651   4.972  11.149   9.219 -0.7694 -1.6020  3.2431
  205MOL0     H27652   5.044  10.988   9.256  0.8040 -0.2735 -0.5353
  205MOL0     H27653   4.958  10.902   9.055  2.3137  2.2442  0.0900
  205MOL0     H27654   4.828  10.953   9.155  0.4924  3.0721  1.9381
  205MOL0     H27655   5.948  10.820   9.309  1.1461 -0.3903 -0.0635
  205MOL0     H27656   6.036  10.626   9.435 -1.3090  0.8081  0.8696
  205MOL0     H27657   6.175  10.229   9.469  1.4956 -3.0282 -2.6809
  205MOL0     H27658   6.247  10.032   9.578  0.8442  0.2294 -1.4731
  205MOL0     H27659   7.444   9.120   9.160 -0.3557 -1.3188 -0.0866
  205MOL0     H27660   7.604   8.984   9.014  0.4252  0.7466 -1.7522
  205MOL0     H27661   7.965   8.769   8.946  1.3516  3.6470  4.5796
  205MOL0     H27662   8.137   8.646   8.854 -0.0903 -0.2989 -2.5049
  205MOL0     H27663   8.500   8.865   8.673 -1.1854 -0.3880  2.5554
  205MOL0     H27664   8.401   8.792   8.550  0.2507 -0.6401  0.4606
  205MOL0     H27665   8.622   8.694   8.540  1.4739 -1.3531  1.7050
  205MOL0     H27666   8.493   8.581   8.582  0.4855  0.2444 -0.3334
  205MOL0     H27667   8.571   8.559   8.805 -3.7525  1.6333 -2.2676
  205MOL0     H27668   8.698   8.683   8.777  0.1259 -1.5794  1.0374
  205MOL0     H27669   8.830   8.564   8.657 -0.0907 -0.0496 -1.3054
  205MOL0     H27670   8.773   8.448   8.778 -2.0901  1.4377  2.1090
  205MOL0     H27671   8.666   8.309   8.387  0.7087  1.2433  0.0904
  205MOL0     H27672   8.334   8.987   8.703  1.3710 -1.8976 -0.9254
  205MOL0     H27673   8.036   9.167   8.658 -0.2662  0.2084 -0.3941
  205MOL0     H27674   8.064   9.221   8.820  0.2083  0.4274 -0.6285
  205MOL0     H27675   8.203   9.200   8.700 -0.2874 -0.3340 -1.5566
  206MOL0     O27676   1.041   0.792   6.525  0.0361 -0.0322  0.4498
  206MOL0     C27677   1.012   0.731   6.424  0.3203 -0.3563  0.5363
  206MOL0     O27678   1.098   0.651   6.354 -0.7061 -0.0001  0.2309
  206MOL0     C27679   1.235   0.666   6.375  0.6619  0.0041 -0.2025
  206MOL0     C27680   1.302   0.546   6.357 -1.3463  0.8329 -0.8611
  206MOL0     C27681   1.440   0.544   6.383 -0.0706 -0.1596 -0.5235
  206MOL0     C27682   1.512   0.665   6.393  0.7361 -0.4126  0.5071
  206MOL0     O27683   1.646   0.651   6.422  0.0143  0.5806 -1.2008
  206MOL0     C27684   1.704   0.758   6.499  0.1885  1.6350  0.6280
  206MOL0     C27685   1.834   0.722   6.561 -0.2148  0.4196 -0.7612
  206MOL0     C27686   1.961   0.738   6.473  0.6681  0.9873  0.4874
  206MOL0     C27687   2.074   0.691   6.564 -0.1855 -0.2978  1.0032
  206MOL0     C27688   2.215   0.713   6.506 -0.8276  0.3865 -0.0228
  206MOL0     C27689   2.253   0.596   6.411  0.2710 -0.1122  0.0756
  206MOL0     C27690   2.404   0.607   6.358  0.2779 -0.9198 -0.1954
  206MOL0     C27691   2.495   0.553   6.468  0.7487  0.3416  0.3317
  206MOL0     N27692   2.640   0.552   6.435 -0.5107 -0.2858  0.0238
  206MOL0     C27693   2.720   0.660   6.451  0.2294  0.9292 -0.4424
  206MOL0     C27694   2.841   0.605   6.437 -1.2441  0.5857 -0.3334
  206MOL0     C27695   2.957   0.693   6.471 -0.1949 -1.1781 -0.8010
  206MOL0     C27696   3.085   0.614   6.513 -0.7037  0.5487  0.0630
  206MOL0     C27697   3.202   0.718   6.516  0.0929  0.4706  0.2982
  206MOL0     C27698   3.304   0.676   6.622 -0.4927 -0.3986 -0.5400
  206MOL0     O27699   3.362   0.547   6.599 -1.5951 -0.7690  0.4637
  206MOL0     C27700   3.484   0.539   6.524  0.6871 -1.0131 -0.6254
  206MOL0     C27701   3.561   0.427   6.541 -0.9813  0.2174 -0.4686
  206MOL0     C27702   3.686   0.400   6.475  1.0152 -0.6905 -0.2377
  206MOL0     C27703   3.744   0.505   6.412 -0.4067  0.1143  0.2068
  206MOL0     C27704   3.877   0.489   6.348 -0.0206 -0.3668 -0.4409
  206MOL0     O27705   3.942   0.370   6.336 -0.1195  0.6868 -0.7814
  206MOL0     C27706   4.074   0.356   6.301 -0.4070 -0.4212 -1.3094
  206MOL0     C27707   4.173   0.448   6.336  0.1678  0.0827 -0.2860
  206MOL0     C27708   4.311   0.410   6.331 -0.0447  0.5182 -0.5324
  206MOL0     C27709   4.336   0.285   6.270 -0.1358  0.8645 -0.6578
  206MOL0     O27710   4.455   0.233   6.239 -0.5717  0.1339 -0.0496
  206MOL0     C27711   4.539   0.209   6.356  0.4691 -0.1844  0.0167
  206MOL0     C27712   4.679   0.177   6.295  0.6740  0.9162  0.1687
  206MOL0     C27713   4.771   0.125   6.404 -1.1419  0.1475  0.2864
  206MOL0     C27714   4.885   0.036   6.348  0.7331 -0.4117  0.2659
  206MOL0     C27715   5.013   0.053   6.429 -0.2560  0.0798  0.6401
  206MOL0     C27716   5.134  -0.020   6.377 -0.6036  0.9729  0.6864
  206MOL0     C27717   5.269   0.018   6.453 -0.5894 -0.0675 -0.1938
  206MOL0     C27718   5.375  -0.080   6.422  0.2451  0.3561  0.3256
  206MOL0    Cl27719   5.450  -0.045   6.260 -0.4066 -0.0710 -0.3121
  206MOL0     C27720   4.233   0.198   6.223 -0.7722 -0.0805  1.1076
  206MOL0     C27721   4.107   0.234   6.247  0.4141  0.0282  0.3084
  206MOL0     O27722   3.916   0.603   6.305  0.6628  0.7440  0.4260
  206MOL0     C27723   3.665   0.622   6.396 -0.7676  0.7147  0.0796
  206MOL0     C27724   3.535   0.640   6.440 -0.2355  0.0374 -0.0856
  206MOL0     N27725   2.837   0.472   6.419 -0.3090  0.0980 -0.4431
  206MOL0     N27726   2.711   0.437   6.410  0.1183 -0.1578 -0.1368
  206MOL0     C27727   1.439   0.787   6.393  0.5970 -0.1368 -1.0571
  206MOL0     C27728   1.304   0.784   6.394  1.3563 -0.6578  0.6942
  206MOL0     C27729   0.870   0.723   6.402  0.6995  0.5074 -0.7362
  206MOL0     C27730   0.796   0.835   6.447  1.0197 -0.1944 -0.1054
  206MOL0     C27731   0.655   0.838   6.425  0.2493  0.0827 -0.1427
  206MOL0     C27732   0.579   0.736   6.373  0.6024  0.2656 -0.6365
  206MOL0     O27733   0.447   0.742   6.360 -0.5556 -0.3035 -0.7607
  206MOL0     C27734   0.376   0.744   6.488  0.4865  0.0216  0.9646
  206MOL0     C27735   0.331   0.603   6.528  0.6297  0.8849 -0.8458
  206MOL0     C27736   0.269   0.590   6.675 -1.0675 -0.2723 -0.1640
  206MOL0     C27737   0.232   0.444   6.707  0.0814 -0.0449  0.1767
  206MOL0     C27738   0.175   0.450   6.848 -0.8218 -0.1491  0.3156
  206MOL0     C27739   0.119   0.465   6.955  0.9839  0.7040 -0.4521
  206MOL0     C27740   0.660   0.632   6.326  0.2614 -0.5272 -0.2232
  206MOL0     C27741   0.798   0.617   6.334  0.0840 -0.2135  0.7504
  206MOL0     C27742   0.862   0.509   6.249 -1.1268 -0.5299  0.5880
  206MOL0     H27743   1.247   0.452   6.351 -0.2266  0.0643  0.2302
  206MOL0     H27744   1.500   0.454   6.389 -0.3952 -0.3108  0.9707
  206MOL0     H27745   1.723   0.841   6.431 -0.7112  1.8326  0.6071
  206MOL0     H27746   1.629   0.800   6.567 -0.8530  3.6046 -1.6112
  206MOL0     H27747   1.807   0.624   6.600 -3.6066  0.7459 -1.9108
  206MOL0     H27748   1.847   0.788   6.648 -0.4072  0.3156 -0.6527
  206MOL0     H27749   1.969   0.844   6.450 -1.9217  1.1384 -0.0017
  206MOL0     H27750   1.961   0.681   6.380  3.9794  1.8995 -0.2059
  206MOL0     H27751   2.071   0.750   6.656 -0.3674 -0.8688  1.3694
  206MOL0     H27752   2.055   0.588   6.594 -1.8490  0.8181  4.3494
  206MOL0     H27753   2.210   0.806   6.449 -1.7486  2.4250  3.1221
  206MOL0     H27754   2.288   0.731   6.585 -2.2522  2.0186  0.9926
  206MOL0     H27755   2.221   0.503   6.459 -0.9722 -0.8927 -2.1065
  206MOL0     H27756   2.180   0.593   6.329  0.6499 -1.5630 -0.2403
  206MOL0     H27757   2.412   0.715   6.350 -1.5468 -0.7106  0.3367
  206MOL0     H27758   2.440   0.566   6.263  1.8787  2.5316 -1.2405
  206MOL0     H27759   2.482   0.615   6.557  2.4877  1.6696 -0.2781
  206MOL0     H27760   2.461   0.449   6.477  2.2483 -0.2398 -0.3060
  206MOL0     H27761   2.695   0.762   6.481 -0.6607  2.0713 -4.4499
  206MOL0     H27762   2.978   0.761   6.388 -2.3171 -0.3261 -0.6988
  206MOL0     H27763   2.945   0.764   6.553  0.8546 -0.5342 -1.1720
  206MOL0     H27764   3.071   0.569   6.612 -0.7318 -1.5758 -0.8358
  206MOL0     H27765   3.115   0.543   6.434  0.4790  3.2802 -2.1019
  206MOL0     H27766   3.160   0.813   6.551 -2.5339 -0.7075  0.5397
  206MOL0     H27767   3.238   0.731   6.414  0.0190 -2.7109 -0.2372
  206MOL0     H27768   3.250   0.659   6.716  0.0120 -0.5483 -0.2773
  206MOL0     H27769   3.373   0.760   6.636 -2.6490  1.7191 -1.6468
  206MOL0     H27770   3.529   0.345   6.604  1.4925  0.7158  1.5851
  206MOL0     H27771   3.720   0.298   6.491 -2.3951 -2.0563 -0.7416
  206MOL0     H27772   4.148   0.541   6.385 -1.5671 -1.3896  1.8226
  206MOL0     H27773   4.385   0.486   6.353 -0.2206  0.9471 -1.3962
  206MOL0     H27774   4.535   0.292   6.427  2.4285  0.3884 -0.4897
  206MOL0     H27775   4.506   0.117   6.405  1.4499  0.6001  2.2605
  206MOL0     H27776   4.660   0.091   6.229 -3.0696 -0.1722  2.3364
  206MOL0     H27777   4.720   0.264   6.243 -1.5241  0.3617 -2.8137
  206MOL0     H27778   4.815   0.208   6.461 -1.6556 -0.4551  1.6054
  206MOL0     H27779   4.714   0.063   6.474 -1.0419 -0.1206  0.1313
  206MOL0     H27780   4.905   0.053   6.242 -2.2010  2.1679 -0.0228
  206MOL0     H27781   4.850  -0.068   6.350  2.5461 -1.1343 -1.7761
  206MOL0     H27782   4.994   0.007   6.527 -1.0695  2.5361  1.6975
  206MOL0     H27783   5.039   0.159   6.433  1.3461 -0.1261 -1.9941
  206MOL0     H27784   5.118  -0.128   6.388  0.7841  0.6017 -0.6349
  206MOL0     H27785   5.139  -0.008   6.268 -4.0174 -2.6669 -0.1053
  206MOL0     H27786   5.243   0.009   6.559 -4.1342 -1.3725 -1.0179
  206MOL0     H27787   5.304   0.111   6.408 -4.1332  1.7277  0.4490
  206MOL0     H27788   5.457  -0.065   6.493  0.6193  1.3304 -0.2865
  206MOL0     H27789   5.324  -0.177   6.426 -1.0097  0.9809  4.0989
  206MOL0     H27790   4.264   0.104   6.178  0.4823  2.0798 -3.0428
  206MOL0     H27791   4.029   0.173   6.203  2.8568 -1.4163 -2.3638
  206MOL0     H27792   3.716   0.702   6.343  2.3508 -0.5007  1.0079
  206MOL0     H27793   3.478   0.730   6.418 -0.3911  0.3524  1.4699
  206MOL0     H27794   1.499   0.877   6.387  1.9491 -0.7872  1.6791
  206MOL0     H27795   1.239   0.868   6.417  4.2690  1.4204  2.0836
  206MOL0     H27796   0.839   0.932   6.470  3.4962 -1.3404  0.3653
  206MOL0     H27797   0.610   0.933   6.451 -0.7294 -1.1700  3.4065
  206MOL0     H27798   0.292   0.813   6.481 -1.0196 -1.9325 -1.8714
  206MOL0     H27799   0.447   0.766   6.569  0.0554 -2.1210  1.9785
  206MOL0     H27800   0.425   0.546   6.534  1.1810  1.8244 -0.2546
  206MOL0     H27801   0.258   0.573   6.453  0.5029 -0.1418 -0.3388
  206MOL0     H27802   0.181   0.655   6.669 -1.6721 -0.9784  0.8398
  206MOL0     H27803   0.338   0.633   6.749 -1.8428 -0.1351  0.4999
  206MOL0     H27804   0.158   0.400   6.638 -0.8314 -1.4182  1.9391
  206MOL0     H27805   0.316   0.375   6.701  0.5752  0.6593 -2.0462
  206MOL0     H27806   0.064   0.473   7.047  0.6232  1.8097 -0.7481
  206MOL0     H27807   0.593   0.556   6.287  1.3617 -2.8965  2.1977
  206MOL0     H27808   0.900   0.429   6.313 -2.9073 -1.5817  0.4030
  206MOL0     H27809   0.799   0.476   6.166  1.1497  1.2739 -2.0290
  206MOL0     H27810   0.946   0.553   6.194 -1.3545  1.5603  1.8396
  207MOL0     O27811   1.708   0.055   0.071 -0.7604  0.2473 -1.1202
  207MOL0     C27812   1.753   0.004  -0.026  0.9875 -0.2423 -0.3832
  207MOL0     O27813   1.882   0.016  -0.071 -0.6227  0.1006  0.4467
  207MOL0     C27814   1.990   0.042   0.011  0.4669  0.5258 -0.5905
  207MOL0     C27815   1.992   0.010   0.155  0.4349  0.7609  1.0683
  207MOL0     C27816   2.098   0.065   0.226  0.3541  0.2599  0.2786
  207MOL0     C27817   2.197   0.138   0.167 -0.4414  0.2367 -0.1632
  207MOL0     O27818   2.310   0.196   0.227 -0.2171  0.0297  0.2513
  207MOL0     C27819   2.335   0.148   0.364 -0.0023 -0.0523  0.1053
  207MOL0     C27820   2.439   0.238   0.433  0.7106 -0.0507  0.9730
  207MOL0     C27821   2.563   0.287   0.345  0.8310 -0.4139 -0.0140
  207MOL0     C27822   2.659   0.379   0.423  0.3123  0.0328 -0.1859
  207MOL0     C27823   2.782   0.423   0.339 -0.1759 -0.7697 -0.2252
  207MOL0     C27824   2.849   0.546   0.400  0.0250 -0.5350 -0.4249
  207MOL0     C27825   2.978   0.595   0.325 -0.5306 -1.0478  0.3615
  207MOL0     C27826   2.941   0.656   0.195 -0.3546  0.5738 -0.3287
  207MOL0     N27827   3.060   0.713   0.130 -0.2534  0.4589  0.4525
  207MOL0     C27828   3.162   0.641   0.065  0.3768 -0.5249  0.6662
  207MOL0     C27829   3.236   0.727  -0.001  0.9234 -0.1422 -0.7549
  207MOL0     C27830   3.355   0.692  -0.076 -0.3349 -0.2480  0.3239
  207MOL0     C27831   3.480   0.669   0.026  0.1394  0.2194  0.5153
  207MOL0     C27832   3.515   0.802   0.092  0.0932  0.4085  0.5616
  207MOL0     C27833   3.668   0.827   0.099  0.7047  1.0010  0.2641
  207MOL0     O27834   3.709   0.724   0.197 -0.1438  0.0822 -1.2507
  207MOL0     C27835   3.840   0.736   0.236  0.3775 -0.0289 -0.5361
  207MOL0     C27836   3.927   0.844   0.216 -0.0871  0.4505 -0.2242
  207MOL0     C27837   4.059   0.846   0.260  1.0593 -0.6297 -0.6257
  207MOL0     C27838   4.107   0.728   0.316  0.0713 -0.1130  0.3762
  207MOL0     C27839   4.241   0.740   0.368 -0.3842  0.4430  0.2116
  207MOL0     O27840   4.273   0.670   0.485 -0.1983 -0.1822 -0.4496
  207MOL0     C27841   4.402   0.669   0.542 -0.7190 -0.3220 -0.7978
  207MOL0     C27842   4.491   0.779   0.534 -0.5171 -0.4141  0.4737
  207MOL0     C27843   4.621   0.764   0.592  0.6103 -0.0794 -0.0214
  207MOL0     C27844   4.670   0.647   0.649  0.0883  0.7164 -0.2939
  207MOL0     O27845   4.802   0.643   0.706  0.1638  0.0382  0.2055
  207MOL0     C27846   4.825   0.548   0.804  0.0988  0.7478 -0.1037
  207MOL0     C27847   4.925   0.448   0.740 -0.4940  0.1370 -0.1654
  207MOL0     C27848   5.074   0.488   0.759 -0.2460 -0.1875 -0.0524
  207MOL0     C27849   5.165   0.382   0.703 -0.9975 -0.3391 -0.3427
  207MOL0     C27850   5.301   0.443   0.680 -0.2971 -0.6453  0.1069
  207MOL0     C27851   5.299   0.539   0.552 -0.2108  0.3598  0.7096
  207MOL0     C27852   5.436   0.582   0.509 -0.1947  0.2336 -0.3907
  207MOL0     C27853   5.497   0.474   0.412  0.5233  0.1106  0.0889
  207MOL0    Cl27854   5.643   0.566   0.360 -0.2698 -0.4629 -0.3311
  207MOL0     C27855   4.586   0.537   0.647 -0.3479  0.2783 -0.0301
  207MOL0     C27856   4.455   0.549   0.602 -0.0786 -0.5463 -0.0720
  207MOL0     O27857   4.321   0.811   0.305  0.5894  0.4226 -0.3568
  207MOL0     C27858   4.023   0.615   0.337 -0.6355  0.2692 -0.5318
  207MOL0     C27859   3.897   0.624   0.295  0.0662 -0.5916 -0.1543
  207MOL0     N27860   3.188   0.857   0.020 -0.3172  0.2536  0.3329
  207MOL0     N27861   3.083   0.835   0.100  0.4049 -0.3824 -0.5044
  207MOL0     C27862   2.193   0.166   0.028 -0.2788 -0.0265 -0.0550
  207MOL0     C27863   2.084   0.112  -0.046  0.1798  0.5043 -0.4713
  207MOL0     C27864   1.651  -0.054  -0.129  0.2230  0.5477 -0.6722
  207MOL0     C27865   1.516  -0.065  -0.091 -0.2852 -0.9041 -0.2203
  207MOL0     C27866   1.414  -0.109  -0.182  0.3826  1.0528 -0.1256
  207MOL0     C27867   1.452  -0.145  -0.312  0.6838 -0.0558 -0.3309
  207MOL0     O27868   1.368  -0.206  -0.404  0.2011 -0.3615  0.5627
  207MOL0     C27869   1.236  -0.176  -0.419  0.8011 -0.7873 -1.0259
  207MOL0     C27870   1.188  -0.026  -0.408 -0.6847 -0.0197 -0.3738
  207MOL0     C27871   1.243   0.063  -0.514 -0.2679 -0.9915 -0.5223
  207MOL0     C27872   1.184   0.205  -0.508  0.2754  0.5032 -0.0417
  207MOL0     C27873   1.041   0.219  -0.537  0.8063 -0.5188 -0.9631
  207MOL0     C27874   0.924   0.237  -0.516  0.8151  0.2473  0.3104
  207MOL0     C27875   1.589  -0.146  -0.349 -0.1935 -0.6963  0.2114
  207MOL0     C27876   1.693  -0.099  -0.262 -0.0580  0.0325 -0.0442
  207MOL0     C27877   1.833  -0.107  -0.318 -0.1648  0.6924 -0.5068
  207MOL0     H27878   1.917  -0.053   0.202 -2.1696  0.5160 -2.9316
  207MOL0     H27879   2.096   0.043   0.333  3.1644 -1.9911 -0.0066
  207MOL0     H27880   2.245   0.146   0.427 -1.5135  1.2823 -1.9131
  207MOL0     H27881   2.383   0.050   0.365  0.5391  0.2098 -0.2140
  207MOL0     H27882   2.484   0.196   0.523 -0.9344  0.9752  2.3327
  207MOL0     H27883   2.377   0.319   0.473 -2.8955 -2.2201  0.1968
  207MOL0     H27884   2.531   0.338   0.254  0.3649 -0.1832  0.2747
  207MOL0     H27885   2.613   0.192   0.324  0.4955 -0.4926 -0.4807
  207MOL0     H27886   2.592   0.465   0.438  0.6971  0.6963 -2.0050
  207MOL0     H27887   2.690   0.349   0.523  1.4623  0.6668 -0.3370
  207MOL0     H27888   2.855   0.341   0.333  2.5375  1.4399  0.4309
  207MOL0     H27889   2.748   0.435   0.236 -0.2161  0.3388 -0.0986
  207MOL0     H27890   2.772   0.620   0.423  1.4208  0.1612  2.3720
  207MOL0     H27891   2.891   0.511   0.495 -0.0178 -1.3598 -0.6977
  207MOL0     H27892   3.042   0.507   0.312  0.5766 -0.3069  0.6738
  207MOL0     H27893   3.027   0.672   0.385 -0.2788  0.0121 -1.1667
  207MOL0     H27894   2.885   0.599   0.121 -3.5263  0.3273  2.0614
  207MOL0     H27895   2.873   0.735   0.228  1.0648  0.9855  1.8791
  207MOL0     H27896   3.170   0.533   0.063 -2.4834 -0.9125 -3.9538
  207MOL0     H27897   3.338   0.602  -0.135  0.1147  0.0121 -0.2142
  207MOL0     H27898   3.384   0.768  -0.150  1.6930 -1.2976 -0.0524
  207MOL0     H27899   3.455   0.592   0.100  0.1628 -0.7190 -0.4220
  207MOL0     H27900   3.562   0.631  -0.035 -0.5841  0.5193 -0.6825
  207MOL0     H27901   3.482   0.814   0.195  4.5484  0.8496  2.1440
  207MOL0     H27902   3.465   0.882   0.037 -1.2268 -1.9138 -1.8759
  207MOL0     H27903   3.691   0.927   0.137  2.4291 -0.1800  2.5788
  207MOL0     H27904   3.722   0.814   0.004  2.5770  3.2335  0.9067
  207MOL0     H27905   3.888   0.935   0.171 -2.2796 -0.9931 -1.4773
  207MOL0     H27906   4.115   0.936   0.238 -0.4362 -0.1638 -2.8135
  207MOL0     H27907   4.470   0.875   0.488  0.5347  0.1351  1.0892
  207MOL0     H27908   4.695   0.842   0.598  1.7646 -1.0067 -1.4364
  207MOL0     H27909   4.872   0.590   0.893 -0.7185 -1.9048  1.6920
  207MOL0     H27910   4.734   0.507   0.847  0.9449  1.4116  2.5370
  207MOL0     H27911   4.910   0.346   0.777  0.8722  0.8699  2.7195
  207MOL0     H27912   4.897   0.444   0.635 -0.9703 -0.7402 -0.0201
  207MOL0     H27913   5.084   0.583   0.706 -3.5719  0.2886 -0.0623
  207MOL0     H27914   5.109   0.512   0.860  0.6254 -4.3447  0.8072
  207MOL0     H27915   5.111   0.354   0.612 -1.3107 -0.2517 -0.1847
  207MOL0     H27916   5.174   0.296   0.770 -1.7991  0.8037  1.3163
  207MOL0     H27917   5.371   0.360   0.670 -0.0022 -0.8516  3.0641
  207MOL0     H27918   5.336   0.502   0.765  1.5192 -1.5932  0.0608
  207MOL0     H27919   5.260   0.479   0.469  0.7454 -2.2987  2.0932
  207MOL0     H27920   5.234   0.627   0.561 -1.6850 -0.5502 -0.5872
  207MOL0     H27921   5.508   0.589   0.591  2.7938 -1.9132 -2.5848
  207MOL0     H27922   5.429   0.679   0.461  3.2784  0.8904  0.1710
  207MOL0     H27923   5.513   0.382   0.469  0.0687 -0.1638 -0.2230
  207MOL0     H27924   5.429   0.459   0.328 -1.5533 -0.3476  1.7625
  207MOL0     H27925   4.620   0.437   0.671 -1.4050  0.1445  0.9768
  207MOL0     H27926   4.387   0.465   0.596  0.9106 -1.2620 -2.4224
  207MOL0     H27927   4.054   0.518   0.374  1.3106  0.9404 -0.2855
  207MOL0     H27928   3.830   0.543   0.321 -0.6097 -0.6915 -2.0414
  207MOL0     H27929   2.272   0.214  -0.028  1.9793 -0.5165  2.4795
  207MOL0     H27930   2.091   0.126  -0.154  0.1357 -0.2419 -0.5737
  207MOL0     H27931   1.483  -0.025   0.004  0.6470 -3.5589  1.3447
  207MOL0     H27932   1.309  -0.102  -0.155  0.4264 -0.0572  0.3808
  207MOL0     H27933   1.198  -0.241  -0.339  1.1574  0.2066 -0.0204
  207MOL0     H27934   1.191  -0.210  -0.512 -1.2741  1.1793 -0.8259
  207MOL0     H27935   1.209   0.017  -0.310  0.5765 -0.9235 -0.2156
  207MOL0     H27936   1.079  -0.029  -0.413 -0.7610 -4.6553 -1.2780
  207MOL0     H27937   1.224   0.022  -0.613  0.3293 -2.4011 -0.0851
  207MOL0     H27938   1.352   0.071  -0.512 -0.2409 -1.3173 -0.7610
  207MOL0     H27939   1.202   0.241  -0.406  1.3356  0.7635 -0.3074
  207MOL0     H27940   1.235   0.274  -0.576 -2.6771  1.9158 -1.0221
  207MOL0     H27941   0.824   0.271  -0.501  0.6666  1.7511 -3.1902
  207MOL0     H27942   1.615  -0.193  -0.444 -1.7306  1.4400 -1.3839
  207MOL0     H27943   1.905  -0.154  -0.250 -0.1112 -2.2341 -2.4178
  207MOL0     H27944   1.840  -0.166  -0.410 -2.0937  1.9474 -1.5109
  207MOL0     H27945   1.871  -0.006  -0.331  1.3100  0.4198  1.2235
  208MOL0     O27946   0.738   4.372   4.721  0.2530  0.0349 -0.1679
  208MOL0     C27947   0.740   4.387   4.602 -0.0539  0.0185  0.4400
  208MOL0     O27948   0.857   4.386   4.533  0.0428 -0.1977  0.3115
  208MOL0     C27949   0.975   4.360   4.596  0.4723  0.3488  0.5210
  208MOL0     C27950   1.051   4.470   4.649  0.3653  0.2554  0.1915
  208MOL0     C27951   1.181   4.454   4.696  0.1513  0.0815  0.2683
  208MOL0     C27952   1.249   4.336   4.675 -0.5189 -0.2201  0.7573
  208MOL0     O27953   1.382   4.316   4.711 -0.4620 -1.1703 -0.6248
  208MOL0     C27954   1.403   4.294   4.848  0.2533  0.5812 -0.1487
  208MOL0     C27955   1.519   4.203   4.868 -0.1795 -0.2593  0.1341
  208MOL0     C27956   1.649   4.284   4.857 -0.1326 -0.3387 -0.9386
  208MOL0     C27957   1.772   4.197   4.855  0.3721  0.0773  0.0145
  208MOL0     C27958   1.904   4.278   4.864  0.0227  0.3195  1.0954
  208MOL0     C27959   1.940   4.363   4.744  0.0118  0.0578  0.1156
  208MOL0     C27960   2.079   4.430   4.770 -0.0547  0.2345  0.7353
  208MOL0     C27961   2.188   4.334   4.801 -0.5254  0.3388  0.0165
  208MOL0     N27962   2.322   4.398   4.802  0.4815  0.0751  0.0365
  208MOL0     C27963   2.373   4.495   4.723 -0.1408  0.3078  0.0918
  208MOL0     C27964   2.480   4.550   4.784 -0.0127 -0.0998 -0.0463
  208MOL0     C27965   2.573   4.655   4.732  0.7387  0.3234 -0.3048
  208MOL0     C27966   2.717   4.598   4.718 -0.1410  0.3748 -0.3616
  208MOL0     C27967   2.812   4.704   4.692 -1.0404 -0.2539 -0.1831
  208MOL0     C27968   2.941   4.661   4.613 -0.0894  0.3012  0.3226
  208MOL0     O27969   3.047   4.757   4.616 -0.3183 -0.2930  0.5544
  208MOL0     C27970   3.165   4.703   4.597  0.9299  0.2649  0.4897
  208MOL0     C27971   3.271   4.770   4.659 -0.0071  0.1767  0.5008
  208MOL0     C27972   3.405   4.724   4.650  0.0493 -0.8925  0.6656
  208MOL0     C27973   3.433   4.612   4.574  0.5850 -0.1362 -0.1666
  208MOL0     C27974   3.563   4.549   4.573  0.3316  0.7107 -0.2671
  208MOL0     O27975   3.574   4.410   4.563 -0.6147  0.9839  0.7081
  208MOL0     C27976   3.694   4.360   4.520 -0.0640 -0.3156 -0.6356
  208MOL0     C27977   3.776   4.422   4.421  0.1268  0.8412 -0.1748
  208MOL0     C27978   3.903   4.375   4.396  1.1767 -0.3185  0.8598
  208MOL0     C27979   3.949   4.255   4.456  0.2035 -0.0874 -0.4590
  208MOL0     O27980   4.071   4.201   4.426 -0.3967 -0.6672  0.0347
  208MOL0     C27981   4.113   4.214   4.287 -0.2815 -0.1344  0.0186
  208MOL0     C27982   4.227   4.125   4.245 -0.5161  0.2099 -0.1350
  208MOL0     C27983   4.358   4.174   4.320 -0.4083  0.6935 -0.2267
  208MOL0     C27984   4.430   4.298   4.279  0.6708 -0.6633 -0.5319
  208MOL0     C27985   4.564   4.294   4.349  0.6253 -0.5704 -0.4976
  208MOL0     C27986   4.650   4.404   4.291 -0.9478  0.2274  0.7642
  208MOL0     C27987   4.788   4.419   4.366 -0.1150 -0.5822  0.8456
  208MOL0     C27988   4.880   4.503   4.282 -0.2083 -0.5506 -0.4801
  208MOL0    Cl27989   4.944   4.428   4.125  0.0162 -0.1882  0.2424
  208MOL0     C27990   3.872   4.194   4.554 -0.2428  0.1510 -0.1250
  208MOL0     C27991   3.747   4.247   4.583  0.0235 -0.3127 -0.0930
  208MOL0     O27992   3.658   4.625   4.583  1.0501 -0.0832  0.1860
  208MOL0     C27993   3.325   4.544   4.507 -0.1557 -0.2953 -0.0999
  208MOL0     C27994   3.191   4.590   4.511 -0.2163  0.7472  0.0944
  208MOL0     N27995   2.489   4.482   4.902 -0.1944  0.5810 -0.3598
  208MOL0     N27996   2.398   4.386   4.914 -0.4522 -0.1655  0.1032
  208MOL0     C27997   1.174   4.226   4.626  0.8750  0.4447  0.0868
  208MOL0     C27998   1.037   4.238   4.586 -0.3978 -0.6304 -0.3830
  208MOL0     C27999   0.610   4.394   4.525  0.0290  0.1045  0.1800
  208MOL0     C28000   0.614   4.374   4.381  0.1113  0.1844 -0.4654
  208MOL0     C28001   0.494   4.357   4.308  0.6650 -0.2742 -0.3457
  208MOL0     C28002   0.371   4.358   4.369  0.0970  0.1056 -0.7687
  208MOL0     O28003   0.257   4.331   4.295  0.2470  0.0779  0.0579
  208MOL0     C28004   0.140   4.271   4.358 -0.6061  0.1530  0.3280
  208MOL0     C28005   0.020   4.280   4.272  0.2454 -0.1847 -0.0241
  208MOL0     C28006  -0.090   4.181   4.327  0.2009  0.2807  0.2727
  208MOL0     C28007  -0.228   4.224   4.280  0.2013  0.3591 -0.4423
  208MOL0     C28008  -0.342   4.143   4.322 -0.6944 -0.3884 -0.5422
  208MOL0     C28009  -0.444   4.078   4.344 -0.0349 -0.4670  0.9783
  208MOL0     C28010   0.368   4.384   4.505 -0.4737 -0.4610 -0.5035
  208MOL0     C28011   0.481   4.403   4.582 -0.1911  0.0592 -0.3291
  208MOL0     C28012   0.447   4.449   4.720 -0.0050  0.4672  0.0525
  208MOL0     H28013   0.991   4.560   4.656 -2.9886 -1.7944 -0.0125
  208MOL0     H28014   1.231   4.537   4.744  1.4633  1.4769 -3.1729
  208MOL0     H28015   1.417   4.393   4.893 -1.7025 -0.2833  2.6285
  208MOL0     H28016   1.317   4.249   4.898  0.4606 -1.7714 -1.7344
  208MOL0     H28017   1.527   4.124   4.792 -0.4305 -0.1337 -0.0233
  208MOL0     H28018   1.516   4.165   4.970  0.3183  3.4572  1.6804
  208MOL0     H28019   1.649   4.362   4.934 -1.3652 -1.2303  0.0182
  208MOL0     H28020   1.654   4.338   4.762  1.0661 -1.0316 -1.2867
  208MOL0     H28021   1.768   4.130   4.941  0.3466  1.0344  0.7772
  208MOL0     H28022   1.774   4.123   4.775  2.2554  2.9444 -2.8327
  208MOL0     H28023   1.898   4.331   4.960  2.1460  2.1891  0.2850
  208MOL0     H28024   1.988   4.208   4.870  1.4668  1.9562  0.8652
  208MOL0     H28025   1.949   4.297   4.657 -0.0330 -2.6095  2.0227
  208MOL0     H28026   1.873   4.444   4.715  2.3539  1.4425 -1.8439
  208MOL0     H28027   2.061   4.504   4.848 -0.6922 -0.7424  1.5272
  208MOL0     H28028   2.113   4.476   4.676 -1.5379 -0.1487 -0.0129
  208MOL0     H28029   2.179   4.305   4.906 -0.5594  1.5861  0.3812
  208MOL0     H28030   2.188   4.245   4.738  0.9590  0.8385 -0.7289
  208MOL0     H28031   2.333   4.537   4.631  0.1878  2.5262  0.9000
  208MOL0     H28032   2.529   4.680   4.636 -0.6544  0.0516  0.2348
  208MOL0     H28033   2.566   4.745   4.795 -1.8826  2.4902 -3.3253
  208MOL0     H28034   2.756   4.551   4.809  0.4844 -1.0512 -1.3243
  208MOL0     H28035   2.719   4.521   4.640 -0.7114 -4.5942  4.0307
  208MOL0     H28036   2.849   4.742   4.788  0.2876  1.2086 -1.2165
  208MOL0     H28037   2.771   4.787   4.634  2.0310  0.9956 -0.7615
  208MOL0     H28038   2.910   4.627   4.514 -1.6117 -2.4416  1.6197
  208MOL0     H28039   2.969   4.566   4.659  0.8285  0.7706  0.7611
  208MOL0     H28040   3.246   4.850   4.727 -1.0016 -1.5406  2.2489
  208MOL0     H28041   3.483   4.774   4.706  0.8559 -1.2694 -0.1047
  208MOL0     H28042   3.745   4.508   4.362 -2.3958  1.3270  1.6756
  208MOL0     H28043   3.964   4.423   4.320 -0.8597 -0.0547 -0.6954
  208MOL0     H28044   4.035   4.187   4.215 -0.6790 -2.5221  1.2467
  208MOL0     H28045   4.145   4.318   4.274 -4.5513  1.8656  3.0359
  208MOL0     H28046   4.209   4.028   4.293  1.5888 -0.8779 -1.4102
  208MOL0     H28047   4.236   4.119   4.137 -1.5913  2.2485 -0.4010
  208MOL0     H28048   4.346   4.169   4.428 -1.6488 -0.2675 -0.3931
  208MOL0     H28049   4.422   4.086   4.315 -0.3656  0.5745  1.6726
  208MOL0     H28050   4.374   4.385   4.314  0.8644 -0.4167 -0.8329
  208MOL0     H28051   4.447   4.301   4.171 -2.1871  0.6460 -1.0240
  208MOL0     H28052   4.607   4.196   4.328 -1.8752 -1.8840  0.1508
  208MOL0     H28053   4.556   4.313   4.456  1.1551  0.7758 -0.6703
  208MOL0     H28054   4.667   4.393   4.183  0.2086 -0.2120  0.9776
  208MOL0     H28055   4.597   4.500   4.302  1.4632  2.0385 -1.7842
  208MOL0     H28056   4.841   4.323   4.366  1.2815  0.1027 -1.6606
  208MOL0     H28057   4.762   4.445   4.469 -3.1775 -3.5188  1.0184
  208MOL0     H28058   4.819   4.590   4.259 -0.3762 -0.2227  1.0644
  208MOL0     H28059   4.970   4.538   4.334  1.0882 -0.5190 -2.6253
  208MOL0     H28060   3.900   4.098   4.596 -2.5190 -1.3037 -1.6805
  208MOL0     H28061   3.684   4.211   4.664 -3.1315 -3.2020 -3.5015
  208MOL0     H28062   3.337   4.454   4.447 -2.3659 -1.5382  1.1870
  208MOL0     H28063   3.109   4.536   4.465  0.5635 -2.0525  1.7403
  208MOL0     H28064   1.229   4.133   4.622  0.5877  0.3111 -0.9860
  208MOL0     H28065   0.982   4.152   4.553 -1.7717 -0.8623  2.2228
  208MOL0     H28066   0.711   4.372   4.333  1.0640  0.1097  1.3969
  208MOL0     H28067   0.489   4.344   4.200 -5.2608 -2.3395 -0.1659
  208MOL0     H28068   0.113   4.318   4.453 -2.3742 -0.6580  0.2800
  208MOL0     H28069   0.159   4.166   4.383  0.7226  0.3884  0.3788
  208MOL0     H28070   0.040   4.246   4.170  0.7582 -1.0135  0.3467
  208MOL0     H28071  -0.025   4.380   4.262 -1.2719 -1.0603 -3.1625
  208MOL0     H28072  -0.084   4.179   4.436  0.5123 -2.8777  0.3062
  208MOL0     H28073  -0.072   4.080   4.288  1.0497  0.5596 -0.0955
  208MOL0     H28074  -0.233   4.322   4.330  1.2151 -0.1502  0.6899
  208MOL0     H28075  -0.230   4.228   4.171  0.0121  2.3951 -0.4170
  208MOL0     H28076  -0.532   4.020   4.362  0.2173 -0.2743  3.0851
  208MOL0     H28077   0.273   4.376   4.556  0.3393 -1.6953  0.9327
  208MOL0     H28078   0.387   4.370   4.765 -0.7268  0.1130 -1.4552
  208MOL0     H28079   0.535   4.456   4.783  1.3534 -0.6712 -1.6193
  208MOL0     H28080   0.390   4.541   4.705 -1.6938 -0.4032  0.8307
  209MOL0     O28081   4.650   9.412   3.965 -0.0901 -0.0854 -0.0514
  209MOL0     C28082   4.609   9.305   4.007 -0.0679 -0.3011 -0.6883
  209MOL0     O28083   4.481   9.276   4.033  0.3480 -0.4635 -0.0241
  209MOL0     C28084   4.398   9.386   4.016 -0.0727  0.3001 -0.3651
  209MOL0     C28085   4.378   9.428   3.891  0.0060 -0.2428 -0.0979
  209MOL0     C28086   4.276   9.527   3.865 -0.1154 -0.3898  0.1645
  209MOL0     C28087   4.194   9.579   3.962  0.6426  0.2555 -0.3044
  209MOL0     O28088   4.096   9.676   3.953  0.4641 -0.0204  1.3307
  209MOL0     C28089   4.057   9.700   3.816 -0.5590 -0.2470 -0.3624
  209MOL0     C28090   3.957   9.812   3.818  0.5077 -0.0147  0.5965
  209MOL0     C28091   4.023   9.936   3.864 -0.1797  0.6616  0.0422
  209MOL0     C28092   3.943  10.063   3.821  0.6228  0.6292  0.0566
  209MOL0     C28093   4.024  10.189   3.847 -0.1528  0.0073  0.0551
  209MOL0     C28094   3.938  10.307   3.810 -0.5943 -0.5412  0.1174
  209MOL0     C28095   4.011  10.438   3.859 -0.3282  0.8618 -0.4085
  209MOL0     C28096   4.115  10.489   3.768  0.3436  0.2024  0.0591
  209MOL0     N28097   4.195  10.593   3.821  0.0567 -0.5689  0.5614
  209MOL0     C28098   4.224  10.714   3.749  0.5194 -0.1122  0.4745
  209MOL0     C28099   4.317  10.769   3.833 -0.1416 -0.3548 -0.0087
  209MOL0     C28100   4.381  10.906   3.802 -0.5812  0.1668  0.2786
  209MOL0     C28101   4.429  10.973   3.935  0.5837 -0.2332  0.5428
  209MOL0     C28102   4.466  11.122   3.914 -0.6562 -0.8703 -0.2127
  209MOL0     C28103   4.602  11.141   3.842 -0.6107 -0.3810  0.3615
  209MOL0     O28104   4.631  11.276   3.813  0.1032  0.2531 -0.2570
  209MOL0     C28105   4.760  11.318   3.822 -0.1840 -0.1765 -0.4671
  209MOL0     C28106   4.830  11.378   3.710 -0.3294  0.5623 -0.1556
  209MOL0     C28107   4.959  11.437   3.720  0.2009  0.0221 -0.1055
  209MOL0     C28108   5.025  11.434   3.849 -0.2348  0.4662  0.1012
  209MOL0     C28109   5.158  11.482   3.868 -0.2946 -0.8418  0.3664
  209MOL0     O28110   5.217  11.457   3.986 -0.0651  0.2490 -0.0229
  209MOL0     C28111   5.357  11.459   3.981 -0.0167 -0.1603  0.1686
  209MOL0     C28112   5.432  11.401   3.874 -0.7353 -0.1045  0.5273
  209MOL0     C28113   5.573  11.412   3.880 -0.2638  0.7379 -0.5389
  209MOL0     C28114   5.638  11.488   3.973 -0.6101 -0.0691 -0.2191
  209MOL0     O28115   5.773  11.503   3.990 -0.0957  0.6965  0.3002
  209MOL0     C28116   5.866  11.437   3.916 -0.1062  0.0605  0.5147
  209MOL0     C28117   6.008  11.491   3.934  0.0733  0.2554 -0.7351
  209MOL0     C28118   6.058  11.459   4.074  0.6128 -0.1084 -0.1299
  209MOL0     C28119   6.206  11.477   4.103  0.5924 -0.5778 -0.1292
  209MOL0     C28120   6.242  11.515   4.244 -0.5009 -0.6316 -0.2091
  209MOL0     C28121   6.396  11.530   4.264 -0.1978  0.1072  0.3188
  209MOL0     C28122   6.408  11.559   4.417 -0.4668 -0.3642  0.2432
  209MOL0     C28123   6.543  11.546   4.471  0.2856 -0.3935 -0.3430
  209MOL0    Cl28124   6.521  11.591   4.645  0.2129 -0.4649 -0.1536
  209MOL0     C28125   5.567  11.548   4.069  0.1507 -0.7139 -1.2367
  209MOL0     C28126   5.419  11.539   4.078 -0.2930  0.4384 -0.2336
  209MOL0     O28127   5.206  11.545   3.776 -0.6180 -0.9345  0.9007
  209MOL0     C28128   4.952  11.368   3.954 -0.4013  1.1789  0.0779
  209MOL0     C28129   4.822  11.319   3.941  0.3724 -0.0929 -0.0705
  209MOL0     N28130   4.330  10.696   3.949  0.0385 -0.0860 -0.0147
  209MOL0     N28131   4.262  10.591   3.943  0.4330  0.2522 -0.2457
  209MOL0     C28132   4.230   9.542   4.091 -0.1699 -0.4094  0.7349
  209MOL0     C28133   4.332   9.449   4.120  0.2723 -0.2197  0.1673
  209MOL0     C28134   4.700   9.193   4.040 -0.2353 -0.6687 -0.8912
  209MOL0     C28135   4.651   9.060   4.030 -0.1831 -0.5511 -0.2035
  209MOL0     C28136   4.728   8.962   4.085 -0.6704  0.5112  0.5019
  209MOL0     C28137   4.851   8.984   4.160 -0.4895  0.3257  0.7759
  209MOL0     O28138   4.931   8.882   4.211 -0.1246 -0.1367 -1.0695
  209MOL0     C28139   4.878   8.753   4.237  0.1713  0.4554  0.4379
  209MOL0     C28140   4.987   8.677   4.315 -0.0077  0.4824 -0.0256
  209MOL0     C28141   5.051   8.753   4.435 -0.5965  0.0373  0.8066
  209MOL0     C28142   5.162   8.660   4.487  0.2443  0.1927  0.0036
  209MOL0     C28143   5.116   8.534   4.548 -0.0158  0.8553  0.4305
  209MOL0     C28144   5.079   8.423   4.583  0.0333  0.2444 -0.0307
  209MOL0     C28145   4.895   9.108   4.161 -0.4742  0.4866  0.1168
  209MOL0     C28146   4.821   9.217   4.106  0.0324  0.3125 -0.6097
  209MOL0     C28147   4.881   9.350   4.143  0.4750 -0.3279  0.6791
  209MOL0     H28148   4.439   9.385   3.812 -2.1956 -1.4255 -1.2331
  209MOL0     H28149   4.267   9.563   3.763  2.3242 -0.1554 -0.0201
  209MOL0     H28150   4.133   9.737   3.746 -0.6719  0.5495 -0.0722
  209MOL0     H28151   4.000   9.615   3.777 -2.1040  0.3167  0.6008
  209MOL0     H28152   3.871   9.799   3.884  0.6870  4.5407  2.0699
  209MOL0     H28153   3.926   9.818   3.714 -2.3941 -0.6495  1.3411
  209MOL0     H28154   4.120   9.954   3.816  0.7648 -3.2791  0.1743
  209MOL0     H28155   4.032   9.937   3.973  2.1979  1.8050 -0.0912
  209MOL0     H28156   3.909  10.064   3.717  1.4083 -0.0807 -0.2211
  209MOL0     H28157   3.846  10.060   3.872  1.6310  1.5501  2.1622
  209MOL0     H28158   4.029  10.192   3.956 -3.8270 -1.8600  0.4314
  209MOL0     H28159   4.119  10.187   3.793 -0.1859 -1.0009  0.0161
  209MOL0     H28160   3.926  10.313   3.701  2.3482 -3.7400 -0.5393
  209MOL0     H28161   3.846  10.289   3.866  0.4261 -3.8545  0.9893
  209MOL0     H28162   4.040  10.432   3.965  1.5597 -2.3668 -0.9585
  209MOL0     H28163   3.933  10.514   3.858 -0.4466  0.8003 -3.2345
  209MOL0     H28164   4.187  10.409   3.748 -0.6322 -1.4030  2.5165
  209MOL0     H28165   4.072  10.517   3.671  1.7535 -1.5964 -1.1732
  209MOL0     H28166   4.177  10.745   3.656 -4.1990  1.6788  3.1319
  209MOL0     H28167   4.461  10.891   3.729 -0.5480 -0.1459  0.3805
  209MOL0     H28168   4.308  10.979   3.765  0.0281  0.9509  0.5841
  209MOL0     H28169   4.340  10.964   3.997 -1.0461  3.6899 -0.8693
  209MOL0     H28170   4.511  10.920   3.985 -0.0168 -1.6873  0.0459
  209MOL0     H28171   4.470  11.163   4.015 -0.4659  1.2585 -1.0162
  209MOL0     H28172   4.377  11.172   3.874 -0.0215  2.0987  1.7256
  209MOL0     H28173   4.605  11.084   3.749 -0.3366  1.5664 -0.8771
  209MOL0     H28174   4.677  11.100   3.911 -1.6175 -1.8791  0.6233
  209MOL0     H28175   4.794  11.375   3.607 -0.0387  2.8542 -0.3811
  209MOL0     H28176   5.002  11.484   3.632 -0.4833  2.6033  0.8365
  209MOL0     H28177   5.398  11.358   3.781  2.3604  0.9121 -1.2182
  209MOL0     H28178   5.629  11.358   3.805 -0.7465 -2.7052  1.3308
  209MOL0     H28179   5.866  11.333   3.948 -1.5143  0.3182  1.4028
  209MOL0     H28180   5.852  11.444   3.808 -0.9675 -0.7085  0.5689
  209MOL0     H28181   6.077  11.438   3.868  0.6145 -0.6626  0.5233
  209MOL0     H28182   6.023  11.597   3.913 -0.0819  0.3110 -0.5672
  209MOL0     H28183   6.003  11.532   4.134 -0.1297 -0.4121 -0.4257
  209MOL0     H28184   6.041  11.353   4.097  0.0684 -0.1296 -0.6135
  209MOL0     H28185   6.235  11.557   4.035  1.4408  1.5920  2.5770
  209MOL0     H28186   6.257  11.380   4.095 -0.3126 -1.1430  0.7097
  209MOL0     H28187   6.203  11.429   4.300 -0.6268 -1.5565 -1.6480
  209MOL0     H28188   6.198  11.610   4.276  0.0869  1.1114 -3.9893
  209MOL0     H28189   6.444  11.437   4.232 -1.3239  0.1818 -1.7390
  209MOL0     H28190   6.442  11.606   4.199  1.0377 -2.1551 -1.6270
  209MOL0     H28191   6.348  11.481   4.464  2.9625 -4.2709 -1.2805
  209MOL0     H28192   6.376  11.661   4.441  0.5512  0.7829 -2.7676
  209MOL0     H28193   6.591  11.448   4.460 -2.4682 -1.6010 -2.9053
  209MOL0     H28194   6.595  11.625   4.416  0.9970  1.5033  2.8063
  209MOL0     H28195   5.621  11.607   4.142 -0.5995 -2.2118  0.5856
  209MOL0     H28196   5.362  11.603   4.144 -1.7189  2.4029 -3.1633
  209MOL0     H28197   5.002  11.348   4.049  0.8325  0.2202 -0.7373
  209MOL0     H28198   4.781  11.274   4.031  0.8786 -0.3154  0.0490
  209MOL0     H28199   4.165   9.578   4.170 -0.6212  3.6375 -1.2149
  209MOL0     H28200   4.367   9.418   4.218  0.1310 -2.3276 -0.3983
  209MOL0     H28201   4.566   9.051   3.962 -0.7810  2.2306  0.0412
  209MOL0     H28202   4.691   8.860   4.078  0.1516  0.1502  1.2865
  209MOL0     H28203   4.859   8.701   4.143  1.0350  2.8293 -1.1443
  209MOL0     H28204   4.788   8.754   4.298 -0.4386 -4.0337 -0.0489
  209MOL0     H28205   5.064   8.655   4.239 -1.5849  0.2854 -1.6328
  209MOL0     H28206   4.935   8.587   4.349 -1.9362  1.8995  0.9593
  209MOL0     H28207   4.979   8.778   4.512  0.0569 -0.3788  1.5744
  209MOL0     H28208   5.085   8.849   4.396 -2.2538  0.9665  1.5757
  209MOL0     H28209   5.245   8.626   4.425 -0.0296 -1.2115  0.3730
  209MOL0     H28210   5.226   8.717   4.554 -1.2049  2.2741 -0.2856
  209MOL0     H28211   5.051   8.323   4.608 -0.8437 -0.3495 -2.9465
  209MOL0     H28212   4.992   9.122   4.206  1.5877  0.3411 -3.8238
  209MOL0     H28213   4.890   9.409   4.051 -0.2215  1.0322  1.4595
  209MOL0     H28214   4.811   9.404   4.208 -0.4270 -3.4524  2.5215
  209MOL0     H28215   4.980   9.333   4.187 -0.3835 -1.1294  2.3685
  210MOL0     O28216   1.518   3.841   3.623  0.1011 -0.4750  0.0502
  210MOL0     C28217   1.430   3.836   3.712 -0.2677 -0.2199  0.1102
  210MOL0     O28218   1.451   3.793   3.841  0.2584  0.2225 -0.3942
  210MOL0     C28219   1.580   3.783   3.883 -0.4155  0.0263 -0.7277
  210MOL0     C28220   1.603   3.829   4.009 -0.3294  0.3915  0.7779
  210MOL0     C28221   1.727   3.807   4.072  0.6680 -0.4989  0.7097
  210MOL0     C28222   1.829   3.738   4.004 -0.1524  1.0630  0.0260
  210MOL0     O28223   1.950   3.716   4.076  0.0829  0.0323  0.0407
  210MOL0     C28224   2.058   3.632   4.033 -0.1502 -0.1010  0.1158
  210MOL0     C28225   2.192   3.644   4.110 -0.3542 -0.6009 -0.7638
  210MOL0     C28226   2.171   3.647   4.262  0.2255 -0.8870  0.0149
  210MOL0     C28227   2.307   3.675   4.325 -0.1283  0.2355 -0.1951
  210MOL0     C28228   2.314   3.654   4.474  0.4627 -0.6096  0.7627
  210MOL0     C28229   2.448   3.684   4.552 -0.2590  0.2529 -0.0690
  210MOL0     C28230   2.457   3.621   4.690  0.0313 -0.1494 -0.9487
  210MOL0     C28231   2.582   3.666   4.778  0.4503 -0.1117  1.1813
  210MOL0     N28232   2.709   3.608   4.727  0.1373 -0.6130  0.1057
  210MOL0     C28233   2.805   3.683   4.668 -0.2367 -0.7744  0.5637
  210MOL0     C28234   2.895   3.593   4.620 -0.3473 -0.8117  0.0993
  210MOL0     C28235   3.024   3.628   4.551 -0.4853 -0.5999 -0.6237
  210MOL0     C28236   3.142   3.533   4.599  0.4622  0.4733  0.5505
  210MOL0     C28237   3.276   3.598   4.571  0.4225  0.3266  0.4296
  210MOL0     C28238   3.384   3.498   4.599 -0.4275 -0.4230  0.7281
  210MOL0     O28239   3.413   3.494   4.740 -0.1225  0.4504 -0.3700
  210MOL0     C28240   3.513   3.406   4.776 -0.5244 -0.1955 -0.9195
  210MOL0     C28241   3.562   3.435   4.914 -0.4679  0.7056  1.2643
  210MOL0     C28242   3.659   3.350   4.961  0.1041 -0.6219  0.5549
  210MOL0     C28243   3.720   3.249   4.889 -0.5333 -0.0261 -0.4349
  210MOL0     C28244   3.828   3.169   4.942 -0.5396 -0.3439 -0.0333
  210MOL0     O28245   3.913   3.108   4.853 -0.4349 -0.7001  0.0963
  210MOL0     C28246   4.015   3.029   4.911  0.0798 -0.7700 -0.1807
  210MOL0     C28247   4.147   3.072   4.917 -0.5328  0.5103 -0.3022
  210MOL0     C28248   4.247   2.984   4.970 -0.5782  0.5359  0.5535
  210MOL0     C28249   4.212   2.850   4.997  0.2603 -0.1296 -0.4303
  210MOL0     O28250   4.318   2.765   5.030  0.3365  0.0713  0.3499
  210MOL0     C28251   4.292   2.624   5.035  0.8233 -0.1321  0.7646
  210MOL0     C28252   4.416   2.548   5.077  0.2799  0.0570  0.6034
  210MOL0     C28253   4.527   2.573   4.976 -0.4226 -0.6511  0.0730
  210MOL0     C28254   4.593   2.435   4.942 -0.1603 -0.2377 -0.1945
  210MOL0     C28255   4.710   2.450   4.833  0.1904 -0.3417 -0.6169
  210MOL0     C28256   4.758   2.315   4.783  0.4725 -1.2228 -0.8622
  210MOL0     C28257   4.864   2.317   4.680 -0.5293  0.2339 -0.3741
  210MOL0     C28258   4.828   2.280   4.534 -0.0743  0.1002 -1.1167
  210MOL0    Cl28259   4.973   2.222   4.441  0.4496 -0.4576 -0.0369
  210MOL0     C28260   4.075   2.815   4.998 -0.2201 -0.5960 -0.1280
  210MOL0     C28261   3.974   2.905   4.962 -0.3568  0.2733  0.6121
  210MOL0     O28262   3.834   3.158   5.064 -0.4631 -0.4754 -0.3623
  210MOL0     C28263   3.670   3.224   4.756  0.0341  0.6493 -0.3330
  210MOL0     C28264   3.571   3.302   4.701 -1.2827 -0.5933  0.6141
  210MOL0     N28265   2.853   3.466   4.647  0.5624  0.0962  0.4961
  210MOL0     N28266   2.746   3.472   4.719 -1.0643  0.1202 -0.6992
  210MOL0     C28267   1.794   3.678   3.881  0.5701  0.9456  0.0104
  210MOL0     C28268   1.667   3.701   3.824  0.1968  0.6596  0.2777
  210MOL0     C28269   1.293   3.873   3.686  0.7523  0.5368 -0.1193
  210MOL0     C28270   1.232   3.975   3.774  0.4477 -0.2922  0.2882
  210MOL0     C28271   1.103   4.018   3.739 -0.0130  0.0986  0.2294
  210MOL0     C28272   1.029   3.965   3.630 -0.9489 -0.6529  0.3000
  210MOL0     O28273   0.904   4.000   3.584 -0.3508 -0.1244  0.1485
  210MOL0     C28274   0.828   4.083   3.669  0.9790 -0.7796  0.7817
  210MOL0     C28275   0.694   4.092   3.602 -0.6211  0.4412  0.6802
  210MOL0     C28276   0.610   3.965   3.584  0.1591 -0.3934  1.1081
  210MOL0     C28277   0.498   3.995   3.479 -0.1152 -0.1980  0.0409
  210MOL0     C28278   0.383   4.063   3.541 -0.2256  0.0273  0.0582
  210MOL0     C28279   0.288   4.091   3.604  0.4812  0.2058 -0.6256
  210MOL0     C28280   1.092   3.858   3.562  0.7766 -0.7392  0.2308
  210MOL0     C28281   1.222   3.812   3.588 -0.0059  0.0488 -0.2788
  210MOL0     C28282   1.284   3.696   3.509  0.0121 -0.6209  0.5657
  210MOL0     H28283   1.523   3.886   4.056 -0.4350  1.1656 -0.3000
  210MOL0     H28284   1.739   3.851   4.171 -0.9367 -0.2954  0.8437
  210MOL0     H28285   2.026   3.530   4.057 -0.1749 -0.7427 -2.3054
  210MOL0     H28286   2.083   3.648   3.927 -0.9586  1.8620  0.1928
  210MOL0     H28287   2.240   3.740   4.087  1.5932 -1.1994  0.5111
  210MOL0     H28288   2.255   3.559   4.083 -1.1522 -1.2346 -0.6593
  210MOL0     H28289   2.132   3.550   4.294 -2.3235  0.9404  3.0246
  210MOL0     H28290   2.102   3.728   4.283 -0.5503 -1.5001 -0.1201
  210MOL0     H28291   2.381   3.607   4.283 -0.0042 -0.1189  0.5750
  210MOL0     H28292   2.344   3.774   4.296 -0.1479  0.0573 -0.8324
  210MOL0     H28293   2.227   3.704   4.517 -1.0310 -2.2464 -0.1679
  210MOL0     H28294   2.298   3.547   4.490  1.5217 -0.8039  0.5922
  210MOL0     H28295   2.536   3.666   4.491 -0.9693  2.4222 -1.8550
  210MOL0     H28296   2.449   3.791   4.571 -3.4260  0.1282  1.4334
  210MOL0     H28297   2.469   3.513   4.681  2.7532  0.2003 -2.4780
  210MOL0     H28298   2.369   3.651   4.748  0.4440  1.5349 -1.1299
  210MOL0     H28299   2.592   3.775   4.774 -2.0098  0.1583 -2.3244
  210MOL0     H28300   2.577   3.626   4.880  1.5902 -1.2867  0.8045
  210MOL0     H28301   2.808   3.787   4.635  2.6583 -1.3515 -1.3564
  210MOL0     H28302   3.029   3.614   4.443  1.6858  0.3054 -0.6975
  210MOL0     H28303   3.053   3.729   4.583 -3.7794  0.0805  0.6176
  210MOL0     H28304   3.127   3.502   4.702 -3.4801 -1.4976 -0.4244
  210MOL0     H28305   3.130   3.433   4.556 -4.1303 -0.0570  2.4516
  210MOL0     H28306   3.284   3.681   4.642 -1.9939  0.2432  0.8996
  210MOL0     H28307   3.281   3.620   4.464 -3.6438 -1.5678 -0.3683
  210MOL0     H28308   3.468   3.543   4.546 -0.7349  1.2159  1.5634
  210MOL0     H28309   3.362   3.397   4.563 -1.7854 -0.5094  1.7332
  210MOL0     H28310   3.527   3.512   4.982  2.7645  1.6391  2.0562
  210MOL0     H28311   3.702   3.364   5.060  1.0061 -0.8604  0.1984
  210MOL0     H28312   4.167   3.171   4.877 -1.8015  0.1124 -1.9962
  210MOL0     H28313   4.342   3.034   4.981 -1.4401  2.4483 -0.2236
  210MOL0     H28314   4.218   2.603   5.112  0.5478  2.3609  1.2765
  210MOL0     H28315   4.255   2.600   4.936  0.3352 -0.1649  0.9542
  210MOL0     H28316   4.451   2.567   5.179  1.9433 -0.8533  0.2411
  210MOL0     H28317   4.395   2.441   5.078 -0.6816  0.1752 -1.2954
  210MOL0     H28318   4.499   2.625   4.884  3.3461  1.5772 -0.0496
  210MOL0     H28319   4.608   2.635   5.017  0.2086 -0.3504 -1.5460
  210MOL0     H28320   4.513   2.368   4.910 -0.1832 -0.4612  0.3285
  210MOL0     H28321   4.626   2.387   5.034  0.5115 -0.0352 -0.3259
  210MOL0     H28322   4.798   2.504   4.870  2.1272 -3.2111 -0.7702
  210MOL0     H28323   4.670   2.508   4.750 -1.4799  1.2112  1.1716
  210MOL0     H28324   4.795   2.260   4.870 -2.2651  1.6964  2.4605
  210MOL0     H28325   4.667   2.268   4.744 -0.7202  0.0169  0.3144
  210MOL0     H28326   4.948   2.255   4.715  1.6780  2.7319 -0.9197
  210MOL0     H28327   4.909   2.416   4.676 -0.3742  0.2773  1.7158
  210MOL0     H28328   4.760   2.194   4.540 -0.0531  0.1516  0.2130
  210MOL0     H28329   4.777   2.368   4.494 -0.6352  0.6895  0.7810
  210MOL0     H28330   4.035   2.719   5.031  0.2213  0.2971  3.4391
  210MOL0     H28331   3.869   2.881   4.965 -0.5174  0.8368 -0.3668
  210MOL0     H28332   3.708   3.144   4.693 -1.5033  0.0711 -0.5606
  210MOL0     H28333   3.535   3.286   4.600 -0.5972  0.8373  0.1257
  210MOL0     H28334   1.876   3.630   3.830  0.7558 -0.3704  1.4908
  210MOL0     H28335   1.623   3.654   3.737  0.1270  2.5317 -0.7403
  210MOL0     H28336   1.293   4.024   3.850 -0.0304 -1.7929  1.6942
  210MOL0     H28337   1.072   4.106   3.794 -0.1822  0.4542 -0.4249
  210MOL0     H28338   0.866   4.186   3.675  1.1267 -0.6922 -1.0527
  210MOL0     H28339   0.822   4.048   3.773 -1.3586 -0.4844  0.7986
  210MOL0     H28340   0.725   4.136   3.507  0.7969  0.0096  0.9111
  210MOL0     H28341   0.642   4.166   3.663  0.5124  1.2891  0.6384
  210MOL0     H28342   0.557   3.945   3.677 -1.1879  0.3091  0.5273
  210MOL0     H28343   0.668   3.877   3.555  1.1971  0.2609  1.1447
  210MOL0     H28344   0.547   4.057   3.403 -0.6547 -1.4992 -1.4141
  210MOL0     H28345   0.473   3.901   3.430  0.1852 -1.1820  1.7222
  210MOL0     H28346   0.213   4.121   3.674  1.2319  0.3754  0.1185
  210MOL0     H28347   1.035   3.814   3.480  1.0689  1.1196 -1.0365
  210MOL0     H28348   1.368   3.730   3.448 -0.9707 -0.2878 -0.6335
  210MOL0     H28349   1.323   3.623   3.580 -0.8469  1.5770  3.5116
  210MOL0     H28350   1.205   3.652   3.447 -1.5742  2.0501  0.5125
  211MOL0     O28351   5.450   8.017   8.955 -0.2212  0.5462 -0.1692
  211MOL0     C28352   5.481   7.921   8.879  0.0583 -0.1552 -1.0446
  211MOL0     O28353   5.407   7.874   8.781  0.0471  0.3258 -0.4835
  211MOL0     C28354   5.274   7.906   8.767  0.1475 -0.1609 -0.1922
  211MOL0     C28355   5.233   7.943   8.646  0.1031 -0.5200  0.6459
  211MOL0     C28356   5.102   7.972   8.619  0.4219  0.4429  0.2636
  211MOL0     C28357   5.003   7.977   8.727  0.4566  1.0437  0.2116
  211MOL0     O28358   4.872   8.014   8.718  0.0189 -0.1625  0.2038
  211MOL0     C28359   4.829   8.061   8.588 -0.2341  0.9534 -0.0281
  211MOL0     C28360   4.694   8.127   8.582 -0.1346 -0.0207  0.0019
  211MOL0     C28361   4.579   8.043   8.651 -0.5698  0.6221 -0.4319
  211MOL0     C28362   4.442   8.117   8.652 -0.0185  0.6632  0.3854
  211MOL0     C28363   4.338   8.065   8.755 -0.2160 -0.3164 -0.1211
  211MOL0     C28364   4.207   8.137   8.702 -0.5455 -0.2842 -0.0828
  211MOL0     C28365   4.090   8.109   8.797  0.1651 -1.0855  0.3177
  211MOL0     C28366   4.072   7.960   8.831 -0.1366 -0.3957  0.0971
  211MOL0     N28367   4.043   7.888   8.703 -0.0673  0.6327  0.4088
  211MOL0     C28368   3.916   7.869   8.652 -0.1271 -0.9301  0.4769
  211MOL0     C28369   3.932   7.764   8.572 -0.1221 -0.0417  0.3638
  211MOL0     C28370   3.814   7.705   8.500 -0.9019  1.3636  0.2835
  211MOL0     C28371   3.744   7.600   8.601 -0.0267 -0.9765  0.0762
  211MOL0     C28372   3.624   7.528   8.521 -0.7699 -0.0377 -0.5333
  211MOL0     C28373   3.540   7.440   8.617 -0.0532  0.3913  0.2217
  211MOL0     O28374   3.449   7.361   8.538 -0.3743 -0.2656 -0.1980
  211MOL0     C28375   3.369   7.275   8.606  0.2790 -0.0830  0.1428
  211MOL0     C28376   3.377   7.243   8.742  0.0205  0.4651 -0.0888
  211MOL0     C28377   3.286   7.153   8.810  0.2715 -0.1373 -0.5967
  211MOL0     C28378   3.197   7.083   8.736 -0.0028  0.1998  0.7459
  211MOL0     C28379   3.117   6.973   8.794  0.2733 -0.0954  1.7778
  211MOL0     O28380   3.105   6.965   8.923  0.5677 -0.0270 -0.2234
  211MOL0     C28381   3.043   6.855   8.969  0.0062  0.1096 -0.0965
  211MOL0     C28382   2.931   6.866   9.052  0.4414 -0.9401  0.6876
  211MOL0     C28383   2.862   6.752   9.104 -0.4033  0.6384  0.2194
  211MOL0     C28384   2.921   6.629   9.082  0.3090  0.2649 -0.1863
  211MOL0     O28385   2.881   6.503   9.127 -0.2107 -0.2517 -0.3044
  211MOL0     C28386   2.743   6.474   9.148 -0.1318  0.5305  0.5842
  211MOL0     C28387   2.725   6.323   9.175  0.0281 -0.3137  0.2205
  211MOL0     C28388   2.580   6.276   9.139 -0.2628 -0.0786  0.7091
  211MOL0     C28389   2.466   6.327   9.245 -0.1453  0.5401  0.2964
  211MOL0     C28390   2.344   6.244   9.222 -0.0507  0.2044  0.5782
  211MOL0     C28391   2.268   6.273   9.096 -0.9602  0.2129  0.0197
  211MOL0     C28392   2.147   6.185   9.086  0.7282 -0.1935  0.3088
  211MOL0     C28393   2.075   6.200   8.954  0.2789 -0.4191  0.9222
  211MOL0    Cl28394   1.973   6.356   8.951 -0.0795  0.2933  0.1639
  211MOL0     C28395   3.030   6.614   9.006  0.2782 -0.3760  0.6305
  211MOL0     C28396   3.096   6.723   8.953  0.1157  1.0581  0.7487
  211MOL0     O28397   3.062   6.894   8.714  0.4291 -0.4218 -0.2209
  211MOL0     C28398   3.190   7.104   8.599 -0.0228  0.1498  0.2648
  211MOL0     C28399   3.269   7.209   8.535 -0.7370  1.5000 -0.7827
  211MOL0     N28400   4.060   7.720   8.572  0.5884  0.3286  0.4102
  211MOL0     N28401   4.129   7.805   8.634 -0.3968 -0.6887  0.1161
  211MOL0     C28402   5.054   7.942   8.853  0.2543 -0.2124  1.3612
  211MOL0     C28403   5.184   7.906   8.872 -0.5587 -0.2608  0.7801
  211MOL0     C28404   5.604   7.846   8.909 -0.3026 -0.5548  0.0394
  211MOL0     C28405   5.710   7.930   8.940 -0.4166  0.4773  0.5400
  211MOL0     C28406   5.833   7.872   8.975 -0.5527 -0.7014  0.3501
  211MOL0     C28407   5.859   7.733   8.970  0.2551  0.0142  0.6274
  211MOL0     O28408   5.985   7.689   8.999  0.3573  0.1666 -0.0633
  211MOL0     C28409   6.021   7.549   9.004 -0.1945 -0.1274 -0.6460
  211MOL0     C28410   6.173   7.533   9.021  0.6886 -0.1790  0.6728
  211MOL0     C28411   6.255   7.600   8.910 -0.5425 -0.2147  0.1082
  211MOL0     C28412   6.214   7.552   8.762 -0.4752 -0.3020  0.3511
  211MOL0     C28413   6.314   7.588   8.664  0.3390  0.6034 -0.2299
  211MOL0     C28414   6.391   7.628   8.581 -0.0989 -0.4464  0.1178
  211MOL0     C28415   5.743   7.648   8.943 -0.3019  0.3748  0.0983
  211MOL0     C28416   5.623   7.704   8.918  0.1857  0.1006 -0.3757
  211MOL0     C28417   5.515   7.619   8.872  0.6510 -0.3742 -0.4050
  211MOL0     H28418   5.298   7.919   8.563  2.0123  0.4008  1.8282
  211MOL0     H28419   5.073   7.987   8.516  1.1966 -0.3819 -0.0844
  211MOL0     H28420   4.902   8.138   8.565 -0.8736  1.8506  0.8842
  211MOL0     H28421   4.830   7.979   8.515  1.3322 -0.4572  1.4708
  211MOL0     H28422   4.686   8.138   8.473  0.4933 -1.0902 -0.1649
  211MOL0     H28423   4.700   8.224   8.632  1.4656 -1.7889  3.6035
  211MOL0     H28424   4.613   8.031   8.754  1.3784  4.1260 -0.4958
  211MOL0     H28425   4.571   7.946   8.600  3.8469  0.8275 -1.9827
  211MOL0     H28426   4.455   8.225   8.668 -1.3435  1.2706 -2.0347
  211MOL0     H28427   4.406   8.124   8.549  1.8424  0.7856 -0.2854
  211MOL0     H28428   4.326   7.958   8.738 -0.2253 -0.7544  2.3774
  211MOL0     H28429   4.373   8.086   8.856  2.8045 -0.1302 -1.1053
  211MOL0     H28430   4.237   8.242   8.692  1.0832 -0.8335 -1.5204
  211MOL0     H28431   4.192   8.090   8.604  1.8398 -0.7308 -0.3067
  211MOL0     H28432   4.001   8.155   8.752  1.2166  1.5141  0.7281
  211MOL0     H28433   4.116   8.160   8.890  1.0038  0.7648 -0.8529
  211MOL0     H28434   4.167   7.923   8.871  0.8877  4.0540  2.4259
  211MOL0     H28435   3.995   7.935   8.904  0.4318  0.0284  0.8522
  211MOL0     H28436   3.824   7.922   8.672  1.3331  1.1807  2.0192
  211MOL0     H28437   3.753   7.786   8.460 -0.7687  1.9635  1.2762
  211MOL0     H28438   3.862   7.654   8.415 -2.4796 -2.1956  1.3196
  211MOL0     H28439   3.814   7.521   8.631 -0.0274 -0.5052  1.3729
  211MOL0     H28440   3.709   7.654   8.689  0.4191 -1.8459  0.7996
  211MOL0     H28441   3.668   7.459   8.448  3.9284  1.8459  0.1582
  211MOL0     H28442   3.558   7.600   8.473 -0.4120  0.9060  0.3540
  211MOL0     H28443   3.487   7.514   8.677  1.4398 -0.5559  2.8603
  211MOL0     H28444   3.601   7.375   8.679 -1.2437 -2.1779 -1.1529
  211MOL0     H28445   3.450   7.293   8.806  2.3345 -0.4413 -1.8962
  211MOL0     H28446   3.300   7.137   8.917  0.3026 -3.1932 -0.9598
  211MOL0     H28447   2.894   6.964   9.078  0.2059  0.8760 -5.1387
  211MOL0     H28448   2.780   6.760   9.175  0.3753 -0.8518  1.3552
  211MOL0     H28449   2.707   6.527   9.237  1.8199 -0.1248  1.8305
  211MOL0     H28450   2.687   6.487   9.055 -2.8604 -1.9533  1.7228
  211MOL0     H28451   2.801   6.279   9.110  2.0380 -0.5959  2.6323
  211MOL0     H28452   2.742   6.296   9.279 -2.6838  1.5380  1.2506
  211MOL0     H28453   2.541   6.323   9.048  1.1471  0.3446  0.2993
  211MOL0     H28454   2.572   6.168   9.124 -2.4493 -0.0751  1.3915
  211MOL0     H28455   2.455   6.435   9.229 -1.8673  0.4940  0.9863
  211MOL0     H28456   2.505   6.303   9.344 -0.3341  1.7242  0.6718
  211MOL0     H28457   2.261   6.254   9.293 -0.0624  1.8689  0.3799
  211MOL0     H28458   2.374   6.139   9.221  0.3223  0.3047  1.1264
  211MOL0     H28459   2.235   6.377   9.084 -2.0533 -0.3602 -2.6380
  211MOL0     H28460   2.327   6.247   9.007 -1.7704 -0.8754 -0.2095
  211MOL0     H28461   2.081   6.203   9.171  1.1457 -0.0873  0.6171
  211MOL0     H28462   2.165   6.078   9.100 -1.8816 -0.8248 -0.6556
  211MOL0     H28463   2.146   6.205   8.872 -0.3510  1.8120  0.4391
  211MOL0     H28464   2.005   6.117   8.938 -1.3271  0.9534  0.5655
  211MOL0     H28465   3.067   6.514   8.989 -1.2195 -1.2073  2.0472
  211MOL0     H28466   3.192   6.712   8.903  0.8730  2.5365  1.7978
  211MOL0     H28467   3.116   7.050   8.542  0.8025 -1.4216  0.6327
  211MOL0     H28468   3.260   7.221   8.427 -4.0143  0.2588 -0.7610
  211MOL0     H28469   4.987   7.935   8.938 -1.6054 -2.2135 -0.1391
  211MOL0     H28470   5.206   7.880   8.975  3.0746 -3.3652 -0.5339
  211MOL0     H28471   5.696   8.038   8.934 -1.5439  0.2840 -0.8501
  211MOL0     H28472   5.915   7.934   9.011 -0.0503 -2.3632  2.2893
  211MOL0     H28473   5.984   7.501   8.913 -2.9388 -0.6782  0.6286
  211MOL0     H28474   5.966   7.505   9.088 -1.9518  0.6847 -1.3025
  211MOL0     H28475   6.201   7.428   9.027 -1.4095 -0.9859 -1.7279
  211MOL0     H28476   6.191   7.581   9.118  3.7884 -0.0833  0.1463
  211MOL0     H28477   6.357   7.566   8.932 -0.1779  0.9718  0.3349
  211MOL0     H28478   6.254   7.707   8.932 -1.1855 -0.2706  0.3493
  211MOL0     H28479   6.204   7.443   8.762 -2.7044 -0.1523  2.3098
  211MOL0     H28480   6.119   7.596   8.731 -0.1007  0.0449 -0.3247
  211MOL0     H28481   6.464   7.668   8.513 -1.7671  4.7991  0.9640
  211MOL0     H28482   5.772   7.544   8.946 -1.0543  0.1675  0.3122
  211MOL0     H28483   5.532   7.515   8.900 -2.7172  0.1266  5.0951
  211MOL0     H28484   5.421   7.635   8.926  1.2231 -1.3805  0.9339
  211MOL0     H28485   5.494   7.625   8.765 -1.2684 -0.9538 -0.0963
  212MOL0     O28486   6.317   2.772   4.123  0.3401  0.0506  0.1774
  212MOL0     C28487   6.290   2.737   4.011 -0.0802  0.3883 -0.3239
  212MOL0     O28488   6.368   2.647   3.923 -0.2633  0.0691 -0.3046
  212MOL0     C28489   6.488   2.611   3.978  0.1915 -0.4712  0.5334
  212MOL0     C28490   6.498   2.493   4.057 -0.1232 -0.3777  0.3828
  212MOL0     C28491   6.620   2.448   4.116 -1.0946  0.1297 -0.2641
  212MOL0     C28492   6.741   2.516   4.084 -0.0963  0.1548 -0.8593
  212MOL0     O28493   6.857   2.487   4.147 -0.0068  0.0762  0.2585
  212MOL0     C28494   6.960   2.429   4.074 -0.1500 -0.4959 -0.0900
  212MOL0     C28495   7.090   2.493   4.105 -0.3894 -0.0678  0.1967
  212MOL0     C28496   7.115   2.643   4.053 -0.9399  0.6006 -0.3274
  212MOL0     C28497   7.258   2.692   4.079 -0.8025  0.3957  0.3635
  212MOL0     C28498   7.363   2.631   3.982 -0.6143  0.1717 -0.3047
  212MOL0     C28499   7.495   2.713   3.993  1.0424 -0.7297  0.2173
  212MOL0     C28500   7.567   2.708   4.131  0.0781  0.1627  0.0793
  212MOL0     C28501   7.685   2.795   4.123 -0.5612 -0.9592 -0.4187
  212MOL0     N28502   7.779   2.783   4.236  0.0455 -0.4095 -0.4031
  212MOL0     C28503   7.756   2.833   4.360 -0.3317  0.2141 -0.0694
  212MOL0     C28504   7.860   2.779   4.429 -0.0293 -0.4860 -0.3140
  212MOL0     C28505   7.888   2.814   4.572  0.5511  0.1368 -0.6058
  212MOL0     C28506   8.036   2.842   4.591 -0.3546 -0.0060 -0.9383
  212MOL0     C28507   8.085   2.981   4.548 -0.6379 -0.1485  0.7845
  212MOL0     C28508   8.236   2.981   4.545  0.3539 -0.4475  0.3489
  212MOL0     O28509   8.282   3.113   4.489  0.5767  0.2791 -0.2852
  212MOL0     C28510   8.412   3.131   4.438  0.1397 -0.4593  0.8760
  212MOL0     C28511   8.515   3.044   4.478 -0.9532 -0.2908  0.6927
  212MOL0     C28512   8.644   3.062   4.428 -0.0084  0.4493  0.2622
  212MOL0     C28513   8.677   3.176   4.352 -0.6221  0.4786  1.0212
  212MOL0     C28514   8.825   3.207   4.324  0.1019 -0.4375 -0.4137
  212MOL0     O28515   8.908   3.100   4.338  1.2823 -0.5524 -0.6074
  212MOL0     C28516   9.029   3.107   4.285 -0.3618 -0.1475 -0.5628
  212MOL0     C28517   9.137   3.185   4.337 -0.2095  0.0001 -0.2769
  212MOL0     C28518   9.270   3.160   4.293  0.5430  0.3996  0.0502
  212MOL0     C28519   9.296   3.066   4.198 -0.0500 -0.0204  0.0593
  212MOL0     O28520   9.426   3.048   4.152 -0.5139  0.0848  0.0373
  212MOL0     C28521   9.461   3.089   4.023  0.9734 -0.0763 -0.5565
  212MOL0     C28522   9.603   3.123   4.019  0.2133  0.0593  0.0529
  212MOL0     C28523   9.628   3.247   4.100 -0.3179  0.6288  0.0223
  212MOL0     C28524   9.768   3.291   4.061 -0.0355 -0.4563  1.1684
  212MOL0     C28525   9.789   3.436   4.088 -0.5566 -1.0404  0.7552
  212MOL0     C28526   9.939   3.467   4.096 -0.1409  0.2842  0.5329
  212MOL0     C28527  10.002   3.442   3.962 -0.2135 -0.2120  0.7593
  212MOL0     C28528  10.148   3.479   3.957  0.6222  0.0275 -0.2647
  212MOL0    Cl28529  10.181   3.654   4.011  0.5176 -0.1090  0.2400
  212MOL0     C28530   9.190   2.989   4.143 -0.9646  0.5311  0.9969
  212MOL0     C28531   9.060   3.011   4.189 -0.1999  0.4030  0.8352
  212MOL0     O28532   8.860   3.315   4.283  0.8780  0.2494 -0.2548
  212MOL0     C28533   8.574   3.260   4.316 -0.1129 -0.6540 -0.0143
  212MOL0     C28534   8.441   3.234   4.359  0.6948 -0.6583  0.5126
  212MOL0     N28535   7.946   2.704   4.346  0.5339  0.9003 -0.0067
  212MOL0     N28536   7.880   2.700   4.235  0.0297  0.3299  0.3606
  212MOL0     C28537   6.738   2.619   3.992  0.3623 -0.1568  0.0891
  212MOL0     C28538   6.613   2.665   3.949  0.1013 -0.6958  0.3269
  212MOL0     C28539   6.174   2.796   3.959 -0.1697 -1.0043  0.3294
  212MOL0     C28540   6.185   2.936   3.933  0.0652  0.4566 -0.1488
  212MOL0     C28541   6.071   3.013   3.899 -0.3160 -0.1668 -0.1397
  212MOL0     C28542   5.947   2.943   3.883 -0.1096 -0.0322  0.3220
  212MOL0     O28543   5.832   3.009   3.847 -0.0292  0.8083 -0.2735
  212MOL0     C28544   5.825   3.103   3.750  0.0190 -0.6779  0.3816
  212MOL0     C28545   5.824   3.254   3.794 -0.8488  0.4004 -0.2485
  212MOL0     C28546   5.700   3.308   3.875 -0.2535  0.3590  0.4573
  212MOL0     C28547   5.560   3.303   3.797 -0.2843 -0.7562 -0.4497
  212MOL0     C28548   5.552   3.403   3.693 -0.4472  0.5903 -0.9421
  212MOL0     C28549   5.556   3.500   3.615 -0.1903  0.6551 -0.0104
  212MOL0     C28550   5.941   2.802   3.901  0.0544 -0.4148  0.2701
  212MOL0     C28551   6.049   2.726   3.940  0.0956  0.6041 -0.8294
  212MOL0     C28552   6.021   2.575   3.966 -0.0074 -0.5009 -0.1624
  212MOL0     H28553   6.409   2.440   4.088  0.5201 -1.0972  1.0322
  212MOL0     H28554   6.624   2.379   4.199  0.0076 -2.2315 -2.1616
  212MOL0     H28555   6.963   2.325   4.107 -0.1523 -0.4645  0.0078
  212MOL0     H28556   6.952   2.432   3.965  2.8302  1.7185 -0.3630
  212MOL0     H28557   7.161   2.418   4.067 -1.2824  0.1789 -2.1538
  212MOL0     H28558   7.096   2.490   4.214  3.1889 -4.1699  0.1399
  212MOL0     H28559   7.042   2.705   4.106 -0.4290  0.5565  0.4353
  212MOL0     H28560   7.097   2.652   3.945  2.8732  0.8802 -1.0698
  212MOL0     H28561   7.258   2.796   4.047 -1.2651  0.9011  1.9170
  212MOL0     H28562   7.286   2.685   4.185 -0.0425 -1.0444  0.0941
  212MOL0     H28563   7.380   2.526   4.005 -1.4812 -0.2084 -1.3266
  212MOL0     H28564   7.328   2.627   3.878 -1.3231  0.7103 -0.0965
  212MOL0     H28565   7.562   2.661   3.925  0.2068 -1.9717  0.3023
  212MOL0     H28566   7.486   2.817   3.959  2.1760 -0.6875  0.0289
  212MOL0     H28567   7.601   2.605   4.146 -1.7449 -0.6072 -0.8382
  212MOL0     H28568   7.507   2.732   4.219 -1.7385 -1.3104 -0.7102
  212MOL0     H28569   7.750   2.764   4.041  1.4613  1.3837  0.1546
  212MOL0     H28570   7.661   2.898   4.093 -2.8794 -2.1383 -3.0838
  212MOL0     H28571   7.679   2.899   4.398  1.2755  0.3053  3.3753
  212MOL0     H28572   7.835   2.908   4.593  0.8021  0.8110 -2.6778
  212MOL0     H28573   7.859   2.734   4.640  1.4363  0.0811 -0.2813
  212MOL0     H28574   8.061   2.833   4.697  0.2413  1.3193 -0.9490
  212MOL0     H28575   8.093   2.763   4.540 -2.8582 -1.5696 -1.5108
  212MOL0     H28576   8.049   3.052   4.622  1.1976  0.4948  1.1165
  212MOL0     H28577   8.044   3.007   4.450 -1.0203 -0.1705  0.9389
  212MOL0     H28578   8.275   2.898   4.486  0.5500  0.6496 -1.1144
  212MOL0     H28579   8.277   2.958   4.644  1.3255 -3.9945 -0.7227
  212MOL0     H28580   8.503   2.963   4.549  0.4775  0.3389  1.7027
  212MOL0     H28581   8.721   2.990   4.454 -0.0862  0.4016  0.3578
  212MOL0     H28582   9.110   3.262   4.409  1.9745  2.1871 -1.6053
  212MOL0     H28583   9.357   3.211   4.333  1.1033 -0.0952 -0.5223
  212MOL0     H28584   9.444   2.999   3.963  1.6971 -0.2191 -0.5504
  212MOL0     H28585   9.398   3.174   3.993 -0.2625 -0.6364  0.3867
  212MOL0     H28586   9.662   3.039   4.056 -0.7434 -1.2219 -1.2349
  212MOL0     H28587   9.622   3.135   3.911 -0.4562  0.8172  0.0101
  212MOL0     H28588   9.563   3.330   4.070 -0.7513  1.4484  2.9019
  212MOL0     H28589   9.617   3.230   4.208  2.0823  0.4227  0.2902
  212MOL0     H28590   9.786   3.280   3.954  2.4078 -0.2856  1.4966
  212MOL0     H28591   9.844   3.236   4.118  0.0466 -1.0087  0.5476
  212MOL0     H28592   9.753   3.467   4.187 -0.8780  2.2129 -0.2726
  212MOL0     H28593   9.735   3.497   4.016  0.5579 -0.5609  0.2969
  212MOL0     H28594   9.956   3.566   4.139 -2.7076 -0.4357  3.5634
  212MOL0     H28595   9.983   3.393   4.165 -2.1459 -0.4260  1.1245
  212MOL0     H28596   9.945   3.505   3.893 -1.7306 -0.8484  1.3857
  212MOL0     H28597   9.983   3.341   3.924  1.5164 -1.1859  2.3288
  212MOL0     H28598  10.201   3.414   4.026 -0.4446  0.8119  1.3834
  212MOL0     H28599  10.170   3.470   3.850 -2.9885  0.4540 -1.2102
  212MOL0     H28600   9.226   2.922   4.066  0.3923  2.1833  0.1046
  212MOL0     H28601   8.989   2.954   4.129  0.8576  3.3312 -3.7997
  212MOL0     H28602   8.599   3.352   4.263  0.9343 -0.2155  1.2013
  212MOL0     H28603   8.370   3.310   4.329  1.7384 -0.3272 -1.2939
  212MOL0     H28604   6.830   2.674   3.972  0.6022  0.8314  3.3104
  212MOL0     H28605   6.602   2.755   3.889  2.7869 -0.6868 -0.2877
  212MOL0     H28606   6.276   2.994   3.946  0.8966 -0.3406 -1.9692
  212MOL0     H28607   6.091   3.118   3.883  2.1379 -0.1500  2.2375
  212MOL0     H28608   5.727   3.086   3.704 -0.7528 -2.0936  2.4111
  212MOL0     H28609   5.899   3.083   3.673  0.6718  2.3311  0.0755
  212MOL0     H28610   5.819   3.311   3.701 -0.3396  0.6383 -0.1344
  212MOL0     H28611   5.923   3.266   3.839  1.5877 -4.6941 -3.3529
  212MOL0     H28612   5.724   3.408   3.912 -0.7250  0.5727  0.1999
  212MOL0     H28613   5.694   3.253   3.969 -1.0449  1.0486  0.8116
  212MOL0     H28614   5.527   3.206   3.758  1.3474 -1.5616  0.0529
  212MOL0     H28615   5.491   3.333   3.876  0.6499 -2.3581  1.0577
  212MOL0     H28616   5.562   3.575   3.539  0.3098  1.1136  0.4731
  212MOL0     H28617   5.851   2.743   3.884 -0.2372  0.3055 -0.8108
  212MOL0     H28618   6.059   2.530   4.057  3.2409  1.9584 -0.1324
  212MOL0     H28619   5.913   2.558   3.962  0.1294 -1.3781 -3.1224
  212MOL0     H28620   6.065   2.509   3.891 -1.3657 -0.7958 -0.7433
  213MOL0     O28621   8.161   1.303   4.289  0.3084  0.0472  0.2984
  213MOL0     C28622   8.137   1.246   4.397  0.0186 -0.5958 -0.2478
  213MOL0     O28623   8.240   1.196   4.475  0.2434 -0.4731 -0.0211
  213MOL0     C28624   8.364   1.200   4.416  0.0991  0.9027 -0.4954
  213MOL0     C28625   8.385   1.136   4.290 -0.2341 -1.2489 -1.0741
  213MOL0     C28626   8.515   1.145   4.227  0.3938  0.9870 -0.9435
  213MOL0     C28627   8.616   1.209   4.294 -0.4045 -0.1138 -0.4173
  213MOL0     O28628   8.744   1.230   4.250  0.3348  0.1761  0.0195
  213MOL0     C28629   8.766   1.241   4.109  0.1040 -0.1496  0.3694
  213MOL0     C28630   8.900   1.303   4.077 -0.1886  0.5816  0.3014
  213MOL0     C28631   8.882   1.451   4.092 -0.6206  0.0381  0.1195
  213MOL0     C28632   9.012   1.533   4.108 -0.1158  0.3042 -0.0062
  213MOL0     C28633   8.994   1.688   4.089 -0.7499 -0.4117  0.1570
  213MOL0     C28634   8.935   1.752   4.206  0.1699 -0.1161  0.4631
  213MOL0     C28635   8.910   1.902   4.206 -0.3249  0.5470 -0.2764
  213MOL0     C28636   8.792   1.945   4.123 -0.4122  0.4776 -0.0141
  213MOL0     N28637   8.748   2.082   4.134  0.0031  0.0847 -0.5439
  213MOL0     C28638   8.632   2.129   4.088 -0.3943  0.3901 -0.5865
  213MOL0     C28639   8.635   2.260   4.125 -0.7027 -1.2053  0.2196
  213MOL0     C28640   8.526   2.359   4.110 -0.8606  0.5359  0.3375
  213MOL0     C28641   8.450   2.371   4.246 -1.3822  0.1109  0.2677
  213MOL0     C28642   8.312   2.441   4.226 -1.4987  0.8907 -0.0076
  213MOL0     C28643   8.210   2.355   4.143 -0.3719  0.6540 -0.0086
  213MOL0     O28644   8.170   2.240   4.222 -0.3103 -0.0992 -0.0210
  213MOL0     C28645   8.055   2.259   4.299 -0.3862  0.7940 -0.0988
  213MOL0     C28646   7.998   2.378   4.345  0.4500  0.5033  0.3738
  213MOL0     C28647   7.885   2.373   4.423 -0.4826 -0.3626 -0.5179
  213MOL0     C28648   7.828   2.250   4.468  0.0821 -0.3246  0.2313
  213MOL0     C28649   7.722   2.246   4.570  0.2461 -0.4632 -0.0153
  213MOL0     O28650   7.645   2.130   4.581 -0.2473 -0.6310 -0.0976
  213MOL0     C28651   7.546   2.113   4.673 -0.1154  0.1027  0.2102
  213MOL0     C28652   7.415   2.108   4.635  1.0630 -0.3054  0.7886
  213MOL0     C28653   7.322   2.083   4.728  0.4048  0.2130 -0.2308
  213MOL0     C28654   7.352   2.067   4.867 -0.2218  0.6564  1.0390
  213MOL0     O28655   7.250   2.040   4.952  0.0279  0.4506  0.0801
  213MOL0     C28656   7.267   1.977   5.082 -0.0160  0.0422  0.2191
  213MOL0     C28657   7.130   1.967   5.135  0.1895 -0.2782  0.6794
  213MOL0     C28658   7.136   1.871   5.244 -0.8196 -0.9577  0.3393
  213MOL0     C28659   7.014   1.873   5.333  0.1241 -0.7451  0.4682
  213MOL0     C28660   6.892   1.818   5.264  0.4683 -0.0273 -0.4865
  213MOL0     C28661   6.786   1.840   5.367  0.0537 -0.2117 -0.1528
  213MOL0     C28662   6.658   1.769   5.338 -0.9037 -0.4949 -0.4331
  213MOL0     C28663   6.551   1.790   5.435 -0.1270  1.1751 -0.6580
  213MOL0    Cl28664   6.596   1.751   5.609  0.0544 -0.3033 -0.3462
  213MOL0     C28665   7.480   2.086   4.902  0.1510 -1.0371 -0.3929
  213MOL0     C28666   7.581   2.106   4.807  1.0177  0.6701 -0.8444
  213MOL0     O28667   7.712   2.349   4.639 -0.1135  0.2509  0.7573
  213MOL0     C28668   7.886   2.130   4.433 -0.2577 -0.5315  0.5039
  213MOL0     C28669   8.002   2.135   4.348 -0.0248 -0.2598 -0.6156
  213MOL0     N28670   8.761   2.295   4.170 -0.6056  0.3895  0.0548
  213MOL0     N28671   8.831   2.183   4.162  0.1425 -0.2870  0.4967
  213MOL0     C28672   8.596   1.257   4.420  0.3101 -0.2886 -0.4646
  213MOL0     C28673   8.473   1.257   4.485  0.3130  0.3788 -0.6830
  213MOL0     C28674   8.002   1.211   4.433 -0.0975 -0.2504  0.5781
  213MOL0     C28675   7.984   1.192   4.573 -0.6540  0.2747  0.5148
  213MOL0     C28676   7.868   1.140   4.627 -1.1073  0.0846  0.5657
  213MOL0     C28677   7.764   1.107   4.541  0.7211  0.6191  0.0752
  213MOL0     O28678   7.645   1.062   4.580 -0.4063  0.0562 -0.9231
  213MOL0     C28679   7.656   0.974   4.692 -0.2934  0.2269 -0.0671
  213MOL0     C28680   7.554   0.868   4.683 -1.1475 -0.4761  0.5763
  213MOL0     C28681   7.410   0.920   4.656  1.1337  0.2787  0.1474
  213MOL0     C28682   7.330   0.947   4.795  0.1393  0.5215  0.9730
  213MOL0     C28683   7.370   1.075   4.860  0.6130 -0.5528 -0.4327
  213MOL0     C28684   7.404   1.175   4.913 -0.0861  0.6808 -0.7072
  213MOL0     C28685   7.775   1.141   4.407  0.0552 -0.1428 -0.0775
  213MOL0     C28686   7.890   1.191   4.348 -0.7555 -0.2076 -0.0984
  213MOL0     C28687   7.888   1.230   4.202 -0.1768 -0.7047 -1.2038
  213MOL0     H28688   8.306   1.086   4.236  0.3102 -1.3724 -1.7714
  213MOL0     H28689   8.542   1.093   4.135  1.9547  0.5113 -0.2581
  213MOL0     H28690   8.774   1.135   4.083 -0.5756 -0.1832  0.2726
  213MOL0     H28691   8.678   1.287   4.063 -0.4747 -1.6302 -0.0728
  213MOL0     H28692   8.930   1.288   3.973  1.0149  3.1202  0.1883
  213MOL0     H28693   8.972   1.258   4.146 -1.0345  3.5300  3.3909
  213MOL0     H28694   8.824   1.471   4.183 -0.7490 -0.6502  0.1884
  213MOL0     H28695   8.835   1.477   3.997  2.9494 -3.4906 -2.9683
  213MOL0     H28696   9.058   1.516   4.205 -1.4366  0.6459  0.6929
  213MOL0     H28697   9.083   1.498   4.032 -2.0846 -1.1558 -1.2672
  213MOL0     H28698   9.095   1.729   4.081 -0.8190 -0.3791 -0.6092
  213MOL0     H28699   8.940   1.698   3.995 -0.0408 -1.4181 -0.3794
  213MOL0     H28700   8.837   1.704   4.208  0.2787 -0.4121 -0.6504
  213MOL0     H28701   8.996   1.722   4.292  1.1523  1.8671  0.5083
  213MOL0     H28702   8.999   1.952   4.169 -0.7020  1.2137 -0.3003
  213MOL0     H28703   8.904   1.929   4.312  2.6996 -1.1654  0.4508
  213MOL0     H28704   8.818   1.906   4.025  0.3261 -2.0550  1.1231
  213MOL0     H28705   8.705   1.887   4.156  1.2478 -2.5961 -0.7043
  213MOL0     H28706   8.553   2.069   4.045 -0.4693  0.1093 -0.0515
  213MOL0     H28707   8.556   2.459   4.078  0.2263 -0.2986 -1.4113
  213MOL0     H28708   8.457   2.323   4.033 -1.9841  1.2085  1.0073
  213MOL0     H28709   8.443   2.266   4.278 -0.5564 -0.3644 -1.0168
  213MOL0     H28710   8.514   2.422   4.319  0.6785 -3.2045  1.0162
  213MOL0     H28711   8.317   2.539   4.177 -4.1704 -0.5034 -3.5724
  213MOL0     H28712   8.288   2.450   4.332  0.4506 -0.4717  0.6071
  213MOL0     H28713   8.258   2.313   4.054 -0.0607  2.7707 -0.8831
  213MOL0     H28714   8.134   2.422   4.104 -1.1355  0.5716  1.2992
  213MOL0     H28715   8.035   2.477   4.320 -0.0586  0.7520  0.5888
  213MOL0     H28716   7.836   2.463   4.458 -0.5418 -0.8082  0.5683
  213MOL0     H28717   7.370   2.114   4.536 -2.5962 -1.3464  2.2010
  213MOL0     H28718   7.218   2.073   4.699 -0.2114 -0.0457  1.8677
  213MOL0     H28719   7.327   1.885   5.072  2.4782  1.5798  0.2097
  213MOL0     H28720   7.338   2.034   5.144  1.2232 -0.5552 -0.6001
  213MOL0     H28721   7.106   2.068   5.170 -1.0001  0.0041 -0.8300
  213MOL0     H28722   7.073   1.939   5.046  2.3367  0.3646 -0.9831
  213MOL0     H28723   7.161   1.770   5.210 -0.8005 -1.8060  2.6856
  213MOL0     H28724   7.214   1.902   5.314 -1.2601 -1.7305  1.2063
  213MOL0     H28725   6.994   1.970   5.380 -2.5024  1.4196 -4.3522
  213MOL0     H28726   7.036   1.807   5.418 -0.0551 -2.2660 -0.6293
  213MOL0     H28727   6.893   1.711   5.239  2.0679 -0.2421  0.3922
  213MOL0     H28728   6.877   1.887   5.181 -1.0154  1.2146  0.7476
  213MOL0     H28729   6.814   1.821   5.471  0.4690  0.8247 -0.0606
  213MOL0     H28730   6.752   1.943   5.350 -2.2297 -1.1577 -1.6252
  213MOL0     H28731   6.672   1.661   5.342  1.6960 -0.3026 -2.1731
  213MOL0     H28732   6.622   1.791   5.237  1.7246 -1.0719 -1.5802
  213MOL0     H28733   6.528   1.897   5.434  0.2686  1.2604 -1.2645
  213MOL0     H28734   6.461   1.733   5.411 -1.3973  2.0573  1.6703
  213MOL0     H28735   7.515   2.087   5.005  2.3186  0.6427 -1.0814
  213MOL0     H28736   7.684   2.108   4.842  0.9650 -2.7010 -0.1252
  213MOL0     H28737   7.835   2.038   4.462 -1.7461 -0.8157 -2.5794
  213MOL0     H28738   8.049   2.043   4.313  0.6145 -0.2377  0.1563
  213MOL0     H28739   8.690   1.281   4.468  0.0376  2.6054 -1.1527
  213MOL0     H28740   8.468   1.300   4.585  2.5889  0.7046 -0.6704
  213MOL0     H28741   8.073   1.217   4.629  1.2720  0.5236 -2.4024
  213MOL0     H28742   7.861   1.134   4.735 -1.6620 -1.7090  0.4597
  213MOL0     H28743   7.635   1.034   4.782 -1.4931 -2.1123  1.2976
  213MOL0     H28744   7.756   0.932   4.706 -0.4182 -0.5824 -1.4644
  213MOL0     H28745   7.557   0.805   4.773  0.5709 -1.2930 -0.0090
  213MOL0     H28746   7.573   0.803   4.597 -1.6489 -1.1573  0.9730
  213MOL0     H28747   7.350   0.834   4.624  1.8321 -0.3599  0.5268
  213MOL0     H28748   7.410   1.004   4.586 -2.9816 -0.4651 -1.0259
  213MOL0     H28749   7.224   0.940   4.770  0.1836 -1.6549  1.1445
  213MOL0     H28750   7.326   0.862   4.864 -5.2635 -1.6767 -1.4311
  213MOL0     H28751   7.438   1.268   4.955  1.6315  0.2968 -1.1376
  213MOL0     H28752   7.680   1.126   4.357 -0.0223 -0.0516  0.0432
  213MOL0     H28753   7.966   1.175   4.149  0.0209 -3.4275  1.6276
  213MOL0     H28754   7.793   1.220   4.149 -0.5381 -1.1571 -0.4959
  213MOL0     H28755   7.911   1.337   4.208 -0.0537 -0.7979  0.6450
  214MOL0     O28756   1.339   8.057  11.051 -0.4421  0.0614  0.4057
  214MOL0     C28757   1.251   8.142  11.063  0.1758 -0.0101  0.7497
  214MOL0     O28758   1.258   8.274  11.029 -0.1861  0.1836 -0.7010
  214MOL0     C28759   1.386   8.314  10.990  0.7469 -0.1022  0.1572
  214MOL0     C28760   1.391   8.366  10.862  0.4420 -0.3992  0.1290
  214MOL0     C28761   1.513   8.400  10.802 -0.3434  0.0373  0.1948
  214MOL0     C28762   1.624   8.407  10.886  0.3264 -0.2167 -0.2968
  214MOL0     O28763   1.745   8.436  10.842 -0.5839  1.0497 -0.1020
  214MOL0     C28764   1.767   8.578  10.818  0.4997  0.3419  0.7568
  214MOL0     C28765   1.904   8.596  10.772 -0.1450  0.0025  0.2014
  214MOL0     C28766   1.956   8.741  10.768 -0.2453  0.3762 -0.9336
  214MOL0     C28767   1.924   8.823  10.652  0.4363  0.0880  0.5713
  214MOL0     C28768   1.979   8.771  10.518 -0.2138  0.8445  0.5558
  214MOL0     C28769   1.972   8.870  10.400  0.0353 -0.2634 -0.1122
  214MOL0     C28770   2.058   8.994  10.406  0.0531  0.0019 -0.6683
  214MOL0     C28771   2.207   8.958  10.393  0.4224  0.8253 -0.4012
  214MOL0     N28772   2.290   9.076  10.425 -0.1691  0.1246 -0.5503
  214MOL0     C28773   2.274   9.149  10.543 -0.2900  0.9157  0.8366
  214MOL0     C28774   2.365   9.255  10.533 -0.2583  0.1197  0.8535
  214MOL0     C28775   2.410   9.361  10.637  1.2424  0.8528  0.2423
  214MOL0     C28776   2.559   9.402  10.642 -0.2288 -0.1929  0.1506
  214MOL0     C28777   2.589   9.543  10.690 -0.2501 -0.0275  0.5364
  214MOL0     C28778   2.535   9.655  10.602  0.7668  0.1775  0.1417
  214MOL0     O28779   2.598   9.649  10.472  0.0600 -0.4491  0.2971
  214MOL0     C28780   2.730   9.673  10.474  0.4108 -0.4401  0.0240
  214MOL0     C28781   2.771   9.797  10.521 -0.4908  0.3164  0.0244
  214MOL0     C28782   2.905   9.817  10.530 -0.7774 -0.0911 -0.3688
  214MOL0     C28783   2.997   9.718  10.500 -0.4951 -0.2497 -0.0040
  214MOL0     C28784   3.141   9.739  10.514  0.8694 -0.4590 -0.0997
  214MOL0     O28785   3.176   9.867  10.532  0.7983  0.5405  0.4662
  214MOL0     C28786   3.305   9.900  10.565 -0.0477 -0.2426  0.3409
  214MOL0     C28787   3.350  10.023  10.525 -0.1616 -0.1377  0.2273
  214MOL0     C28788   3.476  10.070  10.574 -0.0003  0.0299  0.8040
  214MOL0     C28789   3.549  10.003  10.667 -0.4858  0.7370  0.3429
  214MOL0     O28790   3.657  10.040  10.731 -0.4753 -0.1658 -0.6343
  214MOL0     C28791   3.714  10.169  10.702 -0.2635  1.0064  0.5048
  214MOL0     C28792   3.838  10.158  10.786 -0.2689  0.4156 -0.6729
  214MOL0     C28793   3.896  10.302  10.825  0.2999  0.5200  0.5820
  214MOL0     C28794   4.038  10.298  10.882 -0.0956  0.2222  0.2966
  214MOL0     C28795   4.086  10.435  10.908 -0.7415  0.1451 -0.0069
  214MOL0     C28796   4.239  10.443  10.902  0.0120  0.4250  0.7691
  214MOL0     C28797   4.291  10.588  10.905  0.1531  0.8532 -0.7354
  214MOL0     C28798   4.239  10.658  10.784 -0.2058 -0.2558  0.1063
  214MOL0    Cl28799   4.360  10.797  10.744 -0.0748  0.2111 -0.0421
  214MOL0     C28800   3.503   9.873  10.696  0.2299  1.0710 -0.1823
  214MOL0     C28801   3.383   9.826  10.650 -0.2613 -0.4815 -0.0814
  214MOL0     O28802   3.212   9.647  10.487 -0.3349  0.1755 -0.2404
  214MOL0     C28803   2.953   9.591  10.460  1.0241  0.9441 -0.0869
  214MOL0     C28804   2.820   9.570  10.452 -0.9154  0.1017  0.2847
  214MOL0     N28805   2.411   9.248  10.402 -0.1738 -0.2095  0.4414
  214MOL0     N28806   2.391   9.132  10.347  0.7529  0.3177  0.1332
  214MOL0     C28807   1.614   8.356  11.016  0.1069 -0.6225  0.3378
  214MOL0     C28808   1.495   8.312  11.071 -0.6009 -0.1522  0.0622
  214MOL0     C28809   1.110   8.094  11.093  0.6248 -0.1174 -0.7996
  214MOL0     C28810   1.003   8.158  11.028 -0.5057 -0.1819 -0.1512
  214MOL0     C28811   0.874   8.103  11.028 -1.0607 -0.4087 -0.2074
  214MOL0     C28812   0.855   7.981  11.084  0.8802 -0.4308 -1.0482
  214MOL0     O28813   0.741   7.908  11.072  0.4287 -0.0385 -0.0584
  214MOL0     C28814   0.609   7.966  11.039  0.1810 -0.3375  0.1381
  214MOL0     C28815   0.492   7.871  11.062 -0.5737  0.3172  1.0139
  214MOL0     C28816   0.456   7.854  11.213  0.1949 -0.2264  1.1763
  214MOL0     C28817   0.335   7.766  11.242  0.0477  0.5216 -0.9250
  214MOL0     C28818   0.222   7.817  11.167 -0.4675 -0.8171  0.8364
  214MOL0     C28819   0.125   7.870  11.107 -0.5743 -0.0633  0.1260
  214MOL0     C28820   0.953   7.923  11.166  0.1885 -0.9341 -0.1630
  214MOL0     C28821   1.087   7.974  11.167  0.4142 -0.4720 -1.1164
  214MOL0     C28822   1.190   7.904  11.255 -0.7617  0.3116 -0.2493
  214MOL0     H28823   1.301   8.370  10.802  1.1448 -2.9294 -1.2515
  214MOL0     H28824   1.509   8.426  10.696  1.3156 -0.8324 -0.1347
  214MOL0     H28825   1.696   8.625  10.749 -1.2698 -2.9714  0.0835
  214MOL0     H28826   1.767   8.633  10.912  1.7542 -0.7008  1.3940
  214MOL0     H28827   1.911   8.545  10.676 -0.0577 -3.0436  1.7104
  214MOL0     H28828   1.968   8.541  10.841 -0.3310  1.6885  1.8244
  214MOL0     H28829   2.061   8.730  10.796 -0.9319  0.1156  1.8532
  214MOL0     H28830   1.903   8.791  10.850  0.0015 -0.6813 -0.0942
  214MOL0     H28831   1.818   8.837  10.632 -0.6492 -2.5995  3.6489
  214MOL0     H28832   1.976   8.919  10.667  0.3832  0.0234  1.1768
  214MOL0     H28833   2.084   8.742  10.532 -0.0148  1.9142  1.3528
  214MOL0     H28834   1.920   8.684  10.486  0.5403  0.9430 -1.2739
  214MOL0     H28835   2.002   8.831  10.303 -0.5539  3.4521 -1.9450
  214MOL0     H28836   1.869   8.906  10.397  0.7586  2.0582  0.6153
  214MOL0     H28837   2.035   9.045  10.500 -1.4323 -0.5987 -0.6766
  214MOL0     H28838   2.038   9.063  10.323 -0.0039 -3.6204 -3.9548
  214MOL0     H28839   2.223   8.872  10.458  2.4215  0.1496 -1.6973
  214MOL0     H28840   2.223   8.925  10.290 -2.6393 -1.8622 -0.1666
  214MOL0     H28841   2.218   9.122  10.632 -1.4610  1.3772  0.2643
  214MOL0     H28842   2.343   9.443  10.611  0.8116  0.2672 -0.5488
  214MOL0     H28843   2.377   9.321  10.734 -0.3896  0.2369 -0.5323
  214MOL0     H28844   2.615   9.331  10.703 -0.2915 -2.2971 -2.0434
  214MOL0     H28845   2.603   9.386  10.543 -1.0338 -0.4701 -0.1753
  214MOL0     H28846   2.698   9.553  10.701 -0.0515 -1.3332 -0.1007
  214MOL0     H28847   2.543   9.557  10.788  1.9864 -2.8079  2.1619
  214MOL0     H28848   2.549   9.747  10.660 -0.2802  0.1232  0.5037
  214MOL0     H28849   2.427   9.649  10.587  0.8158  0.1310 -0.1992
  214MOL0     H28850   2.707   9.876  10.558  2.3093  1.7091  2.3372
  214MOL0     H28851   2.935   9.918  10.557  0.6472 -0.6578  0.2992
  214MOL0     H28852   3.290  10.079  10.454 -1.0447 -0.5686  0.6181
  214MOL0     H28853   3.504  10.170  10.543 -1.1963 -0.1536 -1.0493
  214MOL0     H28854   3.738  10.198  10.599  1.4376  0.2925  0.6736
  214MOL0     H28855   3.641  10.239  10.744 -1.2331 -0.6622  1.7254
  214MOL0     H28856   3.822  10.107  10.881  0.1287 -1.3727 -1.5432
  214MOL0     H28857   3.907  10.114  10.715  0.7230  0.8298  0.0173
  214MOL0     H28858   3.879  10.369  10.740  0.1314 -0.0527  0.1572
  214MOL0     H28859   3.827  10.332  10.904 -1.3073 -2.4981  0.4752
  214MOL0     H28860   4.102  10.246  10.810  0.8073  0.5725  0.8312
  214MOL0     H28861   4.045  10.240  10.975 -1.8694 -0.3576  0.1085
  214MOL0     H28862   4.071  10.448  11.016  2.6708 -3.0547  1.0966
  214MOL0     H28863   4.034  10.516  10.856 -2.2044  0.0389  1.2112
  214MOL0     H28864   4.273  10.386  10.989 -1.2253 -0.4677  0.6971
  214MOL0     H28865   4.273  10.393  10.811  0.9841  1.2549  0.6622
  214MOL0     H28866   4.400  10.585  10.899  0.2634  1.0303  0.7381
  214MOL0     H28867   4.263  10.639  10.998  0.5572  1.9569 -1.2045
  214MOL0     H28868   4.224  10.598  10.694  0.3508  0.0389 -0.1877
  214MOL0     H28869   4.144  10.699  10.818 -0.1709  0.1674 -0.2977
  214MOL0     H28870   3.567   9.807  10.752  2.5195  2.4326 -1.0584
  214MOL0     H28871   3.352   9.726  10.680  0.8132 -0.8671 -0.2194
  214MOL0     H28872   3.015   9.506  10.433  0.7370  0.1490  1.6123
  214MOL0     H28873   2.779   9.470  10.451  0.9166 -0.7344  2.1767
  214MOL0     H28874   1.712   8.359  11.063  0.8458 -0.1158 -1.1601
  214MOL0     H28875   1.477   8.274  11.172  1.2601  1.4642  1.0699
  214MOL0     H28876   1.021   8.256  10.984 -1.2424  1.5523  3.0233
  214MOL0     H28877   0.795   8.155  10.974  0.4290 -0.4790 -2.5963
  214MOL0     H28878   0.616   7.976  10.931 -2.1792  0.4496  0.0031
  214MOL0     H28879   0.592   8.059  11.094  2.9475  1.3260 -1.6013
  214MOL0     H28880   0.532   7.784  11.009  1.7041  1.7257  0.2546
  214MOL0     H28881   0.411   7.908  10.999 -0.0263  0.1133  0.1853
  214MOL0     H28882   0.437   7.954  11.252  0.6231  1.4748 -2.5552
  214MOL0     H28883   0.542   7.810  11.265 -0.0606 -0.0847  1.7125
  214MOL0     H28884   0.358   7.662  11.220 -1.4347  0.1571 -0.8263
  214MOL0     H28885   0.305   7.764  11.347 -1.9762  0.2498 -1.4624
  214MOL0     H28886   0.054   7.921  11.045  0.0165 -0.6645 -1.0600
  214MOL0     H28887   0.930   7.827  11.211 -1.5501  0.2387  1.6364
  214MOL0     H28888   1.146   7.880  11.352  0.7707  4.0005  1.5646
  214MOL0     H28889   1.227   7.812  11.210  1.0114 -1.1629  3.7842
  214MOL0     H28890   1.278   7.964  11.277  0.3305 -1.2387 -0.2286
  215MOL0     O28891   5.451   1.430   8.906 -0.0253  0.6901  0.3717
  215MOL0     C28892   5.339   1.390   8.875 -1.1392 -0.1120 -0.0388
  215MOL0     O28893   5.294   1.262   8.887  0.0255  0.3733  0.1198
  215MOL0     C28894   5.387   1.158   8.884  0.6131 -0.1603 -0.1111
  215MOL0     C28895   5.505   1.160   8.802 -0.4646  0.3510 -0.4654
  215MOL0     C28896   5.591   1.047   8.783  0.7351  0.4406 -0.7122
  215MOL0     C28897   5.545   0.919   8.835 -0.2019  0.4074  0.9835
  215MOL0     O28898   5.602   0.792   8.823  0.6337 -0.3947 -0.0021
  215MOL0     C28899   5.738   0.788   8.790  0.5724 -1.0700 -0.2283
  215MOL0     C28900   5.795   0.650   8.797 -0.7732  0.7885 -0.2306
  215MOL0     C28901   5.945   0.649   8.780  0.0545 -0.4640 -0.1841
  215MOL0     C28902   6.026   0.683   8.911  1.1646  0.2405  0.6190
  215MOL0     C28903   6.176   0.641   8.878  1.6652  0.9034  1.3082
  215MOL0     C28904   6.241   0.625   9.013  0.4874 -0.0463  0.0116
  215MOL0     C28905   6.378   0.570   9.002  0.7411  0.3674  0.0076
  215MOL0     C28906   6.465   0.595   9.120  0.2775 -0.5486  1.1204
  215MOL0     N28907   6.612   0.572   9.090  0.3954  0.3385  0.6725
  215MOL0     C28908   6.686   0.463   9.109 -1.0857  0.3552 -0.0610
  215MOL0     C28909   6.809   0.493   9.072 -0.8868 -0.1646  0.0654
  215MOL0     C28910   6.944   0.412   9.094 -0.1203 -0.5842  0.2957
  215MOL0     C28911   7.050   0.430   8.982  0.4659  0.3877  0.1268
  215MOL0     C28912   7.167   0.333   9.002  0.6954 -0.1691  0.1831
  215MOL0     C28913   7.233   0.305   8.869 -0.1967  0.8326 -1.1388
  215MOL0     O28914   7.329   0.204   8.902 -0.9629  0.2493  0.4763
  215MOL0     C28915   7.460   0.209   8.859 -0.4177  0.7636  0.6590
  215MOL0     C28916   7.557   0.139   8.930 -0.5236  0.3703  0.5177
  215MOL0     C28917   7.695   0.154   8.901  0.1533 -0.8089 -1.2790
  215MOL0     C28918   7.731   0.226   8.785  0.7500  0.4622 -0.1276
  215MOL0     C28919   7.870   0.227   8.741 -0.3097 -0.2250 -0.1299
  215MOL0     O28920   7.948   0.159   8.829 -0.3117 -0.4748  0.2878
  215MOL0     C28921   8.074   0.127   8.786  0.6067 -0.7944 -0.1619
  215MOL0     C28922   8.177   0.214   8.816  0.4132 -0.3452  0.0983
  215MOL0     C28923   8.305   0.197   8.767 -0.8159 -0.6107 -0.6289
  215MOL0     C28924   8.335   0.092   8.682 -0.0887 -0.9154  0.3374
  215MOL0     O28925   8.459   0.072   8.621 -0.0314  0.1438  0.5747
  215MOL0     C28926   8.564   0.159   8.653  0.2791  0.0234  0.0576
  215MOL0     C28927   8.699   0.154   8.572 -0.4457  0.2791  0.1353
  215MOL0     C28928   8.797   0.266   8.600 -0.4351  0.6297  0.1566
  215MOL0     C28929   8.886   0.249   8.732 -0.2011 -0.2373 -0.1182
  215MOL0     C28930   9.025   0.310   8.712 -0.2311 -0.5760 -1.1246
  215MOL0     C28931   9.097   0.315   8.842  0.3035 -0.0459 -0.0105
  215MOL0     C28932   9.239   0.362   8.830 -0.0150 -0.4273  0.0113
  215MOL0     C28933   9.294   0.412   8.965  0.7212 -0.4422 -0.2440
  215MOL0    Cl28934   9.433   0.501   8.936 -0.1652 -0.4107  0.4532
  215MOL0     C28935   8.233   0.003   8.659  0.5207  0.3714  0.6951
  215MOL0     C28936   8.109   0.015   8.715  0.4821 -0.2767  0.5066
  215MOL0     O28937   7.911   0.274   8.628  0.9718  0.4805  0.2438
  215MOL0     C28938   7.640   0.293   8.705 -0.1275  0.3289  0.1316
  215MOL0     C28939   7.507   0.285   8.755  0.3822  0.9781 -0.2602
  215MOL0     N28940   6.801   0.631   9.033 -0.4944  0.6786  0.6160
  215MOL0     N28941   6.682   0.676   9.046 -0.2866 -0.0107  0.4708
  215MOL0     C28942   5.425   0.913   8.915 -0.0503  0.2624  0.5401
  215MOL0     C28943   5.353   1.026   8.936 -0.1220 -0.3757 -0.2779
  215MOL0     C28944   5.241   1.489   8.826 -0.2699 -0.4605 -0.3890
  215MOL0     C28945   5.113   1.490   8.876 -0.2967 -0.5438 -0.3804
  215MOL0     C28946   5.023   1.587   8.837  0.0577  0.4336 -0.0948
  215MOL0     C28947   5.062   1.686   8.753  0.3292  0.2216 -0.0722
  215MOL0     O28948   4.953   1.771   8.720 -0.1309  0.3348 -0.3029
  215MOL0     C28949   4.950   1.798   8.580 -0.0710  0.2314 -0.4906
  215MOL0     C28950   4.828   1.869   8.533  0.3099  0.2858 -0.4674
  215MOL0     C28951   4.702   1.785   8.499  0.2746 -0.0005 -0.2016
  215MOL0     C28952   4.586   1.865   8.446 -0.6543  0.4688 -0.5932
  215MOL0     C28953   4.506   1.928   8.553 -0.4108 -0.3636 -0.3915
  215MOL0     C28954   4.442   1.989   8.640  0.2569 -0.2371  0.7181
  215MOL0     C28955   5.191   1.687   8.704  0.1675  0.1660 -0.3975
  215MOL0     C28956   5.278   1.588   8.732 -0.1925  0.2036  0.0901
  215MOL0     C28957   5.416   1.594   8.662  0.2613 -0.0693 -0.1792
  215MOL0     H28958   5.540   1.251   8.755  0.9072 -0.0640 -0.3011
  215MOL0     H28959   5.678   1.060   8.721  0.5221  2.6626 -0.6272
  215MOL0     H28960   5.751   0.832   8.691  1.0314 -0.5871  0.0403
  215MOL0     H28961   5.784   0.851   8.867 -2.5197 -0.7009  1.4796
  215MOL0     H28962   5.746   0.582   8.726  0.4115 -3.6389  2.7509
  215MOL0     H28963   5.775   0.617   8.899  1.6282  1.6091  0.5728
  215MOL0     H28964   5.978   0.722   8.706 -0.8767 -1.8488 -2.0283
  215MOL0     H28965   5.973   0.552   8.738  0.9339  0.8139 -2.7396
  215MOL0     H28966   6.027   0.788   8.942 -0.3780  0.4800 -0.0923
  215MOL0     H28967   5.987   0.624   8.995 -0.5754 -0.7253 -0.8072
  215MOL0     H28968   6.174   0.544   8.828 -0.8172  1.7681 -0.4473
  215MOL0     H28969   6.225   0.710   8.809  1.5839 -1.0405 -0.7876
  215MOL0     H28970   6.239   0.720   9.067 -3.4894  0.3116 -0.4620
  215MOL0     H28971   6.190   0.554   9.079  1.8548 -1.1806 -0.0918
  215MOL0     H28972   6.427   0.613   8.914  2.6453 -0.2294  0.7252
  215MOL0     H28973   6.375   0.461   9.002  3.2674  0.2333 -0.2155
  215MOL0     H28974   6.463   0.701   9.146  1.3645 -0.1005 -0.4596
  215MOL0     H28975   6.433   0.532   9.204 -1.6367 -0.9711  0.1245
  215MOL0     H28976   6.649   0.365   9.138  0.5303  0.2604  1.8997
  215MOL0     H28977   6.983   0.447   9.190  0.6873 -1.1826  0.1926
  215MOL0     H28978   6.920   0.306   9.086  1.5283 -0.9695  0.0307
  215MOL0     H28979   7.005   0.407   8.885  0.4614  1.2562 -0.0861
  215MOL0     H28980   7.084   0.534   8.973 -0.2937  0.7061  0.7630
  215MOL0     H28981   7.134   0.241   9.051  0.4071 -1.0558 -1.6150
  215MOL0     H28982   7.234   0.363   9.083 -0.2701 -2.8190  2.1152
  215MOL0     H28983   7.278   0.399   8.836  1.1924  0.3755 -0.6106
  215MOL0     H28984   7.169   0.273   8.786  2.8543 -1.3227 -2.8587
  215MOL0     H28985   7.515   0.068   9.002 -0.7958 -0.7584 -0.7154
  215MOL0     H28986   7.763   0.116   8.977 -1.9579  1.0245  1.7388
  215MOL0     H28987   8.166   0.300   8.882  0.7867 -1.3996  1.5902
  215MOL0     H28988   8.385   0.263   8.802 -0.3558 -2.4734  2.2153
  215MOL0     H28989   8.531   0.262   8.638 -1.3759 -0.3617  0.8235
  215MOL0     H28990   8.594   0.139   8.756 -1.2501  0.6432  0.6563
  215MOL0     H28991   8.750   0.058   8.581  0.2216  0.4316 -1.6156
  215MOL0     H28992   8.682   0.163   8.464 -1.0504  1.1154  0.2885
  215MOL0     H28993   8.862   0.274   8.512  2.8013 -2.4499  2.0301
  215MOL0     H28994   8.753   0.366   8.608 -2.3216 -0.1362 -0.0609
  215MOL0     H28995   8.912   0.145   8.751  2.4932  0.3101 -0.4620
  215MOL0     H28996   8.831   0.285   8.820 -1.3436 -2.6749  0.2378
  215MOL0     H28997   9.015   0.409   8.668  2.6663  0.1428 -0.4121
  215MOL0     H28998   9.064   0.253   8.626 -0.2114  0.4949 -1.8461
  215MOL0     H28999   9.029   0.368   8.909 -1.5862 -2.2235 -0.0835
  215MOL0     H29000   9.107   0.211   8.874 -1.5245  0.0282  0.9291
  215MOL0     H29001   9.239   0.444   8.756 -0.3316 -3.4599 -3.6539
  215MOL0     H29002   9.293   0.280   8.782  1.2137  0.5201 -0.2686
  215MOL0     H29003   9.224   0.481   9.011  0.7194  1.2631 -2.6078
  215MOL0     H29004   9.314   0.316   9.013 -2.1653 -2.0202 -1.8843
  215MOL0     H29005   8.246  -0.075   8.585  0.5151 -0.7737  1.8576
  215MOL0     H29006   8.046  -0.068   8.684 -1.8788  1.2297  0.9871
  215MOL0     H29007   7.662   0.358   8.621 -0.4524  0.9761  0.5325
  215MOL0     H29008   7.432   0.343   8.702  2.0751  2.7939 -0.7826
  215MOL0     H29009   5.393   0.815   8.951  1.6986 -0.8390 -0.7158
  215MOL0     H29010   5.264   1.022   8.998 -0.8623  3.7403 -0.7879
  215MOL0     H29011   5.083   1.428   8.960  1.4975 -0.0812  0.6708
  215MOL0     H29012   4.924   1.583   8.880  0.3322 -1.1603  0.4443
  215MOL0     H29013   4.948   1.699   8.533 -1.7268 -0.0859  0.1888
  215MOL0     H29014   5.037   1.857   8.548 -0.3526  0.8175 -0.1949
  215MOL0     H29015   4.846   1.949   8.461  1.7200  3.7367  3.2798
  215MOL0     H29016   4.807   1.932   8.620  3.6291 -0.9105  1.4037
  215MOL0     H29017   4.670   1.735   8.591  1.4276  1.0264  0.7868
  215MOL0     H29018   4.731   1.707   8.428  0.6604  0.2338 -0.3013
  215MOL0     H29019   4.609   1.941   8.370 -0.3852  1.3543  0.3518
  215MOL0     H29020   4.509   1.802   8.400 -0.3311 -0.4261  0.0740
  215MOL0     H29021   4.373   2.031   8.711 -0.9732  0.3557 -0.7792
  215MOL0     H29022   5.221   1.757   8.627  1.3755  3.5170  2.8134
  215MOL0     H29023   5.486   1.633   8.737 -1.2904 -0.4107  1.5285
  215MOL0     H29024   5.445   1.491   8.637  1.2667  0.7628 -2.8246
  215MOL0     H29025   5.419   1.654   8.571  0.1468  0.5455  0.2166
  216MOL0     O29026   3.006  11.261   6.452  0.1550  0.7748  0.1359
  216MOL0     C29027   2.993  11.317   6.343  0.3632  0.1761 -0.6893
  216MOL0     O29028   3.085  11.398   6.282 -0.1134 -0.3662  0.9122
  216MOL0     C29029   3.218  11.381   6.321  0.0504 -0.3035  0.0083
  216MOL0     C29030   3.258  11.411   6.457  0.5652 -0.6729  0.3846
  216MOL0     C29031   3.393  11.407   6.490  0.5441  0.4122 -0.4223
  216MOL0     C29032   3.492  11.389   6.393 -0.4956 -0.6689 -0.0233
  216MOL0     O29033   3.623  11.402   6.422  0.0717  0.7638  0.1157
  216MOL0     C29034   3.689  11.281   6.392 -0.6926 -0.1198  0.0776
  216MOL0     C29035   3.813  11.311   6.306 -0.6137 -0.2868  0.1115
  216MOL0     C29036   3.874  11.177   6.262  0.3233 -0.3474 -0.8142
  216MOL0     C29037   3.975  11.195   6.152 -0.7136  0.3993 -0.1588
  216MOL0     C29038   4.066  11.068   6.131 -0.2542  0.1016  1.2638
  216MOL0     C29039   4.003  10.939   6.129 -0.3659  0.9593 -0.3419
  216MOL0     C29040   4.069  10.835   6.048 -0.9697 -0.7471  0.1427
  216MOL0     C29041   3.997  10.699   6.040 -0.5697  0.8651 -0.0328
  216MOL0     N29042   4.047  10.629   5.923  0.1073  0.0396 -0.3419
  216MOL0     C29043   4.070  10.673   5.799 -0.4140  1.0450  0.0401
  216MOL0     C29044   4.130  10.574   5.737 -0.1310  0.1756  0.3265
  216MOL0     C29045   4.183  10.567   5.598  0.4810  0.9859 -0.0830
  216MOL0     C29046   4.058  10.559   5.508  0.3597  0.7248  0.2123
  216MOL0     C29047   4.097  10.557   5.354 -0.0121 -0.0747  0.5075
  216MOL0     C29048   3.974  10.599   5.283 -0.0215 -0.3206 -0.2051
  216MOL0     O29049   3.937  10.736   5.314  0.1860  0.2524 -0.7219
  216MOL0     C29050   3.802  10.768   5.314 -0.1475 -0.1957  0.1072
  216MOL0     C29051   3.712  10.708   5.221  0.1689  0.2249 -0.6557
  216MOL0     C29052   3.578  10.752   5.221 -0.2921  0.8566 -0.0089
  216MOL0     C29053   3.539  10.859   5.302  0.3655  0.7829 -0.5129
  216MOL0     C29054   3.403  10.911   5.291 -0.1890 -0.4131 -0.0909
  216MOL0     O29055   3.369  11.016   5.353  0.4510 -0.3964 -0.7689
  216MOL0     C29056   3.243  11.058   5.360  0.3532 -0.4785 -0.2158
  216MOL0     C29057   3.156  11.070   5.245 -1.0071  0.5542  0.0843
  216MOL0     C29058   3.027  11.116   5.263 -0.1314 -0.7220 -0.2175
  216MOL0     C29059   2.975  11.144   5.391 -0.2121 -0.2524  0.2370
  216MOL0     O29060   2.852  11.197   5.392 -0.5173  0.0779 -0.8792
  216MOL0     C29061   2.786  11.208   5.514 -0.0965 -0.7577 -0.5534
  216MOL0     C29062   2.639  11.249   5.510  0.0898 -0.1939 -0.1519
  216MOL0     C29063   2.613  11.390   5.456  0.2446  1.0404 -0.0665
  216MOL0     C29064   2.470  11.414   5.398  0.9457 -0.0617 -0.5104
  216MOL0     C29065   2.440  11.557   5.364  0.6707 -0.5536  0.4967
  216MOL0     C29066   2.300  11.575   5.300 -0.1992  0.1584 -0.1172
  216MOL0     C29067   2.267  11.719   5.259  0.0677 -0.1006  0.6135
  216MOL0     C29068   2.156  11.721   5.162 -0.5453 -0.0019  0.6811
  216MOL0    Cl29069   2.198  11.700   4.993  0.0762 -0.2138 -0.3161
  216MOL0     C29070   3.059  11.142   5.501 -0.2112  0.1266 -0.2468
  216MOL0     C29071   3.193  11.097   5.481  0.8359 -0.6178  0.1923
  216MOL0     O29072   3.324  10.837   5.234  0.2774 -0.2826 -0.0677
  216MOL0     C29073   3.630  10.925   5.387 -0.0828 -0.7580 -0.1673
  216MOL0     C29074   3.762  10.877   5.383 -0.3765 -0.8526  0.2449
  216MOL0     N29075   4.127  10.461   5.818 -0.0889  0.2293 -0.0400
  216MOL0     N29076   4.070  10.493   5.930 -0.4341  0.4374 -0.8256
  216MOL0     C29077   3.450  11.371   6.264 -0.1493 -0.2704 -0.6176
  216MOL0     C29078   3.320  11.366   6.227  0.3945 -0.1616 -0.8264
  216MOL0     C29079   2.838  11.323   6.316 -0.6761  1.0589  0.1498
  216MOL0     C29080   2.764  11.433   6.349  0.2519 -0.2054  0.0748
  216MOL0     C29081   2.626  11.439   6.324  0.6630 -0.1354  0.0431
  216MOL0     C29082   2.562  11.336   6.264  0.7969  0.0974 -0.4350
  216MOL0     O29083   2.429  11.339   6.251 -0.0127  0.4028  0.1978
  216MOL0     C29084   2.348  11.251   6.336 -0.5262  0.0538 -0.2148
  216MOL0     C29085   2.217  11.205   6.269  0.3202  0.4296  0.4815
  216MOL0     C29086   2.111  11.312   6.230 -0.3083  0.0778 -0.4903
  216MOL0     C29087   2.105  11.411   6.342  0.0873 -0.1172  0.6021
  216MOL0     C29088   2.001  11.510   6.316 -0.2550  0.6940  0.2323
  216MOL0     C29089   1.903  11.582   6.313 -0.0901  0.6534  0.5026
  216MOL0     C29090   2.629  11.220   6.237  0.2472  0.8062 -1.1167
  216MOL0     C29091   2.768  11.222   6.255  0.4866 -0.0268 -0.3753
  216MOL0     C29092   2.850  11.097   6.205  0.2978 -0.6468  0.2682
  216MOL0     H29093   3.201  11.438   6.545  1.6804 -0.2154  0.9898
  216MOL0     H29094   3.427  11.434   6.589  2.2799  0.8163 -1.0765
  216MOL0     H29095   3.724  11.241   6.488 -1.7296 -0.9584  0.1234
  216MOL0     H29096   3.623  11.209   6.342 -2.6540  1.8204 -0.2534
  216MOL0     H29097   3.883  11.379   6.355 -0.0047  3.1512 -4.7926
  216MOL0     H29098   3.790  11.367   6.215 -1.2465  1.8772  1.5451
  216MOL0     H29099   3.795  11.108   6.232  0.4532 -1.0325  0.3647
  216MOL0     H29100   3.929  11.158   6.355  0.2026  1.8807 -0.2451
  216MOL0     H29101   3.923  11.225   6.061 -0.3634  1.7281  0.0567
  216MOL0     H29102   4.052  11.268   6.180 -0.4527 -0.1447  0.5678
  216MOL0     H29103   4.124  11.080   6.039  0.5492 -0.5188  1.6718
  216MOL0     H29104   4.141  11.059   6.211  0.3453  0.1119  0.7167
  216MOL0     H29105   3.993  10.907   6.233 -0.2953  0.4085 -0.5007
  216MOL0     H29106   3.901  10.960   6.097 -1.4556  0.0700  2.3135
  216MOL0     H29107   4.165  10.819   6.098 -2.6408 -1.0718  3.5396
  216MOL0     H29108   4.078  10.887   5.952 -2.2289 -0.0429  0.3839
  216MOL0     H29109   4.008  10.645   6.134  0.6619  1.0995 -0.0255
  216MOL0     H29110   3.888  10.707   6.035 -0.5409  1.1446 -0.2205
  216MOL0     H29111   4.067  10.771   5.753  4.3623  1.4150 -0.0067
  216MOL0     H29112   4.259  10.641   5.573 -0.1627  2.0304  0.9785
  216MOL0     H29113   4.222  10.467   5.573 -2.0356  0.4400 -2.2220
  216MOL0     H29114   4.004  10.467   5.532 -0.1997  1.5088  2.1241
  216MOL0     H29115   3.990  10.641   5.530 -2.3262 -1.1043 -0.6761
  216MOL0     H29116   4.137  10.463   5.316  3.6755  0.8278  1.7519
  216MOL0     H29117   4.165  10.639   5.331 -1.7763  1.0263 -1.1277
  216MOL0     H29118   3.891  10.539   5.320 -0.5046  0.8514  0.6858
  216MOL0     H29119   3.985  10.578   5.177  0.2141 -1.0786 -0.0342
  216MOL0     H29120   3.748  10.635   5.150  2.0448 -1.1512  1.5750
  216MOL0     H29121   3.498  10.705   5.165 -1.3458 -0.4320  2.4236
  216MOL0     H29122   3.200  11.035   5.152  0.2188 -1.5537  1.3970
  216MOL0     H29123   2.962  11.131   5.177  1.2547 -0.1971 -1.1996
  216MOL0     H29124   2.800  11.116   5.572  2.1779  0.2763  0.6420
  216MOL0     H29125   2.836  11.294   5.560 -0.5310  0.5016 -2.3347
  216MOL0     H29126   2.591  11.186   5.434  5.2085  0.2472 -4.2724
  216MOL0     H29127   2.599  11.238   5.611 -0.5346 -2.1917 -0.5731
  216MOL0     H29128   2.622  11.472   5.528 -3.9025  1.8294 -0.2051
  216MOL0     H29129   2.683  11.412   5.375  1.3070  0.4586  0.6583
  216MOL0     H29130   2.391  11.385   5.468  3.1314 -1.2811  1.5967
  216MOL0     H29131   2.459  11.355   5.307 -1.2493  2.0050 -1.6746
  216MOL0     H29132   2.519  11.590   5.297  2.2619 -0.4291  2.3624
  216MOL0     H29133   2.448  11.621   5.453  4.9382 -0.3874  0.1809
  216MOL0     H29134   2.289  11.508   5.214  0.2136 -0.4823  0.3213
  216MOL0     H29135   2.227  11.548   5.376 -2.1757 -0.6713 -2.2047
  216MOL0     H29136   2.363  11.765   5.233  0.1065 -0.0109  0.9136
  216MOL0     H29137   2.237  11.767   5.353  0.6771 -1.2643  1.4201
  216MOL0     H29138   2.082  11.644   5.185  0.3785 -0.8901  0.7491
  216MOL0     H29139   2.112  11.820   5.177  1.6421  1.2326 -0.4814
  216MOL0     H29140   3.035  11.170   5.603  1.5417 -0.7287  0.4433
  216MOL0     H29141   3.260  11.093   5.567  0.5822 -0.0585  0.4210
  216MOL0     H29142   3.603  11.015   5.442  5.2302  1.6154 -0.8650
  216MOL0     H29143   3.838  10.915   5.451 -1.1204 -0.3155  0.7957
  216MOL0     H29144   3.527  11.369   6.187  1.6540 -2.4132  1.1225
  216MOL0     H29145   3.295  11.355   6.122  2.2655 -0.7059 -1.2533
  216MOL0     H29146   2.809  11.514   6.406  1.3211 -1.2948  0.8297
  216MOL0     H29147   2.576  11.531   6.354  2.5155  1.3437 -1.2056
  216MOL0     H29148   2.322  11.294   6.433  0.2624  0.4655 -0.1806
  216MOL0     H29149   2.405  11.164   6.369 -2.7098 -1.8982 -1.2297
  216MOL0     H29150   2.175  11.133   6.339 -1.7041  2.3341  1.3212
  216MOL0     H29151   2.231  11.148   6.176 -3.0212 -0.7904  0.6087
  216MOL0     H29152   2.013  11.263   6.227 -1.0730  1.4672  0.5060
  216MOL0     H29153   2.130  11.370   6.139  0.8993 -1.8651 -1.5520
  216MOL0     H29154   2.074  11.359   6.434 -1.5094 -1.7967 -0.8052
  216MOL0     H29155   2.201  11.462   6.347 -0.3861  1.0090 -1.1631
  216MOL0     H29156   1.829  11.653   6.284 -0.4379 -0.4893 -1.6181
  216MOL0     H29157   2.589  11.127   6.197 -0.1559  0.2698  0.4776
  216MOL0     H29158   2.908  11.097   6.113 -1.6703  1.1067 -1.0418
  216MOL0     H29159   2.913  11.052   6.283  0.4719 -1.3725 -0.2784
  216MOL0     H29160   2.780  11.016   6.186  1.3938 -1.9115  1.3496
  217MOL0     O29161   9.568   3.417   3.784 -0.5154  0.0482  0.2362
  217MOL0     C29162   9.576   3.341   3.693 -0.3016  0.1993  0.4324
  217MOL0     O29163   9.682   3.324   3.619  0.3198 -0.0494  0.3836
  217MOL0     C29164   9.771   3.428   3.599  0.5699  0.4396 -0.1755
  217MOL0     C29165   9.737   3.564   3.573 -0.0553  0.1017  0.2696
  217MOL0     C29166   9.836   3.659   3.545  0.4421 -0.1290 -0.3757
  217MOL0     C29167   9.972   3.617   3.522 -0.2724 -0.2960 -0.2889
  217MOL0     O29168  10.064   3.708   3.483  0.1910  0.0464  0.1727
  217MOL0     C29169  10.169   3.659   3.401  0.4154  0.1329  0.2718
  217MOL0     C29170  10.254   3.755   3.319  0.1416 -0.7345 -0.4180
  217MOL0     C29171  10.352   3.839   3.398 -0.4693  0.5069  0.0242
  217MOL0     C29172  10.444   3.914   3.312 -1.2303  0.4785  0.2084
  217MOL0     C29173  10.587   3.930   3.384  0.1863 -0.6163 -0.3625
  217MOL0     C29174  10.707   3.963   3.295 -0.7427 -0.0711 -0.3243
  217MOL0     C29175  10.835   3.971   3.379  0.1040 -0.1647  0.6060
  217MOL0     C29176  10.955   4.013   3.303 -0.1134 -0.2998  0.2158
  217MOL0     N29177  11.084   3.984   3.373 -0.2466  0.2805  0.2457
  217MOL0     C29178  11.094   3.937   3.502 -0.0504  0.5077 -0.8495
  217MOL0     C29179  11.223   3.905   3.515 -0.3134  1.0851  0.0524
  217MOL0     C29180  11.288   3.841   3.636  0.1455 -0.3884 -0.2856
  217MOL0     C29181  11.277   3.689   3.652  0.4045 -0.3317  0.5442
  217MOL0     C29182  11.353   3.644   3.781  0.1203  0.1157 -0.2934
  217MOL0     C29183  11.509   3.668   3.789  0.3126 -0.6320  0.7430
  217MOL0     O29184  11.578   3.563   3.859 -0.8189  0.1830  0.3978
  217MOL0     C29185  11.710   3.564   3.867 -0.0283 -0.4225  0.2377
  217MOL0     C29186  11.787   3.672   3.830 -0.2599  0.5598 -0.1253
  217MOL0     C29187  11.926   3.682   3.866 -0.1626  0.4051 -0.1203
  217MOL0     C29188  11.986   3.578   3.931  0.5431 -0.9747 -0.3916
  217MOL0     C29189  12.125   3.597   3.992  0.0127  0.0849  0.6626
  217MOL0     O29190  12.159   3.727   4.023  0.4721 -0.1325 -0.6819
  217MOL0     C29191  12.282   3.745   4.082  0.1883  0.4825 -0.2147
  217MOL0     C29192  12.402   3.696   4.025 -1.0543  0.1250  0.4475
  217MOL0     C29193  12.515   3.696   4.112 -0.0621 -1.0735  0.3074
  217MOL0     C29194  12.513   3.751   4.235 -0.2975  0.5014 -0.2933
  217MOL0     O29195  12.615   3.766   4.321 -0.2257 -0.2650 -0.1122
  217MOL0     C29196  12.742   3.724   4.285 -0.0374  0.5976 -0.0017
  217MOL0     C29197  12.811   3.701   4.423 -0.5640  0.4595  0.7662
  217MOL0     C29198  12.949   3.632   4.399  0.0374 -0.6113  0.2743
  217MOL0     C29199  13.027   3.594   4.525  0.3599 -0.4839  0.2171
  217MOL0     C29200  13.173   3.539   4.502  0.3204  0.1634 -0.2577
  217MOL0     C29201  13.228   3.484   4.639  0.4788 -0.9742 -0.4922
  217MOL0     C29202  13.349   3.401   4.614 -0.1457 -0.2307 -0.0064
  217MOL0     C29203  13.415   3.341   4.748  0.6221 -0.1996 -0.3638
  217MOL0    Cl29204  13.578   3.278   4.722 -0.1659  0.1697 -0.2071
  217MOL0     C29205  12.387   3.795   4.283 -1.2094 -0.4661  0.1326
  217MOL0     C29206  12.276   3.794   4.202 -0.3682 -1.0884 -0.6536
  217MOL0     O29207  12.194   3.505   4.011  0.7370 -0.0698 -0.2332
  217MOL0     C29208  11.908   3.461   3.965  0.3267  0.3819 -0.1621
  217MOL0     C29209  11.776   3.460   3.930  0.3629  0.2415 -0.2574
  217MOL0     N29210  11.287   3.932   3.399  0.4116 -0.1390 -0.3346
  217MOL0     N29211  11.195   3.963   3.313 -1.6219 -0.3262  0.4203
  217MOL0     C29212   9.996   3.477   3.530  0.8218  0.4570 -0.3504
  217MOL0     C29213   9.900   3.385   3.575  0.6821 -0.4897 -0.4868
  217MOL0     C29214   9.457   3.251   3.674  0.5537  0.1102  0.6676
  217MOL0     C29215   9.478   3.134   3.603 -0.5862  0.6132 -0.1674
  217MOL0     C29216   9.385   3.035   3.591 -0.0341 -0.0007 -0.3932
  217MOL0     C29217   9.268   3.041   3.673 -0.0205  0.5844 -0.2734
  217MOL0     O29218   9.194   2.932   3.676  0.6720  0.9573 -0.4085
  217MOL0     C29219   9.088   2.937   3.578 -0.8246 -0.8051  0.6085
  217MOL0     C29220   9.063   2.799   3.524  0.6733  1.0703 -0.3670
  217MOL0     C29221   9.038   2.709   3.641 -0.0280  0.4383 -0.2838
  217MOL0     C29222   8.970   2.581   3.601  0.0494 -0.5860 -0.3366
  217MOL0     C29223   9.056   2.512   3.497  0.3242  0.5012  0.1977
  217MOL0     C29224   9.119   2.435   3.426  0.4162 -0.7561  0.4807
  217MOL0     C29225   9.244   3.152   3.759 -0.7173 -0.9687 -0.0301
  217MOL0     C29226   9.335   3.257   3.753 -0.4842 -0.1117 -0.3461
  217MOL0     C29227   9.300   3.365   3.839 -0.6238 -0.5982  0.0527
  217MOL0     H29228   9.632   3.586   3.583 -0.2648 -1.1235  0.9892
  217MOL0     H29229   9.795   3.756   3.521 -1.8532 -1.4427 -2.2707
  217MOL0     H29230  10.238   3.605   3.467  2.2262  1.2914 -0.5979
  217MOL0     H29231  10.127   3.591   3.327 -0.1604  3.3809 -2.6277
  217MOL0     H29232  10.191   3.819   3.256  0.6765 -1.5949 -1.8869
  217MOL0     H29233  10.315   3.692   3.255  0.2027 -2.2913  1.1065
  217MOL0     H29234  10.403   3.775   3.471 -0.8372  1.7620  1.4404
  217MOL0     H29235  10.294   3.903   3.466 -0.5816  2.0316 -1.4407
  217MOL0     H29236  10.461   3.861   3.218  0.5581  2.1547 -0.4811
  217MOL0     H29237  10.410   4.013   3.280  0.4839  1.5876  1.6379
  217MOL0     H29238  10.570   4.009   3.457 -2.0607  0.1717 -1.6262
  217MOL0     H29239  10.616   3.831   3.418 -1.5704 -1.1350 -0.2427
  217MOL0     H29240  10.713   3.871   3.235 -2.2477  0.6005 -1.5697
  217MOL0     H29241  10.697   4.052   3.232  0.7896  0.6625  0.4073
  217MOL0     H29242  10.862   3.872   3.417  0.9324 -0.6437 -1.1189
  217MOL0     H29243  10.822   4.040   3.463 -2.5584 -0.9157  0.8928
  217MOL0     H29244  10.945   3.973   3.202  0.4278  0.2873 -0.0795
  217MOL0     H29245  10.948   4.121   3.291  2.1161 -0.1304 -0.0670
  217MOL0     H29246  11.015   3.927   3.576  1.8473 -5.6917  0.9196
  217MOL0     H29247  11.392   3.875   3.627 -0.3689  1.0195 -1.2864
  217MOL0     H29248  11.251   3.890   3.726 -0.1534 -0.0251 -0.6037
  217MOL0     H29249  11.170   3.666   3.662  0.2119 -0.5853 -1.6281
  217MOL0     H29250  11.327   3.642   3.567 -1.3922  0.4930 -1.0543
  217MOL0     H29251  11.339   3.537   3.798  0.7723  0.0590 -0.0712
  217MOL0     H29252  11.312   3.685   3.874  0.4721  0.9919 -0.5167
  217MOL0     H29253  11.525   3.770   3.825 -1.1165 -0.4933  1.0120
  217MOL0     H29254  11.554   3.670   3.689  2.6493  0.7921  1.7475
  217MOL0     H29255  11.734   3.758   3.791 -0.3232  1.1081  1.1200
  217MOL0     H29256  11.981   3.774   3.847 -0.1630  0.7449  1.4095
  217MOL0     H29257  12.412   3.654   3.925  1.1309  1.1406  0.1763
  217MOL0     H29258  12.614   3.669   4.077  0.4301 -0.4680  1.2000
  217MOL0     H29259  12.746   3.637   4.219  0.9019  2.1048 -2.0257
  217MOL0     H29260  12.808   3.805   4.250 -0.1077 -0.0299 -1.6823
  217MOL0     H29261  12.817   3.791   4.485 -0.0021  0.8251  0.1893
  217MOL0     H29262  12.759   3.617   4.470  0.9513 -0.8915  0.1194
  217MOL0     H29263  12.947   3.554   4.323 -0.2830  0.8883 -1.3108
  217MOL0     H29264  13.003   3.720   4.364 -1.8046  0.8306  0.8468
  217MOL0     H29265  12.958   3.520   4.567 -1.6212  0.9632 -0.3200
  217MOL0     H29266  13.024   3.680   4.592 -3.5222  0.2739 -0.6629
  217MOL0     H29267  13.237   3.612   4.452 -0.8881 -0.0891 -2.3019
  217MOL0     H29268  13.165   3.448   4.441 -3.1637 -0.9096  1.5215
  217MOL0     H29269  13.262   3.568   4.699  3.8335 -1.6586 -1.2639
  217MOL0     H29270  13.151   3.425   4.691 -0.8290  2.5019  1.8485
  217MOL0     H29271  13.421   3.466   4.564 -2.9317  0.7046 -3.1970
  217MOL0     H29272  13.315   3.323   4.544 -3.2615 -1.6041  2.7555
  217MOL0     H29273  13.406   3.419   4.825 -0.6379 -1.6916  1.0793
  217MOL0     H29274  13.351   3.262   4.788  1.4253  0.1118  1.6692
  217MOL0     H29275  12.376   3.860   4.369  0.8621  0.6766 -0.3987
  217MOL0     H29276  12.180   3.831   4.236 -1.0983  0.5881 -4.0347
  217MOL0     H29277  11.946   3.382   4.029  0.4725  1.1733  0.7469
  217MOL0     H29278  11.716   3.373   3.957  0.0332 -0.3327 -2.5812
  217MOL0     H29279  10.091   3.425   3.519  0.4526 -0.4692  0.6352
  217MOL0     H29280   9.926   3.281   3.593 -0.5796 -0.5093  1.5470
  217MOL0     H29281   9.573   3.109   3.558 -0.2697  0.9515  0.3057
  217MOL0     H29282   9.394   2.956   3.517 -1.1360  1.2970 -2.0000
  217MOL0     H29283   9.121   2.993   3.491 -0.5415 -1.2031  0.4594
  217MOL0     H29284   8.997   2.982   3.620 -1.9296  0.3031 -2.6669
  217MOL0     H29285   9.144   2.765   3.460 -0.9183  3.2941 -3.9042
  217MOL0     H29286   8.989   2.811   3.444  2.9194  1.2909 -2.5039
  217MOL0     H29287   8.971   2.764   3.708 -0.9236 -1.1668  0.1957
  217MOL0     H29288   9.131   2.690   3.696  0.4289  3.1839  0.0258
  217MOL0     H29289   8.951   2.525   3.693 -0.3999  1.4368  0.8828
  217MOL0     H29290   8.874   2.603   3.552 -0.9156  0.5274  1.9284
  217MOL0     H29291   9.184   2.365   3.377  0.8164  1.3218 -2.1791
  217MOL0     H29292   9.155   3.142   3.822 -1.0687 -2.3654 -0.7008
  217MOL0     H29293   9.306   3.457   3.781 -1.3448 -0.1751  0.6259
  217MOL0     H29294   9.198   3.366   3.881 -1.3721 -1.7514 -1.6270
  217MOL0     H29295   9.371   3.376   3.921 -0.7510  0.8742  0.0003
  218MOL0     O29296   2.775   1.313   4.368  0.8750 -0.3813  0.2894
  218MOL0     C29297   2.758   1.412   4.436  0.0962  0.6333 -0.3629
  218MOL0     O29298   2.860   1.487   4.494 -0.2029  0.0827 -0.7950
  218MOL0     C29299   2.978   1.425   4.513 -0.6266  1.1413  0.2317
  218MOL0     C29300   3.051   1.459   4.624  0.3811 -0.2508 -1.0636
  218MOL0     C29301   3.186   1.428   4.645 -0.1516 -0.0451 -0.3238
  218MOL0     C29302   3.250   1.356   4.548  0.3537 -0.6536 -0.0617
  218MOL0     O29303   3.376   1.296   4.566  0.6656 -0.2541  0.0856
  218MOL0     C29304   3.466   1.342   4.663 -0.4983 -0.2931 -0.0049
  218MOL0     C29305   3.583   1.250   4.649 -0.1150 -0.7086 -0.1782
  218MOL0     C29306   3.670   1.274   4.772 -0.1003  0.1110  0.0476
  218MOL0     C29307   3.772   1.163   4.785  0.5888  0.9068  0.2489
  218MOL0     C29308   3.859   1.204   4.895 -1.5261 -0.9355 -1.2029
  218MOL0     C29309   3.975   1.105   4.910 -0.1643  0.4433 -0.3826
  218MOL0     C29310   4.057   1.127   5.042  0.7360 -0.4800 -0.2246
  218MOL0     C29311   4.126   0.996   5.096  0.8190  0.4456  1.0813
  218MOL0     N29312   4.240   0.961   5.013  0.7014 -0.4414 -0.1879
  218MOL0     C29313   4.261   0.839   4.957  0.0377  0.5958 -0.7252
  218MOL0     C29314   4.393   0.833   4.919  1.0788  0.1269  0.9443
  218MOL0     C29315   4.457   0.728   4.848  0.3547  0.8928  0.6324
  218MOL0     C29316   4.489   0.612   4.943 -0.9559 -0.1803  1.2023
  218MOL0     C29317   4.551   0.650   5.076  0.2592 -0.0288 -0.5876
  218MOL0     C29318   4.693   0.704   5.069  0.1856 -0.1226 -0.2378
  218MOL0     O29319   4.764   0.616   4.989 -0.4635  0.6690 -0.2824
  218MOL0     C29320   4.906   0.606   4.999 -0.1715  0.7460  0.6863
  218MOL0     C29321   4.977   0.500   4.938 -0.3880  1.2221 -1.1241
  218MOL0     C29322   5.114   0.488   4.943  0.2971  0.4710 -0.2408
  218MOL0     C29323   5.192   0.582   5.017 -0.6048  0.2903  0.0605
  218MOL0     C29324   5.339   0.568   5.035  1.2344 -0.1472 -0.8987
  218MOL0     O29325   5.391   0.667   5.122 -0.5201  0.0018 -0.0422
  218MOL0     C29326   5.524   0.663   5.166 -0.0282 -0.1362  0.0930
  218MOL0     C29327   5.593   0.787   5.192  0.0188  0.4487  0.1442
  218MOL0     C29328   5.726   0.789   5.248  0.9277  0.8643  0.5116
  218MOL0     C29329   5.791   0.664   5.267 -0.0537  0.0548 -0.0991
  218MOL0     O29330   5.922   0.658   5.316  0.5707  0.1893  0.5004
  218MOL0     C29331   5.942   0.596   5.444 -0.0748 -0.1630  0.2530
  218MOL0     C29332   5.870   0.663   5.558  0.8166  0.9575 -0.3167
  218MOL0     C29333   5.916   0.806   5.579 -0.1770 -0.0586  0.6310
  218MOL0     C29334   6.049   0.821   5.667  0.9306 -0.0577  0.3702
  218MOL0     C29335   6.091   0.970   5.684  0.3461  0.1092 -0.4537
  218MOL0     C29336   6.218   0.979   5.784 -0.4647 -0.0397 -0.7790
  218MOL0     C29337   6.345   0.926   5.719 -0.6751 -0.0898  0.2059
  218MOL0     C29338   6.480   0.974   5.781  0.2086 -0.1279 -0.1799
  218MOL0    Cl29339   6.486   0.957   5.954 -0.1655  0.5668  0.0082
  218MOL0     C29340   5.722   0.551   5.237  0.0085  0.3921  0.0601
  218MOL0     C29341   5.604   0.547   5.183  0.7784 -0.2682  0.0312
  218MOL0     O29342   5.392   0.477   4.975  0.3323 -0.4205  0.0991
  218MOL0     C29343   5.124   0.692   5.074 -0.0557  0.3186  0.4891
  218MOL0     C29344   4.986   0.702   5.069 -0.4802 -0.7952  0.0678
  218MOL0     N29345   4.443   0.958   4.937  0.0069  0.5467  0.0039
  218MOL0     N29346   4.357   1.028   4.997  0.5519  0.5134  0.2216
  218MOL0     C29347   3.181   1.322   4.430 -0.4563 -0.1644 -0.4955
  218MOL0     C29348   3.048   1.355   4.413  0.2109 -1.0377 -1.0295
  218MOL0     C29349   2.611   1.458   4.465  0.1930 -0.8716  0.8907
  218MOL0     C29350   2.588   1.543   4.575 -0.5503 -0.2632 -0.2387
  218MOL0     C29351   2.454   1.586   4.613 -0.2682  0.8568 -0.5000
  218MOL0     C29352   2.345   1.553   4.521  0.1017 -0.4372  0.2171
  218MOL0     O29353   2.221   1.600   4.526 -0.5384 -0.1490  0.4102
  218MOL0     C29354   2.190   1.722   4.588  0.1178  0.0333 -0.3389
  218MOL0     C29355   2.107   1.695   4.711  1.0931  0.5166  0.2328
  218MOL0     C29356   1.984   1.779   4.734 -0.3427 -0.5410  0.6458
  218MOL0     C29357   1.871   1.737   4.635  0.0172 -0.5848 -0.5643
  218MOL0     C29358   1.752   1.808   4.689  0.4011 -0.1501  0.0006
  218MOL0     C29359   1.652   1.863   4.734  0.0346 -0.3263 -0.5840
  218MOL0     C29360   2.374   1.484   4.405  1.0084 -0.0528 -0.9824
  218MOL0     C29361   2.500   1.431   4.375 -0.0583  0.2569  0.6140
  218MOL0     C29362   2.507   1.342   4.248 -0.5761  0.2141  0.1597
  218MOL0     H29363   3.001   1.533   4.686  0.9980  1.0790 -2.1098
  218MOL0     H29364   3.240   1.450   4.736 -0.1702  1.0658 -0.5600
  218MOL0     H29365   3.499   1.445   4.650  1.2541 -0.5375  1.8808
  218MOL0     H29366   3.414   1.334   4.760 -0.8884 -2.2992 -0.3306
  218MOL0     H29367   3.641   1.272   4.559 -1.3472  2.2535 -0.3457
  218MOL0     H29368   3.546   1.147   4.643 -0.9973 -0.5297  1.5438
  218MOL0     H29369   3.612   1.279   4.864  0.1688  0.3314  0.2065
  218MOL0     H29370   3.713   1.373   4.758 -1.0347  0.6620  0.9611
  218MOL0     H29371   3.732   1.061   4.791 -1.0631  1.6033  1.7154
  218MOL0     H29372   3.824   1.165   4.689  1.8757 -1.3121  0.8092
  218MOL0     H29373   3.901   1.299   4.861 -1.2444  0.4224  2.4973
  218MOL0     H29374   3.814   1.226   4.992  0.8854  1.3336 -0.4815
  218MOL0     H29375   3.941   1.001   4.915  2.6215 -0.4907  0.3681
  218MOL0     H29376   4.046   1.099   4.827  0.4416 -1.7548  0.2126
  218MOL0     H29377   3.988   1.168   5.116  0.8596 -0.3617 -0.1732
  218MOL0     H29378   4.133   1.203   5.020 -1.3960  0.9913 -3.0742
  218MOL0     H29379   4.171   1.026   5.191  4.0222 -0.4380 -0.0477
  218MOL0     H29380   4.048   0.920   5.108 -0.0041  0.9970 -0.4152
  218MOL0     H29381   4.189   0.758   4.947  0.1287  0.5787 -1.2548
  218MOL0     H29382   4.382   0.691   4.778 -0.5434 -0.4559  2.2454
  218MOL0     H29383   4.548   0.765   4.799 -1.7604  3.5693 -1.6147
  218MOL0     H29384   4.396   0.557   4.960 -1.1926 -1.0451 -2.1894
  218MOL0     H29385   4.546   0.547   4.875 -2.0066  1.6868 -1.6306
  218MOL0     H29386   4.539   0.557   5.132 -0.4493  0.4994  0.1487
  218MOL0     H29387   4.484   0.715   5.132 -0.4587  0.5188 -2.0153
  218MOL0     H29388   4.741   0.701   5.168 -0.1641  1.4443  0.0074
  218MOL0     H29389   4.704   0.809   5.039 -0.5147 -0.3744 -1.4255
  218MOL0     H29390   4.924   0.414   4.898 -0.5022 -0.5019  2.3470
  218MOL0     H29391   5.167   0.402   4.902  2.8730  1.5108  0.6987
  218MOL0     H29392   5.529   0.869   5.164 -0.5690  0.6540  1.9533
  218MOL0     H29393   5.776   0.883   5.271  0.8304  1.0031  0.1690
  218MOL0     H29394   5.919   0.489   5.434  0.5908 -0.2667 -0.2072
  218MOL0     H29395   6.047   0.605   5.470  0.4804 -2.4241 -0.8715
  218MOL0     H29396   5.762   0.666   5.545  0.8257  2.1676 -0.2340
  218MOL0     H29397   5.894   0.608   5.649 -1.8369 -0.6630 -0.5044
  218MOL0     H29398   5.922   0.851   5.479 -2.3174  0.1371  0.5501
  218MOL0     H29399   5.832   0.859   5.624 -0.7319 -0.2237 -0.1843
  218MOL0     H29400   6.124   0.755   5.622 -1.3684 -2.7028  0.1412
  218MOL0     H29401   6.025   0.771   5.761  0.6424  4.1030  2.7554
  218MOL0     H29402   6.008   1.032   5.719  1.2413  2.4309 -2.1959
  218MOL0     H29403   6.131   0.997   5.586  1.2578  0.9570  0.1333
  218MOL0     H29404   6.231   1.085   5.811 -3.5182  0.4815 -0.9429
  218MOL0     H29405   6.206   0.917   5.874  0.9784  0.3141 -0.3131
  218MOL0     H29406   6.352   0.966   5.617  0.5897 -0.1266  0.2661
  218MOL0     H29407   6.346   0.817   5.723  0.0127 -0.1397 -0.8457
  218MOL0     H29408   6.557   0.909   5.737 -0.6333 -0.0969 -1.7606
  218MOL0     H29409   6.504   1.078   5.756 -0.3033  0.3286  1.1951
  218MOL0     H29410   5.770   0.460   5.271  1.1861  1.3394  1.0001
  218MOL0     H29411   5.560   0.449   5.167  0.8543 -0.4892  1.0829
  218MOL0     H29412   5.174   0.777   5.119  0.7070  0.7767 -1.1373
  218MOL0     H29413   4.935   0.770   5.137  0.2662 -1.1482  1.0012
  218MOL0     H29414   3.227   1.265   4.349  0.0485  0.8731 -0.9585
  218MOL0     H29415   3.007   1.333   4.315 -1.1222 -1.0905 -0.4801
  218MOL0     H29416   2.680   1.562   4.628  0.1046 -1.0444 -1.0617
  218MOL0     H29417   2.438   1.646   4.701  0.2244  0.5229 -0.1778
  218MOL0     H29418   2.133   1.786   4.521  0.5414 -2.0386 -2.8488
  218MOL0     H29419   2.284   1.773   4.613 -0.2032  0.0288  0.9591
  218MOL0     H29420   2.177   1.697   4.795  1.0460 -2.5008  0.4383
  218MOL0     H29421   2.068   1.593   4.707 -1.5846  1.4450  0.2318
  218MOL0     H29422   2.004   1.886   4.722  1.6165 -0.8769  0.4508
  218MOL0     H29423   1.963   1.761   4.840  1.0585 -2.2172  0.6900
  218MOL0     H29424   1.904   1.769   4.535 -1.3326 -0.4915 -0.9982
  218MOL0     H29425   1.859   1.628   4.627  2.0819 -0.7393 -2.9907
  218MOL0     H29426   1.558   1.896   4.773  0.1147  0.0258 -0.6883
  218MOL0     H29427   2.286   1.468   4.343  2.0109 -0.5104 -2.3287
  218MOL0     H29428   2.466   1.244   4.274 -2.2625  0.6358 -0.7457
  218MOL0     H29429   2.435   1.385   4.178  2.1535  2.8567 -1.2203
  218MOL0     H29430   2.602   1.316   4.200 -1.3459 -1.6108 -0.4796
  219MOL0     O29431   4.403  10.852   6.562 -0.0032  0.1755  0.6795
  219MOL0     C29432   4.297  10.885   6.513  1.1184 -0.2758 -0.6067
  219MOL0     O29433   4.283  10.959   6.397 -0.7194 -0.7696  0.5177
  219MOL0     C29434   4.392  10.988   6.321  0.5591 -0.0329 -0.2724
  219MOL0     C29435   4.493  10.900   6.292  0.0239 -0.2506 -0.2462
  219MOL0     C29436   4.596  10.937   6.198 -0.1464  0.1385 -0.8389
  219MOL0     C29437   4.589  11.050   6.131 -0.5002 -0.6388 -0.5582
  219MOL0     O29438   4.673  11.084   6.024 -0.4636  0.3998  0.0925
  219MOL0     C29439   4.807  11.015   6.013 -0.4097  0.9545  0.1044
  219MOL0     C29440   4.889  11.074   5.887 -0.2656 -0.3240 -0.9368
  219MOL0     C29441   5.030  11.032   5.912 -1.1738  0.0339 -0.0776
  219MOL0     C29442   5.120  11.103   5.805 -0.1485  0.4316  0.3123
  219MOL0     C29443   5.265  11.102   5.852 -1.1359 -0.3425 -0.3957
  219MOL0     C29444   5.381  11.097   5.748 -0.7004  0.5721  0.5276
  219MOL0     C29445   5.380  10.972   5.649  0.1420 -0.4415 -0.0479
  219MOL0     C29446   5.392  10.837   5.710 -0.5466 -0.1468 -0.1843
  219MOL0     N29447   5.515  10.833   5.790  0.2650 -0.2674 -0.3600
  219MOL0     C29448   5.638  10.787   5.749  0.7678 -0.2485 -0.0685
  219MOL0     C29449   5.715  10.769   5.856  0.4568  0.6662  0.8840
  219MOL0     C29450   5.865  10.746   5.856  0.6291 -0.1223  0.6427
  219MOL0     C29451   5.906  10.682   5.984 -0.0225 -0.2267  0.5525
  219MOL0     C29452   6.058  10.656   5.971 -0.3343 -0.3321  0.1982
  219MOL0     C29453   6.118  10.593   6.096 -0.3447 -0.2860 -0.3528
  219MOL0     O29454   6.261  10.574   6.085  0.8082  0.2148  0.2943
  219MOL0     C29455   6.350  10.677   6.077  1.0928  1.7037 -0.2149
  219MOL0     C29456   6.338  10.798   6.148  0.4862 -0.6023 -0.2145
  219MOL0     C29457   6.447  10.886   6.163 -0.2410  0.0315 -1.2677
  219MOL0     C29458   6.575  10.852   6.111  0.0487  0.1729 -0.1913
  219MOL0     C29459   6.686  10.945   6.133 -0.4883  0.2229 -0.5740
  219MOL0     O29460   6.667  11.075   6.185 -0.2570 -0.0521  0.2273
  219MOL0     C29461   6.769  11.124   6.270 -0.2683  0.1638  0.4831
  219MOL0     C29462   6.808  11.059   6.390  0.2733 -0.3603 -0.5300
  219MOL0     C29463   6.926  11.104   6.455  0.3339 -0.3662 -0.4303
  219MOL0     C29464   6.999  11.214   6.411 -0.7840 -0.5394 -0.6575
  219MOL0     O29465   7.124  11.238   6.466  0.1862  0.0172 -0.1131
  219MOL0     C29466   7.114  11.249   6.608 -0.1893  0.7105  0.2273
  219MOL0     C29467   7.200  11.372   6.643 -0.3891 -0.1902  0.1220
  219MOL0     C29468   7.120  11.505   6.614  0.4502 -0.8997 -0.3629
  219MOL0     C29469   7.023  11.535   6.733  0.2232  0.4659 -0.2561
  219MOL0     C29470   6.908  11.631   6.691  0.1670 -0.5801  0.6802
  219MOL0     C29471   6.806  11.561   6.604 -0.1276 -1.1976  0.6503
  219MOL0     C29472   6.701  11.656   6.547 -0.0325 -0.2527  0.3045
  219MOL0     C29473   6.603  11.572   6.465  0.2730  0.3240 -0.1522
  219MOL0    Cl29474   6.463  11.660   6.443 -0.1161 -0.0113 -0.0600
  219MOL0     C29475   6.954  11.280   6.301  0.0189 -0.2887 -0.2904
  219MOL0     C29476   6.846  11.236   6.225 -0.7697 -0.0069  0.3084
  219MOL0     O29477   6.799  10.896   6.128  1.0158 -0.0641  0.2328
  219MOL0     C29478   6.587  10.735   6.033  0.1355 -0.0205 -0.8958
  219MOL0     C29479   6.475  10.645   6.026  0.4013  0.4301  0.4149
  219MOL0     N29480   5.632  10.799   5.971  0.3656  0.4922  0.3051
  219MOL0     N29481   5.515  10.836   5.932 -0.4215 -1.0634 -0.0838
  219MOL0     C29482   4.492  11.148   6.169 -0.3339  0.6808 -0.2502
  219MOL0     C29483   4.400  11.118   6.265  0.0391 -0.2981 -0.3288
  219MOL0     C29484   4.174  10.879   6.588 -0.6774 -0.1074  0.4970
  219MOL0     C29485   4.096  10.994   6.614  0.4284 -0.0856  0.0105
  219MOL0     C29486   3.983  10.993   6.703  0.0871  0.7176  0.1384
  219MOL0     C29487   3.946  10.872   6.776 -0.6881 -0.3009 -0.6261
  219MOL0     O29488   3.845  10.865   6.868 -0.1164  0.4992  0.3018
  219MOL0     C29489   3.754  10.964   6.887  1.1176  1.3159  0.0874
  219MOL0     C29490   3.643  10.966   6.784 -0.1801  0.3252  0.9261
  219MOL0     C29491   3.514  11.033   6.829 -0.5079  0.7573  0.0870
  219MOL0     C29492   3.411  11.071   6.716  0.1470  0.2371  0.0383
  219MOL0     C29493   3.285  11.127   6.764  0.4679  0.3510  0.0070
  219MOL0     C29494   3.176  11.178   6.780 -0.0439  0.2662 -0.1552
  219MOL0     C29495   4.025  10.759   6.754  0.7466  0.3377  0.2780
  219MOL0     C29496   4.138  10.765   6.669 -0.2860 -0.0774  0.1422
  219MOL0     C29497   4.205  10.634   6.649  0.1809 -0.3425 -0.1568
  219MOL0     H29498   4.491  10.798   6.329 -2.9681  0.1026  0.8482
  219MOL0     H29499   4.674  10.866   6.172  0.9899  1.2414 -0.5499
  219MOL0     H29500   4.855  11.044   6.107 -0.6950  1.2053  0.1753
  219MOL0     H29501   4.789  10.908   6.001 -0.7530  1.1892 -1.7612
  219MOL0     H29502   4.885  11.183   5.890  0.1970 -0.3212  1.0857
  219MOL0     H29503   4.844  11.058   5.789 -2.7836  2.8170 -0.4354
  219MOL0     H29504   5.039  10.922   5.912  0.2215  0.1091  1.9092
  219MOL0     H29505   5.068  11.058   6.011 -1.2735  0.7878 -0.2340
  219MOL0     H29506   5.093  11.052   5.712 -2.6654 -0.6838  1.5582
  219MOL0     H29507   5.095  11.207   5.782 -0.2138  0.4352  0.3961
  219MOL0     H29508   5.295  11.192   5.906 -1.9592 -0.3942  0.1578
  219MOL0     H29509   5.282  11.019   5.921  1.9746  1.2039  0.9355
  219MOL0     H29510   5.386  11.191   5.693  1.1976 -0.8509 -1.9759
  219MOL0     H29511   5.475  11.095   5.804 -0.7034 -0.3768  0.5247
  219MOL0     H29512   5.457  10.990   5.573  1.0572  1.4668  1.2482
  219MOL0     H29513   5.293  10.972   5.583  0.2376 -0.3388 -0.1763
  219MOL0     H29514   5.308  10.809   5.774  0.4030  0.2210  1.2661
  219MOL0     H29515   5.390  10.772   5.622  0.3438 -1.9214  1.0497
  219MOL0     H29516   5.660  10.775   5.643  1.5694  0.4873 -0.0021
  219MOL0     H29517   5.892  10.686   5.769  1.7668 -0.9078  1.5016
  219MOL0     H29518   5.916  10.842   5.844  0.6194 -0.2893 -0.8900
  219MOL0     H29519   5.892  10.744   6.073 -0.3169  1.8382 -0.8499
  219MOL0     H29520   5.857  10.584   5.986  0.0282 -0.2451  0.8818
  219MOL0     H29521   6.109  10.751   5.951 -1.2003  0.0872 -0.0716
  219MOL0     H29522   6.077  10.594   5.883  0.8681 -0.6493  0.6576
  219MOL0     H29523   6.073  10.494   6.089  0.8180 -0.7776 -1.0707
  219MOL0     H29524   6.086  10.642   6.189 -1.0148  0.5148 -0.9783
  219MOL0     H29525   6.239  10.817   6.189  0.8455 -1.2625  1.0051
  219MOL0     H29526   6.434  10.978   6.220 -1.7619 -1.3800  0.8365
  219MOL0     H29527   6.756  10.975   6.435  1.3396 -1.3258 -1.0567
  219MOL0     H29528   6.973  11.045   6.533 -0.1051 -0.4317 -0.2128
  219MOL0     H29529   7.012  11.261   6.646 -1.3558 -0.1633 -2.3930
  219MOL0     H29530   7.161  11.163   6.657 -1.5529  0.4043  1.0629
  219MOL0     H29531   7.236  11.374   6.746  2.2879  0.8295 -0.7576
  219MOL0     H29532   7.295  11.373   6.589 -0.2591  3.0557  0.2165
  219MOL0     H29533   7.197  11.582   6.599 -0.3023 -0.4881 -2.3290
  219MOL0     H29534   7.068  11.486   6.520 -0.9622  0.7210  0.0387
  219MOL0     H29535   7.073  11.586   6.816 -0.3657  1.6091 -0.5797
  219MOL0     H29536   6.980  11.446   6.780  0.3998  1.6825  2.3874
  219MOL0     H29537   6.940  11.716   6.629 -0.4804 -2.4280 -2.4329
  219MOL0     H29538   6.853  11.673   6.775  0.2641 -0.9917  0.9518
  219MOL0     H29539   6.856  11.517   6.517 -2.4612  1.3659 -2.2259
  219MOL0     H29540   6.756  11.486   6.665 -0.8907  1.1788  3.1314
  219MOL0     H29541   6.744  11.731   6.481  4.2955 -2.5140  0.1882
  219MOL0     H29542   6.648  11.705   6.629 -1.7305 -0.0569 -0.8547
  219MOL0     H29543   6.650  11.576   6.366 -0.1723  0.2335 -0.3702
  219MOL0     H29544   6.590  11.475   6.513  1.7307  0.6226  0.9181
  219MOL0     H29545   7.010  11.363   6.259 -0.2171  0.5490  0.9970
  219MOL0     H29546   6.835  11.283   6.128  0.4588  2.0538  1.1010
  219MOL0     H29547   6.681  10.712   5.983 -0.0181 -0.7565 -0.8603
  219MOL0     H29548   6.489  10.555   5.967  0.6723  2.2154 -2.4570
  219MOL0     H29549   4.496  11.243   6.117  3.6727  1.1928  0.6354
  219MOL0     H29550   4.328  11.192   6.300  0.7978  0.7458 -0.9338
  219MOL0     H29551   4.125  11.089   6.569  3.3301  0.2328  2.2928
  219MOL0     H29552   3.917  11.078   6.715  1.8759  2.0254  1.2721
  219MOL0     H29553   3.803  11.062   6.886  0.0383  1.9239  1.7790
  219MOL0     H29554   3.712  10.955   6.988 -0.6106  1.3468 -0.5875
  219MOL0     H29555   3.620  10.863   6.752  2.6057 -0.4724  1.1957
  219MOL0     H29556   3.687  10.992   6.687  1.4638 -4.9964 -0.1407
  219MOL0     H29557   3.546  11.121   6.885 -1.9662  2.2220 -1.2676
  219MOL0     H29558   3.470  10.974   6.909  0.3096 -0.5970 -0.4225
  219MOL0     H29559   3.457  11.136   6.640  2.6841 -2.1143 -0.5907
  219MOL0     H29560   3.398  10.976   6.663 -0.9324  0.3415  0.0882
  219MOL0     H29561   3.087  11.235   6.796  1.3827  2.7549 -0.6258
  219MOL0     H29562   4.003  10.667   6.807  0.7770 -0.7279 -1.4964
  219MOL0     H29563   4.269  10.611   6.734 -1.1883 -1.1943  0.6746
  219MOL0     H29564   4.133  10.552   6.642 -2.2891  1.7150 -0.3135
  219MOL0     H29565   4.264  10.633   6.556 -1.7541  0.9780 -1.4620
  220MOL0     O29566  11.268   4.122   5.860  0.7219  0.2262 -0.1768
  220MOL0     C29567  11.152   4.144   5.902 -0.1575 -0.0981 -0.5544
  220MOL0     O29568  11.135   4.208   6.024  0.5981  0.2956 -0.4529
  220MOL0     C29569  11.230   4.246   6.115  0.2173  0.1828 -0.2598
  220MOL0     C29570  11.185   4.329   6.217  0.4654 -1.2421  0.3025
  220MOL0     C29571  11.266   4.366   6.322 -0.3758 -0.0550  0.1547
  220MOL0     C29572  11.405   4.340   6.322 -0.1105  0.5096  0.2019
  220MOL0     O29573  11.473   4.374   6.431 -0.6630 -0.4115 -0.4707
  220MOL0     C29574  11.615   4.410   6.414 -0.0553  1.0093  0.6487
  220MOL0     C29575  11.694   4.279   6.443  0.0438 -0.1027 -0.2508
  220MOL0     C29576  11.843   4.282   6.431  0.7679  0.0520 -0.1843
  220MOL0     C29577  11.903   4.159   6.478  0.8745  0.1666  0.1865
  220MOL0     C29578  12.057   4.151   6.468  0.4683  0.2662  0.2546
  220MOL0     C29579  12.115   4.169   6.333 -0.0856  0.5013  0.7365
  220MOL0     C29580  12.258   4.112   6.318  1.0266 -0.0346 -1.1173
  220MOL0     C29581  12.253   3.954   6.289  0.2400 -0.3608  0.0691
  220MOL0     N29582  12.378   3.924   6.232 -0.8129 -0.3449  0.2265
  220MOL0     C29583  12.419   3.930   6.099 -0.0585 -0.2535 -0.0043
  220MOL0     C29584  12.546   3.877   6.107  0.6222 -0.3623 -0.5277
  220MOL0     C29585  12.623   3.868   5.980  0.4195  0.7107  0.3915
  220MOL0     C29586  12.726   3.745   5.974 -0.6253 -0.9259  0.1329
  220MOL0     C29587  12.648   3.618   5.968  0.6156  0.6708  0.0812
  220MOL0     C29588  12.741   3.499   5.973  0.1220  0.2383 -0.5381
  220MOL0     O29589  12.847   3.520   5.889 -0.1303 -0.3009 -0.6071
  220MOL0     C29590  12.961   3.432   5.878  1.1333 -0.1087 -0.1689
  220MOL0     C29591  13.034   3.457   5.764  0.0505  0.1213 -0.1046
  220MOL0     C29592  13.148   3.378   5.733  0.6636  0.7218 -0.4841
  220MOL0     C29593  13.169   3.257   5.810  0.7778  0.5444  0.0448
  220MOL0     C29594  13.277   3.175   5.772 -0.1574  0.8649  0.3692
  220MOL0     O29595  13.357   3.211   5.661 -0.4635 -0.1614 -0.7979
  220MOL0     C29596  13.448   3.124   5.602  1.1151 -0.6020  0.0990
  220MOL0     C29597  13.586   3.163   5.594  0.1998 -0.2657 -0.4970
  220MOL0     C29598  13.678   3.082   5.517 -0.0671  0.3143  0.5986
  220MOL0     C29599  13.631   2.982   5.433 -0.5955  0.3703  0.3005
  220MOL0     O29600  13.722   2.916   5.345  0.1290 -0.4890 -0.4041
  220MOL0     C29601  13.675   2.805   5.271 -0.1286 -0.0108  0.3611
  220MOL0     C29602  13.780   2.761   5.172 -0.0431  0.4393 -1.0961
  220MOL0     C29603  13.923   2.743   5.243 -0.3019  0.9658  0.3854
  220MOL0     C29604  13.926   2.619   5.332  0.1277  0.1039 -0.0596
  220MOL0     C29605  14.063   2.582   5.395 -0.2298 -0.3899  0.2770
  220MOL0     C29606  14.068   2.554   5.546  0.1638  0.2392 -0.0830
  220MOL0     C29607  14.209   2.542   5.598 -0.4722  0.0317 -0.0430
  220MOL0     C29608  14.262   2.409   5.552  0.4040  0.0403 -0.1156
  220MOL0    Cl29609  14.349   2.414   5.398 -0.0753 -0.1844 -0.3820
  220MOL0     C29610  13.494   2.947   5.448 -0.2091  0.2022  0.2311
  220MOL0     C29611  13.406   3.011   5.530 -0.2967  0.5641  1.2089
  220MOL0     O29612  13.280   3.067   5.832 -0.2459 -0.1704 -0.1509
  220MOL0     C29613  13.086   3.226   5.917  0.1331  0.4395 -0.6893
  220MOL0     C29614  12.980   3.316   5.951 -0.5803  0.6620  0.0362
  220MOL0     N29615  12.588   3.857   6.244 -0.0544  0.0567 -0.0878
  220MOL0     N29616  12.480   3.889   6.314  0.0789  0.3607 -1.5139
  220MOL0     C29617  11.452   4.266   6.212  0.2839 -0.1505  0.0950
  220MOL0     C29618  11.367   4.214   6.109 -0.0598 -0.2757 -0.2171
  220MOL0     C29619  11.027   4.119   5.823  0.0859 -0.3747  0.3783
  220MOL0     C29620  10.915   4.191   5.859 -0.6476 -0.6297  0.3028
  220MOL0     C29621  10.791   4.181   5.798  0.6551 -0.0494  0.9568
  220MOL0     C29622  10.775   4.112   5.678 -0.2828  0.1779  0.7085
  220MOL0     O29623  10.656   4.116   5.609  0.0364 -0.5593 -0.4519
  220MOL0     C29624  10.611   3.986   5.549 -0.1730 -0.5007  0.2461
  220MOL0     C29625  10.553   3.896   5.656 -0.2034  0.0549 -0.4319
  220MOL0     C29626  10.427   3.951   5.717  0.0666  0.0449  0.1193
  220MOL0     C29627  10.315   3.987   5.630  0.2865  0.1473  0.0991
  220MOL0     C29628  10.280   3.884   5.531  0.0548 -0.0935 -0.3686
  220MOL0     C29629  10.246   3.793   5.460 -0.3107  0.7391  0.7397
  220MOL0     C29630  10.885   4.034   5.642  0.8794 -0.2114 -0.5806
  220MOL0     C29631  11.010   4.038   5.703 -0.1150  0.4296  0.1422
  220MOL0     C29632  11.126   3.961   5.644 -0.3447  0.1173  0.6081
  220MOL0     H29633  11.080   4.357   6.217  0.1662 -1.9650 -3.1670
  220MOL0     H29634  11.218   4.406   6.411  2.9676  2.1423  1.1464
  220MOL0     H29635  11.636   4.444   6.312 -3.8794  3.0253  0.3431
  220MOL0     H29636  11.639   4.483   6.492 -2.1910  0.4384  1.9048
  220MOL0     H29637  11.662   4.193   6.383 -1.6213 -3.6088  4.9365
  220MOL0     H29638  11.662   4.250   6.544  2.5020  0.9415  0.9336
  220MOL0     H29639  11.876   4.366   6.493  4.7414 -2.8332  2.0086
  220MOL0     H29640  11.865   4.295   6.325 -2.6813 -1.4639 -1.2581
  220MOL0     H29641  11.866   4.132   6.577  2.5768 -0.2044  0.7506
  220MOL0     H29642  11.881   4.077   6.408  3.8513  1.7140 -2.8668
  220MOL0     H29643  12.097   4.231   6.532  3.0788 -2.3650  2.1781
  220MOL0     H29644  12.097   4.059   6.511  1.2360  0.4794  0.0077
  220MOL0     H29645  12.058   4.124   6.251  3.7226 -1.9170 -0.8688
  220MOL0     H29646  12.125   4.276   6.308  0.5425  0.6207  1.4833
  220MOL0     H29647  12.303   4.129   6.416 -0.2450 -1.0569 -0.3163
  220MOL0     H29648  12.315   4.172   6.247  0.2105  1.0658 -0.8731
  220MOL0     H29649  12.225   3.905   6.383  1.0405  2.5678  1.9652
  220MOL0     H29650  12.180   3.930   6.212  1.3471  1.3106 -1.5958
  220MOL0     H29651  12.358   3.964   6.016 -2.3628  1.2592  2.1590
  220MOL0     H29652  12.571   3.873   5.884 -0.3953  0.7575  0.8216
  220MOL0     H29653  12.681   3.960   5.975 -0.9180  1.4984 -2.3772
  220MOL0     H29654  12.770   3.768   5.876  0.5356 -0.1030  0.8261
  220MOL0     H29655  12.794   3.745   6.060 -2.0422  1.7908  1.3819
  220MOL0     H29656  12.600   3.613   5.870  1.6575 -1.6733 -0.3777
  220MOL0     H29657  12.569   3.616   6.043 -0.2806 -0.0342 -0.8564
  220MOL0     H29658  12.678   3.416   5.941 -0.5918 -0.0806  1.5103
  220MOL0     H29659  12.780   3.477   6.073 -0.8454  1.0013  0.0240
  220MOL0     H29660  13.010   3.546   5.706  1.2371  1.5203  1.4311
  220MOL0     H29661  13.213   3.387   5.647  0.6404 -1.6873 -0.8097
  220MOL0     H29662  13.625   3.242   5.657  0.3504 -0.7746  0.0601
  220MOL0     H29663  13.784   3.102   5.515 -0.2481  1.4091 -1.6467
  220MOL0     H29664  13.664   2.719   5.338 -0.8394 -1.3535 -1.3851
  220MOL0     H29665  13.587   2.833   5.213  0.4228 -1.6587 -1.3777
  220MOL0     H29666  13.752   2.668   5.123  1.0567  0.4012 -1.6990
  220MOL0     H29667  13.788   2.834   5.091 -2.1446 -0.8374 -2.5459
  220MOL0     H29668  13.986   2.733   5.154 -1.2936 -0.0853 -0.2371
  220MOL0     H29669  13.959   2.829   5.299  0.2958  1.1262 -0.2279
  220MOL0     H29670  13.884   2.546   5.262 -0.5530  2.0077 -1.7837
  220MOL0     H29671  13.852   2.630   5.412 -0.0243  1.5264 -0.3534
  220MOL0     H29672  14.134   2.663   5.375 -0.2108 -0.5117 -0.1487
  220MOL0     H29673  14.098   2.492   5.345 -1.7666  0.1760 -1.9981
  220MOL0     H29674  14.031   2.640   5.602 -0.2385  0.0525 -0.0559
  220MOL0     H29675  14.002   2.470   5.570  0.8853  0.0219  1.2525
  220MOL0     H29676  14.207   2.547   5.707  0.0590 -2.1034  0.1127
  220MOL0     H29677  14.265   2.625   5.554  0.5947  0.0818  1.3512
  220MOL0     H29678  14.326   2.361   5.627 -2.6659 -2.7507  0.9497
  220MOL0     H29679  14.180   2.337   5.551  1.3362 -1.0602 -0.4394
  220MOL0     H29680  13.446   2.869   5.388 -0.5708 -0.6336  1.5725
  220MOL0     H29681  13.302   2.981   5.533 -0.1557 -0.1052  0.1572
  220MOL0     H29682  13.101   3.137   5.978  1.7503  0.8734 -0.4064
  220MOL0     H29683  12.898   3.286   6.015 -0.5865 -1.1545 -0.7637
  220MOL0     H29684  11.558   4.242   6.207  0.0349 -1.0023 -2.0781
  220MOL0     H29685  11.416   4.142   6.044 -0.0487 -1.5957  1.1706
  220MOL0     H29686  10.916   4.258   5.945  2.8574  1.1519 -0.9268
  220MOL0     H29687  10.700   4.228   5.833  0.1665 -1.2651  1.3947
  220MOL0     H29688  10.681   3.929   5.488 -0.8558 -2.3590  1.1305
  220MOL0     H29689  10.524   4.014   5.488 -0.4312 -1.2637  0.2560
  220MOL0     H29690  10.633   3.874   5.727 -1.4362 -4.1633 -0.0225
  220MOL0     H29691  10.523   3.797   5.618 -1.7878 -0.2540  1.4642
  220MOL0     H29692  10.454   4.042   5.772  0.2464  0.4530 -0.6301
  220MOL0     H29693  10.378   3.878   5.783  0.2116  0.9685  1.2961
  220MOL0     H29694  10.223   4.003   5.687 -0.5116  0.0122 -1.1153
  220MOL0     H29695  10.342   4.082   5.582 -0.5622  0.7714  0.8247
  220MOL0     H29696  10.206   3.720   5.393 -0.1940  1.2345  0.1213
  220MOL0     H29697  10.872   3.986   5.545  5.4936 -0.4882 -1.2950
  220MOL0     H29698  11.197   3.937   5.724 -0.1921  2.0386  1.0927
  220MOL0     H29699  11.084   3.874   5.594 -0.9699  1.1785 -0.7674
  220MOL0     H29700  11.176   4.023   5.569  2.7749 -2.7032  0.1050
  221MOL0     O29701   3.257   2.115   9.833 -0.4385  0.4968  0.2242
  221MOL0     C29702   3.240   2.215   9.899  0.2509  1.1545  0.4145
  221MOL0     O29703   3.320   2.323   9.905  0.2449 -0.3661 -0.6640
  221MOL0     C29704   3.427   2.326   9.823 -0.5085  0.4808  0.3480
  221MOL0     C29705   3.435   2.288   9.681 -0.2093 -0.3649 -0.5972
  221MOL0     C29706   3.564   2.282   9.625  0.1001 -0.1298 -0.2779
  221MOL0     C29707   3.683   2.312   9.691  1.0122 -0.7784  0.8853
  221MOL0     O29708   3.809   2.299   9.645  0.1778  0.9362 -0.1330
  221MOL0     C29709   3.829   2.225   9.523  0.1464  0.2812 -0.4963
  221MOL0     C29710   3.979   2.177   9.524  0.3960 -1.0093  0.2366
  221MOL0     C29711   4.079   2.270   9.459 -0.3708  0.1214  0.0370
  221MOL0     C29712   4.195   2.200   9.403 -0.7022 -1.0431  0.3099
  221MOL0     C29713   4.311   2.291   9.365  0.1822 -0.2947 -0.2862
  221MOL0     C29714   4.284   2.379   9.247  0.0520 -0.4165 -0.1634
  221MOL0     C29715   4.411   2.409   9.173 -0.5842 -0.6619  0.1344
  221MOL0     C29716   4.392   2.508   9.058  0.1632 -0.5018  0.3913
  221MOL0     N29717   4.528   2.557   9.027  0.1896  0.2481  0.4425
  221MOL0     C29718   4.577   2.689   9.041  0.1043  0.0423  0.5235
  221MOL0     C29719   4.714   2.676   9.026  0.4148 -0.3568  0.4972
  221MOL0     C29720   4.825   2.779   9.047 -0.0342  0.3170  0.7088
  221MOL0     C29721   4.862   2.854   8.913 -0.0033 -0.1962  0.0037
  221MOL0     C29722   4.933   2.763   8.810  0.3809  0.2247  0.1924
  221MOL0     C29723   5.078   2.721   8.846  0.4861  0.8693  0.3993
  221MOL0     O29724   5.134   2.636   8.741  0.0711  0.1415 -0.2482
  221MOL0     C29725   5.264   2.597   8.750 -0.8468 -0.6693 -0.0175
  221MOL0     C29726   5.363   2.650   8.837 -0.4009 -0.1019 -0.5907
  221MOL0     C29727   5.495   2.594   8.849  0.0633  0.1949 -0.7880
  221MOL0     C29728   5.528   2.487   8.768  0.2851 -1.0160 -0.4803
  221MOL0     C29729   5.659   2.420   8.772  0.2507  0.7266 -0.4702
  221MOL0     O29730   5.689   2.304   8.704 -0.4685 -0.7996 -0.4419
  221MOL0     C29731   5.818   2.260   8.734  0.6032  0.1097  0.0321
  221MOL0     C29732   5.922   2.306   8.649 -0.4494  0.2713 -0.1004
  221MOL0     C29733   6.047   2.247   8.663  0.1672  0.2939  0.2454
  221MOL0     C29734   6.070   2.153   8.767  1.1995 -0.7928 -0.9210
  221MOL0     O29735   6.187   2.096   8.795  0.2941  0.3683  0.1256
  221MOL0     C29736   6.293   2.090   8.691 -0.0585 -0.0056  0.3553
  221MOL0     C29737   6.418   2.014   8.742  0.8603 -0.6796 -0.0647
  221MOL0     C29738   6.526   2.032   8.634 -0.1033  0.1281 -0.0275
  221MOL0     C29739   6.642   1.935   8.651 -0.1113  0.5888  0.2599
  221MOL0     C29740   6.734   1.977   8.759  0.2916 -0.4006 -0.9099
  221MOL0     C29741   6.853   1.876   8.786 -0.5074  1.3812  0.0383
  221MOL0     C29742   6.977   1.894   8.686  0.0503  0.1221 -0.3174
  221MOL0     C29743   7.083   1.793   8.722 -0.6376 -0.2177 -0.2942
  221MOL0    Cl29744   7.236   1.850   8.673  0.3775 -0.4427 -0.0579
  221MOL0     C29745   5.963   2.115   8.849 -0.1243  0.8354 -0.7246
  221MOL0     C29746   5.835   2.164   8.838  0.4639  1.2085  0.5132
  221MOL0     O29747   5.736   2.478   8.844  0.0670  0.3430  0.6474
  221MOL0     C29748   5.435   2.437   8.675  0.2116  0.3244  0.0759
  221MOL0     C29749   5.307   2.494   8.665  0.5276 -0.0623 -0.1429
  221MOL0     N29750   4.737   2.545   8.999 -0.2671 -0.7441 -0.6172
  221MOL0     N29751   4.633   2.475   9.000 -0.1829  0.0468 -0.0292
  221MOL0     C29752   3.663   2.359   9.814  0.0490  0.0395 -0.3558
  221MOL0     C29753   3.536   2.364   9.883 -0.6561 -0.1484  0.6380
  221MOL0     C29754   3.107   2.259   9.955  1.1716 -0.3069  0.1889
  221MOL0     C29755   3.111   2.350  10.062 -0.4024  0.2373  0.1897
  221MOL0     C29756   2.999   2.414  10.106  0.6255 -0.0151 -0.6281
  221MOL0     C29757   2.872   2.384  10.057 -0.5093 -0.1352 -0.5566
  221MOL0     O29758   2.760   2.429  10.121 -0.1635 -0.8544  0.0397
  221MOL0     C29759   2.657   2.332  10.148 -1.0062  0.1740  1.0374
  221MOL0     C29760   2.548   2.396  10.236  0.2521 -0.2668 -0.1582
  221MOL0     C29761   2.427   2.302  10.257 -0.6185 -0.4166 -0.1268
  221MOL0     C29762   2.317   2.367  10.345 -0.4188  0.3299  0.6616
  221MOL0     C29763   2.355   2.381  10.485  0.9647 -0.2422 -0.2225
  221MOL0     C29764   2.386   2.382  10.603 -0.0842  0.2777  0.8908
  221MOL0     C29765   2.870   2.294   9.945  0.2633  0.0736 -0.0052
  221MOL0     C29766   2.978   2.232   9.890 -0.6829 -0.5077  0.5918
  221MOL0     C29767   2.966   2.128   9.783 -0.2362  0.8740 -0.5681
  221MOL0     H29768   3.345   2.254   9.630 -1.1708  2.4259 -0.9517
  221MOL0     H29769   3.560   2.242   9.524 -0.8325  0.2508 -0.4019
  221MOL0     H29770   3.765   2.137   9.517  2.7245 -1.6769 -1.0302
  221MOL0     H29771   3.810   2.280   9.431 -3.3698  0.0087 -0.0916
  221MOL0     H29772   3.979   2.079   9.474 -0.9665 -0.4829 -0.8702
  221MOL0     H29773   4.001   2.151   9.628 -1.4251 -1.4208  0.5686
  221MOL0     H29774   4.107   2.336   9.542 -1.4557  1.1882 -0.4232
  221MOL0     H29775   4.036   2.337   9.384 -0.7462 -1.0837 -0.8527
  221MOL0     H29776   4.232   2.120   9.468  1.4028 -1.4589 -1.2685
  221MOL0     H29777   4.170   2.144   9.312  0.5111  0.9651 -1.3503
  221MOL0     H29778   4.336   2.350   9.454 -1.7165  1.0926 -0.6140
  221MOL0     H29779   4.395   2.223   9.347 -1.9165 -3.2641  0.3361
  221MOL0     H29780   4.212   2.326   9.184  0.0270  0.8420 -1.2343
  221MOL0     H29781   4.237   2.470   9.286  2.9363  0.8008  0.6815
  221MOL0     H29782   4.452   2.314   9.138 -2.9655 -0.4864 -3.7798
  221MOL0     H29783   4.478   2.465   9.239  1.7467 -3.5323  0.3690
  221MOL0     H29784   4.345   2.459   8.972 -1.2205  1.6709 -0.1624
  221MOL0     H29785   4.334   2.598   9.080 -1.9222 -1.1338 -2.0767
  221MOL0     H29786   4.531   2.786   9.056  1.0401  0.4980  0.5539
  221MOL0     H29787   4.792   2.852   9.122 -0.9705  1.0056 -0.3399
  221MOL0     H29788   4.907   2.719   9.087  0.3222  0.5801  0.3789
  221MOL0     H29789   4.766   2.887   8.872  0.0242  3.1450  2.2178
  221MOL0     H29790   4.922   2.944   8.931  0.5545 -0.4432 -0.6051
  221MOL0     H29791   4.933   2.813   8.713  0.7850 -0.6419 -0.2604
  221MOL0     H29792   4.869   2.678   8.787  0.4135  0.4015 -0.5636
  221MOL0     H29793   5.070   2.668   8.941 -0.2221 -0.9165 -0.6150
  221MOL0     H29794   5.131   2.817   8.848  2.3095  0.0262 -2.0858
  221MOL0     H29795   5.342   2.728   8.910  0.7467  1.1500 -1.5412
  221MOL0     H29796   5.549   2.634   8.933  0.5022  0.5024 -1.2134
  221MOL0     H29797   5.894   2.385   8.580 -0.6921  2.7278  2.5929
  221MOL0     H29798   6.131   2.282   8.603 -0.4289 -0.1671 -0.8739
  221MOL0     H29799   6.267   2.040   8.597 -0.6137 -0.2876  0.6524
  221MOL0     H29800   6.337   2.187   8.670  0.2853 -0.6757 -2.4514
  221MOL0     H29801   6.460   2.040   8.840  6.2284  0.9110 -2.3668
  221MOL0     H29802   6.386   1.910   8.735 -0.6188 -0.3482  1.2980
  221MOL0     H29803   6.481   2.012   8.536  1.0632 -1.2229 -0.3275
  221MOL0     H29804   6.553   2.137   8.631 -1.2520  0.4480 -2.7259
  221MOL0     H29805   6.708   1.939   8.564  2.1587 -1.6283  1.7301
  221MOL0     H29806   6.607   1.832   8.658  0.3827  0.1049 -2.8348
  221MOL0     H29807   6.685   1.971   8.857 -1.9306 -0.3445 -1.9597
  221MOL0     H29808   6.770   2.078   8.739 -0.6402 -0.2002 -1.6467
  221MOL0     H29809   6.890   1.885   8.888 -0.6775  0.6494  0.1666
  221MOL0     H29810   6.825   1.771   8.778  3.4214  0.2836 -1.6146
  221MOL0     H29811   7.019   1.995   8.693  1.9042 -0.6037 -0.1548
  221MOL0     H29812   6.949   1.866   8.584  1.6772  0.2821 -0.8379
  221MOL0     H29813   7.087   1.794   8.832  1.5535 -2.9941 -0.2400
  221MOL0     H29814   7.065   1.689   8.692  1.3896 -0.8157  0.3724
  221MOL0     H29815   5.986   2.034   8.917 -2.3428 -2.3449 -3.4416
  221MOL0     H29816   5.751   2.129   8.897  0.4450  0.7629  0.2226
  221MOL0     H29817   5.454   2.357   8.604  0.0104  1.0001 -0.7543
  221MOL0     H29818   5.233   2.462   8.592  0.0977  2.1096 -0.7262
  221MOL0     H29819   3.746   2.385   9.878 -0.6975  2.3352 -0.2425
  221MOL0     H29820   3.535   2.396   9.987  2.1639 -0.3308  0.7953
  221MOL0     H29821   3.206   2.383  10.104  0.5974 -1.0369 -0.9605
  221MOL0     H29822   2.998   2.476  10.195 -2.0150  0.3432 -0.8242
  221MOL0     H29823   2.693   2.240  10.196 -0.8851  1.2002  3.0359
  221MOL0     H29824   2.618   2.301  10.051  0.7288 -2.0562  0.9577
  221MOL0     H29825   2.509   2.491  10.199  1.0243  0.1895  0.1695
  221MOL0     H29826   2.585   2.412  10.338 -1.8634 -0.1426  0.6330
  221MOL0     H29827   2.467   2.213  10.306  4.1034  2.1437  1.2677
  221MOL0     H29828   2.389   2.275  10.158  2.4935  0.8711 -1.7999
  221MOL0     H29829   2.277   2.458  10.301 -0.3831  2.1352  4.0715
  221MOL0     H29830   2.235   2.295  10.355 -0.3431 -0.2228 -2.0288
  221MOL0     H29831   2.424   2.392  10.703  0.9501 -2.5830  0.8886
  221MOL0     H29832   2.775   2.265   9.901  0.0211  0.0776  0.5029
  221MOL0     H29833   2.976   2.026   9.821 -0.7475 -0.4420 -3.6734
  221MOL0     H29834   2.866   2.124   9.739  0.0836  1.1066 -1.3253
  221MOL0     H29835   3.041   2.140   9.705  0.8313 -0.2734  0.2332
  222MOL0     O29836   5.838   5.642   9.572 -0.4758 -0.7416 -0.3545
  222MOL0     C29837   5.742   5.670   9.643 -0.6547  0.1860  0.2042
  222MOL0     O29838   5.707   5.795   9.684  0.3009  0.1523  0.3213
  222MOL0     C29839   5.803   5.898   9.687  0.8006 -0.2369 -0.2266
  222MOL0     C29840   5.936   5.888   9.727 -0.4322 -0.4987  0.7264
  222MOL0     C29841   6.021   6.003   9.712 -0.0587  0.5082  0.2276
  222MOL0     C29842   5.983   6.121   9.637  0.8597 -0.3120  0.3646
  222MOL0     O29843   6.067   6.228   9.616 -0.1445 -0.2734  0.0084
  222MOL0     C29844   6.206   6.217   9.651 -0.3817 -0.0587  0.1308
  222MOL0     C29845   6.290   6.180   9.532 -0.2872 -0.0848  0.1335
  222MOL0     C29846   6.432   6.150   9.576  0.2960 -0.0701  0.3524
  222MOL0     C29847   6.525   6.147   9.463 -0.5233  0.2363  1.2718
  222MOL0     C29848   6.673   6.099   9.506 -0.3695 -0.6137 -0.0630
  222MOL0     C29849   6.770   6.090   9.378  0.0193  0.6701 -0.2741
  222MOL0     C29850   6.917   6.090   9.424  0.2591 -0.5023  0.6250
  222MOL0     C29851   7.002   6.048   9.302  0.0498  0.5575  0.2673
  222MOL0     N29852   7.147   6.054   9.321  0.5503  0.4013  0.3000
  222MOL0     C29853   7.234   5.947   9.326  0.2489 -0.2224 -0.9252
  222MOL0     C29854   7.347   5.990   9.374 -0.7248 -0.1281 -0.9528
  222MOL0     C29855   7.460   5.892   9.385  0.6216 -0.3299  0.7947
  222MOL0     C29856   7.583   5.938   9.457 -0.4636  0.0761 -0.1891
  222MOL0     C29857   7.696   5.844   9.429 -0.5925 -0.0875 -0.0627
  222MOL0     C29858   7.837   5.912   9.430  0.2338 -0.4904  0.0240
  222MOL0     O29859   7.853   5.970   9.560  0.5039  0.0553 -0.4217
  222MOL0     C29860   7.987   5.988   9.589 -0.2434 -0.0387 -1.0845
  222MOL0     C29861   8.098   6.002   9.499  0.8603  0.3451 -0.4687
  222MOL0     C29862   8.223   6.038   9.543  0.2007 -0.2821 -0.6872
  222MOL0     C29863   8.242   6.075   9.677 -0.1000 -0.0933 -0.1896
  222MOL0     C29864   8.372   6.114   9.722 -0.5618 -0.2570 -0.2089
  222MOL0     O29865   8.478   6.072   9.651 -0.0956  0.6678  0.1539
  222MOL0     C29866   8.609   6.111   9.685  0.9791 -0.3117 -0.1029
  222MOL0     C29867   8.697   6.156   9.584 -0.0635  0.6237 -0.1751
  222MOL0     C29868   8.829   6.179   9.622  0.0780  0.6285 -0.4251
  222MOL0     C29869   8.880   6.144   9.748 -0.3312  0.5312  0.4860
  222MOL0     O29870   9.017   6.165   9.767 -0.2238  0.4273 -0.4182
  222MOL0     C29871   9.079   6.188   9.896  0.1985  0.9280  0.2879
  222MOL0     C29872   9.218   6.248   9.888  0.9973  0.1811 -0.3995
  222MOL0     C29873   9.311   6.164   9.809 -0.7839 -0.3747  0.5772
  222MOL0     C29874   9.445   6.141   9.891 -0.4472  0.0496  0.4168
  222MOL0     C29875   9.552   6.075   9.802  0.0236 -0.2910  0.3269
  222MOL0     C29876   9.520   5.931   9.784 -0.0077  0.0831 -0.2411
  222MOL0     C29877   9.620   5.878   9.682 -0.0020 -0.1360  0.0664
  222MOL0     C29878   9.597   5.727   9.657  0.5518 -0.1312  0.4099
  222MOL0    Cl29879   9.668   5.637   9.789 -0.0389 -0.1650  0.3999
  222MOL0     C29880   8.796   6.093   9.838 -0.4512  0.6159 -0.2522
  222MOL0     C29881   8.661   6.068   9.805  0.3484 -0.3934  0.4667
  222MOL0     O29882   8.377   6.183   9.818  0.0075 -0.2986  0.1110
  222MOL0     C29883   8.137   6.067   9.768 -0.7466  0.0479  1.6726
  222MOL0     C29884   8.008   6.025   9.719 -0.0367  0.3390  0.2261
  222MOL0     N29885   7.337   6.132   9.394  0.2764 -0.0114  0.2822
  222MOL0     N29886   7.217   6.165   9.356 -0.4336 -0.3340 -0.2580
  222MOL0     C29887   5.845   6.122   9.599 -0.8747  0.1450 -1.3724
  222MOL0     C29888   5.759   6.023   9.630  0.5422 -0.6328  0.0938
  222MOL0     C29889   5.653   5.555   9.679  0.2495 -0.1471  0.8589
  222MOL0     C29890   5.520   5.586   9.694  0.7301 -0.5121 -0.1886
  222MOL0     C29891   5.423   5.496   9.740 -0.5615  0.9758  0.5437
  222MOL0     C29892   5.464   5.354   9.758  1.1063 -0.3208  0.4842
  222MOL0     O29893   5.384   5.255   9.816 -0.8227 -0.1266  0.3878
  222MOL0     C29894   5.258   5.285   9.871  0.2395  0.7518  0.6483
  222MOL0     C29895   5.150   5.294   9.762 -0.1638 -0.1153  0.7874
  222MOL0     C29896   5.150   5.152   9.686 -0.4439 -0.2038 -0.6525
  222MOL0     C29897   5.044   5.132   9.579  0.6807 -0.9269  1.0739
  222MOL0     C29898   4.915   5.085   9.627  0.0380 -0.2771 -0.3025
  222MOL0     C29899   4.811   5.038   9.672  0.0805 -1.0399  0.1759
  222MOL0     C29900   5.603   5.323   9.734 -0.1711  0.2680  0.8600
  222MOL0     C29901   5.695   5.420   9.699  0.0393 -0.2465 -0.6243
  222MOL0     C29902   5.838   5.382   9.690 -0.0237  0.2439 -0.5517
  222MOL0     H29903   5.979   5.799   9.772 -0.0784 -1.7038 -1.8260
  222MOL0     H29904   6.124   5.998   9.747  0.2882 -0.0907 -0.8367
  222MOL0     H29905   6.234   6.312   9.696  0.5049 -0.3941  0.3224
  222MOL0     H29906   6.234   6.154   9.737 -0.0498 -2.0184 -1.3297
  222MOL0     H29907   6.290   6.274   9.477  1.7404  0.8863  1.6862
  222MOL0     H29908   6.244   6.096   9.478  0.0297  0.8717 -1.7211
  222MOL0     H29909   6.425   6.053   9.627 -4.2566  0.5348  1.2493
  222MOL0     H29910   6.465   6.228   9.645  2.2497 -1.0904  0.6712
  222MOL0     H29911   6.493   6.078   9.384  2.1121  1.1134 -0.6896
  222MOL0     H29912   6.535   6.245   9.415 -0.2570  0.9772  2.7856
  222MOL0     H29913   6.719   6.174   9.572  0.1439 -1.6906  0.8277
  222MOL0     H29914   6.668   6.006   9.563 -2.3305 -1.5169 -1.5893
  222MOL0     H29915   6.745   6.009   9.309 -1.9115 -2.4604  3.6428
  222MOL0     H29916   6.756   6.181   9.320 -2.3439  0.4411 -0.1592
  222MOL0     H29917   6.928   6.020   9.508 -1.6705 -0.0482  1.3059
  222MOL0     H29918   6.952   6.183   9.469 -1.1398 -1.8007  4.9189
  222MOL0     H29919   6.976   5.950   9.261  3.4377  0.2537 -1.4844
  222MOL0     H29920   6.965   6.114   9.223 -1.4716 -1.2679 -0.6115
  222MOL0     H29921   7.210   5.845   9.294  0.3032 -0.4625 -0.2152
  222MOL0     H29922   7.416   5.805   9.435  2.2079 -0.1751  2.5489
  222MOL0     H29923   7.488   5.844   9.291  2.7566 -1.7336  2.0751
  222MOL0     H29924   7.616   6.035   9.417  2.0420 -1.2713 -1.6986
  222MOL0     H29925   7.555   5.951   9.561  1.8493  2.4839  0.2217
  222MOL0     H29926   7.683   5.803   9.328 -0.1046  0.3573 -0.3098
  222MOL0     H29927   7.694   5.764   9.503  2.3340 -0.5933 -0.3914
  222MOL0     H29928   7.837   5.999   9.363  0.6735 -0.8331 -0.4310
  222MOL0     H29929   7.922   5.846   9.413  2.1946  1.2836  2.2140
  222MOL0     H29930   8.083   5.981   9.394  2.2543  2.2432 -1.0999
  222MOL0     H29931   8.303   6.052   9.472  1.0362  2.1550  0.6265
  222MOL0     H29932   8.660   6.169   9.483 -0.9204  0.0353  0.0523
  222MOL0     H29933   8.898   6.219   9.548 -0.6249  1.8626 -0.4442
  222MOL0     H29934   9.008   6.234   9.965 -2.3118 -0.4180 -1.2309
  222MOL0     H29935   9.101   6.092   9.944  1.5250  0.8899 -0.3570
  222MOL0     H29936   9.204   6.349   9.848  1.1076  1.0066  1.5216
  222MOL0     H29937   9.248   6.260   9.992 -0.0481  1.2556 -0.1863
  222MOL0     H29938   9.264   6.069   9.782  0.9986 -1.9311  2.5474
  222MOL0     H29939   9.328   6.212   9.712 -0.7021 -0.2281  0.6637
  222MOL0     H29940   9.425   6.089   9.984 -0.2408 -0.2789  0.2796
  222MOL0     H29941   9.486   6.240   9.916  0.4860 -0.0751 -0.5187
  222MOL0     H29942   9.647   6.094   9.853 -0.6094  0.1463  1.3840
  222MOL0     H29943   9.559   6.116   9.701  0.7794 -3.2901 -0.9167
  222MOL0     H29944   9.525   5.884   9.883 -0.4942  1.8239  0.6562
  222MOL0     H29945   9.418   5.920   9.746 -0.5213  3.7690 -0.3440
  222MOL0     H29946   9.719   5.904   9.721 -1.3153  2.6739  1.8308
  222MOL0     H29947   9.606   5.932   9.588 -0.4596  2.8182  1.7243
  222MOL0     H29948   9.490   5.709   9.645  0.3830 -0.0490  1.6743
  222MOL0     H29949   9.646   5.693   9.566  0.6057  0.5868  0.1594
  222MOL0     H29950   8.844   6.066   9.932  0.4440  0.6150 -0.7008
  222MOL0     H29951   8.589   6.037   9.880 -0.5091  1.4342  0.4480
  222MOL0     H29952   8.148   6.097   9.872 -1.7349  3.5162  0.9283
  222MOL0     H29953   7.925   6.011   9.788  0.5874 -1.3023  0.6757
  222MOL0     H29954   5.813   6.215   9.553  0.8201  1.4995  0.0188
  222MOL0     H29955   5.659   6.025   9.588  1.7652  0.9748 -3.0141
  222MOL0     H29956   5.480   5.681   9.662 -0.8561 -2.0623 -3.3398
  222MOL0     H29957   5.319   5.526   9.752 -0.3943  3.0541 -2.2019
  222MOL0     H29958   5.257   5.374   9.934 -1.8147 -0.6819  2.8293
  222MOL0     H29959   5.232   5.205   9.942 -0.7475 -0.7020 -1.2384
  222MOL0     H29960   5.162   5.379   9.695 -1.9809  0.7718  1.5140
  222MOL0     H29961   5.049   5.304   9.803 -1.2503 -2.6257 -1.0339
  222MOL0     H29962   5.138   5.077   9.765 -4.4449  0.0531 -0.8484
  222MOL0     H29963   5.245   5.130   9.635 -0.6159 -1.7543 -0.3530
  222MOL0     H29964   5.024   5.234   9.547  1.3829 -0.8929  0.7432
  222MOL0     H29965   5.078   5.068   9.497 -3.1223 -0.2407 -1.2923
  222MOL0     H29966   4.723   4.995   9.715  0.7219 -2.0619  0.4929
  222MOL0     H29967   5.628   5.222   9.764 -1.1236 -0.0082  0.7602
  222MOL0     H29968   5.876   5.385   9.587  1.4575 -1.2629 -0.1009
  222MOL0     H29969   5.898   5.461   9.734 -1.4383  1.1203 -0.1479
  222MOL0     H29970   5.865   5.290   9.743 -2.0622  1.3492  2.6183
  223MOL0     O29971   0.558   3.620   3.496  0.2222  0.1627  0.3130
  223MOL0     C29972   0.515   3.510   3.532  0.3203  0.0120 -0.4699
  223MOL0     O29973   0.584   3.411   3.592 -0.4509  0.3806  0.2995
  223MOL0     C29974   0.719   3.411   3.614 -0.9728 -0.1588 -0.0313
  223MOL0     C29975   0.785   3.288   3.614 -0.5706  0.6197  0.4050
  223MOL0     C29976   0.920   3.274   3.652  0.5151 -0.2457 -0.1899
  223MOL0     C29977   0.995   3.383   3.660  0.3461 -0.3877  0.3439
  223MOL0     O29978   1.126   3.384   3.670 -0.2549 -0.0383  0.2005
  223MOL0     C29979   1.200   3.265   3.638 -0.2421 -0.2527 -0.2342
  223MOL0     C29980   1.340   3.311   3.622 -0.7249  0.6945 -0.2716
  223MOL0     C29981   1.432   3.201   3.582 -1.0753 -0.3952 -0.0630
  223MOL0     C29982   1.579   3.264   3.551 -0.6498 -0.0190  0.0133
  223MOL0     C29983   1.675   3.146   3.520  0.5142  0.4650  0.5400
  223MOL0     C29984   1.823   3.196   3.499  0.1855  0.4363 -0.4178
  223MOL0     C29985   1.930   3.084   3.525 -0.8410  0.0856  0.9817
  223MOL0     C29986   1.926   3.024   3.670 -0.4345  0.3527 -0.3802
  223MOL0     N29987   1.934   3.124   3.776  0.0841  0.1451 -0.9787
  223MOL0     C29988   1.843   3.144   3.876 -0.3226 -0.3937  0.5092
  223MOL0     C29989   1.911   3.245   3.957  1.0166  0.7898  0.3028
  223MOL0     C29990   1.841   3.298   4.081 -0.2434 -0.0771  0.0345
  223MOL0     C29991   1.692   3.291   4.091 -0.2193  0.2299  0.9168
  223MOL0     C29992   1.624   3.403   3.996 -0.1395 -0.5582  1.2871
  223MOL0     C29993   1.471   3.389   3.982  0.2892  0.6238  0.5521
  223MOL0     O29994   1.439   3.249   3.951  0.2227 -0.0277 -0.3797
  223MOL0     C29995   1.315   3.200   3.964 -0.0462 -0.0780  0.2477
  223MOL0     C29996   1.300   3.062   3.942 -0.1582 -0.5415 -0.7512
  223MOL0     C29997   1.168   2.999   3.940  0.4823  0.1757  0.4270
  223MOL0     C29998   1.054   3.076   3.968  0.3441 -0.4880 -0.2346
  223MOL0     C29999   0.918   3.019   3.969 -0.5188  0.1369 -0.4822
  223MOL0     O30000   0.815   3.095   4.016 -0.2824 -0.2103  0.0546
  223MOL0     C30001   0.691   3.059   3.987  1.0448 -0.5524 -0.2088
  223MOL0     C30002   0.620   2.942   4.030  1.0683  0.9545  0.3589
  223MOL0     C30003   0.497   2.902   3.982 -0.6593  0.5402 -0.0339
  223MOL0     C30004   0.437   2.965   3.878 -0.0892  0.3748 -0.3146
  223MOL0     O30005   0.322   2.938   3.821 -0.2697  0.3414 -0.4510
  223MOL0     C30006   0.230   2.851   3.887  0.2580  0.5358  0.1468
  223MOL0     C30007   0.097   2.841   3.818  0.6815 -0.4936 -0.9730
  223MOL0     C30008   0.085   2.748   3.704 -0.8896  0.0071  0.1659
  223MOL0     C30009  -0.054   2.731   3.651 -0.4864 -0.0220 -0.3376
  223MOL0     C30010  -0.119   2.606   3.713  0.3818  0.3648 -0.1867
  223MOL0     C30011  -0.264   2.605   3.685 -0.3630 -0.1641  0.5407
  223MOL0     C30012  -0.315   2.622   3.537  0.1361  0.3078  0.5309
  223MOL0     C30013  -0.435   2.541   3.516 -0.1689  0.0590  0.3740
  223MOL0    Cl30014  -0.559   2.590   3.628 -0.4299 -0.0928 -0.0491
  223MOL0     C30015   0.502   3.081   3.842 -0.1096  0.2104 -0.0514
  223MOL0     C30016   0.627   3.127   3.887  0.2380  0.1083 -0.6250
  223MOL0     O30017   0.908   2.900   3.930 -0.5148 -0.4813  0.3645
  223MOL0     C30018   1.072   3.216   3.990 -0.7271 -0.1449 -0.2669
  223MOL0     C30019   1.204   3.277   3.984  0.3194 -0.1207  0.1515
  223MOL0     N30020   2.023   3.278   3.893 -0.4779 -0.0643 -0.1333
  223MOL0     N30021   2.038   3.212   3.786 -0.2925  0.0004  0.0210
  223MOL0     C30022   0.936   3.504   3.658  0.1175  0.2013 -0.4395
  223MOL0     C30023   0.800   3.523   3.641 -0.7004  0.0902  0.3267
  223MOL0     C30024   0.368   3.479   3.518 -0.2111 -0.1317  0.1104
  223MOL0     C30025   0.304   3.396   3.612 -0.4930  1.1306  0.0774
  223MOL0     C30026   0.167   3.374   3.589 -0.3856 -0.2979 -1.0636
  223MOL0     C30027   0.087   3.419   3.480  0.0995 -0.7265  0.9793
  223MOL0     O30028  -0.049   3.398   3.475  0.3459 -0.3539  0.3060
  223MOL0     C30029  -0.114   3.408   3.348 -0.0091  0.4006  0.0943
  223MOL0     C30030  -0.255   3.363   3.355 -0.1142  0.1972  0.9863
  223MOL0     C30031  -0.319   3.471   3.450 -0.3400  0.6551 -0.2769
  223MOL0     C30032  -0.470   3.423   3.453  0.8509 -0.7127 -0.3165
  223MOL0     C30033  -0.548   3.519   3.534 -0.0645  0.0541  0.4916
  223MOL0     C30034  -0.618   3.602   3.588 -0.1311  0.7836  0.6361
  223MOL0     C30035   0.157   3.501   3.393  0.1897 -0.0041  0.9002
  223MOL0     C30036   0.294   3.528   3.405 -0.5168 -0.8403 -0.5946
  223MOL0     C30037   0.343   3.608   3.290  0.4527 -0.4950  0.0842
  223MOL0     H30038   0.732   3.198   3.585  1.5502 -0.1431 -1.4111
  223MOL0     H30039   0.963   3.174   3.645 -0.0531 -0.7107  2.0972
  223MOL0     H30040   1.194   3.188   3.715  0.2747 -0.9413 -0.8615
  223MOL0     H30041   1.166   3.227   3.541 -0.3695  2.0971 -1.1906
  223MOL0     H30042   1.389   3.350   3.712  0.9926 -0.3966 -0.6880
  223MOL0     H30043   1.337   3.382   3.538 -2.9999  0.0941 -0.7473
  223MOL0     H30044   1.386   3.159   3.492 -0.8483 -0.7293 -0.0248
  223MOL0     H30045   1.436   3.128   3.663  0.4960  1.3024  1.4723
  223MOL0     H30046   1.575   3.338   3.470  4.0894  0.0233 -0.4615
  223MOL0     H30047   1.623   3.314   3.637  0.3687 -1.3174  0.2873
  223MOL0     H30048   1.661   3.072   3.600 -2.3352  1.6991  1.3304
  223MOL0     H30049   1.656   3.094   3.426 -0.5558  0.8672  0.5126
  223MOL0     H30050   1.827   3.237   3.397 -2.6469  1.5924 -0.1790
  223MOL0     H30051   1.848   3.285   3.557  1.7500 -0.7730  0.8198
  223MOL0     H30052   2.032   3.124   3.517 -0.2643 -0.9949  2.6176
  223MOL0     H30053   1.933   3.014   3.440 -1.6152  2.6217 -1.2864
  223MOL0     H30054   1.836   2.962   3.671  0.2671 -0.7658 -2.0543
  223MOL0     H30055   2.007   2.951   3.677 -1.6207 -0.9785 -0.1988
  223MOL0     H30056   1.743   3.103   3.887 -0.2470 -0.7839 -0.2033
  223MOL0     H30057   1.877   3.244   4.169 -1.5757 -1.5099 -0.2551
  223MOL0     H30058   1.861   3.405   4.093 -0.8707  0.1995 -1.2147
  223MOL0     H30059   1.651   3.192   4.073  1.1103 -0.0717 -0.6636
  223MOL0     H30060   1.675   3.329   4.193 -0.9218  0.7306  0.6229
  223MOL0     H30061   1.666   3.390   3.895 -0.6275 -2.3794  1.2918
  223MOL0     H30062   1.648   3.504   4.031  0.1999 -0.6192  1.2350
  223MOL0     H30063   1.428   3.461   3.912 -0.0125 -1.3764 -1.4208
  223MOL0     H30064   1.420   3.411   4.076 -0.5427  2.4442 -0.2829
  223MOL0     H30065   1.393   3.011   3.920  1.3408  2.6372 -2.4773
  223MOL0     H30066   1.153   2.892   3.929  0.3785  0.4086 -2.7771
  223MOL0     H30067   0.656   2.881   4.113 -1.0575 -0.3704  0.3912
  223MOL0     H30068   0.455   2.813   4.028  1.0499 -0.4133 -0.2173
  223MOL0     H30069   0.270   2.749   3.892  0.7643  0.7240  0.0482
  223MOL0     H30070   0.215   2.881   3.991 -0.1042  1.4484 -0.1569
  223MOL0     H30071   0.031   2.806   3.898  0.4073 -1.1737 -1.4862
  223MOL0     H30072   0.061   2.939   3.784 -0.5293 -0.5897 -0.0288
  223MOL0     H30073   0.150   2.790   3.627 -1.5172  0.0710 -0.3364
  223MOL0     H30074   0.133   2.654   3.733  1.5181  1.9654  3.2031
  223MOL0     H30075  -0.055   2.723   3.542  2.9703 -1.8161 -0.3888
  223MOL0     H30076  -0.115   2.818   3.675  2.5127  2.1709 -0.1154
  223MOL0     H30077  -0.103   2.588   3.820 -3.4325  0.4499  0.5437
  223MOL0     H30078  -0.083   2.525   3.649 -2.0723 -0.9903  0.0142
  223MOL0     H30079  -0.301   2.513   3.732 -1.5112  0.5661  1.1225
  223MOL0     H30080  -0.313   2.688   3.736  1.9244  3.0517 -2.0338
  223MOL0     H30081  -0.239   2.583   3.468 -1.4050 -0.8270 -0.5791
  223MOL0     H30082  -0.334   2.729   3.521 -1.2403  0.4614  2.7292
  223MOL0     H30083  -0.478   2.551   3.416 -3.3402 -4.8008  0.9278
  223MOL0     H30084  -0.424   2.432   3.516  2.2661  0.2362 -1.0951
  223MOL0     H30085   0.453   3.144   3.769 -0.4092 -0.5761 -0.5389
  223MOL0     H30086   0.671   3.214   3.839  0.3438  0.3539 -0.0862
  223MOL0     H30087   0.992   3.285   4.012 -1.4019 -1.1517  0.5054
  223MOL0     H30088   1.225   3.382   3.998  1.2554 -0.4282  1.1397
  223MOL0     H30089   1.000   3.592   3.659  0.1916  0.2737 -3.1045
  223MOL0     H30090   0.755   3.622   3.634  0.3412  0.4714 -2.0975
  223MOL0     H30091   0.350   3.358   3.703 -0.8134  0.6247  0.0329
  223MOL0     H30092   0.119   3.317   3.667  2.7067 -0.6769  0.7111
  223MOL0     H30093  -0.065   3.348   3.271 -0.3830 -0.3824  0.4565
  223MOL0     H30094  -0.124   3.513   3.318 -2.8169  0.6671  1.6532
  223MOL0     H30095  -0.260   3.259   3.390  1.5473 -0.0310  0.6462
  223MOL0     H30096  -0.304   3.380   3.259 -2.0547 -0.5397  1.7958
  223MOL0     H30097  -0.309   3.571   3.408  1.0409  0.0420 -1.4720
  223MOL0     H30098  -0.273   3.469   3.549  1.6612  0.9496 -1.1676
  223MOL0     H30099  -0.510   3.404   3.353 -1.3818 -1.2935  0.6198
  223MOL0     H30100  -0.456   3.337   3.519  3.6207  2.0672  3.1704
  223MOL0     H30101  -0.682   3.684   3.616  3.3404  3.0691  2.7773
  223MOL0     H30102   0.095   3.549   3.318 -1.5675 -0.7173  1.8407
  223MOL0     H30103   0.446   3.582   3.264  1.5539  3.1929  0.1503
  223MOL0     H30104   0.285   3.603   3.198 -0.9550  0.3153  0.8958
  223MOL0     H30105   0.337   3.712   3.323 -0.0219  0.0134 -1.4870
  224MOL0     O30106   5.576   8.212   7.829  0.2495  0.2769  0.1295
  224MOL0     C30107   5.526   8.231   7.716  0.4987  0.3231 -0.8319
  224MOL0     O30108   5.596   8.242   7.598 -0.2477 -0.0342 -0.6884
  224MOL0     C30109   5.729   8.267   7.594  0.6477 -0.3081  0.1063
  224MOL0     C30110   5.807   8.227   7.483 -0.3253  0.4703  0.0933
  224MOL0     C30111   5.942   8.244   7.480  0.2442  0.6002  0.7077
  224MOL0     C30112   6.005   8.305   7.590 -0.7632 -0.6055  0.3180
  224MOL0     O30113   6.143   8.316   7.595 -0.2064  0.9891  0.6450
  224MOL0     C30114   6.216   8.231   7.674 -0.2363  0.1890 -0.1913
  224MOL0     C30115   6.361   8.266   7.680  0.3549  0.5677 -0.3811
  224MOL0     C30116   6.420   8.176   7.793  0.3070  0.1295  1.4835
  224MOL0     C30117   6.571   8.195   7.813 -0.3920 -0.4617  0.4954
  224MOL0     C30118   6.623   8.087   7.906  0.6293  0.1471 -0.3319
  224MOL0     C30119   6.596   8.125   8.055 -0.3623 -0.0183  0.7983
  224MOL0     C30120   6.654   8.026   8.149  0.7651  0.5886 -0.4315
  224MOL0     C30121   6.646   8.058   8.302 -0.0452  0.6739 -0.3421
  224MOL0     N30122   6.512   8.048   8.361  0.5366 -0.5509 -0.4754
  224MOL0     C30123   6.438   7.933   8.377 -0.5665 -1.0899  0.4427
  224MOL0     C30124   6.325   7.982   8.430  0.6009  0.3123  0.0106
  224MOL0     C30125   6.191   7.902   8.423  0.6512  0.3007  0.1139
  224MOL0     C30126   6.097   7.961   8.316 -2.0110 -0.2578 -0.4159
  224MOL0     C30127   6.160   7.933   8.178  0.7338  0.4109 -0.4102
  224MOL0     C30128   6.045   7.962   8.080 -0.4824  0.1582 -0.5036
  224MOL0     O30129   5.950   7.851   8.069 -0.5638  0.0865 -0.0549
  224MOL0     C30130   5.816   7.880   8.100  0.4997 -0.3872 -0.3884
  224MOL0     C30131   5.755   8.001   8.069  0.4804 -0.8381 -0.1284
  224MOL0     C30132   5.616   8.028   8.093 -0.8921  0.0308  0.1540
  224MOL0     C30133   5.529   7.939   8.162 -0.0563  0.4813  0.0373
  224MOL0     C30134   5.391   7.970   8.206 -0.8200  0.5194 -0.2258
  224MOL0     O30135   5.347   8.094   8.201  0.3212  0.6435 -0.5370
  224MOL0     C30136   5.214   8.121   8.214  0.3720 -0.4074 -0.2073
  224MOL0     C30137   5.109   8.054   8.143  0.2625  0.4038  0.7645
  224MOL0     C30138   4.979   8.101   8.161 -0.2106  0.6338  1.3705
  224MOL0     C30139   4.955   8.201   8.256  1.0294 -1.0238 -0.5910
  224MOL0     O30140   4.823   8.240   8.273  0.4137  0.6606 -0.3544
  224MOL0     C30141   4.772   8.315   8.167  0.2449  1.0846  0.2200
  224MOL0     C30142   4.629   8.264   8.123  1.3960 -0.2135  0.0532
  224MOL0     C30143   4.531   8.258   8.246 -0.3210 -0.2827 -0.1469
  224MOL0     C30144   4.422   8.362   8.237  0.4940  0.2955  0.0491
  224MOL0     C30145   4.330   8.361   8.360 -0.0256  0.4666 -0.0455
  224MOL0     C30146   4.224   8.472   8.354  0.1082  0.6039  0.0053
  224MOL0     C30147   4.095   8.439   8.270  0.1995  0.5243 -0.3163
  224MOL0     C30148   4.000   8.553   8.276  0.4502 -0.1509  0.1272
  224MOL0    Cl30149   4.069   8.702   8.197  0.1015 -0.3442  0.3381
  224MOL0     C30150   5.057   8.256   8.330 -0.2836 -0.5219  0.0726
  224MOL0     C30151   5.186   8.217   8.304 -0.1872  0.1068  0.2835
  224MOL0     O30152   5.323   7.866   8.235  0.0431 -0.2567 -0.0176
  224MOL0     C30153   5.587   7.808   8.181  0.2974  0.3371 -0.4301
  224MOL0     C30154   5.730   7.778   8.145  0.0852  0.4235 -0.0497
  224MOL0     N30155   6.332   8.110   8.463  0.2464 -0.3195 -0.3399
  224MOL0     N30156   6.444   8.151   8.417 -1.5225 -0.0978 -0.1969
  224MOL0     C30157   5.927   8.359   7.690  0.4975 -0.1929  0.1318
  224MOL0     C30158   5.792   8.332   7.699  0.1372 -0.2973  0.1281
  224MOL0     C30159   5.372   8.242   7.721  0.0839 -0.1074  0.1836
  224MOL0     C30160   5.308   8.267   7.842 -0.1350 -1.0340  0.4615
  224MOL0     C30161   5.171   8.267   7.854 -0.2456  0.1164 -0.6731
  224MOL0     C30162   5.090   8.254   7.740  0.1788  0.6336 -0.0340
  224MOL0     O30163   4.958   8.276   7.769  0.0758 -0.7464 -0.4720
  224MOL0     C30164   4.862   8.282   7.663 -1.0270  0.5868 -0.0359
  224MOL0     C30165   4.723   8.270   7.702 -0.4966 -0.1658  0.5070
  224MOL0     C30166   4.708   8.126   7.751  0.2085  0.0298 -0.2517
  224MOL0     C30167   4.567   8.104   7.803 -0.2470 -0.0016  0.1246
  224MOL0     C30168   4.471   8.069   7.701 -0.3384  0.3014  0.7175
  224MOL0     C30169   4.393   8.047   7.612 -0.0110 -0.1675  0.1921
  224MOL0     C30170   5.150   8.212   7.622 -0.3925 -0.2724 -0.7572
  224MOL0     C30171   5.296   8.224   7.605  0.7051 -0.2421  0.8733
  224MOL0     C30172   5.345   8.217   7.462  1.0862  0.1894  0.3196
  224MOL0     H30173   5.758   8.180   7.398 -0.4934  3.2079 -1.4278
  224MOL0     H30174   6.002   8.207   7.398  1.0060  1.2665  0.9485
  224MOL0     H30175   6.180   8.243   7.777 -0.0472  2.9084 -0.3736
  224MOL0     H30176   6.212   8.127   7.641  2.2647 -0.4845  1.3479
  224MOL0     H30177   6.369   8.375   7.689  1.6221  0.4958 -0.4504
  224MOL0     H30178   6.405   8.229   7.586  0.7206  1.8855 -0.7454
  224MOL0     H30179   6.399   8.073   7.760 -3.1891  1.3153 -0.5166
  224MOL0     H30180   6.369   8.191   7.888 -1.4225 -2.1892  1.0019
  224MOL0     H30181   6.626   8.193   7.718  0.8127  1.3977  1.0949
  224MOL0     H30182   6.600   8.290   7.859 -0.8407  0.0624 -0.2998
  224MOL0     H30183   6.575   7.990   7.886  1.7302 -0.8421  1.4967
  224MOL0     H30184   6.728   8.070   7.882  1.3037  0.8654  1.8433
  224MOL0     H30185   6.643   8.224   8.062 -1.5555  0.8569 -2.1848
  224MOL0     H30186   6.488   8.127   8.070 -0.0951 -2.8661  5.2252
  224MOL0     H30187   6.754   8.004   8.112  0.2312 -3.8642  0.3094
  224MOL0     H30188   6.600   7.932   8.138 -1.7527  2.0127 -1.2727
  224MOL0     H30189   6.716   7.997   8.359 -1.3922  0.5528  1.2290
  224MOL0     H30190   6.684   8.161   8.306  1.8100  0.0679 -1.2762
  224MOL0     H30191   6.441   7.832   8.336  1.6869 -0.4936 -1.0830
  224MOL0     H30192   6.205   7.795   8.404 -1.2304 -0.7318  3.6157
  224MOL0     H30193   6.148   7.898   8.523 -0.9113 -1.0218 -0.5611
  224MOL0     H30194   5.997   7.918   8.329 -1.6757 -0.7478  0.7043
  224MOL0     H30195   6.089   8.068   8.337 -0.6983 -0.5474  1.9051
  224MOL0     H30196   6.193   7.829   8.166 -0.6336  0.0325 -1.1789
  224MOL0     H30197   6.244   7.999   8.157 -0.6725  1.8441 -1.8178
  224MOL0     H30198   6.097   7.979   7.985 -1.4263  0.9380 -0.9038
  224MOL0     H30199   5.992   8.048   8.122 -0.5750  0.5676 -1.4348
  224MOL0     H30200   5.818   8.079   8.028 -0.5514  0.6629  1.0011
  224MOL0     H30201   5.580   8.127   8.070  1.7619  1.5758  2.1320
  224MOL0     H30202   5.146   7.991   8.062  2.5397  2.0011  0.4827
  224MOL0     H30203   4.899   8.052   8.106  1.7131  0.8834 -1.8795
  224MOL0     H30204   4.761   8.415   8.210  0.3154  0.9696  0.5140
  224MOL0     H30205   4.833   8.313   8.077 -1.5272 -1.3884 -1.0711
  224MOL0     H30206   4.594   8.337   8.049 -1.5911 -1.2172  0.3262
  224MOL0     H30207   4.641   8.165   8.079  0.0630 -0.2084 -0.3831
  224MOL0     H30208   4.491   8.157   8.241  2.2852 -1.4869  1.2169
  224MOL0     H30209   4.588   8.269   8.339  4.1374 -0.2886 -2.5673
  224MOL0     H30210   4.360   8.345   8.149  0.2245  1.3673  0.0176
  224MOL0     H30211   4.464   8.463   8.228 -1.0412  0.8899 -0.9308
  224MOL0     H30212   4.405   8.382   8.438 -1.0305 -1.4587  1.5479
  224MOL0     H30213   4.287   8.261   8.373 -2.2278  1.1730 -1.4989
  224MOL0     H30214   4.196   8.500   8.456  1.4676  0.5959  0.3989
  224MOL0     H30215   4.264   8.569   8.323 -0.9218  1.0523  0.0308
  224MOL0     H30216   4.055   8.352   8.321  0.6467  0.3194 -0.3102
  224MOL0     H30217   4.124   8.412   8.168 -0.0860  0.5726 -0.4104
  224MOL0     H30218   3.907   8.524   8.227  0.8263 -2.5431  0.6998
  224MOL0     H30219   3.976   8.579   8.380  0.9679 -1.0442  0.4773
  224MOL0     H30220   5.046   8.337   8.401  1.7107  0.9959 -1.2490
  224MOL0     H30221   5.268   8.270   8.352  0.7183 -1.9972  1.1622
  224MOL0     H30222   5.520   7.730   8.215  0.1286 -1.3538 -4.1648
  224MOL0     H30223   5.769   7.678   8.155 -1.6835 -0.1670  1.5984
  224MOL0     H30224   5.971   8.421   7.767  0.6927 -1.0665  0.7449
  224MOL0     H30225   5.730   8.389   7.769  3.0972  0.8141  2.0537
  224MOL0     H30226   5.367   8.289   7.930  0.2028 -1.4833  0.3540
  224MOL0     H30227   5.121   8.298   7.945 -0.2471  1.3413 -1.0653
  224MOL0     H30228   4.887   8.209   7.585  1.2976  3.1065 -1.8033
  224MOL0     H30229   4.877   8.378   7.613 -1.4337 -0.2835 -1.9156
  224MOL0     H30230   4.661   8.282   7.613  1.0278 -1.0967 -0.7383
  224MOL0     H30231   4.692   8.347   7.775  2.8926  1.4247  0.4809
  224MOL0     H30232   4.780   8.112   7.833 -0.3536  0.1414  0.2660
  224MOL0     H30233   4.729   8.058   7.668 -3.4017 -0.5303 -0.8647
  224MOL0     H30234   4.575   8.012   7.863  0.5678 -1.3108 -1.8843
  224MOL0     H30235   4.535   8.185   7.869 -0.9648 -0.1962  0.0296
  224MOL0     H30236   4.319   8.025   7.537  0.6408  0.8464 -0.7850
  224MOL0     H30237   5.085   8.189   7.538 -1.9282  0.5689  0.1549
  224MOL0     H30238   5.341   8.320   7.426 -0.2405  0.3491  0.8814
  224MOL0     H30239   5.441   8.166   7.449  1.2280  0.4569  0.3117
  224MOL0     H30240   5.272   8.158   7.405  0.1647 -0.0609  1.7090
  225MOL0     O30241   3.579   9.580   8.891 -0.4550  0.4239  0.2425
  225MOL0     C30242   3.526   9.577   8.783  0.3751 -0.6110 -0.4615
  225MOL0     O30243   3.573   9.622   8.663  0.7352  0.4385 -0.1383
  225MOL0     C30244   3.688   9.685   8.652  0.5151  0.0103  1.1177
  225MOL0     C30245   3.774   9.665   8.543  0.7559 -0.4095  0.5558
  225MOL0     C30246   3.893   9.739   8.539 -0.0887  0.3126  1.1421
  225MOL0     C30247   3.929   9.837   8.635  0.0466 -0.0240  0.0538
  225MOL0     O30248   4.049   9.898   8.639  0.1628 -0.1524 -0.1571
  225MOL0     C30249   4.164   9.834   8.581 -1.4285 -0.2251 -0.6269
  225MOL0     C30250   4.284   9.901   8.642 -0.2782  0.9171  0.0324
  225MOL0     C30251   4.412   9.866   8.567 -1.7285  0.7770  0.3217
  225MOL0     C30252   4.518   9.965   8.604 -1.0294 -0.2805 -0.0612
  225MOL0     C30253   4.648   9.903   8.544 -0.1599  0.1934 -0.0098
  225MOL0     C30254   4.771   9.991   8.562  0.1024  0.6663 -0.5627
  225MOL0     C30255   4.886   9.948   8.465  0.1331 -0.4849  0.5866
  225MOL0     C30256   4.941   9.806   8.472  0.2333  0.3048 -0.9674
  225MOL0     N30257   5.016   9.784   8.599 -0.0145 -0.0783 -0.0548
  225MOL0     C30258   5.141   9.837   8.624 -0.5985 -0.8136 -0.5225
  225MOL0     C30259   5.173   9.804   8.749 -0.6139 -0.3275  0.6276
  225MOL0     C30260   5.313   9.821   8.819  0.9294  0.2002  0.1514
  225MOL0     C30261   5.315   9.738   8.954  0.0773 -0.4557  0.1539
  225MOL0     C30262   5.445   9.772   9.033  0.1884 -0.0408  0.2052
  225MOL0     C30263   5.434   9.708   9.177  0.3144  0.3807  0.6602
  225MOL0     O30264   5.529   9.762   9.268 -1.2412  0.0860  0.2197
  225MOL0     C30265   5.658   9.722   9.263 -0.9045 -0.3374  0.4131
  225MOL0     C30266   5.752   9.785   9.342 -0.3153 -0.1960  0.0023
  225MOL0     C30267   5.891   9.753   9.332 -0.7154 -0.0392 -0.3441
  225MOL0     C30268   5.934   9.641   9.246  0.7957  0.6235  0.0412
  225MOL0     C30269   6.074   9.598   9.232 -0.7176 -0.2689 -0.0621
  225MOL0     O30270   6.088   9.471   9.190 -0.0413 -0.0028  0.5120
  225MOL0     C30271   6.216   9.426   9.189  0.1295  0.4904  0.4679
  225MOL0     C30272   6.313   9.448   9.292 -0.2496  0.0421 -0.0702
  225MOL0     C30273   6.443   9.404   9.279 -0.1638  0.7995 -0.0374
  225MOL0     C30274   6.486   9.329   9.163  0.1417 -0.0193 -0.2207
  225MOL0     O30275   6.616   9.278   9.143  0.5398  0.0683 -0.1152
  225MOL0     C30276   6.720   9.346   9.212 -0.8694 -0.2106 -1.0899
  225MOL0     C30277   6.857   9.306   9.169 -0.4271  0.2892 -0.6243
  225MOL0     C30278   6.866   9.258   9.019 -0.0856 -0.2664  0.4073
  225MOL0     C30279   6.990   9.176   8.992  0.1198 -0.3821  0.8235
  225MOL0     C30280   6.998   9.108   8.852  0.0104 -0.1250  0.0441
  225MOL0     C30281   7.112   9.004   8.845 -0.3001  0.2821 -0.1613
  225MOL0     C30282   7.238   9.079   8.859 -0.1294 -0.1019 -0.1106
  225MOL0     C30283   7.367   8.996   8.838 -0.1718  0.2839  0.1892
  225MOL0    Cl30284   7.376   8.877   8.967  0.3319  0.0292 -0.0216
  225MOL0     C30285   6.401   9.307   9.059 -0.1861 -0.5447 -0.4819
  225MOL0     C30286   6.265   9.351   9.078 -0.7017  0.3985 -0.0278
  225MOL0     O30287   6.164   9.678   9.268 -0.4496 -0.1002  0.1006
  225MOL0     C30288   5.830   9.570   9.180 -0.9449  0.3835 -0.0073
  225MOL0     C30289   5.697   9.610   9.183  0.0370  0.2752 -0.0297
  225MOL0     N30290   5.064   9.738   8.794  0.4159  0.2982  0.1415
  225MOL0     N30291   4.966   9.728   8.713  0.1050 -0.5188 -0.3454
  225MOL0     C30292   3.837   9.854   8.738 -0.8724  0.7101 -0.6285
  225MOL0     C30293   3.715   9.786   8.744 -0.7121 -0.8128 -0.5475
  225MOL0     C30294   3.404   9.508   8.777  0.5861  0.3420 -0.2707
  225MOL0     C30295   3.293   9.555   8.853 -0.4176  0.3358 -0.1897
  225MOL0     C30296   3.163   9.492   8.850 -0.3096  0.3168 -0.6518
  225MOL0     C30297   3.159   9.372   8.785 -1.0605 -0.5514 -0.1604
  225MOL0     O30298   3.047   9.298   8.770 -0.0092 -0.4753  0.9581
  225MOL0     C30299   2.994   9.243   8.884  0.5409 -0.3086 -1.2279
  225MOL0     C30300   3.046   9.100   8.910 -1.3434  0.6330 -0.1615
  225MOL0     C30301   3.064   9.008   8.790 -0.4306 -0.0329  0.3365
  225MOL0     C30302   3.075   8.855   8.827 -0.4593 -0.4931  0.1605
  225MOL0     C30303   3.106   8.766   8.712  0.2760 -0.2201 -0.1052
  225MOL0     C30304   3.130   8.680   8.624  0.2225  0.0127 -0.5083
  225MOL0     C30305   3.271   9.324   8.713 -0.7649 -0.1231 -0.6077
  225MOL0     C30306   3.395   9.388   8.704 -0.1493  0.1441 -0.2813
  225MOL0     C30307   3.505   9.322   8.624 -0.7938 -0.2762 -0.6658
  225MOL0     H30308   3.758   9.603   8.456  0.8299  0.7681 -0.3240
  225MOL0     H30309   3.961   9.719   8.456  0.7379  0.4832  1.7636
  225MOL0     H30310   4.170   9.730   8.614 -0.3454 -0.0558 -0.2396
  225MOL0     H30311   4.168   9.845   8.472  2.0496  0.3723 -0.5732
  225MOL0     H30312   4.303   9.871   8.746  3.0546 -2.0255 -1.2454
  225MOL0     H30313   4.271  10.010   8.633 -0.4936  0.7548 -1.8024
  225MOL0     H30314   4.393   9.883   8.461 -0.4579  0.1052 -0.0410
  225MOL0     H30315   4.447   9.763   8.578  0.8232  1.5399  0.1250
  225MOL0     H30316   4.511  10.070   8.575  1.4461  0.4663  1.6370
  225MOL0     H30317   4.524   9.968   8.714  3.6576 -0.2518 -0.1198
  225MOL0     H30318   4.653   9.807   8.595 -1.2761  0.8648  1.4694
  225MOL0     H30319   4.624   9.893   8.438 -4.2969  0.0653  0.7373
  225MOL0     H30320   4.755  10.099   8.559  1.5425  0.9834  1.3942
  225MOL0     H30321   4.811   9.984   8.663  0.9593  2.3870 -0.7484
  225MOL0     H30322   4.970  10.014   8.489  0.2754 -0.8518  1.1174
  225MOL0     H30323   4.851   9.977   8.366  0.2802  0.8680  0.9107
  225MOL0     H30324   4.855   9.740   8.457 -0.1890  0.9395 -1.3709
  225MOL0     H30325   5.011   9.780   8.392 -1.4580 -1.8234 -1.8688
  225MOL0     H30326   5.202   9.891   8.552 -1.1102  1.0296  0.3630
  225MOL0     H30327   5.386   9.786   8.745 -0.6444 -2.3649 -0.2947
  225MOL0     H30328   5.335   9.926   8.841  0.5924  0.0752  1.1425
  225MOL0     H30329   5.229   9.768   9.016 -0.2640  3.4048 -1.9162
  225MOL0     H30330   5.308   9.632   8.927  3.3375 -0.6454 -0.3745
  225MOL0     H30331   5.454   9.881   9.030  1.9453 -0.1637  0.0028
  225MOL0     H30332   5.534   9.739   8.978  0.4378  1.4175 -0.2913
  225MOL0     H30333   5.432   9.599   9.180 -0.9690  0.3818  0.7141
  225MOL0     H30334   5.337   9.733   9.222 -1.1125 -3.1202 -0.1234
  225MOL0     H30335   5.721   9.870   9.402 -1.6622  1.3833 -2.7675
  225MOL0     H30336   5.967   9.807   9.388 -2.2416  1.3327  0.5055
  225MOL0     H30337   6.284   9.491   9.387  1.4656 -1.0210  0.9855
  225MOL0     H30338   6.512   9.431   9.358 -0.0459  1.2167 -0.2815
  225MOL0     H30339   6.707   9.452   9.188  0.9667  0.3831  0.3204
  225MOL0     H30340   6.705   9.323   9.318  0.4930  1.4582 -0.5106
  225MOL0     H30341   6.925   9.390   9.185  1.5343 -1.8351  3.6548
  225MOL0     H30342   6.894   9.228   9.236  1.0189  2.9593  1.9083
  225MOL0     H30343   6.779   9.194   8.999 -1.9172  1.7532  1.3872
  225MOL0     H30344   6.848   9.349   8.960  1.2973  0.9592  1.7986
  225MOL0     H30345   6.990   9.100   9.071 -0.1817 -0.3967  0.8109
  225MOL0     H30346   7.078   9.242   8.997  0.2293 -0.6115  2.3500
  225MOL0     H30347   7.013   9.187   8.778  0.7622 -2.1517 -2.0852
  225MOL0     H30348   6.906   9.064   8.813  0.5318 -1.0205 -0.2141
  225MOL0     H30349   7.093   8.930   8.923 -2.8168  0.8166 -0.1817
  225MOL0     H30350   7.114   8.966   8.742  0.1533 -0.7762  0.2179
  225MOL0     H30351   7.255   9.109   8.963  5.1120 -1.0691 -0.4451
  225MOL0     H30352   7.250   9.156   8.782 -0.3540 -0.0406 -0.0837
  225MOL0     H30353   7.374   8.955   8.737 -1.1676 -0.0355  0.2387
  225MOL0     H30354   7.455   9.059   8.858 -0.0084 -0.0279  0.4626
  225MOL0     H30355   6.453   9.257   8.978  0.7419 -0.2670 -0.0722
  225MOL0     H30356   6.200   9.332   8.994 -1.1711 -0.4385  0.5125
  225MOL0     H30357   5.855   9.483   9.119 -1.5087  0.5355 -0.4621
  225MOL0     H30358   5.629   9.551   9.122  2.2110 -2.8769  0.3047
  225MOL0     H30359   3.854   9.929   8.814  0.9994 -2.7411  2.6728
  225MOL0     H30360   3.644   9.812   8.822 -0.4093  0.9626 -0.8249
  225MOL0     H30361   3.308   9.649   8.905 -1.3830 -0.8339  2.3626
  225MOL0     H30362   3.078   9.537   8.899 -0.0281  0.6386 -0.4456
  225MOL0     H30363   2.885   9.233   8.881  0.5110 -1.1914  0.8175
  225MOL0     H30364   3.015   9.305   8.972  2.4012 -1.4384 -0.8190
  225MOL0     H30365   2.997   9.062   9.000  0.2230 -0.7631  0.1565
  225MOL0     H30366   3.145   9.119   8.953  0.2837 -0.8847 -2.9388
  225MOL0     H30367   3.163   9.027   8.747 -0.2328 -1.9502 -0.1192
  225MOL0     H30368   2.983   9.029   8.720 -1.6493  0.0790  1.7286
  225MOL0     H30369   3.150   8.848   8.906  0.8648  2.8687 -0.6305
  225MOL0     H30370   2.976   8.833   8.869 -0.7262  1.0929  0.4273
  225MOL0     H30371   3.153   8.604   8.552 -2.8502 -1.6217  0.0556
  225MOL0     H30372   3.273   9.231   8.657  1.1971  0.4360 -1.5363
  225MOL0     H30373   3.486   9.219   8.593  0.3560 -2.0891  3.7917
  225MOL0     H30374   3.515   9.388   8.537  2.2610  4.4375  2.7385
  225MOL0     H30375   3.601   9.341   8.674 -1.2803  3.3545 -0.8358
  226MOL0     O30376   2.825   1.373   9.678  0.4666  0.8856 -0.3295
  226MOL0     C30377   2.757   1.296   9.750  0.3277  0.3347 -0.0889
  226MOL0     O30378   2.822   1.206   9.834 -0.5073  0.2677 -0.1553
  226MOL0     C30379   2.958   1.202   9.865  0.0022  0.3033  0.1247
  226MOL0     C30380   3.004   1.128   9.974 -0.2698  0.5487  0.0884
  226MOL0     C30381   3.140   1.120  10.003  0.5944  0.1675 -0.3420
  226MOL0     C30382   3.239   1.171   9.920  0.4978 -0.8183  0.0832
  226MOL0     O30383   3.366   1.144   9.956  0.0579 -0.4233 -0.1371
  226MOL0     C30384   3.476   1.227   9.900  0.4133  0.2555 -0.4356
  226MOL0     C30385   3.598   1.201   9.979 -0.2121  0.3498 -0.7926
  226MOL0     C30386   3.707   1.303   9.944 -0.1354 -0.5773 -0.7549
  226MOL0     C30387   3.831   1.280  10.027  0.8018  0.5767  0.4388
  226MOL0     C30388   3.924   1.403  10.005 -0.4397 -0.0201  0.1174
  226MOL0     C30389   4.046   1.396  10.103 -0.2542 -0.5913  0.0222
  226MOL0     C30390   4.016   1.423  10.253 -0.0044 -0.4475 -0.1590
  226MOL0     C30391   4.130   1.468  10.349 -0.0381 -0.2544  0.4707
  226MOL0     N30392   4.184   1.595  10.310 -0.1794  0.2241  0.0544
  226MOL0     C30393   4.150   1.724  10.356  0.2943  0.7427 -0.0829
  226MOL0     C30394   4.228   1.806  10.293  0.8441  0.3136 -0.5191
  226MOL0     C30395   4.243   1.948  10.322 -0.3414  0.3159  0.0585
  226MOL0     C30396   4.383   2.002  10.285  0.6349 -0.2446 -0.1262
  226MOL0     C30397   4.384   2.056  10.140  0.0412  0.7666  0.1241
  226MOL0     C30398   4.501   2.125  10.091 -0.0304  0.3559  0.4649
  226MOL0     O30399   4.504   2.257  10.141  0.1209  0.5306 -0.1081
  226MOL0     C30400   4.601   2.336  10.084  0.1881 -0.6520  0.3453
  226MOL0     C30401   4.574   2.470  10.059  0.6508  0.4485 -0.0146
  226MOL0     C30402   4.648   2.547   9.960  0.0869 -0.2513  0.4791
  226MOL0     C30403   4.770   2.495   9.916 -0.8161 -0.4510  1.2611
  226MOL0     C30404   4.855   2.577   9.822 -0.3738 -0.0118  0.1366
  226MOL0     O30405   4.977   2.513   9.795  0.0992  0.5268  0.2976
  226MOL0     C30406   5.085   2.583   9.750  0.8581 -0.7461 -0.0514
  226MOL0     C30407   5.164   2.528   9.650 -0.1103 -0.7386  0.0422
  226MOL0     C30408   5.272   2.599   9.597  0.2462 -0.0518  0.3082
  226MOL0     C30409   5.305   2.725   9.658 -0.2001  1.1079 -0.2848
  226MOL0     O30410   5.384   2.817   9.599 -0.5223  0.3031 -0.0363
  226MOL0     C30411   5.493   2.861   9.680 -0.5909 -0.0429 -0.6940
  226MOL0     C30412   5.623   2.819   9.623 -0.8059  0.0837  0.0014
  226MOL0     C30413   5.670   2.916   9.522 -0.2989  0.2801 -0.4580
  226MOL0     C30414   5.808   2.883   9.469 -0.4689 -0.0105  0.5371
  226MOL0     C30415   5.833   2.933   9.333 -0.1380  0.3028 -0.4364
  226MOL0     C30416   5.822   3.083   9.314 -0.1859 -0.5502 -0.3754
  226MOL0     C30417   5.857   3.128   9.167 -0.7388  0.2801 -0.0401
  226MOL0     C30418   5.807   3.271   9.156 -0.5798 -0.3137 -0.4038
  226MOL0    Cl30419   5.885   3.350   9.011  0.1853  0.5285 -0.2944
  226MOL0     C30420   5.234   2.767   9.768 -1.3131 -0.0122  0.1424
  226MOL0     C30421   5.122   2.700   9.814  0.0736 -0.2925 -1.2120
  226MOL0     O30422   4.823   2.694   9.784 -0.4242 -0.1076 -0.3938
  226MOL0     C30423   4.805   2.367   9.960  0.3775 -0.0379  0.8596
  226MOL0     C30424   4.721   2.281  10.033 -0.6151 -1.0936  0.3240
  226MOL0     N30425   4.309   1.737  10.203 -0.4417  0.0503  0.1312
  226MOL0     N30426   4.280   1.611  10.216 -0.2300  0.1955  0.0636
  226MOL0     C30427   3.199   1.247   9.812  0.0138  0.2527  0.3122
  226MOL0     C30428   3.064   1.257   9.781  0.2070  0.3900 -0.5620
  226MOL0     C30429   2.616   1.307   9.756 -0.2279  0.4105 -0.7214
  226MOL0     C30430   2.555   1.402   9.672  0.9614 -0.2661 -0.5508
  226MOL0     C30431   2.414   1.435   9.683  0.7110  0.3659 -0.4071
  226MOL0     C30432   2.345   1.378   9.791  0.8256  0.2163 -0.3855
  226MOL0     O30433   2.216   1.426   9.800  0.0782 -1.0490  0.1332
  226MOL0     C30434   2.133   1.391   9.908  0.7540  0.2567 -0.6314
  226MOL0     C30435   2.002   1.473   9.892 -0.7085  0.5491 -0.4048
  226MOL0     C30436   1.894   1.396   9.952  0.2974  0.1931  0.0449
  226MOL0     C30437   1.763   1.472   9.959 -0.4307 -0.2158  0.2589
  226MOL0     C30438   1.670   1.406  10.051  0.4052 -0.1294  0.1917
  226MOL0     C30439   1.599   1.365  10.140 -0.5154  0.4454 -0.2634
  226MOL0     C30440   2.403   1.284   9.871  0.1106 -0.0504  0.3042
  226MOL0     C30441   2.536   1.241   9.852  0.5922  0.5699 -0.5009
  226MOL0     C30442   2.577   1.146   9.958 -0.0537  0.5507 -0.3609
  226MOL0     H30443   2.932   1.080  10.040 -1.4673  2.4116  0.2041
  226MOL0     H30444   3.178   1.080  10.096  1.5322  2.2817  0.2341
  226MOL0     H30445   3.485   1.204   9.794  1.7251  0.4325 -0.3793
  226MOL0     H30446   3.441   1.331   9.905 -2.0906 -0.4663 -1.3261
  226MOL0     H30447   3.629   1.102   9.946  2.9053  0.6485  0.8924
  226MOL0     H30448   3.577   1.201  10.087 -1.4161 -3.8789 -0.8527
  226MOL0     H30449   3.663   1.401   9.968  1.2601 -0.3373  0.9964
  226MOL0     H30450   3.733   1.290   9.838  3.2861  1.4437 -0.2957
  226MOL0     H30451   3.796   1.268  10.130 -2.7993  2.1306 -0.4607
  226MOL0     H30452   3.884   1.188  10.001 -1.3737 -0.3719 -0.9015
  226MOL0     H30453   3.968   1.407   9.905  1.4140  1.6947  0.9378
  226MOL0     H30454   3.877   1.498  10.032  1.9211  0.4828  2.9772
  226MOL0     H30455   4.091   1.298  10.088  0.8884  0.0286 -0.7515
  226MOL0     H30456   4.127   1.463  10.074 -0.0235 -0.5493  0.7598
  226MOL0     H30457   3.967   1.333  10.292 -0.7036 -0.3397 -0.7629
  226MOL0     H30458   3.952   1.511  10.256  0.2932 -0.2506  0.5978
  226MOL0     H30459   4.089   1.484  10.449 -1.2806  2.1050 -0.3342
  226MOL0     H30460   4.212   1.395  10.348  0.0582 -0.1625  0.9757
  226MOL0     H30461   4.073   1.753  10.425 -1.4565 -0.5941 -1.3797
  226MOL0     H30462   4.161   1.997  10.270 -1.4971 -2.3575 -0.8111
  226MOL0     H30463   4.229   1.964  10.429 -3.0418  0.7140 -0.2868
  226MOL0     H30464   4.400   2.088  10.351 -1.5128 -0.1798  0.4254
  226MOL0     H30465   4.460   1.929  10.309 -0.6627 -0.7828  3.0069
  226MOL0     H30466   4.294   2.115  10.121 -0.5828 -0.3618 -0.5112
  226MOL0     H30467   4.369   1.967  10.078  1.6839  0.2916  0.3425
  226MOL0     H30468   4.489   2.123   9.983 -2.9048 -1.1748  0.7174
  226MOL0     H30469   4.584   2.059  10.118 -0.5858 -1.1133 -1.2283
  226MOL0     H30470   4.486   2.509  10.111  0.5952 -1.3869  1.3461
  226MOL0     H30471   4.611   2.645   9.933  1.6556 -0.0358 -1.0144
  226MOL0     H30472   5.137   2.441   9.591 -0.0981 -0.3889 -0.4853
  226MOL0     H30473   5.312   2.564   9.502 -0.7750 -1.2367  0.2936
  226MOL0     H30474   5.495   2.970   9.693  0.4917 -0.1705  0.4413
  226MOL0     H30475   5.482   2.820   9.781 -2.7598  1.4357 -0.2518
  226MOL0     H30476   5.698   2.809   9.702  1.2913 -1.3414 -2.0642
  226MOL0     H30477   5.601   2.721   9.581  0.6788 -0.9713  1.5816
  226MOL0     H30478   5.595   2.925   9.444 -2.5710  0.0518  1.5681
  226MOL0     H30479   5.683   3.012   9.572  0.1641 -0.2081  0.3941
  226MOL0     H30480   5.828   2.775   9.463  0.9659  0.3134 -2.3237
  226MOL0     H30481   5.886   2.920   9.536  2.4240 -3.2773 -0.6666
  226MOL0     H30482   5.770   2.875   9.265  0.6110  0.0028 -0.8830
  226MOL0     H30483   5.930   2.902   9.295  0.5490  1.7622  0.0584
  226MOL0     H30484   5.720   3.113   9.340  0.7254  1.2837  1.3729
  226MOL0     H30485   5.887   3.137   9.384 -2.1109 -1.1497  2.0451
  226MOL0     H30486   5.797   3.068   9.097 -1.7997  0.3296  0.8054
  226MOL0     H30487   5.964   3.116   9.151 -0.9826 -0.3207 -1.4372
  226MOL0     H30488   5.698   3.277   9.159 -0.6430 -1.6078  0.8545
  226MOL0     H30489   5.843   3.322   9.246  1.0818 -2.1218  0.0412
  226MOL0     H30490   5.257   2.860   9.820  0.9141 -0.6317  0.3803
  226MOL0     H30491   5.091   2.745   9.908  5.0075 -2.6173  1.9905
  226MOL0     H30492   4.899   2.326   9.925  0.2413 -1.2241  1.8381
  226MOL0     H30493   4.741   2.177  10.054 -0.0023 -1.4201 -1.7025
  226MOL0     H30494   3.271   1.301   9.751  0.7025 -0.2217  0.6942
  226MOL0     H30495   3.038   1.317   9.695  0.7460  4.0772  1.6258
  226MOL0     H30496   2.608   1.445   9.588  1.3214 -0.7775 -0.5906
  226MOL0     H30497   2.357   1.489   9.607  0.7822  2.4675  0.9458
  226MOL0     H30498   2.186   1.411  10.002  0.7408  1.2552 -0.8168
  226MOL0     H30499   2.116   1.284   9.901 -1.1736  0.3505  1.5426
  226MOL0     H30500   1.975   1.488   9.787  1.9111  2.2335 -0.9352
  226MOL0     H30501   2.014   1.574   9.932 -1.3021  0.7995 -0.8444
  226MOL0     H30502   1.922   1.355  10.049 -0.6607 -0.8580 -0.0934
  226MOL0     H30503   1.869   1.310   9.888 -2.8055  0.8719  0.1808
  226MOL0     H30504   1.785   1.572   9.996 -1.8739 -0.7062  2.6465
  226MOL0     H30505   1.722   1.489   9.859 -0.5219 -1.0815  0.1350
  226MOL0     H30506   1.545   1.327  10.225  0.3127 -0.4123 -0.1076
  226MOL0     H30507   2.346   1.238   9.951 -0.0249  1.4580  1.1047
  226MOL0     H30508   2.633   1.062   9.917 -0.4445 -0.7096  1.5859
  226MOL0     H30509   2.641   1.198  10.030 -2.2178  1.0910  1.2723
  226MOL0     H30510   2.491   1.097  10.003  0.8490 -3.2454 -2.3748
  227MOL0     O30511   5.814   0.499   6.648  0.4777 -0.3610 -0.9020
  227MOL0     C30512   5.823   0.417   6.743  0.4751  0.2245  0.8658
  227MOL0     O30513   5.714   0.376   6.817  0.5899 -0.0731 -0.4099
  227MOL0     C30514   5.602   0.464   6.819  0.0511 -0.3117  0.0399
  227MOL0     C30515   5.612   0.602   6.837  0.2079 -0.0801 -0.9344
  227MOL0     C30516   5.492   0.682   6.818 -0.0214 -0.1281 -0.1054
  227MOL0     C30517   5.370   0.628   6.771 -0.0512 -0.2887  0.3643
  227MOL0     O30518   5.276   0.726   6.750  1.3060  0.4931  0.6158
  227MOL0     C30519   5.136   0.703   6.765 -0.1174 -0.2589  0.2017
  227MOL0     C30520   5.066   0.816   6.832  0.1134 -0.7603 -0.1722
  227MOL0     C30521   4.913   0.796   6.792 -0.2380 -0.5374  0.3083
  227MOL0     C30522   4.834   0.925   6.839  0.5521  0.8588  0.0236
  227MOL0     C30523   4.680   0.920   6.827  0.1284 -0.1988  0.1912
  227MOL0     C30524   4.623   0.941   6.685  0.3630 -0.0585  0.9405
  227MOL0     C30525   4.471   0.971   6.693  0.0055 -0.2814 -0.7638
  227MOL0     C30526   4.419   1.010   6.566 -0.1604 -0.6234  0.5595
  227MOL0     N30527   4.279   0.983   6.542  0.2592  0.0928  0.5500
  227MOL0     C30528   4.173   1.047   6.610 -0.1648 -1.1558  0.3013
  227MOL0     C30529   4.067   0.971   6.583 -0.0024 -0.5704 -1.1236
  227MOL0     C30530   3.922   0.989   6.627 -0.5584 -0.3297  0.0086
  227MOL0     C30531   3.863   1.100   6.535  0.9759  0.6813 -1.0172
  227MOL0     C30532   3.735   1.147   6.581 -0.0859 -0.4122  0.8837
  227MOL0     C30533   3.618   1.053   6.521 -0.0627  0.9730  0.6229
  227MOL0     O30534   3.492   1.098   6.576  0.2938 -0.2900 -0.4851
  227MOL0     C30535   3.429   1.221   6.542 -0.5918 -0.4039  0.3353
  227MOL0     C30536   3.480   1.306   6.436 -0.1304  0.2575  0.4353
  227MOL0     C30537   3.423   1.429   6.405  0.5265 -0.1180 -0.6814
  227MOL0     C30538   3.304   1.471   6.477 -0.3890  1.4640  0.3099
  227MOL0     C30539   3.227   1.593   6.448 -0.3633 -0.3271  0.3538
  227MOL0     O30540   3.286   1.686   6.362  0.1742  0.5493  0.1793
  227MOL0     C30541   3.234   1.814   6.363  0.3208  0.3400 -0.5249
  227MOL0     C30542   3.116   1.844   6.300  0.3024  0.4213 -0.2441
  227MOL0     C30543   3.075   1.980   6.299  0.7887  0.1132 -0.1836
  227MOL0     C30544   3.144   2.081   6.366  0.9065  0.9860 -0.9768
  227MOL0     O30545   3.099   2.208   6.379  0.2795  0.4232 -0.0376
  227MOL0     C30546   2.960   2.234   6.425 -0.5237 -0.0828 -0.4604
  227MOL0     C30547   2.936   2.379   6.394 -0.5119 -0.2879 -0.2275
  227MOL0     C30548   2.788   2.413   6.373  0.4078  0.1329 -0.2381
  227MOL0     C30549   2.699   2.389   6.500 -0.2189  0.2111 -0.1990
  227MOL0     C30550   2.567   2.469   6.502 -0.6186 -0.2293 -0.2650
  227MOL0     C30551   2.482   2.442   6.387  0.4523 -0.8677 -0.4020
  227MOL0     C30552   2.328   2.456   6.405 -0.6308 -0.4874  0.5402
  227MOL0     C30553   2.281   2.592   6.457  0.1581  0.5376 -0.5512
  227MOL0    Cl30554   2.101   2.601   6.464 -0.1462 -0.3089  0.3662
  227MOL0     C30555   3.271   2.046   6.424  0.6788  0.5046 -0.2591
  227MOL0     C30556   3.315   1.912   6.424  0.4819  0.2422 -0.0208
  227MOL0     O30557   3.116   1.611   6.504 -0.2792  0.5373 -1.2435
  227MOL0     C30558   3.266   1.381   6.579  0.4933 -0.6095  0.1989
  227MOL0     C30559   3.323   1.263   6.613  0.5971 -0.0068 -0.1881
  227MOL0     N30560   4.101   0.871   6.499 -0.9552  0.1787  0.4656
  227MOL0     N30561   4.229   0.875   6.478  0.8832  0.4422  0.4581
  227MOL0     C30562   5.369   0.492   6.746 -0.9734  1.1065 -0.3843
  227MOL0     C30563   5.485   0.408   6.770  0.2157 -0.6856 -0.3850
  227MOL0     C30564   5.949   0.344   6.780  0.1437  0.4043  0.1978
  227MOL0     C30565   5.940   0.249   6.883 -0.1740 -0.3265  0.4176
  227MOL0     C30566   6.053   0.171   6.914 -0.0309 -0.4819 -0.5805
  227MOL0     C30567   6.174   0.184   6.854  0.3820 -0.1751  0.0721
  227MOL0     O30568   6.265   0.093   6.890  1.0107  0.7789  0.0717
  227MOL0     C30569   6.359   0.050   6.785 -0.1743  1.0587 -1.0141
  227MOL0     C30570   6.322  -0.078   6.720  0.5670 -0.5156 -0.0619
  227MOL0     C30571   6.392  -0.096   6.588  0.7867 -0.0055  0.5349
  227MOL0     C30572   6.541  -0.123   6.599 -0.4884  0.1346 -0.2413
  227MOL0     C30573   6.572  -0.233   6.684  0.4795  0.2433  0.1578
  227MOL0     C30574   6.602  -0.339   6.736 -0.0604  0.4647 -1.1872
  227MOL0     C30575   6.185   0.293   6.761  0.5736  0.9687 -0.1590
  227MOL0     C30576   6.076   0.371   6.724 -0.0426 -0.3162  1.0426
  227MOL0     C30577   6.100   0.469   6.623 -0.5705 -0.2926  0.1128
  227MOL0     H30578   5.706   0.651   6.859  0.4613 -0.6623 -0.7010
  227MOL0     H30579   5.514   0.788   6.827  1.0732 -0.3071 -0.5359
  227MOL0     H30580   5.116   0.694   6.658  3.7776  2.6711 -0.9827
  227MOL0     H30581   5.111   0.607   6.812 -0.7794  1.1797  3.0444
  227MOL0     H30582   5.107   0.911   6.795  1.9015 -1.6604 -0.6054
  227MOL0     H30583   5.082   0.808   6.940 -0.3184 -0.5250 -0.0859
  227MOL0     H30584   4.886   0.703   6.842  0.9183 -1.6632 -1.0680
  227MOL0     H30585   4.911   0.776   6.684  2.5638 -0.1001  0.0952
  227MOL0     H30586   4.854   0.947   6.944 -2.2214  0.9964  0.5969
  227MOL0     H30587   4.877   1.003   6.777 -1.7099  0.7445 -1.8439
  227MOL0     H30588   4.644   0.831   6.879  0.1833 -1.6114 -2.0698
  227MOL0     H30589   4.639   1.005   6.884 -2.6391 -1.2113 -0.1224
  227MOL0     H30590   4.679   1.024   6.640 -1.7577  0.1093 -1.6385
  227MOL0     H30591   4.647   0.856   6.620 -0.3551  0.7521 -0.4365
  227MOL0     H30592   4.454   1.048   6.768  0.2511 -1.4293  0.5079
  227MOL0     H30593   4.420   0.886   6.739  0.5456 -0.3798 -0.3332
  227MOL0     H30594   4.428   1.118   6.556 -3.3409  0.0922  3.7648
  227MOL0     H30595   4.485   0.969   6.488  0.2721  0.1765  0.4971
  227MOL0     H30596   4.166   1.145   6.659  3.3805 -0.1890 -0.8131
  227MOL0     H30597   3.870   0.893   6.626  2.3689 -2.0339 -0.4289
  227MOL0     H30598   3.912   1.029   6.728 -0.4796 -0.3429  0.0213
  227MOL0     H30599   3.935   1.183   6.541 -0.9229  2.3208  0.6487
  227MOL0     H30600   3.859   1.052   6.437  1.4525 -0.9745 -0.2515
  227MOL0     H30601   3.728   1.250   6.546  4.5914  0.2991  1.4437
  227MOL0     H30602   3.726   1.131   6.689  2.1055 -7.2036  0.5874
  227MOL0     H30603   3.638   0.951   6.553 -1.2910  0.3123 -0.6346
  227MOL0     H30604   3.634   1.058   6.413  2.1518  2.3266  0.9472
  227MOL0     H30605   3.572   1.280   6.385 -1.5550 -2.1542 -1.1156
  227MOL0     H30606   3.456   1.500   6.330 -1.2122  0.1799 -1.2016
  227MOL0     H30607   3.054   1.772   6.248  1.8395 -1.4902  0.4531
  227MOL0     H30608   2.984   2.023   6.258 -0.9480  1.5632  4.4543
  227MOL0     H30609   2.891   2.166   6.374  0.2858 -0.6922 -0.7711
  227MOL0     H30610   2.946   2.220   6.532  0.4387 -1.5358 -0.4883
  227MOL0     H30611   2.977   2.452   6.465 -0.1091  2.0292 -2.6837
  227MOL0     H30612   2.993   2.397   6.302 -0.4481 -0.2967 -0.1906
  227MOL0     H30613   2.782   2.518   6.346  2.0742  0.3557  0.1231
  227MOL0     H30614   2.750   2.347   6.294  2.0199 -0.5346 -0.4984
  227MOL0     H30615   2.759   2.409   6.589  2.3436  1.2247 -2.0503
  227MOL0     H30616   2.681   2.281   6.513  1.2933  0.1902  2.7182
  227MOL0     H30617   2.601   2.573   6.509 -1.7977  0.1934 -0.7130
  227MOL0     H30618   2.518   2.454   6.599 -0.2470  0.0263 -0.0300
  227MOL0     H30619   2.524   2.487   6.296  1.3121 -0.7648  0.0326
  227MOL0     H30620   2.496   2.335   6.364  2.8566 -0.4198 -1.3631
  227MOL0     H30621   2.307   2.373   6.474  0.3522 -2.7447 -1.7133
  227MOL0     H30622   2.275   2.417   6.318  0.4567 -0.8914  0.0377
  227MOL0     H30623   2.320   2.603   6.559 -1.2607  3.0219 -0.2020
  227MOL0     H30624   2.307   2.674   6.389 -0.2661  2.6300  1.6733
  227MOL0     H30625   3.332   2.122   6.473  2.0583 -0.9617  0.3677
  227MOL0     H30626   3.405   1.888   6.480  1.8833  3.1504 -0.8808
  227MOL0     H30627   3.176   1.414   6.630 -0.9031 -1.8065 -1.3269
  227MOL0     H30628   3.294   1.207   6.701  1.8550  1.8815  1.4859
  227MOL0     H30629   5.280   0.444   6.704 -1.1680 -0.4556  1.6510
  227MOL0     H30630   5.478   0.308   6.729 -0.5899 -0.4167 -0.9053
  227MOL0     H30631   5.850   0.212   6.931 -0.4018 -0.6749 -0.2629
  227MOL0     H30632   6.039   0.092   6.987  0.6314 -1.2788 -1.2949
  227MOL0     H30633   6.452   0.023   6.836  0.2104 -1.6215 -2.9059
  227MOL0     H30634   6.387   0.128   6.714  3.6145  1.6908  0.8920
  227MOL0     H30635   6.222  -0.067   6.677  0.2909 -0.0079  0.6872
  227MOL0     H30636   6.321  -0.157   6.795  5.5368  0.7642  1.7135
  227MOL0     H30637   6.385  -0.010   6.521  1.3072 -0.0996  0.3475
  227MOL0     H30638   6.342  -0.179   6.537 -0.5118 -0.0954  1.8971
  227MOL0     H30639   6.580  -0.132   6.497  1.3938  2.9969  0.1045
  227MOL0     H30640   6.591  -0.033   6.636 -0.0800  1.1100 -2.8947
  227MOL0     H30641   6.615  -0.434   6.784  0.1652  0.6832 -0.8130
  227MOL0     H30642   6.284   0.314   6.723  1.0434  0.3855  0.7126
  227MOL0     H30643   6.043   0.450   6.532  1.2818 -0.3095 -1.0983
  227MOL0     H30644   6.052   0.561   6.658 -0.6370  0.5162 -1.9677
  227MOL0     H30645   6.203   0.489   6.592 -0.5911  0.2903  0.3973
  228MOL0     O30646   9.279   4.080   2.851 -0.0344  0.1706  0.1404
  228MOL0     C30647   9.200   4.154   2.800 -0.0738  0.0501  0.6023
  228MOL0     O30648   9.225   4.224   2.687  0.3491  0.6022  0.2971
  228MOL0     C30649   9.312   4.173   2.593  0.1115  0.6759 -1.2438
  228MOL0     C30650   9.260   4.067   2.505  0.0872 -0.8667  0.1143
  228MOL0     C30651   9.351   4.021   2.412  0.2278  0.4195 -0.7063
  228MOL0     C30652   9.492   4.067   2.413  0.0649 -0.0349  0.5705
  228MOL0     O30653   9.576   4.016   2.320 -0.0503 -0.2921 -0.1958
  228MOL0     C30654   9.518   3.986   2.192 -0.2332  0.4911  0.3392
  228MOL0     C30655   9.638   3.954   2.096  0.6648  0.6662  0.8166
  228MOL0     C30656   9.742   4.066   2.098 -0.3450 -0.2281 -0.1169
  228MOL0     C30657   9.878   4.009   2.049 -0.1252 -0.4026 -0.2885
  228MOL0     C30658   9.999   4.104   2.069  0.2916  0.8443 -0.1500
  228MOL0     C30659  10.023   4.194   1.939  0.5342 -0.1549 -0.8702
  228MOL0     C30660  10.117   4.308   1.954 -0.1860 -0.4483 -0.4575
  228MOL0     C30661  10.265   4.264   1.931  0.0297  0.1832 -0.0513
  228MOL0     N30662  10.357   4.362   1.995 -0.3818 -0.7024  0.4081
  228MOL0     C30663  10.375   4.487   1.944  0.5251 -0.8850 -0.6494
  228MOL0     C30664  10.475   4.545   2.013 -0.7672 -0.4105  0.6405
  228MOL0     C30665  10.523   4.685   1.984 -0.5476 -0.6651 -0.5515
  228MOL0     C30666  10.672   4.720   2.000  0.1599  0.8972  0.4143
  228MOL0     C30667  10.700   4.875   1.976 -0.7125 -0.3986 -0.2051
  228MOL0     C30668  10.850   4.896   1.963  0.1905  0.3838  0.0860
  228MOL0     O30669  10.915   4.864   2.090  0.7957 -0.1529 -0.2886
  228MOL0     C30670  11.044   4.907   2.111  0.3822 -0.0925  0.3260
  228MOL0     C30671  11.093   4.917   2.238 -0.9626  0.8521  0.0169
  228MOL0     C30672  11.225   4.964   2.271  0.7814  0.2096  0.4751
  228MOL0     C30673  11.304   5.015   2.167 -0.6213 -0.2957 -0.1129
  228MOL0     C30674  11.431   5.077   2.198  1.1229 -0.8101  1.0354
  228MOL0     O30675  11.492   5.152   2.091  0.2779 -0.2410  0.2769
  228MOL0     C30676  11.626   5.188   2.107 -0.6106  0.4886 -0.4839
  228MOL0     C30677  11.738   5.094   2.132  0.7586  0.2519  0.8713
  228MOL0     C30678  11.865   5.144   2.135 -0.6864 -0.9125  0.3482
  228MOL0     C30679  11.892   5.284   2.122 -0.1069  0.3579  0.4982
  228MOL0     O30680  12.025   5.330   2.146 -0.9307 -0.2814  1.4246
  228MOL0     C30681  12.040   5.470   2.172 -0.3320 -0.1854 -0.0646
  228MOL0     C30682  12.186   5.500   2.191  0.9082 -0.4844 -0.2298
  228MOL0     C30683  12.244   5.487   2.329  0.3637 -0.0679  0.0093
  228MOL0     C30684  12.393   5.513   2.325  0.2704  0.4157  0.0164
  228MOL0     C30685  12.438   5.490   2.472 -0.4681 -0.3179  0.0419
  228MOL0     C30686  12.589   5.498   2.470 -0.7030 -0.3859  0.1700
  228MOL0     C30687  12.655   5.501   2.608  0.3944 -0.1454 -1.0114
  228MOL0     C30688  12.805   5.501   2.603 -0.8657 -0.2975 -0.3638
  228MOL0    Cl30689  12.882   5.369   2.532 -0.4064  0.2704 -0.1691
  228MOL0     C30690  11.779   5.369   2.106 -0.0088 -0.0746  0.4733
  228MOL0     C30691  11.652   5.323   2.102 -0.4976  0.4319 -0.8717
  228MOL0     O30692  11.473   5.067   2.310  0.6837  1.0037 -0.7175
  228MOL0     C30693  11.252   5.003   2.036  0.3538 -0.6609  0.4292
  228MOL0     C30694  11.127   4.952   2.007 -0.5574  0.7928 -0.0379
  228MOL0     N30695  10.521   4.448   2.104 -0.1523  0.1357  0.1014
  228MOL0     N30696  10.453   4.341   2.098 -0.3793 -0.5062  0.4996
  228MOL0     C30697   9.528   4.173   2.500 -1.4242  0.2863 -0.1462
  228MOL0     C30698   9.436   4.228   2.583 -0.2877  0.1467 -0.4475
  228MOL0     C30699   9.072   4.182   2.880 -0.0421  0.2767  0.7845
  228MOL0     C30700   9.079   4.193   3.021  0.1595  0.8619 -0.4196
  228MOL0     C30701   8.971   4.227   3.106  0.1408 -0.0954  0.1842
  228MOL0     C30702   8.851   4.255   3.043  0.6812 -0.3196 -0.4918
  228MOL0     O30703   8.734   4.272   3.108  0.6137  0.2724 -0.4126
  228MOL0     C30704   8.726   4.284   3.251 -0.3104  0.1235 -0.4186
  228MOL0     C30705   8.760   4.425   3.283 -0.7645 -0.0794  0.3614
  228MOL0     C30706   8.770   4.468   3.430  0.4445 -0.3243 -1.1417
  228MOL0     C30707   8.882   4.413   3.517  0.1443  0.5897  0.0873
  228MOL0     C30708   9.014   4.416   3.454  0.4563 -0.3175  0.0737
  228MOL0     C30709   9.130   4.419   3.424 -0.3157 -0.0645  0.1530
  228MOL0     C30710   8.841   4.242   2.904  0.0294 -0.2720 -0.3090
  228MOL0     C30711   8.949   4.206   2.820 -0.1698 -0.0041  0.3075
  228MOL0     C30712   8.919   4.196   2.674 -0.8649 -0.1808 -0.1419
  228MOL0     H30713   9.162   4.034   2.536 -0.5933  1.3706  0.4963
  228MOL0     H30714   9.315   3.946   2.342  0.5744  1.2545 -1.8042
  228MOL0     H30715   9.452   3.899   2.202  0.5322  0.0506  1.9239
  228MOL0     H30716   9.468   4.070   2.145  2.2481  1.3557 -0.9521
  228MOL0     H30717   9.605   3.949   1.992 -2.3416  3.2346  1.4880
  228MOL0     H30718   9.683   3.859   2.126 -0.0892 -0.7144 -2.0587
  228MOL0     H30719   9.748   4.115   2.196 -0.1824 -1.6230  0.6150
  228MOL0     H30720   9.717   4.153   2.038  1.8984  2.2807  2.3031
  228MOL0     H30721   9.898   3.914   2.101 -0.6007 -0.7387 -0.7138
  228MOL0     H30722   9.873   3.979   1.944 -1.4955 -0.2079 -0.2957
  228MOL0     H30723   9.970   4.164   2.155 -3.3496  0.5045 -0.9804
  228MOL0     H30724  10.091   4.049   2.091 -0.0498  0.8887  1.5934
  228MOL0     H30725  10.049   4.129   1.855 -1.2028 -3.6505  1.0597
  228MOL0     H30726   9.922   4.234   1.924  0.7877  2.6411  3.2969
  228MOL0     H30727  10.092   4.362   2.046  0.6871 -0.4086 -0.2298
  228MOL0     H30728  10.084   4.383   1.882 -0.2024  1.4297  1.3831
  228MOL0     H30729  10.282   4.170   1.984 -2.0012  1.7969  3.8777
  228MOL0     H30730  10.288   4.260   1.824 -1.5287 -0.7225 -0.3886
  228MOL0     H30731  10.309   4.539   1.875 -1.5696 -4.9980 -2.0914
  228MOL0     H30732  10.489   4.720   1.887 -0.2720 -0.4936 -0.5874
  228MOL0     H30733  10.466   4.756   2.045  1.2322  0.8950 -0.6004
  228MOL0     H30734  10.697   4.680   2.099 -0.5464 -2.4107 -0.6172
  228MOL0     H30735  10.726   4.662   1.925 -3.0618 -1.9283 -0.0094
  228MOL0     H30736  10.665   4.924   2.067  2.4849  1.3048  0.2130
  228MOL0     H30737  10.654   4.897   1.879  0.3103 -1.5391 -0.9754
  228MOL0     H30738  10.876   4.996   1.926 -0.9512  1.1904  1.3462
  228MOL0     H30739  10.886   4.828   1.886  1.5960 -1.2040  2.0271
  228MOL0     H30740  11.034   4.894   2.325 -1.9942  1.1237 -0.5970
  228MOL0     H30741  11.258   4.969   2.374  1.7779  0.4819  0.1541
  228MOL0     H30742  11.715   4.988   2.135  0.1071  0.2404 -1.7741
  228MOL0     H30743  11.955   5.085   2.148  0.1747  0.4528  0.8821
  228MOL0     H30744  12.005   5.528   2.085  2.5953  0.9863 -0.5900
  228MOL0     H30745  11.986   5.504   2.261  1.0729  0.8269  0.4312
  228MOL0     H30746  12.241   5.428   2.131  0.5589 -2.9077  2.1815
  228MOL0     H30747  12.195   5.608   2.175  1.4157 -0.2418  1.4769
  228MOL0     H30748  12.197   5.566   2.388  2.2476  1.0950  0.0698
  228MOL0     H30749  12.221   5.384   2.354  1.0196  0.0425  1.1118
  228MOL0     H30750  12.415   5.612   2.285  0.9734 -0.5369 -2.1065
  228MOL0     H30751  12.441   5.446   2.253  0.2290  0.8018 -0.3747
  228MOL0     H30752  12.405   5.395   2.515  0.5905 -2.1224 -2.8037
  228MOL0     H30753  12.396   5.566   2.538  2.0736 -0.7417  2.3317
  228MOL0     H30754  12.628   5.403   2.435  5.0621  0.6500  2.7108
  228MOL0     H30755  12.630   5.582   2.413  0.1704  1.3933  3.2106
  228MOL0     H30756  12.629   5.420   2.677 -2.3302 -0.2513 -2.0442
  228MOL0     H30757  12.626   5.591   2.664 -0.8564 -0.6599 -0.8134
  228MOL0     H30758  12.840   5.592   2.552 -2.5133 -0.0150 -1.0303
  228MOL0     H30759  12.850   5.498   2.703  0.0553  0.0156 -0.7511
  228MOL0     H30760  11.792   5.477   2.099 -2.0811  0.1558 -0.7022
  228MOL0     H30761  11.577   5.398   2.077  0.0288  1.3872  0.2771
  228MOL0     H30762  11.305   5.055   1.957 -1.4083  1.5918  0.6423
  228MOL0     H30763  11.096   4.969   1.905  0.7028 -0.0494 -0.5883
  228MOL0     H30764   9.628   4.210   2.482 -0.2917 -2.6848 -0.4491
  228MOL0     H30765   9.477   4.298   2.655  1.1993  0.2799 -1.3790
  228MOL0     H30766   9.168   4.162   3.075 -0.4757  2.7885  1.9125
  228MOL0     H30767   8.995   4.223   3.212  1.3758 -0.1859 -0.0743
  228MOL0     H30768   8.798   4.219   3.300  0.8552  0.9924 -0.9055
  228MOL0     H30769   8.625   4.265   3.286 -0.0993  1.3555  0.9548
  228MOL0     H30770   8.682   4.483   3.233  1.3533  0.0827 -3.1049
  228MOL0     H30771   8.855   4.452   3.236 -1.9179  3.0651 -0.4220
  228MOL0     H30772   8.673   4.455   3.479  0.8868  0.6913  0.0223
  228MOL0     H30773   8.787   4.576   3.424 -0.2038 -0.0942  0.6110
  228MOL0     H30774   8.885   4.467   3.612  2.0582  0.3784  0.1831
  228MOL0     H30775   8.854   4.307   3.526  1.6933  0.2784  1.6889
  228MOL0     H30776   9.236   4.414   3.412 -0.0001 -0.5071  2.5769
  228MOL0     H30777   8.745   4.261   2.858  1.2538  0.7532 -2.6245
  228MOL0     H30778   8.885   4.293   2.636  1.0025  0.9113  0.8446
  228MOL0     H30779   8.998   4.158   2.609  0.1486  2.3807 -0.5205
  228MOL0     H30780   8.837   4.123   2.668 -2.1917  0.9187  2.7700
  229MOL0     O30781   2.005   5.289   0.372 -0.0950  0.3787 -0.2797
  229MOL0     C30782   1.958   5.361   0.281  0.7830 -0.1204 -0.5315
  229MOL0     O30783   2.031   5.421   0.190 -1.2613 -0.5591  0.0905
  229MOL0     C30784   2.167   5.441   0.200  0.3022 -0.6158  0.9547
  229MOL0     C30785   2.215   5.564   0.166 -0.1885  0.1166 -0.6961
  229MOL0     C30786   2.355   5.588   0.169 -0.1886  0.6062  0.5031
  229MOL0     C30787   2.447   5.487   0.209 -0.3616 -0.0019  0.0380
  229MOL0     O30788   2.581   5.514   0.230 -0.4074  0.0903  0.4113
  229MOL0     C30789   2.623   5.642   0.266  0.3371 -0.2602 -0.2798
  229MOL0     C30790   2.761   5.667   0.327 -0.3266  0.4079 -0.4258
  229MOL0     C30791   2.885   5.608   0.243 -0.1847  1.0216 -0.0659
  229MOL0     C30792   3.028   5.637   0.294  0.0272  0.5735  0.4981
  229MOL0     C30793   3.135   5.572   0.194  0.1893 -0.0144 -0.3963
  229MOL0     C30794   3.278   5.602   0.232 -0.6075 -0.4952 -0.2980
  229MOL0     C30795   3.321   5.506   0.341 -0.8614 -0.6829 -0.0905
  229MOL0     C30796   3.455   5.544   0.409 -0.8662  0.1136 -0.0896
  229MOL0     N30797   3.569   5.477   0.338  0.1648  0.0338  0.8383
  229MOL0     C30798   3.607   5.519   0.215  0.1079 -0.0104  0.8976
  229MOL0     C30799   3.700   5.434   0.173 -0.2679 -0.6949  0.5650
  229MOL0     C30800   3.783   5.428   0.049 -0.0311  0.2872  0.2978
  229MOL0     C30801   3.925   5.394   0.081  0.1842 -0.1655 -1.0681
  229MOL0     C30802   4.015   5.382  -0.045  0.7163  0.1050 -0.7296
  229MOL0     C30803   4.165   5.363  -0.000  0.5633 -0.0213  0.3380
  229MOL0     O30804   4.250   5.390  -0.117  0.1684  0.8867 -0.5541
  229MOL0     C30805   4.355   5.483  -0.107  0.5041  0.8934 -0.8378
  229MOL0     C30806   4.333   5.611  -0.054 -0.0733  0.2886  0.7944
  229MOL0     C30807   4.441   5.705  -0.058 -0.1593  0.9976  0.4256
  229MOL0     C30808   4.575   5.665  -0.106  0.2274  0.8179  1.0950
  229MOL0     C30809   4.699   5.751  -0.100  0.6530 -0.7363  0.4790
  229MOL0     O30810   4.811   5.695  -0.156  0.1496 -0.0800 -0.4972
  229MOL0     C30811   4.938   5.745  -0.138  0.1910  0.0058 -0.0361
  229MOL0     C30812   4.975   5.877  -0.174 -0.2255 -0.0546  0.3970
  229MOL0     C30813   5.113   5.928  -0.160  0.8643  0.1433  0.4532
  229MOL0     C30814   5.210   5.850  -0.094 -0.4034 -0.2546 -0.3421
  229MOL0     O30815   5.333   5.894  -0.061  0.4954  0.0325 -0.3626
  229MOL0     C30816   5.383   5.882   0.079  0.3143 -0.6075  0.4710
  229MOL0     C30817   5.529   5.833   0.073  1.2924 -0.5237  0.8406
  229MOL0     C30818   5.633   5.917   0.006  0.4311  0.3495  0.7864
  229MOL0     C30819   5.765   5.839   0.002 -0.3727 -0.2791 -0.9170
  229MOL0     C30820   5.886   5.922  -0.071  0.5767 -0.6089 -0.5629
  229MOL0     C30821   6.019   5.842  -0.055  0.4421  0.0984  0.4589
  229MOL0     C30822   6.049   5.812   0.098 -0.5684  1.2451 -0.3515
  229MOL0     C30823   6.194   5.779   0.120  0.0763  0.4661  0.3720
  229MOL0    Cl30824   6.289   5.918   0.060 -0.0870 -0.1001  0.0569
  229MOL0     C30825   5.167   5.719  -0.062 -0.2204  0.0305 -1.3725
  229MOL0     C30826   5.042   5.660  -0.097  0.7394  0.1069  0.6869
  229MOL0     O30827   4.684   5.867  -0.056  0.6545 -0.4255 -0.6167
  229MOL0     C30828   4.583   5.533  -0.158  0.7815 -0.6830 -0.3122
  229MOL0     C30829   4.482   5.446  -0.151 -0.0308  0.3437  0.2795
  229MOL0     N30830   3.716   5.334   0.271  0.3889  0.7040 -0.6316
  229MOL0     N30831   3.628   5.361   0.363 -0.6546  0.0940 -0.0080
  229MOL0     C30832   2.394   5.362   0.249 -0.3602  0.8404 -0.1403
  229MOL0     C30833   2.254   5.338   0.238 -0.4991  0.1328  0.0346
  229MOL0     C30834   1.813   5.387   0.272  0.0060  0.1118  0.2289
  229MOL0     C30835   1.765   5.497   0.204 -0.5129 -0.3023 -0.1224
  229MOL0     C30836   1.631   5.515   0.173 -0.4236 -0.2310  0.1391
  229MOL0     C30837   1.536   5.424   0.220 -0.3241 -0.7734  0.2973
  229MOL0     O30838   1.397   5.428   0.189 -1.1183 -0.3951 -0.1576
  229MOL0     C30839   1.366   5.519   0.075 -0.1552 -0.4469 -0.3113
  229MOL0     C30840   1.230   5.474   0.035 -0.3156  0.0433  0.5763
  229MOL0     C30841   1.112   5.514   0.125  0.1041  0.1248  0.2677
  229MOL0     C30842   0.988   5.524   0.043  0.4748  0.2933 -0.2931
  229MOL0     C30843   0.948   5.405  -0.038  0.2177  0.2865 -0.1465
  229MOL0     C30844   0.913   5.296  -0.091  0.9416 -0.7718  0.2784
  229MOL0     C30845   1.580   5.324   0.300  0.0501  0.4112 -0.0075
  229MOL0     C30846   1.714   5.304   0.330  0.0382 -0.6695  0.7047
  229MOL0     C30847   1.748   5.192   0.429 -0.1436  0.1540 -0.2179
  229MOL0     H30848   2.145   5.646   0.152 -0.5263 -0.1567 -0.5962
  229MOL0     H30849   2.397   5.684   0.139 -0.9661  1.3519  1.7113
  229MOL0     H30850   2.633   5.706   0.178 -1.2809  0.1255 -0.2195
  229MOL0     H30851   2.549   5.702   0.321  0.3515  1.3968 -1.9652
  229MOL0     H30852   2.768   5.634   0.432  0.6599  0.2552 -0.5264
  229MOL0     H30853   2.780   5.774   0.341  0.8959 -0.1091  2.9045
  229MOL0     H30854   2.869   5.642   0.140 -2.2774 -0.3972 -0.2785
  229MOL0     H30855   2.882   5.498   0.240 -2.7707  1.0258 -1.3447
  229MOL0     H30856   3.043   5.745   0.306 -0.7083  0.8953 -1.0890
  229MOL0     H30857   3.044   5.588   0.390  0.7107 -1.4119 -0.5699
  229MOL0     H30858   3.121   5.466   0.171 -2.0161  0.2290 -0.3233
  229MOL0     H30859   3.123   5.612   0.092  0.0379  1.4319  0.1683
  229MOL0     H30860   3.352   5.598   0.151  1.9383 -1.5522  1.9517
  229MOL0     H30861   3.274   5.701   0.278  0.5396 -1.1913  1.3704
  229MOL0     H30862   3.328   5.403   0.303 -0.8256  0.0591 -2.2122
  229MOL0     H30863   3.245   5.507   0.420  0.0437  0.0925  0.7987
  229MOL0     H30864   3.462   5.653   0.402  0.7867 -0.0536 -4.9066
  229MOL0     H30865   3.445   5.505   0.510 -0.0662 -1.3842 -0.5551
  229MOL0     H30866   3.565   5.606   0.166  3.1336  1.3581  0.5405
  229MOL0     H30867   3.748   5.352  -0.021 -0.6468  0.7433  0.0959
  229MOL0     H30868   3.783   5.529   0.006  2.4758  0.8531  1.4319
  229MOL0     H30869   3.968   5.467   0.151  0.0503  0.3249 -1.4944
  229MOL0     H30870   3.922   5.293   0.122  1.8239 -0.3656 -1.3804
  229MOL0     H30871   4.013   5.471  -0.108  0.2528  0.3368 -0.3969
  229MOL0     H30872   3.976   5.299  -0.105  1.6105  0.1217 -1.3508
  229MOL0     H30873   4.177   5.258   0.028 -0.3880  0.4825  2.8642
  229MOL0     H30874   4.181   5.431   0.084  2.2601  0.5068 -0.3592
  229MOL0     H30875   4.234   5.642  -0.022 -1.1008 -0.2875 -1.5984
  229MOL0     H30876   4.436   5.812  -0.038  2.5956  1.8852 -2.8183
  229MOL0     H30877   4.897   5.939  -0.218  0.6786  1.5177  0.9229
  229MOL0     H30878   5.139   6.025  -0.200  0.0587  0.1871  0.0059
  229MOL0     H30879   5.390   5.980   0.126  0.0297 -0.2110 -0.3029
  229MOL0     H30880   5.329   5.806   0.135 -1.9184  0.7102  0.2173
  229MOL0     H30881   5.556   5.824   0.179  1.6431  1.9419  1.0165
  229MOL0     H30882   5.530   5.735   0.024  1.7471  0.1643 -0.5860
  229MOL0     H30883   5.603   5.934  -0.098  1.3900 -1.7033  0.1170
  229MOL0     H30884   5.645   6.010   0.062  1.9764  1.0677 -0.6626
  229MOL0     H30885   5.753   5.745  -0.054 -2.4265 -0.5668 -0.1042
  229MOL0     H30886   5.785   5.816   0.107  0.3985  1.5631 -0.6262
  229MOL0     H30887   5.896   6.021  -0.026 -1.1404 -0.4956 -0.3746
  229MOL0     H30888   5.861   5.928  -0.177 -0.0174 -0.9383 -0.4477
  229MOL0     H30889   6.011   5.743  -0.101 -0.4546  0.1050  0.5772
  229MOL0     H30890   6.104   5.888  -0.105  0.1086 -0.0108 -0.2117
  229MOL0     H30891   5.986   5.729   0.131  1.1281 -1.4847 -3.4125
  229MOL0     H30892   6.030   5.894   0.168  0.1333  0.0937  1.2629
  229MOL0     H30893   6.201   5.769   0.228  1.9141 -0.8270  0.1734
  229MOL0     H30894   6.231   5.684   0.081  3.4964  1.2449  1.3678
  229MOL0     H30895   5.241   5.644  -0.035 -0.7574 -0.3404 -0.9201
  229MOL0     H30896   5.041   5.553  -0.080 -1.1188 -0.2534 -1.2067
  229MOL0     H30897   4.678   5.496  -0.194  0.4227 -1.1094 -0.8432
  229MOL0     H30898   4.500   5.342  -0.175  0.0452  0.2983  0.5284
  229MOL0     H30899   2.451   5.275   0.278 -1.2163 -0.2931 -1.6686
  229MOL0     H30900   2.213   5.245   0.275 -0.4503  0.7778  1.8189
  229MOL0     H30901   1.826   5.577   0.163  0.2774 -1.1312 -0.6270
  229MOL0     H30902   1.623   5.606   0.115  2.0998  2.0485  3.0174
  229MOL0     H30903   1.444   5.513  -0.002 -0.2559  4.4384 -1.0885
  229MOL0     H30904   1.359   5.627   0.093  0.5864  0.1208 -3.0863
  229MOL0     H30905   1.238   5.365   0.033 -0.1181  0.0650 -0.0881
  229MOL0     H30906   1.209   5.507  -0.068  1.7587 -0.4600 -0.0512
  229MOL0     H30907   1.118   5.614   0.168 -1.9911  0.3953  0.0254
  229MOL0     H30908   1.103   5.449   0.212  1.5293 -0.1121  0.2689
  229MOL0     H30909   0.912   5.549   0.117  1.0211  1.1195  0.0087
  229MOL0     H30910   0.996   5.607  -0.028 -0.5034 -0.5861 -1.4855
  229MOL0     H30911   0.879   5.208  -0.142  1.2586 -0.2699 -0.8346
  229MOL0     H30912   1.506   5.251   0.333 -0.3557 -0.1563 -2.0610
  229MOL0     H30913   1.800   5.231   0.517  1.6959 -3.2200  0.4125
  229MOL0     H30914   1.661   5.134   0.461  0.5124 -1.0039 -0.4716
  229MOL0     H30915   1.810   5.120   0.375 -0.0251  1.2460 -1.5761
  230MOL0     O30916   5.087   0.297   6.680  0.1559 -0.1401  0.0442
  230MOL0     C30917   4.996   0.257   6.749  0.3383 -0.4642 -0.4075
  230MOL0     O30918   5.008   0.156   6.845 -0.1629  0.9274  0.0390
  230MOL0     C30919   5.123   0.081   6.846  0.2820  0.5011 -0.2962
  230MOL0     C30920   5.115  -0.059   6.830 -0.9820 -0.5554  0.7972
  230MOL0     C30921   5.228  -0.142   6.823  0.3210 -0.1463  0.1909
  230MOL0     C30922   5.352  -0.083   6.838 -0.6335 -0.0437 -0.6464
  230MOL0     O30923   5.466  -0.161   6.849 -0.1340  0.2053 -0.8832
  230MOL0     C30924   5.477  -0.270   6.755 -0.2168  0.6090  0.5053
  230MOL0     C30925   5.614  -0.332   6.756 -0.4344 -0.0011  0.3644
  230MOL0     C30926   5.730  -0.235   6.752 -0.1165  0.1507  0.4453
  230MOL0     C30927   5.705  -0.136   6.641  0.3415  0.1236  0.0982
  230MOL0     C30928   5.828  -0.060   6.601  1.2371 -0.2680  0.1972
  230MOL0     C30929   5.808   0.041   6.490 -0.4921  0.5632  0.4173
  230MOL0     C30930   5.906   0.152   6.469 -1.2424 -0.5227 -0.6789
  230MOL0     C30931   6.058   0.124   6.491  0.6381 -1.6561 -0.8292
  230MOL0     N30932   6.120   0.037   6.387 -0.6379  0.4384  0.2828
  230MOL0     C30933   6.188   0.092   6.286  0.4990 -0.3870  0.7298
  230MOL0     C30934   6.233  -0.020   6.219  0.5095 -0.6403  0.0740
  230MOL0     C30935   6.327  -0.022   6.108  0.3334  0.1992  0.4029
  230MOL0     C30936   6.442   0.071   6.139 -0.2821  0.3598 -0.1204
  230MOL0     C30937   6.523   0.078   6.009 -0.0349  0.1797  0.9041
  230MOL0     C30938   6.650   0.162   6.017 -0.8439 -0.1102  0.2678
  230MOL0     O30939   6.630   0.301   6.045  0.4163 -0.7751 -0.2749
  230MOL0     C30940   6.741   0.353   6.108 -0.0324  0.0794 -0.3011
  230MOL0     C30941   6.715   0.465   6.181 -0.1565 -0.0354 -0.5884
  230MOL0     C30942   6.822   0.536   6.237  0.8439  0.4969  0.0369
  230MOL0     C30943   6.954   0.495   6.223  0.5160  0.0058  0.8272
  230MOL0     C30944   7.067   0.581   6.278  0.1313  0.8520  1.0961
  230MOL0     O30945   7.191   0.509   6.285  0.4488  0.1434  0.3224
  230MOL0     C30946   7.306   0.547   6.345 -0.9440  0.0689 -0.9526
  230MOL0     C30947   7.355   0.683   6.352  0.0347 -0.4307  0.1033
  230MOL0     C30948   7.490   0.715   6.393  0.0359 -0.3948  0.4912
  230MOL0     C30949   7.569   0.612   6.428 -0.4036 -0.2266  0.7162
  230MOL0     O30950   7.696   0.630   6.463  0.1219  0.0525 -1.3610
  230MOL0     C30951   7.705   0.698   6.587 -0.3558 -0.5211  0.1648
  230MOL0     C30952   7.841   0.671   6.647  1.2999 -0.5763  0.2842
  230MOL0     C30953   7.959   0.712   6.552  0.0359 -0.0426 -0.1876
  230MOL0     C30954   7.967   0.861   6.507  0.5372 -0.5075 -0.0973
  230MOL0     C30955   8.095   0.907   6.448 -0.9679 -0.3116  0.4658
  230MOL0     C30956   8.211   0.888   6.555  0.0254  0.1555 -0.1410
  230MOL0     C30957   8.332   0.979   6.510  0.4799  0.3451  0.1868
  230MOL0     C30958   8.354   1.103   6.600 -0.9704 -0.5723 -0.3162
  230MOL0    Cl30959   8.394   1.067   6.764 -0.4164  0.1992  0.7073
  230MOL0     C30960   7.529   0.481   6.410  0.5065  0.3122 -0.4079
  230MOL0     C30961   7.395   0.448   6.382  0.0766  0.6649 -0.2769
  230MOL0     O30962   7.040   0.694   6.323  0.5880  0.4989 -0.8422
  230MOL0     C30963   6.978   0.376   6.149  0.6702 -0.8650 -0.1436
  230MOL0     C30964   6.871   0.308   6.093 -0.0722 -0.3672 -0.2657
  230MOL0     N30965   6.170  -0.136   6.267  0.6847  0.4582  0.9497
  230MOL0     N30966   6.114  -0.100   6.376 -0.7254  0.0384 -0.2958
  230MOL0     C30967   5.365   0.051   6.865  0.2161  0.4838  0.1327
  230MOL0     C30968   5.254   0.135   6.865 -0.8694 -0.4737  0.2114
  230MOL0     C30969   4.872   0.327   6.714  0.5730  1.2702 -0.2028
  230MOL0     C30970   4.868   0.449   6.646 -0.3537  1.1693 -0.0523
  230MOL0     C30971   4.747   0.515   6.618  0.4175 -0.3262 -0.6304
  230MOL0     C30972   4.629   0.456   6.653  0.6466 -0.0782  0.3259
  230MOL0     O30973   4.517   0.533   6.618 -0.2779  1.3012 -0.1395
  230MOL0     C30974   4.386   0.480   6.653 -0.0205 -0.8892  0.0528
  230MOL0     C30975   4.287   0.592   6.665 -0.6420  0.4742  0.0477
  230MOL0     C30976   4.170   0.553   6.758 -0.2257 -0.4162  0.2281
  230MOL0     C30977   4.072   0.668   6.777 -0.2525  0.6295  0.2582
  230MOL0     C30978   3.971   0.624   6.869 -0.4827  0.2513 -0.4878
  230MOL0     C30979   3.885   0.592   6.952  0.5137  0.5362  0.1014
  230MOL0     C30980   4.627   0.333   6.720  0.5104  0.4072  0.8310
  230MOL0     C30981   4.742   0.266   6.755  0.3754 -0.9599 -0.1776
  230MOL0     C30982   4.732   0.140   6.830 -0.6377  0.0291  0.3803
  230MOL0     H30983   5.013  -0.098   6.825 -1.1204 -0.5861  3.1107
  230MOL0     H30984   5.226  -0.250   6.809  0.3733  0.0368 -1.3481
  230MOL0     H30985   5.419  -0.359   6.779  0.5803  0.1915  0.9427
  230MOL0     H30986   5.450  -0.237   6.655  4.9482  2.1417 -0.6925
  230MOL0     H30987   5.623  -0.389   6.663 -0.8938  0.7999 -0.1888
  230MOL0     H30988   5.617  -0.402   6.839 -1.9242 -2.0165 -1.1848
  230MOL0     H30989   5.830  -0.273   6.733  0.2415  2.0226 -1.8917
  230MOL0     H30990   5.747  -0.180   6.846  0.1546 -1.8332  1.6161
  230MOL0     H30991   5.657  -0.176   6.550 -1.5382 -0.0434  1.1126
  230MOL0     H30992   5.631  -0.065   6.679  1.0440 -0.6816  3.1957
  230MOL0     H30993   5.863  -0.009   6.692  1.0639 -1.4271  0.9331
  230MOL0     H30994   5.911  -0.126   6.572  1.6872 -0.6614  2.1919
  230MOL0     H30995   5.806  -0.018   6.398  0.8609  1.3356 -0.1322
  230MOL0     H30996   5.706   0.082   6.493  0.5360  3.5178 -1.0662
  230MOL0     H30997   5.877   0.234   6.535 -0.9790 -1.0715  0.1476
  230MOL0     H30998   5.891   0.177   6.364 -1.5445 -3.5334 -1.4582
  230MOL0     H30999   6.118   0.215   6.487  1.5144 -2.1540  0.3260
  230MOL0     H31000   6.066   0.075   6.589 -1.1437 -4.6065 -2.0044
  230MOL0     H31001   6.203   0.198   6.270  1.3161 -0.9772 -3.7025
  230MOL0     H31002   6.358  -0.122   6.078 -0.7362  0.5444 -2.1032
  230MOL0     H31003   6.271   0.013   6.021 -0.4978 -2.9490 -0.4699
  230MOL0     H31004   6.406   0.169   6.173 -2.3147 -0.5299  0.4350
  230MOL0     H31005   6.493   0.035   6.228 -2.5352  2.6933  2.3005
  230MOL0     H31006   6.462   0.129   5.934  3.3400 -1.4555 -3.3756
  230MOL0     H31007   6.546  -0.027   5.986  1.4043  0.2805  1.7863
  230MOL0     H31008   6.684   0.155   5.914  0.8256  3.4270  0.4499
  230MOL0     H31009   6.714   0.117   6.094 -0.4448 -1.1367 -0.6341
  230MOL0     H31010   6.615   0.508   6.184 -0.2407 -0.2864  0.6190
  230MOL0     H31011   6.804   0.625   6.296 -0.2234  0.1683  0.2398
  230MOL0     H31012   7.281   0.760   6.330  4.0223  3.7168 -0.2656
  230MOL0     H31013   7.522   0.819   6.397  2.7203 -1.1645  1.4373
  230MOL0     H31014   7.691   0.804   6.565 -0.8655 -0.3442  1.2707
  230MOL0     H31015   7.627   0.667   6.658  3.4065 -2.8451  3.7407
  230MOL0     H31016   7.846   0.741   6.731 -0.8626 -0.3098  0.2575
  230MOL0     H31017   7.836   0.567   6.680  0.3780 -0.3197  1.0151
  230MOL0     H31018   8.049   0.698   6.612  0.3732 -0.3368 -0.7489
  230MOL0     H31019   7.961   0.647   6.464 -1.0044  1.0756 -1.0781
  230MOL0     H31020   7.949   0.921   6.597  0.2472  0.1135 -0.5671
  230MOL0     H31021   7.885   0.893   6.443  1.4492  1.5786 -0.3200
  230MOL0     H31022   8.089   1.010   6.414 -2.1060 -0.9302 -1.3350
  230MOL0     H31023   8.107   0.836   6.365  0.5523  2.6346 -2.0685
  230MOL0     H31024   8.175   0.928   6.650  0.0144  0.8241 -0.4140
  230MOL0     H31025   8.232   0.782   6.571 -1.5175 -0.5987 -2.4966
  230MOL0     H31026   8.307   1.002   6.406 -0.6283  0.6945  0.5243
  230MOL0     H31027   8.412   0.904   6.509 -0.6175 -0.8551 -0.0836
  230MOL0     H31028   8.439   1.162   6.567  0.5730 -2.7747 -0.5279
  230MOL0     H31029   8.273   1.177   6.597  1.0172  1.6837 -1.7317
  230MOL0     H31030   7.600   0.402   6.432  0.7196 -0.1045 -2.4006
  230MOL0     H31031   7.361   0.345   6.383  1.0558  0.2109 -3.2866
  230MOL0     H31032   7.080   0.340   6.133  0.6081 -1.6893  1.2059
  230MOL0     H31033   6.895   0.230   6.022 -0.8725  0.1674 -1.1589
  230MOL0     H31034   5.467   0.080   6.890  0.6742 -1.7054  1.0583
  230MOL0     H31035   5.269   0.242   6.873 -2.0367 -0.3928  1.7694
  230MOL0     H31036   4.956   0.503   6.613  0.0725  2.1835  2.5242
  230MOL0     H31037   4.755   0.613   6.572 -1.5533 -0.9423 -2.4209
  230MOL0     H31038   4.385   0.427   6.749 -3.3106  0.2511  0.7830
  230MOL0     H31039   4.345   0.406   6.584 -0.2528 -1.1699  0.4863
  230MOL0     H31040   4.245   0.621   6.569 -1.2599  1.4332  0.5860
  230MOL0     H31041   4.350   0.672   6.706  0.6624  0.5848 -2.0343
  230MOL0     H31042   4.208   0.530   6.858 -0.4566  0.5119  0.5429
  230MOL0     H31043   4.131   0.460   6.716  1.1359 -2.3213  2.9096
  230MOL0     H31044   4.121   0.758   6.815  2.4603 -0.3569 -0.6953
  230MOL0     H31045   4.024   0.694   6.682  1.7117 -0.5681 -1.1423
  230MOL0     H31046   3.809   0.570   7.023 -0.7011  1.6921 -0.7773
  230MOL0     H31047   4.538   0.281   6.754  0.4973 -0.4094 -0.3723
  230MOL0     H31048   4.631   0.100   6.823 -0.7152  0.3395 -0.2486
  230MOL0     H31049   4.795   0.062   6.786 -4.1022 -4.1487  2.1232
  230MOL0     H31050   4.766   0.151   6.934  0.1892 -2.1205  0.3997
  231MOL0     O31051   6.328   2.443   6.508 -0.7974 -0.1149 -0.0425
  231MOL0     C31052   6.339   2.477   6.387 -0.0328  0.5794 -0.2783
  231MOL0     O31053   6.454   2.458   6.315 -0.3824 -0.6111  0.1696
  231MOL0     C31054   6.566   2.386   6.337  0.4769  0.1370 -0.0904
  231MOL0     C31055   6.615   2.344   6.468  0.3218  0.7023  0.7205
  231MOL0     C31056   6.734   2.273   6.485 -0.4746  0.3034  0.0176
  231MOL0     C31057   6.817   2.234   6.380 -0.2975 -0.5432 -0.9996
  231MOL0     O31058   6.932   2.160   6.408 -0.4093 -0.0937 -0.0171
  231MOL0     C31059   6.985   2.069   6.299  0.6987 -0.5678  0.6498
  231MOL0     C31060   7.102   1.988   6.336 -0.4752 -0.1619  0.6030
  231MOL0     C31061   7.218   2.057   6.396  0.5988 -1.1506 -0.2841
  231MOL0     C31062   7.329   1.960   6.422 -0.2183 -0.8408  0.8644
  231MOL0     C31063   7.415   1.999   6.541 -0.0298 -0.4748 -0.1613
  231MOL0     C31064   7.479   2.142   6.537  0.7128 -0.6890  0.1459
  231MOL0     C31065   7.626   2.153   6.517  0.1527 -0.4165  0.0702
  231MOL0     C31066   7.657   2.138   6.367  0.0268  0.1825 -0.2698
  231MOL0     N31067   7.803   2.102   6.344 -0.1574  0.0357  0.5391
  231MOL0     C31068   7.912   2.134   6.418  0.6381 -0.0309 -0.2378
  231MOL0     C31069   8.018   2.104   6.338  0.0775  0.2044  0.4786
  231MOL0     C31070   8.162   2.120   6.381  0.0478 -0.7418  1.0467
  231MOL0     C31071   8.222   1.993   6.422  0.3926  0.0974 -0.9915
  231MOL0     C31072   8.264   1.899   6.304 -0.3503 -0.2177 -0.0274
  231MOL0     C31073   8.399   1.943   6.246 -0.4534 -0.0585  0.9044
  231MOL0     O31074   8.520   1.889   6.311 -0.1087 -0.0381 -0.0396
  231MOL0     C31075   8.645   1.930   6.267  0.1671  0.7024 -0.5003
  231MOL0     C31076   8.758   1.865   6.322 -0.4884  0.5506  0.0817
  231MOL0     C31077   8.891   1.893   6.288 -0.3600  0.3529  1.2881
  231MOL0     C31078   8.919   2.005   6.205  0.1247 -0.0127  0.4600
  231MOL0     C31079   9.063   2.060   6.197  0.3299  0.5346 -0.3353
  231MOL0     O31080   9.150   2.012   6.285  0.3614  0.1063  0.0705
  231MOL0     C31081   9.274   2.065   6.320 -0.1489  1.0000 -0.5946
  231MOL0     C31082   9.296   2.202   6.325 -0.9567 -0.1620  0.4991
  231MOL0     C31083   9.422   2.244   6.374 -0.0344  0.6208 -0.2859
  231MOL0     C31084   9.524   2.155   6.409 -0.2210 -0.4418  0.3747
  231MOL0     O31085   9.644   2.220   6.424 -0.2737  0.4900 -1.2679
  231MOL0     C31086   9.757   2.132   6.460  0.6561 -1.4073  0.3205
  231MOL0     C31087   9.894   2.209   6.451 -0.6294  0.5036  0.0101
  231MOL0     C31088   9.913   2.290   6.579  0.4494 -0.4435  1.0477
  231MOL0     C31089  10.045   2.366   6.564  0.2486  0.0588 -0.2592
  231MOL0     C31090  10.068   2.466   6.669  0.3216  0.4767  0.2490
  231MOL0     C31091  10.177   2.559   6.626  0.4218  0.0867  0.0207
  231MOL0     C31092  10.214   2.654   6.747 -0.1900  0.5338 -0.4691
  231MOL0     C31093  10.333   2.731   6.684 -0.0963 -0.1869 -0.2945
  231MOL0    Cl31094  10.379   2.848   6.805  0.0619 -0.1111  0.0568
  231MOL0     C31095   9.497   2.018   6.405  0.9798 -0.5432  0.3693
  231MOL0     C31096   9.375   1.977   6.359  0.2574 -0.6346 -0.0414
  231MOL0     O31097   9.082   2.154   6.117 -0.3936 -0.1285 -0.7719
  231MOL0     C31098   8.806   2.074   6.152  1.5196 -0.3915 -0.0983
  231MOL0     C31099   8.677   2.042   6.187  0.5387 -0.5306  0.3214
  231MOL0     N31100   7.968   2.039   6.227 -0.1724 -0.6167  0.0030
  231MOL0     N31101   7.840   2.048   6.226 -0.3001  0.0609 -0.2781
  231MOL0     C31102   6.775   2.272   6.254  0.9048  0.0788 -0.1705
  231MOL0     C31103   6.654   2.347   6.235  0.2105  0.6000  0.7988
  231MOL0     C31104   6.230   2.551   6.314  0.2732  0.4435 -0.4564
  231MOL0     C31105   6.232   2.553   6.174  0.0322  0.4867 -0.6519
  231MOL0     C31106   6.129   2.606   6.100  0.6729 -0.5874  0.5035
  231MOL0     C31107   6.007   2.642   6.167  0.1752  0.3004 -0.1692
  231MOL0     O31108   5.896   2.678   6.108  0.1726 -0.9610 -0.3443
  231MOL0     C31109   5.877   2.640   5.966  0.3375 -0.1875 -0.5212
  231MOL0     C31110   5.750   2.716   5.921  0.7998  0.1547  0.6675
  231MOL0     C31111   5.689   2.666   5.787  0.1679  0.1926 -0.3252
  231MOL0     C31112   5.775   2.671   5.661 -0.7049  0.0570 -0.5720
  231MOL0     C31113   5.859   2.793   5.649 -0.2762 -0.3118  0.3141
  231MOL0     C31114   5.922   2.898   5.640 -0.5523  0.4917 -0.4560
  231MOL0     C31115   6.005   2.649   6.303 -0.1669  0.0412  0.1288
  231MOL0     C31116   6.119   2.605   6.377  0.2849  0.3738 -0.1547
  231MOL0     C31117   6.108   2.641   6.521  0.1300  0.1313 -0.3100
  231MOL0     H31118   6.568   2.366   6.563  0.8271 -1.5004  1.5402
  231MOL0     H31119   6.781   2.258   6.582 -1.3622 -2.5776  0.0708
  231MOL0     H31120   6.896   2.010   6.275  0.1403  1.3502 -2.5037
  231MOL0     H31121   7.012   2.118   6.206  1.4380 -3.7313 -0.9458
  231MOL0     H31122   7.137   1.938   6.245 -1.3987  0.8837 -0.3653
  231MOL0     H31123   7.069   1.911   6.405 -3.5089 -1.9384 -2.5624
  231MOL0     H31124   7.183   2.110   6.485  0.4455 -0.7345 -0.5849
  231MOL0     H31125   7.242   2.144   6.333 -3.7677  1.4998  1.2313
  231MOL0     H31126   7.299   1.855   6.430 -1.0307 -0.8062 -1.3517
  231MOL0     H31127   7.386   1.961   6.329 -0.7159  0.7880  0.5598
  231MOL0     H31128   7.350   1.993   6.628 -0.3725 -2.9438 -0.5073
  231MOL0     H31129   7.506   1.940   6.560 -0.0732 -0.0451  1.5733
  231MOL0     H31130   7.438   2.213   6.465  1.3422  1.7186  1.9887
  231MOL0     H31131   7.449   2.184   6.634 -1.7025 -2.1438  0.0914
  231MOL0     H31132   7.688   2.082   6.573  0.9310  0.2613  0.0872
  231MOL0     H31133   7.659   2.250   6.556  0.3424  0.2318 -1.6128
  231MOL0     H31134   7.611   2.045   6.332  0.6922 -0.0009 -0.6563
  231MOL0     H31135   7.622   2.223   6.307  1.1170  0.8908  0.0785
  231MOL0     H31136   7.921   2.185   6.514  0.5343 -2.4297  1.1122
  231MOL0     H31137   8.227   2.154   6.299  1.6445 -0.4341  2.3935
  231MOL0     H31138   8.165   2.193   6.461 -3.4470 -1.0200  1.5678
  231MOL0     H31139   8.315   2.014   6.475  0.3974 -0.3604 -0.8199
  231MOL0     H31140   8.148   1.943   6.485  1.5923 -2.0856 -1.2593
  231MOL0     H31141   8.187   1.896   6.227 -2.5845 -1.7359  2.1069
  231MOL0     H31142   8.285   1.800   6.347  0.8077  0.7939  1.9283
  231MOL0     H31143   8.394   2.052   6.242  2.4285  0.1414 -2.2023
  231MOL0     H31144   8.420   1.901   6.147  0.9589  0.0657  1.1261
  231MOL0     H31145   8.735   1.778   6.384 -0.5409  0.6759  0.2383
  231MOL0     H31146   8.972   1.838   6.335  0.5716  0.4371 -0.1476
  231MOL0     H31147   9.225   2.269   6.277 -0.3716 -1.6290 -2.7234
  231MOL0     H31148   9.435   2.352   6.379 -2.0126  0.8389  1.7672
  231MOL0     H31149   9.739   2.104   6.564  0.1308 -1.9748  0.0834
  231MOL0     H31150   9.761   2.044   6.395 -1.4994 -0.3232 -1.4175
  231MOL0     H31151   9.973   2.133   6.453 -2.6037 -1.6618  1.1105
  231MOL0     H31152   9.902   2.273   6.363 -4.6993 -0.8541 -1.5644
  231MOL0     H31153   9.832   2.358   6.607  3.6057  2.2358  4.8140
  231MOL0     H31154   9.926   2.232   6.671  0.5304  1.3860  2.2451
  231MOL0     H31155  10.058   2.414   6.466  2.0669 -0.4384 -0.2958
  231MOL0     H31156  10.124   2.291   6.568  1.9067  1.6094 -1.9266
  231MOL0     H31157  10.100   2.413   6.759  2.5508 -1.9099 -1.8033
  231MOL0     H31158   9.981   2.527   6.696  1.6021  1.3549  2.6034
  231MOL0     H31159  10.259   2.499   6.586  0.2589 -0.0132 -0.1674
  231MOL0     H31160  10.153   2.615   6.535 -1.9409  0.2849  0.6987
  231MOL0     H31161  10.258   2.596   6.829  1.4141 -0.7813 -2.1763
  231MOL0     H31162  10.131   2.720   6.775  0.8132  1.3083  0.8211
  231MOL0     H31163  10.410   2.655   6.664 -0.7514 -1.8512  2.8617
  231MOL0     H31164  10.294   2.775   6.592 -1.3710 -0.6013  0.0260
  231MOL0     H31165   9.575   1.949   6.434  1.0859 -0.8328 -0.5838
  231MOL0     H31166   9.343   1.875   6.342 -0.2302 -0.1343 -2.4767
  231MOL0     H31167   8.828   2.159   6.088 -1.1574  1.6079  1.4519
  231MOL0     H31168   8.602   2.102   6.137 -0.0383 -0.7312  0.9399
  231MOL0     H31169   6.830   2.258   6.161 -1.6954  1.5703 -2.0522
  231MOL0     H31170   6.625   2.364   6.132  0.7105 -0.3233  0.4901
  231MOL0     H31171   6.316   2.510   6.120 -0.3779 -0.4802 -0.5490
  231MOL0     H31172   6.138   2.593   5.993 -0.8535  0.8177  0.1677
  231MOL0     H31173   5.870   2.531   5.957 -0.1618 -0.1902 -0.1339
  231MOL0     H31174   5.962   2.663   5.901  0.6348 -2.0205 -0.8359
  231MOL0     H31175   5.779   2.821   5.913 -0.3079  0.3525 -1.5950
  231MOL0     H31176   5.681   2.698   6.003  2.1410  2.3624  2.4043
  231MOL0     H31177   5.588   2.709   5.789 -0.2272 -0.6847  1.5973
  231MOL0     H31178   5.658   2.563   5.807  1.2809 -0.4707 -1.8571
  231MOL0     H31179   5.832   2.579   5.650 -1.5685 -0.8232  1.6921
  231MOL0     H31180   5.704   2.665   5.578 -0.0620 -2.2523 -1.0092
  231MOL0     H31181   5.985   2.984   5.641 -0.3680  0.3548 -0.4140
  231MOL0     H31182   5.914   2.685   6.350 -3.1821 -5.2748 -0.8443
  231MOL0     H31183   6.084   2.543   6.564  2.4996 -0.0822  0.6449
  231MOL0     H31184   6.202   2.677   6.563 -0.6616  1.0013  0.7667
  231MOL0     H31185   6.034   2.721   6.526 -3.7503 -2.8840 -2.7676
  232MOL0     O31186   0.113   9.912   9.162 -0.0315 -0.0060  0.4880
  232MOL0     C31187   0.132  10.018   9.222 -1.0163  0.7212  0.2221
  232MOL0     O31188   0.038  10.082   9.292 -0.5530  0.4442  0.0168
  232MOL0     C31189  -0.087  10.027   9.292  0.1203 -1.5532 -0.5208
  232MOL0     C31190  -0.120   9.896   9.343 -1.3694  0.6479 -0.2066
  232MOL0     C31191  -0.253   9.846   9.338 -0.9181 -0.7350  0.3817
  232MOL0     C31192  -0.354   9.931   9.296  0.0013 -0.4164 -0.7380
  232MOL0     O31193  -0.487   9.893   9.296 -0.1972  0.3522  0.3210
  232MOL0     C31194  -0.514   9.751   9.278  0.1190 -0.4615  0.0998
  232MOL0     C31195  -0.665   9.750   9.278  0.6940  0.3952 -0.1131
  232MOL0     C31196  -0.715   9.606   9.305  0.7183 -0.7218 -0.4658
  232MOL0     C31197  -0.869   9.604   9.316  0.0152  0.6503  0.1097
  232MOL0     C31198  -0.924   9.452   9.322  0.7161 -0.4316  0.4982
  232MOL0     C31199  -1.076   9.454   9.304  0.2783  0.0796 -0.0351
  232MOL0     C31200  -1.116   9.306   9.320 -0.3153  0.3127  0.7894
  232MOL0     C31201  -1.267   9.280   9.283  0.2369  0.4623  0.2764
  232MOL0     N31202  -1.325   9.166   9.351  0.1965 -0.1551  1.1419
  232MOL0     C31203  -1.457   9.135   9.349 -0.2454 -0.3808 -0.4077
  232MOL0     C31204  -1.463   9.008   9.396  1.1034  0.5728 -0.2125
  232MOL0     C31205  -1.586   8.914   9.415  0.9670  0.6198 -0.3680
  232MOL0     C31206  -1.726   8.969   9.385  0.4986  0.7680 -0.1950
  232MOL0     C31207  -1.759   8.958   9.240  0.2015  0.5846  0.7470
  232MOL0     C31208  -1.904   9.003   9.209 -0.2122  0.5863  0.4720
  232MOL0     O31209  -1.992   8.920   9.286 -0.6604  0.3524 -1.2440
  232MOL0     C31210  -2.120   8.969   9.332 -0.2194 -0.3679 -0.7912
  232MOL0     C31211  -2.177   8.896   9.437 -0.0256 -0.0878  0.4324
  232MOL0     C31212  -2.301   8.934   9.487 -0.0068  0.2419  0.0445
  232MOL0     C31213  -2.379   9.025   9.420 -0.1172  0.1329 -0.7148
  232MOL0     C31214  -2.516   9.046   9.462  0.2668  0.5892  0.1520
  232MOL0     O31215  -2.545   9.002   9.583  0.5554  0.5146  0.0014
  232MOL0     C31216  -2.656   9.051   9.647 -0.2093 -0.4654 -0.2797
  232MOL0     C31217  -2.713   9.182   9.640 -0.4771  0.1693 -0.1905
  232MOL0     C31218  -2.820   9.213   9.722 -0.8932 -0.0216  0.0681
  232MOL0     C31219  -2.869   9.126   9.824 -0.1438 -0.1760  0.2183
  232MOL0     O31220  -2.969   9.179   9.900 -0.1770 -0.1455  0.8970
  232MOL0     C31221  -3.030   9.110  10.008  0.1302  0.0561 -0.1289
  232MOL0     C31222  -3.154   9.202  10.052  0.0375  0.3206 -0.5666
  232MOL0     C31223  -3.104   9.347  10.106  0.0499  0.6183  1.2757
  232MOL0     C31224  -3.233   9.409  10.161 -0.2003  0.4635  0.5068
  232MOL0     C31225  -3.203   9.535  10.242  0.9338  0.1154  0.3464
  232MOL0     C31226  -3.328   9.594  10.318  0.8409 -0.5477 -0.4703
  232MOL0     C31227  -3.453   9.628  10.233 -0.4841  0.4208  0.2199
  232MOL0     C31228  -3.535   9.741  10.285 -0.5185 -0.0683  0.3066
  232MOL0    Cl31229  -3.587   9.721  10.456 -0.2585 -0.1963 -0.2631
  232MOL0     C31230  -2.810   9.002   9.839 -1.0367  0.0319 -0.6432
  232MOL0     C31231  -2.702   8.967   9.758  0.4577  0.1006 -0.4214
  232MOL0     O31232  -2.594   9.092   9.382  0.7315 -0.2258 -0.0047
  232MOL0     C31233  -2.324   9.089   9.314  0.4734 -0.5028 -0.8473
  232MOL0     C31234  -2.196   9.060   9.267 -0.3667  0.2123 -0.5203
  232MOL0     N31235  -1.342   8.973   9.438  0.0765  0.4273 -0.4761
  232MOL0     N31236  -1.261   9.064   9.407 -0.4686 -0.1045 -0.4173
  232MOL0     C31237  -0.326  10.061   9.262  0.5881 -0.2676  0.2998
  232MOL0     C31238  -0.198  10.112   9.270  0.8795 -0.0665 -0.3970
  232MOL0     C31239   0.274  10.078   9.234  0.2220 -0.3529 -0.2227
  232MOL0     C31240   0.386   9.987   9.251  0.7990 -0.1990  0.5520
  232MOL0     C31241   0.521  10.030   9.258  0.5941  0.5126  0.3691
  232MOL0     C31242   0.547  10.163   9.233 -0.2026 -0.1022 -0.0837
  232MOL0     O31243   0.674  10.213   9.242 -0.6488 -0.7555 -0.2898
  232MOL0     C31244   0.794  10.134   9.260  0.6200  0.3501 -0.2269
  232MOL0     C31245   0.929  10.210   9.250 -0.1507 -0.0882  0.7429
  232MOL0     C31246   1.048  10.131   9.318  1.1112  0.7629 -0.6168
  232MOL0     C31247   1.192  10.174   9.295  0.3190 -0.4021 -0.3640
  232MOL0     C31248   1.235  10.154   9.164  0.7619  0.7854 -0.6001
  232MOL0     C31249   1.271  10.135   9.052 -0.4778 -0.0356  0.1032
  232MOL0     C31250   0.440  10.251   9.213  1.1010  0.0911  0.1281
  232MOL0     C31251   0.307  10.212   9.210 -0.5563 -0.2542 -0.2334
  232MOL0     C31252   0.199  10.306   9.172  0.2486 -0.0911  0.1646
  232MOL0     H31253  -0.040   9.828   9.368 -2.4855 -1.2052 -1.4542
  232MOL0     H31254  -0.269   9.750   9.387  3.4081 -1.0226  1.6137
  232MOL0     H31255  -0.474   9.722   9.181  0.6908  5.9156 -2.0630
  232MOL0     H31256  -0.478   9.691   9.363 -2.3169 -1.4269  0.5292
  232MOL0     H31257  -0.700   9.796   9.185 -0.0516  2.2948  1.0741
  232MOL0     H31258  -0.700   9.817   9.356 -3.1738  1.2101 -2.2809
  232MOL0     H31259  -0.678   9.568   9.401 -1.3713 -0.3455  0.5546
  232MOL0     H31260  -0.677   9.532   9.235 -0.0189 -1.2982 -0.2670
  232MOL0     H31261  -0.898   9.656   9.407  2.9869  0.8086  1.0719
  232MOL0     H31262  -0.903   9.655   9.226 -0.2481 -0.1375 -0.2529
  232MOL0     H31263  -0.882   9.388   9.244 -0.5170 -0.6526 -0.0128
  232MOL0     H31264  -0.888   9.388   9.403  3.9382  0.0112 -0.4531
  232MOL0     H31265  -1.127   9.513   9.381  0.8643  0.2959  0.1909
  232MOL0     H31266  -1.098   9.504   9.209 -0.3351 -0.8691 -0.4023
  232MOL0     H31267  -1.106   9.283   9.426  2.4034 -0.5542  0.4080
  232MOL0     H31268  -1.048   9.236   9.271  0.3835  2.1447 -1.0113
  232MOL0     H31269  -1.327   9.371   9.295 -0.1343  0.5582 -1.8177
  232MOL0     H31270  -1.264   9.254   9.177 -2.1360 -1.8510  0.6822
  232MOL0     H31271  -1.537   9.192   9.304 -1.8160 -2.2509 -0.1145
  232MOL0     H31272  -1.572   8.813   9.375  1.3702  0.6268 -0.2470
  232MOL0     H31273  -1.589   8.898   9.523 -1.3154  4.3000  0.2995
  232MOL0     H31274  -1.795   8.911   9.447  0.9955 -0.5541 -0.8347
  232MOL0     H31275  -1.744   9.067   9.430 -2.9476 -0.4213  1.3184
  232MOL0     H31276  -1.759   8.852   9.213 -1.3880  0.5229  0.8427
  232MOL0     H31277  -1.692   9.018   9.178  0.4492 -1.0715 -0.6520
  232MOL0     H31278  -1.920   8.980   9.104  1.5011  2.0255 -0.1489
  232MOL0     H31279  -1.913   9.110   9.229  0.6370  0.8302 -0.3994
  232MOL0     H31280  -2.125   8.811   9.480 -1.2998 -1.0359  0.1718
  232MOL0     H31281  -2.351   8.886   9.570 -1.6625  3.9709  1.4157
  232MOL0     H31282  -2.686   9.255   9.564 -2.5403 -0.1244 -1.2821
  232MOL0     H31283  -2.876   9.305   9.711 -2.3782 -0.8065  0.7819
  232MOL0     H31284  -3.065   9.012   9.977  0.8969 -0.6872  1.2316
  232MOL0     H31285  -2.959   9.099  10.091  3.3969  4.4619 -1.9222
  232MOL0     H31286  -3.216   9.205   9.962  0.3940 -2.5313 -1.0234
  232MOL0     H31287  -3.214   9.147  10.126  1.9778 -1.4761 -0.2195
  232MOL0     H31288  -3.029   9.324  10.182  1.2446 -0.4874 -0.1773
  232MOL0     H31289  -3.059   9.402  10.023 -0.7050 -0.0548  0.3902
  232MOL0     H31290  -3.282   9.338  10.228  1.2526  2.2296  3.6760
  232MOL0     H31291  -3.298   9.433  10.076  1.1408 -0.7690 -0.9300
  232MOL0     H31292  -3.168   9.614  10.175  1.6449 -2.0874 -2.0583
  232MOL0     H31293  -3.122   9.523  10.315  1.6161  0.6192 -0.3100
  232MOL0     H31294  -3.360   9.533  10.404 -0.6936  2.0534  0.9313
  232MOL0     H31295  -3.293   9.691  10.355 -0.8111 -0.7602  1.9208
  232MOL0     H31296  -3.509   9.535  10.222 -2.1424  1.5990 -2.4509
  232MOL0     H31297  -3.421   9.653  10.132  0.6870 -0.2475  0.4063
  232MOL0     H31298  -3.485   9.837  10.275  4.2524 -2.0695  1.9993
  232MOL0     H31299  -3.624   9.743  10.222  0.1531 -2.0663 -0.7950
  232MOL0     H31300  -2.834   8.930   9.917  2.0931  0.4447  0.8825
  232MOL0     H31301  -2.656   8.869   9.769  0.3619  0.0416 -0.5564
  232MOL0     H31302  -2.379   9.161   9.254  0.3645 -0.8692 -1.1898
  232MOL0     H31303  -2.149   9.097   9.177 -1.2515 -0.0234 -1.0880
  232MOL0     H31304  -0.398  10.132   9.224  1.9924 -0.9925 -4.3389
  232MOL0     H31305  -0.188  10.217   9.247  1.8531 -0.8599 -4.4464
  232MOL0     H31306   0.359   9.882   9.262  1.1438 -0.6894 -2.4103
  232MOL0     H31307   0.601   9.961   9.281  1.9573  1.7794 -0.3952
  232MOL0     H31308   0.799  10.041   9.204  1.1108  0.6132 -0.6324
  232MOL0     H31309   0.791  10.106   9.366  1.6650  4.8466  1.2418
  232MOL0     H31310   0.925  10.311   9.292 -0.7438  0.0699  0.3338
  232MOL0     H31311   0.949  10.219   9.143 -2.4660 -1.5165  0.1149
  232MOL0     H31312   1.042  10.026   9.288  1.1687 -0.4065  3.0509
  232MOL0     H31313   1.027  10.133   9.425 -2.5763  3.1714 -1.1798
  232MOL0     H31314   1.212  10.275   9.329 -2.4001 -0.2471  1.1082
  232MOL0     H31315   1.263  10.118   9.356 -0.2208 -0.2507  0.4096
  232MOL0     H31316   1.314  10.121   8.955 -0.9044 -0.6427 -0.0080
  232MOL0     H31317   0.466  10.351   9.182  2.9322 -1.2097 -2.9192
  232MOL0     H31318   0.235  10.404   9.139  1.5579 -1.8758 -4.4820
  232MOL0     H31319   0.151  10.260   9.085  3.2718  0.9713 -2.2687
  232MOL0     H31320   0.129  10.309   9.256 -0.9953 -1.6438 -0.7657
  233MOL0     O31321   2.539   2.747  11.156  0.0937 -0.4007 -0.6994
  233MOL0     C31322   2.519   2.639  11.104 -0.1925 -0.1547 -0.5887
  233MOL0     O31323   2.615   2.573  11.024  0.1649 -0.3263  0.5853
  233MOL0     C31324   2.739   2.620  10.990  0.4859 -0.5210  0.3058
  233MOL0     C31325   2.783   2.595  10.863 -0.6086  0.1045  0.1281
  233MOL0     C31326   2.902   2.640  10.813 -0.4221  0.0307 -0.6296
  233MOL0     C31327   2.986   2.715  10.889  0.2617 -0.2605 -0.7885
  233MOL0     O31328   3.103   2.760  10.838 -0.1814 -0.1078  0.7497
  233MOL0     C31329   3.218   2.733  10.920 -0.5517  0.8379 -0.3035
  233MOL0     C31330   3.344   2.793  10.862 -0.9715 -0.6528  0.1525
  233MOL0     C31331   3.458   2.792  10.975  0.2283  0.5713 -0.2281
  233MOL0     C31332   3.598   2.750  10.921 -0.1319 -0.2107 -0.4609
  233MOL0     C31333   3.694   2.784  11.036 -1.3546  0.4631 -0.3949
  233MOL0     C31334   3.840   2.793  10.986  0.1770  0.4977  0.5436
  233MOL0     C31335   3.918   2.817  11.114 -0.2517  0.1419 -0.1648
  233MOL0     C31336   4.074   2.821  11.106  0.3508  1.1122  0.2092
  233MOL0     N31337   4.127   2.682  11.107 -0.1970  0.5605  0.2938
  233MOL0     C31338   4.152   2.602  11.222 -0.6164  0.9433  1.1004
  233MOL0     C31339   4.192   2.484  11.161 -0.3679  0.4567 -0.3208
  233MOL0     C31340   4.234   2.368  11.237 -0.0977  0.2281 -0.1185
  233MOL0     C31341   4.388   2.353  11.246 -0.0784  0.9690 -0.5240
  233MOL0     C31342   4.420   2.216  11.308  0.1970 -0.7380  0.6806
  233MOL0     C31343   4.571   2.197  11.302  0.1736  0.2076 -1.6314
  233MOL0     O31344   4.631   2.275  11.404  0.5279  0.5065 -1.0090
  233MOL0     C31345   4.764   2.300  11.412 -0.1078 -1.0411 -0.1102
  233MOL0     C31346   4.816   2.389  11.509 -0.0059 -0.4167 -0.7178
  233MOL0     C31347   4.956   2.412  11.512  0.5134 -0.2732  0.2893
  233MOL0     C31348   5.035   2.348  11.420 -0.4508 -0.7314 -0.5556
  233MOL0     C31349   5.176   2.386  11.404  0.2087 -0.3777 -0.7834
  233MOL0     O31350   5.215   2.498  11.470 -0.1258  0.3464 -0.9983
  233MOL0     C31351   5.350   2.536  11.462  1.3806 -0.0425  0.2503
  233MOL0     C31352   5.464   2.454  11.483  1.1506  0.3140  0.6625
  233MOL0     C31353   5.591   2.494  11.471 -1.5030 -0.0581 -0.0311
  233MOL0     C31354   5.611   2.627  11.436 -0.8421 -0.1093  0.9162
  233MOL0     O31355   5.730   2.674  11.400  0.4557  0.5370  0.0830
  233MOL0     C31356   5.843   2.595  11.419 -0.6070  0.9266 -0.3287
  233MOL0     C31357   5.967   2.685  11.387 -0.7436  0.2847  0.0433
  233MOL0     C31358   6.098   2.609  11.358  0.8765 -0.4241  0.4119
  233MOL0     C31359   6.162   2.557  11.488  0.7634  0.3635  0.2137
  233MOL0     C31360   6.315   2.559  11.486 -0.0903  0.5592  0.4320
  233MOL0     C31361   6.368   2.547  11.630 -0.1120  0.4125  0.2749
  233MOL0     C31362   6.522   2.526  11.619  0.0026 -0.7691  1.0503
  233MOL0     C31363   6.598   2.538  11.746 -0.4287  1.2626  0.2353
  233MOL0    Cl31364   6.600   2.703  11.810  0.4736 -0.4237 -0.4661
  233MOL0     C31365   5.506   2.722  11.428  0.4891  0.5364  0.0868
  233MOL0     C31366   5.373   2.673  11.445  0.0462  0.2680  0.3886
  233MOL0     O31367   5.239   2.334  11.315  0.3102 -0.5070  0.2417
  233MOL0     C31368   4.980   2.261  11.326 -0.5404 -0.4027  0.3000
  233MOL0     C31369   4.848   2.236  11.325 -0.1233 -0.0527 -1.3051
  233MOL0     N31370   4.192   2.493  11.024  0.3842 -0.1945  0.1059
  233MOL0     N31371   4.153   2.615  10.992  0.2586  0.3856  0.0401
  233MOL0     C31372   2.939   2.758  11.019  0.2775  0.4768 -0.0606
  233MOL0     C31373   2.823   2.700  11.069  0.4192  0.2821 -0.0856
  233MOL0     C31374   2.380   2.567  11.103 -0.0434 -0.4626  0.5326
  233MOL0     C31375   2.362   2.440  11.038  0.3487 -0.7449  0.0213
  233MOL0     C31376   2.249   2.363  11.050  0.1232 -0.6304 -0.2997
  233MOL0     C31377   2.142   2.420  11.112 -0.3765 -0.3933  0.9230
  233MOL0     O31378   2.016   2.375  11.120  0.1530  0.6096  0.7309
  233MOL0     C31379   1.987   2.262  11.040 -1.0527  0.6602  0.4205
  233MOL0     C31380   1.837   2.242  11.037 -0.5700 -0.5993 -0.1918
  233MOL0     C31381   1.791   2.143  10.929  0.5441  0.4027  0.1251
  233MOL0     C31382   1.822   1.998  10.962  0.0155 -0.2995  0.7993
  233MOL0     C31383   1.770   1.905  10.855  0.2776 -0.5466 -0.6244
  233MOL0     C31384   1.738   1.823  10.775  0.7756 -0.5577 -1.2422
  233MOL0     C31385   2.155   2.549  11.165  0.4389 -0.3099  0.0767
  233MOL0     C31386   2.266   2.628  11.160  0.2698  0.1346 -0.5588
  233MOL0     C31387   2.257   2.770  11.203  0.2170 -0.3634 -0.7416
  233MOL0     H31388   2.731   2.536  10.788  1.9395  2.2579 -3.6480
  233MOL0     H31389   2.939   2.620  10.712  1.2160 -2.4045  0.3413
  233MOL0     H31390   3.209   2.771  11.022  3.7285 -2.4443  1.6489
  233MOL0     H31391   3.225   2.623  10.921 -3.6463  0.5723  0.7394
  233MOL0     H31392   3.314   2.890  10.821 -1.2091 -0.9430 -0.3679
  233MOL0     H31393   3.382   2.732  10.779 -3.1030 -3.2511  0.9397
  233MOL0     H31394   3.441   2.712  11.047 -0.5674 -0.4875 -1.5381
  233MOL0     H31395   3.447   2.889  11.023 -2.1991  1.0539 -1.5837
  233MOL0     H31396   3.603   2.644  10.895 -1.1522 -1.0219  2.2993
  233MOL0     H31397   3.609   2.812  10.832 -0.6544  0.5087 -0.0310
  233MOL0     H31398   3.676   2.885  11.075 -2.1843 -0.5851  2.1372
  233MOL0     H31399   3.678   2.716  11.120 -1.3686  2.7449  1.5594
  233MOL0     H31400   3.860   2.697  10.936  2.8133  0.4310  1.6187
  233MOL0     H31401   3.867   2.862  10.905  1.8250 -2.4789 -1.6413
  233MOL0     H31402   3.895   2.737  11.185 -0.2230  2.2681  2.4030
  233MOL0     H31403   3.891   2.916  11.150 -0.3823 -0.2813  0.9484
  233MOL0     H31404   4.119   2.866  11.017  0.6890 -1.4846 -1.0463
  233MOL0     H31405   4.121   2.864  11.195  0.9047 -0.8594  0.9378
  233MOL0     H31406   4.154   2.634  11.326  2.3312  0.3751  1.3009
  233MOL0     H31407   4.193   2.378  11.337  1.1387  1.0533  0.3246
  233MOL0     H31408   4.183   2.279  11.198 -2.4070  0.8359  1.3548
  233MOL0     H31409   4.433   2.359  11.147  0.5566  0.6989 -0.2580
  233MOL0     H31410   4.432   2.431  11.308 -1.1659  0.9651  0.2851
  233MOL0     H31411   4.375   2.148  11.236 -1.4601  1.0766 -0.0967
  233MOL0     H31412   4.374   2.199  11.405 -2.6930  3.3484  0.2667
  233MOL0     H31413   4.616   2.221  11.205 -0.0940  0.4460 -1.6993
  233MOL0     H31414   4.597   2.095  11.330  0.8274  0.6981 -0.3947
  233MOL0     H31415   4.748   2.431  11.582 -0.3473 -2.4513  0.1916
  233MOL0     H31416   5.003   2.481  11.581  0.3691  3.5102 -3.0028
  233MOL0     H31417   5.440   2.348  11.494  1.3143  0.0631 -1.1094
  233MOL0     H31418   5.675   2.427  11.479 -1.8994 -1.0502 -2.8898
  233MOL0     H31419   5.848   2.558  11.522  0.0772 -0.0534 -0.6940
  233MOL0     H31420   5.838   2.508  11.352 -0.1835  1.7863 -1.5145
  233MOL0     H31421   5.940   2.758  11.311  0.1021 -1.7226 -2.3447
  233MOL0     H31422   5.984   2.755  11.469 -0.8132 -0.7915  1.0062
  233MOL0     H31423   6.064   2.545  11.276 -1.5037 -1.0760  1.8251
  233MOL0     H31424   6.170   2.682  11.319 -1.7834  1.4465 -1.3904
  233MOL0     H31425   6.117   2.459  11.503 -0.1974  0.8583  0.7129
  233MOL0     H31426   6.127   2.618  11.572  2.7023  3.7394 -1.2050
  233MOL0     H31427   6.347   2.656  11.446 -3.4722  1.4996 -0.4109
  233MOL0     H31428   6.346   2.473  11.427 -1.8767 -0.4697  0.9218
  233MOL0     H31429   6.358   2.640  11.688  2.3075 -0.1974  1.8560
  233MOL0     H31430   6.328   2.462  11.685  0.3196  0.3065  0.4360
  233MOL0     H31431   6.559   2.594  11.541 -1.5095 -0.6465  0.3962
  233MOL0     H31432   6.524   2.422  11.586 -0.1968 -0.2238 -0.8520
  233MOL0     H31433   6.556   2.462  11.813  2.4438 -2.3883 -1.6967
  233MOL0     H31434   6.699   2.496  11.731 -0.1573  2.5226 -1.8809
  233MOL0     H31435   5.516   2.830  11.415 -0.5256  0.8074  1.3172
  233MOL0     H31436   5.279   2.727  11.446  0.0755  0.3249  0.2340
  233MOL0     H31437   5.035   2.191  11.265 -1.2664  0.2874 -1.2065
  233MOL0     H31438   4.823   2.154  11.258 -2.5635  0.5681 -1.2413
  233MOL0     H31439   3.002   2.825  11.077  2.0306 -1.7232  0.7338
  233MOL0     H31440   2.779   2.722  11.166 -4.5421 -0.1068 -1.9722
  233MOL0     H31441   2.440   2.402  10.973 -1.2642  1.9530 -3.9568
  233MOL0     H31442   2.240   2.262  11.010 -2.4164 -1.3709  1.8824
  233MOL0     H31443   2.039   2.175  11.082 -1.2913  2.2500  4.4720
  233MOL0     H31444   2.026   2.282  10.940 -0.9295  0.5586  0.4491
  233MOL0     H31445   1.791   2.341  11.027  2.4635  0.8792 -0.5995
  233MOL0     H31446   1.803   2.211  11.136  2.8224  1.5424  1.8339
  233MOL0     H31447   1.832   2.172  10.832 -0.7496 -1.3868 -1.0095
  233MOL0     H31448   1.682   2.150  10.933  0.6611  3.0396  0.5682
  233MOL0     H31449   1.929   1.985  10.978 -0.2636 -1.8380  1.5791
  233MOL0     H31450   1.790   1.974  11.064  4.5668  0.4763  2.6605
  233MOL0     H31451   1.713   1.761  10.692 -2.6042  2.0593 -2.4105
  233MOL0     H31452   2.068   2.595  11.210 -0.1081 -2.0147  0.8384
  233MOL0     H31453   2.286   2.836  11.121  1.9012  2.0337  1.6044
  233MOL0     H31454   2.154   2.804  11.219  0.3046  0.3938 -1.7074
  233MOL0     H31455   2.311   2.787  11.297 -1.0772 -1.8025  0.3288
  234MOL0     O31456   5.616  11.135   8.730  0.9808  0.1511  0.9665
  234MOL0     C31457   5.610  11.257   8.740  0.9286  0.4805  0.6446
  234MOL0     O31458   5.706  11.338   8.794 -0.3080  0.3419  0.0139
  234MOL0     C31459   5.823  11.283   8.825 -0.1640 -0.7045 -0.2321
  234MOL0     C31460   5.849  11.260   8.963 -0.6581  0.2411  0.0220
  234MOL0     C31461   5.977  11.214   9.006  1.0620 -0.0510  0.2132
  234MOL0     C31462   6.083  11.194   8.925 -0.1454  1.4171 -0.1065
  234MOL0     O31463   6.208  11.154   8.975 -0.1369  0.1872  0.3474
  234MOL0     C31464   6.217  11.021   9.032  0.7629  0.3048 -0.4873
  234MOL0     C31465   6.276  11.040   9.170  0.4138 -0.1416 -1.1763
  234MOL0     C31466   6.423  11.083   9.173  0.3407 -0.3894  0.7306
  234MOL0     C31467   6.518  10.961   9.156  0.9531  0.1989 -0.2409
  234MOL0     C31468   6.658  11.005   9.181 -0.6457 -0.4135  0.4899
  234MOL0     C31469   6.761  10.887   9.179 -0.3975  0.0057 -1.2070
  234MOL0     C31470   6.763  10.820   9.038 -0.4706  0.6987 -0.2983
  234MOL0     C31471   6.882  10.725   9.016  1.2215 -0.5931  0.6005
  234MOL0     N31472   6.920  10.644   9.129 -0.0835 -0.3439 -0.2663
  234MOL0     C31473   6.887  10.512   9.161  0.0510 -0.6557  0.5809
  234MOL0     C31474   6.964  10.470   9.260 -0.4920  0.4828  0.2220
  234MOL0     C31475   6.959  10.329   9.317  0.0734  0.4799  0.4804
  234MOL0     C31476   7.103  10.279   9.358  1.4496 -0.0855  0.6972
  234MOL0     C31477   7.110  10.127   9.370  0.6922  0.5091 -0.6327
  234MOL0     C31478   7.236  10.080   9.443 -0.2160 -0.3373 -0.0026
  234MOL0     O31479   7.364  10.116   9.385  0.3717 -0.1891 -0.4738
  234MOL0     C31480   7.478  10.043   9.412 -0.4572  0.2831 -0.5619
  234MOL0     C31481   7.491   9.955   9.517 -0.2686  0.6665 -0.4120
  234MOL0     C31482   7.610   9.878   9.525 -0.2893  0.5155 -0.0920
  234MOL0     C31483   7.708   9.891   9.424  0.1188 -0.6185  0.2171
  234MOL0     C31484   7.825   9.801   9.421  0.3937 -0.1132  0.3309
  234MOL0     O31485   7.920   9.816   9.317  0.6653 -0.3672  0.6742
  234MOL0     C31486   7.996   9.706   9.270 -0.6421 -0.0204  0.3195
  234MOL0     C31487   7.951   9.574   9.265  0.7370  0.8894 -0.3570
  234MOL0     C31488   8.033   9.477   9.206  0.3470  0.1104 -0.4294
  234MOL0     C31489   8.173   9.498   9.169  0.5173  0.4288 -0.1804
  234MOL0     O31490   8.267   9.411   9.121  0.4167  0.0408 -0.1422
  234MOL0     C31491   8.215   9.281   9.109  0.0805 -0.2802  0.9138
  234MOL0     C31492   8.325   9.167   9.084 -0.0950 -0.1142 -0.1764
  234MOL0     C31493   8.424   9.207   8.968 -0.2967  0.2328  0.6784
  234MOL0     C31494   8.525   9.094   8.943  1.1932 -0.1210  0.1099
  234MOL0     C31495   8.605   9.119   8.814  0.3529  0.7758  0.2960
  234MOL0     C31496   8.703   9.231   8.835 -0.8020  0.0392  0.6730
  234MOL0     C31497   8.821   9.189   8.920 -0.3045 -0.2140 -0.8017
  234MOL0     C31498   8.940   9.276   8.900  0.2693 -0.4774  0.1137
  234MOL0    Cl31499   9.084   9.188   8.940  0.2889  0.2007 -0.3126
  234MOL0     C31500   8.219   9.627   9.190  0.4669 -0.9953  0.1241
  234MOL0     C31501   8.134   9.730   9.236  0.2055 -0.0732  0.1745
  234MOL0     O31502   7.830   9.711   9.507  0.0579  0.5393 -0.1063
  234MOL0     C31503   7.699   9.987   9.321  0.7563 -0.1435 -0.8535
  234MOL0     C31504   7.586  10.062   9.322 -0.1952 -0.6398 -0.7664
  234MOL0     N31505   7.027  10.581   9.302 -0.1380  0.1435  0.1276
  234MOL0     N31506   7.007  10.682   9.224  0.4574 -0.3486 -0.1734
  234MOL0     C31507   6.062  11.217   8.786  0.2900 -0.7784 -0.1324
  234MOL0     C31508   5.935  11.257   8.735 -0.0601 -0.7253  0.4354
  234MOL0     C31509   5.471  11.318   8.721 -0.9122 -0.2807 -0.4688
  234MOL0     C31510   5.360  11.247   8.685  0.7489  0.2712  0.5844
  234MOL0     C31511   5.232  11.301   8.655  0.0146 -0.1375  0.2292
  234MOL0     C31512   5.226  11.444   8.648 -0.0411  0.6067 -1.2303
  234MOL0     O31513   5.117  11.515   8.622  0.2377 -0.2491 -0.3010
  234MOL0     C31514   5.097  11.550   8.481 -0.0745 -0.0536  0.9355
  234MOL0     C31515   4.997  11.670   8.484 -0.0990  0.7463 -0.6931
  234MOL0     C31516   4.957  11.722   8.341 -0.1851  0.3509 -0.0692
  234MOL0     C31517   4.812  11.784   8.343 -0.3602 -0.2593 -0.7790
  234MOL0     C31518   4.778  11.799   8.205  0.8368  0.6478  1.0898
  234MOL0     C31519   4.762  11.796   8.085  0.8015  0.3804 -0.1194
  234MOL0     C31520   5.338  11.522   8.691  0.7359  1.0218 -0.5048
  234MOL0     C31521   5.459  11.463   8.729  0.2800  0.7228  0.6049
  234MOL0     C31522   5.563  11.569   8.758 -0.1408 -0.6113 -0.1457
  234MOL0     H31523   5.769  11.273   9.035 -1.8249 -1.6341 -0.8617
  234MOL0     H31524   6.002  11.200   9.111 -0.5095  0.6896  0.7201
  234MOL0     H31525   6.116  10.979   9.039  1.4084 -0.9535  3.5108
  234MOL0     H31526   6.284  10.948   8.987  1.3374  0.9579 -0.7108
  234MOL0     H31527   6.271  10.946   9.227 -1.0007  1.2243  1.1461
  234MOL0     H31528   6.215  11.108   9.231  0.4182 -0.9121 -0.2849
  234MOL0     H31529   6.446  11.128   9.270  4.0346  0.3048 -0.3112
  234MOL0     H31530   6.431  11.153   9.089 -2.3932  0.2448  0.8966
  234MOL0     H31531   6.494  10.876   9.221 -1.3916 -0.1681 -1.4756
  234MOL0     H31532   6.500  10.930   9.053 -1.9146  1.0585 -0.0804
  234MOL0     H31533   6.682  11.090   9.116 -3.8520  0.0704 -0.2327
  234MOL0     H31534   6.653  11.043   9.284  0.9707  0.3532  0.3127
  234MOL0     H31535   6.859  10.931   9.200 -0.6092  0.4283 -1.0889
  234MOL0     H31536   6.734  10.814   9.256  1.5338  0.0031 -0.4777
  234MOL0     H31537   6.753  10.898   8.962 -2.3674  0.0776 -0.7450
  234MOL0     H31538   6.677  10.753   9.030  0.6438 -0.8543  0.3021
  234MOL0     H31539   6.862  10.661   8.928  0.3488  1.0805 -0.4803
  234MOL0     H31540   6.973  10.780   8.991  1.8611 -1.3286  1.2552
  234MOL0     H31541   6.828  10.443   9.102  4.3569 -2.5010 -2.0322
  234MOL0     H31542   6.882  10.315   9.393 -2.5871  0.2774 -2.0668
  234MOL0     H31543   6.928  10.272   9.229 -1.5913 -0.4224  1.6004
  234MOL0     H31544   7.171  10.323   9.285 -0.3824  2.4825  0.3727
  234MOL0     H31545   7.131  10.319   9.456 -1.3087 -0.6895  1.8415
  234MOL0     H31546   7.109  10.070   9.277  1.9466 -0.6224 -0.0067
  234MOL0     H31547   7.022  10.099   9.428 -0.1293  2.0967 -1.0610
  234MOL0     H31548   7.237   9.971   9.450  1.8851 -0.4369 -1.1192
  234MOL0     H31549   7.239  10.102   9.550  3.3867  1.2045 -0.2802
  234MOL0     H31550   7.415   9.954   9.595  0.7501  1.8957  0.6385
  234MOL0     H31551   7.617   9.810   9.610 -1.0644  0.8386  0.2485
  234MOL0     H31552   7.849   9.545   9.290  0.7162  1.5944  0.4002
  234MOL0     H31553   8.001   9.373   9.204  2.0778 -0.5231  1.4801
  234MOL0     H31554   8.156   9.246   9.195 -0.1032 -0.3736  0.7491
  234MOL0     H31555   8.147   9.273   9.024  1.0692 -0.6497  0.1383
  234MOL0     H31556   8.384   9.159   9.177  1.9887 -0.1419 -1.4272
  234MOL0     H31557   8.274   9.073   9.063 -2.2908  0.1985  3.0881
  234MOL0     H31558   8.354   9.229   8.886  0.4257 -0.5611 -0.1652
  234MOL0     H31559   8.466   9.305   8.995 -1.4628  2.5614 -4.6159
  234MOL0     H31560   8.465   9.003   8.934  1.0502 -0.0735  0.5768
  234MOL0     H31561   8.598   9.076   9.022 -0.3717 -4.5874  0.8218
  234MOL0     H31562   8.536   9.151   8.735  0.5579  0.7297  0.0990
  234MOL0     H31563   8.655   9.029   8.779 -2.6681 -0.6417 -0.6713
  234MOL0     H31564   8.751   9.266   8.742  0.0574  0.9607  1.4366
  234MOL0     H31565   8.647   9.319   8.870 -2.9346  0.2571 -2.7727
  234MOL0     H31566   8.851   9.090   8.886 -1.1258 -1.0816  0.8901
  234MOL0     H31567   8.792   9.188   9.025  1.4627  2.1598 -0.2133
  234MOL0     H31568   8.936   9.316   8.798 -0.0085 -0.2896  0.1970
  234MOL0     H31569   8.943   9.368   8.959  2.6062 -0.5661  0.2298
  234MOL0     H31570   8.320   9.650   9.158 -0.0107 -0.2204 -0.8851
  234MOL0     H31571   8.177   9.829   9.232  0.8869 -0.3265  0.9151
  234MOL0     H31572   7.759   9.997   9.231  3.0185 -4.1669 -0.0462
  234MOL0     H31573   7.565  10.117   9.231  0.4857 -1.1370 -1.2280
  234MOL0     H31574   6.135  11.191   8.710 -0.7310  0.6944 -1.6867
  234MOL0     H31575   5.911  11.285   8.633 -1.1317  0.8507  1.0806
  234MOL0     H31576   5.376  11.141   8.665 -0.3301  0.4082 -1.1838
  234MOL0     H31577   5.154  11.231   8.625 -0.0359 -1.3892  2.9343
  234MOL0     H31578   5.074  11.465   8.417 -1.0130  1.1501 -0.4073
  234MOL0     H31579   5.193  11.590   8.447 -1.4721  2.4208 -0.4353
  234MOL0     H31580   5.038  11.753   8.542  2.2170 -0.2201 -0.8532
  234MOL0     H31581   4.901  11.635   8.523 -1.1839  4.1403 -0.0358
  234MOL0     H31582   4.960  11.640   8.268  1.8778  0.6077 -0.3364
  234MOL0     H31583   5.028  11.799   8.311 -1.0177  0.5278 -1.7477
  234MOL0     H31584   4.748  11.708   8.388 -1.9718  0.1892 -2.2045
  234MOL0     H31585   4.809  11.871   8.410 -1.1351 -2.2220  1.8842
  234MOL0     H31586   4.750  11.766   7.983  3.7919 -0.9548 -0.2001
  234MOL0     H31587   5.316  11.628   8.695 -2.1436  0.4694 -0.0203
  234MOL0     H31588   5.587  11.554   8.864  1.0255  0.6784 -0.1988
  234MOL0     H31589   5.657  11.555   8.704 -0.3064  0.0513 -0.6199
  234MOL0     H31590   5.528  11.672   8.743  1.6262  0.8023  3.9649
  235MOL0     O31591   2.461   9.951   0.421  0.3792 -1.0583  0.5138
  235MOL0     C31592   2.471  10.067   0.467 -0.1049  0.5759  0.1512
  235MOL0     O31593   2.592  10.142   0.454 -0.0546 -0.3076 -0.4736
  235MOL0     C31594   2.706  10.068   0.425  0.0195  0.2168 -0.0393
  235MOL0     C31595   2.720  10.033   0.289 -0.6017 -0.3008  0.4303
  235MOL0     C31596   2.826   9.957   0.243 -0.3793  0.6047  0.3566
  235MOL0     C31597   2.919   9.900   0.338  0.0470 -1.1680 -0.0005
  235MOL0     O31598   3.027   9.829   0.306  0.4323  0.1761  0.3466
  235MOL0     C31599   3.032   9.749   0.187  0.5831  0.0062  0.5361
  235MOL0     C31600   3.161   9.657   0.193  0.6883  0.0370 -0.5507
  235MOL0     C31601   3.169   9.578   0.068 -0.9507  0.1147 -0.0289
  235MOL0     C31602   3.314   9.520   0.066 -0.8900  0.4536 -0.1246
  235MOL0     C31603   3.329   9.450  -0.069  0.0048  0.4064  0.5733
  235MOL0     C31604   3.476   9.394  -0.083  0.3899  1.1449 -0.3286
  235MOL0     C31605   3.544   9.405  -0.224  0.0895 -0.8159 -0.1908
  235MOL0     C31606   3.661   9.308  -0.227 -0.0501 -0.1348  0.5865
  235MOL0     N31607   3.776   9.330  -0.134  0.3550 -0.2632  0.7581
  235MOL0     C31608   3.887   9.406  -0.151 -0.3126 -0.6213 -0.6862
  235MOL0     C31609   3.963   9.402  -0.039 -0.9227  0.0230 -0.2688
  235MOL0     C31610   4.088   9.490  -0.020 -0.3949 -0.4838 -0.4212
  235MOL0     C31611   4.231   9.422  -0.051  0.1151 -0.4206  0.3464
  235MOL0     C31612   4.246   9.301   0.037  0.6183  0.2011 -0.9609
  235MOL0     C31613   4.389   9.253   0.049  0.0690  0.9533  0.2739
  235MOL0     O31614   4.409   9.145   0.146  0.6021 -0.4740 -0.0685
  235MOL0     C31615   4.536   9.134   0.196  0.0589  0.4355  0.6282
  235MOL0     C31616   4.564   9.034   0.295  0.4206  0.4827  0.3335
  235MOL0     C31617   4.691   9.005   0.329 -0.8469  0.7333 -0.0993
  235MOL0     C31618   4.800   9.084   0.287 -0.2454  0.0016  0.2610
  235MOL0     C31619   4.935   9.056   0.350  0.4981 -0.7677  0.0727
  235MOL0     O31620   5.040   9.084   0.271  0.2386 -0.4762  0.0375
  235MOL0     C31621   5.156   9.025   0.303  0.0762  0.1151 -0.8537
  235MOL0     C31622   5.228   9.060   0.420  1.2054  0.5733  0.9051
  235MOL0     C31623   5.347   8.999   0.441  0.4582  0.1649  0.0984
  235MOL0     C31624   5.403   8.909   0.350 -0.2849  0.6704 -0.5238
  235MOL0     O31625   5.529   8.850   0.361  0.4418 -0.6904  0.8107
  235MOL0     C31626   5.621   8.909   0.454  0.2640 -0.6427  0.5872
  235MOL0     C31627   5.660   9.052   0.420 -1.0080  0.3759  1.0612
  235MOL0     C31628   5.792   9.094   0.490 -0.0651  0.8808  0.2391
  235MOL0     C31629   5.832   9.236   0.470  0.5332 -0.0381  0.8906
  235MOL0     C31630   5.976   9.258   0.490 -0.2638 -0.9860  0.5201
  235MOL0     C31631   6.013   9.410   0.527 -0.0189 -0.3693  0.7104
  235MOL0     C31632   6.161   9.421   0.509 -0.8966 -0.3544 -0.0789
  235MOL0     C31633   6.207   9.566   0.568 -0.2210  0.0499 -0.2619
  235MOL0    Cl31634   6.367   9.611   0.519  0.3474 -0.2848 -0.0856
  235MOL0     C31635   5.331   8.877   0.235  0.3510 -0.2125 -0.0753
  235MOL0     C31636   5.206   8.933   0.212  0.2936  0.1446  0.9251
  235MOL0     O31637   4.946   8.993   0.454  0.4325  0.1332  0.0516
  235MOL0     C31638   4.781   9.181   0.185 -0.0655 -1.0018  0.1050
  235MOL0     C31639   4.647   9.199   0.137  0.3411 -0.0401 -0.2425
  235MOL0     N31640   3.892   9.311   0.045 -0.0750  0.1163  0.0376
  235MOL0     N31641   3.784   9.279  -0.012  0.2923 -0.2466  0.6536
  235MOL0     C31642   2.902   9.937   0.474  0.3677  0.7822  0.3051
  235MOL0     C31643   2.793  10.020   0.517 -0.1169  0.4288  0.4938
  235MOL0     C31644   2.354  10.132   0.536 -0.7091 -0.2103  0.7362
  235MOL0     C31645   2.376  10.264   0.580 -0.4637 -0.6186 -0.1494
  235MOL0     C31646   2.286  10.335   0.645  0.3517  0.4751 -1.1388
  235MOL0     C31647   2.157  10.283   0.668 -0.3130 -0.3200  0.3805
  235MOL0     O31648   2.064  10.352   0.737  0.2473  0.2865  0.9440
  235MOL0     C31649   1.947  10.388   0.663  0.7883  0.0896  0.0373
  235MOL0     C31650   1.949  10.538   0.620  0.6631  0.2072  0.6179
  235MOL0     C31651   2.065  10.566   0.523  0.0422  0.3703  0.1199
  235MOL0     C31652   2.045  10.699   0.458 -0.1997 -0.4880 -0.8112
  235MOL0     C31653   2.170  10.730   0.392 -0.7650 -0.4090 -0.4173
  235MOL0     C31654   2.286  10.750   0.354 -0.1319  0.0585  0.0591
  235MOL0     C31655   2.135  10.153   0.622  0.1552  0.8001 -0.1917
  235MOL0     C31656   2.227  10.067   0.555  0.4757 -1.0139  1.0028
  235MOL0     C31657   2.180   9.927   0.520  1.0136 -0.1041  1.4537
  235MOL0     H31658   2.649  10.056   0.210 -1.8042 -1.6730  1.0744
  235MOL0     H31659   2.833   9.918   0.142  0.1098  2.1789 -0.2404
  235MOL0     H31660   2.939   9.692   0.182  1.8856 -2.1386 -0.9451
  235MOL0     H31661   3.039   9.818   0.101  0.4986  1.3340  1.5544
  235MOL0     H31662   3.162   9.590   0.280  1.8047  1.4593  0.5817
  235MOL0     H31663   3.246   9.725   0.197 -0.1907  1.3694 -2.7381
  235MOL0     H31664   3.148   9.638  -0.021 -0.2331  0.7599  0.2287
  235MOL0     H31665   3.094   9.498   0.059 -0.8486 -0.0824  0.8411
  235MOL0     H31666   3.386   9.598   0.090 -1.2327  0.9536 -0.7014
  235MOL0     H31667   3.333   9.444   0.143 -3.5520 -2.7502 -2.3168
  235MOL0     H31668   3.256   9.369  -0.075 -1.7661  1.8395  1.6790
  235MOL0     H31669   3.306   9.511  -0.157 -1.1696  1.9131  1.8714
  235MOL0     H31670   3.531   9.461  -0.016  2.4007 -0.8753  0.1826
  235MOL0     H31671   3.484   9.291  -0.047  1.2242  1.7359  1.2703
  235MOL0     H31672   3.558   9.511  -0.250 -0.6405 -0.0962  2.0905
  235MOL0     H31673   3.463   9.381  -0.293 -0.5648  2.6571 -0.8646
  235MOL0     H31674   3.624   9.208  -0.203  0.3369 -1.3252 -3.0869
  235MOL0     H31675   3.703   9.301  -0.328  1.7514 -0.2620  1.2970
  235MOL0     H31676   3.896   9.466  -0.240  0.6594 -1.2408 -1.0183
  235MOL0     H31677   4.069   9.586  -0.070 -0.7167  0.8655  2.1683
  235MOL0     H31678   4.097   9.509   0.087 -0.7837 -0.4765 -0.3866
  235MOL0     H31679   4.239   9.403  -0.158 -2.0647  2.3209 -0.4162
  235MOL0     H31680   4.302   9.492  -0.005 -0.1108 -0.1399  0.2665
  235MOL0     H31681   4.176   9.224   0.004  0.6620 -0.9449  1.4483
  235MOL0     H31682   4.223   9.318   0.142  2.8491 -3.1398  0.1965
  235MOL0     H31683   4.455   9.338   0.070 -0.6212  1.4290  0.5418
  235MOL0     H31684   4.427   9.208  -0.043 -2.3222  0.4390 -0.5166
  235MOL0     H31685   4.486   8.975   0.343  2.7583 -3.7508 -0.5468
  235MOL0     H31686   4.713   8.925   0.399 -0.0765  0.9436 -0.0908
  235MOL0     H31687   5.185   9.127   0.494 -1.3261 -0.8806  0.8419
  235MOL0     H31688   5.404   9.022   0.530  0.2535 -2.4267  1.0034
  235MOL0     H31689   5.581   8.898   0.556  2.4798  0.5721  1.6712
  235MOL0     H31690   5.715   8.855   0.462  1.5205  1.3962  0.2817
  235MOL0     H31691   5.675   9.073   0.314  2.5476 -1.8194  0.9830
  235MOL0     H31692   5.577   9.120   0.443 -1.2858 -0.3954  2.5009
  235MOL0     H31693   5.769   9.084   0.596 -2.1014 -2.3543 -0.3770
  235MOL0     H31694   5.872   9.025   0.461 -0.2766 -0.2566  2.2127
  235MOL0     H31695   5.780   9.309   0.533  2.2945  2.7195 -0.6704
  235MOL0     H31696   5.810   9.269   0.368  2.1693  1.0652  0.8636
  235MOL0     H31697   6.046   9.221   0.415  0.8715 -1.7051  1.8777
  235MOL0     H31698   6.012   9.194   0.572  3.8344  1.7166  1.0846
  235MOL0     H31699   5.964   9.477   0.455 -1.7084 -1.5833  0.6576
  235MOL0     H31700   5.973   9.427   0.628  0.8251 -0.5711  1.0897
  235MOL0     H31701   6.200   9.407   0.408 -4.0020  3.4031 -2.0940
  235MOL0     H31702   6.206   9.344   0.572  1.4996 -1.1216 -2.5561
  235MOL0     H31703   6.136   9.646   0.546  2.3064  3.6763  3.3163
  235MOL0     H31704   6.207   9.565   0.677 -0.3624  0.6012 -0.2538
  235MOL0     H31705   5.359   8.805   0.160 -2.1822 -1.6641  0.2508
  235MOL0     H31706   5.153   8.914   0.120  3.0753 -2.3090 -0.2939
  235MOL0     H31707   4.863   9.239   0.143 -0.3940  2.5625  3.7860
  235MOL0     H31708   4.636   9.263   0.050 -0.3614  0.4568  0.1988
  235MOL0     H31709   2.966   9.894   0.551 -1.9321 -0.6236  1.5550
  235MOL0     H31710   2.790  10.025   0.625 -0.3371 -1.3289  0.5976
  235MOL0     H31711   2.468  10.318   0.560 -0.4103  0.0488  1.6755
  235MOL0     H31712   2.296  10.441   0.667 -1.8287  1.2702 -3.4952
  235MOL0     H31713   1.853  10.362   0.713  1.6899 -0.7275  1.4100
  235MOL0     H31714   1.950  10.325   0.574  2.2356 -3.1652  2.1884
  235MOL0     H31715   1.939  10.601   0.708 -1.8597 -0.7773  1.1314
  235MOL0     H31716   1.853  10.552   0.568  2.0709  1.0516 -1.9100
  235MOL0     H31717   2.049  10.484   0.452 -4.0695 -0.1923  1.4413
  235MOL0     H31718   2.168  10.558   0.557 -0.4954 -1.4301  1.4896
  235MOL0     H31719   1.954  10.694   0.398 -3.2258 -2.0124  3.3780
  235MOL0     H31720   2.030  10.774   0.536  3.4230  0.0300 -0.4586
  235MOL0     H31721   2.381  10.749   0.305 -0.6289 -1.5612 -0.9396
  235MOL0     H31722   2.037  10.110   0.639 -1.7301  4.3130 -1.0652
  235MOL0     H31723   2.259   9.854   0.544  1.0272  0.7299  4.4062
  235MOL0     H31724   2.094   9.892   0.578  0.3519 -0.0741  0.5064
  235MOL0     H31725   2.152   9.919   0.415  3.5466 -1.8679  0.8079
  236MOL0     O31726   5.730   5.924   6.862  0.0192  0.9753 -0.1519
  236MOL0     C31727   5.640   5.850   6.895  0.6918  0.3582 -0.4505
  236MOL0     O31728   5.647   5.753   6.998 -0.1369 -0.3918 -0.2199
  236MOL0     C31729   5.779   5.742   7.032 -0.8567 -0.2597 -0.1162
  236MOL0     C31730   5.854   5.625   6.992 -0.9293 -0.2173 -0.5012
  236MOL0     C31731   5.987   5.603   7.030 -0.3604 -0.3198  0.1769
  236MOL0     C31732   6.047   5.694   7.117 -0.0962 -1.0639 -0.3636
  236MOL0     O31733   6.179   5.686   7.164  0.7016 -0.6653  0.0208
  236MOL0     C31734   6.271   5.654   7.057 -0.0024  0.3926  0.1808
  236MOL0     C31735   6.413   5.657   7.111 -0.0602 -0.5087  0.0174
  236MOL0     C31736   6.465   5.538   7.204 -0.2267 -0.1225  0.3797
  236MOL0     C31737   6.611   5.570   7.251  0.2986 -0.3903  0.1582
  236MOL0     C31738   6.683   5.462   7.337  0.5504  0.2606 -0.1263
  236MOL0     C31739   6.827   5.510   7.383  0.3818 -0.0498  0.3690
  236MOL0     C31740   6.886   5.395   7.461 -0.1765 -0.4762 -0.4294
  236MOL0     C31741   7.016   5.416   7.526  0.1700 -0.7916  0.4861
  236MOL0     N31742   7.055   5.322   7.634 -0.1610 -0.3364  0.2646
  236MOL0     C31743   7.133   5.216   7.620 -0.2440 -0.0973  0.5240
  236MOL0     C31744   7.104   5.140   7.724  0.5680  0.5165  0.1938
  236MOL0     C31745   7.174   5.019   7.763  1.1016  0.2351 -0.0872
  236MOL0     C31746   7.322   5.017   7.733 -0.9791 -0.4549 -0.2850
  236MOL0     C31747   7.408   5.127   7.803  0.0167 -0.1874 -0.7654
  236MOL0     C31748   7.548   5.111   7.766 -0.3390  0.6445  0.3498
  236MOL0     O31749   7.625   5.002   7.827  0.5256 -0.5141  0.3002
  236MOL0     C31750   7.742   4.949   7.780 -0.0708 -0.2635  0.0312
  236MOL0     C31751   7.769   4.816   7.799  0.3313 -0.7902  0.1226
  236MOL0     C31752   7.887   4.756   7.761  0.0612  0.7115  0.1814
  236MOL0     C31753   7.974   4.828   7.692  0.3020 -0.8426  0.6508
  236MOL0     C31754   8.107   4.767   7.648 -0.0358  0.9176  0.0149
  236MOL0     O31755   8.167   4.661   7.719  0.0413 -0.7009  1.0266
  236MOL0     C31756   8.292   4.616   7.668  0.6789 -0.2804 -0.5448
  236MOL0     C31757   8.304   4.485   7.625 -0.6345  0.0547  0.4342
  236MOL0     C31758   8.418   4.441   7.558 -0.3857 -0.1343 -0.1662
  236MOL0     C31759   8.526   4.527   7.529 -0.2406  0.0292  0.2908
  236MOL0     O31760   8.630   4.494   7.445  0.4510 -0.2515  0.2476
  236MOL0     C31761   8.592   4.479   7.307  0.6533  0.9249  0.3038
  236MOL0     C31762   8.717   4.431   7.224  0.3144 -0.4598  0.1109
  236MOL0     C31763   8.701   4.446   7.075 -0.5790 -0.1615  0.2239
  236MOL0     C31764   8.585   4.373   7.021  0.0900  0.8732  0.7322
  236MOL0     C31765   8.562   4.369   6.862 -0.4470  0.3195  0.4429
  236MOL0     C31766   8.666   4.291   6.776  0.0515 -0.1097 -0.4797
  236MOL0     C31767   8.625   4.297   6.630  0.4374 -0.2912 -0.7469
  236MOL0     C31768   8.692   4.187   6.553 -0.2662 -0.4404  0.1936
  236MOL0    Cl31769   8.859   4.178   6.567  0.0457  0.6428  0.2006
  236MOL0     C31770   8.515   4.660   7.579 -1.3326 -0.4431  0.2127
  236MOL0     C31771   8.401   4.700   7.653 -0.6520  0.5786  0.3560
  236MOL0     O31772   8.155   4.815   7.544  0.3121 -0.3377  0.3603
  236MOL0     C31773   7.948   4.967   7.667  0.7405 -0.1679  0.4486
  236MOL0     C31774   7.830   5.025   7.708  0.5045  0.2427 -0.0453
  236MOL0     N31775   7.013   5.200   7.800  0.7215 -0.3617 -0.6453
  236MOL0     N31776   6.975   5.309   7.739 -0.0280 -0.3867 -0.3671
  236MOL0     C31777   5.971   5.799   7.171 -0.1615  0.3216 -0.1313
  236MOL0     C31778   5.838   5.827   7.135  0.2876  0.0544  0.3155
  236MOL0     C31779   5.510   5.860   6.812 -0.4225 -0.0633 -0.0753
  236MOL0     C31780   5.474   5.980   6.748 -0.0809 -0.0125  0.0274
  236MOL0     C31781   5.370   5.990   6.666  0.3903 -0.2479  0.0207
  236MOL0     C31782   5.283   5.883   6.661  0.2392  0.3452 -0.1677
  236MOL0     O31783   5.167   5.892   6.591 -0.7554  0.2427 -0.1865
  236MOL0     C31784   5.045   5.864   6.664 -0.3841  0.9046  0.6498
  236MOL0     C31785   5.020   5.980   6.772 -0.4049 -0.3243  0.8297
  236MOL0     C31786   4.888   5.966   6.848 -0.6728 -0.1762 -0.0111
  236MOL0     C31787   4.765   5.987   6.757 -0.8590  1.2723  0.6778
  236MOL0     C31788   4.646   6.043   6.825 -0.3465  0.8340 -0.0999
  236MOL0     C31789   4.547   6.095   6.869  0.0309  0.2072  0.4484
  236MOL0     C31790   5.322   5.757   6.707  0.2938  0.0287 -0.0040
  236MOL0     C31791   5.440   5.741   6.775 -0.3353  0.4015  0.0607
  236MOL0     C31792   5.465   5.601   6.808 -0.3551  0.1635 -0.9212
  236MOL0     H31793   5.824   5.549   6.921 -1.7065 -0.7752  0.3911
  236MOL0     H31794   6.042   5.519   6.989 -0.8384  0.9249 -3.3901
  236MOL0     H31795   6.251   5.559   7.007 -2.1632  1.9917 -2.2083
  236MOL0     H31796   6.266   5.732   6.981  0.5556 -1.3478 -1.7181
  236MOL0     H31797   6.417   5.739   7.183 -1.5705 -1.9285  1.7929
  236MOL0     H31798   6.472   5.671   7.019 -0.4056 -1.6545 -0.4002
  236MOL0     H31799   6.441   5.435   7.174 -1.3965  0.1006  0.4963
  236MOL0     H31800   6.399   5.531   7.292  0.2814 -0.3509  0.7504
  236MOL0     H31801   6.671   5.574   7.160  0.4374 -1.2644  0.2006
  236MOL0     H31802   6.617   5.667   7.301 -1.4331 -0.9207  1.5309
  236MOL0     H31803   6.625   5.428   7.423  0.8603  0.6452  0.2353
  236MOL0     H31804   6.692   5.368   7.282  0.8391 -0.9732  1.9150
  236MOL0     H31805   6.891   5.531   7.297 -0.2590 -2.6553 -0.8347
  236MOL0     H31806   6.806   5.599   7.443 -1.6659 -1.0051  1.1583
  236MOL0     H31807   6.902   5.306   7.400 -0.8432 -1.1808  0.3833
  236MOL0     H31808   6.813   5.357   7.534 -0.6271  0.4498 -0.3892
  236MOL0     H31809   7.101   5.408   7.459  1.2821  0.3208  1.6862
  236MOL0     H31810   7.013   5.511   7.582  1.7811 -0.5580  0.2057
  236MOL0     H31811   7.202   5.197   7.538 -0.1237  1.0792  0.3334
  236MOL0     H31812   7.148   4.991   7.866 -0.8771 -4.3988 -1.5537
  236MOL0     H31813   7.120   4.940   7.710  2.3678 -0.6187 -0.1538
  236MOL0     H31814   7.361   4.919   7.762  1.7620  0.3602 -0.9526
  236MOL0     H31815   7.335   5.026   7.624 -0.0631 -0.0879 -0.1527
  236MOL0     H31816   7.385   5.143   7.909 -0.1138  0.4321 -0.8814
  236MOL0     H31817   7.380   5.224   7.760 -1.6637  1.2941  3.2333
  236MOL0     H31818   7.590   5.211   7.785  0.3371  0.5262 -0.4620
  236MOL0     H31819   7.553   5.110   7.657 -1.6610  3.2738  0.1890
  236MOL0     H31820   7.698   4.758   7.857 -0.3513 -1.9603 -1.7894
  236MOL0     H31821   7.909   4.653   7.785  0.6324  0.2200 -2.2082
  236MOL0     H31822   8.213   4.428   7.642 -1.0096  1.0873  2.2989
  236MOL0     H31823   8.416   4.340   7.520 -0.4245  0.2757 -1.3138
  236MOL0     H31824   8.503   4.417   7.298 -1.8301  4.1538  0.8622
  236MOL0     H31825   8.573   4.580   7.270 -1.8502  1.3677  2.5364
  236MOL0     H31826   8.803   4.490   7.256 -0.8405  0.0942  2.3903
  236MOL0     H31827   8.744   4.326   7.240  0.0402 -0.2807  1.9609
  236MOL0     H31828   8.693   4.550   7.042 -0.0151 -0.0607  0.3993
  236MOL0     H31829   8.788   4.403   7.026 -1.0782  0.6913 -1.4841
  236MOL0     H31830   8.498   4.428   7.059 -1.9069 -1.5106 -0.1278
  236MOL0     H31831   8.577   4.269   7.054 -1.2172  0.6101 -0.2859
  236MOL0     H31832   8.564   4.471   6.823  0.5278  0.9671  2.0999
  236MOL0     H31833   8.463   4.326   6.842  0.2816 -0.1249 -2.7993
  236MOL0     H31834   8.769   4.326   6.791  1.0064 -2.3828 -1.1854
  236MOL0     H31835   8.672   4.184   6.798  0.9555 -1.0832 -4.6351
  236MOL0     H31836   8.655   4.396   6.595 -1.2966  1.3766  2.0460
  236MOL0     H31837   8.516   4.288   6.624 -0.6663  5.1217  3.3748
  236MOL0     H31838   8.658   4.086   6.577  1.4048 -1.1588 -0.3192
  236MOL0     H31839   8.657   4.194   6.450  2.7390  0.7735 -0.8284
  236MOL0     H31840   8.598   4.726   7.554 -1.7444  0.6434  1.6224
  236MOL0     H31841   8.407   4.798   7.699  0.1132  1.2867 -1.1681
  236MOL0     H31842   8.000   5.035   7.600  1.1212  1.1870  2.0395
  236MOL0     H31843   7.808   5.130   7.689 -0.2560  0.1961  0.5053
  236MOL0     H31844   6.011   5.870   7.242  0.3423 -0.6668  0.6069
  236MOL0     H31845   5.802   5.924   7.167  0.6820  0.1144  0.5804
  236MOL0     H31846   5.538   6.067   6.764 -0.0510  0.3964 -2.0940
  236MOL0     H31847   5.345   6.089   6.630 -2.3748 -1.3005 -1.2285
  236MOL0     H31848   5.047   5.766   6.712 -1.0335 -1.1616 -3.1556
  236MOL0     H31849   4.965   5.853   6.590  2.2990 -0.2707 -2.3072
  236MOL0     H31850   5.009   6.073   6.717 -0.8288 -0.7474  0.1837
  236MOL0     H31851   5.102   5.974   6.846 -1.7084  0.5543  2.4174
  236MOL0     H31852   4.888   6.048   6.921 -0.0429 -0.2408  0.0675
  236MOL0     H31853   4.877   5.869   6.898 -1.5278 -0.5993 -0.9980
  236MOL0     H31854   4.800   6.051   6.675  2.6126  0.2639  1.2121
  236MOL0     H31855   4.731   5.894   6.711 -2.2494  0.7716  2.5908
  236MOL0     H31856   4.457   6.136   6.909 -0.4884 -1.9596  1.6848
  236MOL0     H31857   5.274   5.665   6.677  2.7793 -1.1137 -0.6907
  236MOL0     H31858   5.380   5.552   6.855 -0.3293 -0.1354 -1.1847
  236MOL0     H31859   5.482   5.541   6.718 -1.1189 -0.5174 -0.6192
  236MOL0     H31860   5.543   5.581   6.881 -1.2441  0.5804  0.1711
  237MOL0     O31861   0.109   3.394   2.354 -0.5506 -0.0841  0.2906
  237MOL0     C31862   0.002   3.445   2.368 -0.4311 -0.5534  0.0323
  237MOL0     O31863  -0.027   3.563   2.429 -0.2198 -0.5709  0.0812
  237MOL0     C31864   0.055   3.610   2.531  0.0148 -0.3288 -1.1108
  237MOL0     C31865   0.077   3.748   2.536  0.5074 -0.3696  0.4986
  237MOL0     C31866   0.126   3.803   2.655 -1.0074 -0.0370  0.5525
  237MOL0     C31867   0.168   3.723   2.761 -0.5048 -0.2990  0.2644
  237MOL0     O31868   0.236   3.769   2.871 -0.2337 -0.5173 -0.1455
  237MOL0     C31869   0.221   3.909   2.906 -0.2113  1.1951  0.7476
  237MOL0     C31870   0.278   3.934   3.049 -0.0203 -0.0827 -1.1252
  237MOL0     C31871   0.423   3.970   3.053 -0.8051 -0.2075 -0.3443
  237MOL0     C31872   0.524   3.860   3.011 -0.0175 -0.3864 -0.4207
  237MOL0     C31873   0.664   3.900   3.011 -0.8904  0.4219  0.7789
  237MOL0     C31874   0.721   3.918   3.154  1.1467 -0.1940  1.0394
  237MOL0     C31875   0.865   3.947   3.175 -0.0670  0.7922 -0.4055
  237MOL0     C31876   0.936   3.837   3.101  0.4112  0.2095 -0.3787
  237MOL0     N31877   1.073   3.823   3.145  0.2967  0.1623  0.0036
  237MOL0     C31878   1.167   3.915   3.140 -1.4595  0.0064 -0.5932
  237MOL0     C31879   1.285   3.850   3.169  0.5514 -0.0500 -0.3695
  237MOL0     C31880   1.418   3.904   3.172  0.5145 -0.9900  0.0752
  237MOL0     C31881   1.421   4.044   3.240  0.0602  0.0280 -0.3302
  237MOL0     C31882   1.561   4.090   3.277  0.4605  0.7393 -0.5867
  237MOL0     C31883   1.625   4.018   3.389 -0.0115  0.6280 -0.4897
  237MOL0     O31884   1.757   4.083   3.392 -0.1853  0.0309  0.6582
  237MOL0     C31885   1.865   4.004   3.441  0.1076 -0.6368 -0.1388
  237MOL0     C31886   1.998   4.053   3.424  0.1294 -0.2615 -0.8520
  237MOL0     C31887   2.106   3.977   3.458 -0.8226  0.1030 -0.1922
  237MOL0     C31888   2.093   3.858   3.525  1.3981  0.7185  0.7652
  237MOL0     C31889   2.206   3.777   3.571 -0.3373  0.5392  0.6705
  237MOL0     O31890   2.178   3.675   3.665 -0.2063  0.8058  0.0704
  237MOL0     C31891   2.286   3.615   3.735 -0.4541  0.3637 -0.1896
  237MOL0     C31892   2.274   3.482   3.783 -0.1397 -0.9848  0.7732
  237MOL0     C31893   2.376   3.421   3.859  0.4589 -0.0701  0.1554
  237MOL0     C31894   2.493   3.493   3.889 -0.6155 -0.1165  0.3161
  237MOL0     O31895   2.596   3.424   3.950 -0.3197 -0.7718 -0.8158
  237MOL0     C31896   2.642   3.479   4.075 -0.3169 -0.1194 -0.0162
  237MOL0     C31897   2.788   3.529   4.060  0.2718 -0.1353 -0.5161
  237MOL0     C31898   2.836   3.604   4.187  0.4878  0.1471  0.4111
  237MOL0     C31899   2.963   3.687   4.169 -0.5366  0.8104 -0.4355
  237MOL0     C31900   3.094   3.610   4.159  0.4523 -0.1103 -0.3091
  237MOL0     C31901   3.215   3.698   4.123 -0.0012  0.1009  0.3870
  237MOL0     C31902   3.345   3.617   4.119  0.0074 -0.7580 -0.1385
  237MOL0     C31903   3.465   3.688   4.171  0.2473 -0.2486 -0.4268
  237MOL0    Cl31904   3.498   3.830   4.087 -0.2836  0.0419  0.1368
  237MOL0     C31905   2.504   3.627   3.850 -0.7977 -0.1673 -0.3579
  237MOL0     C31906   2.400   3.688   3.783  0.2706 -0.5297  0.2859
  237MOL0     O31907   2.319   3.804   3.520  0.1845  0.2225 -0.6059
  237MOL0     C31908   1.961   3.812   3.539 -0.6309  0.3066 -0.7404
  237MOL0     C31909   1.848   3.878   3.495  0.3139  0.8046  0.7446
  237MOL0     N31910   1.252   3.718   3.192  0.0364  0.3528  0.7567
  237MOL0     N31911   1.125   3.702   3.188 -0.2944 -0.8422 -0.6995
  237MOL0     C31912   0.155   3.581   2.746  0.3761 -0.2804 -0.2761
  237MOL0     C31913   0.095   3.526   2.634 -0.0018 -0.0072  0.0962
  237MOL0     C31914  -0.114   3.385   2.297  0.4686  0.2831 -0.4535
  237MOL0     C31915  -0.229   3.461   2.258  0.7869 -0.0916  0.3756
  237MOL0     C31916  -0.331   3.398   2.179  0.4746 -0.1949  0.7681
  237MOL0     C31917  -0.332   3.261   2.157 -0.5904  0.7515  0.1537
  237MOL0     O31918  -0.427   3.198   2.081  0.2756  0.8359  0.4432
  237MOL0     C31919  -0.557   3.260   2.068  0.8058 -1.0938 -0.2293
  237MOL0     C31920  -0.664   3.169   2.006  0.8356 -0.0772  0.3283
  237MOL0     C31921  -0.648   3.166   1.853 -0.1011  0.6223  0.7629
  237MOL0     C31922  -0.739   3.062   1.779 -0.2305 -0.8478  0.4241
  237MOL0     C31923  -0.870   3.050   1.844  0.3046 -0.4812 -0.0745
  237MOL0     C31924  -0.976   3.031   1.889  0.6720 -0.0327 -1.4084
  237MOL0     C31925  -0.227   3.186   2.211 -0.0799 -0.0430  0.4309
  237MOL0     C31926  -0.114   3.242   2.283  0.6112 -0.5541  0.1245
  237MOL0     C31927  -0.019   3.139   2.338  0.1480  0.1028  0.0691
  237MOL0     H31928   0.046   3.798   2.445  1.2735 -2.8001 -1.2090
  237MOL0     H31929   0.138   3.910   2.660  1.0273 -0.0746 -1.5259
  237MOL0     H31930   0.276   3.961   2.828  0.2931 -1.0687 -0.4931
  237MOL0     H31931   0.116   3.939   2.903 -1.5274 -2.8297 -1.5431
  237MOL0     H31932   0.263   3.845   3.110 -1.4334  1.4679  0.9274
  237MOL0     H31933   0.224   4.019   3.092  0.6225  0.2244 -0.9169
  237MOL0     H31934   0.446   3.999   3.156  2.0210 -1.5621 -0.5202
  237MOL0     H31935   0.426   4.069   3.005 -0.3444  1.1489  2.2791
  237MOL0     H31936   0.504   3.770   3.069 -1.7098  0.2011 -0.0322
  237MOL0     H31937   0.505   3.827   2.908 -0.9443 -0.1887 -0.3243
  237MOL0     H31938   0.715   3.816   2.963  0.2725  0.8767  1.1864
  237MOL0     H31939   0.689   3.984   2.946 -0.7556 -2.7517 -3.7686
  237MOL0     H31940   0.667   4.008   3.186  0.0160 -0.9324  1.2509
  237MOL0     H31941   0.684   3.833   3.212  0.6518 -2.2886 -2.0948
  237MOL0     H31942   0.877   3.951   3.283  2.4998  0.5232 -0.6027
  237MOL0     H31943   0.904   4.045   3.145 -2.3846  2.6615  2.2252
  237MOL0     H31944   0.882   3.743   3.116  2.8634 -0.9522  1.8482
  237MOL0     H31945   0.927   3.859   2.994 -0.3385 -2.1533 -0.8535
  237MOL0     H31946   1.171   4.023   3.130  1.3374  0.1847  1.2776
  237MOL0     H31947   1.474   3.821   3.216 -0.4381 -2.4665 -1.3484
  237MOL0     H31948   1.450   3.927   3.069  0.6178 -0.4220  0.2320
  237MOL0     H31949   1.368   4.113   3.174  0.6195  0.8462  0.0622
  237MOL0     H31950   1.363   4.043   3.332 -2.4003  1.4163 -1.7686
  237MOL0     H31951   1.547   4.196   3.301 -0.1007  0.5039  0.1646
  237MOL0     H31952   1.615   4.079   3.183 -1.3262  2.1774 -1.8585
  237MOL0     H31953   1.628   3.915   3.354 -1.7333  0.9272 -1.6380
  237MOL0     H31954   1.573   4.027   3.485  2.6627 -0.9472  1.2536
  237MOL0     H31955   2.010   4.145   3.368  0.4779 -1.5958 -3.0703
  237MOL0     H31956   2.198   4.027   3.431 -1.3175  1.5295  0.6326
  237MOL0     H31957   2.177   3.439   3.761 -0.3339  0.7752 -2.3946
  237MOL0     H31958   2.367   3.321   3.901  3.5026 -0.2450  0.6276
  237MOL0     H31959   2.586   3.573   4.090 -0.4398  0.2570 -2.4296
  237MOL0     H31960   2.647   3.407   4.157  0.6135 -2.6669 -2.1811
  237MOL0     H31961   2.841   3.434   4.052 -2.4257 -2.0788  2.2903
  237MOL0     H31962   2.813   3.590   3.973  0.5331  0.8471  0.2319
  237MOL0     H31963   2.763   3.678   4.221 -2.1388 -0.7948 -2.7008
  237MOL0     H31964   2.855   3.537   4.272  0.9089 -0.7143 -0.3484
  237MOL0     H31965   2.970   3.755   4.254  2.4138  1.5137 -1.1410
  237MOL0     H31966   2.952   3.754   4.083  2.1629  1.8205 -0.0931
  237MOL0     H31967   3.100   3.538   4.076  0.5106 -1.5945  0.9313
  237MOL0     H31968   3.107   3.557   4.253 -3.2995 -0.8812 -0.0939
  237MOL0     H31969   3.196   3.752   4.030  0.9039 -1.5038 -0.7766
  237MOL0     H31970   3.225   3.773   4.202  0.2562  1.5871 -0.9963
  237MOL0     H31971   3.355   3.601   4.012 -0.8351 -0.5227 -0.2568
  237MOL0     H31972   3.332   3.519   4.167  1.9569 -0.0606  2.0746
  237MOL0     H31973   3.451   3.714   4.276  3.0418 -0.9552  0.1904
  237MOL0     H31974   3.553   3.625   4.157  0.6228  0.7151 -2.9486
  237MOL0     H31975   2.587   3.689   3.880 -1.1908  0.4714 -0.5769
  237MOL0     H31976   2.410   3.793   3.760 -3.1560  0.5108  2.6912
  237MOL0     H31977   1.951   3.718   3.592  1.9892 -0.3745 -1.3020
  237MOL0     H31978   1.754   3.824   3.507  1.1743 -0.8954  0.1774
  237MOL0     H31979   0.181   3.516   2.828  0.9771 -0.2688 -0.4521
  237MOL0     H31980   0.062   3.423   2.638 -1.2843  0.4147  1.0880
  237MOL0     H31981  -0.241   3.566   2.283 -1.7069 -0.5377  1.3824
  237MOL0     H31982  -0.406   3.462   2.134 -0.6507 -0.2674  2.4654
  237MOL0     H31983  -0.545   3.354   2.014 -0.5864  0.9593  2.7581
  237MOL0     H31984  -0.596   3.286   2.167 -1.0775 -2.9748 -0.3924
  237MOL0     H31985  -0.760   3.219   2.022  0.0211 -2.0906  2.3198
  237MOL0     H31986  -0.661   3.067   2.046  1.4419 -0.0722  0.3053
  237MOL0     H31987  -0.546   3.146   1.820 -1.0022 -1.9169 -0.7950
  237MOL0     H31988  -0.666   3.266   1.812 -1.7041  0.5203  1.1181
  237MOL0     H31989  -0.738   3.098   1.676  0.5852 -0.3096  0.6045
  237MOL0     H31990  -0.696   2.962   1.765 -2.6763 -2.1511  1.6905
  237MOL0     H31991  -1.064   3.011   1.948  1.7086  1.1150  0.6621
  237MOL0     H31992  -0.223   3.080   2.188 -0.5802  0.0172  0.0399
  237MOL0     H31993   0.076   3.140   2.283 -0.9943  3.2734 -2.1520
  237MOL0     H31994  -0.004   3.147   2.446  0.3671 -2.5485  0.2941
  237MOL0     H31995  -0.051   3.035   2.330  2.1838 -0.4859 -1.3176
  238MOL0     O31996   8.270   2.760  10.157 -0.2706 -0.0752 -0.8056
  238MOL0     C31997   8.205   2.671  10.100  1.4960 -0.3698 -0.4031
  238MOL0     O31998   8.251   2.572  10.026 -0.3330  0.4360 -0.2006
  238MOL0     C31999   8.370   2.599   9.960  0.4242  0.5576 -0.9745
  238MOL0     C32000   8.490   2.588  10.029 -0.5442 -0.3395 -0.7193
  238MOL0     C32001   8.613   2.603   9.964  0.2098 -0.6142 -0.1379
  238MOL0     C32002   8.618   2.632   9.824  0.7879 -0.7866 -0.6815
  238MOL0     O32003   8.737   2.658   9.763  0.4814  0.1846  0.4974
  238MOL0     C32004   8.740   2.660   9.621 -0.5880 -0.3760 -0.8216
  238MOL0     C32005   8.885   2.640   9.578  0.0187  0.8004  0.2251
  238MOL0     C32006   8.968   2.518   9.615 -1.1119 -0.3854  0.7766
  238MOL0     C32007   8.905   2.379   9.576  0.3683  0.1783 -0.8630
  238MOL0     C32008   9.020   2.278   9.564 -0.1737 -0.3229 -0.5665
  238MOL0     C32009   8.966   2.148   9.510  0.3397  0.9716  0.3216
  238MOL0     C32010   9.061   2.034   9.553 -0.2461 -0.6063  0.1735
  238MOL0     C32011   9.023   1.967   9.684 -0.1984 -0.0772  0.2939
  238MOL0     N32012   9.100   1.852   9.740  0.1677 -0.1557 -0.2145
  238MOL0     C32013   9.170   1.760   9.669 -0.5074 -0.0330 -0.0760
  238MOL0     C32014   9.202   1.664   9.754 -0.4752 -0.3369  0.0148
  238MOL0     C32015   9.259   1.535   9.704  0.4871  0.3647  0.1226
  238MOL0     C32016   9.170   1.469   9.596  0.2567  0.3131 -0.0451
  238MOL0     C32017   9.204   1.328   9.583 -0.2276  0.2634 -0.2485
  238MOL0     C32018   9.352   1.305   9.535 -0.0015  0.6314  0.1186
  238MOL0     O32019   9.391   1.393   9.427 -0.0017  0.4431  0.3590
  238MOL0     C32020   9.506   1.364   9.364 -0.3333 -0.1874  0.4290
  238MOL0     C32021   9.541   1.448   9.255  0.3644  0.4355  0.8094
  238MOL0     C32022   9.662   1.439   9.185 -0.0951 -0.1386 -0.0749
  238MOL0     C32023   9.758   1.344   9.222  1.0718  0.6153  0.0633
  238MOL0     C32024   9.881   1.320   9.147  0.7405  0.3542  0.3555
  238MOL0     O32025   9.875   1.318   9.005 -0.0658  0.3511 -0.3767
  238MOL0     C32026   9.987   1.267   8.945 -0.7149  0.5259 -0.1502
  238MOL0     C32027   9.995   1.132   8.907 -0.0287 -0.3402 -0.3239
  238MOL0     C32028  10.097   1.085   8.828 -0.3201  0.0681 -0.1009
  238MOL0     C32029  10.194   1.166   8.783 -0.9689 -0.6051 -0.0153
  238MOL0     O32030  10.296   1.109   8.711 -0.4484 -0.1016  0.3780
  238MOL0     C32031  10.425   1.177   8.728 -0.0507 -0.0756  0.0975
  238MOL0     C32032  10.538   1.110   8.644 -0.1601 -0.2997  0.0725
  238MOL0     C32033  10.655   1.207   8.642  0.1643 -0.3071  0.2366
  238MOL0     C32034  10.722   1.224   8.778  0.5044  0.2076  0.4091
  238MOL0     C32035  10.846   1.310   8.763  0.0572  0.4825  0.4900
  238MOL0     C32036  10.913   1.365   8.892 -0.2266  0.2728 -0.1522
  238MOL0     C32037  10.934   1.262   8.996  0.4320  0.2211 -1.3334
  238MOL0     C32038  11.002   1.329   9.116 -0.9122 -0.1655 -0.3192
  238MOL0    Cl32039  11.038   1.224   9.257 -0.2408 -0.1799 -0.5652
  238MOL0     C32040  10.200   1.297   8.833 -0.1577 -0.4632 -0.0451
  238MOL0     C32041  10.101   1.349   8.917 -0.0363 -0.0074  0.1271
  238MOL0     O32042   9.983   1.292   9.210 -0.2650  0.3823 -0.4164
  238MOL0     C32043   9.734   1.269   9.340  0.1528  0.3631  0.3001
  238MOL0     C32044   9.612   1.274   9.407 -0.0144  0.3414  0.1681
  238MOL0     N32045   9.177   1.709   9.882 -0.4373 -0.0669 -0.8112
  238MOL0     N32046   9.107   1.819   9.870  0.5331  0.4348  0.0406
  238MOL0     C32047   8.496   2.636   9.758 -0.4781  0.1699  0.0110
  238MOL0     C32048   8.372   2.621   9.824  0.0083  0.2409  0.4956
  238MOL0     C32049   8.057   2.653  10.131  0.2586  0.0163  0.7334
  238MOL0     C32050   8.004   2.521  10.149 -0.5693  0.6868 -0.0093
  238MOL0     C32051   7.880   2.506  10.186  0.4169  0.0538 -0.2880
  238MOL0     C32052   7.792   2.602  10.210  0.9831 -0.2295  0.2228
  238MOL0     O32053   7.659   2.577  10.238  0.2546 -0.8586  0.3486
  238MOL0     C32054   7.584   2.457  10.230  0.5927 -0.2466 -0.4920
  238MOL0     C32055   7.439   2.473  10.185 -0.9516 -0.5753 -0.0280
  238MOL0     C32056   7.435   2.540  10.047 -0.2064 -0.1113  0.0382
  238MOL0     C32057   7.295   2.578  10.010  0.5054 -0.6004  0.1348
  238MOL0     C32058   7.184   2.513  10.088  0.5910 -0.1283  0.8843
  238MOL0     C32059   7.106   2.465  10.164 -0.4431  0.0067  0.2445
  238MOL0     C32060   7.835   2.730  10.190 -0.7601 -0.1243 -0.5637
  238MOL0     C32061   7.969   2.759  10.153 -0.4734 -0.5795 -0.4181
  238MOL0     C32062   8.001   2.904  10.128 -0.4285 -0.8248  0.8519
  238MOL0     H32063   8.500   2.552  10.131 -0.4486 -0.3630 -0.7368
  238MOL0     H32064   8.703   2.613  10.026 -0.8008  0.9788  1.1712
  238MOL0     H32065   8.684   2.576   9.579  0.5260 -0.9685 -1.1568
  238MOL0     H32066   8.704   2.749   9.569  0.0827 -1.3954 -3.1713
  238MOL0     H32067   8.948   2.725   9.605  0.3793  1.0959 -1.4049
  238MOL0     H32068   8.885   2.655   9.469 -1.6252  0.0693  0.1095
  238MOL0     H32069   8.988   2.514   9.723 -2.9275 -0.1266  1.1460
  238MOL0     H32070   9.059   2.535   9.556 -0.9449  1.1293  1.4385
  238MOL0     H32071   8.830   2.344   9.648  0.2603  1.5199 -0.2933
  238MOL0     H32072   8.851   2.374   9.482 -0.1089  0.8446 -0.6315
  238MOL0     H32073   9.092   2.313   9.490 -0.1266 -0.3670 -0.5425
  238MOL0     H32074   9.063   2.270   9.665 -0.3397 -2.7032 -0.6373
  238MOL0     H32075   8.867   2.126   9.551  0.5690  0.2606  0.5233
  238MOL0     H32076   8.961   2.158   9.402  0.9238  2.2605  0.4080
  238MOL0     H32077   9.162   2.071   9.572 -0.3729 -1.1954  2.2482
  238MOL0     H32078   9.063   1.959   9.474 -0.8481 -1.2237  0.7311
  238MOL0     H32079   9.035   2.055   9.749 -2.8089  1.9883 -1.7804
  238MOL0     H32080   8.915   1.948   9.682 -1.2418  4.5799  0.7181
  238MOL0     H32081   9.175   1.746   9.561  0.5212 -1.1196  0.0975
  238MOL0     H32082   9.359   1.560   9.667 -0.4458  1.3447 -1.9095
  238MOL0     H32083   9.268   1.468   9.790  0.3669  0.2860  0.0735
  238MOL0     H32084   9.067   1.488   9.628  0.1669  2.3898 -1.3602
  238MOL0     H32085   9.194   1.522   9.504 -1.8666  0.0717 -0.7923
  238MOL0     H32086   9.134   1.276   9.516 -1.7104 -2.5009  3.1049
  238MOL0     H32087   9.183   1.271   9.674  0.0492  1.1585  0.3811
  238MOL0     H32088   9.368   1.202   9.502  2.9735  0.3812  1.9898
  238MOL0     H32089   9.414   1.317   9.624 -0.9623 -0.0011  0.9017
  238MOL0     H32090   9.470   1.522   9.220 -0.9977 -0.7683  0.9337
  238MOL0     H32091   9.682   1.514   9.109 -1.1574  1.9165  1.5561
  238MOL0     H32092   9.917   1.060   8.928 -0.7343  0.8815  1.4665
  238MOL0     H32093  10.084   0.981   8.800 -2.9255  0.1510  0.4787
  238MOL0     H32094  10.411   1.279   8.689 -3.5587 -1.1620 -1.9309
  238MOL0     H32095  10.457   1.179   8.832  0.8231  0.4369 -0.1709
  238MOL0     H32096  10.576   1.014   8.679  0.9049  0.6987  1.8163
  238MOL0     H32097  10.495   1.101   8.544  1.2682  0.4067 -0.6246
  238MOL0     H32098  10.730   1.173   8.569  0.3711  2.0089 -0.7126
  238MOL0     H32099  10.620   1.306   8.613  0.0386 -0.2141  0.6916
  238MOL0     H32100  10.738   1.123   8.818  0.5841 -0.8598 -2.1214
  238MOL0     H32101  10.657   1.286   8.839 -0.8362  1.2508 -1.9387
  238MOL0     H32102  10.829   1.390   8.690  1.2391  1.7638  1.5552
  238MOL0     H32103  10.922   1.248   8.716 -1.1060 -0.1135 -0.6608
  238MOL0     H32104  11.015   1.388   8.862  0.0235 -1.2952 -0.5926
  238MOL0     H32105  10.851   1.446   8.931 -1.6935 -1.6563  1.7376
  238MOL0     H32106  11.004   1.186   8.961  2.0618  0.8874  0.3444
  238MOL0     H32107  10.841   1.213   9.027  1.0794 -0.1995  0.0290
  238MOL0     H32108  11.098   1.369   9.081 -0.2680 -2.4952 -1.3812
  238MOL0     H32109  10.945   1.415   9.151 -0.7486 -0.2179  0.0807
  238MOL0     H32110  10.262   1.378   8.797 -2.3444  0.0944 -2.9477
  238MOL0     H32111  10.095   1.452   8.949  3.8700  0.5958 -0.4815
  238MOL0     H32112   9.814   1.203   9.374  0.2697 -1.7149 -3.5089
  238MOL0     H32113   9.606   1.205   9.491  1.3958 -0.1498 -0.0939
  238MOL0     H32114   8.493   2.663   9.653  0.0797 -0.3753 -0.1505
  238MOL0     H32115   8.282   2.635   9.766  0.1972  3.9052  0.8852
  238MOL0     H32116   8.062   2.429  10.145  1.4531  1.9394 -0.9138
  238MOL0     H32117   7.848   2.406  10.213  1.7635 -0.1817  0.5103
  238MOL0     H32118   7.573   2.423  10.334 -0.3434 -1.2933 -0.9036
  238MOL0     H32119   7.631   2.385  10.163 -0.4059  0.8698 -2.4815
  238MOL0     H32120   7.385   2.533  10.259 -0.8994 -2.7572  1.8964
  238MOL0     H32121   7.386   2.378  10.194  1.9573 -2.1562  2.2359
  238MOL0     H32122   7.484   2.482   9.969  2.9484  1.3163  0.8078
  238MOL0     H32123   7.492   2.634  10.046 -2.2066  1.3497  3.5497
  238MOL0     H32124   7.285   2.686  10.020  0.3913 -0.7819  2.7939
  238MOL0     H32125   7.273   2.559   9.905  1.9366 -2.9941  0.1845
  238MOL0     H32126   7.042   2.432  10.244  1.3071  0.2035  1.7808
  238MOL0     H32127   7.773   2.819  10.199  0.9004  1.1394 -1.0199
  238MOL0     H32128   8.051   2.905  10.031 -2.2517 -2.0456 -0.1787
  238MOL0     H32129   7.911   2.965  10.117 -0.3193 -0.1776  3.1132
  238MOL0     H32130   8.053   2.940  10.217  0.9256 -1.3616  0.3058
  239MOL0     O32131   2.773   7.316   1.157 -0.3996 -0.1752  0.3206
  239MOL0     C32132   2.767   7.394   1.257 -0.3403  0.1284  0.0889
  239MOL0     O32133   2.865   7.475   1.302 -0.1940  0.5336  0.3972
  239MOL0     C32134   2.957   7.540   1.217  0.0922  0.4868  0.4294
  239MOL0     C32135   2.958   7.544   1.075  0.9874  0.0572  0.0548
  239MOL0     C32136   3.058   7.616   1.003  0.2430 -0.4062 -0.4409
  239MOL0     C32137   3.163   7.674   1.075  0.2360 -0.3587 -0.0287
  239MOL0     O32138   3.263   7.747   1.028 -0.7776  0.1039  0.5363
  239MOL0     C32139   3.300   7.723   0.896 -1.0587 -0.2391  0.7245
  239MOL0     C32140   3.431   7.797   0.855  0.0266 -0.7003 -0.6573
  239MOL0     C32141   3.547   7.757   0.945  0.0217  0.4582 -0.1447
  239MOL0     C32142   3.673   7.844   0.923  0.1580  0.7185  0.1890
  239MOL0     C32143   3.776   7.813   1.036  0.2984 -0.3611 -0.4625
  239MOL0     C32144   3.908   7.894   1.007  0.1723  0.7170 -0.0923
  239MOL0     C32145   4.010   7.861   1.116  0.5109 -0.8416  0.5665
  239MOL0     C32146   4.140   7.935   1.099  0.4801 -0.7755  0.0957
  239MOL0     N32147   4.223   7.938   1.220 -0.4219  0.0503  0.5213
  239MOL0     C32148   4.326   8.031   1.232 -1.0712 -0.0689 -0.1396
  239MOL0     C32149   4.375   8.015   1.356  0.7249 -0.3694  0.7693
  239MOL0     C32150   4.512   8.058   1.395 -0.0822 -0.0922 -0.5099
  239MOL0     C32151   4.494   8.192   1.461 -0.0112 -0.5400  0.0124
  239MOL0     C32152   4.603   8.225   1.556 -0.0987 -0.1315  0.3251
  239MOL0     C32153   4.569   8.352   1.625  0.2282 -0.3814 -0.3021
  239MOL0     O32154   4.590   8.463   1.532 -0.2110 -0.1360 -0.2349
  239MOL0     C32155   4.720   8.511   1.518  1.3883  0.1920 -0.0707
  239MOL0     C32156   4.830   8.475   1.592  0.3843 -1.2769  0.0260
  239MOL0     C32157   4.961   8.520   1.558  0.0465 -0.3681  0.2366
  239MOL0     C32158   4.986   8.613   1.457 -0.0873 -0.0183 -0.2630
  239MOL0     C32159   5.118   8.666   1.424 -0.9058 -0.8531  0.2682
  239MOL0     O32160   5.203   8.689   1.529  0.7157  0.5987  0.1829
  239MOL0     C32161   5.335   8.711   1.507  0.7860 -0.2168 -0.6212
  239MOL0     C32162   5.399   8.783   1.601 -0.5881 -0.5230  0.0904
  239MOL0     C32163   5.535   8.818   1.597 -0.8971  0.7292  0.3533
  239MOL0     C32164   5.616   8.758   1.494 -0.5762  0.7719  0.1712
  239MOL0     O32165   5.752   8.757   1.478 -0.4382  0.2538  0.6983
  239MOL0     C32166   5.823   8.812   1.587 -0.2446  0.2593  0.3217
  239MOL0     C32167   5.973   8.847   1.556  0.6664  0.0142  0.0710
  239MOL0     C32168   6.030   8.926   1.668  0.1916 -0.6385 -0.4393
  239MOL0     C32169   6.185   8.923   1.666 -0.5126 -0.0440 -0.3285
  239MOL0     C32170   6.255   8.986   1.792  0.7993  0.7111  1.0195
  239MOL0     C32171   6.406   8.982   1.791  0.9987 -0.1839 -0.2308
  239MOL0     C32172   6.465   9.078   1.685 -0.2826  0.0806 -0.7742
  239MOL0     C32173   6.616   9.071   1.664  0.5806 -0.6816 -0.1997
  239MOL0    Cl32174   6.722   9.083   1.813  0.4162 -0.1544 -0.3808
  239MOL0     C32175   5.555   8.674   1.411  0.2396  0.1149  0.4882
  239MOL0     C32176   5.417   8.658   1.405 -0.2589  0.1886  0.4682
  239MOL0     O32177   5.150   8.676   1.305 -0.1770  0.4033 -0.0158
  239MOL0     C32178   4.874   8.658   1.391 -0.5679  0.3797  0.8353
  239MOL0     C32179   4.747   8.609   1.415  1.0217  0.3662  0.3869
  239MOL0     N32180   4.324   7.896   1.411 -0.3200  0.9185  0.8738
  239MOL0     N32181   4.235   7.852   1.326  0.2387 -0.2182  0.8252
  239MOL0     C32182   3.157   7.672   1.217 -0.9602  0.7746 -0.6351
  239MOL0     C32183   3.055   7.611   1.283 -0.4985 -1.5843  0.5449
  239MOL0     C32184   2.656   7.366   1.356  0.4855 -0.5011  0.6607
  239MOL0     C32185   2.678   7.395   1.492  0.5338  0.8556 -0.7907
  239MOL0     C32186   2.581   7.386   1.587 -0.6388 -0.0878 -0.7906
  239MOL0     C32187   2.456   7.338   1.557  0.2831  0.6314  0.4418
  239MOL0     O32188   2.365   7.320   1.655  0.6913  0.8018 -0.0242
  239MOL0     C32189   2.368   7.193   1.720  0.4189 -0.6579  1.1877
  239MOL0     C32190   2.283   7.187   1.848 -0.5293 -0.6470  0.1854
  239MOL0     C32191   2.132   7.190   1.810  0.5282  0.3519  0.1902
  239MOL0     C32192   2.046   7.182   1.937  1.1197  0.2644 -0.2771
  239MOL0     C32193   2.092   7.077   2.021  0.0194  0.2410  0.1671
  239MOL0     C32194   2.122   6.982   2.084 -0.2900 -0.0315 -0.4003
  239MOL0     C32195   2.430   7.303   1.423 -0.8446  0.4092  0.3559
  239MOL0     C32196   2.531   7.303   1.327 -0.0549 -0.2491 -0.0868
  239MOL0     C32197   2.493   7.278   1.180  0.1699 -0.0464  0.3913
  239MOL0     H32198   2.880   7.490   1.022  0.2778  1.7629 -0.7061
  239MOL0     H32199   3.045   7.615   0.895  0.0888 -2.9173 -0.4452
  239MOL0     H32200   3.326   7.616   0.892  0.0942  0.0697 -0.9105
  239MOL0     H32201   3.222   7.752   0.825 -0.1330 -2.4379 -1.3800
  239MOL0     H32202   3.414   7.903   0.875 -1.4841 -1.1342  0.5190
  239MOL0     H32203   3.460   7.781   0.751 -0.4928 -2.0426 -0.6228
  239MOL0     H32204   3.573   7.652   0.925 -1.9796 -0.0874 -0.1100
  239MOL0     H32205   3.517   7.767   1.050  1.1339  2.1433  0.0438
  239MOL0     H32206   3.709   7.820   0.822 -0.6978 -0.5169  0.1520
  239MOL0     H32207   3.644   7.949   0.929  2.3775  1.5062 -1.5980
  239MOL0     H32208   3.729   7.839   1.131  0.4481  1.3512 -0.8324
  239MOL0     H32209   3.813   7.710   1.034  2.1000  0.2164  0.6766
  239MOL0     H32210   3.950   7.870   0.908  0.7023 -3.2177  0.9016
  239MOL0     H32211   3.873   7.997   1.010 -0.3122  0.6946 -2.6791
  239MOL0     H32212   4.020   7.752   1.117  0.3617 -0.8653 -0.1403
  239MOL0     H32213   3.965   7.875   1.215  1.8311 -1.0045  1.2006
  239MOL0     H32214   4.198   7.884   1.021  1.2339 -2.6963  1.8057
  239MOL0     H32215   4.118   8.042   1.091  0.8087 -0.5869  1.4595
  239MOL0     H32216   4.368   8.099   1.158  2.1402 -2.0675 -0.3081
  239MOL0     H32217   4.546   7.983   1.467 -1.1305  0.8742  1.0526
  239MOL0     H32218   4.574   8.062   1.304  1.2040 -2.5122  0.1766
  239MOL0     H32219   4.474   8.270   1.387 -1.0444 -0.8796 -0.0750
  239MOL0     H32220   4.407   8.202   1.526  0.5112 -2.2352  1.0305
  239MOL0     H32221   4.698   8.224   1.502  0.6602 -2.5489  1.5396
  239MOL0     H32222   4.602   8.145   1.631 -1.8544 -2.0242 -1.5859
  239MOL0     H32223   4.634   8.374   1.710  1.1273  2.7121 -1.6303
  239MOL0     H32224   4.463   8.349   1.653  0.5970 -0.9012  1.1288
  239MOL0     H32225   4.815   8.402   1.671 -1.1210 -1.0975 -0.0514
  239MOL0     H32226   5.045   8.486   1.617  0.4330 -2.5837 -1.4752
  239MOL0     H32227   5.343   8.814   1.689 -0.6521  2.6851 -0.9535
  239MOL0     H32228   5.577   8.873   1.680 -4.6475  0.4288  2.6796
  239MOL0     H32229   5.773   8.902   1.623  0.3076  0.0245  1.7326
  239MOL0     H32230   5.827   8.732   1.662 -0.5054  0.1452  0.2146
  239MOL0     H32231   6.037   8.759   1.552  0.9382  0.1319  1.5517
  239MOL0     H32232   5.978   8.896   1.458  2.1834 -2.0092 -0.9295
  239MOL0     H32233   5.988   9.027   1.673 -1.1486 -1.1964  4.6260
  239MOL0     H32234   5.988   8.887   1.761  0.5090 -0.2972 -0.1505
  239MOL0     H32235   6.209   8.964   1.568 -2.6545  1.6898 -0.2066
  239MOL0     H32236   6.213   8.817   1.674  1.1285  0.4378  0.7911
  239MOL0     H32237   6.231   8.930   1.882  0.1376 -0.9638 -0.1429
  239MOL0     H32238   6.219   9.089   1.798  0.7645  0.7844 -0.1574
  239MOL0     H32239   6.445   8.997   1.892  2.0711 -2.5362 -0.2447
  239MOL0     H32240   6.433   8.878   1.769 -0.7969 -1.3577  2.6212
  239MOL0     H32241   6.441   9.179   1.721 -3.3494 -0.3849 -1.2670
  239MOL0     H32242   6.411   9.062   1.592 -0.4621 -1.6192 -0.4045
  239MOL0     H32243   6.640   8.982   1.605 -2.1316 -2.0722  0.6070
  239MOL0     H32244   6.652   9.156   1.605 -1.2094 -0.8573 -1.6637
  239MOL0     H32245   5.609   8.622   1.333 -2.1739  1.6422 -2.4184
  239MOL0     H32246   5.366   8.598   1.330  1.3732  2.0797 -2.3439
  239MOL0     H32247   4.881   8.736   1.317  2.0149  0.8125  1.4586
  239MOL0     H32248   4.657   8.640   1.362 -1.6045 -1.8574  3.1485
  239MOL0     H32249   3.246   7.718   1.260  0.7023 -0.4972 -2.5137
  239MOL0     H32250   3.064   7.612   1.391 -1.3572 -0.0920  0.6229
  239MOL0     H32251   2.776   7.427   1.525 -0.6477  2.3168  1.5816
  239MOL0     H32252   2.603   7.419   1.688  0.5777  2.4715 -1.8051
  239MOL0     H32253   2.472   7.184   1.752  1.8419  6.0321 -0.0647
  239MOL0     H32254   2.347   7.114   1.647  1.3898 -0.6217  0.8543
  239MOL0     H32255   2.304   7.267   1.919  3.0312 -0.9250 -0.3344
  239MOL0     H32256   2.314   7.088   1.883  1.0036 -1.5096 -3.1736
  239MOL0     H32257   2.114   7.105   1.743 -1.0561 -0.6033  1.7531
  239MOL0     H32258   2.106   7.282   1.758 -0.8123 -0.0494  0.0915
  239MOL0     H32259   2.030   7.265   2.006 -1.6392 -0.7787  0.4811
  239MOL0     H32260   1.948   7.164   1.892  1.6585 -0.8697 -1.0567
  239MOL0     H32261   2.141   6.895   2.143  1.3876 -0.8907 -2.0962
  239MOL0     H32262   2.334   7.259   1.399 -1.0814 -1.1407  3.6319
  239MOL0     H32263   2.388   7.250   1.179 -0.3849  1.8206  1.4023
  239MOL0     H32264   2.502   7.373   1.128  1.8936  1.6089  3.3848
  239MOL0     H32265   2.562   7.202   1.140  0.8381  0.6358  0.2219
  240MOL0     O32266   8.057   9.428   5.807 -0.3516 -0.1201  0.3496
  240MOL0     C32267   8.058   9.439   5.688  0.6844 -0.5580 -0.3641
  240MOL0     O32268   8.178   9.458   5.611 -0.4689  0.0319 -0.5730
  240MOL0     C32269   8.295   9.458   5.683 -0.6963 -0.1145  0.0137
  240MOL0     C32270   8.359   9.581   5.694  0.4859  0.1382 -0.6266
  240MOL0     C32271   8.484   9.585   5.757  0.1327  0.5586 -0.5910
  240MOL0     C32272   8.554   9.468   5.800 -0.6517 -0.8031  0.1527
  240MOL0     O32273   8.670   9.475   5.858 -0.6128  0.1035  0.3139
  240MOL0     C32274   8.669   9.496   6.001 -0.2047 -0.0066 -0.4797
  240MOL0     C32275   8.807   9.469   6.059 -0.2195  0.0397  0.0389
  240MOL0     C32276   8.888   9.592   6.015 -0.1825 -0.4450 -0.1748
  240MOL0     C32277   9.029   9.584   6.070 -0.3160 -0.0929 -0.1244
  240MOL0     C32278   9.138   9.683   6.044  0.0032 -0.3729  0.4308
  240MOL0     C32279   9.160   9.706   5.895  0.0960  0.4795  0.0079
  240MOL0     C32280   9.295   9.774   5.867 -0.1272  0.1984  0.0912
  240MOL0     C32281   9.314   9.794   5.726 -1.4937  0.6762  0.8845
  240MOL0     N32282   9.446   9.857   5.696  0.2843  0.3023 -0.4497
  240MOL0     C32283   9.547   9.793   5.624  0.0004  0.6507  1.0176
  240MOL0     C32284   9.639   9.889   5.585  0.9097  0.6865  0.4513
  240MOL0     C32285   9.768   9.853   5.516 -0.3393  0.0437  0.3072
  240MOL0     C32286   9.889   9.927   5.572 -0.1275  0.5792 -0.6562
  240MOL0     C32287  10.023   9.881   5.520 -0.5737  0.0187  0.2908
  240MOL0     C32288  10.132   9.993   5.530  0.8621  0.8474 -0.5974
  240MOL0     O32289  10.248   9.939   5.464  0.0003  0.2996  0.1163
  240MOL0     C32290  10.373   9.971   5.505 -0.0310 -0.5521 -0.1521
  240MOL0     C32291  10.456   9.877   5.569  0.3538  0.1071 -0.0663
  240MOL0     C32292  10.593   9.915   5.602 -0.0306  0.2332 -0.2628
  240MOL0     C32293  10.639  10.045   5.593 -0.7182  0.3637  0.5442
  240MOL0     C32294  10.778  10.083   5.626 -0.1350  0.1209 -0.0181
  240MOL0     O32295  10.864   9.986   5.652 -0.8317  0.5714  0.5598
  240MOL0     C32296  10.990  10.024   5.698 -0.2558 -1.0315  0.6411
  240MOL0     C32297  11.103   9.994   5.624 -0.7600  1.5301  0.8106
  240MOL0     C32298  11.233  10.013   5.673  0.4185 -0.1047 -0.7060
  240MOL0     C32299  11.250  10.081   5.796  0.1103 -0.3206  0.5092
  240MOL0     O32300  11.375  10.115   5.837 -0.1055  1.1024  0.0616
  240MOL0     C32301  11.397  10.231   5.919 -0.0291  0.3524  0.1859
  240MOL0     C32302  11.557  10.255   5.933  1.1350 -0.5181  0.0172
  240MOL0     C32303  11.637  10.135   5.995  0.4724  1.1414  0.1724
  240MOL0     C32304  11.646  10.001   5.904  1.0965 -0.1460  0.0939
  240MOL0     C32305  11.775   9.921   5.925  0.7846 -0.0185 -0.0309
  240MOL0     C32306  11.796   9.881   6.072 -0.0743  0.2302 -0.1677
  240MOL0     C32307  11.913   9.779   6.080  0.0445  0.7607 -0.2983
  240MOL0     C32308  11.939   9.747   6.234 -0.8126 -0.4905  1.0843
  240MOL0    Cl32309  11.795   9.678   6.297 -0.3254 -0.2629 -0.3475
  240MOL0     C32310  11.142  10.135   5.859 -0.6465  0.4005 -0.1404
  240MOL0     C32311  11.014  10.098   5.820  0.4133  0.3211 -0.3568
  240MOL0     O32312  10.810  10.199   5.624  0.3343  0.0474  0.9168
  240MOL0     C32313  10.552  10.144   5.540  0.5581  0.9831  0.4242
  240MOL0     C32314  10.425  10.100   5.498  0.4348 -1.3322 -0.1968
  240MOL0     N32315   9.586  10.003   5.638 -0.1230  0.2715  0.0975
  240MOL0     N32316   9.481   9.990   5.711  0.1493 -0.2813 -0.1565
  240MOL0     C32317   8.483   9.353   5.789  0.1020  1.0021 -1.0808
  240MOL0     C32318   8.353   9.342   5.737 -0.1411  0.6056  0.6789
  240MOL0     C32319   7.931   9.442   5.614  0.1897  1.0879 -0.6947
  240MOL0     C32320   7.946   9.475   5.477  0.1598  0.8912  0.3944
  240MOL0     C32321   7.839   9.477   5.388  0.2824 -0.1290 -0.1689
  240MOL0     C32322   7.711   9.439   5.433  0.4688 -0.6127  0.2472
  240MOL0     O32323   7.594   9.436   5.356 -0.0692 -0.0061 -0.0628
  240MOL0     C32324   7.590   9.503   5.229 -0.0656 -0.4665  0.2078
  240MOL0     C32325   7.602   9.656   5.251  0.7643 -0.5424  0.5046
  240MOL0     C32326   7.623   9.729   5.111  0.6374 -0.4649  0.1466
  240MOL0     C32327   7.775   9.727   5.090 -0.3557 -0.6307  0.2005
  240MOL0     C32328   7.830   9.782   4.965 -0.8695 -0.6512  0.8391
  240MOL0     C32329   7.841   9.836   4.854 -0.1089 -0.3461 -0.6469
  240MOL0     C32330   7.698   9.393   5.567  0.7520  0.0512  0.3478
  240MOL0     C32331   7.800   9.394   5.666  0.4771  0.6575  0.9573
  240MOL0     C32332   7.765   9.325   5.791 -0.0543  0.9421  0.0112
  240MOL0     H32333   8.306   9.662   5.645  0.8658 -0.1703 -1.5530
  240MOL0     H32334   8.532   9.683   5.759  2.0108 -0.3147  1.2799
  240MOL0     H32335   8.642   9.600   6.018 -0.5726 -0.4057  1.6205
  240MOL0     H32336   8.589   9.434   6.042  0.0694  0.4365  0.7647
  240MOL0     H32337   8.859   9.380   6.024 -0.8353 -0.3480  0.1091
  240MOL0     H32338   8.800   9.460   6.168 -0.6251  2.0390  0.2206
  240MOL0     H32339   8.830   9.673   6.062 -0.2397  1.8121 -3.7138
  240MOL0     H32340   8.884   9.601   5.906 -0.5551  1.1446 -0.0556
  240MOL0     H32341   9.025   9.580   6.179  1.1103  2.0591  0.0563
  240MOL0     H32342   9.070   9.489   6.035 -2.3571 -1.2823  0.5242
  240MOL0     H32343   9.103   9.777   6.088 -2.1993  0.2874 -2.4507
  240MOL0     H32344   9.230   9.656   6.097 -0.1550  2.6537  2.5058
  240MOL0     H32345   9.185   9.607   5.856  2.9900  1.3679 -0.6267
  240MOL0     H32346   9.075   9.756   5.848 -0.1428 -0.5881 -0.7304
  240MOL0     H32347   9.378   9.711   5.901  0.9715  1.4975 -0.0800
  240MOL0     H32348   9.290   9.873   5.913 -1.9035  1.6695 -3.0026
  240MOL0     H32349   9.305   9.697   5.678  0.2427  0.9438 -0.0518
  240MOL0     H32350   9.247   9.871   5.686 -0.5667  1.4411  0.7542
  240MOL0     H32351   9.567   9.689   5.600 -1.2913  0.4128  0.9025
  240MOL0     H32352   9.781   9.750   5.549 -1.5078 -0.4392 -0.6542
  240MOL0     H32353   9.761   9.843   5.408 -2.2011  1.6057  0.2240
  240MOL0     H32354   9.869  10.033   5.555 -3.2790  0.1035 -0.6566
  240MOL0     H32355   9.889   9.915   5.680  0.0933 -0.6805 -0.7775
  240MOL0     H32356  10.016   9.843   5.417 -0.7248  0.9039 -0.0356
  240MOL0     H32357  10.062   9.801   5.584  0.2505  1.0736  1.1396
  240MOL0     H32358  10.149  10.021   5.635 -0.3351  1.2184 -0.4901
  240MOL0     H32359  10.107  10.086   5.477  2.5127  1.5817 -0.1767
  240MOL0     H32360  10.417   9.780   5.594 -2.5531  1.9269  3.2101
  240MOL0     H32361  10.658   9.839   5.645 -2.0879 -0.3017  2.1887
  240MOL0     H32362  11.081   9.934   5.536 -2.3512  2.4385  0.5543
  240MOL0     H32363  11.320   9.975   5.620 -0.2195  0.2513 -2.0397
  240MOL0     H32364  11.337  10.319   5.894 -0.6156  0.4029  1.6220
  240MOL0     H32365  11.364  10.206   6.021  1.8992  4.7441  2.1935
  240MOL0     H32366  11.610  10.268   5.839 -1.1037  1.7949 -1.0600
  240MOL0     H32367  11.565  10.348   5.990 -0.0810  2.4403 -4.2049
  240MOL0     H32368  11.732  10.174   6.034  0.0266  1.2389  1.1902
  240MOL0     H32369  11.597  10.106   6.092  3.9358 -0.0950  1.3913
  240MOL0     H32370  11.637  10.027   5.798 -1.3037  0.3992  0.3733
  240MOL0     H32371  11.559   9.937   5.920  0.1957  0.9639 -0.2435
  240MOL0     H32372  11.854   9.990   5.897 -0.2806  0.8781 -0.9125
  240MOL0     H32373  11.771   9.832   5.861 -1.3295  0.8704 -1.2246
  240MOL0     H32374  11.814   9.968   6.136  4.1506 -2.1433  2.3237
  240MOL0     H32375  11.701   9.834   6.099 -0.3832  1.0931  0.2838
  240MOL0     H32376  12.006   9.819   6.040  0.2026 -0.9077 -1.7116
  240MOL0     H32377  11.885   9.688   6.027 -0.7846  0.4076  0.7034
  240MOL0     H32378  12.028   9.685   6.253  1.1938  2.0060  0.3412
  240MOL0     H32379  11.957   9.843   6.283  0.4270  1.4493 -2.7929
  240MOL0     H32380  11.152  10.188   5.953  0.7132 -1.6924  0.9614
  240MOL0     H32381  10.927  10.120   5.881  0.7477  0.4310  0.0859
  240MOL0     H32382  10.590  10.244   5.522  1.7459  0.3236 -0.9770
  240MOL0     H32383  10.354  10.171   5.458 -0.0782 -1.9999 -0.4937
  240MOL0     H32384   8.518   9.264   5.841  1.6706  0.6010 -2.7124
  240MOL0     H32385   8.289   9.255   5.745  3.0001 -2.1532 -1.4974
  240MOL0     H32386   8.038   9.513   5.432  1.2506  0.9254  2.5150
  240MOL0     H32387   7.848   9.496   5.282 -2.4046 -2.7359 -1.0265
  240MOL0     H32388   7.498   9.488   5.172 -0.4466  0.8486  0.4457
  240MOL0     H32389   7.668   9.465   5.163  1.8295  1.0962  1.4501
  240MOL0     H32390   7.690   9.678   5.311  1.1655 -3.2916  1.0703
  240MOL0     H32391   7.506   9.673   5.300 -0.5670 -0.5192 -1.9035
  240MOL0     H32392   7.581   9.830   5.122  1.2515 -0.3683  1.7343
  240MOL0     H32393   7.573   9.682   5.026  1.0765  1.1500 -1.0612
  240MOL0     H32394   7.822   9.778   5.175  2.3430  1.6157 -2.4263
  240MOL0     H32395   7.810   9.623   5.085  1.8595  0.0381  0.6393
  240MOL0     H32396   7.863   9.871   4.755  0.7666 -0.1514 -0.3870
  240MOL0     H32397   7.600   9.350   5.584  0.0908 -0.9913 -4.6182
  240MOL0     H32398   7.658   9.304   5.799 -0.5278  3.2066  0.4177
  240MOL0     H32399   7.825   9.236   5.810  0.8454  1.5390  0.0332
  240MOL0     H32400   7.788   9.390   5.876  1.8563 -1.2774  1.2924
  241MOL0     O32401   9.841   6.215  11.030 -0.4101  0.3559 -0.2477
  241MOL0     C32402   9.776   6.252  11.126  0.1479 -0.1031  0.2114
  241MOL0     O32403   9.728   6.370  11.150  0.2489 -0.4727 -1.0806
  241MOL0     C32404   9.782   6.481  11.087  0.1411 -0.6683 -1.0386
  241MOL0     C32405   9.708   6.591  11.054  0.2109 -0.2058  0.3688
  241MOL0     C32406   9.761   6.696  10.987 -0.2978 -0.0652 -0.4045
  241MOL0     C32407   9.894   6.698  10.948 -0.1863  1.0430 -0.3532
  241MOL0     O32408   9.954   6.787  10.869 -0.5897 -0.3916 -0.5718
  241MOL0     C32409   9.908   6.798  10.730  0.0851 -1.1797  0.3365
  241MOL0     C32410   9.978   6.920  10.663  0.0825 -0.5174 -0.4298
  241MOL0     C32411  10.141   6.928  10.668 -0.3401  0.7631  0.9284
  241MOL0     C32412  10.213   6.795  10.663  0.7574  0.6792 -0.0106
  241MOL0     C32413  10.359   6.804  10.617  1.4372  0.1181 -0.0343
  241MOL0     C32414  10.434   6.913  10.688 -0.3360 -0.3231 -0.2231
  241MOL0     C32415  10.589   6.913  10.657 -0.6024 -0.0659 -0.7129
  241MOL0     C32416  10.657   7.044  10.710  0.0796 -0.0269  0.4521
  241MOL0     N32417  10.802   7.044  10.698  0.0738 -0.4006  0.1206
  241MOL0     C32418  10.898   7.018  10.795 -0.4285 -0.0658  0.9089
  241MOL0     C32419  11.011   7.030  10.729  0.2272  1.3690 -1.1510
  241MOL0     C32420  11.144   6.984  10.778 -0.5931 -0.8737 -0.7786
  241MOL0     C32421  11.250   7.091  10.792 -0.3143 -0.5917 -0.1352
  241MOL0     C32422  11.239   7.184  10.905 -0.2941 -0.9565 -0.4327
  241MOL0     C32423  11.346   7.297  10.888 -0.0159  0.1309 -0.1180
  241MOL0     O32424  11.478   7.251  10.854  0.5001 -0.1882  0.2815
  241MOL0     C32425  11.564   7.356  10.823  0.2609  0.0550  0.6404
  241MOL0     C32426  11.543   7.490  10.854  0.3473 -1.0731  0.1095
  241MOL0     C32427  11.640   7.591  10.825 -0.3834 -0.2310 -0.3101
  241MOL0     C32428  11.757   7.552  10.758 -0.4757  0.4043 -0.1262
  241MOL0     C32429  11.856   7.659  10.715  0.0491  0.6365  0.3097
  241MOL0     O32430  11.971   7.620  10.644  0.6224  0.1874 -0.2965
  241MOL0     C32431  12.075   7.707  10.630 -0.2943  0.5509 -0.0318
  241MOL0     C32432  12.112   7.795  10.735  0.0597  1.0061  0.0234
  241MOL0     C32433  12.224   7.874  10.735 -0.4605 -0.1254  0.1407
  241MOL0     C32434  12.287   7.889  10.611 -0.1739 -0.0680 -0.0396
  241MOL0     O32435  12.397   7.968  10.586  0.0284 -1.4787  0.6424
  241MOL0     C32436  12.464   8.007  10.706 -0.5855 -0.4328 -0.1006
  241MOL0     C32437  12.598   8.059  10.669  0.1349 -0.3245 -0.0928
  241MOL0     C32438  12.683   7.937  10.617  0.6311 -0.2661 -0.1600
  241MOL0     C32439  12.812   7.980  10.546 -0.7037  0.0552 -0.0666
  241MOL0     C32440  12.945   7.967  10.632 -0.1257 -0.2010 -0.2137
  241MOL0     C32441  12.953   8.056  10.759 -0.6407  0.0050 -0.2473
  241MOL0     C32442  13.097   8.063  10.823 -0.2108  0.2844  0.1859
  241MOL0     C32443  13.193   8.136  10.726 -0.1222 -0.1298  0.0076
  241MOL0    Cl32444  13.361   8.149  10.793 -0.0158  0.0323 -0.3884
  241MOL0     C32445  12.255   7.804  10.505 -0.0460 -0.8195 -0.2373
  241MOL0     C32446  12.149   7.706  10.509  0.7531 -0.1739 -0.5988
  241MOL0     O32447  11.819   7.775  10.731  0.1257 -0.5637  0.2153
  241MOL0     C32448  11.783   7.421  10.740  0.1601  0.3289  0.7456
  241MOL0     C32449  11.692   7.321  10.780 -0.3083 -0.4723  0.1360
  241MOL0     N32450  10.989   7.085  10.610  0.4207  0.1732 -0.1178
  241MOL0     N32451  10.863   7.090  10.585  0.1205 -1.0584 -0.0808
  241MOL0     C32452   9.968   6.590  10.996  0.8242  0.1825 -0.5558
  241MOL0     C32453   9.918   6.484  11.065 -0.1217 -0.3867 -0.9533
  241MOL0     C32454   9.743   6.163  11.234  0.2754  0.3631 -0.1109
  241MOL0     C32455   9.760   6.205  11.373 -0.0317 -0.7466  0.7761
  241MOL0     C32456   9.723   6.124  11.479  0.3614 -0.2757  0.3660
  241MOL0     C32457   9.664   6.004  11.455  0.2936 -0.1986 -0.7710
  241MOL0     O32458   9.615   5.946  11.567 -0.1721 -0.3021 -0.1112
  241MOL0     C32459   9.542   5.823  11.573  0.5831  0.2192 -0.4827
  241MOL0     C32460   9.497   5.795  11.708  0.0340 -0.3198 -0.3552
  241MOL0     C32461   9.405   5.915  11.756  0.1233 -0.2074 -0.5328
  241MOL0     C32462   9.395   5.929  11.909 -0.3495  0.2226  0.4676
  241MOL0     C32463   9.309   5.825  11.963 -0.6156 -0.1713  0.2260
  241MOL0     C32464   9.268   5.721  12.007  0.0678 -0.1653 -0.8045
  241MOL0     C32465   9.637   5.957  11.324 -0.2118 -0.3289  0.1379
  241MOL0     C32466   9.680   6.034  11.209 -0.5303 -0.5062 -0.0405
  241MOL0     C32467   9.656   5.974  11.067  0.4534  0.3425 -0.5150
  241MOL0     H32468   9.600   6.596  11.071  0.3482  1.4880  0.9398
  241MOL0     H32469   9.694   6.777  10.963  0.0208  0.2938 -0.1143
  241MOL0     H32470   9.944   6.704  10.686 -2.0579 -2.5365  1.3180
  241MOL0     H32471   9.801   6.807  10.710  0.7355  1.1092 -3.0602
  241MOL0     H32472   9.927   7.009  10.700 -2.9024 -2.0652 -0.5121
  241MOL0     H32473   9.960   6.916  10.556  1.3392  1.6330 -0.7729
  241MOL0     H32474  10.160   6.977  10.764 -2.2276  0.8121  1.3180
  241MOL0     H32475  10.184   6.988  10.587 -1.2004  0.2542  0.0872
  241MOL0     H32476  10.202   6.751  10.763 -0.0446  2.2974  0.6590
  241MOL0     H32477  10.163   6.725  10.597 -0.9696  0.7799  1.1287
  241MOL0     H32478  10.407   6.708  10.641 -0.5850 -1.4860 -1.9578
  241MOL0     H32479  10.353   6.828  10.510 -0.0918 -0.9898 -0.2337
  241MOL0     H32480  10.392   7.012  10.669 -0.4201 -0.0208  1.4237
  241MOL0     H32481  10.433   6.902  10.797 -0.6088 -1.4131 -0.3310
  241MOL0     H32482  10.615   6.904  10.551 -0.8277 -1.9687 -0.6370
  241MOL0     H32483  10.646   6.835  10.708  0.0023  0.1834 -0.9961
  241MOL0     H32484  10.618   7.121  10.643 -0.6850  1.1194  2.1347
  241MOL0     H32485  10.623   7.059  10.813 -3.4476 -1.2553 -0.3824
  241MOL0     H32486  10.884   6.959  10.886  1.5343 -2.6196 -0.3044
  241MOL0     H32487  11.123   6.936  10.874 -2.2135 -2.2401 -1.7723
  241MOL0     H32488  11.180   6.909  10.707 -1.0829 -1.2750 -0.6117
  241MOL0     H32489  11.342   7.033  10.788 -0.9513 -1.6293 -0.1933
  241MOL0     H32490  11.258   7.157  10.705  1.1482 -1.3132 -0.5633
  241MOL0     H32491  11.245   7.132  11.000 -0.1748 -1.4128 -0.6873
  241MOL0     H32492  11.148   7.244  10.906 -0.7958 -1.6900  1.9471
  241MOL0     H32493  11.347   7.356  10.980 -3.4531 -1.5443  1.1404
  241MOL0     H32494  11.301   7.353  10.805 -0.6323  0.2259  0.2758
  241MOL0     H32495  11.451   7.530  10.895  0.2048  2.3695 -3.0324
  241MOL0     H32496  11.626   7.694  10.856 -0.7338 -0.1182 -0.8523
  241MOL0     H32497  12.064   7.804  10.832 -0.0823 -0.8327  0.1656
  241MOL0     H32498  12.266   7.918  10.825  1.5476  0.3277 -0.9584
  241MOL0     H32499  12.404   8.075  10.767 -1.1443 -0.3125 -0.7739
  241MOL0     H32500  12.483   7.920  10.770 -1.1591 -1.7210 -1.6145
  241MOL0     H32501  12.591   8.132  10.588  3.3057  0.0653 -0.1424
  241MOL0     H32502  12.649   8.113  10.749  0.0127 -0.9115  0.3874
  241MOL0     H32503  12.701   7.874  10.705 -4.8039  0.1100  1.6074
  241MOL0     H32504  12.618   7.879  10.551 -0.3564 -2.8533  2.8230
  241MOL0     H32505  12.799   8.083  10.514 -1.7480 -0.1680 -0.4133
  241MOL0     H32506  12.822   7.914  10.459 -1.1660  1.0479 -0.8812
  241MOL0     H32507  13.029   7.990  10.566 -0.0129 -1.8883 -0.6974
  241MOL0     H32508  12.949   7.861  10.659 -0.7658 -0.8949 -2.5659
  241MOL0     H32509  12.912   8.154  10.735 -3.3864 -1.7028 -3.5044
  241MOL0     H32510  12.885   8.019  10.837  0.3998  3.1038  2.3284
  241MOL0     H32511  13.131   7.961  10.839 -2.5946 -0.5582  0.2481
  241MOL0     H32512  13.091   8.124  10.914 -0.5602 -0.5991  0.7676
  241MOL0     H32513  13.195   8.078  10.633  3.7332  1.4921 -1.1165
  241MOL0     H32514  13.154   8.234  10.698  3.8872  1.1572 -1.8623
  241MOL0     H32515  12.313   7.814  10.414 -1.9814 -1.4256 -1.6091
  241MOL0     H32516  12.132   7.652  10.416  1.5345  0.7273 -1.2948
  241MOL0     H32517  11.880   7.390  10.704 -0.6673  1.0480 -2.4940
  241MOL0     H32518  11.715   7.216  10.768 -0.9755 -0.5195 -0.8756
  241MOL0     H32519  10.075   6.595  10.981  0.5385  0.5923 -2.8140
  241MOL0     H32520   9.992   6.408  11.088  0.9129  1.5880  3.2042
  241MOL0     H32521   9.808   6.300  11.397  1.7661 -1.2037 -0.7819
  241MOL0     H32522   9.742   6.160  11.580  0.7892  2.0209 -0.4737
  241MOL0     H32523   9.612   5.741  11.553  0.7934  0.6066 -1.3422
  241MOL0     H32524   9.466   5.807  11.496 -0.2049 -0.6377  0.4398
  241MOL0     H32525   9.587   5.776  11.767 -0.3893 -1.1154  0.0468
  241MOL0     H32526   9.437   5.704  11.717  1.9638 -1.5038  1.4396
  241MOL0     H32527   9.309   5.911  11.703  0.1843 -2.3550 -0.5624
  241MOL0     H32528   9.460   6.005  11.725  3.2284 -1.9334 -0.4473
  241MOL0     H32529   9.491   5.923  11.963  0.1518  1.2961 -0.2780
  241MOL0     H32530   9.350   6.027  11.924 -2.9380 -0.6161 -1.2495
  241MOL0     H32531   9.256   5.625  12.052 -4.0981 -0.6375 -2.4994
  241MOL0     H32532   9.582   5.863  11.315 -3.4098  1.0550  2.9391
  241MOL0     H32533   9.708   5.878  11.075  2.3527  1.4109  0.6952
  241MOL0     H32534   9.550   5.954  11.045  0.7786 -2.1333 -0.1167
  241MOL0     H32535   9.706   6.025  10.985 -0.1560  0.2517 -0.9484
  242MOL0     O32536   2.540   3.388   6.678  0.1013  0.7701 -0.2156
  242MOL0     C32537   2.497   3.476   6.754  0.5271  0.1360  0.3125
  242MOL0     O32538   2.564   3.539   6.849 -0.0692  0.0624  0.5330
  242MOL0     C32539   2.704   3.537   6.861  0.6190  0.2254  0.0430
  242MOL0     C32540   2.780   3.546   6.743  0.4069  0.4979 -0.8103
  242MOL0     C32541   2.923   3.549   6.757  0.4309 -1.0811  0.4284
  242MOL0     C32542   2.990   3.534   6.883  0.1956  0.4376  0.4812
  242MOL0     O32543   3.123   3.544   6.899 -0.6826  0.4439  1.2587
  242MOL0     C32544   3.207   3.532   6.781  0.6010 -0.0326 -0.2082
  242MOL0     C32545   3.340   3.484   6.838 -0.2053 -0.0942 -0.1659
  242MOL0     C32546   3.442   3.476   6.724  0.5750  0.1618  0.1133
  242MOL0     C32547   3.571   3.410   6.761 -0.3166 -1.0470 -0.1964
  242MOL0     C32548   3.665   3.394   6.648 -0.1230  0.5253 -0.7279
  242MOL0     C32549   3.802   3.340   6.698 -0.5232 -0.7640 -0.0990
  242MOL0     C32550   3.898   3.315   6.581 -0.2448 -0.1625  0.0622
  242MOL0     C32551   4.019   3.251   6.647  0.3735  0.7089 -0.3646
  242MOL0     N32552   4.140   3.264   6.565 -0.2250 -0.4429  0.2977
  242MOL0     C32553   4.190   3.173   6.475 -0.5710  0.2072 -0.1217
  242MOL0     C32554   4.313   3.214   6.450 -1.3366  0.2487 -0.4631
  242MOL0     C32555   4.425   3.145   6.364  0.0515  0.3298 -0.0412
  242MOL0     C32556   4.474   3.022   6.435  0.4683  0.0146 -0.5356
  242MOL0     C32557   4.557   2.932   6.343  0.2621  0.1543  0.1187
  242MOL0     C32558   4.675   2.995   6.275  0.1350 -1.4630 -0.6637
  242MOL0     O32559   4.748   2.897   6.206  0.1038 -0.0949 -0.1713
  242MOL0     C32560   4.876   2.929   6.164  0.2725 -0.5341  0.3759
  242MOL0     C32561   4.910   3.060   6.137  0.2429 -0.7032 -0.0758
  242MOL0     C32562   5.027   3.099   6.064  0.3573  0.2447  0.1458
  242MOL0     C32563   5.112   2.991   6.023  0.2592  0.1625  0.4753
  242MOL0     C32564   5.233   3.016   5.943  0.0193  0.6436  1.0928
  242MOL0     O32565   5.277   2.921   5.853 -0.8069 -0.1059 -0.0867
  242MOL0     C32566   5.358   2.958   5.748  0.3464  0.1354  0.3410
  242MOL0     C32567   5.487   3.013   5.765  0.0469 -0.5517  0.7855
  242MOL0     C32568   5.568   3.030   5.644  0.5680 -0.1241 -0.5663
  242MOL0     C32569   5.519   2.980   5.520  0.4222  0.2214 -0.0256
  242MOL0     O32570   5.601   2.993   5.418  1.0289 -0.1736 -0.2361
  242MOL0     C32571   5.580   2.906   5.297 -0.0616 -0.1171 -0.4519
  242MOL0     C32572   5.696   2.919   5.204 -0.3409  0.1312  0.1068
  242MOL0     C32573   5.828   2.877   5.271  0.5616 -0.4816 -0.8319
  242MOL0     C32574   5.949   2.896   5.175  0.9754  0.0836 -0.6906
  242MOL0     C32575   6.084   2.891   5.243 -0.9562 -0.4529  0.0350
  242MOL0     C32576   6.133   2.755   5.277 -0.0436  0.7029 -0.4089
  242MOL0     C32577   6.275   2.747   5.343  0.2693 -1.0820 -0.2681
  242MOL0     C32578   6.320   2.607   5.354 -0.0933  0.1058 -0.5159
  242MOL0    Cl32579   6.493   2.601   5.397  0.2679 -0.1829  0.2917
  242MOL0     C32580   5.382   2.941   5.511 -1.1231 -0.5659 -0.2027
  242MOL0     C32581   5.306   2.930   5.624  0.2931  0.0633  0.9463
  242MOL0     O32582   5.301   3.110   5.974  0.4065  0.4385  0.3034
  242MOL0     C32583   5.071   2.858   6.034 -0.4756 -0.3129 -0.5479
  242MOL0     C32584   4.954   2.829   6.102 -0.9160  0.0115 -0.3697
  242MOL0     N32585   4.333   3.337   6.515 -0.5632 -0.1169 -0.3030
  242MOL0     N32586   4.233   3.364   6.588  0.6037  0.1903 -0.1744
  242MOL0     C32587   2.907   3.536   6.994  0.6624  0.0433  0.8295
  242MOL0     C32588   2.763   3.533   6.982  0.3289  0.6437  0.1023
  242MOL0     C32589   2.349   3.501   6.762  0.3287 -0.5206  0.2935
  242MOL0     C32590   2.271   3.439   6.653  0.3451  0.2678 -0.0478
  242MOL0     C32591   2.136   3.462   6.645  0.2822 -1.3606  0.3434
  242MOL0     C32592   2.068   3.543   6.734  0.5400 -0.2744 -0.2030
  242MOL0     O32593   1.930   3.523   6.713  0.0916  0.0133 -0.2327
  242MOL0     C32594   1.814   3.566   6.798 -0.6691  0.7715  0.0374
  242MOL0     C32595   1.772   3.441   6.875 -0.4756  0.3964  0.0493
  242MOL0     C32596   1.641   3.462   6.955 -0.2739 -0.6958 -0.1419
  242MOL0     C32597   1.606   3.357   7.067 -0.4895  1.1030  0.2984
  242MOL0     C32598   1.479   3.364   7.133  0.1238  0.2150 -0.2852
  242MOL0     C32599   1.381   3.393   7.198 -0.5672 -0.1821  0.2625
  242MOL0     C32600   2.140   3.605   6.837  0.1830 -0.0801 -0.3040
  242MOL0     C32601   2.277   3.590   6.853 -0.2270  0.6773 -0.3830
  242MOL0     C32602   2.331   3.655   6.976 -0.0731  0.0134  0.1321
  242MOL0     H32603   2.744   3.546   6.640 -0.3736 -2.6768 -0.6362
  242MOL0     H32604   2.985   3.546   6.668 -3.0160 -0.5098 -2.2032
  242MOL0     H32605   3.156   3.457   6.719 -2.8050  0.0821  2.1331
  242MOL0     H32606   3.218   3.625   6.725 -1.4458  1.5952  1.8877
  242MOL0     H32607   3.331   3.388   6.890  2.0253  0.0039  0.5005
  242MOL0     H32608   3.380   3.557   6.909  3.0287  0.1655 -2.0508
  242MOL0     H32609   3.478   3.575   6.694  3.5105 -0.9457 -0.4196
  242MOL0     H32610   3.402   3.420   6.639  0.7830 -2.5229  1.6685
  242MOL0     H32611   3.621   3.460   6.845  1.1861  0.1093 -1.7158
  242MOL0     H32612   3.546   3.306   6.785  0.1762 -1.3813 -1.0770
  242MOL0     H32613   3.627   3.322   6.574 -0.7602 -2.3925  2.2083
  242MOL0     H32614   3.666   3.494   6.604  1.4587 -0.5545 -3.4120
  242MOL0     H32615   3.856   3.408   6.764  1.8961 -1.8087 -0.8592
  242MOL0     H32616   3.787   3.247   6.752  1.0486 -1.4555 -0.7969
  242MOL0     H32617   3.920   3.408   6.527 -0.0509 -0.1891  0.0956
  242MOL0     H32618   3.861   3.241   6.510 -1.0650 -0.1121  0.4305
  242MOL0     H32619   4.032   3.304   6.742 -0.4697  1.7006 -0.7711
  242MOL0     H32620   3.993   3.145   6.656  0.5320  0.7690  0.9398
  242MOL0     H32621   4.144   3.081   6.442  0.6231 -0.4441 -0.0211
  242MOL0     H32622   4.379   3.108   6.272  0.9082 -1.7837  0.3182
  242MOL0     H32623   4.507   3.212   6.336  2.3979 -2.1236  0.5030
  242MOL0     H32624   4.531   3.050   6.524  0.6395 -0.3683 -0.5229
  242MOL0     H32625   4.381   2.970   6.460  0.4423  0.2406 -0.1643
  242MOL0     H32626   4.490   2.886   6.270 -1.8572  2.3291  0.5622
  242MOL0     H32627   4.590   2.852   6.410 -1.5188  1.4164  2.6634
  242MOL0     H32628   4.736   3.044   6.352  0.6813 -2.6849 -0.2873
  242MOL0     H32629   4.627   3.065   6.206 -2.0274 -2.3095 -0.1001
  242MOL0     H32630   4.845   3.139   6.173  1.4972  0.4935 -0.3414
  242MOL0     H32631   5.067   3.197   6.040 -1.8768  0.6643 -2.2669
  242MOL0     H32632   5.528   3.006   5.865 -0.8866  1.4443  1.3570
  242MOL0     H32633   5.671   3.064   5.639  1.3392 -2.0195  1.1806
  242MOL0     H32634   5.572   2.799   5.313 -3.0396 -0.6839 -4.1716
  242MOL0     H32635   5.486   2.929   5.244 -0.1090  2.9157  0.7022
  242MOL0     H32636   5.678   2.854   5.118 -2.3963 -0.0259  0.6077
  242MOL0     H32637   5.695   3.023   5.171  0.0980 -0.5195 -2.1324
  242MOL0     H32638   5.852   2.934   5.361  0.9926 -0.8023 -0.7422
  242MOL0     H32639   5.825   2.772   5.302  1.6387 -1.2471 -3.0953
  242MOL0     H32640   5.941   2.998   5.135  1.0019 -0.0912 -1.1505
  242MOL0     H32641   5.951   2.823   5.094  2.3716  0.6692 -1.2303
  242MOL0     H32642   6.086   2.958   5.329 -1.9403  1.9693 -1.7116
  242MOL0     H32643   6.157   2.925   5.169  1.0040 -3.5211  0.3995
  242MOL0     H32644   6.077   2.704   5.356  4.1034 -0.3880  2.1271
  242MOL0     H32645   6.129   2.698   5.184 -0.3953 -0.5818  0.3585
  242MOL0     H32646   6.275   2.789   5.444  0.4671 -2.9673  0.5448
  242MOL0     H32647   6.343   2.799   5.275 -1.2542 -0.5385 -1.4564
  242MOL0     H32648   6.265   2.543   5.424  2.0962 -0.4605  0.7838
  242MOL0     H32649   6.311   2.572   5.251  2.9239  1.2163 -1.2781
  242MOL0     H32650   5.333   2.928   5.415  0.9377  0.3946 -1.4513
  242MOL0     H32651   5.204   2.894   5.618  0.1405  0.4516  1.1466
  242MOL0     H32652   5.120   2.786   5.970  1.6784  1.0751 -0.5632
  242MOL0     H32653   4.931   2.723   6.104 -1.0705  0.0379 -0.6780
  242MOL0     H32654   2.949   3.556   7.092  1.1628  0.8251  0.4633
  242MOL0     H32655   2.690   3.537   7.062 -3.4005 -0.8962 -2.9417
  242MOL0     H32656   2.322   3.376   6.580  0.5046 -1.7897  1.7348
  242MOL0     H32657   2.079   3.412   6.567 -0.4520 -0.0251 -0.0100
  242MOL0     H32658   1.738   3.611   6.735 -0.4202  0.0626 -0.7896
  242MOL0     H32659   1.843   3.649   6.863 -1.3272  0.0446  1.3153
  242MOL0     H32660   1.849   3.413   6.947 -0.0657 -0.4314 -0.6929
  242MOL0     H32661   1.751   3.359   6.805 -2.3327  1.4654 -0.7193
  242MOL0     H32662   1.563   3.467   6.879  0.3506  1.3902 -0.7127
  242MOL0     H32663   1.646   3.560   7.002  1.8572 -1.0260  0.4251
  242MOL0     H32664   1.598   3.259   7.018  0.1580  0.3110  1.7052
  242MOL0     H32665   1.682   3.350   7.146  0.2887 -2.2036 -0.5528
  242MOL0     H32666   1.296   3.417   7.259  0.6470  0.4030  1.8048
  242MOL0     H32667   2.079   3.665   6.905  0.1655  1.0401 -1.2813
  242MOL0     H32668   2.401   3.734   6.944  0.9432 -0.5381  0.9277
  242MOL0     H32669   2.267   3.716   7.040  0.2936 -0.2277  0.7336
  242MOL0     H32670   2.379   3.579   7.038 -1.6648 -1.3972 -0.3156
  243MOL0     O32671   4.559  10.804   2.727 -0.5846  0.4005  1.0376
  243MOL0     C32672   4.549  10.762   2.614  0.0938  1.3217  1.2276
  243MOL0     O32673   4.658  10.746   2.523 -0.5246 -0.5282  0.1968
  243MOL0     C32674   4.784  10.758   2.567 -0.0163 -0.3451  0.7541
  243MOL0     C32675   4.859  10.648   2.598  0.0625  0.8937  0.3664
  243MOL0     C32676   4.996  10.671   2.615 -0.8118 -0.6882 -0.1785
  243MOL0     C32677   5.052  10.799   2.628 -0.4751 -0.5717 -0.2567
  243MOL0     O32678   5.183  10.812   2.673 -0.2208 -0.2669 -0.5775
  243MOL0     C32679   5.263  10.908   2.602 -0.0678 -0.1703  0.9663
  243MOL0     C32680   5.404  10.917   2.654 -0.5208 -0.5217  0.7703
  243MOL0     C32681   5.486  10.784   2.658 -0.1024  0.5020  0.1554
  243MOL0     C32682   5.614  10.781   2.740  0.8256 -0.2832  0.2621
  243MOL0     C32683   5.705  10.890   2.701 -0.1215 -0.2512 -0.3390
  243MOL0     C32684   5.843  10.873   2.772 -0.1290 -0.2069 -0.2080
  243MOL0     C32685   5.916  10.739   2.746 -0.0582 -0.0712 -0.7917
  243MOL0     C32686   6.065  10.758   2.777  0.1345 -0.3950  1.1362
  243MOL0     N32687   6.111  10.811   2.907 -0.3194 -0.0556  0.0148
  243MOL0     C32688   6.162  10.931   2.927  0.2534 -0.5825 -0.6545
  243MOL0     C32689   6.219  10.927   3.049  0.7364 -0.0072  0.3431
  243MOL0     C32690   6.286  11.025   3.135  0.1940 -0.3150 -0.2487
  243MOL0     C32691   6.203  11.096   3.243  0.0577 -0.2459  0.1678
  243MOL0     C32692   6.066  11.151   3.182  0.5139  0.4209  0.3134
  243MOL0     C32693   6.088  11.270   3.096 -0.2676  0.2431  0.4993
  243MOL0     O32694   5.972  11.358   3.085 -0.4415  0.2371 -0.2647
  243MOL0     C32695   5.876  11.342   2.991  0.0725 -0.1323 -0.5349
  243MOL0     C32696   5.754  11.412   3.013 -0.5842 -0.4475  0.5671
  243MOL0     C32697   5.665  11.398   2.906 -0.2220 -0.2246 -0.5492
  243MOL0     C32698   5.681  11.304   2.797 -0.7666 -0.0463  0.8088
  243MOL0     C32699   5.584  11.297   2.685  0.4458 -0.0747 -0.0136
  243MOL0     O32700   5.446  11.319   2.713  0.0017 -0.3783 -0.1910
  243MOL0     C32701   5.350  11.330   2.620  0.4217  1.2705 -0.8324
  243MOL0     C32702   5.225  11.276   2.650 -0.1173  0.5580  0.2302
  243MOL0     C32703   5.120  11.303   2.564 -0.3325 -0.2453  0.2518
  243MOL0     C32704   5.130  11.385   2.449 -1.0045  0.2913 -0.4720
  243MOL0     O32705   5.018  11.407   2.372 -0.4494 -0.1459  0.0325
  243MOL0     C32706   5.017  11.529   2.283 -0.3609 -0.5918 -0.6854
  243MOL0     C32707   4.876  11.533   2.227 -0.5095 -0.5782 -0.3245
  243MOL0     C32708   4.852  11.650   2.129  0.7641 -0.3229 -0.2682
  243MOL0     C32709   4.725  11.605   2.049 -0.7725 -0.0540 -0.9261
  243MOL0     C32710   4.680  11.719   1.966 -0.0176  0.5995  0.4931
  243MOL0     C32711   4.563  11.693   1.865  0.7647  0.8089  0.8222
  243MOL0     C32712   4.613  11.603   1.752 -0.5913 -0.0354  0.5091
  243MOL0     C32713   4.504  11.575   1.651 -0.0280  0.4314 -0.1902
  243MOL0    Cl32714   4.481  11.737   1.557  0.0093  0.2924 -0.0216
  243MOL0     C32715   5.253  11.420   2.416 -1.1798  0.2794  0.8042
  243MOL0     C32716   5.368  11.397   2.495 -0.4960  0.1913  0.4783
  243MOL0     O32717   5.622  11.264   2.578 -0.9397 -0.0972  0.4285
  243MOL0     C32718   5.796  11.240   2.788  0.0484  0.8525 -0.3481
  243MOL0     C32719   5.889  11.255   2.881  0.9945 -0.8876 -0.2740
  243MOL0     N32720   6.191  10.803   3.097 -0.3720 -0.1276  0.2951
  243MOL0     N32721   6.131  10.732   3.013 -1.1037  0.1449  0.8356
  243MOL0     C32722   4.967  10.902   2.614 -0.2263  0.0527 -0.5075
  243MOL0     C32723   4.841  10.886   2.564  0.2216  0.3784  0.3449
  243MOL0     C32724   4.412  10.706   2.569  0.9385  0.8765 -0.9654
  243MOL0     C32725   4.404  10.611   2.456  0.3072 -0.3107 -0.8876
  243MOL0     C32726   4.280  10.567   2.412 -0.0877  0.7360 -0.3587
  243MOL0     C32727   4.165  10.594   2.480  0.8928  0.9720 -0.4823
  243MOL0     O32728   4.046  10.535   2.440 -0.1797 -0.0241  0.2527
  243MOL0     C32729   3.939  10.612   2.386  0.4619 -0.0900  0.4422
  243MOL0     C32730   3.846  10.531   2.298  0.1864  0.6925 -0.4195
  243MOL0     C32731   3.708  10.590   2.288 -0.2152  0.4461 -0.0356
  243MOL0     C32732   3.608  10.479   2.245  0.0896  0.7997 -0.2538
  243MOL0     C32733   3.493  10.542   2.183  0.9002  0.3788  0.0625
  243MOL0     C32734   3.388  10.595   2.136 -1.0466 -1.0914 -0.7726
  243MOL0     C32735   4.172  10.673   2.591 -0.8217  0.2841  0.5527
  243MOL0     C32736   4.285  10.738   2.635 -0.6162 -0.3626 -0.2365
  243MOL0     C32737   4.277  10.829   2.753 -0.3281 -1.0432 -0.3542
  243MOL0     H32738   4.815  10.549   2.590 -0.0472  0.9388  0.4157
  243MOL0     H32739   5.065  10.590   2.639  2.5686  2.6520  2.5464
  243MOL0     H32740   5.273  10.891   2.494  0.2551  2.4007  0.5169
  243MOL0     H32741   5.228  11.010   2.620  0.9503  0.1842  1.0515
  243MOL0     H32742   5.405  10.970   2.750 -1.9185  1.8437 -0.4049
  243MOL0     H32743   5.453  10.989   2.587 -1.4247 -1.8065 -1.3817
  243MOL0     H32744   5.519  10.743   2.562  2.3018  0.3118  0.9763
  243MOL0     H32745   5.414  10.708   2.691 -0.9069  0.3485 -1.8263
  243MOL0     H32746   5.594  10.790   2.846  2.3268  0.7138  0.4951
  243MOL0     H32747   5.654  10.680   2.721 -0.7458 -0.5637 -2.0554
  243MOL0     H32748   5.724  10.896   2.594 -0.3385 -2.8731 -0.5917
  243MOL0     H32749   5.664  10.986   2.732 -0.5955 -0.2062 -1.0789
  243MOL0     H32750   5.909  10.958   2.751  0.2688 -0.5807 -0.4706
  243MOL0     H32751   5.814  10.882   2.877  0.7423  1.5124 -0.0732
  243MOL0     H32752   5.907  10.705   2.643  0.5139  0.3848 -0.9985
  243MOL0     H32753   5.887  10.663   2.819  2.9762 -0.2145  0.4106
  243MOL0     H32754   6.117  10.662   2.766  0.1594 -0.3569  0.9210
  243MOL0     H32755   6.088  10.829   2.696 -0.5124  0.5964  1.8106
  243MOL0     H32756   6.170  11.010   2.853 -1.4064  0.2302  0.0094
  243MOL0     H32757   6.378  10.980   3.173  1.1683  1.5814 -0.2265
  243MOL0     H32758   6.334  11.100   3.072  1.0926 -0.6957 -0.0396
  243MOL0     H32759   6.195  11.023   3.325 -0.6472 -0.4772 -0.0981
  243MOL0     H32760   6.257  11.178   3.291 -1.6866 -0.0013  1.8611
  243MOL0     H32761   6.010  11.185   3.270 -1.2189  2.4128 -1.4601
  243MOL0     H32762   6.006  11.070   3.141  0.0128  0.1221  1.5820
  243MOL0     H32763   6.138  11.252   3.001 -0.0455 -1.3321  0.8841
  243MOL0     H32764   6.167  11.330   3.143  0.6667 -1.0413  0.6430
  243MOL0     H32765   5.738  11.479   3.097  0.5467  0.9074 -0.2674
  243MOL0     H32766   5.573  11.450   2.929  0.1668 -0.2500  1.2125
  243MOL0     H32767   5.225  11.209   2.736  0.8109  0.2602  0.0104
  243MOL0     H32768   5.020  11.275   2.594  0.2195 -1.4415  1.0409
  243MOL0     H32769   5.047  11.619   2.338 -2.8797 -0.9600  1.4838
  243MOL0     H32770   5.085  11.526   2.197  0.5014  3.3833 -0.3623
  243MOL0     H32771   4.852  11.435   2.186  1.7149 -1.7631  0.9681
  243MOL0     H32772   4.808  11.546   2.312 -0.4987  0.1368 -0.4155
  243MOL0     H32773   4.836  11.746   2.179 -0.2330  0.0553 -1.2628
  243MOL0     H32774   4.939  11.654   2.063 -0.8849 -2.6997 -2.8154
  243MOL0     H32775   4.644  11.587   2.120  0.7778  1.0472  1.2370
  243MOL0     H32776   4.757  11.514   1.998 -0.2875 -2.2387  2.8736
  243MOL0     H32777   4.763  11.761   1.909  0.6789  0.0554  1.0839
  243MOL0     H32778   4.642  11.798   2.030  2.6601  1.3950  1.2123
  243MOL0     H32779   4.468  11.655   1.904 -0.0737  0.5693 -1.2860
  243MOL0     H32780   4.530  11.790   1.826  1.2668  0.8863  0.5787
  243MOL0     H32781   4.655  11.511   1.794 -0.4817 -0.6424 -0.8921
  243MOL0     H32782   4.693  11.661   1.706 -0.9084  2.0654  2.3960
  243MOL0     H32783   4.533  11.492   1.587  1.6019  0.1232  0.8714
  243MOL0     H32784   4.409  11.554   1.702  1.6292  1.7433  3.8911
  243MOL0     H32785   5.275  11.461   2.318  1.7154  0.0167  1.2454
  243MOL0     H32786   5.468  11.422   2.461  0.8282 -0.6233  3.4851
  243MOL0     H32787   5.814  11.171   2.706 -2.9962 -2.5058  1.5643
  243MOL0     H32788   5.976  11.193   2.863  1.4527 -1.4085  3.0733
  243MOL0     H32789   4.992  11.003   2.646  0.6021 -0.3026 -0.0178
  243MOL0     H32790   4.773  10.969   2.543 -3.1556 -2.6679 -1.8621
  243MOL0     H32791   4.493  10.580   2.403  1.6684  0.5294  0.7802
  243MOL0     H32792   4.262  10.492   2.335  2.3057 -5.2618  4.1484
  243MOL0     H32793   3.974  10.693   2.322  2.1173 -2.3373 -1.7196
  243MOL0     H32794   3.897  10.657   2.476  0.5178  0.5391  0.1562
  243MOL0     H32795   3.830  10.433   2.345 -0.2785  1.5142  1.2167
  243MOL0     H32796   3.885  10.520   2.197 -0.6003 -0.8154 -0.5875
  243MOL0     H32797   3.701  10.670   2.213  0.5588  1.7894  1.2683
  243MOL0     H32798   3.678  10.633   2.384 -1.4229 -1.2903  0.4058
  243MOL0     H32799   3.666  10.411   2.182  1.1252  1.3669  0.0574
  243MOL0     H32800   3.577  10.420   2.331  1.7458 -1.0615 -0.8425
  243MOL0     H32801   3.307  10.643   2.086  1.2954  1.3819 -2.5204
  243MOL0     H32802   4.074  10.689   2.636 -1.1297 -0.9058  0.3530
  243MOL0     H32803   4.325  10.927   2.745 -2.3453  0.1745  1.1972
  243MOL0     H32804   4.174  10.849   2.784  0.4958  0.4234  1.6861
  243MOL0     H32805   4.319  10.776   2.839 -2.0397 -1.6316  0.1747
  244MOL0     O32806   3.432   7.828   3.321 -0.6556  0.1230  0.1457
  244MOL0     C32807   3.440   7.919   3.403  0.1119 -0.6404  0.0289
  244MOL0     O32808   3.550   7.948   3.468  0.0348  0.0263  0.5946
  244MOL0     C32809   3.651   7.864   3.459  0.3483 -0.4530 -0.2698
  244MOL0     C32810   3.704   7.821   3.581 -0.6601  0.3389  0.1753
  244MOL0     C32811   3.815   7.734   3.584  0.4206 -1.0197  0.5223
  244MOL0     C32812   3.874   7.696   3.462 -0.6750  0.1860 -0.1951
  244MOL0     O32813   3.988   7.623   3.473  0.7641  0.4339  0.4832
  244MOL0     C32814   3.988   7.499   3.408 -0.2935  0.8596 -0.2411
  244MOL0     C32815   4.122   7.422   3.420  0.2426  0.5872  0.2807
  244MOL0     C32816   4.232   7.513   3.354 -0.4573  0.5145 -0.1718
  244MOL0     C32817   4.233   7.502   3.201 -0.2973 -0.0830 -0.0169
  244MOL0     C32818   4.349   7.578   3.151 -0.9399 -0.0564  0.4882
  244MOL0     C32819   4.352   7.549   3.003 -0.5774  0.4880  0.0598
  244MOL0     C32820   4.474   7.606   2.943  0.1089  0.2563  1.0911
  244MOL0     C32821   4.466   7.594   2.785 -0.4544  0.2261  0.3543
  244MOL0     N32822   4.581   7.664   2.724 -0.0924  0.2444  0.1467
  244MOL0     C32823   4.693   7.603   2.692 -0.5728  0.6794  1.2904
  244MOL0     C32824   4.759   7.688   2.609 -0.1426  0.0329  0.4020
  244MOL0     C32825   4.891   7.684   2.538 -0.0172 -0.6617  0.1869
  244MOL0     C32826   4.977   7.802   2.572  0.0356  0.7978  0.7793
  244MOL0     C32827   5.104   7.805   2.487  0.4779 -0.0738 -0.1525
  244MOL0     C32828   5.214   7.893   2.539  0.5545 -0.8120  0.6092
  244MOL0     O32829   5.340   7.851   2.480 -0.1504  0.1430 -0.2805
  244MOL0     C32830   5.457   7.895   2.542  0.1039 -0.0841 -0.6872
  244MOL0     C32831   5.568   7.819   2.519 -0.0396  0.1912  1.1351
  244MOL0     C32832   5.688   7.851   2.578 -0.1627  0.4014  0.5734
  244MOL0     C32833   5.705   7.966   2.657  0.4261 -0.0982  0.7680
  244MOL0     C32834   5.830   8.004   2.726  0.0026 -0.5138 -0.0281
  244MOL0     O32835   5.936   7.918   2.711 -0.3828  0.3727 -0.0882
  244MOL0     C32836   6.055   7.962   2.758 -0.2388  1.1313  0.1895
  244MOL0     C32837   6.143   8.016   2.670  0.4710  0.8488  1.4090
  244MOL0     C32838   6.266   8.073   2.710 -0.3263 -0.2972 -0.1540
  244MOL0     C32839   6.305   8.061   2.845 -0.0409  0.4726 -0.5579
  244MOL0     O32840   6.430   8.085   2.895  0.1403 -0.3197  0.8490
  244MOL0     C32841   6.480   8.217   2.874  0.6539  0.4667 -0.3381
  244MOL0     C32842   6.417   8.310   2.966 -0.3016 -0.4213  0.5915
  244MOL0     C32843   6.485   8.445   2.982 -0.6065 -0.2469  0.4599
  244MOL0     C32844   6.488   8.539   2.850 -0.5803  0.2358  0.9328
  244MOL0     C32845   6.572   8.670   2.871 -0.0056  0.3833 -0.5835
  244MOL0     C32846   6.617   8.722   2.739 -0.1635 -0.5340  0.3551
  244MOL0     C32847   6.730   8.654   2.664  0.2700 -0.4066  0.0488
  244MOL0     C32848   6.799   8.752   2.564 -0.1370 -0.0028  0.2211
  244MOL0    Cl32849   6.943   8.690   2.478 -0.0594  0.2128 -0.6044
  244MOL0     C32850   6.213   8.006   2.932  0.4314  0.0305 -1.1000
  244MOL0     C32851   6.088   7.952   2.893  0.1661  0.6848 -0.6055
  244MOL0     O32852   5.839   8.113   2.781 -0.0361 -0.4610  0.3624
  244MOL0     C32853   5.590   8.041   2.673  0.3802  0.1489  0.5368
  244MOL0     C32854   5.468   8.011   2.620 -0.0020  0.9337 -0.5889
  244MOL0     N32855   4.677   7.803   2.593  0.0020 -0.0766  0.6214
  244MOL0     N32856   4.575   7.791   2.666 -0.0453 -0.1830  0.0986
  244MOL0     C32857   3.836   7.748   3.344 -0.2139  0.2919  0.1683
  244MOL0     C32858   3.715   7.824   3.335  0.5279 -0.4156 -0.2472
  244MOL0     C32859   3.317   8.003   3.418 -0.2038 -0.5369  0.1174
  244MOL0     C32860   3.306   8.100   3.520 -0.5741  0.2052 -0.8966
  244MOL0     C32861   3.190   8.177   3.537  0.6706 -0.5054  1.0850
  244MOL0     C32862   3.076   8.168   3.455  0.0377  0.1331 -0.4371
  244MOL0     O32863   2.966   8.248   3.474 -0.1501  0.1409 -0.4561
  244MOL0     C32864   2.844   8.226   3.401 -0.7441  0.0624  0.2001
  244MOL0     C32865   2.743   8.311   3.470  0.1554 -0.1664  0.6377
  244MOL0     C32866   2.602   8.257   3.429 -0.7347  0.1582  0.2212
  244MOL0     C32867   2.490   8.326   3.517  0.5252  0.3532  0.5176
  244MOL0     C32868   2.365   8.260   3.493 -0.2057  0.2777 -0.6440
  244MOL0     C32869   2.252   8.223   3.466 -0.6943 -0.2047 -0.1730
  244MOL0     C32870   3.085   8.072   3.354  0.5463 -0.0427  0.3703
  244MOL0     C32871   3.202   7.991   3.334  0.1952 -0.4544 -1.4606
  244MOL0     C32872   3.195   7.901   3.209 -0.1867  0.9117 -0.5901
  244MOL0     H32873   3.656   7.868   3.667 -0.1043  0.5763  0.3584
  244MOL0     H32874   3.863   7.707   3.677  0.7889 -3.5607 -0.3283
  244MOL0     H32875   3.909   7.437   3.450  0.2263  1.2625  1.4418
  244MOL0     H32876   3.964   7.527   3.305 -1.2823  3.1902  0.5485
  244MOL0     H32877   4.122   7.327   3.367  4.7516 -0.1546  1.2065
  244MOL0     H32878   4.133   7.408   3.528 -1.0477  3.8897  0.9559
  244MOL0     H32879   4.329   7.473   3.386 -1.4555 -1.7212  0.1945
  244MOL0     H32880   4.224   7.620   3.378  1.6629  1.0434 -1.4886
  244MOL0     H32881   4.233   7.401   3.160  0.8949  1.1278 -3.3547
  244MOL0     H32882   4.147   7.557   3.160 -0.4926  0.7287  1.3823
  244MOL0     H32883   4.328   7.683   3.173 -0.8613  0.3163 -1.1026
  244MOL0     H32884   4.445   7.548   3.195 -1.4705 -0.4588  1.3862
  244MOL0     H32885   4.333   7.448   2.966  3.1506 -0.5165  0.4010
  244MOL0     H32886   4.278   7.616   2.958  0.1635  1.7509  0.6398
  244MOL0     H32887   4.575   7.574   2.971  2.6666  5.3312 -1.0977
  244MOL0     H32888   4.480   7.711   2.971 -1.1458  0.8650 -0.7757
  244MOL0     H32889   4.470   7.489   2.756  0.5828  0.0450  1.0888
  244MOL0     H32890   4.379   7.637   2.734  0.1998  1.0722 -0.0902
  244MOL0     H32891   4.738   7.510   2.726  1.7765  0.5016 -1.8685
  244MOL0     H32892   4.943   7.592   2.568 -0.1787 -0.6783  0.4241
  244MOL0     H32893   4.875   7.672   2.431  0.1153  1.3257 -0.0956
  244MOL0     H32894   4.918   7.887   2.536  1.9904  0.5766 -3.7105
  244MOL0     H32895   4.997   7.803   2.679 -0.8047  4.1913  1.0375
  244MOL0     H32896   5.073   7.843   2.389 -2.2979  1.3781  1.1784
  244MOL0     H32897   5.148   7.705   2.482  0.4159 -0.4967  4.1347
  244MOL0     H32898   5.205   7.894   2.648 -2.7063  0.8890  0.4534
  244MOL0     H32899   5.199   7.994   2.500  0.3224 -1.9170 -2.4678
  244MOL0     H32900   5.558   7.730   2.458  0.1332  1.2269 -0.4498
  244MOL0     H32901   5.758   7.774   2.547 -0.0161  1.9959 -3.7624
  244MOL0     H32902   6.112   8.025   2.566 -0.5904 -0.6573  1.5609
  244MOL0     H32903   6.322   8.133   2.639 -0.4945  3.8259  2.8292
  244MOL0     H32904   6.587   8.207   2.892  0.6185  0.2418 -0.2431
  244MOL0     H32905   6.469   8.243   2.768  0.8184  1.5476 -0.1056
  244MOL0     H32906   6.312   8.323   2.936  0.5524  0.6385 -2.1771
  244MOL0     H32907   6.424   8.256   3.061 -2.1770 -0.7928  0.5702
  244MOL0     H32908   6.431   8.508   3.054  1.0928  1.7524  0.0551
  244MOL0     H32909   6.591   8.430   3.004 -0.3326  0.6310 -0.1884
  244MOL0     H32910   6.382   8.554   2.826 -0.7289 -2.1726 -0.2215
  244MOL0     H32911   6.525   8.484   2.763 -2.1589  1.7829 -0.8168
  244MOL0     H32912   6.666   8.657   2.924  0.8783  1.4687 -1.8136
  244MOL0     H32913   6.510   8.733   2.936 -1.5915  0.3139 -1.9335
  244MOL0     H32914   6.532   8.727   2.671  0.8573 -0.3204 -0.9299
  244MOL0     H32915   6.640   8.825   2.766 -3.8799  0.0950  1.7953
  244MOL0     H32916   6.698   8.570   2.603  1.9845 -0.6957 -0.4984
  244MOL0     H32917   6.806   8.620   2.735  2.2544 -0.2934 -1.9176
  244MOL0     H32918   6.724   8.771   2.487  0.7877  0.7343 -0.5252
  244MOL0     H32919   6.841   8.839   2.615  0.6623  0.9988 -2.0048
  244MOL0     H32920   6.244   8.002   3.036 -1.9833 -2.7986 -0.3407
  244MOL0     H32921   6.017   7.910   2.964  0.6964 -0.4033 -0.6992
  244MOL0     H32922   5.587   8.134   2.729  1.7998 -0.0620  1.0048
  244MOL0     H32923   5.385   8.079   2.636 -0.5733  0.3939 -1.2222
  244MOL0     H32924   3.886   7.719   3.252  0.2630  0.4270  0.3872
  244MOL0     H32925   3.681   7.865   3.241 -0.5969 -2.0036 -0.5808
  244MOL0     H32926   3.393   8.119   3.582 -1.3837 -0.5277  0.5111
  244MOL0     H32927   3.198   8.254   3.613  0.3449  0.9043 -0.2516
  244MOL0     H32928   2.823   8.119   3.392  1.6233 -0.6402  1.9825
  244MOL0     H32929   2.862   8.255   3.297  1.1702  0.4812  0.5997
  244MOL0     H32930   2.769   8.413   3.441  1.2414 -0.3251  0.9676
  244MOL0     H32931   2.759   8.314   3.578  1.7216 -0.1350  0.4334
  244MOL0     H32932   2.601   8.149   3.447 -1.7075 -0.1191 -1.3251
  244MOL0     H32933   2.586   8.275   3.322 -0.6440 -1.8607 -0.1620
  244MOL0     H32934   2.515   8.299   3.620 -0.2456  4.0164  1.8220
  244MOL0     H32935   2.488   8.433   3.491  4.2192 -0.0168 -2.0109
  244MOL0     H32936   2.152   8.193   3.443 -1.6510  1.2518  1.7715
  244MOL0     H32937   3.004   8.060   3.283  1.6936  2.6847 -1.5765
  244MOL0     H32938   3.175   7.797   3.238 -1.3263  1.4991  0.8865
  244MOL0     H32939   3.100   7.919   3.157 -0.7968 -3.0278 -1.1987
  244MOL0     H32940   3.278   7.908   3.139 -0.7144 -0.8594 -1.4434
  245MOL0     O32941   2.414   6.910   3.656  0.1258 -0.3215 -0.3996
  245MOL0     C32942   2.363   6.813   3.610 -0.5342  0.0579  0.9095
  245MOL0     O32943   2.409   6.751   3.495 -0.1366  0.1473  0.0176
  245MOL0     C32944   2.483   6.821   3.406 -0.6812 -0.5487 -0.1806
  245MOL0     C32945   2.435   6.815   3.274 -0.2274  0.4208  0.5732
  245MOL0     C32946   2.503   6.889   3.176 -0.1140 -0.2496  0.2248
  245MOL0     C32947   2.623   6.960   3.198 -0.0538  0.0130  0.2500
  245MOL0     O32948   2.703   7.023   3.106  1.0699 -0.0432  1.1914
  245MOL0     C32949   2.664   6.993   2.970  0.6502  0.5335  0.0776
  245MOL0     C32950   2.772   7.052   2.882  0.5471  0.2914 -0.0394
  245MOL0     C32951   2.886   6.951   2.875 -0.7535 -0.3191  0.4982
  245MOL0     C32952   2.991   7.013   2.786  1.5398  0.1528 -0.0586
  245MOL0     C32953   3.113   6.926   2.756  0.1195 -0.4852 -0.6527
  245MOL0     C32954   3.081   6.825   2.647 -0.2182 -0.0547 -0.0663
  245MOL0     C32955   3.210   6.748   2.613  0.1367  0.1097 -0.9890
  245MOL0     C32956   3.197   6.648   2.497  0.2332 -0.4326 -0.0218
  245MOL0     N32957   3.330   6.584   2.466 -0.0684 -0.2691 -0.3258
  245MOL0     C32958   3.396   6.494   2.559  0.0457 -0.2583  0.8415
  245MOL0     C32959   3.516   6.478   2.507  0.0166 -0.4785 -0.5026
  245MOL0     C32960   3.624   6.395   2.581 -0.2970  1.3120  0.3937
  245MOL0     C32961   3.759   6.465   2.607 -0.2219 -0.4319  0.4854
  245MOL0     C32962   3.872   6.365   2.633 -0.2047 -0.0446  1.1720
  245MOL0     C32963   4.004   6.434   2.675  0.7519 -0.1715  0.7127
  245MOL0     O32964   4.048   6.510   2.560  0.3931  0.3501  0.2121
  245MOL0     C32965   4.185   6.535   2.539  0.5934  0.3966 -0.3544
  245MOL0     C32966   4.284   6.501   2.635 -0.4640 -0.5045  0.1307
  245MOL0     C32967   4.425   6.524   2.617 -0.5090 -0.0482 -0.3495
  245MOL0     C32968   4.470   6.561   2.487  0.3314 -0.2195  0.1368
  245MOL0     C32969   4.612   6.579   2.455 -0.8841  0.6651  0.9601
  245MOL0     O32970   4.714   6.558   2.550  0.3436 -0.0524  0.0352
  245MOL0     C32971   4.847   6.601   2.534  0.8418  0.2229 -0.3667
  245MOL0     C32972   4.902   6.703   2.455  0.4897  0.7514 -0.7851
  245MOL0     C32973   5.042   6.729   2.462  0.5914 -0.3021  0.4103
  245MOL0     C32974   5.134   6.665   2.548 -0.2787  0.4510 -0.6664
  245MOL0     O32975   5.264   6.708   2.537  0.0809 -0.0135 -0.4442
  245MOL0     C32976   5.378   6.635   2.601  0.3902  0.0887 -0.0053
  245MOL0     C32977   5.511   6.666   2.549  0.9850  0.7539  0.2747
  245MOL0     C32978   5.622   6.585   2.620 -0.6802 -0.0799 -0.0693
  245MOL0     C32979   5.757   6.630   2.571  0.2131  0.0170  1.2807
  245MOL0     C32980   5.873   6.569   2.648  0.0783 -0.3644 -0.4770
  245MOL0     C32981   6.008   6.565   2.570  0.2679 -0.5262 -0.3255
  245MOL0     C32982   6.037   6.682   2.476  0.0201  0.1033 -0.5951
  245MOL0     C32983   6.098   6.800   2.564 -0.1356  0.5508  0.4283
  245MOL0    Cl32984   5.970   6.893   2.643 -0.0046 -0.1156  0.1799
  245MOL0     C32985   5.076   6.571   2.637  0.1359  0.0815  0.7624
  245MOL0     C32986   4.935   6.540   2.627 -0.0792  0.2255 -0.0896
  245MOL0     O32987   4.632   6.637   2.347  0.2563  0.2807  0.6804
  245MOL0     C32988   4.369   6.598   2.390  0.0975  0.2802  0.0010
  245MOL0     C32989   4.234   6.580   2.412 -0.5182 -0.5656 -0.1736
  245MOL0     N32990   3.535   6.562   2.397 -0.5381  0.3173  0.2135
  245MOL0     N32991   3.428   6.618   2.375 -0.3387 -0.9629  0.0127
  245MOL0     C32992   2.672   6.955   3.331  0.1428  0.0517 -0.2513
  245MOL0     C32993   2.606   6.886   3.433  0.5538 -0.4275  0.4773
  245MOL0     C32994   2.248   6.733   3.674  0.6670 -0.3018  0.6104
  245MOL0     C32995   2.218   6.598   3.641 -0.0325  0.6621  0.5729
  245MOL0     C32996   2.105   6.539   3.689  0.2279 -0.2226 -0.2172
  245MOL0     C32997   2.029   6.599   3.783  0.0021 -0.4224 -0.1740
  245MOL0     O32998   1.917   6.531   3.815  0.4459  0.2791 -0.1561
  245MOL0     C32999   1.883   6.536   3.959  0.8785 -0.3589 -0.7169
  245MOL0     C33000   1.746   6.597   3.995  0.1636  0.3982  0.2981
  245MOL0     C33001   1.640   6.546   3.897  0.0370  0.2698  0.0113
  245MOL0     C33002   1.502   6.618   3.924 -0.3434 -0.1169  0.1447
  245MOL0     C33003   1.518   6.766   3.890 -0.2906  0.9341 -0.8542
  245MOL0     C33004   1.515   6.876   3.855 -0.2870 -0.3385  0.7789
  245MOL0     C33005   2.059   6.727   3.825 -0.1684  0.0310 -0.2140
  245MOL0     C33006   2.162   6.796   3.768 -0.3757 -0.4982 -0.2524
  245MOL0     C33007   2.195   6.930   3.837 -0.2060 -0.7736  0.0446
  245MOL0     H33008   2.350   6.757   3.241  0.7210 -0.2097 -0.8900
  245MOL0     H33009   2.456   6.887   3.078 -0.3285 -0.4999  0.3309
  245MOL0     H33010   2.652   6.887   2.943  1.3678  0.8485 -1.5562
  245MOL0     H33011   2.564   7.030   2.948  0.1939 -0.9911 -0.5548
  245MOL0     H33012   2.796   7.152   2.921 -1.9455 -0.0410  2.7209
  245MOL0     H33013   2.743   7.064   2.777 -0.0602 -1.7663 -0.1450
  245MOL0     H33014   2.853   6.856   2.833 -2.5679 -0.1163  1.3789
  245MOL0     H33015   2.937   6.932   2.969  0.7160  2.6514  0.4332
  245MOL0     H33016   2.943   7.044   2.693  0.2906  1.3160  0.9168
  245MOL0     H33017   3.026   7.095   2.850 -0.7045  0.4136  0.9561
  245MOL0     H33018   3.195   6.991   2.726 -0.1682 -0.4672 -1.4108
  245MOL0     H33019   3.141   6.881   2.852  2.0886 -0.7479 -1.3081
  245MOL0     H33020   3.006   6.755   2.685  1.9417 -2.8427 -0.6897
  245MOL0     H33021   3.045   6.876   2.557 -1.3954 -1.4147 -0.3998
  245MOL0     H33022   3.240   6.700   2.707 -3.4243  2.6610  1.7207
  245MOL0     H33023   3.286   6.816   2.573  0.1278  1.0233  0.4604
  245MOL0     H33024   3.116   6.577   2.515  1.2092 -1.8439 -0.9738
  245MOL0     H33025   3.183   6.702   2.403  1.2040 -2.0314 -1.1363
  245MOL0     H33026   3.357   6.457   2.653  1.1877 -1.0977  0.9983
  245MOL0     H33027   3.589   6.356   2.677  0.7663 -4.2141 -1.0909
  245MOL0     H33028   3.652   6.309   2.519  2.5935  2.2004  0.3363
  245MOL0     H33029   3.783   6.524   2.518  0.7487 -1.2884  0.1613
  245MOL0     H33030   3.750   6.527   2.697 -0.2045  0.5564 -0.1820
  245MOL0     H33031   3.886   6.310   2.540 -1.9700  3.2405 -1.2154
  245MOL0     H33032   3.847   6.303   2.720 -1.4726  1.5414  1.9826
  245MOL0     H33033   4.070   6.350   2.698 -0.4083 -1.5661 -0.8512
  245MOL0     H33034   3.977   6.497   2.760 -3.0905 -0.4013 -0.1903
  245MOL0     H33035   4.255   6.481   2.738 -1.1263 -1.2076 -0.1823
  245MOL0     H33036   4.500   6.506   2.694  1.2642 -0.6411 -2.1124
  245MOL0     H33037   4.832   6.763   2.397 -1.8165  0.0191  1.0729
  245MOL0     H33038   5.078   6.813   2.404  2.1120  0.3763  2.2309
  245MOL0     H33039   5.382   6.645   2.710  3.4194  0.3483 -0.0567
  245MOL0     H33040   5.361   6.527   2.589  0.4016 -0.1515  1.8182
  245MOL0     H33041   5.504   6.625   2.448 -0.1354 -2.0345  1.3828
  245MOL0     H33042   5.537   6.769   2.573 -1.5501  1.6982 -0.6911
  245MOL0     H33043   5.616   6.608   2.727 -3.9215  1.7735 -0.5126
  245MOL0     H33044   5.619   6.477   2.606  0.4929  0.0329 -1.4957
  245MOL0     H33045   5.757   6.739   2.571 -1.1438  0.0500  0.0413
  245MOL0     H33046   5.769   6.598   2.467  3.3277 -1.0752  1.8638
  245MOL0     H33047   5.837   6.468   2.669 -1.9227  0.1347 -1.2881
  245MOL0     H33048   5.888   6.612   2.748 -1.1948 -2.5265  0.7208
  245MOL0     H33049   6.089   6.538   2.638 -2.0095 -1.5143  2.1635
  245MOL0     H33050   6.002   6.480   2.502  0.5680 -1.6709  1.0274
  245MOL0     H33051   5.949   6.712   2.419  1.6571 -0.3437 -3.5758
  245MOL0     H33052   6.117   6.646   2.410 -0.4969 -0.7385 -0.7702
  245MOL0     H33053   6.163   6.771   2.646 -1.3685 -0.9727  0.9166
  245MOL0     H33054   6.150   6.873   2.501 -1.5199  2.0805  1.0021
  245MOL0     H33055   5.146   6.520   2.703  1.7219 -1.2158 -1.7390
  245MOL0     H33056   4.892   6.462   2.688  2.3336 -0.0774  1.3397
  245MOL0     H33057   4.386   6.644   2.294 -0.7188 -0.9555 -0.7670
  245MOL0     H33058   4.170   6.609   2.330  0.8299  1.4099 -0.6105
  245MOL0     H33059   2.752   7.026   3.347  1.0394 -0.7937 -0.8364
  245MOL0     H33060   2.642   6.887   3.536 -0.7766  4.2080  1.1351
  245MOL0     H33061   2.284   6.547   3.571 -1.4774  0.8207 -0.9473
  245MOL0     H33062   2.069   6.438   3.668  0.4646 -0.5383  0.8322
  245MOL0     H33063   1.961   6.579   4.022  1.3846  0.0415 -1.5959
  245MOL0     H33064   1.878   6.428   3.973  2.3503 -0.1527  2.2453
  245MOL0     H33065   1.748   6.706   3.987 -1.7287  0.3642 -1.6243
  245MOL0     H33066   1.712   6.575   4.096 -0.1094 -1.8338 -0.2195
  245MOL0     H33067   1.628   6.439   3.917 -2.3433  0.1409 -1.6460
  245MOL0     H33068   1.665   6.572   3.794  1.8162 -0.5456  0.2084
  245MOL0     H33069   1.415   6.573   3.876 -1.4095  0.7794  1.1513
  245MOL0     H33070   1.483   6.606   4.031  2.3503  1.1610  0.8607
  245MOL0     H33071   1.501   6.980   3.833 -1.8716 -0.2245  2.0970
  245MOL0     H33072   2.000   6.775   3.902 -0.3345 -1.0715  0.3597
  245MOL0     H33073   2.302   6.929   3.859  0.1675 -2.8626 -1.5656
  245MOL0     H33074   2.172   7.013   3.769  2.0998 -0.4628 -0.4243
  245MOL0     H33075   2.134   6.950   3.925  0.0410  0.5811 -0.0738
  246MOL0     O33076   4.907   5.482  10.547  0.7641 -0.0834 -0.3682
  246MOL0     C33077   4.845   5.414  10.632  0.2000 -0.0425 -0.4496
  246MOL0     O33078   4.905   5.365  10.744 -0.2218 -0.6059 -0.2283
  246MOL0     C33079   5.026   5.419  10.791 -0.7160  0.5356 -0.0898
  246MOL0     C33080   5.139   5.337  10.782 -0.1358 -0.2785  0.2736
  246MOL0     C33081   5.257   5.367  10.840 -0.2217 -0.2970 -0.5642
  246MOL0     C33082   5.276   5.483  10.909  0.0596 -0.5059 -0.3669
  246MOL0     O33083   5.396   5.521  10.966  0.0682  0.0570  0.1465
  246MOL0     C33084   5.495   5.428  11.005 -0.0510  0.8629 -0.1731
  246MOL0     C33085   5.611   5.503  11.080  0.6489  0.0841 -0.4560
  246MOL0     C33086   5.726   5.393  11.084 -0.0971  0.0057  0.5108
  246MOL0     C33087   5.830   5.439  11.190  0.5241  0.4018  0.1685
  246MOL0     C33088   5.938   5.329  11.202 -0.5867  0.5696 -0.2896
  246MOL0     C33089   6.046   5.378  11.305 -0.0193  0.0251  0.3026
  246MOL0     C33090   6.152   5.278  11.313  0.2115  0.6132  0.4025
  246MOL0     C33091   6.274   5.308  11.408 -0.0344  0.2762  0.7419
  246MOL0     N33092   6.366   5.191  11.428  0.0180 -0.2379  0.1220
  246MOL0     C33093   6.366   5.068  11.361  0.0516  0.2743  0.0188
  246MOL0     C33094   6.482   5.011  11.412  0.0327  0.4536 -0.2871
  246MOL0     C33095   6.542   4.882  11.362  0.7686  0.5209  0.1648
  246MOL0     C33096   6.640   4.897  11.252 -0.1421 -0.8204  0.4770
  246MOL0     C33097   6.577   4.922  11.114 -0.3447 -0.1203  0.1570
  246MOL0     C33098   6.491   4.807  11.066  0.5491 -0.3246 -0.7343
  246MOL0     O33099   6.417   4.826  10.948  0.7141 -0.6815 -0.0526
  246MOL0     C33100   6.282   4.787  10.946 -0.2683  0.1621  0.4838
  246MOL0     C33101   6.239   4.706  10.841  0.0026  0.0114  0.0391
  246MOL0     C33102   6.099   4.685  10.824  0.7773 -0.2165 -0.4111
  246MOL0     C33103   6.007   4.742  10.917 -0.3761  0.0296 -0.0003
  246MOL0     C33104   5.861   4.715  10.911 -0.0929  0.1521 -0.3913
  246MOL0     O33105   5.831   4.612  10.837  0.0729 -0.4988  0.4754
  246MOL0     C33106   5.702   4.563  10.824 -0.7741  0.1499 -0.0812
  246MOL0     C33107   5.662   4.527  10.699  0.1158  0.1122  0.0191
  246MOL0     C33108   5.536   4.473  10.671  0.3762 -1.0105 -0.0283
  246MOL0     C33109   5.444   4.465  10.782 -0.4513 -0.1724  0.2497
  246MOL0     O33110   5.307   4.441  10.754 -0.6180  0.3057 -0.1017
  246MOL0     C33111   5.204   4.449  10.856  0.2511  0.3231 -0.9930
  246MOL0     C33112   5.055   4.428  10.799 -0.3133 -0.1127  0.0293
  246MOL0     C33113   4.938   4.424  10.902  0.3078 -0.8440 -0.2446
  246MOL0     C33114   4.945   4.325  11.018 -0.2599 -0.1037 -0.5138
  246MOL0     C33115   4.813   4.334  11.111 -0.2775  0.2455  0.0413
  246MOL0     C33116   4.822   4.249  11.228  0.1261 -0.0666  1.0417
  246MOL0     C33117   4.693   4.259  11.312  0.4034 -0.0623  0.1234
  246MOL0     C33118   4.555   4.221  11.252 -0.2496  1.4870  0.2170
  246MOL0    Cl33119   4.501   4.338  11.147  0.1425 -0.0129 -0.0968
  246MOL0     C33120   5.492   4.493  10.910 -0.3320  0.5727 -0.3279
  246MOL0     C33121   5.623   4.540  10.931 -0.4914  0.6711 -0.3100
  246MOL0     O33122   5.776   4.779  10.976  0.3251  0.5063 -0.3775
  246MOL0     C33123   6.057   4.838  11.012  0.2156  0.0856  0.1511
  246MOL0     C33124   6.193   4.863  11.015 -0.1373  0.5922 -0.2567
  246MOL0     N33125   6.543   5.095  11.496 -0.4021 -0.6803  0.1233
  246MOL0     N33126   6.473   5.200  11.509 -0.0576 -0.2162 -0.0976
  246MOL0     C33127   5.169   5.572  10.918  0.4705  0.3120  0.8074
  246MOL0     C33128   5.045   5.549  10.850 -0.3187  1.7643 -0.9734
  246MOL0     C33129   4.704   5.384  10.609 -0.3859  1.3006 -0.4566
  246MOL0     C33130   4.675   5.337  10.480 -0.9418 -0.4917  0.8213
  246MOL0     C33131   4.548   5.307  10.432 -0.7164  0.0311  0.0193
  246MOL0     C33132   4.440   5.345  10.513  0.0855 -0.3278 -0.3122
  246MOL0     O33133   4.308   5.337  10.462  0.5506  0.1206 -0.7441
  246MOL0     C33134   4.192   5.354  10.550  0.9682 -0.1982 -0.4548
  246MOL0     C33135   4.074   5.335  10.465  0.7037 -0.0290  1.0832
  246MOL0     C33136   3.954   5.318  10.567  0.2657  0.9893  0.6029
  246MOL0     C33137   3.822   5.297  10.495  0.7534  0.4549 -0.7392
  246MOL0     C33138   3.717   5.269  10.585  0.2303  0.5253  0.9950
  246MOL0     C33139   3.641   5.236  10.671  0.0055  0.1053  0.0946
  246MOL0     C33140   4.467   5.387  10.647  0.0872  0.5837 -0.3393
  246MOL0     C33141   4.598   5.389  10.700  0.3040  1.1396 -0.0544
  246MOL0     C33142   4.614   5.425  10.844 -0.2087 -0.8474 -0.0491
  246MOL0     H33143   5.132   5.241  10.733  2.4339 -1.7897  2.5963
  246MOL0     H33144   5.340   5.297  10.844  1.2975  1.4147 -0.7834
  246MOL0     H33145   5.451   5.349  11.067  0.1173  0.7238 -0.2319
  246MOL0     H33146   5.532   5.391  10.910 -0.7020  0.3832 -0.2491
  246MOL0     H33147   5.580   5.535  11.180  1.1930 -1.2632  0.1708
  246MOL0     H33148   5.651   5.590  11.027 -1.0319 -0.0039 -1.9439
  246MOL0     H33149   5.766   5.388  10.983 -2.4945 -2.0487 -0.4338
  246MOL0     H33150   5.691   5.292  11.107  0.1261  0.1740  1.6563
  246MOL0     H33151   5.868   5.539  11.165  2.2801 -0.5461 -1.1834
  246MOL0     H33152   5.775   5.449  11.284  0.9516  0.5199  0.4100
  246MOL0     H33153   5.901   5.238  11.250  0.9630  0.3822  0.5959
  246MOL0     H33154   5.975   5.301  11.103  0.5377  3.4981 -0.8169
  246MOL0     H33155   6.093   5.470  11.268 -0.5213 -0.4675 -1.6723
  246MOL0     H33156   6.009   5.402  11.405  2.9681 -0.6119  1.6737
  246MOL0     H33157   6.198   5.279  11.214  2.8198  2.4076  1.5311
  246MOL0     H33158   6.110   5.181  11.343  1.3855  0.7389  2.6086
  246MOL0     H33159   6.336   5.391  11.371  2.3541 -1.4724  0.6625
  246MOL0     H33160   6.241   5.353  11.502  2.4802 -0.1582  1.9123
  246MOL0     H33161   6.290   5.038  11.290  0.7918 -1.0288 -0.2589
  246MOL0     H33162   6.585   4.853  11.459  2.5183 -0.8804 -0.9552
  246MOL0     H33163   6.466   4.806  11.343  0.2769  0.5341  1.8760
  246MOL0     H33164   6.711   4.977  11.274 -1.9252  0.7433  0.8407
  246MOL0     H33165   6.698   4.807  11.232  1.6878  0.6523 -1.2601
  246MOL0     H33166   6.661   4.940  11.046 -1.0738  0.1530 -0.6967
  246MOL0     H33167   6.506   5.005  11.129  0.2089  0.1403  1.4709
  246MOL0     H33168   6.418   4.783  11.144  0.0690  1.3441 -0.6298
  246MOL0     H33169   6.550   4.715  11.068  1.1934 -0.0240  3.4088
  246MOL0     H33170   6.309   4.675  10.764 -0.8628  0.1540 -0.8227
  246MOL0     H33171   6.050   4.628  10.746  1.9929  0.3352 -1.6233
  246MOL0     H33172   5.738   4.543  10.623 -1.0067  1.0377 -0.9605
  246MOL0     H33173   5.506   4.446  10.570  0.9734  0.2015 -0.5556
  246MOL0     H33174   5.231   4.381  10.938  1.3739  1.2742 -0.5445
  246MOL0     H33175   5.208   4.546  10.908 -1.0514 -0.3884  0.5191
  246MOL0     H33176   5.033   4.514  10.736  1.0195  0.7172  0.6349
  246MOL0     H33177   5.048   4.337  10.739 -4.7008 -1.2911  1.9209
  246MOL0     H33178   4.922   4.523  10.947  2.7814 -0.7094  0.4677
  246MOL0     H33179   4.852   4.407  10.837 -0.7395  0.5479  0.7027
  246MOL0     H33180   5.026   4.366  11.079 -2.0052  2.6797  0.1032
  246MOL0     H33181   4.967   4.222  10.987  1.9853  0.0598  0.3752
  246MOL0     H33182   4.722   4.308  11.056 -0.1187 -0.0082 -0.1054
  246MOL0     H33183   4.799   4.433  11.155 -0.0679 -2.1433  6.7635
  246MOL0     H33184   4.841   4.147  11.194  0.8624 -0.0472  1.3742
  246MOL0     H33185   4.908   4.282  11.288 -0.2549  0.8780  1.0956
  246MOL0     H33186   4.684   4.358  11.357 -2.3163 -0.3747  0.4085
  246MOL0     H33187   4.714   4.188  11.393  2.0619  0.6152  0.3224
  246MOL0     H33188   4.556   4.121  11.207 -2.2034  1.7242 -0.4435
  246MOL0     H33189   4.484   4.213  11.335  1.9302 -1.9576  1.9967
  246MOL0     H33190   5.424   4.490  10.994  0.9671  0.5102  0.7586
  246MOL0     H33191   5.663   4.551  11.031  0.2372  1.5200 -0.6783
  246MOL0     H33192   5.993   4.897  11.077 -0.3401  0.2267 -0.5116
  246MOL0     H33193   6.234   4.937  11.084  0.8726 -0.7099  0.5735
  246MOL0     H33194   5.172   5.668  10.969  0.4616  2.3541 -2.6905
  246MOL0     H33195   4.969   5.625  10.864 -2.9369 -1.0326  1.5332
  246MOL0     H33196   4.747   5.339  10.399  1.3854 -1.9792  2.6928
  246MOL0     H33197   4.539   5.259  10.335 -3.2095 -3.5525  1.7942
  246MOL0     H33198   4.184   5.460  10.576 -0.5488 -0.5524  0.6495
  246MOL0     H33199   4.194   5.294  10.642 -0.4516  0.5777  0.1030
  246MOL0     H33200   4.099   5.256  10.394  0.1698  0.7359  0.0158
  246MOL0     H33201   4.055   5.421  10.400 -1.3358  0.1186  1.8081
  246MOL0     H33202   3.947   5.404  10.635  0.2155  2.2745 -0.9901
  246MOL0     H33203   3.989   5.238  10.633  2.7065  0.5571 -1.1034
  246MOL0     H33204   3.805   5.389  10.439 -0.1749 -0.4911 -2.0876
  246MOL0     H33205   3.834   5.222  10.416 -3.9724 -1.3492 -0.0441
  246MOL0     H33206   3.580   5.221  10.759  1.4099  2.7362  1.6369
  246MOL0     H33207   4.388   5.416  10.716  2.0031  0.0080  2.2830
  246MOL0     H33208   4.703   5.377  10.885  0.7461  0.7561 -0.1561
  246MOL0     H33209   4.629   5.533  10.856  1.0820 -0.9007 -0.9118
  246MOL0     H33210   4.534   5.394  10.911  0.2394 -1.7945  0.0697
  247MOL0     O33211   2.256   1.370   3.003  0.1876 -0.7754  0.5422
  247MOL0     C33212   2.237   1.449   3.101 -0.2257  0.2098 -0.7332
  247MOL0     O33213   2.315   1.460   3.215  0.6276 -0.1425  0.0733
  247MOL0     C33214   2.427   1.389   3.219 -0.1368  0.6471  0.4998
  247MOL0     C33215   2.426   1.253   3.264 -0.4987 -0.2704  0.3289
  247MOL0     C33216   2.548   1.180   3.280  0.0807 -0.7291 -0.3017
  247MOL0     C33217   2.672   1.244   3.247  0.8793 -0.4587 -0.2492
  247MOL0     O33218   2.782   1.173   3.278 -0.1311 -0.6197  0.2149
  247MOL0     C33219   2.909   1.234   3.277  0.9622  0.0548  0.1850
  247MOL0     C33220   2.938   1.302   3.409 -0.2366  0.2790  0.7188
  247MOL0     C33221   3.083   1.366   3.415 -0.1310  0.0655  0.8539
  247MOL0     C33222   3.100   1.424   3.551 -0.3814 -0.1558  0.2914
  247MOL0     C33223   3.238   1.492   3.576  0.1251 -0.5855  0.5211
  247MOL0     C33224   3.252   1.538   3.718 -0.0982 -0.6670  0.3480
  247MOL0     C33225   3.386   1.603   3.737 -0.3869  0.1057  0.5640
  247MOL0     C33226   3.395   1.692   3.863 -0.5924  0.1479 -0.6851
  247MOL0     N33227   3.515   1.767   3.887 -0.5026  0.2222  0.4042
  247MOL0     C33228   3.639   1.720   3.927 -0.7302  0.0739  0.2265
  247MOL0     C33229   3.733   1.823   3.924  0.6364  0.2148 -0.4657
  247MOL0     C33230   3.872   1.823   3.975 -0.5476 -0.0414 -0.2729
  247MOL0     C33231   3.975   1.764   3.870 -0.0668 -0.3959 -0.2909
  247MOL0     C33232   3.958   1.825   3.730 -0.5256 -0.0328 -0.0187
  247MOL0     C33233   4.001   1.969   3.728  0.1521 -0.1623  0.4636
  247MOL0     O33234   4.107   1.989   3.818  0.1658  0.0591  0.5217
  247MOL0     C33235   4.239   1.983   3.767  0.1600  0.5042  0.2418
  247MOL0     C33236   4.285   1.901   3.654  0.4306 -0.5200  0.5760
  247MOL0     C33237   4.424   1.901   3.625  0.4987  0.2062  0.1115
  247MOL0     C33238   4.511   1.999   3.684 -0.3784  0.7254 -0.2620
  247MOL0     C33239   4.651   2.015   3.645 -0.7021  0.0763  0.0413
  247MOL0     O33240   4.730   2.095   3.720  0.3133 -0.3905 -0.4383
  247MOL0     C33241   4.866   2.103   3.692  0.3847  0.1398  0.9147
  247MOL0     C33242   4.904   2.143   3.560 -0.0011 -0.1138  0.0125
  247MOL0     C33243   5.041   2.142   3.524  0.1965  0.6335 -0.1896
  247MOL0     C33244   5.141   2.115   3.615  1.0495 -0.5383 -0.5882
  247MOL0     O33245   5.266   2.127   3.564 -0.2665  0.4179 -0.6407
  247MOL0     C33246   5.385   2.109   3.640 -0.6474 -0.1127 -0.6417
  247MOL0     C33247   5.431   2.229   3.732 -0.0438  0.4909  0.2296
  247MOL0     C33248   5.565   2.191   3.784 -0.5078 -0.1795  0.1092
  247MOL0     C33249   5.598   2.286   3.900  0.5128 -0.3964  0.3972
  247MOL0     C33250   5.717   2.227   3.971 -0.2934 -0.8437  0.2416
  247MOL0     C33251   5.855   2.230   3.897 -0.2158  0.4069  0.1116
  247MOL0     C33252   5.960   2.184   4.003  0.7104 -1.0296  0.0771
  247MOL0     C33253   6.090   2.126   3.947  0.0402  0.2796 -0.4941
  247MOL0    Cl33254   6.195   2.245   3.868  0.2352 -0.1368 -0.2358
  247MOL0     C33255   5.110   2.084   3.751 -0.1792  0.0054  0.5859
  247MOL0     C33256   4.972   2.070   3.775 -0.2585 -0.4265 -0.0261
  247MOL0     O33257   4.689   1.945   3.549 -0.5714  0.2592  0.1035
  247MOL0     C33258   4.461   2.074   3.782  0.6198 -0.3937  0.7844
  247MOL0     C33259   4.330   2.061   3.828 -0.1710 -0.0926  0.1072
  247MOL0     N33260   3.657   1.938   3.886  0.3637 -0.0816 -0.3229
  247MOL0     N33261   3.536   1.901   3.865  0.0014  0.1046  0.1115
  247MOL0     C33262   2.668   1.377   3.202  1.1635  0.6632 -0.0680
  247MOL0     C33263   2.545   1.447   3.186 -0.5170 -0.3781 -0.5301
  247MOL0     C33264   2.121   1.538   3.085 -0.8900  0.4053 -0.0640
  247MOL0     C33265   2.021   1.494   2.996  0.4791 -0.4297 -0.1207
  247MOL0     C33266   1.909   1.578   2.970 -0.1475  0.2680  0.1044
  247MOL0     C33267   1.898   1.695   3.031  0.1561 -0.3082 -0.3773
  247MOL0     O33268   1.784   1.755   2.985  0.4304 -0.7252  0.6055
  247MOL0     C33269   1.759   1.899   3.007 -0.6903  0.0044  0.7721
  247MOL0     C33270   1.640   1.955   2.925 -0.6038  0.4690  0.0076
  247MOL0     C33271   1.655   1.970   2.776  0.3024  0.1212 -0.1950
  247MOL0     C33272   1.793   2.029   2.742  0.5359 -0.3101  0.3085
  247MOL0     C33273   1.792   2.057   2.603  0.7426  0.5612  1.0034
  247MOL0     C33274   1.788   2.083   2.480 -0.2087  0.2315 -0.3027
  247MOL0     C33275   1.997   1.744   3.115  0.3078 -0.6185 -0.3304
  247MOL0     C33276   2.113   1.667   3.140  0.2088  0.5758  0.1301
  247MOL0     C33277   2.223   1.738   3.233 -0.3151  0.7317 -0.7327
  247MOL0     H33278   2.336   1.200   3.293 -1.1212  0.8112  0.4279
  247MOL0     H33279   2.545   1.079   3.318  0.7589 -0.6147  0.0697
  247MOL0     H33280   2.986   1.159   3.259  2.8338  2.2286 -1.6286
  247MOL0     H33281   2.912   1.298   3.188 -2.8509 -0.0496 -0.2013
  247MOL0     H33282   2.935   1.224   3.485  1.3246  0.1548  0.6945
  247MOL0     H33283   2.860   1.372   3.440 -2.3598 -1.0293 -1.3213
  247MOL0     H33284   3.086   1.444   3.339 -1.7146 -0.3414  0.3464
  247MOL0     H33285   3.154   1.288   3.385 -1.3684 -0.3612 -1.1397
  247MOL0     H33286   3.007   1.480   3.568 -0.4917  0.3920 -1.7237
  247MOL0     H33287   3.084   1.345   3.624  0.4624  0.8964  1.6647
  247MOL0     H33288   3.316   1.424   3.540 -1.9797 -1.9404 -1.7500
  247MOL0     H33289   3.247   1.578   3.509 -0.2048  1.2451  2.7017
  247MOL0     H33290   3.167   1.601   3.743 -1.2615 -0.7484 -2.9351
  247MOL0     H33291   3.257   1.453   3.787  1.4863 -1.2378 -0.4005
  247MOL0     H33292   3.406   1.666   3.650 -1.1244 -0.5141 -0.0675
  247MOL0     H33293   3.462   1.525   3.742 -0.9145 -0.3207  2.8441
  247MOL0     H33294   3.311   1.760   3.849  0.5103  1.2037 -2.5591
  247MOL0     H33295   3.360   1.638   3.952  2.6808  0.8709  1.1826
  247MOL0     H33296   3.660   1.616   3.949  1.9254  1.0772  3.2825
  247MOL0     H33297   3.902   1.922   4.010  0.1209 -1.1061  2.4507
  247MOL0     H33298   3.887   1.760   4.063  0.5491 -3.5696 -2.7718
  247MOL0     H33299   4.075   1.776   3.912 -0.4269  0.1746  0.4052
  247MOL0     H33300   3.949   1.658   3.855 -1.4202 -0.0905 -0.2126
  247MOL0     H33301   3.856   1.818   3.692 -0.2056 -2.7412 -0.6012
  247MOL0     H33302   4.031   1.763   3.677  1.1123  0.5267  1.5029
  247MOL0     H33303   3.920   2.037   3.756 -1.1341 -1.8450  0.9403
  247MOL0     H33304   4.029   1.993   3.625 -0.8595 -3.2565 -0.6446
  247MOL0     H33305   4.221   1.830   3.603 -0.6662  0.7413  0.1420
  247MOL0     H33306   4.465   1.828   3.557 -1.9095 -2.6799  1.5173
  247MOL0     H33307   4.840   2.185   3.483  1.3981  0.5611 -0.8186
  247MOL0     H33308   5.072   2.164   3.422  0.0432  2.6431  0.1495
  247MOL0     H33309   5.374   2.019   3.702  0.6502 -1.7133 -2.6245
  247MOL0     H33310   5.461   2.094   3.564  1.8801 -0.4354  1.7803
  247MOL0     H33311   5.439   2.317   3.668  0.0798 -0.9962 -1.9480
  247MOL0     H33312   5.355   2.232   3.810  1.9331 -3.1875  2.5951
  247MOL0     H33313   5.559   2.085   3.811  0.4143 -0.2150  0.2272
  247MOL0     H33314   5.652   2.194   3.717 -0.0673 -3.7587  0.3259
  247MOL0     H33315   5.513   2.306   3.965 -0.1729 -1.0952 -0.2707
  247MOL0     H33316   5.636   2.381   3.862 -1.8528  0.8489  0.9708
  247MOL0     H33317   5.699   2.126   4.008 -2.8324  0.1923  2.0869
  247MOL0     H33318   5.727   2.292   4.058 -0.7756 -1.6038  0.8839
  247MOL0     H33319   5.860   2.163   3.811 -0.1362  1.2211 -0.5336
  247MOL0     H33320   5.873   2.324   3.844 -1.0239  0.2611 -0.4515
  247MOL0     H33321   5.902   2.106   4.052 -0.5782 -1.6553 -2.2579
  247MOL0     H33322   5.983   2.262   4.077 -1.2151 -0.0918 -0.2302
  247MOL0     H33323   6.140   2.078   4.032  0.1406  0.3077 -0.5382
  247MOL0     H33324   6.071   2.050   3.871  3.3410 -1.2062  0.0166
  247MOL0     H33325   5.180   2.044   3.823 -0.6241 -1.4841  0.2177
  247MOL0     H33326   4.953   2.024   3.872  2.0328 -1.6644 -0.0919
  247MOL0     H33327   4.521   2.142   3.842  1.3528 -1.9394  1.8714
  247MOL0     H33328   4.294   2.127   3.907  2.3323 -0.2046  1.4443
  247MOL0     H33329   2.759   1.435   3.193  1.9161 -0.4480  0.1298
  247MOL0     H33330   2.553   1.551   3.157 -0.8804 -0.8230 -2.3629
  247MOL0     H33331   2.021   1.409   2.928  1.1474  1.6522 -2.9335
  247MOL0     H33332   1.836   1.532   2.904 -1.7648  1.7174  0.8097
  247MOL0     H33333   1.845   1.964   2.991 -0.8361  0.7686  2.8891
  247MOL0     H33334   1.736   1.907   3.113  0.8927  3.7525  0.9613
  247MOL0     H33335   1.620   2.055   2.964 -1.3959 -0.0256  0.8983
  247MOL0     H33336   1.550   1.894   2.933  1.3047 -2.3629  2.1765
  247MOL0     H33337   1.589   2.052   2.746 -1.0149 -1.3460 -1.4945
  247MOL0     H33338   1.626   1.881   2.721 -0.5240  0.2562  0.0171
  247MOL0     H33339   1.815   2.114   2.807 -1.2579 -0.4753  1.1870
  247MOL0     H33340   1.882   1.967   2.757  1.4078  0.8383 -0.0044
  247MOL0     H33341   1.773   2.109   2.377  2.1478 -0.6875 -0.9184
  247MOL0     H33342   1.971   1.838   3.161 -0.4284 -1.6689  1.5111
  247MOL0     H33343   2.240   1.666   3.314  0.5315 -0.1590 -1.6746
  247MOL0     H33344   2.316   1.753   3.179 -0.8581 -0.1398 -1.9520
  247MOL0     H33345   2.191   1.832   3.278  2.5480  0.9322  1.1865
  248MOL0     O33346   2.627  10.313   9.288 -0.7751  0.6055 -0.0066
  248MOL0     C33347   2.556  10.379   9.362  0.3639  0.4757 -0.2630
  248MOL0     O33348   2.606  10.424   9.485 -0.5304 -0.2937  0.0202
  248MOL0     C33349   2.731  10.392   9.529  0.4786  0.4713 -0.1448
  248MOL0     C33350   2.809  10.273   9.506 -0.1502 -0.3100  0.3860
  248MOL0     C33351   2.938  10.268   9.574 -0.2402  0.2696  0.3758
  248MOL0     C33352   2.978  10.366   9.671  0.3273 -0.3388  0.0183
  248MOL0     O33353   3.084  10.344   9.749  0.7241 -0.2215  0.0641
  248MOL0     C33354   3.205  10.355   9.673  0.1443 -0.8917 -0.2402
  248MOL0     C33355   3.320  10.333   9.764  0.6552 -0.0243  0.2694
  248MOL0     C33356   3.423  10.443   9.754 -0.3996 -0.0651 -1.0765
  248MOL0     C33357   3.536  10.412   9.864  0.2194 -0.0572 -0.4079
  248MOL0     C33358   3.636  10.522   9.877 -0.1663 -0.3171 -0.0045
  248MOL0     C33359   3.767  10.492   9.964 -0.3830 -0.1074  0.2846
  248MOL0     C33360   3.865  10.401   9.896 -0.4278  0.4813  0.7972
  248MOL0     C33361   4.003  10.415   9.955 -0.1749  0.5215  0.6551
  248MOL0     N33362   4.100  10.339   9.877  0.7732  0.5481  0.3357
  248MOL0     C33363   4.090  10.203   9.863 -0.2139  0.2439  0.0343
  248MOL0     C33364   4.206  10.181   9.796  0.0765  0.1619 -0.1308
  248MOL0     C33365   4.260  10.044   9.754  0.3813 -0.1095 -0.0210
  248MOL0     C33366   4.249  10.031   9.596  0.5508 -0.0938 -0.0670
  248MOL0     C33367   4.097  10.025   9.543 -0.4052  0.1143  0.3677
  248MOL0     C33368   4.018   9.891   9.581 -0.8213 -0.1289  0.2697
  248MOL0     O33369   3.947   9.909   9.709  0.3969  0.7611 -0.7981
  248MOL0     C33370   3.807   9.917   9.698  0.2690  0.0475  0.0551
  248MOL0     C33371   3.753  10.020   9.625 -0.8943  0.2973 -0.0251
  248MOL0     C33372   3.612  10.034   9.595 -0.4409  0.8098  0.1044
  248MOL0     C33373   3.523   9.941   9.660 -0.4901 -0.5291  0.3347
  248MOL0     C33374   3.376   9.962   9.635  0.4147  0.5750 -0.4064
  248MOL0     O33375   3.296   9.908   9.723  0.6212  0.6716  0.2730
  248MOL0     C33376   3.166   9.935   9.695 -0.0284 -0.2394 -0.7034
  248MOL0     C33377   3.084   9.857   9.611  0.1402  1.1422  0.7211
  248MOL0     C33378   2.949   9.879   9.614 -0.0961  0.3569 -0.0720
  248MOL0     C33379   2.888   9.964   9.701  0.2902 -0.0441  0.0375
  248MOL0     O33380   2.751   9.949   9.697  0.9778 -0.2103 -0.4972
  248MOL0     C33381   2.661  10.038   9.769 -0.4400  0.9446  0.7891
  248MOL0     C33382   2.515  10.006   9.729 -0.1803 -0.3599  0.2463
  248MOL0     C33383   2.487  10.060   9.590  0.2690  0.3136  0.0222
  248MOL0     C33384   2.509   9.945   9.486 -1.2867  1.0681  0.0224
  248MOL0     C33385   2.473  10.004   9.344 -0.2228 -0.3583 -0.2800
  248MOL0     C33386   2.502   9.894   9.243 -0.2364 -1.0470 -0.4981
  248MOL0     C33387   2.466   9.942   9.101  0.6929  0.3284  0.4485
  248MOL0     C33388   2.447   9.823   9.008  0.6796 -0.0066  0.0427
  248MOL0    Cl33389   2.443   9.872   8.834  0.0858  0.1848 -0.0183
  248MOL0     C33390   2.965  10.040   9.785  0.4392 -0.5135  0.3296
  248MOL0     C33391   3.106  10.025   9.784  0.3664 -0.3796 -0.2237
  248MOL0     O33392   3.348  10.026   9.530 -0.1513  0.1164  0.3784
  248MOL0     C33393   3.576   9.860   9.765 -0.3267  0.2891  0.5529
  248MOL0     C33394   3.713   9.845   9.782  0.0993 -0.1978  0.7780
  248MOL0     N33395   4.260  10.301   9.751 -0.5291 -0.5794 -0.5865
  248MOL0     N33396   4.195  10.399   9.798  0.6554 -0.1577 -0.7735
  248MOL0     C33397   2.903  10.481   9.682  0.5718  0.5941 -0.1810
  248MOL0     C33398   2.777  10.490   9.613 -0.2261  0.6706 -0.6545
  248MOL0     C33399   2.424  10.427   9.325  0.1265 -0.4632  0.1852
  248MOL0     C33400   2.344  10.494   9.423  0.1346 -0.7306 -0.8575
  248MOL0     C33401   2.206  10.536   9.407 -0.4569  0.2731  0.8843
  248MOL0     C33402   2.149  10.528   9.278  0.0991  0.4025 -0.9385
  248MOL0     O33403   2.034  10.596   9.243 -0.1957 -0.0213 -0.1784
  248MOL0     C33404   2.031  10.739   9.278 -0.1782  0.2198  0.8751
  248MOL0     C33405   1.887  10.778   9.309  0.2462 -0.5583  0.0107
  248MOL0     C33406   1.848  10.702   9.436 -0.5020  0.9452  0.4429
  248MOL0     C33407   1.723  10.766   9.496  0.0586  0.3627 -0.0336
  248MOL0     C33408   1.679  10.669   9.597  0.4988 -0.6932  0.0453
  248MOL0     C33409   1.630  10.596   9.674 -0.0578  0.0398  0.0554
  248MOL0     C33410   2.219  10.452   9.183  0.4411 -1.0544  1.1596
  248MOL0     C33411   2.353  10.404   9.197 -0.1695  0.1404  0.1626
  248MOL0     C33412   2.427  10.340   9.077 -0.0788  0.1868  0.3017
  248MOL0     H33413   2.779  10.200   9.432  0.7843 -2.4266  1.9914
  248MOL0     H33414   2.998  10.178   9.562 -2.3296 -0.8940 -2.4291
  248MOL0     H33415   3.207  10.284   9.589  1.2157 -2.2325  0.8846
  248MOL0     H33416   3.221  10.455   9.631 -2.3497  0.6697  2.1637
  248MOL0     H33417   3.361  10.234   9.744 -0.6895 -0.2331 -1.7079
  248MOL0     H33418   3.285  10.316   9.867  1.1252 -2.0908  0.1395
  248MOL0     H33419   3.390  10.547   9.769  0.2820  0.2195 -1.4815
  248MOL0     H33420   3.469  10.443   9.655 -1.7168  0.1985 -1.7199
  248MOL0     H33421   3.479  10.392   9.956  0.4917  3.5483  0.7136
  248MOL0     H33422   3.588  10.320   9.833  1.5774  1.0273 -1.4782
  248MOL0     H33423   3.667  10.548   9.775  1.3455 -1.9695 -0.0344
  248MOL0     H33424   3.590  10.611   9.920  0.0999  0.8551 -2.0113
  248MOL0     H33425   3.813  10.590   9.983 -2.7367  1.3483 -1.0825
  248MOL0     H33426   3.731  10.447  10.057  2.1618 -0.2712  1.2916
  248MOL0     H33427   3.865  10.425   9.789  0.2539 -0.8894  0.4654
  248MOL0     H33428   3.835  10.296   9.898 -0.2865  0.4438  2.8277
  248MOL0     H33429   4.024  10.522   9.951 -1.0177  0.6633 -0.5740
  248MOL0     H33430   4.005  10.379  10.058 -2.8443 -1.2260  0.1896
  248MOL0     H33431   4.015  10.132   9.896 -1.9402  0.6612 -2.6871
  248MOL0     H33432   4.363  10.038   9.790  0.2199  1.2941  0.7477
  248MOL0     H33433   4.197   9.968   9.801 -3.4072  1.6026 -1.8503
  248MOL0     H33434   4.307  10.108   9.545 -1.6963  1.2719 -0.6846
  248MOL0     H33435   4.293   9.933   9.576  1.5980 -0.2172  2.4701
  248MOL0     H33436   4.081  10.025   9.435 -1.4401 -0.0048  0.5100
  248MOL0     H33437   4.039  10.109   9.582  0.4455  1.5286 -1.3082
  248MOL0     H33438   4.091   9.809   9.591 -2.3237 -1.7808 -1.4287
  248MOL0     H33439   3.949   9.859   9.503 -2.6461  1.5443  1.1130
  248MOL0     H33440   3.823  10.082   9.570 -1.3909 -0.6405 -1.7871
  248MOL0     H33441   3.583  10.116   9.530 -2.3173  2.7504  3.1438
  248MOL0     H33442   3.103   9.770   9.548  0.9018  0.1160  2.2908
  248MOL0     H33443   2.886   9.835   9.538 -1.9356  0.2959  1.4154
  248MOL0     H33444   2.681  10.019   9.875 -1.1977 -0.9871  0.6331
  248MOL0     H33445   2.690  10.141   9.750  1.8852  0.2088 -0.0075
  248MOL0     H33446   2.490   9.899   9.731  2.1560 -1.0199 -1.3480
  248MOL0     H33447   2.452  10.059   9.801 -2.1923 -1.4336 -0.6285
  248MOL0     H33448   2.382  10.092   9.587 -0.1861 -1.1397 -1.4074
  248MOL0     H33449   2.548  10.144   9.558  0.4685  0.0680 -0.2439
  248MOL0     H33450   2.457   9.850   9.504  1.3798 -0.4484  0.2257
  248MOL0     H33451   2.616   9.921   9.493 -1.6995 -0.9966 -0.0571
  248MOL0     H33452   2.529  10.095   9.321  1.5919 -1.8220 -1.9398
  248MOL0     H33453   2.364  10.016   9.339 -0.3571 -0.8087  1.0334
  248MOL0     H33454   2.609   9.872   9.244 -0.2318 -1.0586 -1.0925
  248MOL0     H33455   2.445   9.807   9.276 -2.6790  0.7991  0.4852
  248MOL0     H33456   2.550  10.000   9.062  1.0145 -1.3005 -1.4234
  248MOL0     H33457   2.373  10.000   9.102  0.5385  0.0825  1.0098
  248MOL0     H33458   2.538   9.761   9.015  0.7619  0.2531  1.9423
  248MOL0     H33459   2.359   9.766   9.039 -0.3085  1.2528 -0.3948
  248MOL0     H33460   2.918  10.114   9.849 -0.3837 -0.6407 -0.1054
  248MOL0     H33461   3.163  10.076   9.861  3.9583 -1.6738 -1.8136
  248MOL0     H33462   3.510   9.792   9.818 -0.3601 -0.2598 -0.1718
  248MOL0     H33463   3.747   9.770   9.852 -0.1387 -1.5608 -0.5168
  248MOL0     H33464   2.935  10.564   9.745 -2.5454  0.8281  1.2597
  248MOL0     H33465   2.722  10.583   9.623  0.9378  1.2025  1.3070
  248MOL0     H33466   2.393  10.518   9.517  1.3004  2.2372 -2.1007
  248MOL0     H33467   2.148  10.581   9.487  0.9993  1.3360  1.3813
  248MOL0     H33468   2.074  10.799   9.197  2.2967 -0.7086  1.4101
  248MOL0     H33469   2.094  10.757   9.366  1.7494 -2.2593  0.1043
  248MOL0     H33470   1.822  10.754   9.224  0.6047 -0.8760 -0.1776
  248MOL0     H33471   1.874  10.887   9.318 -1.1149 -0.8448  2.8046
  248MOL0     H33472   1.916  10.694   9.521 -1.0184 -2.1525  0.6996
  248MOL0     H33473   1.818  10.603   9.399  1.2654  0.5476 -0.0174
  248MOL0     H33474   1.743  10.870   9.526 -2.3366  0.0890  3.1047
  248MOL0     H33475   1.646  10.775   9.418  0.3057  1.2853 -0.1816
  248MOL0     H33476   1.591  10.521   9.740 -0.2893 -1.4610 -1.7015
  248MOL0     H33477   2.173  10.444   9.085  0.0957  2.1940  0.9402
  248MOL0     H33478   2.393  10.388   8.984  0.1476  1.5547  0.9061
  248MOL0     H33479   2.535  10.359   9.078  0.0330 -0.3822  2.0308
  248MOL0     H33480   2.436  10.231   9.082  1.3509 -0.0513 -3.5883
  249MOL0     O33481   1.343   9.241  11.197 -0.0886  0.2164  0.2186
  249MOL0     C33482   1.241   9.295  11.148 -0.1512  0.2442 -0.8815
  249MOL0     O33483   1.239   9.415  11.083 -0.2179 -0.0303 -0.6105
  249MOL0     C33484   1.361   9.481  11.065 -0.1589  0.4333 -0.0199
  249MOL0     C33485   1.414   9.500  10.934  0.3502  0.6945 -0.1985
  249MOL0     C33486   1.531   9.561  10.911  0.3521  0.0045  0.3346
  249MOL0     C33487   1.613   9.604  11.016 -0.2277  0.5391 -0.3073
  249MOL0     O33488   1.730   9.681  10.996  0.2435 -0.5400 -0.0242
  249MOL0     C33489   1.756   9.739  10.871  0.2658 -0.3145  0.3941
  249MOL0     C33490   1.855   9.865  10.881 -0.3552  1.0414  1.0990
  249MOL0     C33491   1.996   9.812  10.879  0.8306  0.4633 -0.2584
  249MOL0     C33492   2.098   9.915  10.919  0.3125  0.3017  0.5616
  249MOL0     C33493   2.234   9.848  10.938 -1.0433  0.4886 -0.7152
  249MOL0     C33494   2.325   9.961  10.979  0.1331 -0.7272 -0.3990
  249MOL0     C33495   2.468   9.910  11.017  0.3379 -0.4495 -0.0639
  249MOL0     C33496   2.558  10.021  11.057 -0.5166  0.3771  0.0582
  249MOL0     N33497   2.700   9.976  11.074 -0.5112 -0.6835  0.0435
  249MOL0     C33498   2.799   9.967  10.976  0.1111  0.1516  0.2014
  249MOL0     C33499   2.910   9.938  11.053 -1.0579  0.6569 -0.4752
  249MOL0     C33500   3.045   9.924  11.013 -0.2271  0.2377  0.7985
  249MOL0     C33501   3.066   9.852  10.871 -0.8788  0.0774 -0.3648
  249MOL0     C33502   2.997   9.717  10.861  0.0498  0.1073 -0.1681
  249MOL0     C33503   3.068   9.626  10.968  0.4424  0.0771 -0.0988
  249MOL0     O33504   3.006   9.498  10.967 -0.3697 -0.4734  0.1855
  249MOL0     C33505   2.873   9.483  10.996 -0.0373  0.0819 -0.1534
  249MOL0     C33506   2.812   9.574  11.077  0.4520 -0.0182  0.5683
  249MOL0     C33507   2.679   9.548  11.113  0.5416  0.3005 -0.5307
  249MOL0     C33508   2.616   9.427  11.090  0.2665  0.4506  0.2727
  249MOL0     C33509   2.476   9.400  11.130  0.9755  0.6456  0.3144
  249MOL0     O33510   2.410   9.503  11.184 -0.0653 -0.0405  0.5425
  249MOL0     C33511   2.284   9.478  11.219 -0.2463 -0.2386 -0.3696
  249MOL0     C33512   2.190   9.493  11.124  0.8677 -0.7028  0.4289
  249MOL0     C33513   2.059   9.468  11.154  0.0067  0.5310  0.4472
  249MOL0     C33514   2.022   9.429  11.286  0.8735  0.6625  0.2115
  249MOL0     O33515   1.890   9.398  11.317 -0.1934 -0.4034 -0.2585
  249MOL0     C33516   1.818   9.322  11.222  0.8615  0.4789 -0.3059
  249MOL0     C33517   1.682   9.285  11.280 -0.3387  0.0739  0.1453
  249MOL0     C33518   1.695   9.196  11.404  0.5470  0.8148  0.2409
  249MOL0     C33519   1.561   9.150  11.461 -0.4429  0.0884 -1.0039
  249MOL0     C33520   1.583   9.110  11.614 -0.3623  0.1007  0.4948
  249MOL0     C33521   1.459   9.067  11.676  0.1749  0.4489  0.2082
  249MOL0     C33522   1.356   9.184  11.703  0.0057  0.4713 -0.6711
  249MOL0     C33523   1.228   9.135  11.762  0.3168 -0.8351  0.0132
  249MOL0    Cl33524   1.119   9.252  11.841  0.0178 -0.3852 -0.3192
  249MOL0     C33525   2.123   9.419  11.385  1.4278  0.1958 -0.3250
  249MOL0     C33526   2.251   9.442  11.355  0.3908 -0.6823 -0.2556
  249MOL0     O33527   2.421   9.292  11.099 -0.6429  0.3563  0.0860
  249MOL0     C33528   2.688   9.342  11.013  0.0154 -0.0667  0.5633
  249MOL0     C33529   2.805   9.370  10.959  0.1465 -0.5370  0.9067
  249MOL0     N33530   2.872   9.928  11.186  0.6563  0.8238  0.9161
  249MOL0     N33531   2.748   9.952  11.198 -0.4502  0.4530  0.2810
  249MOL0     C33532   1.567   9.581  11.145  1.6594  0.2966  0.1743
  249MOL0     C33533   1.444   9.516  11.171  0.2105  0.2909  0.4382
  249MOL0     C33534   1.103   9.241  11.172 -0.2071 -0.3919 -0.7941
  249MOL0     C33535   0.993   9.304  11.119  0.7219 -0.6824  0.3768
  249MOL0     C33536   0.866   9.248  11.124 -0.0945 -0.1600 -0.6387
  249MOL0     C33537   0.833   9.135  11.197  0.4879  0.8661  0.4290
  249MOL0     O33538   0.709   9.075  11.179  0.1637 -0.0989  0.8554
  249MOL0     C33539   0.638   9.012  11.286 -0.7718 -0.5215 -0.0860
  249MOL0     C33540   0.507   9.082  11.282  0.2346 -0.1761 -0.5341
  249MOL0     C33541   0.428   9.047  11.156 -0.4831 -0.6074  0.0759
  249MOL0     C33542   0.282   9.102  11.152 -0.5879 -0.5501  0.2170
  249MOL0     C33543   0.191   9.049  11.256 -0.6149 -0.3390  0.2039
  249MOL0     C33544   0.117   8.997  11.341  0.0091  0.2059 -0.3598
  249MOL0     C33545   0.939   9.080  11.264 -1.7939  0.5824 -0.3713
  249MOL0     C33546   1.068   9.127  11.252 -0.1765 -0.0571  0.0817
  249MOL0     C33547   1.173   9.051  11.332  0.3683 -0.6811  0.2805
  249MOL0     H33548   1.354   9.454  10.856 -0.6082  1.7153 -0.0960
  249MOL0     H33549   1.558   9.570  10.807 -0.9352  0.6818  0.0346
  249MOL0     H33550   1.791   9.672  10.793  0.3546  2.9088 -2.6000
  249MOL0     H33551   1.656   9.770  10.842 -2.0303 -3.3820  4.0517
  249MOL0     H33552   1.828   9.922  10.970  0.1487  0.2840  1.7395
  249MOL0     H33553   1.842   9.929  10.793 -2.7863 -0.1665  0.4756
  249MOL0     H33554   2.019   9.774  10.779  1.5569  1.2597 -0.4098
  249MOL0     H33555   2.002   9.728  10.948 -0.7093  2.1945  2.1156
  249MOL0     H33556   2.093   9.991  10.840  0.3524 -2.2155 -2.0065
  249MOL0     H33557   2.075   9.960  11.016  0.3039 -0.5232  0.9521
  249MOL0     H33558   2.229   9.770  11.015 -0.4667 -0.1050 -1.2682
  249MOL0     H33559   2.264   9.792  10.849  1.1106  1.0462 -0.4154
  249MOL0     H33560   2.338  10.028  10.893 -1.9638 -0.6661 -0.7066
  249MOL0     H33561   2.282  10.018  11.061 -1.9062 -1.5365 -0.8576
  249MOL0     H33562   2.508   9.863  10.927 -0.0126  0.3708 -0.6490
  249MOL0     H33563   2.470   9.837  11.099 -1.6546  0.0396  0.4926
  249MOL0     H33564   2.562  10.105  10.986  1.2780 -1.0601 -1.6733
  249MOL0     H33565   2.523  10.066  11.150  0.5130  0.6114  0.3437
  249MOL0     H33566   2.785   9.982  10.869  0.5622 -1.0985 -0.0523
  249MOL0     H33567   3.094  10.022  11.011 -0.2336  0.2357  0.4957
  249MOL0     H33568   3.101   9.860  11.082 -0.9137 -1.5196 -0.2239
  249MOL0     H33569   3.027   9.915  10.791 -2.2052  1.5077  1.3211
  249MOL0     H33570   3.171   9.839  10.841 -0.3820  2.3309  0.2150
  249MOL0     H33571   3.021   9.691  10.757  1.7844  2.3972 -0.4055
  249MOL0     H33572   2.890   9.725  10.879  0.6708  0.9666  4.3243
  249MOL0     H33573   3.062   9.657  11.073 -1.3117 -0.6196  0.0314
  249MOL0     H33574   3.171   9.600  10.943 -0.0676 -0.4367 -1.8688
  249MOL0     H33575   2.854   9.666  11.115 -0.9925 -0.2424  2.9159
  249MOL0     H33576   2.625   9.627  11.165 -1.0077 -1.4418  0.6398
  249MOL0     H33577   2.215   9.531  11.025 -0.6329  2.2402  1.0912
  249MOL0     H33578   1.987   9.483  11.075  1.8592 -0.6647 -1.5928
  249MOL0     H33579   1.792   9.378  11.131  1.7045  0.6363 -0.4555
  249MOL0     H33580   1.867   9.230  11.190 -1.0833 -0.8873  0.4295
  249MOL0     H33581   1.634   9.379  11.307 -3.2633 -1.8620  2.4636
  249MOL0     H33582   1.611   9.241  11.209  1.2509 -2.2855 -0.1222
  249MOL0     H33583   1.743   9.102  11.374 -1.4165 -0.4106  0.7978
  249MOL0     H33584   1.749   9.244  11.486 -0.1112  2.5861 -0.3218
  249MOL0     H33585   1.522   9.066  11.402 -1.9243 -1.6593  2.2024
  249MOL0     H33586   1.483   9.226  11.466 -0.4080  0.0914 -0.4480
  249MOL0     H33587   1.632   9.199  11.655  4.3338 -0.6712 -2.6728
  249MOL0     H33588   1.649   9.023  11.626 -3.1892 -2.0975  1.2225
  249MOL0     H33589   1.419   8.990  11.610  2.8026 -0.7866 -0.0519
  249MOL0     H33590   1.487   9.032  11.776  2.4603  1.3424 -0.0588
  249MOL0     H33591   1.328   9.226  11.606  1.8442 -0.7153 -1.7800
  249MOL0     H33592   1.392   9.265  11.765  1.5452  0.2291 -1.2173
  249MOL0     H33593   1.165   9.084  11.688  1.2139 -1.2019 -0.5057
  249MOL0     H33594   1.248   9.064  11.843 -0.5052 -0.3726  0.6350
  249MOL0     H33595   2.091   9.388  11.484 -1.9730 -1.6889 -1.8491
  249MOL0     H33596   2.331   9.422  11.425  1.8200  0.5611 -1.4338
  249MOL0     H33597   2.654   9.241  10.994  0.8733 -0.2691  0.0275
  249MOL0     H33598   2.865   9.296  10.907 -0.5374  0.9244 -2.1872
  249MOL0     H33599   1.628   9.608  11.231  2.0575  0.3331 -0.1151
  249MOL0     H33600   1.397   9.507  11.269 -1.0654 -0.9484 -0.2521
  249MOL0     H33601   1.017   9.387  11.054  0.9957 -1.5098 -0.6172
  249MOL0     H33602   0.791   9.292  11.059 -1.6040  0.8437  1.6585
  249MOL0     H33603   0.693   9.027  11.379  0.3165 -1.6519 -0.5192
  249MOL0     H33604   0.620   8.906  11.267 -3.5335 -0.0309 -0.6638
  249MOL0     H33605   0.512   9.191  11.284 -1.6406  0.0643 -3.4464
  249MOL0     H33606   0.456   9.043  11.371  0.4650  0.0238 -0.3112
  249MOL0     H33607   0.437   8.942  11.129  2.4285 -0.4555  0.0948
  249MOL0     H33608   0.481   9.096  11.073 -0.7041  3.4714  2.0667
  249MOL0     H33609   0.281   9.211  11.145 -0.1095 -0.6065 -1.0651
  249MOL0     H33610   0.243   9.060  11.059 -0.4342  0.8448 -0.5032
  249MOL0     H33611   0.053   8.954  11.415  1.9579 -0.6778  0.8844
  249MOL0     H33612   0.926   8.983  11.311  0.8294 -0.4504 -1.5522
  249MOL0     H33613   1.233   8.984  11.269  1.1425 -1.0576  1.3928
  249MOL0     H33614   1.241   9.124  11.377  1.0916 -0.5925 -0.9032
  249MOL0     H33615   1.135   8.989  11.413  0.8589 -0.4891  0.6672
  250MOL0     O33616   4.496  10.768   1.587 -0.1954 -0.2169  0.3413
  250MOL0     C33617   4.487  10.647   1.607 -0.1286  0.0642  0.2637
  250MOL0     O33618   4.598  10.573   1.629  0.7244  0.1314 -0.0607
  250MOL0     C33619   4.716  10.628   1.654  0.1503 -0.1450 -0.1447
  250MOL0     C33620   4.735  10.716   1.759 -0.4267  1.1048  0.7806
  250MOL0     C33621   4.860  10.776   1.772 -0.0061  0.4017 -0.0268
  250MOL0     C33622   4.971  10.744   1.677  0.3869 -0.5752  0.3869
  250MOL0     O33623   5.097  10.806   1.682  0.1257  0.6674 -0.1422
  250MOL0     C33624   5.137  10.847   1.810  0.2998 -0.6141 -0.0648
  250MOL0     C33625   5.291  10.882   1.807 -0.1633  0.6677 -0.7070
  250MOL0     C33626   5.342  10.955   1.940 -0.4788 -0.2900  0.6505
  250MOL0     C33627   5.501  10.953   1.934  1.2065 -0.5566 -0.0408
  250MOL0     C33628   5.563  11.034   1.822 -0.5544  0.3299  0.5913
  250MOL0     C33629   5.721  11.046   1.838 -0.1840 -0.0803  0.5686
  250MOL0     C33630   5.791  11.079   1.708 -0.5983  0.3625 -0.2270
  250MOL0     C33631   5.922  11.135   1.729 -0.0381 -0.4366  0.0115
  250MOL0     N33632   5.985  11.145   1.594 -0.9714 -0.3874 -0.0622
  250MOL0     C33633   5.987  11.254   1.517 -0.6389 -0.4380  0.7341
  250MOL0     C33634   6.076  11.228   1.420  0.1377 -0.3899 -0.7649
  250MOL0     C33635   6.130  11.323   1.313  0.1009  0.5478 -0.3934
  250MOL0     C33636   6.281  11.342   1.324  0.8255 -0.0427  0.2996
  250MOL0     C33637   6.325  11.433   1.214 -0.5553  0.5505  0.5411
  250MOL0     C33638   6.476  11.451   1.217  0.6165 -0.3261  0.0912
  250MOL0     O33639   6.517  11.517   1.338  0.2086 -0.5912  0.3806
  250MOL0     C33640   6.651  11.538   1.362  0.8379  0.3577 -0.4139
  250MOL0     C33641   6.758  11.483   1.295  0.3641 -0.0217 -0.3194
  250MOL0     C33642   6.891  11.508   1.330  0.4184  0.5548 -0.1074
  250MOL0     C33643   6.926  11.588   1.439  0.9391 -0.4036  0.1216
  250MOL0     C33644   7.071  11.613   1.484  0.6544  0.8293  0.8358
  250MOL0     O33645   7.105  11.700   1.585  0.7154  0.4844  0.1460
  250MOL0     C33646   7.219  11.692   1.659 -0.7048  0.0510  0.5791
  250MOL0     C33647   7.271  11.812   1.705 -0.4636  0.0506 -0.4209
  250MOL0     C33648   7.398  11.825   1.758  0.1749  0.0488 -0.0460
  250MOL0     C33649   7.475  11.708   1.785  0.5331  0.2573 -1.0377
  250MOL0     O33650   7.587  11.685   1.859 -0.5206 -0.2162  0.6552
  250MOL0     C33651   7.649  11.804   1.896 -0.7345  0.2755  0.2445
  250MOL0     C33652   7.787  11.786   1.962  0.1754  1.0302 -0.1246
  250MOL0     C33653   7.782  11.710   2.097 -0.0222  0.3790 -0.7087
  250MOL0     C33654   7.898  11.739   2.184  0.0584  0.2865 -0.6592
  250MOL0     C33655   7.913  11.620   2.282 -0.3690 -0.2549 -0.2231
  250MOL0     C33656   8.032  11.638   2.376  1.0875 -0.0894 -0.1162
  250MOL0     C33657   8.088  11.503   2.422  0.4605 -0.9732  0.4384
  250MOL0     C33658   8.229  11.499   2.477  0.3155  0.2293 -0.4682
  250MOL0    Cl33659   8.265  11.357   2.582  0.4868 -0.0186 -0.1791
  250MOL0     C33660   7.438  11.585   1.733  0.3775  0.3757 -0.3839
  250MOL0     C33661   7.305  11.580   1.671  0.3264 -0.4549  1.0320
  250MOL0     O33662   7.151  11.534   1.425 -0.7532  0.1100  0.1782
  250MOL0     C33663   6.818  11.654   1.509 -0.0734 -1.6865 -0.2568
  250MOL0     C33664   6.685  11.626   1.467  0.7382  0.1784  0.3378
  250MOL0     N33665   6.132  11.106   1.441  0.4146  0.1054 -0.0190
  250MOL0     N33666   6.085  11.059   1.553  0.2977 -0.0638 -0.3050
  250MOL0     C33667   4.941  10.662   1.574  0.0486  0.4433  0.4540
  250MOL0     C33668   4.812  10.601   1.560  0.6739 -0.6318  0.4489
  250MOL0     C33669   4.353  10.588   1.622  0.3476  0.1768  0.1340
  250MOL0     C33670   4.353  10.468   1.686  0.0351  0.5150 -0.4923
  250MOL0     C33671   4.229  10.404   1.714 -0.1402 -0.8329  0.4657
  250MOL0     C33672   4.105  10.470   1.694 -0.4338  0.0457  0.3923
  250MOL0     O33673   3.988  10.406   1.745 -0.3706  0.0633  0.6645
  250MOL0     C33674   3.866  10.480   1.762  0.9169 -0.2836 -0.6621
  250MOL0     C33675   3.775  10.402   1.872 -0.4526  0.6093  0.0589
  250MOL0     C33676   3.728  10.261   1.821 -0.3860  0.7165 -0.0514
  250MOL0     C33677   3.620  10.256   1.725  1.0916 -0.5819  0.4590
  250MOL0     C33678   3.500  10.300   1.798  1.0433  0.0414 -0.1305
  250MOL0     C33679   3.400  10.342   1.870 -0.5020  0.4882  0.0263
  250MOL0     C33680   4.099  10.580   1.615 -0.4515  0.1186  0.3181
  250MOL0     C33681   4.223  10.649   1.585 -0.5604 -0.5772  0.6073
  250MOL0     C33682   4.205  10.782   1.519  0.2696  0.2824 -0.0318
  250MOL0     H33683   4.664  10.737   1.839  0.2536 -1.6169  2.2235
  250MOL0     H33684   4.889  10.847   1.848  5.6450 -1.8415  0.3689
  250MOL0     H33685   5.078  10.932   1.846  1.0300 -0.4981  0.8804
  250MOL0     H33686   5.117  10.764   1.878 -0.4613 -1.5147 -1.3268
  250MOL0     H33687   5.316  10.935   1.715  2.3783  1.7214  0.4847
  250MOL0     H33688   5.345  10.787   1.796 -1.5620 -0.2954  0.3154
  250MOL0     H33689   5.307  10.902   2.029  0.9449  0.5265  1.7510
  250MOL0     H33690   5.314  11.060   1.936 -0.2113 -0.2315  0.2785
  250MOL0     H33691   5.524  11.004   2.027 -0.0814  1.3058 -0.6927
  250MOL0     H33692   5.537  10.850   1.928  0.1168 -0.8952 -1.5650
  250MOL0     H33693   5.532  10.987   1.728 -0.3928 -1.4420  1.3868
  250MOL0     H33694   5.525  11.136   1.829  1.4311  1.1197  0.7797
  250MOL0     H33695   5.749  11.129   1.903  2.5231 -0.6930  0.2810
  250MOL0     H33696   5.748  10.945   1.871  0.4117 -0.1592 -0.1401
  250MOL0     H33697   5.721  11.151   1.664  0.6432  2.8557  1.5757
  250MOL0     H33698   5.808  10.992   1.645  2.6823  1.2253 -0.7668
  250MOL0     H33699   5.916  11.232   1.779  3.0786 -0.9365  1.6345
  250MOL0     H33700   5.985  11.073   1.794  0.8851  2.2657  1.9199
  250MOL0     H33701   5.925  11.341   1.539 -0.8924 -0.5301  0.3851
  250MOL0     H33702   6.102  11.265   1.225 -2.5358  0.8888  0.1138
  250MOL0     H33703   6.073  11.416   1.322  0.3585  0.5388  4.9569
  250MOL0     H33704   6.321  11.379   1.419  1.6905 -1.5810  0.5698
  250MOL0     H33705   6.327  11.244   1.312  1.5166  0.3870 -0.6598
  250MOL0     H33706   6.276  11.529   1.235 -0.0477  0.1800  3.9610
  250MOL0     H33707   6.292  11.385   1.121  0.8099  1.1638 -0.2796
  250MOL0     H33708   6.493  11.513   1.129 -2.2339 -2.5729 -2.2701
  250MOL0     H33709   6.532  11.358   1.208  1.6123  0.1885  0.8085
  250MOL0     H33710   6.743  11.416   1.211  0.1979  1.1943 -1.2871
  250MOL0     H33711   6.971  11.465   1.271  1.7184  2.2461  0.3379
  250MOL0     H33712   7.221  11.908   1.709  0.8336  0.7272  0.2559
  250MOL0     H33713   7.429  11.923   1.792 -0.9869  0.4603 -0.1456
  250MOL0     H33714   7.661  11.864   1.805 -2.4506  2.1033  1.1361
  250MOL0     H33715   7.599  11.859   1.977  0.2065 -0.5836  1.4502
  250MOL0     H33716   7.848  11.727   1.893  0.4186  2.3553 -1.0844
  250MOL0     H33717   7.842  11.879   1.977  1.6326  0.3058 -0.7276
  250MOL0     H33718   7.692  11.751   2.145 -1.6113 -2.4311 -1.0541
  250MOL0     H33719   7.776  11.604   2.074  0.6977 -0.7360  3.5152
  250MOL0     H33720   7.873  11.831   2.238 -4.0744 -0.6929 -0.5464
  250MOL0     H33721   7.993  11.736   2.129  2.4204  1.3219  3.0268
  250MOL0     H33722   7.924  11.526   2.227  2.5932  0.7633 -1.6028
  250MOL0     H33723   7.825  11.610   2.345  0.0974 -3.7874  0.0715
  250MOL0     H33724   8.105  11.696   2.319 -2.7474  1.3554 -4.0888
  250MOL0     H33725   8.007  11.701   2.463  1.3849  0.2608 -0.2801
  250MOL0     H33726   8.088  11.428   2.343  2.3640 -1.7068  1.0707
  250MOL0     H33727   8.016  11.469   2.497 -0.6447  1.2312  0.4650
  250MOL0     H33728   8.298  11.492   2.393  0.2690 -3.5709 -0.3464
  250MOL0     H33729   8.250  11.590   2.534 -1.3467 -0.2587  1.0326
  250MOL0     H33730   7.496  11.494   1.750 -0.7575 -0.1550  0.8609
  250MOL0     H33731   7.272  11.486   1.627  1.9983 -0.5854 -0.0255
  250MOL0     H33732   6.850  11.728   1.581  1.4862  0.2910 -2.7768
  250MOL0     H33733   6.603  11.669   1.523 -0.3729  0.2487 -1.2760
  250MOL0     H33734   5.031  10.642   1.517  0.7610  6.7835 -1.4893
  250MOL0     H33735   4.787  10.541   1.473 -0.9505  0.7621 -0.0789
  250MOL0     H33736   4.443  10.414   1.712 -0.7662 -0.6685 -0.1203
  250MOL0     H33737   4.232  10.300   1.743 -1.9833 -1.7739 -2.2760
  250MOL0     H33738   3.810  10.483   1.668 -0.7072 -2.4997  0.1536
  250MOL0     H33739   3.886  10.582   1.798  1.4445 -0.4382 -0.5078
  250MOL0     H33740   3.687  10.459   1.905 -1.6157 -2.4485  2.8141
  250MOL0     H33741   3.832  10.375   1.961  0.5271 -2.3553 -1.3426
  250MOL0     H33742   3.698  10.205   1.910  1.7022  2.6746  2.0415
  250MOL0     H33743   3.819  10.218   1.778  1.6699  1.6034  3.0726
  250MOL0     H33744   3.633  10.317   1.635 -1.7771 -0.2042  0.2054
  250MOL0     H33745   3.598  10.155   1.691 -0.0490  0.1268 -1.0744
  250MOL0     H33746   3.306  10.377   1.905  0.3394  0.5293  2.4246
  250MOL0     H33747   4.004  10.618   1.580 -0.1491 -0.6128 -1.4056
  250MOL0     H33748   4.189  10.856   1.598  1.5582 -2.8931  3.4633
  250MOL0     H33749   4.294  10.815   1.465 -0.9539  2.1132 -1.0333
  250MOL0     H33750   4.117  10.780   1.454  0.7486 -1.5262 -0.6644
  251MOL0     O33751   8.419   7.703   5.902 -0.0935  0.3287  0.0348
  251MOL0     C33752   8.347   7.634   5.978  0.1269 -0.1914  0.4990
  251MOL0     O33753   8.387   7.520   6.044 -0.0743 -0.1961 -0.0578
  251MOL0     C33754   8.481   7.459   5.964 -0.1781 -1.0481 -0.3325
  251MOL0     C33755   8.450   7.403   5.840  1.2220  0.8607  0.2143
  251MOL0     C33756   8.546   7.331   5.765  0.4438  0.4784  0.4472
  251MOL0     C33757   8.677   7.322   5.822 -0.2249  1.3150  1.3235
  251MOL0     O33758   8.775   7.273   5.740 -0.3321 -0.1359  0.2319
  251MOL0     C33759   8.875   7.193   5.803  0.8587  0.3183 -0.5372
  251MOL0     C33760   8.965   7.118   5.701 -0.4843 -0.4473 -0.1115
  251MOL0     C33761   9.079   7.207   5.647  0.8499  0.4754 -0.2421
  251MOL0     C33762   9.188   7.230   5.757  0.1158  0.0002  0.4964
  251MOL0     C33763   9.317   7.292   5.690  0.4039 -0.8659  0.4650
  251MOL0     C33764   9.412   7.306   5.815 -0.1761 -0.2173 -1.3750
  251MOL0     C33765   9.532   7.391   5.776  0.1468  0.1619  0.0361
  251MOL0     C33766   9.658   7.305   5.789  0.2040 -0.1244  0.4252
  251MOL0     N33767   9.767   7.358   5.707  0.1220  0.5148  0.2763
  251MOL0     C33768   9.854   7.458   5.742 -0.2913  0.4617  0.9980
  251MOL0     C33769   9.956   7.441   5.655 -0.0714 -0.7910  0.2257
  251MOL0     C33770  10.085   7.523   5.636 -0.0764  0.3598 -0.7924
  251MOL0     C33771  10.193   7.499   5.741 -0.1882 -0.0287 -0.4629
  251MOL0     C33772  10.206   7.353   5.788 -0.2855  0.6875 -0.1328
  251MOL0     C33773  10.326   7.330   5.889  0.5435  0.2514 -0.3052
  251MOL0     O33774  10.450   7.381   5.841 -0.3341  0.0793  0.0749
  251MOL0     C33775  10.562   7.373   5.926  0.7418 -0.5519 -0.1179
  251MOL0     C33776  10.684   7.396   5.870  0.2219 -0.6977  0.7786
  251MOL0     C33777  10.799   7.398   5.946 -0.3714 -0.2374 -0.0641
  251MOL0     C33778  10.794   7.392   6.092  0.5485 -0.9930  0.1193
  251MOL0     C33779  10.909   7.399   6.182  0.4633  0.8727  0.7210
  251MOL0     O33780  11.024   7.422   6.118  0.6919 -0.2860  0.5887
  251MOL0     C33781  11.138   7.394   6.173  0.1440  0.3460 -0.3672
  251MOL0     C33782  11.249   7.473   6.141 -0.2210 -0.2252 -0.8739
  251MOL0     C33783  11.377   7.435   6.178  0.3638 -0.0938  0.0660
  251MOL0     C33784  11.407   7.321   6.260 -0.1993 -0.0032 -0.2435
  251MOL0     O33785  11.533   7.281   6.282  0.4386  0.4922 -0.0166
  251MOL0     C33786  11.624   7.371   6.342  0.3952 -0.3962  0.3217
  251MOL0     C33787  11.750   7.296   6.390 -0.4143  0.1067 -0.5151
  251MOL0     C33788  11.872   7.386   6.418  0.4579  0.0183 -0.0689
  251MOL0     C33789  11.991   7.285   6.449  0.1152 -0.4232 -0.2633
  251MOL0     C33790  12.114   7.363   6.496  0.8452  0.6477 -0.4223
  251MOL0     C33791  12.106   7.391   6.643 -0.7620  0.1656  1.2180
  251MOL0     C33792  12.223   7.462   6.707 -0.5723  0.7886 -0.7395
  251MOL0     C33793  12.214   7.453   6.862 -0.2445 -0.5970  0.6141
  251MOL0    Cl33794  12.227   7.286   6.929 -0.4431  0.1620  0.1647
  251MOL0     C33795  11.295   7.243   6.296  0.2692  0.1698 -0.1595
  251MOL0     C33796  11.165   7.279   6.239  0.2979  0.5964 -0.6554
  251MOL0     O33797  10.890   7.370   6.303  0.2763 -0.5009 -0.3815
  251MOL0     C33798  10.664   7.372   6.151 -0.1963 -0.0329  0.1238
  251MOL0     C33799  10.550   7.363   6.065 -0.9810  0.5728 -0.3748
  251MOL0     N33800   9.922   7.356   5.555  0.9224  0.4626  0.4260
  251MOL0     N33801   9.811   7.301   5.593  0.8813 -0.6907  0.3565
  251MOL0     C33802   8.708   7.383   5.947  0.1420  0.9065 -0.0690
  251MOL0     C33803   8.607   7.442   6.021 -0.0933 -0.6135  0.9532
  251MOL0     C33804   8.203   7.663   5.982 -0.4985 -0.2900  0.7331
  251MOL0     C33805   8.111   7.555   5.992 -0.7144  0.4665 -0.1531
  251MOL0     C33806   7.974   7.568   5.993 -0.3028  0.2343  0.6145
  251MOL0     C33807   7.921   7.698   5.975 -0.1388  1.0008  0.4216
  251MOL0     O33808   7.786   7.720   5.978  0.7362 -0.3132  0.1694
  251MOL0     C33809   7.706   7.721   5.852  0.4006 -0.5225  0.9744
  251MOL0     C33810   7.734   7.599   5.759 -1.2148 -0.6730 -0.0197
  251MOL0     C33811   7.628   7.608   5.652  0.9749 -0.3946  0.7693
  251MOL0     C33812   7.487   7.563   5.689 -0.1238  0.1257  0.1414
  251MOL0     C33813   7.490   7.428   5.746  0.4030 -0.5694 -0.2472
  251MOL0     C33814   7.495   7.320   5.789  0.6154  0.7369 -0.8780
  251MOL0     C33815   8.007   7.810   5.973  0.5215  0.2479 -0.3465
  251MOL0     C33816   8.147   7.792   5.986  0.0850 -0.3203  0.2330
  251MOL0     C33817   8.238   7.913   5.967  0.0933 -0.0012 -0.1121
  251MOL0     H33818   8.345   7.410   5.812  1.2680 -0.4011 -0.3872
  251MOL0     H33819   8.513   7.288   5.671  1.3454  3.0981 -1.1737
  251MOL0     H33820   8.940   7.238   5.879  3.8918 -2.0846 -1.5397
  251MOL0     H33821   8.830   7.111   5.860  0.9120  0.3998 -0.3756
  251MOL0     H33822   8.904   7.081   5.618  3.1489 -0.1882 -3.2164
  251MOL0     H33823   9.010   7.036   5.758  0.6332  2.9337  4.3953
  251MOL0     H33824   9.038   7.307   5.634 -0.4724  0.1680  1.2826
  251MOL0     H33825   9.121   7.156   5.559 -0.8471 -2.8592  0.7311
  251MOL0     H33826   9.157   7.293   5.840  0.3508 -0.1130  0.6699
  251MOL0     H33827   9.211   7.134   5.804 -1.2770 -1.4701 -1.6251
  251MOL0     H33828   9.358   7.224   5.616  3.7905  2.1740 -0.7977
  251MOL0     H33829   9.294   7.388   5.643 -2.2531 -0.8142  1.7125
  251MOL0     H33830   9.360   7.363   5.893 -1.7385 -0.6275 -2.0686
  251MOL0     H33831   9.444   7.212   5.859 -0.9578  0.6579  1.2169
  251MOL0     H33832   9.542   7.478   5.841  0.6517 -0.6651  1.1068
  251MOL0     H33833   9.525   7.415   5.670 -2.9211 -0.7562 -0.0712
  251MOL0     H33834   9.684   7.307   5.895 -1.4523  0.4510  0.8606
  251MOL0     H33835   9.622   7.206   5.758 -4.3576  1.8565 -1.6200
  251MOL0     H33836   9.845   7.518   5.832  0.9667  2.5926 -0.2265
  251MOL0     H33837  10.119   7.485   5.539 -1.8064  0.5324 -1.5119
  251MOL0     H33838  10.062   7.630   5.641  0.5773  0.4433  0.7948
  251MOL0     H33839  10.292   7.534   5.710 -1.5143  1.9367 -2.8466
  251MOL0     H33840  10.165   7.558   5.829  0.3551 -2.6393  1.5806
  251MOL0     H33841  10.224   7.307   5.690 -0.4658  0.9275 -0.2800
  251MOL0     H33842  10.116   7.318   5.837 -0.0049 -1.2908 -0.9395
  251MOL0     H33843  10.343   7.226   5.919 -0.0459  0.0241 -0.7483
  251MOL0     H33844  10.301   7.389   5.978 -0.9879  0.4982 -0.8702
  251MOL0     H33845  10.682   7.407   5.762 -1.6343  1.3602  0.9476
  251MOL0     H33846  10.892   7.413   5.892  0.2693  1.3478  1.3952
  251MOL0     H33847  11.238   7.563   6.081 -1.0416 -0.7633 -1.5644
  251MOL0     H33848  11.461   7.490   6.137  0.5664  0.7215  1.4956
  251MOL0     H33849  11.643   7.443   6.262 -0.8548  0.9068  1.1371
  251MOL0     H33850  11.581   7.424   6.427  3.3085 -0.6048  2.0365
  251MOL0     H33851  11.728   7.240   6.481 -0.4413  2.9600  1.3410
  251MOL0     H33852  11.787   7.238   6.304  1.6015  0.0840  0.3234
  251MOL0     H33853  11.888   7.457   6.336  0.5264  1.0318  0.8056
  251MOL0     H33854  11.834   7.438   6.506  0.4908 -1.3523  0.7914
  251MOL0     H33855  12.014   7.227   6.359  1.4072 -0.8904  0.3356
  251MOL0     H33856  11.956   7.217   6.527  1.5870  1.0808  1.7921
  251MOL0     H33857  12.127   7.451   6.431  0.1502  0.5642 -0.6856
  251MOL0     H33858  12.197   7.295   6.474  1.2934  0.4240  1.7529
  251MOL0     H33859  12.020   7.454   6.665 -1.2330 -0.3543  0.8658
  251MOL0     H33860  12.106   7.296   6.696 -0.1136  0.6681  2.1608
  251MOL0     H33861  12.223   7.565   6.670 -0.3738  0.7965 -0.7177
  251MOL0     H33862  12.318   7.410   6.687 -0.5617  1.2593 -2.0519
  251MOL0     H33863  12.302   7.511   6.893 -0.1550  0.1106 -0.8340
  251MOL0     H33864  12.124   7.504   6.897 -0.5558 -0.0179 -0.9125
  251MOL0     H33865  11.297   7.149   6.350 -1.5773  0.2053  0.0469
  251MOL0     H33866  11.081   7.214   6.261  1.0224  0.0041  0.4993
  251MOL0     H33867  10.661   7.376   6.259  2.0363 -1.0551  0.3047
  251MOL0     H33868  10.450   7.350   6.104 -0.6950 -3.1951 -0.5422
  251MOL0     H33869   8.805   7.382   5.997  0.8059 -0.4632 -1.3439
  251MOL0     H33870   8.642   7.483   6.115  1.1459  1.5103 -0.3264
  251MOL0     H33871   8.136   7.451   6.008  1.2141  1.0304  0.7189
  251MOL0     H33872   7.902   7.487   5.997  0.7858 -0.9091 -1.1960
  251MOL0     H33873   7.720   7.814   5.796 -0.2008 -1.4321 -0.7464
  251MOL0     H33874   7.602   7.720   5.886  0.2592 -0.7577  0.5439
  251MOL0     H33875   7.728   7.504   5.813 -2.7236 -1.3348 -1.2849
  251MOL0     H33876   7.830   7.608   5.708 -1.2603 -0.2530 -0.0324
  251MOL0     H33877   7.665   7.560   5.560  1.5228  2.2663 -0.5097
  251MOL0     H33878   7.606   7.711   5.624  1.1593 -0.9974 -1.8915
  251MOL0     H33879   7.441   7.636   5.756 -1.3570  1.7467 -2.3215
  251MOL0     H33880   7.410   7.556   5.612  0.6948 -2.2587 -0.5589
  251MOL0     H33881   7.502   7.217   5.819  4.6279 -0.2799 -4.2445
  251MOL0     H33882   7.970   7.912   5.966 -1.9064 -0.4296  1.2364
  251MOL0     H33883   8.186   8.007   5.988 -0.0321  0.6196 -2.8721
  251MOL0     H33884   8.328   7.910   6.029  1.6502 -0.6941 -2.2756
  251MOL0     H33885   8.276   7.920   5.865  0.1990  3.1461  0.0544
  252MOL0     O33886   6.888   2.638   8.750 -1.5223 -0.3555  0.0142
  252MOL0     C33887   6.898   2.518   8.722  0.9860  0.2776  0.3880
  252MOL0     O33888   6.791   2.430   8.735 -0.5546 -0.0175 -0.5498
  252MOL0     C33889   6.675   2.465   8.787  0.4853 -0.3492 -0.4763
  252MOL0     C33890   6.563   2.445   8.718  0.5011 -0.2495  0.0089
  252MOL0     C33891   6.430   2.479   8.765 -0.3126 -0.2766 -0.2332
  252MOL0     C33892   6.418   2.530   8.897  0.0894  0.5375  0.4528
  252MOL0     O33893   6.298   2.556   8.961 -0.2082 -0.1078 -0.1624
  252MOL0     C33894   6.172   2.570   8.894 -0.7513 -0.5124 -0.6363
  252MOL0     C33895   6.069   2.595   8.997 -0.1585 -0.0916  0.1660
  252MOL0     C33896   6.015   2.466   9.052  0.4072  0.1584  0.2201
  252MOL0     C33897   5.901   2.499   9.150 -0.4224 -0.2216  0.1382
  252MOL0     C33898   5.870   2.389   9.254  0.3384  0.3205  0.6826
  252MOL0     C33899   5.765   2.283   9.208 -0.4122 -0.2488 -0.1102
  252MOL0     C33900   5.629   2.347   9.221 -0.6260 -0.6074 -0.3215
  252MOL0     C33901   5.522   2.242   9.255 -1.0459  0.6877 -1.4234
  252MOL0     N33902   5.386   2.284   9.232  0.3589 -0.4932 -0.2990
  252MOL0     C33903   5.328   2.294   9.109  0.8716  0.3820 -0.4928
  252MOL0     C33904   5.216   2.361   9.129  0.2468 -0.1332  0.1661
  252MOL0     C33905   5.111   2.382   9.023 -0.0503 -0.3816 -0.1320
  252MOL0     C33906   5.042   2.250   8.981  0.1424  0.0788  0.4953
  252MOL0     C33907   5.035   2.248   8.834 -0.5547  0.0154  0.5528
  252MOL0     C33908   4.959   2.130   8.778  0.2847 -0.5263 -0.0740
  252MOL0     O33909   4.969   2.130   8.638 -0.3525  0.3185  0.0945
  252MOL0     C33910   5.088   2.110   8.573 -0.8955  0.3036 -0.9246
  252MOL0     C33911   5.199   2.043   8.643  0.1358 -0.7773 -0.4705
  252MOL0     C33912   5.318   2.024   8.577  0.2626  0.5575 -0.5211
  252MOL0     C33913   5.334   2.072   8.449 -0.1247  0.2591 -1.5342
  252MOL0     C33914   5.470   2.054   8.380  0.1197  0.3301  0.7294
  252MOL0     O33915   5.562   1.970   8.433  0.2436  0.5945 -0.1426
  252MOL0     C33916   5.694   1.967   8.388  1.0451  0.2917  0.9646
  252MOL0     C33917   5.719   1.927   8.256 -0.4570 -0.2850 -0.2879
  252MOL0     C33918   5.855   1.919   8.203 -0.1720  0.7749 -1.0437
  252MOL0     C33919   5.962   1.960   8.290 -0.4926  0.1548  0.6226
  252MOL0     O33920   6.096   1.963   8.254 -0.4511 -0.1837  1.0780
  252MOL0     C33921   6.143   1.914   8.121  0.1515  0.0741 -0.2265
  252MOL0     C33922   6.278   1.960   8.085 -0.6323 -0.3808  0.9095
  252MOL0     C33923   6.369   1.924   8.207 -0.2855 -0.4943  0.6041
  252MOL0     C33924   6.522   1.897   8.166  0.5382 -0.6054 -0.0874
  252MOL0     C33925   6.607   1.867   8.286 -0.1232  0.4126 -0.2369
  252MOL0     C33926   6.739   1.799   8.247  0.2415 -0.1111  0.2694
  252MOL0     C33927   6.813   1.724   8.356 -0.1286  0.2815  0.2759
  252MOL0     C33928   6.944   1.678   8.293 -1.1630 -0.1927 -0.4684
  252MOL0    Cl33929   7.072   1.636   8.416  0.3469 -0.0883  0.0357
  252MOL0     C33930   5.924   1.986   8.420 -0.2989 -1.0234 -1.3225
  252MOL0     C33931   5.796   2.003   8.469 -0.0615  0.4142  0.3765
  252MOL0     O33932   5.486   2.108   8.274 -0.1626  0.1062 -0.3113
  252MOL0     C33933   5.233   2.144   8.395  0.2368  0.0309  0.3555
  252MOL0     C33934   5.109   2.160   8.448  0.2797  0.0811  0.0640
  252MOL0     N33935   5.197   2.390   9.264 -0.0508 -0.2500 -0.3986
  252MOL0     N33936   5.306   2.342   9.326  0.2342 -0.0767  0.6695
  252MOL0     C33937   6.541   2.553   8.970 -0.2133  0.2129  0.3380
  252MOL0     C33938   6.659   2.519   8.912 -0.0459  0.3589 -0.6869
  252MOL0     C33939   7.024   2.467   8.678 -0.5147 -0.4284 -0.0275
  252MOL0     C33940   7.037   2.330   8.655 -0.2846 -0.7658  0.3131
  252MOL0     C33941   7.155   2.272   8.599  0.6444  0.4110 -0.0707
  252MOL0     C33942   7.262   2.356   8.569  0.9989  0.4614 -0.3328
  252MOL0     O33943   7.371   2.294   8.508  0.1135  0.0356  0.2793
  252MOL0     C33944   7.475   2.367   8.461 -0.3946 -0.1275 -0.2220
  252MOL0     C33945   7.563   2.294   8.361 -0.5107 -0.2140  0.3976
  252MOL0     C33946   7.495   2.253   8.234  1.2488 -0.2156  0.5494
  252MOL0     C33947   7.571   2.133   8.167  0.6124  0.8567  0.4141
  252MOL0     C33948   7.689   2.183   8.097  0.3691 -0.3860 -0.4271
  252MOL0     C33949   7.784   2.238   8.051  0.0701  0.1655 -0.0711
  252MOL0     C33950   7.255   2.495   8.596  0.6439 -0.5331  0.2302
  252MOL0     C33951   7.133   2.545   8.635  0.9822 -0.0790  0.5229
  252MOL0     C33952   7.127   2.698   8.625  0.0123  0.3235  0.5446
  252MOL0     H33953   6.569   2.387   8.626 -0.1845 -2.7974  1.4735
  252MOL0     H33954   6.352   2.461   8.692 -1.4251  2.4570  0.1525
  252MOL0     H33955   6.164   2.655   8.825 -4.0026 -0.7643 -0.7555
  252MOL0     H33956   6.160   2.482   8.831  1.7014  0.2521 -2.2874
  252MOL0     H33957   5.991   2.659   8.956 -0.2210 -0.9053 -1.0080
  252MOL0     H33958   6.115   2.656   9.076 -0.0915 -2.1716  1.8441
  252MOL0     H33959   6.093   2.404   9.096  2.1567  0.5603 -2.1305
  252MOL0     H33960   5.976   2.401   8.973  2.1003  0.1377 -0.6459
  252MOL0     H33961   5.938   2.586   9.205  1.5246 -0.8992 -0.0116
  252MOL0     H33962   5.809   2.528   9.099 -0.2759  0.3971  0.2245
  252MOL0     H33963   5.962   2.338   9.286  2.4784  2.9866 -0.7598
  252MOL0     H33964   5.822   2.438   9.339  0.0533 -0.6511  1.0939
  252MOL0     H33965   5.785   2.247   9.107  2.8206 -1.4353  0.8224
  252MOL0     H33966   5.767   2.207   9.287 -1.7162  0.4481  0.6411
  252MOL0     H33967   5.596   2.403   9.134 -0.1315 -1.0718 -0.8114
  252MOL0     H33968   5.627   2.409   9.311  0.9911 -3.1364  1.6060
  252MOL0     H33969   5.538   2.154   9.192 -0.5954  0.1233 -0.5461
  252MOL0     H33970   5.538   2.214   9.360 -0.0279  0.1902 -1.7007
  252MOL0     H33971   5.363   2.253   9.014 -2.5857  0.3055 -1.8678
  252MOL0     H33972   5.032   2.445   9.066 -1.0692 -0.7347 -1.3960
  252MOL0     H33973   5.164   2.426   8.938  1.2469  1.5208  1.5792
  252MOL0     H33974   5.104   2.170   9.023 -0.3239 -0.3597  0.3666
  252MOL0     H33975   4.938   2.244   9.015 -0.7112 -1.5910 -2.0649
  252MOL0     H33976   5.138   2.246   8.796  0.0075  1.7820  1.8292
  252MOL0     H33977   4.994   2.344   8.802  3.2654  1.1616 -1.5316
  252MOL0     H33978   4.855   2.156   8.800  0.4612 -0.4790  0.7248
  252MOL0     H33979   4.970   2.033   8.827 -2.0989 -0.9247 -0.2119
  252MOL0     H33980   5.204   2.019   8.749 -1.5209  0.7939  0.0126
  252MOL0     H33981   5.401   1.977   8.629 -0.0441 -1.1786 -1.5078
  252MOL0     H33982   5.636   1.914   8.188  0.2066 -1.8477 -0.8578
  252MOL0     H33983   5.865   1.896   8.098  0.2120 -0.7790 -0.6880
  252MOL0     H33984   6.151   1.805   8.120  1.1787  0.0470  2.8125
  252MOL0     H33985   6.071   1.945   8.044  1.3377  3.4301 -0.1575
  252MOL0     H33986   6.309   1.906   7.995  0.2610 -0.9685  1.5555
  252MOL0     H33987   6.273   2.067   8.062 -1.8015 -0.8297 -1.2068
  252MOL0     H33988   6.363   2.002   8.284  1.4247  0.9992 -0.6965
  252MOL0     H33989   6.337   1.837   8.266 -1.1038 -1.2153 -0.8573
  252MOL0     H33990   6.553   1.989   8.116  0.4950 -0.8608 -0.5929
  252MOL0     H33991   6.530   1.818   8.090  1.4228 -1.0366  0.4352
  252MOL0     H33992   6.553   1.815   8.365 -2.0102  1.3000 -0.8904
  252MOL0     H33993   6.622   1.967   8.327 -0.1839  1.3798 -2.4290
  252MOL0     H33994   6.724   1.728   8.165  4.5191 -2.1272  0.9621
  252MOL0     H33995   6.800   1.870   8.191 -2.2747  2.1319  0.1434
  252MOL0     H33996   6.761   1.635   8.391 -0.9187  0.9133  0.7539
  252MOL0     H33997   6.828   1.792   8.441  2.5990  0.3716 -0.1714
  252MOL0     H33998   6.934   1.600   8.218  2.0949 -0.0527 -1.1769
  252MOL0     H33999   6.992   1.756   8.233  0.2217 -0.2839  0.4862
  252MOL0     H34000   5.995   2.006   8.500 -2.6496  0.6708  0.5204
  252MOL0     H34001   5.789   2.009   8.577 -1.0524  0.1455  0.3389
  252MOL0     H34002   5.246   2.187   8.296 -1.1519  5.6423  2.2562
  252MOL0     H34003   5.036   2.225   8.402 -0.3552  0.5268  1.6467
  252MOL0     H34004   6.549   2.586   9.073 -1.5254 -1.0997  0.8963
  252MOL0     H34005   6.744   2.541   8.976  2.3158 -2.0976 -2.7162
  252MOL0     H34006   6.960   2.262   8.692 -2.7289  1.9506  0.6448
  252MOL0     H34007   7.169   2.167   8.575 -1.2039 -0.4580  2.2557
  252MOL0     H34008   7.546   2.387   8.542  4.3001 -0.0261 -3.9831
  252MOL0     H34009   7.443   2.456   8.407 -1.1604  0.5686  1.3053
  252MOL0     H34010   7.611   2.208   8.408  4.4035 -1.0557 -4.9761
  252MOL0     H34011   7.643   2.364   8.334 -1.7278  1.6249  1.3184
  252MOL0     H34012   7.474   2.334   8.163  2.9474  1.7924  2.1978
  252MOL0     H34013   7.398   2.220   8.271  1.2594  0.8777  1.6133
  252MOL0     H34014   7.604   2.060   8.241  0.3289  1.1922  0.8806
  252MOL0     H34015   7.500   2.093   8.094  1.2441  0.3951  0.0525
  252MOL0     H34016   7.861   2.292   8.001  1.0898 -0.8496  0.3523
  252MOL0     H34017   7.336   2.563   8.570 -0.6700  2.4104  3.0062
  252MOL0     H34018   7.208   2.735   8.562 -1.0249  0.7676 -0.5526
  252MOL0     H34019   7.034   2.743   8.590 -0.3069 -0.9270 -0.2592
  252MOL0     H34020   7.135   2.730   8.730 -1.9098 -0.7532  1.0695
  253MOL0     O34021   3.917   7.406   6.641  0.1905 -0.2170  0.6740
  253MOL0     C34022   3.891   7.288   6.606  0.1612 -0.1433 -0.4119
  253MOL0     O34023   3.967   7.184   6.637  0.0379  0.0244  0.0644
  253MOL0     C34024   4.072   7.207   6.718 -0.8167  0.2679  0.7155
  253MOL0     C34025   4.070   7.237   6.851  0.1745  0.0178 -0.8873
  253MOL0     C34026   4.186   7.279   6.919 -0.0747  0.3585 -0.7698
  253MOL0     C34027   4.305   7.304   6.854 -0.2887 -0.5958  0.0389
  253MOL0     O34028   4.411   7.358   6.920 -0.2989 -0.5049  0.1938
  253MOL0     C34029   4.406   7.502   6.959 -0.0380  0.0212  0.3282
  253MOL0     C34030   4.472   7.598   6.858 -0.1866 -0.2959 -0.4227
  253MOL0     C34031   4.621   7.624   6.872 -0.0378 -0.1025 -0.0706
  253MOL0     C34032   4.700   7.538   6.761  0.5881  0.4163  0.8052
  253MOL0     C34033   4.832   7.604   6.750 -0.5587  0.2972 -0.3606
  253MOL0     C34034   4.916   7.583   6.879 -0.2643 -0.5713  0.2652
  253MOL0     C34035   5.049   7.650   6.860  0.7679 -0.5528  0.1841
  253MOL0     C34036   5.163   7.567   6.902 -0.3730  0.1241 -0.6654
  253MOL0     N34037   5.299   7.602   6.847 -0.2231 -0.4141  0.8917
  253MOL0     C34038   5.407   7.639   6.917  0.1888  0.0606 -0.2212
  253MOL0     C34039   5.489   7.686   6.821  0.2947 -0.2378  0.0415
  253MOL0     C34040   5.623   7.748   6.839  0.0281 -0.4678 -0.6118
  253MOL0     C34041   5.751   7.672   6.806 -0.6929  0.3395 -0.3539
  253MOL0     C34042   5.775   7.644   6.657  0.8101 -0.7745  0.2711
  253MOL0     C34043   5.841   7.756   6.579 -0.5876 -0.6691 -0.7487
  253MOL0     O34044   5.958   7.805   6.651  0.0464 -0.1877 -0.2366
  253MOL0     C34045   6.074   7.727   6.641 -0.6167 -0.1642 -0.1478
  253MOL0     C34046   6.088   7.595   6.585  0.7021 -0.2947  0.9051
  253MOL0     C34047   6.206   7.528   6.590 -0.1912  0.2659  0.8861
  253MOL0     C34048   6.330   7.579   6.641  0.8836 -0.2861 -0.6062
  253MOL0     C34049   6.449   7.500   6.642 -0.0596  0.1115 -0.5694
  253MOL0     O34050   6.565   7.553   6.680 -0.1666  0.2441 -0.1997
  253MOL0     C34051   6.667   7.468   6.717 -0.5299  0.0018  0.2208
  253MOL0     C34052   6.766   7.436   6.628 -0.3376  1.1619 -0.2483
  253MOL0     C34053   6.885   7.374   6.672  0.6014  0.4018 -1.2390
  253MOL0     C34054   6.892   7.336   6.817 -0.3826 -0.3231 -0.3733
  253MOL0     O34055   7.001   7.263   6.853 -0.3556 -0.5035  0.9409
  253MOL0     C34056   7.052   7.263   6.992  0.2968  0.4249  0.0486
  253MOL0     C34057   7.134   7.132   7.015 -0.2643 -0.7726 -0.2666
  253MOL0     C34058   7.282   7.140   6.972  0.3955  0.5136  0.0461
  253MOL0     C34059   7.356   7.007   7.007  0.1004  0.0151  0.7717
  253MOL0     C34060   7.486   6.997   6.930  0.3469 -0.1698 -0.3740
  253MOL0     C34061   7.527   6.855   6.886 -0.2658  0.3253 -0.8782
  253MOL0     C34062   7.508   6.753   6.993  0.6968  0.0425 -0.6723
  253MOL0     C34063   7.598   6.763   7.114 -0.5369  0.6628  0.0923
  253MOL0    Cl34064   7.754   6.699   7.065  0.0348 -0.2749  0.2357
  253MOL0     C34065   6.790   7.370   6.898  0.5097 -0.2918 -0.7985
  253MOL0     C34066   6.683   7.441   6.848  0.0495  0.0711  0.0022
  253MOL0     O34067   6.438   7.384   6.602 -0.3396  0.6267 -0.2196
  253MOL0     C34068   6.311   7.713   6.687 -0.1980  0.4324  0.1924
  253MOL0     C34069   6.190   7.784   6.688 -0.1883 -0.2616  0.1666
  253MOL0     N34070   5.433   7.675   6.696 -0.5406 -0.0716  1.0181
  253MOL0     N34071   5.320   7.621   6.710  0.2062 -0.0709 -0.1362
  253MOL0     C34072   4.311   7.275   6.721 -0.3659 -0.1797  0.0739
  253MOL0     C34073   4.196   7.224   6.650 -0.5930 -0.4326 -0.1526
  253MOL0     C34074   3.766   7.250   6.522 -0.2511 -0.2082  0.1796
  253MOL0     C34075   3.751   7.117   6.473  0.7461 -0.2799 -0.7251
  253MOL0     C34076   3.630   7.086   6.401 -0.1864 -1.0241  0.2867
  253MOL0     C34077   3.542   7.183   6.358  0.0623 -0.6195  0.7900
  253MOL0     O34078   3.423   7.138   6.305 -0.0370 -0.1541 -0.7273
  253MOL0     C34079   3.382   7.181   6.172 -0.9572 -1.0907  0.0691
  253MOL0     C34080   3.235   7.230   6.163 -0.6760  0.6370 -0.0337
  253MOL0     C34081   3.221   7.363   6.232 -0.5319 -0.4565 -0.1529
  253MOL0     C34082   3.081   7.419   6.217 -0.0175 -0.2086  0.0849
  253MOL0     C34083   3.066   7.485   6.088  0.1223 -0.0494  0.4189
  253MOL0     C34084   3.056   7.539   5.981 -0.8016 -0.1087  0.5606
  253MOL0     C34085   3.567   7.319   6.387 -0.0408 -0.2769 -0.1817
  253MOL0     C34086   3.669   7.348   6.474 -0.1215  0.0084  0.0007
  253MOL0     C34087   3.668   7.494   6.524 -0.7117  0.1035  0.5444
  253MOL0     H34088   3.976   7.223   6.904 -0.8673 -2.2899 -3.1261
  253MOL0     H34089   4.188   7.280   7.028 -0.9529  1.6498 -0.7511
  253MOL0     H34090   4.305   7.538   6.981 -0.3563 -1.4607  1.3767
  253MOL0     H34091   4.464   7.517   7.051  2.0475  1.5081 -1.1135
  253MOL0     H34092   4.433   7.699   6.872  0.0052 -0.5494  2.4910
  253MOL0     H34093   4.458   7.563   6.755 -0.0544 -0.9320 -0.2313
  253MOL0     H34094   4.654   7.610   6.975  1.5442 -0.1331 -0.5431
  253MOL0     H34095   4.638   7.727   6.837  0.3139 -0.8678 -2.3624
  253MOL0     H34096   4.712   7.434   6.793  2.4383  0.2578 -0.2984
  253MOL0     H34097   4.645   7.543   6.666  2.2566  0.6640 -0.1787
  253MOL0     H34098   4.884   7.561   6.663  1.4767  0.7718  0.5609
  253MOL0     H34099   4.822   7.710   6.725  0.9984  1.1295  2.1647
  253MOL0     H34100   4.870   7.634   6.964  2.0410  1.1410  0.6089
  253MOL0     H34101   4.913   7.475   6.890  2.6317 -0.8932 -0.9989
  253MOL0     H34102   5.054   7.742   6.919  0.2625 -1.7967  2.2718
  253MOL0     H34103   5.057   7.669   6.753 -1.3855 -2.3368 -0.3717
  253MOL0     H34104   5.174   7.564   7.011 -1.5276 -1.0911 -0.5557
  253MOL0     H34105   5.135   7.467   6.867 -0.3605 -0.0502 -0.1805
  253MOL0     H34106   5.412   7.652   7.024 -1.4051 -0.6589 -0.0197
  253MOL0     H34107   5.625   7.839   6.780  0.9559  1.3893  2.0957
  253MOL0     H34108   5.634   7.778   6.944  2.7271 -2.0250 -0.3616
  253MOL0     H34109   5.827   7.736   6.851  1.3650 -0.4887 -2.4587
  253MOL0     H34110   5.751   7.576   6.858  1.6830 -0.2424 -1.2919
  253MOL0     H34111   5.678   7.615   6.616  1.5326 -3.2033  0.0812
  253MOL0     H34112   5.829   7.549   6.656  2.2243 -0.0333  1.3883
  253MOL0     H34113   5.779   7.843   6.556  1.3484  0.6552 -1.1590
  253MOL0     H34114   5.875   7.704   6.489  1.3105 -0.8748  0.0358
  253MOL0     H34115   6.000   7.562   6.532  0.4297  3.1150 -1.0506
  253MOL0     H34116   6.203   7.425   6.558  0.9971  0.6064 -0.4064
  253MOL0     H34117   6.755   7.438   6.520  1.2206 -1.9939 -0.5946
  253MOL0     H34118   6.948   7.330   6.596  2.6624  1.7016 -0.3506
  253MOL0     H34119   7.111   7.353   7.013 -0.1572  1.1319 -1.5519
  253MOL0     H34120   6.969   7.260   7.063 -0.3914 -3.2000 -0.7137
  253MOL0     H34121   7.136   7.101   7.120 -1.0939 -0.3602 -0.1159
  253MOL0     H34122   7.086   7.054   6.955 -1.9772 -0.8782  1.1483
  253MOL0     H34123   7.278   7.146   6.863 -2.6009  1.1432  0.1133
  253MOL0     H34124   7.339   7.225   7.012  1.8583 -0.1071 -0.6614
  253MOL0     H34125   7.301   6.919   6.974  1.8173 -0.4691 -0.9662
  253MOL0     H34126   7.364   7.006   7.116 -1.6446 -1.1769  0.9321
  253MOL0     H34127   7.567   7.053   6.979 -0.9416  1.4535 -0.0281
  253MOL0     H34128   7.481   7.048   6.834  0.9157 -1.3863 -1.0812
  253MOL0     H34129   7.467   6.825   6.799  0.7876  1.0535 -1.8957
  253MOL0     H34130   7.632   6.847   6.856  0.5167  1.4983  1.3479
  253MOL0     H34131   7.507   6.653   6.949 -2.5771 -0.2050 -0.2733
  253MOL0     H34132   7.412   6.762   7.044  0.6615 -2.1175 -0.2605
  253MOL0     H34133   7.602   6.863   7.157  0.0295  0.7447 -0.1507
  253MOL0     H34134   7.567   6.690   7.190 -1.4276  1.0172  0.0913
  253MOL0     H34135   6.790   7.348   7.004  2.4273 -2.1097 -1.1061
  253MOL0     H34136   6.602   7.485   6.906 -0.7114 -0.0177 -0.9684
  253MOL0     H34137   6.408   7.749   6.720  1.0631  1.8796 -4.3802
  253MOL0     H34138   6.200   7.889   6.713  0.3429 -0.6810  1.8895
  253MOL0     H34139   4.401   7.312   6.672  1.1533  0.3422  3.0324
  253MOL0     H34140   4.199   7.214   6.542 -2.0319  0.3456 -0.2888
  253MOL0     H34141   3.824   7.042   6.503  3.4746  3.4170  3.1507
  253MOL0     H34142   3.604   6.983   6.377 -0.0625 -1.0028  0.0528
  253MOL0     H34143   3.376   7.093   6.107 -3.5280  1.2782 -3.2844
  253MOL0     H34144   3.448   7.261   6.138 -1.2834  0.3854  2.6086
  253MOL0     H34145   3.178   7.158   6.222  0.2479 -1.3823 -1.5063
  253MOL0     H34146   3.196   7.236   6.061 -2.8139  2.9383  0.8003
  253MOL0     H34147   3.299   7.434   6.201  0.9369 -1.4171  1.1681
  253MOL0     H34148   3.239   7.348   6.339  1.9565  2.7773  0.0348
  253MOL0     H34149   3.004   7.341   6.225  0.6641 -0.8674  0.3322
  253MOL0     H34150   3.047   7.484   6.298  0.1907  0.2476 -0.1901
  253MOL0     H34151   3.062   7.591   5.888 -1.2264 -1.7166 -0.4117
  253MOL0     H34152   3.494   7.391   6.352 -0.2623  0.3479  1.5161
  253MOL0     H34153   3.616   7.558   6.451  1.4687  1.3019 -0.0352
  253MOL0     H34154   3.621   7.500   6.622 -0.5603  0.3694  0.6015
  253MOL0     H34155   3.764   7.545   6.523 -0.2548 -0.6644 -1.8852
  254MOL0     O34156   0.755   3.247  10.110 -0.1716  0.1892 -0.9045
  254MOL0     C34157   0.696   3.210  10.212  0.0403 -0.3316 -0.2220
  254MOL0     O34158   0.760   3.157  10.315 -0.5315  0.0117 -0.4061
  254MOL0     C34159   0.895   3.138  10.327  0.1962 -0.1273 -0.0106
  254MOL0     C34160   0.958   3.128  10.455 -0.3949  0.2477 -0.8588
  254MOL0     C34161   1.098   3.112  10.473  0.4407 -0.1805 -0.0097
  254MOL0     C34162   1.185   3.095  10.361 -0.3470  0.7284  0.5012
  254MOL0     O34163   1.320   3.087  10.384 -0.0456  0.1273 -0.7341
  254MOL0     C34164   1.404   3.131  10.275  0.3392  0.1121 -0.1356
  254MOL0     C34165   1.542   3.115  10.318  0.7438 -1.3792 -0.6063
  254MOL0     C34166   1.601   3.181  10.440 -0.1752 -0.8034  1.0017
  254MOL0     C34167   1.738   3.115  10.488 -0.0193  0.4560  0.8204
  254MOL0     C34168   1.795   3.190  10.608  0.3896  0.1582  0.3057
  254MOL0     C34169   1.940   3.156  10.619 -0.4010 -0.5398 -0.1248
  254MOL0     C34170   2.001   3.211  10.751 -0.1645  0.6524 -0.4160
  254MOL0     C34171   1.921   3.179  10.874  0.5213  0.2838 -0.5936
  254MOL0     N34172   1.999   3.190  10.998  0.0842 -0.3608 -0.6888
  254MOL0     C34173   2.062   3.305  11.043  0.0293 -0.6168  0.7816
  254MOL0     C34174   2.135   3.268  11.145 -0.1232  1.0005  0.6121
  254MOL0     C34175   2.228   3.347  11.222  1.1069 -0.7091  0.9730
  254MOL0     C34176   2.337   3.270  11.285  0.2442  0.0370  0.0457
  254MOL0     C34177   2.438   3.209  11.184  0.4051 -0.0290 -0.7183
  254MOL0     C34178   2.535   3.109  11.247  0.3136  0.0359 -0.5725
  254MOL0     O34179   2.621   3.172  11.343  0.7210 -0.4181 -0.4495
  254MOL0     C34180   2.743   3.116  11.362  0.7486  0.7395  0.2493
  254MOL0     C34181   2.824   3.184  11.459  0.1720 -0.5101  0.3569
  254MOL0     C34182   2.959   3.145  11.486  0.8670 -0.9449  0.1153
  254MOL0     C34183   3.011   3.023  11.429  0.9667  0.1095 -0.2691
  254MOL0     C34184   3.147   2.967  11.456  0.5328 -0.4158  0.7765
  254MOL0     O34185   3.222   3.031  11.552 -0.3427 -0.1477 -0.2118
  254MOL0     C34186   3.362   3.021  11.554  0.3136  0.6758  0.2347
  254MOL0     C34187   3.421   3.080  11.666  0.8147  0.0647 -0.0777
  254MOL0     C34188   3.560   3.085  11.679 -0.5309  0.5157  1.1336
  254MOL0     C34189   3.645   3.022  11.585  0.6448 -1.2399 -0.1699
  254MOL0     O34190   3.772   3.007  11.614 -0.4185 -0.1881 -0.5349
  254MOL0     C34191   3.874   2.989  11.513  0.0072 -0.3891  0.0516
  254MOL0     C34192   4.009   2.990  11.575  0.0424 -0.3554 -0.3001
  254MOL0     C34193   4.003   2.897  11.693  0.5716  0.9906 -0.6288
  254MOL0     C34194   4.141   2.858  11.732 -0.3007 -0.4959 -0.0173
  254MOL0     C34195   4.149   2.797  11.873 -0.5804 -0.7604 -0.0151
  254MOL0     C34196   4.067   2.668  11.897  0.1121  0.0631 -0.4237
  254MOL0     C34197   4.072   2.632  12.042  0.2488 -0.5682  0.2845
  254MOL0     C34198   4.072   2.479  12.053 -0.9504  0.0092 -0.7061
  254MOL0    Cl34199   4.180   2.406  11.933 -0.2866  0.2950 -0.4727
  254MOL0     C34200   3.585   2.977  11.467 -0.3012  0.2364 -0.1445
  254MOL0     C34201   3.450   2.975  11.449 -0.2973  0.3824 -0.1395
  254MOL0     O34202   3.190   2.877  11.379 -0.2117  0.0127  0.1458
  254MOL0     C34203   2.925   2.954  11.342 -0.5931 -0.2971  0.2792
  254MOL0     C34204   2.797   2.994  11.309  0.6530  0.5305 -0.3654
  254MOL0     N34205   2.110   3.133  11.176  0.5368  0.1567  0.4391
  254MOL0     N34206   2.034   3.087  11.081 -0.2938 -0.4137 -0.4336
  254MOL0     C34207   1.124   3.096  10.233 -0.1804  0.2224  0.3798
  254MOL0     C34208   0.986   3.119  10.218 -0.6046 -0.3479 -0.4332
  254MOL0     C34209   0.550   3.227  10.227  0.1225 -0.5302  0.0344
  254MOL0     C34210   0.493   3.162  10.334 -0.3865 -0.2806 -0.6823
  254MOL0     C34211   0.351   3.149  10.336 -0.1395 -0.9629 -0.0279
  254MOL0     C34212   0.272   3.223  10.248 -0.3757  0.4134 -0.4738
  254MOL0     O34213   0.135   3.216  10.260  0.3831 -0.9779  0.5059
  254MOL0     C34214   0.052   3.258  10.149  0.0062 -0.5225 -0.2768
  254MOL0     C34215  -0.098   3.223  10.163 -0.0686 -0.6844  0.1250
  254MOL0     C34216  -0.174   3.248  10.030 -0.1082 -0.2352  0.1944
  254MOL0     C34217  -0.311   3.179  10.035  0.3328  1.1732  0.0746
  254MOL0     C34218  -0.394   3.216  10.146  0.4183  0.5404 -0.2486
  254MOL0     C34219  -0.463   3.246  10.241  0.6222 -1.3290  0.2369
  254MOL0     C34220   0.333   3.299  10.155  0.0131 -0.1792  0.5329
  254MOL0     C34221   0.468   3.303  10.143 -0.0381 -0.0325  0.3227
  254MOL0     C34222   0.526   3.389  10.034 -0.3426 -0.2768  0.3053
  254MOL0     H34223   0.904   3.142  10.548 -0.9598  1.4396 -1.3383
  254MOL0     H34224   1.147   3.123  10.569  0.8000  1.1410 -0.3232
  254MOL0     H34225   1.386   3.076  10.182 -0.8776 -0.3727  0.3688
  254MOL0     H34226   1.390   3.239  10.267  0.6063  0.4692  3.0586
  254MOL0     H34227   1.593   3.157  10.230 -2.2658 -1.4138 -2.5285
  254MOL0     H34228   1.560   3.007  10.323 -2.5511 -2.0065 -0.2338
  254MOL0     H34229   1.528   3.179  10.522  1.7322 -0.4960  2.7982
  254MOL0     H34230   1.623   3.285  10.413 -3.1578 -0.5894 -1.0970
  254MOL0     H34231   1.715   3.010  10.508 -0.2613  0.1124 -1.0545
  254MOL0     H34232   1.804   3.120  10.401 -2.2451  1.0008 -0.9472
  254MOL0     H34233   1.767   3.294  10.594 -0.6314 -0.4476 -2.9330
  254MOL0     H34234   1.740   3.170  10.701 -0.7112  0.5031 -0.2491
  254MOL0     H34235   1.960   3.048  10.619 -0.0052 -0.5034  2.0018
  254MOL0     H34236   1.998   3.207  10.541 -0.8058 -0.9749 -0.7221
  254MOL0     H34237   1.996   3.320  10.749 -0.6913  0.7209  1.9251
  254MOL0     H34238   2.101   3.169  10.764 -0.5283  0.1230  0.7652
  254MOL0     H34239   1.825   3.231  10.879 -1.3363 -2.9701 -0.2382
  254MOL0     H34240   1.896   3.073  10.871  1.0333  0.1845 -1.7636
  254MOL0     H34241   2.053   3.405  11.002 -2.5801 -1.5164 -1.1309
  254MOL0     H34242   2.273   3.416  11.150  0.3193  3.4110  4.0544
  254MOL0     H34243   2.164   3.408  11.287  0.4826  2.1423 -2.0645
  254MOL0     H34244   2.378   3.334  11.364 -0.1101 -1.1945  1.2689
  254MOL0     H34245   2.302   3.186  11.344 -0.2772 -0.8318 -1.4653
  254MOL0     H34246   2.495   3.295  11.146  0.4280  1.1294  1.7487
  254MOL0     H34247   2.378   3.155  11.110 -0.3024 -0.6294  0.2628
  254MOL0     H34248   2.599   3.068  11.168 -0.3553  0.9066 -1.5902
  254MOL0     H34249   2.479   3.031  11.299 -1.5462  2.4311  1.2636
  254MOL0     H34250   2.772   3.267  11.506  2.0130  0.9250 -0.0271
  254MOL0     H34251   3.012   3.206  11.558 -0.3230  1.5964 -1.0223
  254MOL0     H34252   3.356   3.118  11.744 -0.5095  1.2109 -1.6622
  254MOL0     H34253   3.600   3.124  11.772 -1.5418 -0.6507  2.0934
  254MOL0     H34254   3.867   2.892  11.463 -0.6679  0.2265 -1.0670
  254MOL0     H34255   3.855   3.068  11.441 -1.6626  0.2518  1.1336
  254MOL0     H34256   4.076   2.948  11.499  1.5313 -0.3214  0.9339
  254MOL0     H34257   4.033   3.092  11.606 -1.9046  0.7095 -2.0800
  254MOL0     H34258   3.945   2.936  11.777  0.5889 -1.2373  0.4915
  254MOL0     H34259   3.946   2.807  11.668  1.1419 -0.0808  1.6888
  254MOL0     H34260   4.214   2.939  11.731  0.2241 -0.9562 -0.9793
  254MOL0     H34261   4.173   2.790  11.652  0.9924 -0.0896  0.1297
  254MOL0     H34262   4.134   2.879  11.945 -0.4355 -2.1972  1.7224
  254MOL0     H34263   4.254   2.769  11.887 -0.2965  0.1234 -0.3057
  254MOL0     H34264   3.963   2.690  11.873  0.1557  1.2858  0.4757
  254MOL0     H34265   4.091   2.595  11.819  0.4707  0.9899 -1.1969
  254MOL0     H34266   3.986   2.671  12.097  1.4714  2.3051  0.3776
  254MOL0     H34267   4.160   2.671  12.095 -0.5483  0.0974  1.1487
  254MOL0     H34268   4.103   2.446  12.153 -2.1555 -0.9611 -0.6222
  254MOL0     H34269   3.972   2.435  12.048 -0.1851 -1.8571 -0.4632
  254MOL0     H34270   3.635   2.930  11.383 -2.5325 -0.1531 -1.3382
  254MOL0     H34271   3.420   2.923  11.358  0.7870 -2.2502  0.8887
  254MOL0     H34272   2.967   2.865  11.298  0.5127  0.3628 -0.0253
  254MOL0     H34273   2.728   2.928  11.258 -0.7310  0.8640  1.0091
  254MOL0     H34274   1.172   3.059  10.143 -0.8394  0.1836  0.0354
  254MOL0     H34275   0.943   3.112  10.118  0.4038 -0.1949 -0.8905
  254MOL0     H34276   0.551   3.114  10.412 -0.5918  0.9179  0.2360
  254MOL0     H34277   0.306   3.082  10.409  0.3357 -1.6018 -0.3148
  254MOL0     H34278   0.094   3.213  10.059  0.7940  3.5141 -2.1975
  254MOL0     H34279   0.052   3.366  10.126  1.3800 -0.2822  0.8015
  254MOL0     H34280  -0.133   3.280  10.249  0.0688 -0.6185  0.1366
  254MOL0     H34281  -0.112   3.117  10.187  0.2737 -0.4447  1.4217
  254MOL0     H34282  -0.119   3.198   9.950  0.7188  0.3055  0.4118
  254MOL0     H34283  -0.189   3.356  10.026  2.8991  0.4224  3.0232
  254MOL0     H34284  -0.366   3.205   9.944 -4.7179 -0.4415  2.3030
  254MOL0     H34285  -0.293   3.071  10.039  1.8319  1.3190 -1.4707
  254MOL0     H34286  -0.518   3.269  10.329 -0.4109 -2.4786 -0.0829
  254MOL0     H34287   0.279   3.358  10.083  0.0695  1.1644  1.5532
  254MOL0     H34288   0.616   3.442  10.069 -0.4551 -1.6193  2.8504
  254MOL0     H34289   0.554   3.333   9.944 -2.2672 -1.8627  0.6309
  254MOL0     H34290   0.452   3.466  10.009 -1.3828 -1.8882 -1.9050
  255MOL0     O34291   9.034  10.437   2.737 -0.4458 -0.0144 -0.0321
  255MOL0     C34292   9.086  10.383   2.638  0.3592  0.1021 -0.1781
  255MOL0     O34293   9.217  10.334   2.629 -0.2659  0.8881  0.8245
  255MOL0     C34294   9.279  10.321   2.748 -0.7364  0.1107  0.5229
  255MOL0     C34295   9.361  10.427   2.793  0.9637  0.6076 -0.3897
  255MOL0     C34296   9.448  10.412   2.902 -0.0882 -0.0748  0.2699
  255MOL0     C34297   9.448  10.291   2.972 -1.1214  1.0359 -0.3597
  255MOL0     O34298   9.543  10.275   3.072  0.2901 -0.3436 -1.2679
  255MOL0     C34299   9.569  10.140   3.111 -1.0521  0.1269 -0.3515
  255MOL0     C34300   9.705  10.136   3.186  0.2682  1.1900 -0.6615
  255MOL0     C34301   9.822  10.152   3.096 -0.4103  0.1467 -0.9793
  255MOL0     C34302   9.950  10.129   3.178 -0.2577  0.5599 -0.2621
  255MOL0     C34303  10.071  10.169   3.093  0.5017 -0.4852 -0.3513
  255MOL0     C34304  10.199  10.127   3.163  0.5268  0.0982  0.1599
  255MOL0     C34305  10.301  10.142   3.053 -0.6754 -0.8951  0.0208
  255MOL0     C34306  10.447  10.108   3.091  0.1617  0.0348 -0.0635
  255MOL0     N34307  10.475   9.967   3.122 -0.1852 -0.7958 -0.6351
  255MOL0     C34308  10.557   9.886   3.050 -0.2263  0.4618 -0.2324
  255MOL0     C34309  10.562   9.768   3.116 -0.0170 -1.0970 -0.3076
  255MOL0     C34310  10.642   9.641   3.078 -0.2689 -0.3452 -0.3938
  255MOL0     C34311  10.768   9.614   3.151  0.6747 -0.0840  0.5702
  255MOL0     C34312  10.887   9.704   3.112  0.2866  0.2997  0.0324
  255MOL0     C34313  10.960   9.689   2.979 -0.9159 -0.2527  1.0814
  255MOL0     O34314  11.023   9.558   2.974  0.3595  0.7897 -0.4783
  255MOL0     C34315  11.087   9.527   2.852 -0.0369 -0.8284  0.3220
  255MOL0     C34316  11.116   9.612   2.744 -0.0551 -0.4690  0.4989
  255MOL0     C34317  11.183   9.572   2.630 -0.1029  0.1894  0.0128
  255MOL0     C34318  11.243   9.440   2.618  0.7669  0.5819 -0.1397
  255MOL0     C34319  11.336   9.407   2.512  0.9162  0.9223 -0.1200
  255MOL0     O34320  11.381   9.505   2.431 -0.9552 -0.3974 -1.1515
  255MOL0     C34321  11.476   9.479   2.339  0.5121  0.4870 -0.3853
  255MOL0     C34322  11.448   9.391   2.238 -0.3840 -0.2126  0.3384
  255MOL0     C34323  11.546   9.363   2.143  0.0339 -0.3295  1.3600
  255MOL0     C34324  11.664   9.435   2.140 -0.1220 -0.3213  0.1611
  255MOL0     O34325  11.751   9.411   2.042  0.9755  0.0205  0.3626
  255MOL0     C34326  11.799   9.279   2.034  0.0152  0.1003 -0.2283
  255MOL0     C34327  11.880   9.234   2.159  0.3295  0.8015 -0.4728
  255MOL0     C34328  12.021   9.298   2.167 -0.3653 -0.7182 -0.1374
  255MOL0     C34329  12.103   9.226   2.274  0.0216  0.1262  0.4857
  255MOL0     C34330  12.236   9.288   2.293 -0.6896 -0.7042 -0.1184
  255MOL0     C34331  12.328   9.201   2.380 -0.0835 -1.1529  0.9598
  255MOL0     C34332  12.469   9.272   2.384 -1.0671 -0.5838 -0.0796
  255MOL0     C34333  12.564   9.198   2.477 -0.0609  1.1412 -0.1279
  255MOL0    Cl34334  12.735   9.244   2.434  0.1089 -0.1645 -0.1199
  255MOL0     C34335  11.682   9.542   2.232 -0.5333  0.1060  0.3398
  255MOL0     C34336  11.589   9.560   2.336 -0.0213  0.1107  0.0434
  255MOL0     O34337  11.379   9.294   2.518  1.2085 -0.2017 -0.0779
  255MOL0     C34338  11.209   9.344   2.728 -0.2482  0.2870 -0.0359
  255MOL0     C34339  11.137   9.394   2.837  0.2369 -0.4483  0.0117
  255MOL0     N34340  10.479   9.779   3.231  0.0588  0.2815  0.0008
  255MOL0     N34341  10.426   9.893   3.230  0.0642 -0.3136  0.2934
  255MOL0     C34342   9.353  10.195   2.936  0.0874 -0.0694  0.1676
  255MOL0     C34343   9.277  10.205   2.826 -0.2359 -0.0267 -0.6580
  255MOL0     C34344   8.991  10.359   2.520 -0.7242 -0.7268 -0.3286
  255MOL0     C34345   9.039  10.285   2.412 -0.5321  0.0812  0.2625
  255MOL0     C34346   8.951  10.258   2.307  1.2500 -0.3397 -0.5448
  255MOL0     C34347   8.821  10.295   2.307  0.1940  1.0225  0.9905
  255MOL0     O34348   8.743  10.239   2.203  0.4174 -1.0704 -0.0135
  255MOL0     C34349   8.603  10.241   2.207 -0.2321 -0.2904 -0.5414
  255MOL0     C34350   8.549  10.360   2.138  0.4359  0.2532  0.2020
  255MOL0     C34351   8.400  10.376   2.163  0.9153  0.6303 -0.2376
  255MOL0     C34352   8.323  10.245   2.126 -0.7387 -0.2624 -0.0083
  255MOL0     C34353   8.342  10.200   1.985 -0.4219  0.2363 -0.4769
  255MOL0     C34354   8.347  10.146   1.880  0.1752  0.1264 -0.2151
  255MOL0     C34355   8.775  10.375   2.415 -0.4477  0.1051  0.0512
  255MOL0     C34356   8.855  10.413   2.522  0.5715  0.4938 -0.9691
  255MOL0     C34357   8.803  10.514   2.623  0.1848  0.2494  0.9612
  255MOL0     H34358   9.375  10.527   2.752 -0.9289  1.0376 -0.0801
  255MOL0     H34359   9.514  10.493   2.931 -1.0141  0.4293  1.0575
  255MOL0     H34360   9.490  10.107   3.179 -1.2957 -1.1218 -1.2095
  255MOL0     H34361   9.584  10.077   3.023  0.3035  0.7225 -0.5827
  255MOL0     H34362   9.713  10.035   3.225 -0.9959  1.0570 -0.7168
  255MOL0     H34363   9.698  10.212   3.265 -1.2211  0.7684 -0.3734
  255MOL0     H34364   9.822  10.254   3.055 -0.7589  0.0364 -1.2596
  255MOL0     H34365   9.809  10.077   3.018 -0.3227  0.7125 -1.5464
  255MOL0     H34366   9.953  10.185   3.272  0.7368  0.1002 -0.0111
  255MOL0     H34367   9.961  10.027   3.216 -0.5036  1.3705  2.1588
  255MOL0     H34368  10.065  10.112   3.000  0.7120  0.0333 -0.6870
  255MOL0     H34369  10.068  10.274   3.062  0.9526  0.1693  1.6874
  255MOL0     H34370  10.233  10.183   3.251  0.9325 -2.2189  1.5538
  255MOL0     H34371  10.199  10.020   3.184 -1.1666 -0.1526 -0.8918
  255MOL0     H34372  10.300  10.243   3.012 -0.8099 -0.6948  0.5024
  255MOL0     H34373  10.281  10.075   2.969  0.5060  0.9369 -1.8140
  255MOL0     H34374  10.513  10.138   3.009  1.9401  1.3759  1.7431
  255MOL0     H34375  10.463  10.173   3.178  1.6192 -1.2855  0.7036
  255MOL0     H34376  10.614   9.910   2.961 -0.7328  0.9155 -0.4403
  255MOL0     H34377  10.574   9.560   3.106 -1.1435 -0.0572 -1.5817
  255MOL0     H34378  10.668   9.647   2.972  1.6455  1.8070  0.1176
  255MOL0     H34379  10.742   9.636   3.255 -2.6513  0.4359 -0.2688
  255MOL0     H34380  10.805   9.513   3.131  0.9984  0.7757 -4.2184
  255MOL0     H34381  10.970   9.692   3.182  2.1506  1.8593 -1.7659
  255MOL0     H34382  10.857   9.809   3.120 -1.1938 -0.2797  4.5831
  255MOL0     H34383  11.032   9.769   2.960 -1.0377 -0.7372 -2.0390
  255MOL0     H34384  10.901   9.700   2.887 -0.4536  1.4158  0.9647
  255MOL0     H34385  11.077   9.714   2.743  1.3174  0.1472 -2.5621
  255MOL0     H34386  11.195   9.646   2.551 -0.3101  0.5294  0.2998
  255MOL0     H34387  11.355   9.336   2.225 -1.2055  1.0411  0.6641
  255MOL0     H34388  11.520   9.300   2.059 -2.2384  3.6662 -1.3102
  255MOL0     H34389  11.711   9.216   2.019  0.5557 -0.8964  0.6794
  255MOL0     H34390  11.853   9.266   1.940 -0.8807  0.1571 -0.7637
  255MOL0     H34391  11.823   9.266   2.247 -2.7783  2.6951 -2.9282
  255MOL0     H34392  11.894   9.127   2.148 -2.7740  0.2836 -0.3380
  255MOL0     H34393  12.083   9.291   2.077  0.9913 -1.8222  0.8370
  255MOL0     H34394  12.003   9.404   2.188 -0.3652 -0.6044 -0.7013
  255MOL0     H34395  12.112   9.121   2.244  2.0769  0.7250 -1.2426
  255MOL0     H34396  12.050   9.232   2.370 -2.9024 -2.0062 -0.8292
  255MOL0     H34397  12.232   9.384   2.345 -2.8363  0.4186 -2.1148
  255MOL0     H34398  12.286   9.299   2.196 -0.1960 -3.7356 -0.3233
  255MOL0     H34399  12.301   9.189   2.485 -0.1677  2.2755  1.4572
  255MOL0     H34400  12.337   9.109   2.322  2.2944  0.6409 -1.8423
  255MOL0     H34401  12.466   9.380   2.400 -0.7295 -0.4476 -0.8547
  255MOL0     H34402  12.521   9.253   2.290  0.7532  0.3364  0.6972
  255MOL0     H34403  12.552   9.207   2.586  0.6245  0.2122  0.0430
  255MOL0     H34404  12.548   9.092   2.456  2.3082  0.5122  0.8822
  255MOL0     H34405  11.761   9.614   2.218 -1.0708  0.5427 -0.5165
  255MOL0     H34406  11.601   9.644   2.403  2.7296  0.4418 -0.7473
  255MOL0     H34407  11.258   9.247   2.732  3.8540  2.0835 -1.5646
  255MOL0     H34408  11.138   9.323   2.920 -1.5755 -1.2274 -0.5683
  255MOL0     H34409   9.365  10.096   2.979  1.0735  0.6465  1.6178
  255MOL0     H34410   9.222  10.125   2.779  2.8425 -0.5420 -3.8645
  255MOL0     H34411   9.144  10.260   2.417 -0.9689 -1.8027  0.7365
  255MOL0     H34412   8.983  10.192   2.227  1.2048  0.6033 -1.3637
  255MOL0     H34413   8.573  10.234   2.312 -0.6847 -2.7558 -0.7679
  255MOL0     H34414   8.567  10.154   2.151 -0.3955 -1.1201  0.8074
  255MOL0     H34415   8.570  10.363   2.031  3.2369  1.9858  0.6903
  255MOL0     H34416   8.602  10.446   2.179  3.3308 -2.1918  2.0882
  255MOL0     H34417   8.358  10.469   2.123  0.8253  1.7901  2.3628
  255MOL0     H34418   8.383  10.375   2.271  0.7410 -3.5136 -0.1599
  255MOL0     H34419   8.337  10.163   2.197  0.8349  0.8835  1.0783
  255MOL0     H34420   8.218  10.274   2.133 -0.8371 -0.1700 -1.4527
  255MOL0     H34421   8.344  10.105   1.781 -0.4006 -3.2655  1.0700
  255MOL0     H34422   8.670  10.400   2.404 -0.2125  0.3284 -2.0759
  255MOL0     H34423   8.776  10.467   2.718 -3.3990  2.1064  1.0511
  255MOL0     H34424   8.871  10.599   2.636  0.3714  0.7138 -2.2991
  255MOL0     H34425   8.707  10.552   2.587  0.0425  0.8092  1.9027
  256MOL0     O34426   8.110   4.190  11.059 -0.1089 -0.1812 -0.0591
  256MOL0     C34427   8.106   4.213  11.177 -0.5985  0.0019 -0.3509
  256MOL0     O34428   8.219   4.250  11.256  0.8520  0.2011  0.5453
  256MOL0     C34429   8.346   4.240  11.201 -0.7209  0.1062 -0.7387
  256MOL0     C34430   8.430   4.151  11.276 -0.3909  1.2720  0.3745
  256MOL0     C34431   8.561   4.135  11.231 -0.5266  0.0034  0.1906
  256MOL0     C34432   8.612   4.221  11.125 -0.4940 -0.2347  0.1054
  256MOL0     O34433   8.739   4.214  11.077 -0.0400 -0.6397  0.0423
  256MOL0     C34434   8.806   4.088  11.071 -0.4106  0.5028 -0.6179
  256MOL0     C34435   8.960   4.111  11.029 -0.3911  0.0907 -0.1112
  256MOL0     C34436   9.043   3.983  11.023 -0.7852 -0.3398 -0.5527
  256MOL0     C34437   9.184   4.014  10.969  0.5647 -0.5136 -0.4014
  256MOL0     C34438   9.279   4.066  11.077  0.6402  0.6538 -0.3400
  256MOL0     C34439   9.423   4.120  11.038  0.8646 -0.9061  0.2060
  256MOL0     C34440   9.507   4.039  10.943  0.4188 -1.2110 -0.1083
  256MOL0     C34441   9.628   4.121  10.910 -0.5734 -1.2671  0.1540
  256MOL0     N34442   9.706   4.039  10.814  0.5988  0.8446  0.0212
  256MOL0     C34443   9.657   4.002  10.687  0.7528 -0.4601 -0.4906
  256MOL0     C34444   9.760   3.933  10.631  0.1585  0.8486 -0.7875
  256MOL0     C34445   9.749   3.904  10.490 -1.1391  0.0336  0.2397
  256MOL0     C34446   9.687   3.769  10.477  0.3085  0.3781  0.1696
  256MOL0     C34447   9.713   3.697  10.348  0.0285 -0.5583  0.5947
  256MOL0     C34448   9.646   3.555  10.342  0.2948  0.2647 -0.2429
  256MOL0     O34449   9.647   3.491  10.212 -0.5145  1.0607 -0.2853
  256MOL0     C34450   9.762   3.433  10.166 -0.0765 -0.8180  1.2532
  256MOL0     C34451   9.882   3.420  10.242  0.8136 -0.5456  0.5548
  256MOL0     C34452   9.998   3.366  10.187  0.6764  0.2662 -0.0673
  256MOL0     C34453   9.996   3.320  10.058 -0.9702  0.4779  0.4707
  256MOL0     C34454  10.128   3.268  10.005  0.4852 -0.0638 -0.0777
  256MOL0     O34455  10.242   3.271  10.083  0.4615 -0.3040  0.9704
  256MOL0     C34456  10.346   3.186  10.048  0.3681  0.0161 -0.1586
  256MOL0     C34457  10.472   3.237  10.053  0.2211 -0.3320 -0.2602
  256MOL0     C34458  10.583   3.155  10.016  0.5258  0.6245 -0.0307
  256MOL0     C34459  10.563   3.029   9.955 -0.0120 -0.3156 -1.1465
  256MOL0     O34460  10.678   2.971   9.927 -0.0385 -0.3492  0.0033
  256MOL0     C34461  10.666   2.864   9.832  0.6591 -0.1581 -0.5740
  256MOL0     C34462  10.800   2.810   9.803  0.1684 -0.3548 -0.1970
  256MOL0     C34463  10.903   2.914   9.767 -0.2649 -0.0144 -0.3340
  256MOL0     C34464  10.876   2.982   9.628  0.3085  0.8946 -0.1952
  256MOL0     C34465  10.981   3.087   9.589  0.3292 -1.0177 -0.4859
  256MOL0     C34466  10.955   3.137   9.443 -0.6245  0.6784 -1.1539
  256MOL0     C34467  11.013   3.283   9.404  0.7989  0.8281 -0.2957
  256MOL0     C34468  11.163   3.301   9.433  0.5856 -1.0094 -0.7555
  256MOL0    Cl34469  11.256   3.187   9.344  0.1108 -0.0299 -0.2744
  256MOL0     C34470  10.430   2.980   9.949 -0.7084  0.2692  0.1258
  256MOL0     C34471  10.326   3.057   9.991 -0.1070  1.1193  0.2808
  256MOL0     O34472  10.122   3.230   9.889 -0.4789 -0.2437  0.7824
  256MOL0     C34473   9.884   3.340   9.977 -0.0909 -0.1003 -0.4412
  256MOL0     C34474   9.767   3.405  10.025 -0.4001  0.3418  0.4085
  256MOL0     N34475   9.869   3.936  10.724  0.2418 -1.0555  0.7244
  256MOL0     N34476   9.838   4.001  10.829 -0.3287 -0.6051  0.0011
  256MOL0     C34477   8.523   4.306  11.061  0.2264  0.6027 -0.0465
  256MOL0     C34478   8.390   4.321  11.100 -0.5639  0.8603 -0.1881
  256MOL0     C34479   7.979   4.188  11.258 -0.9221  0.3563  0.1017
  256MOL0     C34480   7.986   4.182  11.393 -0.5755 -0.8431 -0.9208
  256MOL0     C34481   7.875   4.166  11.476 -0.5218  0.5260  0.7522
  256MOL0     C34482   7.752   4.148  11.414  0.0746 -0.8109 -0.7069
  256MOL0     O34483   7.635   4.132  11.481 -0.6006  0.5537 -0.5269
  256MOL0     C34484   7.616   4.184  11.613 -0.1742 -1.1428  0.0499
  256MOL0     C34485   7.614   4.344  11.611  0.9724  0.2629  0.3626
  256MOL0     C34486   7.538   4.390  11.730  0.4405 -0.6265 -0.7132
  256MOL0     C34487   7.593   4.358  11.868 -0.4395  0.5660 -0.7317
  256MOL0     C34488   7.714   4.439  11.886  0.1960  0.0022  0.0502
  256MOL0     C34489   7.823   4.491  11.896  0.4385  0.2164  1.0167
  256MOL0     C34490   7.737   4.159  11.279  0.7402  0.5917 -0.4830
  256MOL0     C34491   7.855   4.171  11.193 -0.0506 -0.4236 -0.5415
  256MOL0     C34492   7.830   4.190  11.045  0.6350  0.2877  0.5153
  256MOL0     H34493   8.400   4.100  11.367  0.7964 -3.4134 -1.5870
  256MOL0     H34494   8.618   4.070  11.296  0.2358  2.1360  1.7635
  256MOL0     H34495   8.798   4.014  11.152 -1.8611 -0.0599 -1.2429
  256MOL0     H34496   8.757   4.034  10.989 -2.4826 -0.3491  1.0729
  256MOL0     H34497   8.999   4.170  11.112 -3.0485 -1.7780  2.7398
  256MOL0     H34498   8.965   4.163  10.933 -2.3439  1.5678  0.5211
  256MOL0     H34499   9.007   3.914  10.946  0.2183 -0.9211 -0.5256
  256MOL0     H34500   9.045   3.924  11.115 -0.9251  0.9420  0.3046
  256MOL0     H34501   9.228   3.918  10.942  0.0818 -0.1431 -2.7044
  256MOL0     H34502   9.171   4.077  10.880  0.6870 -0.3009 -0.2691
  256MOL0     H34503   9.236   4.147  11.138  0.4457 -0.6386  1.2996
  256MOL0     H34504   9.297   3.984  11.146  1.5917  1.6220  0.5975
  256MOL0     H34505   9.419   4.220  10.994  0.2359 -1.1367 -0.2737
  256MOL0     H34506   9.497   4.125  11.119  3.0057  0.4568 -1.6957
  256MOL0     H34507   9.443   4.014  10.858 -0.5329 -0.2010  0.2860
  256MOL0     H34508   9.526   3.943  10.991 -1.1635 -1.3967  0.1827
  256MOL0     H34509   9.601   4.209  10.850 -0.5523 -1.7633 -0.5897
  256MOL0     H34510   9.687   4.144  10.999  0.5277  0.5911 -0.9867
  256MOL0     H34511   9.566   4.029  10.635  2.9562  0.2826 -4.3321
  256MOL0     H34512   9.695   3.973  10.424 -1.4672 -0.0806  0.3850
  256MOL0     H34513   9.850   3.904  10.448 -1.4233 -1.4830 -0.5316
  256MOL0     H34514   9.724   3.705  10.558  1.6198 -2.0786 -2.2379
  256MOL0     H34515   9.582   3.802  10.480  0.3168  0.4101  0.1014
  256MOL0     H34516   9.821   3.680  10.336 -0.3406 -2.9348  0.1000
  256MOL0     H34517   9.687   3.760  10.263  0.4617  2.0941  2.3055
  256MOL0     H34518   9.540   3.567  10.365  0.1905 -0.8814 -0.0854
  256MOL0     H34519   9.696   3.485  10.409 -1.5249  0.8002  1.7656
  256MOL0     H34520   9.887   3.451  10.347 -1.8269 -2.5517  1.3924
  256MOL0     H34521  10.090   3.368  10.245  0.7289  2.8628 -0.1176
  256MOL0     H34522  10.495   3.337  10.088  4.5342 -1.6949  1.3501
  256MOL0     H34523  10.678   3.202  10.038  0.7818  0.5572 -0.9252
  256MOL0     H34524  10.613   2.779   9.874 -0.7803  0.3312 -1.3410
  256MOL0     H34525  10.623   2.901   9.738  0.6774 -1.3151 -1.0534
  256MOL0     H34526  10.840   2.760   9.892 -0.5901 -0.6425 -0.0052
  256MOL0     H34527  10.789   2.731   9.728  0.0261  0.4136 -0.9993
  256MOL0     H34528  10.931   2.982   9.849 -1.1144 -1.4341  1.1939
  256MOL0     H34529  11.002   2.868   9.758  0.4374  1.3349  0.1445
  256MOL0     H34530  10.781   3.035   9.634 -0.4964 -0.5709  0.5708
  256MOL0     H34531  10.873   2.911   9.545 -0.4327  2.2517 -1.3768
  256MOL0     H34532  11.085   3.061   9.612 -0.1073 -0.4445  2.4475
  256MOL0     H34533  10.970   3.175   9.652  1.0983 -1.7370  0.6914
  256MOL0     H34534  10.991   3.063   9.371 -2.8911 -0.9453 -0.7115
  256MOL0     H34535  10.851   3.150   9.413 -1.0671  1.6484  0.6679
  256MOL0     H34536  10.960   3.361   9.460 -0.1365 -0.7631  1.1485
  256MOL0     H34537  10.988   3.306   9.300  0.1077 -0.8288 -0.5238
  256MOL0     H34538  11.169   3.406   9.402  0.9210 -0.3413  1.4120
  256MOL0     H34539  11.184   3.280   9.538  1.8480 -2.9165 -1.3490
  256MOL0     H34540  10.417   2.878   9.915  1.2914 -0.3484  1.0776
  256MOL0     H34541  10.226   3.017   9.988  0.1581  0.0083  3.0901
  256MOL0     H34542   9.892   3.299   9.877  1.8071 -0.6660 -0.0986
  256MOL0     H34543   9.685   3.402   9.954 -0.1109  1.8986 -0.0196
  256MOL0     H34544   8.558   4.353  10.969 -1.1778  1.3295 -0.2284
  256MOL0     H34545   8.323   4.388  11.047  1.4422 -0.0752 -4.3436
  256MOL0     H34546   8.083   4.190  11.440  0.0743  0.7461 -2.4432
  256MOL0     H34547   7.882   4.155  11.584 -1.4762  0.1453  0.7873
  256MOL0     H34548   7.694   4.155  11.684  0.0728 -1.3949 -0.3159
  256MOL0     H34549   7.521   4.146  11.651  0.6004 -3.0588  0.2078
  256MOL0     H34550   7.563   4.387  11.524 -2.0682  0.8004  2.2794
  256MOL0     H34551   7.716   4.385  11.611  0.9794  0.7411 -3.9500
  256MOL0     H34552   7.441   4.339  11.722  1.6147 -3.2793  0.7729
  256MOL0     H34553   7.520   4.498  11.736 -1.0896 -0.9309  1.7463
  256MOL0     H34554   7.512   4.377  11.939  0.9119  2.8044  0.3078
  256MOL0     H34555   7.616   4.252  11.881  3.6405  1.1120 -2.1043
  256MOL0     H34556   7.922   4.530  11.890 -0.3628  2.2997  0.5521
  256MOL0     H34557   7.637   4.147  11.237  0.0394  0.2283  1.2003
  256MOL0     H34558   7.724   4.180  11.020  0.0020  1.8287  2.2867
  256MOL0     H34559   7.861   4.291  11.016 -1.0046  0.1243 -2.1489
  256MOL0     H34560   7.892   4.114  10.997  1.3131 -0.2749  2.1827
  257MOL0     O34561   2.294   7.986   5.272 -0.0096 -0.3071  0.2161
  257MOL0     C34562   2.231   7.902   5.335  0.3922  0.3953 -0.4162
  257MOL0     O34563   2.255   7.872   5.461 -0.1295  0.2213  0.0083
  257MOL0     C34564   2.378   7.878   5.526 -0.3636 -0.0578  0.8716
  257MOL0     C34565   2.494   7.815   5.480 -0.4322  1.0233 -0.2964
  257MOL0     C34566   2.612   7.809   5.558  1.1946  0.2025  0.4761
  257MOL0     C34567   2.612   7.866   5.683  0.2722  0.2378  0.2372
  257MOL0     O34568   2.724   7.860   5.758 -0.0792  0.4648  0.2120
  257MOL0     C34569   2.846   7.895   5.682  0.4529  0.2550  0.0252
  257MOL0     C34570   2.956   7.917   5.788 -1.0935  0.3197  0.6891
  257MOL0     C34571   2.925   8.034   5.876  0.0042  0.8372  0.6396
  257MOL0     C34572   3.034   8.056   5.980 -0.5921  0.7832  0.4445
  257MOL0     C34573   3.160   8.117   5.909  0.2884  0.4391 -0.6399
  257MOL0     C34574   3.236   8.202   6.020  0.3034 -0.2423  0.3910
  257MOL0     C34575   3.384   8.224   5.993 -0.1095 -0.0650 -0.7396
  257MOL0     C34576   3.464   8.098   5.984 -0.1984 -1.0752  0.1024
  257MOL0     N34577   3.591   8.114   6.051 -0.8372 -0.1501 -0.8081
  257MOL0     C34578   3.697   8.198   6.038  1.4377 -0.2381  0.5563
  257MOL0     C34579   3.785   8.174   6.137 -0.4500 -0.1334  0.1268
  257MOL0     C34580   3.915   8.252   6.160  0.2814  0.6133  0.4223
  257MOL0     C34581   3.903   8.368   6.261 -0.5498 -0.1678 -0.3469
  257MOL0     C34582   3.863   8.313   6.406 -0.0250  0.3627 -0.0491
  257MOL0     C34583   3.752   8.401   6.460  0.7361  0.3957 -0.4661
  257MOL0     O34584   3.698   8.324   6.574 -0.2926  0.5738 -0.1105
  257MOL0     C34585   3.599   8.236   6.566 -0.5477  1.0433 -0.4483
  257MOL0     C34586   3.536   8.183   6.452 -0.1218 -0.4985  0.2330
  257MOL0     C34587   3.439   8.084   6.446  0.1378  0.5178  1.1260
  257MOL0     C34588   3.390   8.042   6.570  0.4054  0.1229  0.0677
  257MOL0     C34589   3.296   7.926   6.571 -0.5022 -0.4939 -0.0205
  257MOL0     O34590   3.289   7.852   6.690 -0.3257  0.3597 -0.1723
  257MOL0     C34591   3.241   7.725   6.694 -0.2209 -0.1701 -0.7665
  257MOL0     C34592   3.251   7.627   6.596  0.5041 -0.2483  0.5724
  257MOL0     C34593   3.200   7.500   6.613 -0.4839  0.0812 -0.5142
  257MOL0     C34594   3.136   7.465   6.737 -0.1680 -0.0707 -0.2684
  257MOL0     O34595   3.069   7.349   6.755  0.0134  0.4044 -0.4029
  257MOL0     C34596   3.094   7.245   6.662  0.4886  0.3907  0.3204
  257MOL0     C34597   3.001   7.260   6.549 -0.2773  0.1096  1.0002
  257MOL0     C34598   2.862   7.208   6.572  0.1807  0.2517  0.2192
  257MOL0     C34599   2.771   7.205   6.446 -0.2607  0.3567  0.7423
  257MOL0     C34600   2.637   7.137   6.469 -0.4519 -0.1722  0.3355
  257MOL0     C34601   2.556   7.141   6.338 -0.9674  0.0710 -0.5586
  257MOL0     C34602   2.443   7.034   6.337 -0.3505  0.3907  0.2859
  257MOL0     C34603   2.369   7.000   6.207 -0.2348  0.4533  0.1274
  257MOL0    Cl34604   2.226   7.100   6.197  0.0733 -0.2855 -0.7471
  257MOL0     C34605   3.118   7.569   6.837 -0.7215  0.4355  1.6794
  257MOL0     C34606   3.181   7.692   6.815  0.3803 -0.1179 -0.4885
  257MOL0     O34607   3.243   7.892   6.469  0.2958 -0.6251  0.1292
  257MOL0     C34608   3.438   8.102   6.689  1.0602 -1.0178 -0.4795
  257MOL0     C34609   3.549   8.195   6.683  0.6630 -0.2402  0.4423
  257MOL0     N34610   3.733   8.069   6.214 -0.6866 -0.3961  0.2912
  257MOL0     N34611   3.628   8.030   6.155  0.3141  0.1522  0.1442
  257MOL0     C34612   2.497   7.926   5.736 -0.6586  0.0990  1.0391
  257MOL0     C34613   2.387   7.934   5.654  0.1313 -0.0645 -0.1685
  257MOL0     C34614   2.102   7.859   5.272 -0.2693 -0.5733  0.1219
  257MOL0     C34615   2.105   7.876   5.129 -0.2130  0.1578  0.1687
  257MOL0     C34616   1.989   7.837   5.053 -0.0677  0.2433  0.4332
  257MOL0     C34617   1.876   7.797   5.121 -0.3768 -0.2285 -0.2403
  257MOL0     O34618   1.769   7.772   5.044  0.2281  0.4541 -0.3084
  257MOL0     C34619   1.704   7.644   5.059  0.3915 -0.3301  0.2545
  257MOL0     C34620   1.575   7.672   5.128 -1.2403  0.6481  0.5487
  257MOL0     C34621   1.471   7.755   5.055 -0.9146  0.7752  0.3523
  257MOL0     C34622   1.386   7.670   4.967  1.1233 -0.0130  0.4751
  257MOL0     C34623   1.300   7.750   4.879 -0.3651 -0.7743 -0.4146
  257MOL0     C34624   1.227   7.797   4.791  0.3367 -1.0621  0.0753
  257MOL0     C34625   1.880   7.777   5.258 -0.4546 -0.3398  0.7004
  257MOL0     C34626   1.998   7.801   5.333  0.1482 -0.3978 -0.2657
  257MOL0     C34627   1.990   7.759   5.481  0.4436 -0.1966  1.1169
  257MOL0     H34628   2.492   7.760   5.386 -3.3494  1.7776 -0.7594
  257MOL0     H34629   2.699   7.758   5.518 -0.3631 -1.4157 -1.0244
  257MOL0     H34630   2.867   7.816   5.610 -2.8278  1.2361 -2.2536
  257MOL0     H34631   2.817   7.980   5.620 -0.1012  0.6687  0.8259
  257MOL0     H34632   3.055   7.935   5.745 -0.5594  0.0848  1.7671
  257MOL0     H34633   2.948   7.831   5.856 -2.5728 -0.7142 -0.7252
  257MOL0     H34634   2.830   8.013   5.927 -0.3094 -0.4016 -0.4004
  257MOL0     H34635   2.920   8.124   5.814  0.2446 -1.3012 -2.7498
  257MOL0     H34636   2.982   8.122   6.050 -0.7933 -0.4237  1.4709
  257MOL0     H34637   3.064   7.966   6.035 -0.0288  0.4557 -0.3801
  257MOL0     H34638   3.222   8.031   5.880  0.6143 -0.6226  2.7333
  257MOL0     H34639   3.147   8.182   5.823  2.9982  1.0531 -0.6825
  257MOL0     H34640   3.177   8.292   6.043 -0.4495 -0.9719  1.4287
  257MOL0     H34641   3.228   8.143   6.112  2.4337 -1.0762  0.0874
  257MOL0     H34642   3.419   8.282   6.078  0.9877 -2.2436  0.3703
  257MOL0     H34643   3.405   8.278   5.900  1.0027 -2.0455 -1.7025
  257MOL0     H34644   3.413   8.011   6.027 -2.2600 -0.0686 -0.1928
  257MOL0     H34645   3.490   8.064   5.884 -0.5955  0.6176 -0.6115
  257MOL0     H34646   3.716   8.271   5.960  2.3248 -1.1488 -0.0944
  257MOL0     H34647   3.999   8.190   6.194  0.8387  2.1707  2.0913
  257MOL0     H34648   3.951   8.294   6.065  2.3459 -0.5837  0.6113
  257MOL0     H34649   3.998   8.422   6.268 -0.0363 -1.0142 -0.6412
  257MOL0     H34650   3.831   8.442   6.226  0.1042  0.0988 -1.1828
  257MOL0     H34651   3.939   8.309   6.484 -0.6124 -1.1332  0.4749
  257MOL0     H34652   3.822   8.213   6.389  0.2635  0.6364 -2.9640
  257MOL0     H34653   3.667   8.424   6.394 -0.7235 -0.9662  0.8367
  257MOL0     H34654   3.781   8.499   6.499  1.3090  0.4989 -1.1379
  257MOL0     H34655   3.570   8.227   6.358 -0.4825 -0.3284  0.1791
  257MOL0     H34656   3.398   8.045   6.353  1.6492 -0.7735  0.9535
  257MOL0     H34657   3.312   7.653   6.510  1.6333  2.4833  2.0576
  257MOL0     H34658   3.213   7.431   6.529  1.7515  0.1896 -0.3134
  257MOL0     H34659   3.198   7.230   6.631  0.1107 -0.3422 -0.6519
  257MOL0     H34660   3.073   7.153   6.717  2.3270 -1.0176 -1.1550
  257MOL0     H34661   2.986   7.356   6.497  0.8914  0.1180  0.6477
  257MOL0     H34662   3.050   7.193   6.478 -1.0506  1.2705 -0.7058
  257MOL0     H34663   2.869   7.107   6.615  0.2828  0.9818  2.0073
  257MOL0     H34664   2.811   7.262   6.653  1.1275  0.4025  0.7330
  257MOL0     H34665   2.832   7.157   6.369  0.3075  2.5075 -0.2247
  257MOL0     H34666   2.755   7.307   6.409 -0.1089 -0.4622 -1.8013
  257MOL0     H34667   2.582   7.189   6.548 -1.0815  0.3839 -0.4460
  257MOL0     H34668   2.645   7.031   6.491 -0.2288 -0.7641 -2.2767
  257MOL0     H34669   2.509   7.240   6.334 -2.5806 -0.6396  0.3034
  257MOL0     H34670   2.625   7.124   6.254  1.2527  0.8494  1.0038
  257MOL0     H34671   2.372   7.064   6.415  0.7363  2.3188  0.5929
  257MOL0     H34672   2.474   6.934   6.369  0.2207 -0.4927 -2.6975
  257MOL0     H34673   2.427   7.000   6.114 -1.4197  1.6608 -0.6553
  257MOL0     H34674   2.343   6.895   6.220  1.1992 -0.0216 -0.6045
  257MOL0     H34675   3.075   7.552   6.936  1.0436 -0.0964  2.4010
  257MOL0     H34676   3.176   7.765   6.894  1.3029  1.5641 -1.9085
  257MOL0     H34677   3.401   8.081   6.789  1.5616 -0.6217 -0.2056
  257MOL0     H34678   3.597   8.241   6.769  0.6027  0.0881  0.3028
  257MOL0     H34679   2.491   7.968   5.836 -0.1088  2.8920 -0.0048
  257MOL0     H34680   2.301   7.988   5.695 -1.6519 -2.8996  0.1517
  257MOL0     H34681   2.188   7.908   5.067  0.6252  1.1020  1.6820
  257MOL0     H34682   1.984   7.846   4.945 -2.6874 -1.9099  0.2726
  257MOL0     H34683   1.774   7.576   5.108 -0.9027 -2.7251 -1.0408
  257MOL0     H34684   1.690   7.584   4.969  1.4393 -2.5865  1.5094
  257MOL0     H34685   1.594   7.712   5.228  2.5180  0.6700 -0.0314
  257MOL0     H34686   1.535   7.575   5.159  2.8970 -1.3330  0.2994
  257MOL0     H34687   1.522   7.830   4.993  0.9559 -1.8683 -1.5713
  257MOL0     H34688   1.415   7.821   5.122  0.3221  0.9036  1.3078
  257MOL0     H34689   1.447   7.604   4.904  0.1118 -0.4287 -0.0867
  257MOL0     H34690   1.320   7.604   5.024  0.4075 -0.2837 -0.6375
  257MOL0     H34691   1.163   7.824   4.710  1.7097  0.9108 -0.4111
  257MOL0     H34692   1.789   7.731   5.296 -0.9375  1.3109  1.6355
  257MOL0     H34693   1.894   7.713   5.509  1.0103 -1.2481  1.3739
  257MOL0     H34694   2.072   7.689   5.498 -1.6943 -3.0491  0.5003
  257MOL0     H34695   2.006   7.852   5.537 -3.4136  0.7100  1.0189
  258MOL0     O34696   6.626   9.865   6.515  0.5689 -0.0707 -0.0168
  258MOL0     C34697   6.661   9.974   6.466 -0.3632  0.4855  0.3370
  258MOL0     O34698   6.573  10.072   6.433 -0.1990 -0.6347  0.6317
  258MOL0     C34699   6.439  10.042   6.454 -0.0996 -0.2278 -0.1555
  258MOL0     C34700   6.364   9.998   6.346  0.3218 -0.6079 -0.9401
  258MOL0     C34701   6.228   9.968   6.364  0.1820 -0.6816 -0.2397
  258MOL0     C34702   6.175   9.986   6.488 -0.0968 -0.3806  0.5546
  258MOL0     O34703   6.039   9.958   6.495  0.1945 -0.1810  0.3665
  258MOL0     C34704   5.977   9.935   6.626  0.4989 -0.1459 -0.2972
  258MOL0     C34705   5.854   9.844   6.600 -0.2067 -0.5809  0.4417
  258MOL0     C34706   5.739   9.909   6.541  0.1473 -0.3577  0.4876
  258MOL0     C34707   5.611   9.832   6.544  0.1407  0.7676 -0.6462
  258MOL0     C34708   5.502   9.929   6.483  0.8207  1.0412  0.3553
  258MOL0     C34709   5.354   9.875   6.477  0.2947  0.0601  0.3708
  258MOL0     C34710   5.242   9.985   6.462 -0.4379 -0.1139 -0.4745
  258MOL0     C34711   5.272  10.075   6.336  0.2324  0.6461  0.9049
  258MOL0     N34712   5.253   9.998   6.213 -0.0247  0.4251  0.2778
  258MOL0     C34713   5.137   9.991   6.134 -0.3732  0.3516 -0.3307
  258MOL0     C34714   5.174   9.922   6.024  0.2504 -0.3247 -0.4663
  258MOL0     C34715   5.096   9.885   5.902  0.8871 -0.3891  0.3765
  258MOL0     C34716   5.084   9.991   5.793  0.2645  0.5505 -0.8334
  258MOL0     C34717   5.213  10.064   5.762  0.7347  0.0342  0.1430
  258MOL0     C34718   5.342   9.977   5.742 -0.3114 -0.5396  1.0920
  258MOL0     O34719   5.404  10.002   5.616  0.1584 -0.0760  0.7892
  258MOL0     C34720   5.516   9.928   5.572  0.6325 -0.1144 -0.2901
  258MOL0     C34721   5.574   9.840   5.657  0.3254  0.0977 -0.4421
  258MOL0     C34722   5.684   9.771   5.604 -0.4003 -0.0473 -0.2116
  258MOL0     C34723   5.732   9.784   5.475  0.2313 -0.3242  1.2749
  258MOL0     C34724   5.856   9.705   5.429  0.5792 -0.4750  0.3852
  258MOL0     O34725   5.894   9.600   5.504 -0.8495 -0.3338 -0.2849
  258MOL0     C34726   5.991   9.505   5.469 -0.5173 -0.1941 -0.1142
  258MOL0     C34727   6.022   9.441   5.349  0.2475 -0.3269  0.1483
  258MOL0     C34728   6.129   9.348   5.331  0.8791 -0.8469  0.3467
  258MOL0     C34729   6.212   9.326   5.438  0.3027 -0.6245  0.3634
  258MOL0     O34730   6.324   9.257   5.431 -0.6276 -0.2241  0.0138
  258MOL0     C34731   6.352   9.177   5.320  0.4298 -0.0235  0.5722
  258MOL0     C34732   6.489   9.119   5.334  0.1740 -0.3804 -0.9514
  258MOL0     C34733   6.610   9.213   5.296  0.7895  0.1911  0.0998
  258MOL0     C34734   6.737   9.137   5.278  0.4878  0.6291 -0.7057
  258MOL0     C34735   6.819   9.123   5.410 -0.3785 -0.2922 -0.7651
  258MOL0     C34736   6.936   9.032   5.397  0.0064 -0.7571 -0.1502
  258MOL0     C34737   7.038   9.110   5.304  0.0839  1.4897  0.8949
  258MOL0     C34738   7.175   9.044   5.306  0.0230 -0.2172  0.2157
  258MOL0    Cl34739   7.170   8.870   5.268  0.2423 -0.6628  0.2182
  258MOL0     C34740   6.180   9.390   5.563  0.8791  0.9560  0.4557
  258MOL0     C34741   6.066   9.461   5.577 -0.1013  0.1241  1.0150
  258MOL0     O34742   5.909   9.744   5.325 -0.2464 -0.4025 -0.5105
  258MOL0     C34743   5.662   9.877   5.388 -0.2157 -0.0016  0.2691
  258MOL0     C34744   5.557   9.947   5.443 -0.3414 -0.4176  0.2994
  258MOL0     N34745   5.306   9.890   6.034  0.1425 -0.2896 -0.1033
  258MOL0     N34746   5.352   9.944   6.142 -0.5516 -0.7415 -0.3899
  258MOL0     C34747   6.249  10.027   6.598 -0.2165 -0.9274 -0.6908
  258MOL0     C34748   6.381  10.066   6.576  1.0144 -0.1359  0.2320
  258MOL0     C34749   6.812   9.996   6.440  0.1038 -0.7557  0.5712
  258MOL0     C34750   6.848  10.116   6.366 -0.3347  0.8391 -1.0021
  258MOL0     C34751   6.982  10.147   6.350  0.3585  0.3980 -0.0390
  258MOL0     C34752   7.074  10.059   6.399 -0.3226 -0.1662  0.3261
  258MOL0     O34753   7.208  10.095   6.370 -0.7105  0.2997 -0.4408
  258MOL0     C34754   7.287   9.983   6.331 -0.9110 -0.4582 -0.1217
  258MOL0     C34755   7.375  10.047   6.229 -0.4596  0.1178 -0.4385
  258MOL0     C34756   7.314  10.071   6.092 -0.3878  0.6090  0.6155
  258MOL0     C34757   7.420  10.097   5.983 -0.3128  0.3914  0.1748
  258MOL0     C34758   7.504  10.215   6.004 -0.1105 -0.0194  0.0276
  258MOL0     C34759   7.559  10.323   6.020 -0.0865  0.8884  0.5232
  258MOL0     C34760   7.037   9.940   6.465  0.0499 -0.8657 -1.4089
  258MOL0     C34761   6.906   9.902   6.483 -0.6539 -0.5179 -0.0052
  258MOL0     C34762   6.888   9.764   6.536 -0.4111  0.6632 -0.1902
  258MOL0     H34763   6.422   9.967   6.259  1.1567 -3.7004  0.5988
  258MOL0     H34764   6.176   9.915   6.284  0.6811  3.3950 -3.6208
  258MOL0     H34765   6.039   9.876   6.695 -1.4671 -2.0095 -0.0341
  258MOL0     H34766   5.949  10.028   6.676 -0.0205 -0.8914  0.8369
  258MOL0     H34767   5.818   9.806   6.696 -2.0044  0.6658  0.3036
  258MOL0     H34768   5.880   9.753   6.546 -1.4488 -0.2044 -0.8468
  258MOL0     H34769   5.761   9.939   6.437  0.8196  2.1365  1.2676
  258MOL0     H34770   5.732  10.003   6.596 -2.2985  0.5284 -1.1637
  258MOL0     H34771   5.620   9.743   6.481  0.5451  0.9430 -0.8442
  258MOL0     H34772   5.582   9.804   6.645  0.3201 -1.4634 -1.1581
  258MOL0     H34773   5.478  10.013   6.549 -1.2155  2.1650 -1.6952
  258MOL0     H34774   5.526   9.962   6.382  1.1495 -0.2270  0.0036
  258MOL0     H34775   5.357   9.804   6.394  2.8331  2.2827 -1.6382
  258MOL0     H34776   5.329   9.829   6.573  1.7192 -2.3613 -0.3239
  258MOL0     H34777   5.240  10.054   6.547  2.6696 -0.8849  0.3718
  258MOL0     H34778   5.144   9.938   6.459 -0.3517 -0.2685 -2.7210
  258MOL0     H34779   5.198  10.154   6.316  1.3223  1.4018 -0.2659
  258MOL0     H34780   5.373  10.114   6.351  1.1394 -1.3938  0.3648
  258MOL0     H34781   5.037  10.033   6.140  0.0714  1.5313 -0.8912
  258MOL0     H34782   5.138   9.794   5.858 -3.0418 -2.1335 -0.2062
  258MOL0     H34783   4.996   9.861   5.940  1.1448 -1.6048  0.3267
  258MOL0     H34784   5.057   9.948   5.696  1.8186  0.3775 -1.2122
  258MOL0     H34785   5.020  10.074   5.825  0.8332 -0.1934  2.6909
  258MOL0     H34786   5.222  10.134   5.845 -1.2502  1.0978 -0.4669
  258MOL0     H34787   5.202  10.122   5.670 -1.1477  1.0409  0.9455
  258MOL0     H34788   5.320   9.872   5.762 -0.9998 -0.6284 -0.0191
  258MOL0     H34789   5.392  10.022   5.828 -1.6758  3.1200  0.1493
  258MOL0     H34790   5.539   9.821   5.757 -1.1657  0.8220 -0.7895
  258MOL0     H34791   5.742   9.703   5.665 -1.4063 -0.3576  0.4198
  258MOL0     H34792   5.948   9.457   5.272  1.5181  0.0392 -1.0451
  258MOL0     H34793   6.135   9.288   5.242  0.3447  0.0647 -0.3227
  258MOL0     H34794   6.281   9.094   5.313 -2.5517  2.4613 -1.8042
  258MOL0     H34795   6.345   9.231   5.225 -0.1799 -2.4178 -0.8424
  258MOL0     H34796   6.508   9.086   5.437 -0.6765  2.6265  0.2800
  258MOL0     H34797   6.494   9.029   5.273  3.1757  0.5654 -2.3034
  258MOL0     H34798   6.586   9.259   5.200 -0.9518 -1.5795 -0.3817
  258MOL0     H34799   6.631   9.290   5.371 -0.7126 -0.7896  1.6092
  258MOL0     H34800   6.799   9.191   5.206 -0.7105  1.6407 -1.0183
  258MOL0     H34801   6.715   9.038   5.238 -0.1680  0.3578  0.2802
  258MOL0     H34802   6.760   9.083   5.493 -0.5063  1.4427  0.0208
  258MOL0     H34803   6.848   9.222   5.447  1.9112 -1.4969  0.9283
  258MOL0     H34804   6.982   9.021   5.495  4.1386  0.2127 -1.7542
  258MOL0     H34805   6.905   8.938   5.352  1.9740 -1.0702 -0.9349
  258MOL0     H34806   7.042   9.212   5.341  1.4501  0.9957  2.2106
  258MOL0     H34807   7.000   9.098   5.202  1.2469  3.4324  0.1849
  258MOL0     H34808   7.242   9.105   5.245 -0.6532  0.6850  0.3538
  258MOL0     H34809   7.217   9.053   5.407  5.4446 -1.0977 -1.6386
  258MOL0     H34810   6.235   9.368   5.654  1.5715 -2.2606 -0.6075
  258MOL0     H34811   6.054   9.499   5.678  2.3245  2.0182  0.6704
  258MOL0     H34812   5.698   9.904   5.288  0.6141  1.3367  0.8934
  258MOL0     H34813   5.501  10.015   5.380 -0.3176 -0.8198 -0.1638
  258MOL0     H34814   6.209  10.029   6.699  1.2578 -1.7188 -0.0720
  258MOL0     H34815   6.436  10.108   6.660 -4.6075  1.8733  3.4805
  258MOL0     H34816   6.773  10.183   6.323 -2.8788 -2.5760 -2.2987
  258MOL0     H34817   7.004  10.236   6.291 -0.3428  1.5052  1.3181
  258MOL0     H34818   7.226   9.904   6.285 -2.1779  0.9693 -1.0084
  258MOL0     H34819   7.343   9.946   6.417 -0.0443 -2.6078 -1.5180
  258MOL0     H34820   7.459   9.979   6.210 -1.1841 -0.9858  0.2197
  258MOL0     H34821   7.423  10.137   6.268 -1.7890  1.3014 -1.4532
  258MOL0     H34822   7.235  10.143   6.113 -0.0159  0.3064  3.3274
  258MOL0     H34823   7.250   9.988   6.059 -0.4801 -0.2483  2.8036
  258MOL0     H34824   7.482  10.008   5.971  0.6933  1.1971 -0.7766
  258MOL0     H34825   7.373  10.110   5.884  1.0745 -0.9941 -0.7151
  258MOL0     H34826   7.597  10.421   6.042 -1.0205  1.4012 -0.0751
  258MOL0     H34827   7.116   9.871   6.494  0.9328 -0.1985 -2.1405
  258MOL0     H34828   6.850   9.760   6.639  1.4180 -2.5182  0.4717
  258MOL0     H34829   6.818   9.712   6.470 -1.0005  0.6463  0.4262
  258MOL0     H34830   6.978   9.703   6.542 -2.1295 -2.0388 -0.1950
  259MOL0     O34831   7.748   4.192   1.004 -0.1793  0.4808  0.3352
  259MOL0     C34832   7.692   4.212   1.108  0.3280 -0.4625 -0.8926
  259MOL0     O34833   7.751   4.210   1.237 -0.3564  0.0466  0.5377
  259MOL0     C34834   7.881   4.162   1.228  0.0706 -0.1319 -0.6186
  259MOL0     C34835   7.987   4.247   1.188 -0.4681  0.4914  0.1307
  259MOL0     C34836   8.117   4.206   1.199  0.2469  0.8773  0.5017
  259MOL0     C34837   8.137   4.071   1.234 -0.1076 -1.2918  0.4554
  259MOL0     O34838   8.269   4.049   1.255 -0.9202  0.1763  0.2635
  259MOL0     C34839   8.320   3.914   1.230  0.5885  0.6130 -0.3594
  259MOL0     C34840   8.459   3.930   1.160  1.0972 -0.1131 -0.9249
  259MOL0     C34841   8.528   3.793   1.113  0.4478 -0.8656  0.0113
  259MOL0     C34842   8.545   3.687   1.220 -1.3645  0.5386  0.2207
  259MOL0     C34843   8.558   3.553   1.145 -0.0083 -0.6442  0.1783
  259MOL0     C34844   8.424   3.492   1.100  0.0470 -0.1348 -0.2412
  259MOL0     C34845   8.366   3.405   1.222 -0.8589  0.1452  0.4659
  259MOL0     C34846   8.432   3.263   1.251 -0.5305  0.3257  0.2354
  259MOL0     N34847   8.408   3.167   1.136 -0.0657 -0.2300 -0.1415
  259MOL0     C34848   8.290   3.107   1.105 -0.1270  0.6333 -0.5218
  259MOL0     C34849   8.315   3.017   1.006  0.6640 -0.6105 -0.3592
  259MOL0     C34850   8.206   2.922   0.961  0.1689 -0.7128  0.1169
  259MOL0     C34851   8.269   2.810   0.860  0.3989  0.3141 -0.0017
  259MOL0     C34852   8.357   2.719   0.943 -0.1882  0.7231  0.1023
  259MOL0     C34853   8.424   2.612   0.858 -1.1408  0.4498 -0.4426
  259MOL0     O34854   8.338   2.501   0.834  0.1751  0.5712  0.1970
  259MOL0     C34855   8.380   2.399   0.748  0.3080 -0.2691  0.6479
  259MOL0     C34856   8.512   2.393   0.696 -0.4682  0.6427 -0.1969
  259MOL0     C34857   8.552   2.290   0.615 -0.6440  0.3065  0.9641
  259MOL0     C34858   8.460   2.192   0.573  0.8848  0.5942  0.4290
  259MOL0     C34859   8.503   2.101   0.464  0.2552 -0.3425  0.0067
  259MOL0     O34860   8.399   2.050   0.392  0.1077 -0.0693  0.1925
  259MOL0     C34861   8.433   1.965   0.289  0.3966  0.6609 -0.3037
  259MOL0     C34862   8.481   1.833   0.315  0.3502 -0.0970  0.1262
  259MOL0     C34863   8.515   1.751   0.210  0.4672  0.2159 -1.3988
  259MOL0     C34864   8.523   1.794   0.075 -0.0043 -0.2213 -0.8375
  259MOL0     O34865   8.575   1.718  -0.024 -0.5241 -0.6300 -0.2694
  259MOL0     C34866   8.716   1.691  -0.018  0.1465  0.5131 -0.3520
  259MOL0     C34867   8.732   1.551  -0.064  0.6749  0.2292 -0.7874
  259MOL0     C34868   8.884   1.523  -0.067  0.3722 -0.0216  0.2165
  259MOL0     C34869   8.918   1.392  -0.143 -0.3651  0.1044  0.5775
  259MOL0     C34870   9.065   1.349  -0.132  0.9741  1.0264  0.2697
  259MOL0     C34871   9.111   1.229  -0.222  0.3959  0.6941 -0.2539
  259MOL0     C34872   9.060   1.084  -0.184 -0.5783 -0.0780 -0.5515
  259MOL0     C34873   9.121   0.977  -0.256 -0.0220  0.2603  0.1922
  259MOL0    Cl34874   9.293   0.976  -0.244  0.5538  0.1943 -0.2487
  259MOL0     C34875   8.470   1.919   0.049  0.5891 -0.3029  0.0581
  259MOL0     C34876   8.432   2.004   0.155 -0.4934  0.1636  0.2189
  259MOL0     O34877   8.626   2.086   0.444  0.5301  0.2536 -0.2732
  259MOL0     C34878   8.328   2.198   0.612  0.2561 -0.9034  0.3809
  259MOL0     C34879   8.296   2.295   0.710  0.0888  0.4966 -0.2375
  259MOL0     N34880   8.441   3.034   0.962 -0.6305 -0.1732 -0.1055
  259MOL0     N34881   8.492   3.131   1.035 -0.4680 -0.4881 -0.2066
  259MOL0     C34882   8.043   3.981   1.261  0.4761  0.0430  0.1185
  259MOL0     C34883   7.914   4.025   1.255 -0.3506  0.0274  0.1853
  259MOL0     C34884   7.549   4.239   1.107  0.7901  0.3391 -0.5016
  259MOL0     C34885   7.481   4.247   1.231 -0.9834 -0.3028  0.1676
  259MOL0     C34886   7.343   4.264   1.240  0.0535 -0.0130  0.3473
  259MOL0     C34887   7.265   4.273   1.125  0.4219  0.0197 -0.3325
  259MOL0     O34888   7.126   4.278   1.126  0.2259  0.8879 -0.2482
  259MOL0     C34889   7.051   4.296   1.249 -1.4354  0.4225 -0.9023
  259MOL0     C34890   6.912   4.338   1.221 -0.7280  0.6630 -0.2778
  259MOL0     C34891   6.859   4.418   1.345 -1.1870  0.2117  0.1436
  259MOL0     C34892   6.710   4.426   1.365 -0.4563  0.2953  0.4474
  259MOL0     C34893   6.661   4.514   1.258 -0.6887  0.2857  0.6936
  259MOL0     C34894   6.612   4.582   1.169  0.1592  0.2589  0.6093
  259MOL0     C34895   7.331   4.265   1.001  0.8087 -1.2302 -0.1103
  259MOL0     C34896   7.465   4.244   0.990 -0.3672 -0.0861 -0.7866
  259MOL0     C34897   7.523   4.229   0.849  0.2793  0.1484  0.7516
  259MOL0     H34898   7.978   4.351   1.159  2.5231  0.9735  0.6155
  259MOL0     H34899   8.202   4.270   1.180  2.3955 -1.5361  1.4391
  259MOL0     H34900   8.337   3.868   1.328 -0.3183  1.3101  0.1425
  259MOL0     H34901   8.256   3.846   1.172 -1.4587  0.9398  1.3704
  259MOL0     H34902   8.524   3.988   1.225 -2.0262  1.3463  1.1221
  259MOL0     H34903   8.451   3.989   1.068  0.5088 -1.4272 -1.7571
  259MOL0     H34904   8.628   3.826   1.082  0.2851  2.0652  2.1455
  259MOL0     H34905   8.479   3.758   1.022  2.3054 -2.3303 -0.4905
  259MOL0     H34906   8.637   3.705   1.275 -0.8752  1.0998 -0.7600
  259MOL0     H34907   8.461   3.683   1.291 -1.4007  2.2574  0.3302
  259MOL0     H34908   8.610   3.577   1.053  0.0542  0.4840  0.4951
  259MOL0     H34909   8.622   3.483   1.200  0.1678  0.4367  1.3958
  259MOL0     H34910   8.350   3.565   1.066 -1.4454 -1.3132  0.3905
  259MOL0     H34911   8.438   3.433   1.009 -1.6268 -1.1445  0.1183
  259MOL0     H34912   8.268   3.374   1.184  0.2298 -2.4512 -0.4127
  259MOL0     H34913   8.350   3.464   1.313 -1.1564 -2.6261  2.3193
  259MOL0     H34914   8.539   3.273   1.272 -0.5465 -1.8273  1.7714
  259MOL0     H34915   8.391   3.219   1.343 -0.7423  1.1457  0.5331
  259MOL0     H34916   8.198   3.119   1.162 -1.1170  0.4546 -2.0144
  259MOL0     H34917   8.159   2.876   1.049  1.6047  0.1780  1.3941
  259MOL0     H34918   8.125   2.966   0.904  3.9635  0.4585 -5.0946
  259MOL0     H34919   8.178   2.768   0.817  0.2921  2.6814 -2.3491
  259MOL0     H34920   8.323   2.836   0.769  1.5671  1.3410  0.9408
  259MOL0     H34921   8.300   2.678   1.027 -1.2662 -2.0115 -1.8043
  259MOL0     H34922   8.442   2.780   0.973 -0.7242  1.2812  0.5081
  259MOL0     H34923   8.511   2.584   0.917 -2.0767  0.6342  1.0934
  259MOL0     H34924   8.466   2.655   0.767  1.4810  2.0549  1.4068
  259MOL0     H34925   8.580   2.462   0.743 -2.5799  0.8464  2.8655
  259MOL0     H34926   8.644   2.300   0.559 -1.4278  2.9176  0.0086
  259MOL0     H34927   8.473   1.796   0.417 -0.6948  1.2056  0.5461
  259MOL0     H34928   8.556   1.652   0.230 -0.9890 -0.6460 -2.5353
  259MOL0     H34929   8.779   1.759  -0.077  0.3072  0.2152 -0.5283
  259MOL0     H34930   8.755   1.699   0.084  1.0467 -1.5534 -0.4978
  259MOL0     H34931   8.690   1.476   0.003  0.8917 -0.9880 -1.9722
  259MOL0     H34932   8.689   1.535  -0.163 -2.3760 -2.6609  0.8298
  259MOL0     H34933   8.950   1.595  -0.117  2.1343 -1.0266  1.0079
  259MOL0     H34934   8.925   1.518   0.035  0.1354 -1.5106  0.2623
  259MOL0     H34935   8.890   1.411  -0.247  1.2956  2.2797  0.4444
  259MOL0     H34936   8.866   1.306  -0.101 -1.2800  1.1220  1.6206
  259MOL0     H34937   9.063   1.319  -0.027 -2.2105  0.8432  0.2370
  259MOL0     H34938   9.135   1.432  -0.146  3.4677 -0.8352  1.0279
  259MOL0     H34939   9.075   1.256  -0.321 -1.5187 -2.6865 -0.6554
  259MOL0     H34940   9.221   1.231  -0.222  0.4128  1.2533  1.3442
  259MOL0     H34941   8.953   1.081  -0.207 -0.6725  1.6804 -0.4890
  259MOL0     H34942   9.081   1.079  -0.076 -0.1540 -2.7564 -0.7007
  259MOL0     H34943   9.071   0.884  -0.226  0.3551  0.4330  1.3905
  259MOL0     H34944   9.099   0.999  -0.361  0.5599  0.7385  0.1619
  259MOL0     H34945   8.457   1.965  -0.048 -0.6150 -0.6879  0.0068
  259MOL0     H34946   8.405   2.106   0.127  0.7446  1.0124  1.9346
  259MOL0     H34947   8.247   2.132   0.581 -1.0235 -0.1491  1.9111
  259MOL0     H34948   8.194   2.291   0.747  0.7665 -1.1425  1.6507
  259MOL0     H34949   8.066   3.876   1.281 -2.8204 -0.4604  2.0297
  259MOL0     H34950   7.824   3.966   1.266 -1.7893  2.2131  0.6435
  259MOL0     H34951   7.535   4.238   1.325  0.5636 -0.4020 -0.6863
  259MOL0     H34952   7.280   4.261   1.328  3.5045  2.8136  3.2786
  259MOL0     H34953   7.103   4.375   1.304  0.7620 -1.7352  0.2751
  259MOL0     H34954   7.051   4.208   1.314  0.8556 -1.1872 -2.9006
  259MOL0     H34955   6.851   4.248   1.206  0.2812 -0.5211  2.1365
  259MOL0     H34956   6.910   4.399   1.130 -1.6326  1.2813  0.1353
  259MOL0     H34957   6.899   4.519   1.342 -2.1723  0.6488  0.8925
  259MOL0     H34958   6.890   4.367   1.437 -0.2177  2.8485  1.3790
  259MOL0     H34959   6.668   4.326   1.348  1.9869 -0.5269 -1.2508
  259MOL0     H34960   6.690   4.478   1.459  0.3676  0.6185  0.4526
  259MOL0     H34961   6.560   4.637   1.093  0.5620 -0.4713 -0.2151
  259MOL0     H34962   7.261   4.267   0.919 -1.2664  0.7061  1.6043
  259MOL0     H34963   7.565   4.132   0.823  2.5011  0.9653  1.0587
  259MOL0     H34964   7.441   4.240   0.777  1.6127  0.6825 -0.7262
  259MOL0     H34965   7.598   4.307   0.836 -0.8653  1.5128  1.9350
  260MOL0     O34966   7.974   6.620   5.908 -0.6484 -0.3347 -0.4718
  260MOL0     C34967   7.888   6.585   5.824 -0.5126  0.3569 -0.7395
  260MOL0     O34968   7.910   6.541   5.695  0.4708  0.6696  0.4717
  260MOL0     C34969   8.041   6.504   5.663 -0.3722  0.8076  0.0526
  260MOL0     C34970   8.098   6.386   5.722 -0.2451 -0.0809  0.0877
  260MOL0     C34971   8.226   6.347   5.695  0.4921 -0.6818 -0.3833
  260MOL0     C34972   8.296   6.413   5.596  0.2550  0.1499 -0.0186
  260MOL0     O34973   8.427   6.396   5.554  0.0147 -0.4290  0.4426
  260MOL0     C34974   8.503   6.286   5.602  0.1591 -0.4960  1.0135
  260MOL0     C34975   8.643   6.287   5.532 -0.4658 -0.3518  0.0377
  260MOL0     C34976   8.711   6.424   5.529  0.1033 -0.2107  0.2421
  260MOL0     C34977   8.855   6.425   5.471 -0.4240  0.1641 -0.8336
  260MOL0     C34978   8.919   6.561   5.466  0.3998  0.5705  0.1212
  260MOL0     C34979   9.069   6.558   5.459 -0.1326  0.9393 -0.1686
  260MOL0     C34980   9.120   6.559   5.318 -0.3622  0.0055 -0.0856
  260MOL0     C34981   9.218   6.438   5.297  0.3522  0.2202  0.0520
  260MOL0     N34982   9.296   6.438   5.174  0.4450  0.0810 -0.5666
  260MOL0     C34983   9.248   6.474   5.050 -0.7827  0.1195 -0.1080
  260MOL0     C34984   9.359   6.470   4.975 -0.3437  0.6459  0.1120
  260MOL0     C34985   9.347   6.510   4.828 -0.0372  0.0125 -0.2051
  260MOL0     C34986   9.400   6.657   4.821  0.6865  0.5322  0.5649
  260MOL0     C34987   9.379   6.720   4.675 -0.2959  0.6683  0.2155
  260MOL0     C34988   9.405   6.872   4.669 -0.3655 -0.0261  0.4109
  260MOL0     O34989   9.543   6.907   4.704 -0.1892 -0.5738  0.4525
  260MOL0     C34990   9.617   6.982   4.616  0.3580  0.4951 -0.2113
  260MOL0     C34991   9.729   6.922   4.546 -0.2854  0.1421  0.6385
  260MOL0     C34992   9.807   6.994   4.465  0.1773 -0.4078  0.8692
  260MOL0     C34993   9.766   7.129   4.424  0.7243 -0.0802 -0.1913
  260MOL0     C34994   9.844   7.214   4.342 -0.4910  0.3002  0.3289
  260MOL0     O34995   9.961   7.163   4.296 -0.6932  0.0072  0.7480
  260MOL0     C34996  10.056   7.248   4.255  0.1104  0.5518  0.4161
  260MOL0     C34997  10.162   7.283   4.339  0.8532  1.4817 -0.0349
  260MOL0     C34998  10.263   7.377   4.306  0.2992 -0.2835  0.5374
  260MOL0     C34999  10.254   7.452   4.185  0.6004  0.9373 -0.4736
  260MOL0     O35000  10.345   7.549   4.158  1.3007  0.2988  0.3424
  260MOL0     C35001  10.351   7.619   4.028  0.2045 -0.3704  0.3222
  260MOL0     C35002  10.489   7.682   4.002 -0.0215 -0.3967 -0.5512
  260MOL0     C35003  10.507   7.751   3.869  0.5948  0.3378 -0.1650
  260MOL0     C35004  10.644   7.813   3.859 -0.1406  0.2509  0.5472
  260MOL0     C35005  10.763   7.709   3.857  0.0780 -0.4980  0.8115
  260MOL0     C35006  10.889   7.778   3.809 -0.3039  0.2703  0.0151
  260MOL0     C35007  10.984   7.686   3.727 -0.1241 -0.1586 -0.2256
  260MOL0     C35008  11.034   7.570   3.809  0.5082  0.3790  1.2914
  260MOL0    Cl35009  11.131   7.610   3.949 -0.3319  0.3169 -0.5153
  260MOL0     C35010  10.148   7.418   4.106  0.5810 -0.0752  0.3612
  260MOL0     C35011  10.051   7.319   4.133  0.2600 -0.4185  0.0499
  260MOL0     O35012   9.810   7.330   4.330  0.2596 -0.4088  0.6060
  260MOL0     C35013   9.652   7.188   4.496 -0.7798  0.4420  0.4533
  260MOL0     C35014   9.581   7.113   4.586  0.3743  0.5907  0.4473
  260MOL0     N35015   9.464   6.418   5.040  0.6450 -0.2758  1.3690
  260MOL0     N35016   9.431   6.405   5.164  0.6360 -0.1380  0.7183
  260MOL0     C35017   8.240   6.527   5.535 -0.0339  1.1527 -0.3748
  260MOL0     C35018   8.111   6.571   5.575  0.1613  0.3895 -0.0459
  260MOL0     C35019   7.749   6.601   5.877 -0.5957  0.2011 -0.3778
  260MOL0     C35020   7.646   6.522   5.811 -0.0281  0.2309  0.1015
  260MOL0     C35021   7.514   6.521   5.854 -0.1623 -0.5686  0.5485
  260MOL0     C35022   7.471   6.613   5.955 -0.7733  0.3498 -0.0354
  260MOL0     O35023   7.349   6.619   6.019 -0.3554 -0.1511  0.9233
  260MOL0     C35024   7.247   6.525   5.982 -0.0238 -0.3883 -0.2003
  260MOL0     C35025   7.121   6.560   6.052 -1.0744 -0.0118 -0.7517
  260MOL0     C35026   7.025   6.447   6.044  0.1590 -0.3278 -0.4186
  260MOL0     C35027   6.916   6.468   6.155 -0.1452  0.0084 -0.7455
  260MOL0     C35028   6.973   6.460   6.292  0.0218  0.5454 -0.6374
  260MOL0     C35029   7.008   6.432   6.409 -0.3232  0.5359  0.0567
  260MOL0     C35030   7.562   6.700   6.000 -0.9169  0.7344 -0.5708
  260MOL0     C35031   7.703   6.691   5.972 -0.5964 -0.1374  0.6839
  260MOL0     C35032   7.793   6.798   6.035 -0.4129 -0.0577  0.2203
  260MOL0     H35033   8.040   6.329   5.795 -1.2030  0.7461 -0.0044
  260MOL0     H35034   8.263   6.255   5.739 -2.7898 -1.6688  0.5839
  260MOL0     H35035   8.519   6.284   5.710  2.7047  0.7962  0.7320
  260MOL0     H35036   8.457   6.190   5.579 -0.3813  0.4613 -2.5265
  260MOL0     H35037   8.619   6.258   5.429 -1.2843  1.2954 -0.2662
  260MOL0     H35038   8.712   6.209   5.567 -0.8070  0.7259  3.4623
  260MOL0     H35039   8.716   6.457   5.633  2.8053 -1.4192  0.5820
  260MOL0     H35040   8.653   6.494   5.469  3.1681  2.2351 -0.1308
  260MOL0     H35041   8.916   6.360   5.535 -0.8389  0.1948 -0.4065
  260MOL0     H35042   8.853   6.376   5.373  0.2834 -1.3172 -0.1312
  260MOL0     H35043   8.872   6.621   5.387 -2.8072  0.9774  2.1656
  260MOL0     H35044   8.895   6.618   5.556 -0.6880  1.2093 -0.5448
  260MOL0     H35045   9.115   6.643   5.508  1.6551 -1.5653  2.8278
  260MOL0     H35046   9.103   6.467   5.509  1.9093 -1.5726 -5.3085
  260MOL0     H35047   9.186   6.640   5.287  3.7477 -2.4656  1.2939
  260MOL0     H35048   9.034   6.553   5.251  0.6130  3.1452 -1.7600
  260MOL0     H35049   9.285   6.427   5.383  0.3817 -1.5939 -0.1585
  260MOL0     H35050   9.161   6.345   5.292 -2.5875  1.8625  0.6481
  260MOL0     H35051   9.151   6.497   5.008 -0.2150  0.9981 -0.9770
  260MOL0     H35052   9.407   6.441   4.767 -1.6941 -1.3386 -0.3730
  260MOL0     H35053   9.244   6.503   4.791 -0.5348  0.8279  1.0040
  260MOL0     H35054   9.324   6.711   4.880 -0.5369 -2.3196  1.7722
  260MOL0     H35055   9.502   6.677   4.853  0.7494  1.7672 -0.3172
  260MOL0     H35056   9.275   6.699   4.648  0.3832 -2.1342 -0.5521
  260MOL0     H35057   9.444   6.669   4.603 -1.1321  2.7583 -2.1583
  260MOL0     H35058   9.338   6.927   4.734  0.5908 -1.1315  2.4299
  260MOL0     H35059   9.397   6.918   4.570  1.0547 -1.4647 -0.4201
  260MOL0     H35060   9.766   6.821   4.560  1.5193  0.6867  0.1674
  260MOL0     H35061   9.895   6.953   4.416  0.2011  0.8880 -0.2033
  260MOL0     H35062  10.175   7.237   4.436  3.5622  1.2648 -0.4358
  260MOL0     H35063  10.347   7.383   4.376 -0.6194 -2.0277  1.8970
  260MOL0     H35064  10.329   7.552   3.944  1.1290  0.3878 -0.5445
  260MOL0     H35065  10.273   7.695   4.020 -1.1454 -1.3892  2.7411
  260MOL0     H35066  10.520   7.754   4.078 -0.8731  0.9784 -1.4677
  260MOL0     H35067  10.557   7.597   4.005  0.8563  0.3169  1.0661
  260MOL0     H35068  10.484   7.671   3.798 -0.4944 -0.3048  0.8782
  260MOL0     H35069  10.430   7.828   3.864 -1.0416 -0.9858  2.4406
  260MOL0     H35070  10.653   7.892   3.934 -1.7571  2.1297 -1.1117
  260MOL0     H35071  10.637   7.863   3.762  0.9751  0.5723  0.6180
  260MOL0     H35072  10.732   7.635   3.782 -1.6826  0.9530  0.0331
  260MOL0     H35073  10.799   7.652   3.943  2.5263 -0.2900 -0.0120
  260MOL0     H35074  10.857   7.861   3.745  0.0256  0.2371 -0.1952
  260MOL0     H35075  10.934   7.821   3.898 -1.5260 -1.9146  1.7884
  260MOL0     H35076  11.074   7.739   3.696 -2.0277  2.2882 -1.9812
  260MOL0     H35077  10.927   7.658   3.638 -4.0451  0.3894  1.8582
  260MOL0     H35078  10.957   7.505   3.850  1.3245  0.2931  2.7559
  260MOL0     H35079  11.092   7.512   3.736  1.0103  0.6651  1.4517
  260MOL0     H35080  10.140   7.479   4.017  2.6058 -1.9487 -1.2213
  260MOL0     H35081   9.975   7.294   4.059  0.6984 -0.2731 -0.4550
  260MOL0     H35082   9.636   7.294   4.479 -0.7130  0.8666  2.7467
  260MOL0     H35083   9.505   7.170   4.639 -0.7382 -0.3326 -0.1101
  260MOL0     H35084   8.298   6.575   5.458  2.5375 -2.0903 -0.6748
  260MOL0     H35085   8.065   6.661   5.533 -0.7500  0.3274  0.7836
  260MOL0     H35086   7.672   6.444   5.740 -2.8664 -1.0092  0.2881
  260MOL0     H35087   7.435   6.459   5.813 -1.2429 -1.2926  3.4204
  260MOL0     H35088   7.285   6.426   6.008  2.8734  0.7543  0.3628
  260MOL0     H35089   7.228   6.542   5.875 -0.9582 -0.1061  0.0009
  260MOL0     H35090   7.070   6.640   5.998 -1.9841 -2.5890 -4.0571
  260MOL0     H35091   7.152   6.578   6.155 -0.8792  0.0124 -0.8151
  260MOL0     H35092   7.074   6.350   6.056 -0.5809 -0.6416  0.1787
  260MOL0     H35093   6.976   6.453   5.946 -1.2839  3.0719  0.3588
  260MOL0     H35094   6.875   6.570   6.152  0.7985  0.4068 -0.4669
  260MOL0     H35095   6.841   6.389   6.156  1.7238 -1.8994  1.8527
  260MOL0     H35096   7.027   6.415   6.513 -0.3655  1.8386  0.2843
  260MOL0     H35097   7.526   6.778   6.067 -0.8315 -0.5158  0.9726
  260MOL0     H35098   7.868   6.833   5.963 -0.6821 -0.1333 -0.1034
  260MOL0     H35099   7.733   6.885   6.060 -1.1530 -0.5023  0.0207
  260MOL0     H35100   7.842   6.756   6.123  2.4564 -2.3535 -2.2273
  261MOL0     O35101   2.668   9.331   5.677  0.3133 -0.2170 -0.2458
  261MOL0     C35102   2.618   9.219   5.650 -0.7248 -0.7875 -0.0198
  261MOL0     O35103   2.680   9.125   5.572 -0.0456  0.7704  0.0055
  261MOL0     C35104   2.783   9.150   5.485 -0.2294 -0.4324 -0.1460
  261MOL0     C35105   2.860   9.264   5.459  0.1787 -0.1349  0.0525
  261MOL0     C35106   2.983   9.257   5.384  0.1051  1.0793  0.0360
  261MOL0     C35107   3.025   9.131   5.344 -0.1306 -0.0251 -0.6311
  261MOL0     O35108   3.149   9.130   5.278 -0.0848  0.8249  0.0135
  261MOL0     C35109   3.258   9.133   5.373 -0.1148 -0.2473  0.8980
  261MOL0     C35110   3.388   9.122   5.303  0.0226  0.2416  0.6086
  261MOL0     C35111   3.508   9.141   5.398 -0.2761 -0.5099 -0.0428
  261MOL0     C35112   3.639   9.111   5.333  0.1334  0.7048  0.2280
  261MOL0     C35113   3.771   9.122   5.418  0.4732 -0.0302  0.0976
  261MOL0     C35114   3.880   9.089   5.307  0.5669  0.1884  0.0105
  261MOL0     C35115   4.023   9.081   5.370 -0.9705  0.0316 -0.0989
  261MOL0     C35116   4.034   8.932   5.420  0.0829  0.9075  0.2115
  261MOL0     N35117   4.175   8.924   5.457 -0.0345  0.4267 -0.0027
  261MOL0     C35118   4.274   8.916   5.357 -0.2164 -0.2498 -0.2161
  261MOL0     C35119   4.386   8.948   5.423  0.9786 -0.0139 -0.1893
  261MOL0     C35120   4.527   8.940   5.372  0.7572 -0.3369 -0.4688
  261MOL0     C35121   4.544   8.847   5.250 -0.3633  0.0388 -0.6640
  261MOL0     C35122   4.687   8.792   5.242 -0.3148  0.0172  0.4253
  261MOL0     C35123   4.773   8.907   5.197  0.1512  0.5960  0.5945
  261MOL0     O35124   4.916   8.884   5.214  0.8377  0.0524  0.2489
  261MOL0     C35125   4.994   8.969   5.149 -1.1419 -0.1891  0.1877
  261MOL0     C35126   4.959   9.078   5.065  0.7733  0.8531  0.5905
  261MOL0     C35127   5.052   9.165   5.002 -0.8102  0.1612  0.1016
  261MOL0     C35128   5.188   9.144   5.029  0.7511  1.4140  1.0498
  261MOL0     C35129   5.282   9.226   4.962  0.2935 -0.1988  0.5858
  261MOL0     O35130   5.232   9.341   4.889  0.7655  0.1736 -0.1236
  261MOL0     C35131   5.313   9.431   4.822 -0.2240  0.1772 -0.8351
  261MOL0     C35132   5.265   9.562   4.820 -0.0705 -0.7410 -0.5997
  261MOL0     C35133   5.333   9.661   4.754 -0.0371  0.4490 -0.8641
  261MOL0     C35134   5.453   9.621   4.695 -0.3470 -0.2040 -0.4527
  261MOL0     O35135   5.491   9.713   4.601 -0.0043 -0.7391 -0.3175
  261MOL0     C35136   5.628   9.711   4.561 -0.2562  0.1319 -0.1324
  261MOL0     C35137   5.666   9.841   4.480 -0.1462  0.3059  0.3171
  261MOL0     C35138   5.817   9.864   4.482 -0.6427 -0.4440  0.1364
  261MOL0     C35139   5.898   9.790   4.366  0.2526  0.6241  0.0546
  261MOL0     C35140   6.047   9.820   4.363  0.3924  0.5441  0.4308
  261MOL0     C35141   6.140   9.711   4.303  0.1189  0.4823  0.6444
  261MOL0     C35142   6.288   9.778   4.296 -0.0085 -0.2448 -0.2851
  261MOL0     C35143   6.388   9.682   4.240 -0.8434  0.5240  0.0909
  261MOL0    Cl35144   6.347   9.653   4.060 -0.4664 -0.3967 -0.3290
  261MOL0     C35145   5.509   9.493   4.707 -0.3507 -0.3250 -0.3300
  261MOL0     C35146   5.431   9.396   4.761 -0.0159  0.0503 -0.2636
  261MOL0     O35147   5.405   9.219   4.981  0.1784 -0.2774 -0.7248
  261MOL0     C35148   5.223   9.048   5.125 -0.1050 -0.1619  0.1405
  261MOL0     C35149   5.132   8.960   5.179 -0.0330 -0.9207 -0.8743
  261MOL0     N35150   4.345   8.977   5.555 -1.1128  0.1492 -0.2445
  261MOL0     N35151   4.221   8.959   5.582 -0.0960  0.4773  0.3770
  261MOL0     C35152   2.948   9.014   5.347 -0.3324 -0.0357  0.2020
  261MOL0     C35153   2.833   9.031   5.430 -0.1239 -0.1548 -0.3298
  261MOL0     C35154   2.477   9.205   5.690 -0.1345  0.0667 -0.0092
  261MOL0     C35155   2.433   9.268   5.806  0.9749 -0.5955 -0.3772
  261MOL0     C35156   2.301   9.262   5.842  0.5850  0.2341  0.1945
  261MOL0     C35157   2.208   9.179   5.780  0.0429 -0.0314  0.0595
  261MOL0     O35158   2.088   9.173   5.839  0.1714  0.3535  0.0342
  261MOL0     C35159   1.985   9.110   5.769 -0.6098 -0.1194  0.5034
  261MOL0     C35160   1.855   9.125   5.850 -0.7086  0.5443  0.3259
  261MOL0     C35161   1.747   9.036   5.802 -0.5909  0.0448 -0.4042
  261MOL0     C35162   1.619   9.026   5.888 -0.4983 -0.6524  0.8994
  261MOL0     C35163   1.523   8.937   5.837 -0.3308  0.3826 -0.2585
  261MOL0     C35164   1.445   8.859   5.785  0.4736  0.1300  0.0743
  261MOL0     C35165   2.254   9.101   5.672  0.1766  0.3554  0.1437
  261MOL0     C35166   2.388   9.114   5.626 -0.2337 -0.1644  0.1457
  261MOL0     C35167   2.434   9.007   5.526  0.0735  0.1314 -0.2003
  261MOL0     H35168   2.830   9.360   5.498 -2.5423  0.4721 -3.0779
  261MOL0     H35169   3.053   9.339   5.391 -0.8732  1.9044  0.5055
  261MOL0     H35170   3.260   9.224   5.434 -0.9916  0.7620 -0.5239
  261MOL0     H35171   3.258   9.048   5.442  1.5667 -0.7058  0.3805
  261MOL0     H35172   3.409   9.196   5.226  2.3558 -1.3539 -0.4123
  261MOL0     H35173   3.398   9.021   5.262 -2.5366  1.1894 -2.7784
  261MOL0     H35174   3.488   9.077   5.484 -0.4473 -1.4954 -0.8009
  261MOL0     H35175   3.516   9.242   5.439 -0.2687 -0.9167  0.9726
  261MOL0     H35176   3.635   9.009   5.293  0.0784  1.1358 -0.9061
  261MOL0     H35177   3.645   9.177   5.246  1.2124 -1.7953 -1.7296
  261MOL0     H35178   3.777   9.223   5.459 -3.1977  0.4844 -0.2833
  261MOL0     H35179   3.787   9.053   5.501 -1.0482  0.3370  0.7196
  261MOL0     H35180   3.857   8.993   5.260  1.2142 -0.2635  0.6006
  261MOL0     H35181   3.868   9.172   5.236  0.6666  0.8512  0.7429
  261MOL0     H35182   4.034   9.161   5.444 -1.0030  1.8908 -2.0065
  261MOL0     H35183   4.094   9.101   5.290  3.3020 -2.0925  2.8121
  261MOL0     H35184   3.968   8.925   5.507  0.9419  0.8190  0.8733
  261MOL0     H35185   4.013   8.861   5.340  3.8894 -1.5545  1.1057
  261MOL0     H35186   4.261   8.893   5.252  1.1132  0.7133 -0.6219
  261MOL0     H35187   4.570   9.036   5.342 -1.1110  0.2958 -1.3035
  261MOL0     H35188   4.590   8.902   5.453  0.0097  1.1249  0.8520
  261MOL0     H35189   4.479   8.760   5.265  0.1047 -0.3670 -0.9604
  261MOL0     H35190   4.507   8.904   5.163 -0.3225  1.5520  0.2711
  261MOL0     H35191   4.712   8.716   5.168  3.7714 -0.0010  1.5843
  261MOL0     H35192   4.724   8.748   5.334 -0.5940 -1.4406 -0.1374
  261MOL0     H35193   4.753   9.002   5.248 -2.5063 -0.5851  2.0062
  261MOL0     H35194   4.743   8.923   5.093  0.4276 -0.3342  0.3692
  261MOL0     H35195   4.855   9.100   5.042  1.0723  1.0345 -0.6860
  261MOL0     H35196   5.020   9.249   4.940  1.0218  0.9990  0.2229
  261MOL0     H35197   5.167   9.586   4.861 -0.3844  0.4411 -1.9732
  261MOL0     H35198   5.291   9.756   4.724 -0.8445  0.1282 -0.7866
  261MOL0     H35199   5.688   9.708   4.652 -2.3527 -1.3155  1.2983
  261MOL0     H35200   5.670   9.623   4.512  0.4486  0.4034 -0.0341
  261MOL0     H35201   5.637   9.831   4.375  2.7514 -0.2077 -0.5177
  261MOL0     H35202   5.621   9.930   4.526 -0.2820  0.4876 -0.1529
  261MOL0     H35203   5.835   9.972   4.474 -0.4551 -0.4569  0.3862
  261MOL0     H35204   5.864   9.839   4.578 -0.0834 -1.7437 -0.4481
  261MOL0     H35205   5.854   9.799   4.267  1.7914 -0.1673 -0.7404
  261MOL0     H35206   5.888   9.683   4.388 -0.1490  0.7026  0.2655
  261MOL0     H35207   6.067   9.831   4.470  0.3309 -2.0045  0.7712
  261MOL0     H35208   6.069   9.912   4.309  0.4251 -0.2658 -0.9657
  261MOL0     H35209   6.129   9.623   4.366 -0.0972 -0.0263 -0.0879
  261MOL0     H35210   6.101   9.689   4.203  0.5737  1.8469  0.1466
  261MOL0     H35211   6.316   9.802   4.399  0.6104 -1.0836 -0.2461
  261MOL0     H35212   6.288   9.870   4.237 -0.6604 -0.9733 -1.4422
  261MOL0     H35213   6.478   9.744   4.234 -0.1533 -0.5403 -1.5317
  261MOL0     H35214   6.416   9.587   4.287  1.5300 -0.4439 -2.9139
  261MOL0     H35215   5.600   9.462   4.656  0.5160 -1.8290  1.9379
  261MOL0     H35216   5.463   9.293   4.749 -0.7117  0.1128 -3.9445
  261MOL0     H35217   5.328   9.038   5.150  1.3483  3.2395 -3.3846
  261MOL0     H35218   5.163   8.895   5.261  0.1774  1.6254  1.1942
  261MOL0     H35219   2.975   8.919   5.303  0.3790 -0.5674  1.7125
  261MOL0     H35220   2.768   8.946   5.445 -0.4614  0.4423  2.1353
  261MOL0     H35221   2.498   9.337   5.859 -1.5056  1.3108  0.3658
  261MOL0     H35222   2.263   9.325   5.922 -3.2565 -0.2513 -1.0630
  261MOL0     H35223   2.019   9.008   5.752 -0.6621 -0.0440 -0.0789
  261MOL0     H35224   1.966   9.158   5.672 -2.7948  1.4369  1.6247
  261MOL0     H35225   1.813   9.226   5.847  1.4888  1.5249 -2.5568
  261MOL0     H35226   1.874   9.093   5.953  2.4629 -2.2648 -0.9564
  261MOL0     H35227   1.792   8.937   5.799  0.7564  0.6500 -1.2244
  261MOL0     H35228   1.724   9.059   5.698 -1.7600 -2.2891 -0.7116
  261MOL0     H35229   1.642   9.008   5.994  2.4389 -0.1160  0.4276
  261MOL0     H35230   1.583   9.129   5.883  1.9263  0.1822 -2.0697
  261MOL0     H35231   1.370   8.791   5.749  1.9666 -2.0223  0.8459
  261MOL0     H35232   2.182   9.041   5.617 -2.2492  2.1505  1.1989
  261MOL0     H35233   2.506   8.938   5.571 -0.3299 -0.5354 -0.5544
  261MOL0     H35234   2.353   8.935   5.507  1.6674 -1.9606  0.5675
  261MOL0     H35235   2.463   9.050   5.430 -0.4470  3.0515  0.8509
  262MOL0     O35236   4.801   5.942   9.694  0.5272 -0.2205 -0.0196
  262MOL0     C35237   4.791   5.870   9.794  0.1456 -0.2013 -0.7179
  262MOL0     O35238   4.842   5.746   9.816 -0.6178 -0.1744  0.4983
  262MOL0     C35239   4.898   5.690   9.709 -0.7714  0.3072 -0.6974
  262MOL0     C35240   5.031   5.725   9.676  0.3574 -0.7145 -0.4580
  262MOL0     C35241   5.105   5.639   9.594  0.8907  0.0278  0.2773
  262MOL0     C35242   5.046   5.531   9.522  0.6838  0.3672 -0.8240
  262MOL0     O35243   5.118   5.450   9.440  0.3110 -0.3515  0.2722
  262MOL0     C35244   5.223   5.520   9.367  0.9172  0.3759 -0.2501
  262MOL0     C35245   5.240   5.446   9.231 -0.0624  0.2295 -0.3560
  262MOL0     C35246   5.337   5.516   9.134 -0.1330 -0.2387 -0.5402
  262MOL0     C35247   5.366   5.446   8.999  0.1264  0.3093 -0.6665
  262MOL0     C35248   5.424   5.542   8.900 -0.0887  0.8119 -0.0115
  262MOL0     C35249   5.411   5.477   8.763 -0.4325 -0.8292 -0.2368
  262MOL0     C35250   5.489   5.562   8.652  0.6892 -0.2916 -0.4143
  262MOL0     C35251   5.637   5.567   8.656  0.0046  0.0814 -0.6163
  262MOL0     N35252   5.688   5.437   8.683  0.3527  0.8457  0.1823
  262MOL0     C35253   5.689   5.347   8.581  0.4576 -0.0251 -0.0602
  262MOL0     C35254   5.727   5.232   8.639 -0.2092 -0.1817  0.9778
  262MOL0     C35255   5.772   5.098   8.574 -0.0934 -0.5729  0.2393
  262MOL0     C35256   5.918   5.067   8.600  0.3098 -0.3162  1.3673
  262MOL0     C35257   6.019   5.136   8.497  0.2078  0.3753  0.4711
  262MOL0     C35258   6.017   5.089   8.352 -0.3874 -0.1322 -0.3502
  262MOL0     O35259   5.998   4.947   8.347 -0.2977  0.0257  0.3531
  262MOL0     C35260   6.103   4.855   8.367  0.1751  0.0557 -0.2145
  262MOL0     C35261   6.079   4.715   8.352  0.1297 -0.2226  0.1906
  262MOL0     C35262   6.181   4.618   8.362  0.4375  0.1302 -0.1410
  262MOL0     C35263   6.322   4.660   8.372  0.1861  0.3524 -0.4597
  262MOL0     C35264   6.430   4.556   8.374  0.0137 -0.3386 -0.2107
  262MOL0     O35265   6.549   4.613   8.384  0.3324 -0.5901 -0.8641
  262MOL0     C35266   6.658   4.531   8.379 -0.2592  0.2405 -0.6288
  262MOL0     C35267   6.723   4.491   8.502 -0.7440  0.2746 -0.4638
  262MOL0     C35268   6.831   4.405   8.497  0.5258  0.1836 -0.3169
  262MOL0     C35269   6.871   4.351   8.375  0.2240 -0.1779 -0.2615
  262MOL0     O35270   6.982   4.266   8.357 -0.0843 -0.2800  0.0965
  262MOL0     C35271   7.047   4.196   8.467  0.0298 -0.1267 -0.4132
  262MOL0     C35272   7.123   4.084   8.403 -0.3858  0.0650  0.2133
  262MOL0     C35273   7.251   4.133   8.335  0.2220 -0.3232  0.9943
  262MOL0     C35274   7.373   4.102   8.423 -0.0725  0.0589  0.2656
  262MOL0     C35275   7.501   4.098   8.341 -0.5444  0.7560  0.7393
  262MOL0     C35276   7.622   4.138   8.426 -0.0397 -0.2532  0.1449
  262MOL0     C35277   7.638   4.291   8.445  0.3949  0.0327 -0.1190
  262MOL0     C35278   7.780   4.334   8.429  0.1942  0.5152 -0.5076
  262MOL0    Cl35279   7.871   4.272   8.575 -0.0667 -0.3843  0.1650
  262MOL0     C35280   6.812   4.400   8.257 -0.0648  0.0703  0.8300
  262MOL0     C35281   6.707   4.490   8.264  0.0613  0.3970  0.6201
  262MOL0     O35282   6.398   4.443   8.364 -0.0416 -0.3377  0.0198
  262MOL0     C35283   6.346   4.802   8.385  0.5700 -0.0763  0.2010
  262MOL0     C35284   6.238   4.889   8.382 -0.0059 -0.3959 -0.8247
  262MOL0     N35285   5.762   5.259   8.774  0.4645  0.1004 -0.4100
  262MOL0     N35286   5.730   5.379   8.800 -0.3049 -0.0843  0.1131
  262MOL0     C35287   4.909   5.512   9.540 -0.0172 -0.5374 -0.6110
  262MOL0     C35288   4.841   5.591   9.635  0.5444  0.4090 -0.3874
  262MOL0     C35289   4.722   5.928   9.907 -0.6164  0.2289  0.1132
  262MOL0     C35290   4.800   5.967  10.018 -0.0920  0.6029 -0.1795
  262MOL0     C35291   4.742   6.030  10.122 -0.2751  0.1787  0.1798
  262MOL0     C35292   4.604   6.045  10.138  0.2689  0.0538 -0.2268
  262MOL0     O35293   4.551   6.081  10.262  0.2116  0.8586 -0.1969
  262MOL0     C35294   4.410   6.055  10.285  0.5586  0.5815 -0.0903
  262MOL0     C35295   4.357   6.125  10.417  0.5759 -0.5693 -0.0927
  262MOL0     C35296   4.209   6.097  10.433  0.8473 -0.5641 -0.1625
  262MOL0     C35297   4.147   6.166  10.550  0.0029 -0.2121  0.2821
  262MOL0     C35298   4.164   6.308  10.538 -0.4349  0.2299 -0.7522
  262MOL0     C35299   4.179   6.428  10.533  0.3032 -0.3707  0.4408
  262MOL0     C35300   4.523   6.008  10.026  0.2022  0.2812 -0.2195
  262MOL0     C35301   4.582   5.948   9.911  0.4656  0.1326  0.0953
  262MOL0     C35302   4.494   5.889   9.803  0.1556  0.6838  0.2127
  262MOL0     H35303   5.069   5.822   9.708  0.1513  0.4666 -3.4941
  262MOL0     H35304   5.208   5.673   9.585  1.0873  0.2821  2.8209
  262MOL0     H35305   5.204   5.627   9.354 -1.9159 -0.0727 -0.4736
  262MOL0     H35306   5.318   5.522   9.421 -0.2190  1.7686  1.8826
  262MOL0     H35307   5.151   5.435   9.169  1.4128 -1.5110 -2.3302
  262MOL0     H35308   5.283   5.349   9.255  0.1966  0.6931  1.1156
  262MOL0     H35309   5.430   5.539   9.186  1.2586 -1.5438 -2.3211
  262MOL0     H35310   5.284   5.608   9.106 -0.6611 -1.3495 -3.6019
  262MOL0     H35311   5.436   5.366   9.024  0.3172  0.5048 -0.5724
  262MOL0     H35312   5.274   5.403   8.956 -1.0023  0.8720  1.0900
  262MOL0     H35313   5.363   5.632   8.897  2.3290  2.5415 -2.3942
  262MOL0     H35314   5.526   5.575   8.924  0.6436 -0.0045 -1.7908
  262MOL0     H35315   5.453   5.376   8.769 -0.1169 -0.6370  1.1516
  262MOL0     H35316   5.316   5.457   8.713 -0.9958  1.0717  0.0160
  262MOL0     H35317   5.445   5.662   8.641 -3.3858 -1.9287 -0.7652
  262MOL0     H35318   5.459   5.534   8.551 -1.4100  3.5180 -1.0353
  262MOL0     H35319   5.672   5.602   8.558  2.9150 -0.1043  0.2688
  262MOL0     H35320   5.671   5.639   8.731 -1.3913 -2.3925  2.6142
  262MOL0     H35321   5.654   5.352   8.479 -0.7787 -0.8977  0.2881
  262MOL0     H35322   5.716   5.021   8.628 -1.0629  0.5327  0.8735
  262MOL0     H35323   5.739   5.093   8.470 -0.7757 -1.2991  0.4833
  262MOL0     H35324   5.940   5.094   8.704 -0.4732 -2.2137  2.0772
  262MOL0     H35325   5.937   4.959   8.603 -0.2982 -0.5490 -1.2511
  262MOL0     H35326   6.121   5.118   8.532 -0.6698  0.1626  3.1772
  262MOL0     H35327   6.006   5.245   8.492  0.4142  0.3483 -1.8921
  262MOL0     H35328   6.098   5.132   8.293  0.7689  0.8786  1.8662
  262MOL0     H35329   5.919   5.124   8.319  0.0174  1.1756 -0.2221
  262MOL0     H35330   5.978   4.678   8.341  0.6953 -1.8590  0.1294
  262MOL0     H35331   6.147   4.515   8.354 -3.0767  1.1459 -0.0396
  262MOL0     H35332   6.677   4.522   8.595  0.0617 -0.3775  0.1721
  262MOL0     H35333   6.887   4.379   8.586  0.0943  2.6424  0.7570
  262MOL0     H35334   7.117   4.264   8.516  4.0492 -3.6249 -0.7215
  262MOL0     H35335   6.968   4.161   8.535  1.3986 -0.3853  1.0890
  262MOL0     H35336   7.144   4.003   8.475 -0.0205 -0.1529 -0.1358
  262MOL0     H35337   7.054   4.039   8.331 -3.1146  2.2060  1.2908
  262MOL0     H35338   7.258   4.073   8.244 -1.6524  0.8703  0.0052
  262MOL0     H35339   7.233   4.238   8.310 -1.6683 -1.2121 -1.8035
  262MOL0     H35340   7.358   4.009   8.478 -2.0019 -1.7688 -3.0152
  262MOL0     H35341   7.385   4.180   8.498  2.2180  0.5410 -0.5035
  262MOL0     H35342   7.501   4.169   8.258  0.6026 -0.9642 -0.8042
  262MOL0     H35343   7.524   3.999   8.301  0.0358  1.3297 -0.3751
  262MOL0     H35344   7.622   4.085   8.522 -1.0519 -0.9701 -0.2357
  262MOL0     H35345   7.709   4.106   8.367  0.2774  0.9989 -0.0868
  262MOL0     H35346   7.589   4.320   8.538 -1.6505  0.5285 -1.2902
  262MOL0     H35347   7.571   4.352   8.383 -1.7302 -1.5940  0.4774
  262MOL0     H35348   7.820   4.284   8.340  0.6216 -3.5524  1.7222
  262MOL0     H35349   7.786   4.443   8.423  1.6529  0.4679 -0.2884
  262MOL0     H35350   6.840   4.361   8.160 -0.9652 -0.8666  0.9343
  262MOL0     H35351   6.661   4.523   8.171  0.4960  3.0321  1.2747
  262MOL0     H35352   6.447   4.838   8.402  0.0180  0.0864  3.8801
  262MOL0     H35353   6.266   4.994   8.382  0.8143 -0.6058  0.1616
  262MOL0     H35354   4.860   5.429   9.490 -0.6878 -1.3136  1.2381
  262MOL0     H35355   4.736   5.572   9.659  0.3773  1.8711  0.1157
  262MOL0     H35356   4.906   5.948  10.031 -0.2384 -0.8967 -0.8829
  262MOL0     H35357   4.805   6.069  10.201 -0.4604 -0.0829  0.4579
  262MOL0     H35358   4.397   5.946  10.290  0.9989  0.5341  0.0746
  262MOL0     H35359   4.345   6.093  10.205  0.1247 -0.6779 -0.3638
  262MOL0     H35360   4.376   6.232  10.403  3.3970 -0.6765  1.9046
  262MOL0     H35361   4.422   6.101  10.502  3.8605  0.7387 -2.0697
  262MOL0     H35362   4.207   5.988  10.445  0.5267 -0.4781  0.5560
  262MOL0     H35363   4.164   6.116  10.335  1.0894 -1.6746 -0.4998
  262MOL0     H35364   4.041   6.142  10.539  0.3285 -1.1551 -0.9757
  262MOL0     H35365   4.190   6.140  10.647  1.8861  0.7310 -0.2462
  262MOL0     H35366   4.192   6.534  10.530 -0.1738 -0.3319 -1.0668
  262MOL0     H35367   4.415   5.997  10.018  0.3645 -2.2418  0.0663
  262MOL0     H35368   4.511   5.783   9.785  1.1095  0.1469  3.5359
  262MOL0     H35369   4.388   5.909   9.823  0.0144 -1.6822  2.2850
  262MOL0     H35370   4.517   5.933   9.705  0.6820 -1.3956 -0.6532
  263MOL0     O35371   5.459  10.198   0.938 -0.5853  0.2738 -0.4585
  263MOL0     C35372   5.525  10.093   0.955 -1.0107 -0.6643  1.0212
  263MOL0     O35373   5.522   9.984   0.870  0.2261 -0.1433  0.2695
  263MOL0     C35374   5.410   9.968   0.792  0.5488 -0.2705 -0.1171
  263MOL0     C35375   5.323   9.864   0.806 -0.3224  0.5044 -0.3511
  263MOL0     C35376   5.213   9.839   0.726 -0.1915  0.4533  0.3655
  263MOL0     C35377   5.190   9.921   0.612  0.2192 -0.2962  0.5639
  263MOL0     O35378   5.090   9.912   0.519 -0.0693 -0.0744  0.5499
  263MOL0     C35379   4.972   9.825   0.544 -0.2753  0.9365 -0.1354
  263MOL0     C35380   4.852   9.876   0.466  0.8886  0.3208 -0.5077
  263MOL0     C35381   4.883   9.907   0.314  0.2769  0.7384 -0.0338
  263MOL0     C35382   4.771   9.897   0.205 -0.3230  0.4800 -0.2769
  263MOL0     C35383   4.668  10.006   0.225 -0.1100 -0.3665  0.0382
  263MOL0     C35384   4.596  10.053   0.103  0.1027 -0.2009  0.7524
  263MOL0     C35385   4.516  10.181   0.144  0.3950 -0.3978 -0.9347
  263MOL0     C35386   4.416  10.226   0.042  0.2898  0.5139  0.4037
  263MOL0     N35387   4.459  10.234  -0.098  0.9626  0.8777 -0.4331
  263MOL0     C35388   4.568  10.302  -0.140  0.5286  0.9878  0.8427
  263MOL0     C35389   4.579  10.271  -0.275  0.4398 -0.4604 -0.9229
  263MOL0     C35390   4.677  10.336  -0.372  0.7850  0.3221 -0.6246
  263MOL0     C35391   4.801  10.246  -0.396  0.6111 -0.6385 -0.1974
  263MOL0     C35392   4.878  10.205  -0.275  0.4336 -0.7744 -0.2637
  263MOL0     C35393   4.937  10.326  -0.194  0.8243 -0.5441 -0.7763
  263MOL0     O35394   5.028  10.394  -0.277 -0.3122 -0.4248 -0.2806
  263MOL0     C35395   5.163  10.355  -0.286 -0.8618 -0.2253  0.5334
  263MOL0     C35396   5.219  10.238  -0.234 -0.2798 -0.4723 -0.6000
  263MOL0     C35397   5.354  10.218  -0.261 -0.6128  0.4004  0.6860
  263MOL0     C35398   5.435  10.308  -0.336  0.0297 -0.8569  0.7097
  263MOL0     C35399   5.566  10.264  -0.390  0.5814  0.0747 -0.1872
  263MOL0     O35400   5.619  10.347  -0.482  0.4330  0.4146  0.4309
  263MOL0     C35401   5.749  10.315  -0.516  0.0399 -0.0331  0.6438
  263MOL0     C35402   5.855  10.322  -0.424 -0.5581  0.1582 -0.3965
  263MOL0     C35403   5.993  10.284  -0.464  0.4014  0.2381  0.6535
  263MOL0     C35404   6.014  10.244  -0.601 -0.1400 -0.4221 -0.5079
  263MOL0     O35405   6.136  10.196  -0.635 -0.3017  0.5675  0.1847
  263MOL0     C35406   6.170  10.156  -0.774 -0.1909 -0.4869 -0.2262
  263MOL0     C35407   6.321  10.122  -0.794 -0.6217  0.1909  0.0581
  263MOL0     C35408   6.379  10.022  -0.694 -0.8673 -0.0256 -0.9086
  263MOL0     C35409   6.528  10.009  -0.722 -0.0828  0.5731  0.3634
  263MOL0     C35410   6.615   9.916  -0.641 -0.1229  0.2229  0.5987
  263MOL0     C35411   6.553   9.772  -0.630  0.3141  0.5233  0.5405
  263MOL0     C35412   6.651   9.683  -0.557 -0.1957  0.6458 -0.2787
  263MOL0     C35413   6.596   9.539  -0.540  1.0153 -0.1771  0.0695
  263MOL0    Cl35414   6.422   9.537  -0.495  0.1129 -0.4086  0.0733
  263MOL0     C35415   5.905  10.248  -0.692  0.0470  0.7105  0.2531
  263MOL0     C35416   5.775  10.275  -0.647  0.2328 -0.3953 -0.1533
  263MOL0     O35417   5.617  10.167  -0.336 -0.3974  0.3456  0.5297
  263MOL0     C35418   5.376  10.419  -0.398  0.3047  0.8542 -1.0318
  263MOL0     C35419   5.240  10.445  -0.372 -0.0078 -0.9208  0.2127
  263MOL0     N35420   4.471  10.183  -0.310 -0.1948 -0.9710 -0.1730
  263MOL0     N35421   4.403  10.160  -0.203  0.2850 -0.3178  0.0184
  263MOL0     C35422   5.280  10.033   0.597  0.2670 -0.0839  0.1736
  263MOL0     C35423   5.381  10.055   0.691  0.5678 -0.7515  0.2662
  263MOL0     C35424   5.599  10.104   1.081  0.4773 -0.5735  0.4517
  263MOL0     C35425   5.551  10.178   1.193  0.5643  0.1681 -0.7409
  263MOL0     C35426   5.615  10.179   1.313 -0.4510 -0.0339  0.1063
  263MOL0     C35427   5.736  10.108   1.327  0.4290 -1.0548  0.5075
  263MOL0     O35428   5.815  10.112   1.437 -0.5990  0.4191  0.4599
  263MOL0     C35429   5.757  10.147   1.560  0.5632 -0.0902 -0.0029
  263MOL0     C35430   5.843  10.147   1.694  1.2879 -0.4658  0.0866
  263MOL0     C35431   5.961  10.246   1.705 -0.1076 -0.3593 -0.0547
  263MOL0     C35432   6.088  10.187   1.651  0.2181 -0.9110  0.0682
  263MOL0     C35433   6.206  10.264   1.699  0.1772 -0.2274 -0.5970
  263MOL0     C35434   6.317  10.305   1.718  0.0530 -0.3312 -1.1394
  263MOL0     C35435   5.781  10.032   1.219  0.1324 -0.1144  0.9241
  263MOL0     C35436   5.717  10.027   1.101  0.9496 -0.2260 -0.0968
  263MOL0     C35437   5.781   9.949   0.989  0.5339  1.4579 -0.0171
  263MOL0     H35438   5.349   9.804   0.893  0.9771  3.4702  1.4614
  263MOL0     H35439   5.149   9.755   0.751 -0.6941  0.0172 -2.1413
  263MOL0     H35440   4.996   9.723   0.512 -0.9647  1.0347 -0.9920
  263MOL0     H35441   4.955   9.817   0.652 -0.0127 -0.1744 -0.1655
  263MOL0     H35442   4.802   9.963   0.510 -3.0449 -0.9585 -1.9289
  263MOL0     H35443   4.779   9.796   0.484  3.4586 -1.5294  2.9014
  263MOL0     H35444   4.947   9.823   0.285 -0.4953 -1.0062  2.8544
  263MOL0     H35445   4.948   9.996   0.310  3.6130 -1.1800  3.5909
  263MOL0     H35446   4.828   9.903   0.112 -0.6998  0.5013 -0.5118
  263MOL0     H35447   4.722   9.799   0.206 -0.2117  0.4231  1.1825
  263MOL0     H35448   4.608   9.975   0.310  1.4423 -3.5056  0.1653
  263MOL0     H35449   4.716  10.097   0.262 -1.9603  0.3324  0.7952
  263MOL0     H35450   4.670  10.080   0.026  2.5841  3.6132  4.0767
  263MOL0     H35451   4.515   9.985   0.075 -0.4946  1.1487 -0.9873
  263MOL0     H35452   4.584  10.260   0.175  1.3538 -1.9784  1.3024
  263MOL0     H35453   4.455  10.157   0.232  0.6219  0.0779 -0.6475
  263MOL0     H35454   4.326  10.165   0.041  0.2941  0.4214 -2.7756
  263MOL0     H35455   4.381  10.323   0.079 -2.1578 -0.4161  0.6946
  263MOL0     H35456   4.620  10.382  -0.088 -0.5825  2.8197 -0.6862
  263MOL0     H35457   4.625  10.358  -0.466  2.3013 -0.0546 -1.5804
  263MOL0     H35458   4.715  10.427  -0.324 -0.6917 -0.2210  1.7914
  263MOL0     H35459   4.768  10.149  -0.434  0.5862 -1.5353  1.9657
  263MOL0     H35460   4.879  10.280  -0.465  1.3266  1.1402  1.3952
  263MOL0     H35461   4.955  10.134  -0.305  2.3230  1.0943 -0.0513
  263MOL0     H35462   4.806  10.156  -0.209 -2.2144  2.9328 -0.0435
  263MOL0     H35463   4.977  10.281  -0.102  1.3410  0.0595 -0.6964
  263MOL0     H35464   4.865  10.402  -0.162  1.0084 -0.8868  0.5107
  263MOL0     H35465   5.165  10.163  -0.177  0.2063 -1.1171 -0.9800
  263MOL0     H35466   5.407  10.135  -0.218 -1.3092 -0.8552 -0.7559
  263MOL0     H35467   5.836  10.364  -0.325  0.7439 -1.6892  0.6963
  263MOL0     H35468   6.069  10.265  -0.389  0.2690 -3.7916 -0.0289
  263MOL0     H35469   6.116  10.066  -0.803  1.2985 -1.7753  0.8262
  263MOL0     H35470   6.141  10.237  -0.841  1.6712  1.0181  0.6960
  263MOL0     H35471   6.334  10.080  -0.894  0.7451  2.4718 -0.7980
  263MOL0     H35472   6.374  10.217  -0.792 -0.4079  0.0977  2.3658
  263MOL0     H35473   6.364  10.063  -0.593  1.6173 -0.5908 -0.2492
  263MOL0     H35474   6.331   9.925  -0.706 -2.4113  0.3652  1.4471
  263MOL0     H35475   6.573  10.109  -0.728 -2.0102  1.4482 -0.6312
  263MOL0     H35476   6.519   9.979  -0.826  1.6437  0.6910  0.1533
  263MOL0     H35477   6.626   9.945  -0.536  1.4152  1.5230  0.1078
  263MOL0     H35478   6.716   9.917  -0.682 -0.7037  1.2374 -0.8977
  263MOL0     H35479   6.466   9.777  -0.564  0.5147 -4.3408  1.5376
  263MOL0     H35480   6.523   9.734  -0.728 -0.2414 -0.2488  1.0015
  263MOL0     H35481   6.666   9.717  -0.454  1.5163  0.7123 -0.5320
  263MOL0     H35482   6.744   9.673  -0.614  0.1249 -0.2419  0.3894
  263MOL0     H35483   6.589   9.491  -0.638 -1.5425 -0.6518  0.4180
  263MOL0     H35484   6.665   9.487  -0.473  2.2589  0.0195 -1.0266
  263MOL0     H35485   5.930  10.205  -0.789  1.1772  2.2795 -0.1878
  263MOL0     H35486   5.689  10.263  -0.712 -1.4479  0.3846  1.8149
  263MOL0     H35487   5.427  10.482  -0.471  0.5540  0.8342 -0.8738
  263MOL0     H35488   5.184  10.530  -0.410 -2.6658 -2.0627  1.3089
  263MOL0     H35489   5.264  10.101   0.514  0.7707 -1.1191 -0.7995
  263MOL0     H35490   5.458  10.130   0.681 -0.4792  0.1123 -2.2076
  263MOL0     H35491   5.454  10.226   1.192 -0.4297 -1.6508  1.3402
  263MOL0     H35492   5.574  10.240   1.394 -1.7745 -1.1165  0.2971
  263MOL0     H35493   5.661  10.097   1.577  1.4573 -0.9511  3.2164
  263MOL0     H35494   5.732  10.252   1.541 -0.0431 -0.5351 -1.8922
  263MOL0     H35495   5.877  10.048   1.725 -0.9406 -0.8128  1.6930
  263MOL0     H35496   5.770  10.183   1.768  1.3822  1.2313 -0.5904
  263MOL0     H35497   5.984  10.270   1.809  0.7853 -0.0828 -0.3077
  263MOL0     H35498   5.939  10.339   1.652 -2.5740 -1.4434 -1.0859
  263MOL0     H35499   6.106  10.083   1.680 -0.0531 -1.0247 -0.1705
  263MOL0     H35500   6.083  10.194   1.542  1.8389  0.4764  0.0428
  263MOL0     H35501   6.417  10.342   1.727  0.4539 -1.6730  0.6041
  263MOL0     H35502   5.878   9.986   1.230  0.7261  1.3518  2.1979
  263MOL0     H35503   5.884   9.921   1.015  0.1482 -0.0245  0.0097
  263MOL0     H35504   5.718   9.861   0.980 -1.9212  3.1726 -0.6115
  263MOL0     H35505   5.782  10.009   0.898 -1.0537  2.8661  0.8401
  264MOL0     O35506   5.841   3.745   7.526 -0.4588  0.1880 -0.2786
  264MOL0     C35507   5.820   3.634   7.475  0.1426 -0.4855  0.0815
  264MOL0     O35508   5.698   3.560   7.485 -0.2100  0.2313  0.2437
  264MOL0     C35509   5.592   3.625   7.540  0.2704 -0.1418 -0.4077
  264MOL0     C35510   5.594   3.678   7.666  0.5641 -0.9302  0.0682
  264MOL0     C35511   5.477   3.729   7.722  0.1857  0.9490  0.1312
  264MOL0     C35512   5.361   3.712   7.661  0.2540  0.1889  0.0600
  264MOL0     O35513   5.246   3.754   7.718 -0.0486 -0.8288  0.5919
  264MOL0     C35514   5.181   3.675   7.816  0.0303  0.4451  0.8272
  264MOL0     C35515   5.171   3.771   7.941 -0.7821  1.5014 -0.1367
  264MOL0     C35516   5.059   3.863   7.923  0.1178  0.2148 -0.0046
  264MOL0     C35517   4.933   3.837   8.003 -0.5730  0.5069  0.6449
  264MOL0     C35518   4.828   3.956   7.987  0.7030 -0.0989 -0.6272
  264MOL0     C35519   4.820   4.046   8.108  0.0858  0.0326  0.5616
  264MOL0     C35520   4.714   4.155   8.104  1.2881 -0.3181 -1.1271
  264MOL0     C35521   4.739   4.277   8.019 -0.2047 -0.0859 -1.0340
  264MOL0     N35522   4.854   4.367   8.057 -1.0997 -0.0567 -0.6738
  264MOL0     C35523   4.978   4.346   8.010 -0.2133 -1.0142  0.7202
  264MOL0     C35524   5.050   4.447   8.073  0.0567  0.3584  0.0547
  264MOL0     C35525   5.182   4.502   8.031 -0.4592  0.7280 -0.0006
  264MOL0     C35526   5.167   4.610   7.926 -0.5966 -0.0722 -0.7319
  264MOL0     C35527   5.290   4.692   7.896  0.5571  0.0181  0.2324
  264MOL0     C35528   5.405   4.628   7.822  0.5959  0.3354 -0.7798
  264MOL0     O35529   5.505   4.728   7.815  0.0981  0.3771 -1.1902
  264MOL0     C35530   5.640   4.704   7.793  0.0906  0.9959  0.4943
  264MOL0     C35531   5.708   4.577   7.808 -0.3320 -0.0589 -0.6322
  264MOL0     C35532   5.840   4.562   7.773 -0.6780  0.2475 -0.5248
  264MOL0     C35533   5.915   4.670   7.732  1.1967 -0.4258  0.3647
  264MOL0     C35534   6.057   4.655   7.704 -0.7811  0.0736  1.0628
  264MOL0     O35535   6.115   4.523   7.723  0.0766 -0.2655  0.0456
  264MOL0     C35536   6.240   4.498   7.678 -0.7108  0.4507 -0.5849
  264MOL0     C35537   6.348   4.592   7.676  1.1151  0.1105  0.7524
  264MOL0     C35538   6.469   4.544   7.639  0.5893  0.5266 -0.7076
  264MOL0     C35539   6.501   4.410   7.604  0.0257 -0.5029 -0.1978
  264MOL0     O35540   6.630   4.364   7.588 -0.1784 -0.6342  0.2801
  264MOL0     C35541   6.688   4.379   7.458  0.3868 -0.0551  0.2576
  264MOL0     C35542   6.840   4.365   7.469 -1.2469 -0.0755 -0.3175
  264MOL0     C35543   6.889   4.235   7.408 -0.4330  0.2625  0.6979
  264MOL0     C35544   7.034   4.233   7.395 -0.2708  0.1907 -0.3736
  264MOL0     C35545   7.084   4.108   7.324 -1.1099  0.2902 -0.0604
  264MOL0     C35546   7.235   4.087   7.337  0.1258 -0.1778 -0.3065
  264MOL0     C35547   7.290   3.953   7.292 -0.3423 -0.1407  0.2742
  264MOL0     C35548   7.446   3.964   7.274  0.7023  0.4239  0.0178
  264MOL0    Cl35549   7.510   4.089   7.153 -0.0370  0.1348  0.3203
  264MOL0     C35550   6.395   4.319   7.621  0.0615 -0.3464  0.3904
  264MOL0     C35551   6.269   4.361   7.654  0.2611 -1.0887  0.2216
  264MOL0     O35552   6.113   4.752   7.646  0.6097  0.3920 -1.0879
  264MOL0     C35553   5.852   4.795   7.713 -0.2380  0.3116  0.0614
  264MOL0     C35554   5.716   4.811   7.743 -0.4318 -0.1059 -0.9387
  264MOL0     N35555   4.966   4.518   8.158 -0.5527 -0.0542 -0.3308
  264MOL0     N35556   4.849   4.470   8.146 -0.0958 -0.3160  0.5684
  264MOL0     C35557   5.355   3.654   7.533  0.2289 -0.2224  0.9077
  264MOL0     C35558   5.473   3.602   7.479 -0.3219  0.3034  0.6944
  264MOL0     C35559   5.940   3.571   7.409  1.0299 -0.1460 -0.6277
  264MOL0     C35560   5.927   3.430   7.398  0.5084  1.0260  0.9328
  264MOL0     C35561   6.028   3.355   7.338  0.0870 -0.0977 -0.1829
  264MOL0     C35562   6.144   3.421   7.299 -0.1980 -0.8198  0.9733
  264MOL0     O35563   6.259   3.363   7.238  0.2257 -0.3470  0.0131
  264MOL0     C35564   6.253   3.223   7.221  0.2170 -0.1781  0.0195
  264MOL0     C35565   6.336   3.176   7.101  0.4233 -1.0799 -0.1718
  264MOL0     C35566   6.287   3.248   6.980 -0.5831 -0.3230 -0.3150
  264MOL0     C35567   6.353   3.197   6.848 -0.5931 -0.7001  0.0673
  264MOL0     C35568   6.495   3.193   6.852 -0.4787 -0.5789 -0.4466
  264MOL0     C35569   6.614   3.196   6.857  0.6207 -0.8245  0.2210
  264MOL0     C35570   6.152   3.559   7.314  0.0469 -0.3591 -0.1795
  264MOL0     C35571   6.055   3.632   7.374  0.3622  0.3530  0.7510
  264MOL0     C35572   6.086   3.780   7.390  0.1752 -0.6293  0.2847
  264MOL0     H35573   5.691   3.685   7.712  0.8114 -1.1435 -0.4134
  264MOL0     H35574   5.486   3.761   7.825 -2.8281 -1.2226  1.2316
  264MOL0     H35575   5.078   3.646   7.796 -0.5548  1.0030  2.7901
  264MOL0     H35576   5.244   3.588   7.836  1.1365  0.7979 -0.9357
  264MOL0     H35577   5.265   3.827   7.947  1.1267 -1.4240 -0.7615
  264MOL0     H35578   5.164   3.722   8.038 -1.1233  2.4940  0.3503
  264MOL0     H35579   5.022   3.874   7.821 -0.3055  0.8668  0.2091
  264MOL0     H35580   5.092   3.964   7.949 -0.6458  0.2588  0.8675
  264MOL0     H35581   4.882   3.743   7.982 -0.4719  0.5342  0.2664
  264MOL0     H35582   4.973   3.829   8.104  0.1014 -0.8581  0.2843
  264MOL0     H35583   4.841   4.023   7.902  0.2031  3.9323  2.1739
  264MOL0     H35584   4.728   3.911   7.986  0.9535 -0.8630  1.7343
  264MOL0     H35585   4.815   3.984   8.197 -0.0694  0.2955  0.7375
  264MOL0     H35586   4.916   4.098   8.115 -0.1332  0.9632 -1.9814
  264MOL0     H35587   4.696   4.189   8.207  1.1652 -4.3528  0.3528
  264MOL0     H35588   4.612   4.119   8.088  0.9782 -2.6073  4.0474
  264MOL0     H35589   4.759   4.228   7.923  0.2222  1.9439 -2.0354
  264MOL0     H35590   4.648   4.335   8.002 -0.5029 -0.2010  0.0946
  264MOL0     H35591   5.005   4.282   7.928 -3.0690  1.5847 -2.5458
  264MOL0     H35592   5.238   4.544   8.116 -0.3077  2.9414 -1.1338
  264MOL0     H35593   5.247   4.424   7.990 -0.6584  0.4896  0.1326
  264MOL0     H35594   5.139   4.555   7.836 -4.0769 -2.7637  1.7465
  264MOL0     H35595   5.085   4.674   7.958 -1.5367 -0.8323 -1.5634
  264MOL0     H35596   5.306   4.734   7.996  1.7321 -1.6571  0.7863
  264MOL0     H35597   5.255   4.773   7.831  2.0261  0.6512  0.1764
  264MOL0     H35598   5.381   4.594   7.721  3.0662  0.3528 -1.4289
  264MOL0     H35599   5.437   4.540   7.880 -0.0845 -1.0690 -2.4507
  264MOL0     H35600   5.667   4.484   7.847  2.0003 -2.0121 -2.5320
  264MOL0     H35601   5.887   4.469   7.804  0.9736  1.2463  0.0826
  264MOL0     H35602   6.335   4.698   7.698 -2.5215 -0.4312  1.8337
  264MOL0     H35603   6.548   4.617   7.649  2.5218 -1.6938  1.8944
  264MOL0     H35604   6.650   4.319   7.375  0.5067  3.4302 -2.5638
  264MOL0     H35605   6.671   4.485   7.434  2.2969  0.0278 -0.9595
  264MOL0     H35606   6.902   4.451   7.444  0.1289  0.5159  4.3526
  264MOL0     H35607   6.863   4.363   7.575  0.7142 -0.5868 -0.7159
  264MOL0     H35608   6.858   4.154   7.474 -1.6587  0.4347  0.3578
  264MOL0     H35609   6.841   4.230   7.310 -0.8436 -2.0787  0.9606
  264MOL0     H35610   7.079   4.239   7.495  0.9712 -0.1272 -0.8979
  264MOL0     H35611   7.075   4.315   7.336 -0.2062  0.4270 -0.0094
  264MOL0     H35612   7.044   4.122   7.223  0.0807 -2.7054 -1.0647
  264MOL0     H35613   7.042   4.014   7.360  2.1834 -0.8372  1.2203
  264MOL0     H35614   7.284   4.158   7.269 -0.1565 -3.0144 -3.7513
  264MOL0     H35615   7.263   4.101   7.441 -0.6972 -1.1903  0.0647
  264MOL0     H35616   7.243   3.931   7.196 -1.2218  0.2692  0.5957
  264MOL0     H35617   7.278   3.876   7.369 -0.9255  0.5500  0.8799
  264MOL0     H35618   7.488   3.994   7.370 -0.0287  3.8816 -0.5821
  264MOL0     H35619   7.485   3.865   7.249 -3.0820 -1.3155  0.1737
  264MOL0     H35620   6.406   4.211   7.611 -0.8332 -0.3723 -0.6069
  264MOL0     H35621   6.198   4.281   7.671 -3.1318  1.8428  1.0272
  264MOL0     H35622   5.908   4.882   7.682  0.2359 -0.3919 -1.1555
  264MOL0     H35623   5.665   4.906   7.747 -1.5962 -0.7273  2.4748
  264MOL0     H35624   5.261   3.642   7.479 -0.3094 -0.1608  1.8159
  264MOL0     H35625   5.479   3.548   7.385  4.1061  2.6989 -0.7017
  264MOL0     H35626   5.842   3.377   7.440  2.5134 -2.0103  1.5158
  264MOL0     H35627   6.019   3.247   7.342  1.2929 -0.1931  0.3718
  264MOL0     H35628   6.152   3.187   7.202  0.7300 -1.5620 -0.2257
  264MOL0     H35629   6.289   3.173   7.312 -1.0874  0.0544  0.6764
  264MOL0     H35630   6.344   3.068   7.089 -0.2888 -0.8694 -4.1098
  264MOL0     H35631   6.436   3.219   7.114  0.7143 -1.1788 -1.8455
  264MOL0     H35632   6.315   3.354   6.986  4.4445 -1.4166 -0.3017
  264MOL0     H35633   6.178   3.255   6.970 -0.5151  2.8026  0.0210
  264MOL0     H35634   6.310   3.100   6.822  0.8050 -1.3596  0.0951
  264MOL0     H35635   6.327   3.275   6.775 -0.2581 -0.6101  0.0405
  264MOL0     H35636   6.720   3.202   6.872  0.2806  2.8126  2.7428
  264MOL0     H35637   6.252   3.601   7.305 -0.4810  1.4038  1.6622
  264MOL0     H35638   6.098   3.799   7.496  2.3051 -2.4587  0.4401
  264MOL0     H35639   6.172   3.809   7.329  1.4889 -2.1133  1.3811
  264MOL0     H35640   5.996   3.826   7.348 -0.2813 -0.7060  1.1529
  265MOL0     O35641   1.502   4.776   7.513  0.2979 -0.0128 -0.6452
  265MOL0     C35642   1.499   4.802   7.394  0.3005  0.1653  0.1977
  265MOL0     O35643   1.595   4.870   7.322 -0.0504 -0.2131 -0.7945
  265MOL0     C35644   1.709   4.916   7.376 -0.1261  0.4945  0.2775
  265MOL0     C35645   1.778   4.868   7.491 -0.4111 -0.0453 -0.2885
  265MOL0     C35646   1.907   4.920   7.534  0.0435  0.7020 -0.4081
  265MOL0     C35647   1.962   5.025   7.456 -0.0901 -0.1048 -0.8822
  265MOL0     O35648   2.083   5.071   7.499 -0.2132  0.9306  0.0486
  265MOL0     C35649   2.122   5.204   7.454  0.4110  0.9322  0.4079
  265MOL0     C35650   2.251   5.252   7.525  1.1172 -0.0450  0.7588
  265MOL0     C35651   2.366   5.152   7.498 -0.1133  0.7164 -0.4607
  265MOL0     C35652   2.408   5.131   7.349 -0.0892 -0.9132 -0.4377
  265MOL0     C35653   2.547   5.076   7.329  0.2434 -0.1929  0.0713
  265MOL0     C35654   2.571   4.950   7.417  0.6936  0.0322  0.6181
  265MOL0     C35655   2.708   4.893   7.394 -0.1939  0.4294  0.6727
  265MOL0     C35656   2.725   4.824   7.259 -0.4029  0.4500  0.3850
  265MOL0     N35657   2.792   4.695   7.274 -0.5219 -0.3044  0.1027
  265MOL0     C35658   2.915   4.675   7.326 -0.3917 -0.1441  0.9810
  265MOL0     C35659   2.949   4.541   7.311  0.5980 -0.0423  0.6690
  265MOL0     C35660   3.063   4.455   7.354 -0.2522  1.0798 -0.0607
  265MOL0     C35661   3.085   4.484   7.505  0.1188  0.5184 -0.0094
  265MOL0     C35662   3.180   4.379   7.567 -0.1325 -0.6210  0.4838
  265MOL0     C35663   3.317   4.378   7.498  0.5742  0.2546  0.2933
  265MOL0     O35664   3.393   4.280   7.559 -0.1280  0.2330  0.0440
  265MOL0     C35665   3.527   4.278   7.531  0.0997  0.0890  0.4476
  265MOL0     C35666   3.619   4.212   7.609 -0.2041  0.7779 -0.2882
  265MOL0     C35667   3.751   4.199   7.575  1.0314  0.3531 -0.6061
  265MOL0     C35668   3.804   4.254   7.460  0.4984  0.1335  0.0927
  265MOL0     C35669   3.952   4.241   7.434  0.8117  1.1541  0.2423
  265MOL0     O35670   4.007   4.315   7.331  0.3288  0.0623 -0.1434
  265MOL0     C35671   4.148   4.313   7.309  0.3386  0.1625 -0.0662
  265MOL0     C35672   4.247   4.326   7.413 -0.3817 -0.0251  0.1606
  265MOL0     C35673   4.379   4.319   7.367 -0.3745  0.1303 -0.5761
  265MOL0     C35674   4.418   4.312   7.237 -0.6995  0.8188  0.4041
  265MOL0     O35675   4.557   4.302   7.198  0.5671 -0.1051 -0.3617
  265MOL0     C35676   4.650   4.363   7.280  0.2528 -0.0002 -0.1283
  265MOL0     C35677   4.653   4.512   7.259 -0.4373 -0.2154  0.4329
  265MOL0     C35678   4.681   4.558   7.108  0.0118  0.7229 -0.0081
  265MOL0     C35679   4.754   4.691   7.110  0.3934  0.1815  0.3420
  265MOL0     C35680   4.798   4.750   6.979 -0.4046  0.1754  1.1706
  265MOL0     C35681   4.685   4.762   6.888  0.2545  0.1407  0.8077
  265MOL0     C35682   4.726   4.845   6.767 -0.8232  0.4830  0.2181
  265MOL0     C35683   4.644   4.797   6.644  0.2492 -1.2854 -0.1617
  265MOL0    Cl35684   4.471   4.825   6.686 -0.2559 -0.3904 -0.0216
  265MOL0     C35685   4.316   4.307   7.139  0.6651  0.3672 -0.4078
  265MOL0     C35686   4.185   4.313   7.183  0.4834 -0.2713  0.1556
  265MOL0     O35687   4.007   4.155   7.503  0.2334  0.1705  0.0079
  265MOL0     C35688   3.716   4.319   7.375 -0.2603 -0.3085  0.0846
  265MOL0     C35689   3.577   4.329   7.405 -0.3937  0.5107  0.1605
  265MOL0     N35690   2.837   4.493   7.233  0.4721  0.9939 -0.2257
  265MOL0     N35691   2.750   4.589   7.209 -0.4752  0.0145  0.0073
  265MOL0     C35692   1.888   5.085   7.349  0.2221 -0.5853 -0.6231
  265MOL0     C35693   1.763   5.033   7.315  0.9322  0.6995 -0.7772
  265MOL0     C35694   1.361   4.770   7.324  0.1167  0.3055 -0.2679
  265MOL0     C35695   1.273   4.676   7.382  0.1715 -0.6062 -0.8448
  265MOL0     C35696   1.154   4.634   7.322  0.2911  0.4948 -0.1371
  265MOL0     C35697   1.124   4.668   7.184  0.3586  0.1224 -0.3494
  265MOL0     O35698   1.017   4.621   7.110 -0.0026  0.4495  1.0545
  265MOL0     C35699   0.989   4.485   7.131  0.8398 -0.0502  0.4723
  265MOL0     C35700   0.884   4.441   7.026 -0.1382  0.6877 -0.2872
  265MOL0     C35701   0.938   4.471   6.890  0.4892 -0.1470  0.8033
  265MOL0     C35702   0.859   4.416   6.774 -1.2371  0.3571 -0.4623
  265MOL0     C35703   0.947   4.404   6.657 -0.5391  0.0528  0.4273
  265MOL0     C35704   1.018   4.399   6.555  0.4863 -0.0233 -0.5790
  265MOL0     C35705   1.211   4.767   7.131  0.4105  0.1463  0.1717
  265MOL0     C35706   1.324   4.818   7.194  0.2681 -0.4928 -0.1532
  265MOL0     C35707   1.382   4.935   7.114 -0.7813  0.4481  0.0791
  265MOL0     H35708   1.738   4.787   7.550 -1.3602  0.8474  0.3284
  265MOL0     H35709   1.973   4.897   7.618  0.9515  3.7402 -0.1743
  265MOL0     H35710   2.139   5.217   7.347  1.6291 -0.2585  0.4353
  265MOL0     H35711   2.046   5.280   7.476 -0.1398  0.6685 -0.5267
  265MOL0     H35712   2.233   5.267   7.632  1.3424  2.0870  0.5296
  265MOL0     H35713   2.266   5.349   7.478 -2.4498 -0.1916 -1.0269
  265MOL0     H35714   2.334   5.058   7.545  2.1972  0.3902  0.6182
  265MOL0     H35715   2.454   5.184   7.555  0.4455 -0.1623 -0.8115
  265MOL0     H35716   2.323   5.087   7.296  0.0603 -1.0167 -0.5912
  265MOL0     H35717   2.411   5.232   7.308 -1.4125 -0.4115  0.6098
  265MOL0     H35718   2.565   5.050   7.225  0.9270 -0.1316  0.1694
  265MOL0     H35719   2.617   5.155   7.358  0.4644  0.2635 -1.6235
  265MOL0     H35720   2.556   4.973   7.523  0.4839 -0.7378  0.7583
  265MOL0     H35721   2.494   4.877   7.392 -0.9260  1.6863  0.4954
  265MOL0     H35722   2.732   4.817   7.469 -2.3358 -1.2004 -0.2044
  265MOL0     H35723   2.785   4.970   7.406 -0.3778  0.7049  0.0856
  265MOL0     H35724   2.635   4.802   7.201 -1.7926  1.0740  2.2306
  265MOL0     H35725   2.805   4.875   7.204  3.2157 -2.0770  2.8169
  265MOL0     H35726   2.970   4.750   7.380 -4.1635  3.4713  0.3687
  265MOL0     H35727   3.046   4.350   7.330 -2.5210  1.5564 -0.7387
  265MOL0     H35728   3.155   4.489   7.305  0.2774  1.7950  1.3587
  265MOL0     H35729   3.128   4.583   7.521 -0.3344  0.4674  1.7744
  265MOL0     H35730   2.989   4.480   7.558 -0.7477 -0.2338 -1.5681
  265MOL0     H35731   3.136   4.279   7.552 -2.9478  0.5224  0.4082
  265MOL0     H35732   3.191   4.399   7.674  0.9871 -0.8026  0.4132
  265MOL0     H35733   3.355   4.480   7.516 -0.7301  1.3203 -2.4784
  265MOL0     H35734   3.304   4.365   7.391  0.7112 -0.0332  0.3121
  265MOL0     H35735   3.578   4.177   7.704 -2.1754 -0.8144 -1.6293
  265MOL0     H35736   3.810   4.144   7.647 -0.5810 -0.9009 -0.1633
  265MOL0     H35737   4.220   4.347   7.516  0.0105 -1.0595  0.4855
  265MOL0     H35738   4.454   4.315   7.445 -0.5834 -0.7015 -0.4042
  265MOL0     H35739   4.645   4.344   7.387 -1.0455  0.1447 -0.1405
  265MOL0     H35740   4.750   4.329   7.252  0.6127 -0.1138  1.2231
  265MOL0     H35741   4.552   4.551   7.277  0.5856  1.7159  2.6143
  265MOL0     H35742   4.723   4.550   7.334 -0.0601  0.1790 -0.1164
  265MOL0     H35743   4.745   4.493   7.047  1.4702  0.3539  1.8357
  265MOL0     H35744   4.588   4.570   7.051 -0.4303  1.9112  0.9344
  265MOL0     H35745   4.846   4.681   7.170  0.2433 -0.8827  0.4094
  265MOL0     H35746   4.699   4.771   7.162  2.1394  1.1005  0.8950
  265MOL0     H35747   4.874   4.688   6.932 -2.9039 -0.0621 -3.0944
  265MOL0     H35748   4.841   4.849   6.998  2.1519 -0.0645 -2.3387
  265MOL0     H35749   4.646   4.665   6.856  3.0496 -0.5213 -0.8503
  265MOL0     H35750   4.598   4.805   6.939 -0.8956 -0.9938 -0.1308
  265MOL0     H35751   4.825   4.812   6.735 -2.0583 -3.0093 -0.4927
  265MOL0     H35752   4.721   4.953   6.781  1.2222  0.8593 -1.4043
  265MOL0     H35753   4.686   4.856   6.562  0.7527 -1.8238 -0.2906
  265MOL0     H35754   4.656   4.694   6.611 -4.3987 -2.0134 -0.2307
  265MOL0     H35755   4.336   4.289   7.034 -2.2685  1.2561 -1.2389
  265MOL0     H35756   4.102   4.301   7.115 -0.4693  1.8032  0.8579
  265MOL0     H35757   3.741   4.368   7.281 -0.3828  1.6118  0.9867
  265MOL0     H35758   3.514   4.383   7.334 -1.8301 -2.5910 -1.1230
  265MOL0     H35759   1.917   5.167   7.284 -2.8653  1.2604  0.1104
  265MOL0     H35760   1.715   5.071   7.226 -2.1268  2.2557  1.3179
  265MOL0     H35761   1.290   4.645   7.485  3.0730  1.1326 -0.6814
  265MOL0     H35762   1.081   4.584   7.384 -0.6939 -0.4952 -2.0035
  265MOL0     H35763   0.957   4.457   7.232 -0.9321 -2.6734 -0.6666
  265MOL0     H35764   1.081   4.429   7.112  2.0453  2.3376 -1.2336
  265MOL0     H35765   0.794   4.497   7.050  1.3998  1.9251  3.2672
  265MOL0     H35766   0.857   4.335   7.032 -0.3650  0.7677  0.1685
  265MOL0     H35767   1.041   4.433   6.881  0.8225  0.9074 -0.0488
  265MOL0     H35768   0.935   4.579   6.876  1.3428 -0.2111  0.0510
  265MOL0     H35769   0.811   4.318   6.789  0.0331 -0.4295 -1.3176
  265MOL0     H35770   0.774   4.483   6.758 -1.1757  0.4136 -0.5505
  265MOL0     H35771   1.091   4.403   6.477  0.3401 -0.5036 -0.7454
  265MOL0     H35772   1.182   4.792   7.030 -1.3583 -1.3563  0.2488
  265MOL0     H35773   1.319   4.968   7.032  1.3248  1.3286 -1.2765
  265MOL0     H35774   1.398   5.016   7.186 -5.5818 -0.0868  2.1073
  265MOL0     H35775   1.472   4.896   7.066 -1.5822 -1.4665  0.0160
  266MOL0     O35776   1.693   0.237   7.008  0.2236  0.2174 -0.1666
  266MOL0     C35777   1.649   0.265   6.898 -0.1568  0.1577 -0.0390
  266MOL0     O35778   1.724   0.291   6.792  0.1527  0.5237  0.2365
  266MOL0     C35779   1.854   0.255   6.785 -0.0928  0.5753 -0.9791
  266MOL0     C35780   1.911   0.150   6.861 -0.9617  0.5110  1.5131
  266MOL0     C35781   2.047   0.129   6.837  0.0547 -1.2362  0.3495
  266MOL0     C35782   2.124   0.209   6.747  0.6415  0.4678  0.0130
  266MOL0     O35783   2.249   0.192   6.718 -0.7567  0.4871  0.3087
  266MOL0     C35784   2.312   0.070   6.761 -0.1386  0.3461  0.2147
  266MOL0     C35785   2.438   0.051   6.680  0.3451 -0.3751  0.7789
  266MOL0     C35786   2.488  -0.096   6.701  0.0521 -1.1042 -1.0021
  266MOL0     C35787   2.634  -0.103   6.647  0.1569 -0.1851  0.1664
  266MOL0     C35788   2.712  -0.209   6.718 -0.9488 -0.4447  0.4272
  266MOL0     C35789   2.823  -0.275   6.630  0.4595 -0.3242 -0.7733
  266MOL0     C35790   2.848  -0.426   6.651 -0.1675 -0.3102 -0.0222
  266MOL0     C35791   2.960  -0.458   6.554  0.0391  0.1071 -0.7689
  266MOL0     N35792   3.028  -0.582   6.595 -0.4540  0.5439 -0.6823
  266MOL0     C35793   3.154  -0.621   6.549  0.5001  0.6152 -0.8501
  266MOL0     C35794   3.179  -0.748   6.610  0.0259  0.7396 -0.2288
  266MOL0     C35795   3.312  -0.819   6.583  0.4237  0.1973 -0.2427
  266MOL0     C35796   3.444  -0.743   6.635  1.4126 -0.2881 -0.3869
  266MOL0     C35797   3.562  -0.839   6.612 -0.3576 -0.3194 -0.5411
  266MOL0     C35798   3.584  -0.952   6.709 -0.8560  0.0512  0.1623
  266MOL0     O35799   3.685  -1.046   6.660  0.2073 -0.3169 -0.2787
  266MOL0     C35800   3.818  -1.033   6.695 -0.2484 -0.5399 -0.3518
  266MOL0     C35801   3.898  -1.137   6.641 -0.6690  0.3520 -0.8589
  266MOL0     C35802   4.035  -1.142   6.663  0.4526 -0.2630  0.3283
  266MOL0     C35803   4.091  -1.061   6.761 -0.2230  0.2187  0.2075
  266MOL0     C35804   4.230  -1.085   6.801 -0.5220 -0.0008 -0.3424
  266MOL0     O35805   4.290  -1.195   6.742  0.1681  0.6656 -0.3346
  266MOL0     C35806   4.424  -1.229   6.744 -0.7075 -0.1427  0.2768
  266MOL0     C35807   4.452  -1.340   6.660  0.0510  0.3488 -1.1981
  266MOL0     C35808   4.579  -1.392   6.647 -0.2909 -0.7570 -0.6073
  266MOL0     C35809   4.676  -1.331   6.721 -0.4222  0.4811  0.2152
  266MOL0     O35810   4.806  -1.373   6.712  0.4998  0.1306 -0.0867
  266MOL0     C35811   4.825  -1.487   6.802  0.9178 -0.7839 -0.0528
  266MOL0     C35812   4.974  -1.524   6.795 -0.4805 -0.2501  0.1447
  266MOL0     C35813   5.065  -1.407   6.831 -0.8512 -0.0302 -0.1941
  266MOL0     C35814   5.209  -1.455   6.878  0.2065  0.7678 -0.8436
  266MOL0     C35815   5.300  -1.335   6.905 -0.2989  0.2645  0.6917
  266MOL0     C35816   5.443  -1.371   6.899  0.1417  0.6617  0.6859
  266MOL0     C35817   5.545  -1.264   6.862  0.9493  0.5162  0.4292
  266MOL0     C35818   5.690  -1.306   6.900 -0.9566 -0.3715  0.0049
  266MOL0    Cl35819   5.804  -1.175   6.933  0.5983  0.6830 -0.1016
  266MOL0     C35820   4.650  -1.225   6.811  0.0323  0.2156  0.8058
  266MOL0     C35821   4.524  -1.171   6.818 -0.0625  0.7354  0.5881
  266MOL0     O35822   4.284  -1.011   6.877 -0.2579 -0.5380 -0.3583
  266MOL0     C35823   4.010  -0.975   6.837  0.0873 -0.2227  0.1243
  266MOL0     C35824   3.868  -0.970   6.814 -0.6711 -0.7027  0.4276
  266MOL0     N35825   3.074  -0.767   6.706  0.3962 -0.1915  0.3315
  266MOL0     N35826   2.981  -0.678   6.683 -0.3971 -0.7013 -0.0953
  266MOL0     C35827   2.057   0.305   6.675  0.0182  0.0115  1.2774
  266MOL0     C35828   1.923   0.337   6.695  0.5264  0.2409 -0.8869
  266MOL0     C35829   1.506   0.310   6.883 -0.4282  0.2600 -0.5796
  266MOL0     C35830   1.475   0.428   6.813 -0.0472 -0.0277 -0.7995
  266MOL0     C35831   1.340   0.482   6.817  0.1960  0.6018 -0.0990
  266MOL0     C35832   1.233   0.417   6.881 -0.7702 -0.7665 -0.1259
  266MOL0     O35833   1.102   0.469   6.878 -0.4658  1.2675 -0.4687
  266MOL0     C35834   1.062   0.583   6.799 -0.1595 -0.4455  0.3740
  266MOL0     C35835   0.916   0.619   6.790 -0.2304  0.3741  0.1579
  266MOL0     C35836   0.840   0.515   6.695  0.1815  0.2597  0.0212
  266MOL0     C35837   0.689   0.549   6.688 -0.3028  0.8573  0.4820
  266MOL0     C35838   0.623   0.571   6.822 -0.0315 -0.6654  0.6496
  266MOL0     C35839   0.575   0.606   6.928 -0.6996 -0.4008  0.3341
  266MOL0     C35840   1.263   0.291   6.943  0.8278 -0.9917 -0.1403
  266MOL0     C35841   1.400   0.243   6.951 -0.3249  1.0160 -0.3731
  266MOL0     C35842   1.420   0.101   6.991  0.9692  0.5622 -0.8318
  266MOL0     H35843   1.854   0.082   6.923 -2.3266  0.2523  0.0397
  266MOL0     H35844   2.094   0.048   6.891 -1.0838 -0.8843  1.9558
  266MOL0     H35845   2.330   0.069   6.869  2.8452  0.2814 -0.1874
  266MOL0     H35846   2.243  -0.014   6.751 -1.7614  0.7985  4.9408
  266MOL0     H35847   2.509   0.128   6.714  0.3144  0.3728 -0.7840
  266MOL0     H35848   2.424   0.072   6.574 -1.1621 -0.0865  1.0195
  266MOL0     H35849   2.426  -0.167   6.645  0.4509 -2.0447 -0.2906
  266MOL0     H35850   2.481  -0.118   6.808 -1.3232 -1.7887 -1.2038
  266MOL0     H35851   2.626  -0.116   6.538 -0.3350 -1.2153  0.3201
  266MOL0     H35852   2.692  -0.011   6.662  0.4668 -0.5176  1.0100
  266MOL0     H35853   2.735  -0.188   6.823 -1.9404 -1.5658  0.8962
  266MOL0     H35854   2.634  -0.286   6.722  1.6837 -3.4501 -1.0050
  266MOL0     H35855   2.782  -0.269   6.529  0.3431  1.0114 -0.6665
  266MOL0     H35856   2.911  -0.210   6.635  0.7313 -0.6756 -0.9793
  266MOL0     H35857   2.762  -0.488   6.627 -1.6644  0.9712  1.7826
  266MOL0     H35858   2.880  -0.442   6.755 -1.0943  0.6064  0.4192
  266MOL0     H35859   2.919  -0.469   6.453 -0.6467 -1.3219 -0.3618
  266MOL0     H35860   3.037  -0.380   6.547 -0.1416  0.2178 -1.6026
  266MOL0     H35861   3.217  -0.559   6.486  0.5409  1.5173  0.0585
  266MOL0     H35862   3.310  -0.911   6.641 -3.4467 -1.0129 -1.9803
  266MOL0     H35863   3.311  -0.845   6.477  0.7523 -2.1355  0.2681
  266MOL0     H35864   3.464  -0.652   6.578  1.1432  0.4264  0.6474
  266MOL0     H35865   3.441  -0.713   6.740  1.8191 -3.1311  0.5410
  266MOL0     H35866   3.654  -0.781   6.622  0.6980 -2.3523  3.6660
  266MOL0     H35867   3.556  -0.882   6.512  1.6742  1.1547 -1.3692
  266MOL0     H35868   3.490  -1.004   6.729 -0.3365 -0.3532  1.7086
  266MOL0     H35869   3.625  -0.906   6.800  2.0721 -1.3983 -0.3047
  266MOL0     H35870   3.856  -1.204   6.567 -1.2487 -0.7136  0.3909
  266MOL0     H35871   4.082  -1.213   6.596  1.6541  1.3648 -0.6377
  266MOL0     H35872   4.365  -1.390   6.617 -1.8162  2.8233 -0.5447
  266MOL0     H35873   4.606  -1.479   6.589 -0.3116 -0.6412 -0.7927
  266MOL0     H35874   4.793  -1.462   6.904 -2.9036 -1.3866 -0.9457
  266MOL0     H35875   4.766  -1.570   6.762  0.6546 -0.6314  0.0158
  266MOL0     H35876   4.992  -1.587   6.883  2.3659 -1.1872 -0.9939
  266MOL0     H35877   5.008  -1.574   6.704  4.8983  0.2396  1.5238
  266MOL0     H35878   5.084  -1.351   6.739  1.2715 -1.2827 -0.5815
  266MOL0     H35879   5.011  -1.342   6.900 -0.8887  1.7458 -1.8229
  266MOL0     H35880   5.263  -1.519   6.807  2.0488 -0.8320  1.7901
  266MOL0     H35881   5.211  -1.522   6.965  0.8707 -0.0495 -1.4682
  266MOL0     H35882   5.269  -1.295   7.001 -0.1136  0.7015  0.5717
  266MOL0     H35883   5.281  -1.265   6.823  2.5836 -0.1543 -0.4365
  266MOL0     H35884   5.470  -1.413   6.997 -1.6140 -0.2354  0.8248
  266MOL0     H35885   5.452  -1.463   6.840 -0.2575  0.0687  1.5206
  266MOL0     H35886   5.503  -1.170   6.900 -1.5152  0.0803 -1.0022
  266MOL0     H35887   5.547  -1.245   6.754  1.4326 -1.3973  0.0730
  266MOL0     H35888   5.683  -1.358   6.996  0.6341 -1.4223 -0.4117
  266MOL0     H35889   5.717  -1.374   6.819 -0.7937  1.1723 -1.2753
  266MOL0     H35890   4.724  -1.169   6.867 -0.5643  1.9456 -0.0576
  266MOL0     H35891   4.512  -1.083   6.881  1.4592 -1.6066  4.5141
  266MOL0     H35892   4.055  -0.927   6.924 -1.8887 -0.1930  1.1799
  266MOL0     H35893   3.804  -0.910   6.879  2.1224  0.5080  2.3018
  266MOL0     H35894   2.107   0.358   6.595  0.5878  0.2141  1.7589
  266MOL0     H35895   1.884   0.422   6.641 -1.2843  0.3825  0.5520
  266MOL0     H35896   1.547   0.483   6.753  1.1250  0.1851  0.7435
  266MOL0     H35897   1.322   0.572   6.759  1.9675  0.0837 -1.5603
  266MOL0     H35898   1.108   0.583   6.700 -1.8611  0.8733 -0.4716
  266MOL0     H35899   1.089   0.671   6.859 -0.4880 -1.9598  2.8734
  266MOL0     H35900   0.904   0.718   6.746  0.6351  0.6095  0.4250
  266MOL0     H35901   0.870   0.614   6.889  1.2688 -0.3245  0.8592
  266MOL0     H35902   0.843   0.417   6.744 -0.3017 -0.0006 -0.4511
  266MOL0     H35903   0.890   0.515   6.597 -0.2669 -1.8110 -0.2647
  266MOL0     H35904   0.677   0.639   6.627 -1.8404 -0.0122 -0.5476
  266MOL0     H35905   0.636   0.468   6.637  0.7518  2.1213 -2.8867
  266MOL0     H35906   0.520   0.638   7.014  0.5058  2.3951  0.1779
  266MOL0     H35907   1.188   0.238   7.001 -2.7251  1.3006 -2.1981
  266MOL0     H35908   1.523   0.064   6.993  0.2411 -1.6553  1.3763
  266MOL0     H35909   1.381   0.089   7.093 -1.9683 -0.4313 -1.9585
  266MOL0     H35910   1.362   0.044   6.918  0.1574  0.4026 -0.0835
  267MOL0     O35911   2.333   8.592   8.413  0.1407 -0.1733  0.5985
  267MOL0     C35912   2.348   8.709   8.381 -0.4784 -0.3397 -0.0837
  267MOL0     O35913   2.469   8.764   8.348  0.5989 -0.1183 -0.1769
  267MOL0     C35914   2.578   8.686   8.357 -0.5347  0.4097 -0.5440
  267MOL0     C35915   2.613   8.602   8.249 -0.0540  0.2571  1.8024
  267MOL0     C35916   2.742   8.536   8.244 -0.7217  0.4585 -0.4136
  267MOL0     C35917   2.825   8.539   8.351 -0.6034  0.1035  0.5273
  267MOL0     O35918   2.948   8.473   8.351  0.4262  0.1391  0.4572
  267MOL0     C35919   2.982   8.394   8.239 -0.7816 -0.2973  0.2888
  267MOL0     C35920   3.106   8.323   8.270 -1.0695  0.1628 -0.1284
  267MOL0     C35921   3.222   8.427   8.296  0.0337  0.2633  0.0670
  267MOL0     C35922   3.349   8.350   8.321  1.2740 -0.2278  0.9436
  267MOL0     C35923   3.468   8.449   8.338 -0.6371 -0.4415  0.4404
  267MOL0     C35924   3.603   8.371   8.334  0.0377 -0.0661 -0.7847
  267MOL0     C35925   3.624   8.263   8.437 -0.2248 -0.3102 -0.8207
  267MOL0     C35926   3.608   8.327   8.586  0.0970  0.8130 -0.1288
  267MOL0     N35927   3.628   8.230   8.694 -0.4805 -0.1114 -0.5192
  267MOL0     C35928   3.546   8.114   8.710 -0.6483 -0.1266 -0.1015
  267MOL0     C35929   3.597   8.048   8.820  0.3904 -0.2375 -0.5946
  267MOL0     C35930   3.558   7.910   8.882 -0.0388 -0.0274  0.2060
  267MOL0     C35931   3.463   7.915   9.007 -0.7845 -0.0236 -0.5536
  267MOL0     C35932   3.329   7.990   8.993  0.3076  0.4403 -0.5910
  267MOL0     C35933   3.239   7.896   8.918  0.5203  0.1701  0.5646
  267MOL0     O35934   3.272   7.913   8.773 -0.1045 -0.3283 -0.3642
  267MOL0     C35935   3.171   7.912   8.683 -0.0591 -0.2328  0.3264
  267MOL0     C35936   3.175   7.982   8.564 -0.1419 -0.6697  0.5365
  267MOL0     C35937   3.074   7.959   8.468 -0.8525  0.5759 -0.2823
  267MOL0     C35938   2.968   7.863   8.489  0.1631  0.5842 -0.1791
  267MOL0     C35939   2.869   7.836   8.374  0.0682  0.1601 -0.1882
  267MOL0     O35940   2.900   7.898   8.261  0.2653  0.4441  1.7640
  267MOL0     C35941   2.841   7.844   8.152 -0.5822 -0.1841 -0.2422
  267MOL0     C35942   2.715   7.884   8.104 -0.3648 -0.1610  0.1679
  267MOL0     C35943   2.659   7.810   8.003 -0.7190 -0.1359  0.7573
  267MOL0     C35944   2.717   7.699   7.953 -0.2088  0.0608 -0.1156
  267MOL0     O35945   2.632   7.623   7.879 -0.2789  0.2172 -0.8887
  267MOL0     C35946   2.649   7.480   7.885 -0.3760 -0.5764  0.5500
  267MOL0     C35947   2.530   7.422   7.826 -0.0026 -0.4132 -0.2330
  267MOL0     C35948   2.525   7.459   7.667 -0.3810  0.5798 -0.2123
  267MOL0     C35949   2.403   7.401   7.606 -0.0530  0.4014  0.2424
  267MOL0     C35950   2.276   7.475   7.660  0.8851  0.2192  1.3737
  267MOL0     C35951   2.155   7.376   7.647  0.8582  0.7345 -0.4542
  267MOL0     C35952   2.143   7.252   7.747  0.7808  0.2700  0.2630
  267MOL0     C35953   2.133   7.303   7.886 -0.4976 -1.0457 -0.2570
  267MOL0    Cl35954   2.131   7.175   8.008  0.3764  0.3838  0.1643
  267MOL0     C35955   2.838   7.656   7.991 -0.2309 -0.3157  0.1414
  267MOL0     C35956   2.903   7.731   8.088 -0.8691 -0.7715 -0.0242
  267MOL0     O35957   2.780   7.761   8.392  0.0851  0.2766  0.1418
  267MOL0     C35958   2.964   7.796   8.611 -0.1937 -0.0435  0.1215
  267MOL0     C35959   3.062   7.825   8.709  0.1661  0.1269  0.4540
  267MOL0     N35960   3.709   8.124   8.866 -0.0068 -0.6036  0.7498
  267MOL0     N35961   3.722   8.230   8.793 -0.3110  0.6239 -0.9308
  267MOL0     C35962   2.790   8.623   8.456 -0.3064  0.4762  1.0077
  267MOL0     C35963   2.670   8.701   8.459  0.2823 -0.0876 -0.2067
  267MOL0     C35964   2.225   8.783   8.385  0.0548 -0.2159  0.1719
  267MOL0     C35965   2.239   8.926   8.387  0.2693  0.8491  0.6693
  267MOL0     C35966   2.124   9.005   8.405 -0.0148  0.0905 -0.5564
  267MOL0     C35967   1.991   8.951   8.406 -0.1448 -0.6764  0.1259
  267MOL0     O35968   1.884   9.036   8.404 -0.0359 -0.0829 -0.4978
  267MOL0     C35969   1.749   8.967   8.411  0.2306  0.1828  0.2635
  267MOL0     C35970   1.620   9.056   8.397 -0.6062 -0.1501  0.4686
  267MOL0     C35971   1.595   9.157   8.516 -0.0583  0.3964 -0.2899
  267MOL0     C35972   1.487   9.268   8.483 -0.9702  0.8417 -0.5488
  267MOL0     C35973   1.469   9.341   8.609 -0.1735 -0.7636  0.9415
  267MOL0     C35974   1.448   9.396   8.710 -0.1476  0.3777 -0.7398
  267MOL0     C35975   1.982   8.813   8.414  0.4620 -0.3149 -0.6248
  267MOL0     C35976   2.091   8.732   8.404 -0.6065  0.1556  0.4242
  267MOL0     C35977   2.058   8.588   8.376  0.0379 -0.5778 -0.7356
  267MOL0     H35978   2.555   8.603   8.158  0.1776 -0.8944  1.6272
  267MOL0     H35979   2.776   8.482   8.156  0.8035  0.5059  0.1186
  267MOL0     H35980   2.904   8.319   8.218 -3.1148  1.1673  2.9829
  267MOL0     H35981   3.008   8.453   8.151 -0.6081  0.0482  0.5670
  267MOL0     H35982   3.132   8.256   8.188  1.2001  2.2230 -1.2254
  267MOL0     H35983   3.096   8.272   8.367  2.5472  1.2341  0.9753
  267MOL0     H35984   3.201   8.483   8.388  2.9705 -0.3270  1.1834
  267MOL0     H35985   3.238   8.492   8.209  1.8869 -0.1204  0.0836
  267MOL0     H35986   3.339   8.296   8.416 -0.2053  0.1556  1.0288
  267MOL0     H35987   3.360   8.275   8.242  0.2251  0.3512  0.2225
  267MOL0     H35988   3.467   8.526   8.260  2.2451  0.0773  0.8160
  267MOL0     H35989   3.459   8.501   8.434  1.4876 -0.6575  0.7929
  267MOL0     H35990   3.611   8.332   8.233  0.9566  1.3057 -1.2772
  267MOL0     H35991   3.678   8.451   8.335 -2.3196  2.3242  0.6860
  267MOL0     H35992   3.722   8.220   8.416 -1.1743 -1.4228 -3.3522
  267MOL0     H35993   3.548   8.185   8.434 -0.0519 -0.8554  3.2745
  267MOL0     H35994   3.680   8.407   8.604  0.0351  0.6707  0.7681
  267MOL0     H35995   3.509   8.369   8.606  0.4637  0.4019  3.1069
  267MOL0     H35996   3.457   8.090   8.653 -0.5374  2.1058 -1.3044
  267MOL0     H35997   3.512   7.845   8.807 -0.0365 -0.7660  0.8311
  267MOL0     H35998   3.655   7.870   8.913 -0.8332 -0.5537  2.1463
  267MOL0     H35999   3.441   7.817   9.050  1.4701 -0.2332  0.2370
  267MOL0     H36000   3.520   7.966   9.085 -2.3561  0.6065  0.2134
  267MOL0     H36001   3.352   8.082   8.938 -0.6851  1.4727  0.6274
  267MOL0     H36002   3.289   8.008   9.094  2.1321  1.0718  0.0738
  267MOL0     H36003   3.133   7.912   8.942  0.6697 -0.1117  1.4522
  267MOL0     H36004   3.242   7.788   8.933  0.7086 -0.0122 -0.6662
  267MOL0     H36005   3.242   8.065   8.545  0.7889 -1.5887 -0.2874
  267MOL0     H36006   3.066   8.027   8.383 -0.2263  1.2513  0.1896
  267MOL0     H36007   2.657   7.966   8.147  2.1194  1.1999  1.1832
  267MOL0     H36008   2.555   7.830   7.980 -0.5747 -0.3276 -0.1091
  267MOL0     H36009   2.735   7.450   7.826 -0.9762 -0.3996 -0.4336
  267MOL0     H36010   2.657   7.450   7.990 -0.4319 -1.2826  0.3595
  267MOL0     H36011   2.536   7.314   7.834  0.6795 -0.2854  1.3238
  267MOL0     H36012   2.443   7.453   7.884  0.4801 -0.6490  0.6343
  267MOL0     H36013   2.545   7.565   7.646 -0.4376  0.5423 -0.4508
  267MOL0     H36014   2.603   7.400   7.619  1.2781  0.2209  2.6752
  267MOL0     H36015   2.397   7.297   7.640 -1.2643 -0.6814 -2.9032
  267MOL0     H36016   2.405   7.407   7.497 -3.9463 -1.1003 -0.0863
  267MOL0     H36017   2.261   7.568   7.605  0.3606 -1.7399 -2.0388
  267MOL0     H36018   2.285   7.513   7.762  0.5626 -0.8443  1.8184
  267MOL0     H36019   2.063   7.434   7.659  0.4134  0.4799 -2.3529
  267MOL0     H36020   2.165   7.342   7.544  3.9822  1.0901 -0.3596
  267MOL0     H36021   2.240   7.201   7.747  1.1766  0.9551 -0.8915
  267MOL0     H36022   2.064   7.183   7.718  1.0629  0.1905 -0.3439
  267MOL0     H36023   2.225   7.356   7.912  0.0559 -3.0521  2.3749
  267MOL0     H36024   2.043   7.365   7.889 -2.0659 -3.1931 -0.2407
  267MOL0     H36025   2.886   7.563   7.961  0.3310 -0.1544  0.5328
  267MOL0     H36026   3.002   7.708   8.126 -1.2920  0.5527  2.0196
  267MOL0     H36027   2.909   7.704   8.627  2.9689 -2.0202  0.6480
  267MOL0     H36028   3.046   7.772   8.802  1.9013  3.2172  2.7325
  267MOL0     H36029   2.857   8.646   8.538  0.9497  1.1149 -0.1619
  267MOL0     H36030   2.661   8.770   8.542 -1.0952  0.2993 -0.6496
  267MOL0     H36031   2.338   8.971   8.376 -0.3339  1.6341 -3.3881
  267MOL0     H36032   2.138   9.112   8.418 -1.3771  0.0172  2.2290
  267MOL0     H36033   1.744   8.930   8.514  1.4228  1.8183  0.9491
  267MOL0     H36034   1.745   8.887   8.336  1.6633  0.9715 -0.6905
  267MOL0     H36035   1.539   8.984   8.383 -1.1381  0.5351 -0.0801
  267MOL0     H36036   1.627   9.119   8.307 -0.4990 -1.3853 -0.4052
  267MOL0     H36037   1.687   9.193   8.563 -1.0992  1.0987  1.2880
  267MOL0     H36038   1.540   9.100   8.592 -1.2698  0.5536 -1.0182
  267MOL0     H36039   1.539   9.343   8.422  0.9451 -0.6080 -0.8026
  267MOL0     H36040   1.393   9.226   8.446  0.7428 -3.2218 -0.7698
  267MOL0     H36041   1.438   9.441   8.807 -0.3354  1.0484 -1.0620
  267MOL0     H36042   1.890   8.762   8.440 -0.2180  1.1513 -0.0636
  267MOL0     H36043   2.109   8.551   8.286  0.7102 -0.0793 -0.5677
  267MOL0     H36044   2.095   8.521   8.455 -0.4102  0.8715  0.7411
  267MOL0     H36045   1.950   8.580   8.368 -0.9956  4.9121  2.7812
  268MOL0     O36046  10.452   4.656   0.074 -0.3434  0.2044  0.1410
  268MOL0     C36047  10.378   4.728   0.006 -0.2123 -0.2820 -0.9907
  268MOL0     O36048  10.415   4.808  -0.097 -0.9992 -0.3311 -0.3511
  268MOL0     C36049  10.555   4.836  -0.104 -0.4439  0.0480  0.6523
  268MOL0     C36050  10.652   4.735  -0.108 -0.1852 -0.4169 -0.1282
  268MOL0     C36051  10.788   4.765  -0.145  0.1936  0.3413  0.7456
  268MOL0     C36052  10.822   4.896  -0.190 -0.1036 -0.4344  0.1294
  268MOL0     O36053  10.952   4.911  -0.217  0.3847  0.5281  0.4293
  268MOL0     C36054  11.022   5.037  -0.200 -0.5618  0.1650 -0.0548
  268MOL0     C36055  11.164   5.002  -0.167 -0.0608  0.2661  0.3084
  268MOL0     C36056  11.224   4.906  -0.275  1.0681 -0.4146 -1.4389
  268MOL0     C36057  11.368   4.938  -0.309 -0.3479 -0.2038  0.2751
  268MOL0     C36058  11.422   4.830  -0.408  0.1797  0.5875 -1.0217
  268MOL0     C36059  11.570   4.850  -0.437  0.0976  0.3705  0.2797
  268MOL0     C36060  11.633   4.732  -0.515  0.6066 -0.4741 -1.1418
  268MOL0     C36061  11.636   4.592  -0.443  0.6526 -1.6274  0.3677
  268MOL0     N36062  11.758   4.591  -0.355  0.4035  0.6876 -0.1981
  268MOL0     C36063  11.753   4.604  -0.221 -0.3386 -0.4459  0.1729
  268MOL0     C36064  11.878   4.595  -0.181  0.0927 -0.8472  0.2429
  268MOL0     C36065  11.915   4.617  -0.028  0.4025 -0.4031  0.4708
  268MOL0     C36066  12.044   4.697  -0.001  0.3444 -0.5666 -0.4660
  268MOL0     C36067  12.059   4.675   0.152  0.1103  0.5241 -0.1580
  268MOL0     C36068  12.206   4.688   0.191  0.0109  0.2290 -0.0773
  268MOL0     O36069  12.232   4.827   0.169 -0.5938  0.0027  0.0079
  268MOL0     C36070  12.318   4.898   0.260  0.0037  0.0513 -0.0370
  268MOL0     C36071  12.386   4.837   0.374  0.2783  0.5700 -0.1244
  268MOL0     C36072  12.479   4.907   0.452  0.2956 -0.3269  0.2487
  268MOL0     C36073  12.488   5.052   0.435 -0.0591  0.0544  0.2308
  268MOL0     C36074  12.574   5.140   0.513 -0.0829 -0.3981 -0.3128
  268MOL0     O36075  12.547   5.268   0.498 -0.0522  0.7410 -1.1100
  268MOL0     C36076  12.614   5.361   0.572  0.0844 -0.3400 -0.0704
  268MOL0     C36077  12.657   5.348   0.701  0.1196  0.4599 -0.2036
  268MOL0     C36078  12.705   5.452   0.775  0.7424 -0.6563  0.1916
  268MOL0     C36079  12.724   5.579   0.714 -1.1973  0.7731  0.8111
  268MOL0     O36080  12.780   5.676   0.787 -0.4893 -0.2433  0.1222
  268MOL0     C36081  12.918   5.651   0.839  0.2384  0.0053  0.3405
  268MOL0     C36082  13.007   5.628   0.718  0.0611  0.4734 -0.0897
  268MOL0     C36083  13.138   5.710   0.736 -0.3897  0.8988 -0.7538
  268MOL0     C36084  13.238   5.675   0.626 -0.1675  0.3996  0.4866
  268MOL0     C36085  13.373   5.749   0.648  0.4646 -0.3019  0.7993
  268MOL0     C36086  13.451   5.713   0.524  0.3773 -0.5107  0.3186
  268MOL0     C36087  13.575   5.811   0.506 -0.0588  1.0650 -0.0809
  268MOL0     C36088  13.673   5.801   0.624  0.0616 -0.0412 -0.7375
  268MOL0    Cl36089  13.857   5.815   0.574  0.1126  0.2164  0.1463
  268MOL0     C36090  12.684   5.601   0.578 -0.6662 -0.2878 -0.1286
  268MOL0     C36091  12.624   5.493   0.510  0.6038 -0.0122  0.4925
  268MOL0     O36092  12.668   5.094   0.572 -0.2208 -0.2332 -0.0367
  268MOL0     C36093  12.406   5.101   0.327 -0.8193 -0.6814  0.1390
  268MOL0     C36094  12.315   5.034   0.250  0.5649  0.0966 -0.3282
  268MOL0     N36095  11.960   4.589  -0.294 -0.3224  0.3026  0.3575
  268MOL0     N36096  11.885   4.578  -0.395 -0.5746  0.5845  0.1370
  268MOL0     C36097  10.721   4.994  -0.201 -0.2516 -1.0874 -0.5811
  268MOL0     C36098  10.593   4.961  -0.153 -0.3225  0.7284 -0.0352
  268MOL0     C36099  10.240   4.751   0.063  0.0030 -1.0702 -0.0938
  268MOL0     C36100  10.189   4.886   0.066 -0.1764  0.6223 -1.3948
  268MOL0     C36101  10.062   4.911   0.119  0.0052  0.0285 -0.6030
  268MOL0     C36102   9.975   4.804   0.149 -0.0226  0.0142  0.5359
  268MOL0     O36103   9.856   4.826   0.204 -0.5061 -0.2006 -0.2511
  268MOL0     C36104   9.754   4.892   0.120 -0.2206  0.9636 -0.3970
  268MOL0     C36105   9.653   4.962   0.206 -0.2665 -0.0084  0.1950
  268MOL0     C36106   9.604   4.870   0.320 -0.9981  0.0242 -0.0280
  268MOL0     C36107   9.483   4.929   0.390  0.2938 -0.8174 -0.2630
  268MOL0     C36108   9.510   5.062   0.436 -0.8806 -0.3844 -0.5204
  268MOL0     C36109   9.524   5.173   0.473  0.6525  0.0650 -1.0632
  268MOL0     C36110  10.026   4.672   0.134  0.9501 -0.4313 -0.2351
  268MOL0     C36111  10.152   4.645   0.094 -0.9141  0.4725  0.7654
  268MOL0     C36112  10.180   4.503   0.094 -0.2864  0.2409  0.7327
  268MOL0     H36113  10.621   4.634  -0.082  1.1697 -0.3837  1.7934
  268MOL0     H36114  10.857   4.682  -0.152  1.0190  1.0855 -0.5568
  268MOL0     H36115  11.014   5.094  -0.294 -0.0787  1.1022  0.4498
  268MOL0     H36116  10.969   5.091  -0.121 -1.2542 -1.4776  0.6410
  268MOL0     H36117  11.166   4.957  -0.068 -1.3652 -1.2088 -0.3029
  268MOL0     H36118  11.228   5.091  -0.167  0.0504  0.1906 -0.0937
  268MOL0     H36119  11.167   4.911  -0.368 -0.5137  1.7996 -0.4388
  268MOL0     H36120  11.219   4.807  -0.228 -1.9628 -0.9427 -2.6258
  268MOL0     H36121  11.367   5.031  -0.367 -0.1521  0.6610  1.5958
  268MOL0     H36122  11.435   4.952  -0.224  0.0300 -1.9577  0.2986
  268MOL0     H36123  11.394   4.731  -0.371 -0.9900  0.6300 -1.7413
  268MOL0     H36124  11.371   4.838  -0.505  1.6994  2.0146 -1.7573
  268MOL0     H36125  11.584   4.937  -0.502 -0.2840  0.4688  0.3241
  268MOL0     H36126  11.618   4.876  -0.342  0.3190 -1.4307  0.7034
  268MOL0     H36127  11.735   4.765  -0.541  0.2476  1.8376  0.1777
  268MOL0     H36128  11.559   4.712  -0.593 -2.8196  1.8195  1.2690
  268MOL0     H36129  11.552   4.577  -0.374  1.3532  2.0503  2.2830
  268MOL0     H36130  11.638   4.508  -0.513  1.3907 -1.2495 -0.0788
  268MOL0     H36131  11.664   4.614  -0.160 -0.0893 -1.2988  0.6950
  268MOL0     H36132  11.833   4.678   0.010 -1.0273 -0.1422 -2.7468
  268MOL0     H36133  11.917   4.516   0.015 -2.5301 -0.4985  0.5638
  268MOL0     H36134  12.132   4.658  -0.053  0.8855 -2.8466  1.9561
  268MOL0     H36135  12.043   4.804  -0.025  2.0716 -0.8525 -2.0457
  268MOL0     H36136  12.017   4.577   0.175 -4.4554  2.1165 -0.7323
  268MOL0     H36137  12.000   4.752   0.203  0.8142  1.4224 -0.6658
  268MOL0     H36138  12.274   4.626   0.132  0.4191  0.3246  0.2807
  268MOL0     H36139  12.213   4.653   0.295 -0.6925 -0.3575 -0.2230
  268MOL0     H36140  12.370   4.732   0.400  1.0384  0.8612  1.6759
  268MOL0     H36141  12.540   4.863   0.530  0.1924 -1.3914 -0.2666
  268MOL0     H36142  12.642   5.254   0.754 -1.1280  0.0508 -1.2336
  268MOL0     H36143  12.727   5.437   0.880  1.9411 -5.9000 -0.5084
  268MOL0     H36144  12.941   5.741   0.896  0.8986  0.4719 -0.6521
  268MOL0     H36145  12.918   5.567   0.910 -1.5414 -0.0567  0.3226
  268MOL0     H36146  13.038   5.523   0.716  1.2087  0.7621  1.1532
  268MOL0     H36147  12.956   5.651   0.624 -2.5905  3.0638  1.8006
  268MOL0     H36148  13.113   5.817   0.746 -1.3767  0.8561 -2.4376
  268MOL0     H36149  13.189   5.680   0.828 -2.5887 -1.9456 -0.3337
  268MOL0     H36150  13.194   5.699   0.529  0.3970  2.8636  0.7937
  268MOL0     H36151  13.254   5.566   0.627  3.3307  0.8094  0.3335
  268MOL0     H36152  13.431   5.707   0.731  0.8789  2.5711  2.0910
  268MOL0     H36153  13.373   5.858   0.650  4.3876 -0.1797  2.2988
  268MOL0     H36154  13.481   5.607   0.527 -0.2647 -0.6649  2.5784
  268MOL0     H36155  13.388   5.718   0.434 -0.4666 -1.6581  0.8285
  268MOL0     H36156  13.555   5.915   0.480  2.9816  1.4411 -1.3561
  268MOL0     H36157  13.632   5.774   0.420 -0.7330  1.1171 -0.5594
  268MOL0     H36158  13.654   5.877   0.700 -0.0486  0.0414 -0.8480
  268MOL0     H36159  13.655   5.703   0.670 -1.7738 -0.0063 -1.3244
  268MOL0     H36160  12.703   5.698   0.534 -0.8091 -1.2190 -2.4248
  268MOL0     H36161  12.577   5.510   0.414  0.7574 -1.7233  0.0791
  268MOL0     H36162  12.402   5.209   0.317  0.6720 -0.3825  2.2984
  268MOL0     H36163  12.256   5.086   0.175  0.9511  4.1099  1.8599
  268MOL0     H36164  10.736   5.093  -0.244 -2.1035  0.0619  1.2444
  268MOL0     H36165  10.529   5.048  -0.168 -1.7699 -0.6193 -2.5057
  268MOL0     H36166  10.254   4.971   0.047  1.6858  0.1182  1.8375
  268MOL0     H36167  10.026   5.011   0.140 -0.4636  0.1414 -1.8212
  268MOL0     H36168   9.711   4.808   0.065  1.9767  0.6714 -1.8178
  268MOL0     H36169   9.804   4.960   0.050  1.5865 -0.3747 -0.4894
  268MOL0     H36170   9.566   4.982   0.144 -0.0975  2.5884  0.6890
  268MOL0     H36171   9.694   5.059   0.232  1.2957 -0.4628 -0.4505
  268MOL0     H36172   9.683   4.851   0.394 -0.4242  1.1419 -0.3178
  268MOL0     H36173   9.565   4.777   0.279 -2.1590  0.4796 -0.0168
  268MOL0     H36174   9.405   4.941   0.315 -1.3668  3.4263  1.7971
  268MOL0     H36175   9.450   4.870   0.476  2.7967  1.1584  2.2700
  268MOL0     H36176   9.556   5.262   0.525 -1.7953  1.7848 -2.2731
  268MOL0     H36177   9.956   4.592   0.156 -0.0885 -0.1135 -2.1304
  268MOL0     H36178  10.121   4.459   0.175  0.0304 -0.4742  0.5825
  268MOL0     H36179  10.136   4.464   0.002 -0.9103  0.2724  1.0111
  268MOL0     H36180  10.282   4.471   0.116  0.8806  1.5884 -2.1418
  269MOL0     O36181   4.205   8.154   5.596 -0.7575  0.9152  0.3488
  269MOL0     C36182   4.199   8.031   5.611 -0.3827 -0.0233  0.0978
  269MOL0     O36183   4.302   7.945   5.619 -0.3622  0.0338  0.1539
  269MOL0     C36184   4.427   8.002   5.605 -1.1252  0.6346  0.8480
  269MOL0     C36185   4.505   7.966   5.494  0.1103  0.2862  0.1450
  269MOL0     C36186   4.643   7.989   5.486 -0.5777 -0.4608  0.9035
  269MOL0     C36187   4.711   8.054   5.586 -0.0799 -0.6051  0.2446
  269MOL0     O36188   4.844   8.094   5.563  0.9134 -0.2073 -0.1259
  269MOL0     C36189   4.943   8.093   5.668  0.7454 -0.1048  0.3727
  269MOL0     C36190   5.081   8.057   5.614 -0.2761  0.5080  0.9223
  269MOL0     C36191   5.093   7.909   5.557 -0.2838  0.1958  0.0380
  269MOL0     C36192   5.202   7.870   5.457  0.7693 -0.2828  0.1276
  269MOL0     C36193   5.345   7.881   5.515  0.4979 -1.0559 -0.4537
  269MOL0     C36194   5.440   7.868   5.398 -1.2481  0.1360 -0.1246
  269MOL0     C36195   5.587   7.840   5.454  0.3190  0.1069 -0.2423
  269MOL0     C36196   5.683   7.862   5.341 -1.2327  0.1049  0.8774
  269MOL0     N36197   5.821   7.829   5.381 -0.0321 -0.1724 -0.3691
  269MOL0     C36198   5.910   7.901   5.459 -0.3565  0.7485 -0.0436
  269MOL0     C36199   6.002   7.818   5.500 -0.0553  0.2580  0.2107
  269MOL0     C36200   6.121   7.867   5.584 -0.9242 -0.4710 -0.3268
  269MOL0     C36201   6.236   7.925   5.493  0.0874 -0.5253 -0.5242
  269MOL0     C36202   6.357   7.968   5.579 -0.1895 -0.1580  0.4058
  269MOL0     C36203   6.483   8.006   5.495 -0.4309 -0.3020  0.1388
  269MOL0     O36204   6.598   8.022   5.587  0.1457 -0.3978 -0.1268
  269MOL0     C36205   6.723   8.028   5.530  0.3900  1.0855  0.5753
  269MOL0     C36206   6.831   8.000   5.617 -0.5956 -0.8687 -0.1447
  269MOL0     C36207   6.966   8.014   5.575  0.1306  0.4276 -0.2110
  269MOL0     C36208   6.992   8.033   5.430 -0.1187 -0.2441 -0.2871
  269MOL0     C36209   7.133   8.041   5.380  0.7218  0.5451  0.3455
  269MOL0     O36210   7.222   8.005   5.465 -0.5623  0.1545 -0.8454
  269MOL0     C36211   7.354   7.988   5.429  0.8717 -0.5839 -0.5552
  269MOL0     C36212   7.449   8.077   5.387  0.2774  0.9670  0.0157
  269MOL0     C36213   7.582   8.044   5.362 -0.2433  0.2118 -0.5473
  269MOL0     C36214   7.632   7.916   5.362 -1.1250 -0.3094  0.5915
  269MOL0     O36215   7.751   7.867   5.328 -0.6415 -0.8037 -0.6445
  269MOL0     C36216   7.854   7.959   5.269 -0.0584 -0.2149 -0.5820
  269MOL0     C36217   7.960   7.859   5.207 -0.0476 -0.1186  0.9392
  269MOL0     C36218   8.068   7.927   5.132  0.5825 -0.6620  0.0728
  269MOL0     C36219   8.148   7.828   5.038 -0.5233 -0.3356 -0.4589
  269MOL0     C36220   8.118   7.841   4.886  0.8868  0.2386  0.1766
  269MOL0     C36221   8.229   7.782   4.804 -0.4162 -0.2093 -0.0129
  269MOL0     C36222   8.186   7.778   4.659 -0.1575 -1.1704 -0.5464
  269MOL0     C36223   8.279   7.704   4.567 -0.3864 -0.4697 -0.4884
  269MOL0    Cl36224   8.423   7.816   4.554 -0.2461  0.1112  0.0830
  269MOL0     C36225   7.536   7.816   5.388  0.0648 -0.8099 -0.8868
  269MOL0     C36226   7.409   7.858   5.438  0.6859 -0.4341  0.6957
  269MOL0     O36227   7.158   8.085   5.268 -0.3183 -0.1585  0.3705
  269MOL0     C36228   6.884   8.049   5.344 -0.4110  0.4745 -0.4406
  269MOL0     C36229   6.752   8.046   5.394  0.1530 -0.4072 -0.0845
  269MOL0     N36230   5.979   7.701   5.431  0.2823 -0.1184  0.3542
  269MOL0     N36231   5.872   7.707   5.359 -0.0553  0.0289 -0.3314
  269MOL0     C36232   4.640   8.083   5.700 -0.2907 -0.8222  0.1510
  269MOL0     C36233   4.504   8.054   5.710 -0.4231 -0.3458 -0.6989
  269MOL0     C36234   4.069   7.980   5.644 -0.6840  0.3407  0.7170
  269MOL0     C36235   4.049   7.844   5.614 -0.0165 -0.1636  0.8516
  269MOL0     C36236   3.935   7.768   5.649 -0.3454  0.2850 -0.6235
  269MOL0     C36237   3.832   7.838   5.705  0.8469 -0.6425  0.0082
  269MOL0     O36238   3.707   7.795   5.734  0.8489 -0.2880 -0.1270
  269MOL0     C36239   3.696   7.658   5.781 -0.7642 -0.1304  0.7380
  269MOL0     C36240   3.563   7.643   5.857  0.1264 -0.4276 -0.0617
  269MOL0     C36241   3.559   7.728   5.985  0.1532  0.8672 -1.0863
  269MOL0     C36242   3.441   7.684   6.072 -0.1555 -0.0110 -0.0460
  269MOL0     C36243   3.472   7.716   6.209 -0.0138 -0.2992  0.0303
  269MOL0     C36244   3.496   7.765   6.318  0.3530 -0.7099  0.3721
  269MOL0     C36245   3.853   7.976   5.747  0.1241  0.0789 -1.1575
  269MOL0     C36246   3.967   8.054   5.714  0.4622  0.4173  0.0329
  269MOL0     C36247   3.969   8.204   5.748  0.6265  1.2180  0.5579
  269MOL0     H36248   4.465   7.907   5.413  0.0715  0.5106 -0.0008
  269MOL0     H36249   4.698   7.959   5.397 -3.0607  0.7896 -1.1928
  269MOL0     H36250   4.941   8.190   5.720 -1.4205 -0.2982  0.7526
  269MOL0     H36251   4.924   8.018   5.746 -0.5075 -2.1718 -1.8089
  269MOL0     H36252   5.158   8.080   5.688  0.6386 -0.4105  0.2867
  269MOL0     H36253   5.101   8.117   5.526  2.5199  0.4415  1.4229
  269MOL0     H36254   4.997   7.880   5.513 -0.7787  0.5094  0.8991
  269MOL0     H36255   5.105   7.850   5.648 -1.3948  2.0089  1.4201
  269MOL0     H36256   5.181   7.770   5.419 -0.8380  1.0891 -2.8774
  269MOL0     H36257   5.185   7.938   5.373 -2.3807  1.0419  1.6712
  269MOL0     H36258   5.354   7.982   5.557 -0.6409 -0.4313 -1.6292
  269MOL0     H36259   5.366   7.806   5.592  1.9720 -1.1655 -0.9256
  269MOL0     H36260   5.428   7.779   5.336  1.5382  0.2536 -0.9797
  269MOL0     H36261   5.440   7.959   5.338 -0.4148  1.0502  1.2086
  269MOL0     H36262   5.592   7.740   5.498  2.3869  0.8105  1.2693
  269MOL0     H36263   5.611   7.916   5.529 -2.1969  1.0574 -0.2859
  269MOL0     H36264   5.661   7.796   5.257 -0.9464  1.1201 -0.0198
  269MOL0     H36265   5.679   7.967   5.309  1.1477  0.5310  1.7821
  269MOL0     H36266   5.911   8.008   5.476 -1.1602  1.5125 -4.0073
  269MOL0     H36267   6.086   7.935   5.662 -2.8359 -1.6246 -0.1333
  269MOL0     H36268   6.171   7.786   5.638  0.7730  0.9956  0.4376
  269MOL0     H36269   6.275   7.841   5.435  2.9362  0.7639 -0.6338
  269MOL0     H36270   6.200   8.002   5.423 -0.0029 -1.1591 -1.1852
  269MOL0     H36271   6.384   7.895   5.655  1.4054 -0.6096 -0.5400
  269MOL0     H36272   6.330   8.051   5.644 -1.4276  0.3844 -0.7409
  269MOL0     H36273   6.452   8.101   5.451 -1.5357 -0.8306 -0.2882
  269MOL0     H36274   6.489   7.924   5.422 -1.7807 -0.3835  0.0872
  269MOL0     H36275   6.806   7.984   5.722 -0.1794  0.7146  0.2237
  269MOL0     H36276   7.043   7.994   5.650 -0.5177  0.2635  0.4178
  269MOL0     H36277   7.436   8.185   5.384  1.3162  1.0817 -1.4508
  269MOL0     H36278   7.641   8.131   5.337  0.6352 -0.1326  0.2581
  269MOL0     H36279   7.809   8.027   5.196  1.0231  2.7796  1.3776
  269MOL0     H36280   7.912   8.011   5.345  1.3231 -2.2694 -0.1565
  269MOL0     H36281   8.002   7.780   5.270  3.3035  0.6500 -0.1203
  269MOL0     H36282   7.918   7.799   5.126 -0.6126 -0.2689  1.3371
  269MOL0     H36283   8.011   7.994   5.067 -0.4643  0.2490  1.8487
  269MOL0     H36284   8.136   7.985   5.196 -0.2913  0.1885  0.2478
  269MOL0     H36285   8.129   7.731   5.084 -1.9219  1.5753  3.4081
  269MOL0     H36286   8.252   7.860   5.045 -1.7607  5.4554 -2.9696
  269MOL0     H36287   8.096   7.939   4.843  2.7598  0.3876 -0.5411
  269MOL0     H36288   8.027   7.784   4.866  0.6969  1.1812 -1.9001
  269MOL0     H36289   8.316   7.847   4.814 -0.7162 -0.0387  1.8043
  269MOL0     H36290   8.252   7.683   4.844  3.4071  0.0503 -1.1686
  269MOL0     H36291   8.160   7.874   4.612 -1.8782 -0.4868  1.6363
  269MOL0     H36292   8.098   7.717   4.639 -2.9021  3.5311 -5.7754
  269MOL0     H36293   8.296   7.601   4.599 -1.1930  0.2165  2.4611
  269MOL0     H36294   8.232   7.700   4.468 -0.7844 -0.0906 -0.3188
  269MOL0     H36295   7.561   7.711   5.395  1.2290 -0.4494  1.0992
  269MOL0     H36296   7.343   7.776   5.465 -0.8294  0.0673 -1.3435
  269MOL0     H36297   6.905   8.067   5.239  1.1138 -0.4913 -0.3378
  269MOL0     H36298   6.670   8.050   5.323 -2.4965 -0.6816  2.7725
  269MOL0     H36299   4.686   8.150   5.771  1.1880 -0.1631 -1.3468
  269MOL0     H36300   4.446   8.081   5.798  2.4853  2.4193  0.5802
  269MOL0     H36301   4.128   7.787   5.565  0.3184  0.0230  1.1759
  269MOL0     H36302   3.940   7.659   5.645 -1.8709  0.1296  0.6472
  269MOL0     H36303   3.789   7.626   5.828  0.5284  0.9850 -0.9630
  269MOL0     H36304   3.685   7.596   5.692  0.6498 -1.6722  1.5919
  269MOL0     H36305   3.552   7.538   5.885 -0.2237 -0.5017 -0.4605
  269MOL0     H36306   3.480   7.682   5.797  0.7190  1.3623  0.2430
  269MOL0     H36307   3.538   7.832   5.962  0.1492  1.3583  0.9209
  269MOL0     H36308   3.655   7.716   6.036 -0.2002 -1.0965 -0.8002
  269MOL0     H36309   3.342   7.725   6.050  0.0559  1.0737  0.8965
  269MOL0     H36310   3.440   7.575   6.069 -3.1712 -0.0564 -0.9399
  269MOL0     H36311   3.530   7.801   6.413  0.4345  0.3285 -0.0314
  269MOL0     H36312   3.773   8.027   5.799  1.0781  1.9300 -1.4254
  269MOL0     H36313   4.068   8.238   5.781  1.3029 -1.9916  2.2443
  269MOL0     H36314   3.943   8.258   5.657  1.4590  0.4537 -0.1446
  269MOL0     H36315   3.905   8.224   5.835 -0.7620  0.3763 -0.2549
  270MOL0     O36316   1.057   9.163   4.995  0.5368 -0.5026 -0.3256
  270MOL0     C36317   0.960   9.171   4.914 -0.9072  0.0816  0.5020
  270MOL0     O36318   0.958   9.255   4.800 -0.3280  0.3075 -0.0925
  270MOL0     C36319   1.066   9.337   4.774  0.7426  1.0867 -0.0084
  270MOL0     C36320   1.054   9.461   4.814 -0.0232  0.4020  0.7653
  270MOL0     C36321   1.155   9.557   4.798  0.0780 -0.7050 -0.1653
  270MOL0     C36322   1.275   9.526   4.733 -0.5556 -0.4358  0.0444
  270MOL0     O36323   1.384   9.611   4.699  0.8148  0.3275  0.2583
  270MOL0     C36324   1.367   9.747   4.742  0.5638 -0.2313 -0.0983
  270MOL0     C36325   1.490   9.830   4.697  0.4659  0.7795  0.1066
  270MOL0     C36326   1.624   9.752   4.706 -0.0756 -0.0651  0.1484
  270MOL0     C36327   1.735   9.865   4.676  1.4997  0.0442 -0.0600
  270MOL0     C36328   1.877   9.827   4.723  0.8918 -0.2708 -0.5184
  270MOL0     C36329   1.929   9.699   4.661 -0.3997 -0.1740  0.5760
  270MOL0     C36330   1.952   9.709   4.506  0.3420  0.3030  0.2305
  270MOL0     C36331   1.985   9.570   4.451 -0.2433 -0.2974  0.0474
  270MOL0     N36332   2.085   9.587   4.341  0.7066  0.6666  0.5423
  270MOL0     C36333   2.214   9.584   4.368 -0.2685  0.1422  1.0184
  270MOL0     C36334   2.276   9.607   4.247 -0.0546  0.3162  0.3238
  270MOL0     C36335   2.423   9.617   4.226 -0.1312 -0.9413 -0.5600
  270MOL0     C36336   2.477   9.756   4.245  0.1242 -0.0113 -0.8953
  270MOL0     C36337   2.596   9.796   4.159 -0.4555  0.0514 -0.3699
  270MOL0     C36338   2.713   9.704   4.176  0.4521  0.1060 -0.5410
  270MOL0     O36339   2.807   9.741   4.075  0.2128 -0.2555  0.5596
  270MOL0     C36340   2.942   9.722   4.102 -0.0276 -0.1519  0.3983
  270MOL0     C36341   3.004   9.671   4.221 -0.1511  0.4301 -0.2203
  270MOL0     C36342   3.141   9.653   4.234  1.5408  0.0271  0.4076
  270MOL0     C36343   3.224   9.659   4.118  0.4291 -0.1413  0.4892
  270MOL0     C36344   3.371   9.639   4.129 -0.6678  0.0238  0.0338
  270MOL0     O36345   3.436   9.672   4.242  0.5886  0.2584 -0.7983
  270MOL0     C36346   3.574   9.685   4.256  0.4532  0.4980 -0.7249
  270MOL0     C36347   3.674   9.690   4.152 -0.1248  0.9049  0.4412
  270MOL0     C36348   3.811   9.670   4.172 -0.0205 -0.3736  0.1545
  270MOL0     C36349   3.856   9.658   4.307 -0.0348 -0.1554 -0.4747
  270MOL0     O36350   3.991   9.671   4.324 -0.0714  0.4213 -0.3179
  270MOL0     C36351   4.035   9.725   4.454  0.1882 -0.8084  0.0469
  270MOL0     C36352   4.188   9.755   4.446 -0.0173  0.1848  0.1816
  270MOL0     C36353   4.218   9.859   4.331  0.7451 -0.0832 -0.0810
  270MOL0     C36354   4.373   9.885   4.321 -0.3538 -0.3834  0.5431
  270MOL0     C36355   4.465   9.773   4.267 -0.2732  0.3719  0.6982
  270MOL0     C36356   4.614   9.806   4.259 -0.1755  0.9853 -0.9287
  270MOL0     C36357   4.688   9.704   4.164  0.5584  0.1324 -0.2876
  270MOL0     C36358   4.836   9.720   4.173  0.7165  0.7106 -0.1561
  270MOL0    Cl36359   4.892   9.869   4.104  0.4352  0.4159 -0.0689
  270MOL0     C36360   3.758   9.661   4.407  0.3614 -0.3162 -0.0203
  270MOL0     C36361   3.620   9.679   4.383 -0.2633 -0.2427  0.2285
  270MOL0     O36362   3.424   9.620   4.019  0.4090 -0.2572 -0.5267
  270MOL0     C36363   3.163   9.702   4.001 -0.2077  0.5473 -1.1228
  270MOL0     C36364   3.022   9.733   3.995 -0.4273 -0.8783 -0.2145
  270MOL0     N36365   2.186   9.635   4.144  0.1335  0.4991  0.1875
  270MOL0     N36366   2.072   9.612   4.205  0.5183 -1.0259 -0.3695
  270MOL0     C36367   1.284   9.392   4.702 -0.1450  0.1011 -0.1975
  270MOL0     C36368   1.187   9.291   4.722  0.1186 -0.9135 -0.0953
  270MOL0     C36369   0.840   9.091   4.946 -0.6237 -0.1623 -0.8405
  270MOL0     C36370   0.846   9.002   5.062 -0.5273 -0.5907  0.0118
  270MOL0     C36371   0.741   8.924   5.084  0.0888  0.0314  1.2120
  270MOL0     C36372   0.626   8.925   5.000  0.7044  0.4552  0.0426
  270MOL0     O36373   0.538   8.822   5.036 -0.2301  0.1493  1.1129
  270MOL0     C36374   0.403   8.807   4.986  0.1270  0.5308  0.4524
  270MOL0     C36375   0.312   8.919   5.037  0.1109 -0.5091 -0.6160
  270MOL0     C36376   0.332   8.953   5.190  0.2477 -0.7445  0.6231
  270MOL0     C36377   0.274   8.846   5.281  0.2105  0.8355 -0.2548
  270MOL0     C36378   0.126   8.839   5.270 -1.0186  0.1809  0.9899
  270MOL0     C36379   0.007   8.857   5.280  0.6157 -0.3873 -0.1599
  270MOL0     C36380   0.612   9.019   4.899 -0.2486  0.5644  1.5820
  270MOL0     C36381   0.721   9.104   4.869 -0.4838  0.3778 -0.1362
  270MOL0     C36382   0.692   9.208   4.763 -0.1626 -0.2005  0.0241
  270MOL0     H36383   0.959   9.494   4.855 -0.5041  0.5674 -0.4412
  270MOL0     H36384   1.131   9.660   4.822  1.2658 -0.0463 -1.6531
  270MOL0     H36385   1.274   9.787   4.701 -0.2199 -0.4725  1.3702
  270MOL0     H36386   1.371   9.756   4.851  2.0805  0.9018 -0.2044
  270MOL0     H36387   1.498   9.920   4.758 -1.6465  0.7948  0.4550
  270MOL0     H36388   1.477   9.849   4.590 -0.2841 -1.6843 -0.3025
  270MOL0     H36389   1.636   9.672   4.632  2.3068  2.4193 -2.4003
  270MOL0     H36390   1.631   9.700   4.801  0.0420 -1.5770 -0.6557
  270MOL0     H36391   1.734   9.892   4.570  0.7147 -0.8920 -0.3014
  270MOL0     H36392   1.705   9.956   4.729  0.1053  0.9177 -2.1903
  270MOL0     H36393   1.947   9.910   4.717  2.3777 -1.4054  0.3045
  270MOL0     H36394   1.869   9.809   4.831  0.5894  0.3991 -0.4236
  270MOL0     H36395   2.024   9.667   4.705 -0.2604 -3.1068 -1.5904
  270MOL0     H36396   1.859   9.617   4.680 -1.2370  0.3422 -0.1778
  270MOL0     H36397   2.021   9.788   4.476  1.3320  0.6096  3.0159
  270MOL0     H36398   1.855   9.741   4.468  0.2641  2.5859  2.0801
  270MOL0     H36399   2.031   9.507   4.527  1.0659  1.6700  0.9600
  270MOL0     H36400   1.893   9.520   4.419  0.0395 -2.7248  2.6664
  270MOL0     H36401   2.262   9.578   4.466 -0.5824 -2.0641  1.0751
  270MOL0     H36402   2.480   9.558   4.299 -1.9316 -0.6020  1.2176
  270MOL0     H36403   2.442   9.587   4.123 -2.0562  3.1775 -2.3326
  270MOL0     H36404   2.406   9.835   4.221  0.3972 -0.2746 -2.7663
  270MOL0     H36405   2.494   9.764   4.353 -2.4317 -0.1937 -0.4187
  270MOL0     H36406   2.629   9.898   4.180  0.2199 -0.4513  1.1065
  270MOL0     H36407   2.566   9.800   4.054  0.3877  1.4171 -0.5746
  270MOL0     H36408   2.678   9.603   4.154 -0.8235  0.0160  1.6669
  270MOL0     H36409   2.743   9.710   4.281 -2.3036  0.1899  0.3038
  270MOL0     H36410   2.944   9.664   4.311 -1.4422 -0.4776 -1.1071
  270MOL0     H36411   3.178   9.624   4.332 -3.0094 -0.2652  2.3123
  270MOL0     H36412   3.638   9.700   4.050 -1.2549  0.0754  0.7378
  270MOL0     H36413   3.885   9.659   4.093  1.5948  1.2212  1.3658
  270MOL0     H36414   3.976   9.813   4.483 -0.6087 -2.4589  4.2394
  270MOL0     H36415   4.016   9.654   4.535 -1.1477 -1.2207 -0.6033
  270MOL0     H36416   4.226   9.794   4.541 -0.3304 -0.3821  0.5482
  270MOL0     H36417   4.235   9.658   4.423 -3.0437 -1.5532  0.7856
  270MOL0     H36418   4.184   9.825   4.233 -0.8308  0.4364  0.2471
  270MOL0     H36419   4.161   9.953   4.338  0.2847 -0.1815 -1.9740
  270MOL0     H36420   4.404   9.905   4.424 -1.7461  2.2309  0.5338
  270MOL0     H36421   4.387   9.971   4.254  2.6478 -1.3385 -0.2133
  270MOL0     H36422   4.429   9.740   4.169  1.2749  3.5859 -1.1159
  270MOL0     H36423   4.470   9.690   4.338  3.3812  1.2226  1.6735
  270MOL0     H36424   4.627   9.913   4.240  0.1167  1.7058  2.6343
  270MOL0     H36425   4.657   9.794   4.359 -0.9539  1.3794 -0.5320
  270MOL0     H36426   4.657   9.740   4.065  0.7110 -0.2846 -0.4869
  270MOL0     H36427   4.651   9.605   4.189 -0.8584  0.9073  0.8056
  270MOL0     H36428   4.873   9.703   4.275  0.3771  0.2102 -0.1152
  270MOL0     H36429   4.882   9.643   4.110  0.1467  0.9997 -0.9323
  270MOL0     H36430   3.785   9.661   4.512 -0.8432  0.0023  0.3039
  270MOL0     H36431   3.552   9.681   4.467 -1.4741 -2.3750 -0.6260
  270MOL0     H36432   3.215   9.705   3.906 -1.4684  1.7717 -1.8153
  270MOL0     H36433   2.992   9.770   3.898  3.4754 -0.3504 -1.3918
  270MOL0     H36434   1.368   9.357   4.644 -0.3234 -2.0145  0.7304
  270MOL0     H36435   1.197   9.186   4.695 -1.9440 -1.6512  1.6734
  270MOL0     H36436   0.933   8.986   5.125  0.2106  1.4028 -0.4221
  270MOL0     H36437   0.739   8.854   5.167  0.0337 -0.4714  0.7847
  270MOL0     H36438   0.370   8.708   5.019 -2.9984  2.3040  3.3634
  270MOL0     H36439   0.396   8.821   4.878  1.8525  2.3216  0.5271
  270MOL0     H36440   0.213   8.875   5.022  0.9231 -2.3601 -0.8470
  270MOL0     H36441   0.317   9.010   4.977 -0.4185  1.6799  2.3993
  270MOL0     H36442   0.286   9.051   5.202 -1.1304 -1.3443  0.3888
  270MOL0     H36443   0.435   8.979   5.215 -0.5705  1.8362  1.6085
  270MOL0     H36444   0.321   8.751   5.252 -0.7041 -0.7284  2.9063
  270MOL0     H36445   0.293   8.871   5.386 -2.3646  1.9237  0.0429
  270MOL0     H36446  -0.100   8.866   5.288  0.8174  1.1397  1.4863
  270MOL0     H36447   0.524   9.012   4.836 -0.9422  0.5618  2.5284
  270MOL0     H36448   0.755   9.195   4.675 -2.2929  1.6271 -1.8973
  270MOL0     H36449   0.587   9.217   4.731  0.0344  2.7990 -0.0646
  270MOL0     H36450   0.721   9.306   4.802  0.4025 -0.6646  0.8028
  271MOL0     O36451   6.235   6.364   7.063  0.4079  0.3630  0.6774
  271MOL0     C36452   6.143   6.437   7.079  0.2596 -0.7944  0.1984
  271MOL0     O36453   6.144   6.553   7.156  0.6285 -0.2450  0.3770
  271MOL0     C36454   6.266   6.601   7.204  1.1423  0.3429  0.1035
  271MOL0     C36455   6.372   6.641   7.126  1.0368 -0.1875 -0.5928
  271MOL0     C36456   6.493   6.684   7.184 -0.4124 -0.6418 -0.0650
  271MOL0     C36457   6.503   6.697   7.325 -0.2034 -0.5053 -0.4350
  271MOL0     O36458   6.619   6.742   7.385  0.2778 -0.3068  0.5202
  271MOL0     C36459   6.747   6.756   7.324 -0.1524 -0.6193 -0.6367
  271MOL0     C36460   6.857   6.763   7.428  0.6919 -0.8766 -0.6166
  271MOL0     C36461   6.986   6.746   7.351 -0.3413 -0.3426 -0.7143
  271MOL0     C36462   7.103   6.751   7.450 -1.0050 -0.6343 -0.1736
  271MOL0     C36463   7.223   6.676   7.382  0.1898 -0.0643 -0.0502
  271MOL0     C36464   7.218   6.528   7.396  0.3472  0.3515 -0.3692
  271MOL0     C36465   7.239   6.461   7.535 -0.8173  0.7226 -0.5659
  271MOL0     C36466   7.333   6.542   7.631  0.5166 -0.0493 -0.3937
  271MOL0     N36467   7.469   6.544   7.583 -0.4741  0.3621  0.6819
  271MOL0     C36468   7.552   6.436   7.570  0.5484  0.5561 -0.0657
  271MOL0     C36469   7.672   6.487   7.528  1.4320 -0.1442  0.2254
  271MOL0     C36470   7.788   6.399   7.498  0.1565  0.0616 -0.3083
  271MOL0     C36471   7.920   6.460   7.458 -0.1071 -0.0034  0.5212
  271MOL0     C36472   7.910   6.473   7.311  0.2309 -0.4036  0.4577
  271MOL0     C36473   8.015   6.555   7.238 -0.3268  0.4336  0.6326
  271MOL0     O36474   8.150   6.507   7.243  0.2074 -0.0277  0.1122
  271MOL0     C36475   8.244   6.601   7.220 -0.0752  0.4940  0.2833
  271MOL0     C36476   8.376   6.566   7.239  0.3029 -0.0365  0.1459
  271MOL0     C36477   8.476   6.659   7.237  0.5007 -0.2945 -0.3738
  271MOL0     C36478   8.452   6.798   7.203 -0.7260 -0.1716 -0.0257
  271MOL0     C36479   8.570   6.895   7.213  0.7496 -0.3962  0.1653
  271MOL0     O36480   8.694   6.838   7.230 -0.0270  0.4273  0.8255
  271MOL0     C36481   8.798   6.916   7.247 -0.8131 -0.0568  0.0340
  271MOL0     C36482   8.885   6.963   7.146 -1.0106  0.6361  0.3608
  271MOL0     C36483   8.983   7.061   7.181  0.2024 -1.1508  0.8631
  271MOL0     C36484   9.015   7.100   7.313 -0.0786  0.0468 -0.2077
  271MOL0     O36485   9.116   7.191   7.338 -0.2251  0.3724  0.2678
  271MOL0     C36486   9.192   7.166   7.457  0.0082  0.3203 -0.2317
  271MOL0     C36487   9.297   7.049   7.445  0.4881 -0.7863 -0.1689
  271MOL0     C36488   9.391   7.066   7.329 -0.8404  0.1357  0.4409
  271MOL0     C36489   9.455   7.208   7.330 -0.3245 -0.2683 -0.6381
  271MOL0     C36490   9.573   7.219   7.241  1.2437  0.1824 -0.3798
  271MOL0     C36491   9.620   7.369   7.223 -0.1547 -0.5130 -0.3376
  271MOL0     C36492   9.744   7.381   7.130  0.1275  0.5755 -0.1100
  271MOL0     C36493   9.799   7.517   7.116  0.1724  1.5204 -0.4497
  271MOL0    Cl36494   9.944   7.538   7.011  0.4546 -0.0426  0.0935
  271MOL0     C36495   8.931   7.044   7.412 -0.1014 -0.0886  0.6790
  271MOL0     C36496   8.828   6.952   7.384 -0.1705 -0.1949  0.2958
  271MOL0     O36497   8.551   7.013   7.211  0.1076 -0.7138  0.3549
  271MOL0     C36498   8.318   6.827   7.173 -0.5471 -0.4040 -0.5985
  271MOL0     C36499   8.217   6.734   7.194 -0.0264 -0.5714  0.6874
  271MOL0     N36500   7.665   6.623   7.529  0.1702  0.6350  0.6506
  271MOL0     N36501   7.548   6.657   7.560  0.6687 -0.1485 -0.1461
  271MOL0     C36502   6.387   6.665   7.405 -0.0834 -0.0376  0.4424
  271MOL0     C36503   6.273   6.619   7.345  0.1436 -0.9844  0.3309
  271MOL0     C36504   6.017   6.403   7.000  0.1249 -0.4858  0.4844
  271MOL0     C36505   5.918   6.507   6.980 -0.5377  0.6130 -0.6059
  271MOL0     C36506   5.792   6.475   6.933  0.1497 -0.1018 -0.7223
  271MOL0     C36507   5.762   6.340   6.895  0.1948 -0.3545  0.8432
  271MOL0     O36508   5.645   6.301   6.846  0.3249  0.0236 -0.0882
  271MOL0     C36509   5.528   6.352   6.905 -0.0670  0.1646 -0.1625
  271MOL0     C36510   5.520   6.320   7.051 -0.1612  0.1541 -0.3451
  271MOL0     C36511   5.517   6.167   7.070  0.4583 -0.4612 -0.1112
  271MOL0     C36512   5.562   6.143   7.219  0.0311 -0.1372  1.0216
  271MOL0     C36513   5.473   6.190   7.328  0.1262 -0.2320  0.0805
  271MOL0     C36514   5.414   6.214   7.435 -0.8297  0.4344  0.0190
  271MOL0     C36515   5.861   6.245   6.901 -0.2568 -0.0509  0.1583
  271MOL0     C36516   5.986   6.267   6.954  0.2719 -0.4972 -0.1294
  271MOL0     C36517   6.080   6.155   6.974 -0.3486 -0.2009 -0.1755
  271MOL0     H36518   6.361   6.648   7.019  1.2936 -1.7138 -0.7458
  271MOL0     H36519   6.571   6.714   7.114 -0.3031 -0.2264  0.2328
  271MOL0     H36520   6.770   6.668   7.263 -1.2184 -0.1779 -1.6985
  271MOL0     H36521   6.749   6.854   7.275 -0.4716  0.4818  1.4639
  271MOL0     H36522   6.844   6.691   7.509 -2.1556  1.3270  1.0964
  271MOL0     H36523   6.867   6.856   7.484  2.7175 -1.5275  0.1779
  271MOL0     H36524   7.009   6.825   7.279  4.7825 -0.4205  0.4349
  271MOL0     H36525   6.981   6.652   7.295  1.4243 -0.1806 -1.2094
  271MOL0     H36526   7.143   6.852   7.462 -0.2185 -0.7912 -1.3156
  271MOL0     H36527   7.081   6.710   7.549  0.3814 -1.1701 -0.0756
  271MOL0     H36528   7.237   6.703   7.277  1.1726 -0.2124  0.0392
  271MOL0     H36529   7.313   6.721   7.424 -1.3346  4.3642 -0.9625
  271MOL0     H36530   7.122   6.490   7.361  1.5803 -1.9287 -1.4737
  271MOL0     H36531   7.288   6.488   7.322  0.3517 -1.5363  0.6023
  271MOL0     H36532   7.272   6.356   7.532  2.2573  1.5834 -0.8724
  271MOL0     H36533   7.142   6.478   7.582 -2.5015 -2.3725 -2.5820
  271MOL0     H36534   7.292   6.644   7.637 -0.3490 -0.3961 -0.2258
  271MOL0     H36535   7.334   6.494   7.730  1.7562 -1.4463 -1.0568
  271MOL0     H36536   7.518   6.333   7.576 -3.4762  1.7551  0.7750
  271MOL0     H36537   7.807   6.343   7.590  0.0736 -0.5345 -0.6462
  271MOL0     H36538   7.763   6.325   7.422  1.0381 -0.8294  0.2396
  271MOL0     H36539   7.932   6.553   7.514 -1.8008 -0.4279  1.6520
  271MOL0     H36540   7.998   6.396   7.499  0.2284  0.1782  0.1679
  271MOL0     H36541   7.811   6.513   7.287 -0.7328 -3.2581 -0.7325
  271MOL0     H36542   7.903   6.371   7.272  1.1526 -0.9998  1.7723
  271MOL0     H36543   8.004   6.654   7.282  0.2329  0.0516  1.6623
  271MOL0     H36544   7.984   6.560   7.133 -0.1442  1.6177  0.6305
  271MOL0     H36545   8.395   6.463   7.267 -0.1154 -0.3923 -0.8420
  271MOL0     H36546   8.574   6.624   7.269  0.0329 -0.1615  1.3325
  271MOL0     H36547   8.893   6.931   7.043  2.7498 -0.4999  0.8607
  271MOL0     H36548   9.046   7.105   7.104 -1.2894 -0.8901 -0.2662
  271MOL0     H36549   9.253   7.256   7.469  2.1302 -0.8181 -1.7534
  271MOL0     H36550   9.125   7.150   7.542  1.1790  1.2607  0.9106
  271MOL0     H36551   9.349   7.053   7.541 -1.1594 -1.6926  0.8269
  271MOL0     H36552   9.246   6.953   7.434  1.1277 -1.1457 -0.0425
  271MOL0     H36553   9.471   6.992   7.332  0.3047  1.2295 -1.1880
  271MOL0     H36554   9.330   7.046   7.240 -2.0894  2.3860  0.7051
  271MOL0     H36555   9.487   7.220   7.434  2.2962 -0.3459 -1.3722
  271MOL0     H36556   9.382   7.282   7.296  1.2531  2.0269  0.6405
  271MOL0     H36557   9.540   7.180   7.144 -1.4633 -1.8761  1.2446
  271MOL0     H36558   9.660   7.165   7.280  0.5570 -0.3236  0.5065
  271MOL0     H36559   9.537   7.419   7.172  0.1654 -1.8072 -2.2302
  271MOL0     H36560   9.636   7.420   7.318  3.6196 -1.4655 -0.3116
  271MOL0     H36561   9.714   7.346   7.032  2.3727 -2.6462  0.1833
  271MOL0     H36562   9.820   7.318   7.178  0.2967  1.1599  0.3970
  271MOL0     H36563   9.714   7.576   7.081  0.5195  3.8026  2.1845
  271MOL0     H36564   9.820   7.562   7.214 -2.8243  0.2720  0.9091
  271MOL0     H36565   8.943   7.064   7.518  3.2833  0.6635  0.2721
  271MOL0     H36566   8.773   6.894   7.457  2.2087 -5.3199 -1.4660
  271MOL0     H36567   8.294   6.926   7.134  1.9520  0.3704 -0.3097
  271MOL0     H36568   8.118   6.766   7.163 -0.0978 -0.4279  1.0602
  271MOL0     H36569   6.397   6.684   7.512 -2.3285  2.9804  0.2569
  271MOL0     H36570   6.196   6.593   7.416  1.5797  0.2516  2.4401
  271MOL0     H36571   5.944   6.601   7.028  0.5136 -0.4119  0.9075
  271MOL0     H36572   5.716   6.544   6.898  0.1825  0.3494  0.0645
  271MOL0     H36573   5.436   6.319   6.858 -0.9272  2.1179  0.0249
  271MOL0     H36574   5.533   6.461   6.895 -0.2784  0.1553 -0.3567
  271MOL0     H36575   5.437   6.361   7.109  2.8963  3.1904  2.3100
  271MOL0     H36576   5.607   6.368   7.097  1.5068 -0.9915 -2.1149
  271MOL0     H36577   5.579   6.117   6.995 -1.4884 -0.8022 -1.5550
  271MOL0     H36578   5.420   6.116   7.065  0.6027 -0.8378  0.6671
  271MOL0     H36579   5.579   6.036   7.232 -1.0511 -0.4149  0.2600
  271MOL0     H36580   5.662   6.185   7.238 -1.9729  4.5168  2.9375
  271MOL0     H36581   5.348   6.230   7.519  0.2556  1.1649  0.7618
  271MOL0     H36582   5.842   6.145   6.863  0.3166 -0.9498  2.0884
  271MOL0     H36583   6.166   6.153   6.907 -1.3509 -1.6837 -1.5041
  271MOL0     H36584   6.112   6.136   7.077 -0.4114 -1.3959 -0.3579
  271MOL0     H36585   6.025   6.067   6.939 -0.1079  0.0407 -1.1915
  272MOL0     O36586  10.935   4.888   9.647 -0.5000 -0.6208 -0.1122
  272MOL0     C36587  10.845   4.853   9.573 -1.3889  0.1700 -0.0352
  272MOL0     O36588  10.846   4.734   9.513  0.5027 -0.4469 -0.5335
  272MOL0     C36589  10.962   4.664   9.481 -0.0017  0.3741 -0.0430
  272MOL0     C36590  11.091   4.722   9.470  0.4831  0.0613 -0.2761
  272MOL0     C36591  11.203   4.635   9.447 -0.2750 -0.2440 -0.6780
  272MOL0     C36592  11.190   4.493   9.431  0.6720 -0.1030 -0.2804
  272MOL0     O36593  11.285   4.398   9.392 -0.3168  0.4420 -0.3922
  272MOL0     C36594  11.425   4.419   9.425 -0.1571  0.1978  0.1652
  272MOL0     C36595  11.513   4.324   9.333 -0.2970 -1.1941  0.0068
  272MOL0     C36596  11.657   4.371   9.325 -0.5360 -0.3717 -0.1040
  272MOL0     C36597  11.729   4.364   9.462  0.0023 -0.2054  0.2078
  272MOL0     C36598  11.872   4.419   9.477  0.2477  0.2938 -0.3407
  272MOL0     C36599  11.965   4.302   9.428  0.8828 -0.2182  1.0993
  272MOL0     C36600  12.121   4.339   9.428 -0.1195 -0.1197  0.8772
  272MOL0     C36601  12.172   4.376   9.562  1.4922  0.0835 -0.2533
  272MOL0     N36602  12.320   4.420   9.573  0.5217  0.0747  0.2305
  272MOL0     C36603  12.434   4.352   9.553  0.3772 -0.9227 -0.6236
  272MOL0     C36604  12.540   4.434   9.572 -0.0822 -0.0154  0.0376
  272MOL0     C36605  12.685   4.401   9.548 -0.0799  0.9202 -0.5045
  272MOL0     C36606  12.765   4.519   9.499 -0.6823  0.0184  0.1770
  272MOL0     C36607  12.730   4.563   9.363  0.3777 -0.2100  0.0801
  272MOL0     C36608  12.844   4.659   9.315  0.2476  0.3601  0.0272
  272MOL0     O36609  12.967   4.585   9.320  0.0892 -0.7419  0.3559
  272MOL0     C36610  13.087   4.652   9.314  0.0060  0.2960  0.4292
  272MOL0     C36611  13.110   4.783   9.311  0.3334  0.0574  0.0846
  272MOL0     C36612  13.236   4.849   9.303  0.4507 -0.4268  0.0522
  272MOL0     C36613  13.346   4.764   9.275  1.0220 -1.1041 -0.4088
  272MOL0     C36614  13.485   4.821   9.261  1.4078 -0.1034  0.7384
  272MOL0     O36615  13.581   4.749   9.206  0.0507  0.5202 -0.0448
  272MOL0     C36616  13.705   4.800   9.179  0.5240  0.5157 -0.2100
  272MOL0     C36617  13.723   4.923   9.121  0.6686 -0.2584  0.6585
  272MOL0     C36618  13.849   4.974   9.103 -0.0412 -0.7141  0.4942
  272MOL0     C36619  13.962   4.900   9.135 -0.2294 -0.4162 -0.0430
  272MOL0     O36620  14.083   4.950   9.092  0.8579 -0.1175 -0.1187
  272MOL0     C36621  14.185   4.849   9.065  0.1015 -0.9124 -1.1657
  272MOL0     C36622  14.309   4.901   8.987  0.8440 -0.0347 -0.0807
  272MOL0     C36623  14.392   4.776   8.944 -0.1498 -0.0802 -0.3008
  272MOL0     C36624  14.531   4.826   8.889  0.4064  0.7896 -0.5691
  272MOL0     C36625  14.624   4.703   8.857 -0.5927 -0.0581 -0.3297
  272MOL0     C36626  14.772   4.731   8.809  0.2952  0.1428  1.0023
  272MOL0     C36627  14.774   4.832   8.693  0.8734  1.1617 -0.0163
  272MOL0     C36628  14.919   4.847   8.642  0.2826  0.1176  0.1822
  272MOL0    Cl36629  15.009   4.937   8.776  0.0554 -0.5515  0.2321
  272MOL0     C36630  13.940   4.778   9.197  0.0338  0.5642 -0.3304
  272MOL0     C36631  13.815   4.728   9.219 -0.7268  1.1645 -0.7093
  272MOL0     O36632  13.497   4.939   9.291 -0.4386  0.0434 -0.1552
  272MOL0     C36633  13.323   4.630   9.255 -1.0609 -0.1543  0.5223
  272MOL0     C36634  13.201   4.573   9.282  1.3304 -0.5640  0.0036
  272MOL0     N36635  12.482   4.555   9.607 -0.3740 -0.0036 -0.4058
  272MOL0     N36636  12.357   4.545   9.597  0.5854 -0.1540 -0.1948
  272MOL0     C36637  11.061   4.440   9.448 -0.5127  0.2332  0.8633
  272MOL0     C36638  10.949   4.523   9.464  0.3645 -0.4605  0.3137
  272MOL0     C36639  10.728   4.950   9.554  0.4199  1.0748  0.6698
  272MOL0     C36640  10.606   4.895   9.507 -0.5142 -0.9418  0.7813
  272MOL0     C36641  10.499   4.975   9.480 -0.0234 -0.6818  0.8701
  272MOL0     C36642  10.489   5.107   9.531 -0.2813  0.3813  0.0111
  272MOL0     O36643  10.376   5.182   9.540 -0.8638 -0.3665 -0.2764
  272MOL0     C36644  10.249   5.146   9.488  0.4782  0.1694  0.7476
  272MOL0     C36645  10.131   5.233   9.498 -1.1560 -0.5438  0.0221
  272MOL0     C36646  10.110   5.289   9.637  0.4996 -0.1009  1.3243
  272MOL0     C36647  10.172   5.424   9.648  0.2494 -0.4205  0.3706
  272MOL0     C36648  10.159   5.474   9.782 -0.4380  0.3544  0.2440
  272MOL0     C36649  10.140   5.513   9.894  0.0215 -0.4259 -0.5873
  272MOL0     C36650  10.612   5.155   9.574  0.2036 -0.0941 -0.0226
  272MOL0     C36651  10.731   5.086   9.593  0.1708 -0.4841  0.6198
  272MOL0     C36652  10.842   5.170   9.651  0.3454 -0.2459 -0.2139
  272MOL0     H36653  11.099   4.828   9.488  1.0419 -0.1487  0.8084
  272MOL0     H36654  11.302   4.678   9.434  0.0164 -1.2522 -1.9794
  272MOL0     H36655  11.456   4.523   9.420 -2.9704  1.2149  1.6708
  272MOL0     H36656  11.438   4.393   9.530  2.3739 -0.9504 -0.3699
  272MOL0     H36657  11.468   4.324   9.233  0.2024  2.7565 -0.3868
  272MOL0     H36658  11.512   4.222   9.373  0.5996 -1.8885 -1.6355
  272MOL0     H36659  11.661   4.478   9.299  1.5472 -0.3337  0.1420
  272MOL0     H36660  11.713   4.320   9.246  0.4998  0.3602  0.1328
  272MOL0     H36661  11.672   4.431   9.528 -0.0568  2.4515 -2.3596
  272MOL0     H36662  11.716   4.265   9.506 -0.6204  0.0677  0.6528
  272MOL0     H36663  11.880   4.519   9.433  1.2000  0.7894  0.8730
  272MOL0     H36664  11.888   4.418   9.585  0.6526  0.5720 -0.3987
  272MOL0     H36665  11.954   4.208   9.484  0.3793 -1.6625 -1.2814
  272MOL0     H36666  11.947   4.284   9.321  1.7111  4.6276 -0.1024
  272MOL0     H36667  12.144   4.418   9.355  0.4315 -2.3936 -1.5549
  272MOL0     H36668  12.171   4.253   9.383 -1.5029  1.0208 -3.3003
  272MOL0     H36669  12.104   4.455   9.597 -0.8101 -2.3141  1.0817
  272MOL0     H36670  12.155   4.292   9.629  2.6346  0.9500  1.1780
  272MOL0     H36671  12.457   4.252   9.517 -2.5814 -2.5619  1.5688
  272MOL0     H36672  12.728   4.352   9.635 -1.0836  1.3877  0.2766
  272MOL0     H36673  12.686   4.325   9.469  1.4666  1.1932 -0.7743
  272MOL0     H36674  12.739   4.594   9.574  2.6888  1.1680  0.3833
  272MOL0     H36675  12.872   4.497   9.499 -0.5471  0.5859 -1.1438
  272MOL0     H36676  12.635   4.617   9.360  2.0930  3.0937  0.4755
  272MOL0     H36677  12.720   4.480   9.293 -0.0292 -1.0134  1.0662
  272MOL0     H36678  12.853   4.750   9.375  1.5580  1.6989 -2.0907
  272MOL0     H36679  12.833   4.702   9.215 -0.2721 -0.2682 -0.1948
  272MOL0     H36680  13.031   4.856   9.327  0.0143 -0.5480  1.4080
  272MOL0     H36681  13.245   4.957   9.310 -0.7418 -0.2708 -0.5568
  272MOL0     H36682  13.632   4.976   9.094  1.3544  0.9006  0.5309
  272MOL0     H36683  13.862   5.057   9.034 -0.4535 -1.3699 -0.4046
  272MOL0     H36684  14.221   4.798   9.155 -1.5008  0.0180  0.0487
  272MOL0     H36685  14.136   4.769   9.008 -1.3763 -0.5422 -0.4649
  272MOL0     H36686  14.266   4.956   8.903 -1.3928  2.8875  2.7261
  272MOL0     H36687  14.367   4.969   9.050  1.2376 -0.9371  0.5519
  272MOL0     H36688  14.408   4.710   9.029 -1.6717 -1.0629 -0.7383
  272MOL0     H36689  14.334   4.728   8.864  1.4120 -1.7048 -0.5067
  272MOL0     H36690  14.582   4.880   8.969  0.6058 -0.5251  0.2259
  272MOL0     H36691  14.515   4.890   8.802  1.7407 -0.8534 -2.1007
  272MOL0     H36692  14.580   4.632   8.786 -0.3819  0.0621 -0.5802
  272MOL0     H36693  14.643   4.652   8.952  0.8485  0.5758 -0.2640
  272MOL0     H36694  14.826   4.771   8.896 -0.0684 -1.0121  1.7873
  272MOL0     H36695  14.819   4.640   8.769 -2.0809 -1.3526  1.4519
  272MOL0     H36696  14.726   4.927   8.717 -2.7535 -0.3799 -0.4111
  272MOL0     H36697  14.713   4.799   8.609  2.2332 -0.1609 -0.5300
  272MOL0     H36698  14.975   4.754   8.629  0.0117 -0.0659  0.2879
  272MOL0     H36699  14.920   4.894   8.544  0.1006 -1.9452 -0.8728
  272MOL0     H36700  14.027   4.723   9.231 -0.2908  0.7459  0.8180
  272MOL0     H36701  13.806   4.629   9.263 -0.3100  2.6254  3.0520
  272MOL0     H36702  13.413   4.573   9.234 -1.5655 -0.6904 -0.1818
  272MOL0     H36703  13.182   4.466   9.285 -0.2647 -0.3268  3.4796
  272MOL0     H36704  11.034   4.335   9.441  1.5087 -0.2212 -0.9263
  272MOL0     H36705  10.846   4.487   9.464  0.0207  0.4545  1.1490
  272MOL0     H36706  10.600   4.789   9.485  0.0515 -0.7923 -0.1460
  272MOL0     H36707  10.410   4.930   9.439 -1.6423  0.3233  3.1012
  272MOL0     H36708  10.214   5.061   9.547 -0.6536  0.1598  0.1067
  272MOL0     H36709  10.267   5.120   9.383 -0.9755 -1.5639  0.8720
  272MOL0     H36710  10.048   5.172   9.460 -1.0228 -0.1097 -0.9989
  272MOL0     H36711  10.146   5.318   9.431 -0.8861  0.1263  0.9103
  272MOL0     H36712  10.152   5.220   9.711  2.3191 -1.6970 -1.0505
  272MOL0     H36713  10.002   5.298   9.651  0.4746  2.3567  0.1755
  272MOL0     H36714  10.276   5.418   9.615 -1.2038 -0.8122 -5.2916
  272MOL0     H36715  10.120   5.499   9.588 -0.7065 -0.7971  0.7132
  272MOL0     H36716  10.132   5.564   9.987  0.6850  0.7971 -1.1771
  272MOL0     H36717  10.623   5.259   9.601 -0.6411  0.3056 -1.1598
  272MOL0     H36718  10.818   5.265   9.701  0.2202 -0.1885 -0.3821
  272MOL0     H36719  10.891   5.103   9.721  1.2999 -0.3422 -0.9451
  272MOL0     H36720  10.913   5.187   9.569  1.3500 -2.3723  0.1443
  273MOL0     O36721  11.174   7.128   1.237  0.3529  1.1201 -0.1432
  273MOL0     C36722  11.174   7.113   1.363 -0.2617  0.7107 -0.0371
  273MOL0     O36723  11.292   7.086   1.438 -0.3878  0.2743 -0.3789
  273MOL0     C36724  11.408   7.059   1.374 -0.1587 -0.5931  0.8187
  273MOL0     C36725  11.452   6.932   1.353  0.5229  0.7113  0.4463
  273MOL0     C36726  11.585   6.918   1.307 -0.4669 -0.6638  0.3250
  273MOL0     C36727  11.673   7.024   1.271  0.8992 -0.1057  0.0652
  273MOL0     O36728  11.802   7.003   1.228  0.2400  0.1232 -0.0590
  273MOL0     C36729  11.892   7.041   1.332 -0.6277 -0.0291  0.3904
  273MOL0     C36730  12.032   6.975   1.304  0.3141  0.2745 -0.1328
  273MOL0     C36731  12.145   7.054   1.383  0.8110  0.8402  1.3876
  273MOL0     C36732  12.288   6.988   1.379  0.4911  0.1973  0.2008
  273MOL0     C36733  12.374   7.044   1.488  0.2560  0.4586 -0.1538
  273MOL0     C36734  12.517   6.979   1.489  1.1466  0.1943 -0.3262
  273MOL0     C36735  12.599   7.044   1.595  0.3646  0.7692 -0.4776
  273MOL0     C36736  12.731   6.963   1.614  0.5772  0.0357  0.9430
  273MOL0     N36737  12.832   7.050   1.664 -1.1547  0.1925 -0.2406
  273MOL0     C36738  12.890   7.153   1.592  0.0067 -0.3269 -0.7150
  273MOL0     C36739  12.967   7.219   1.686 -0.2056  0.1586 -0.1180
  273MOL0     C36740  13.066   7.335   1.659  0.2511  0.4608  0.9517
  273MOL0     C36741  13.101   7.359   1.513  0.4844  0.6920 -0.7630
  273MOL0     C36742  13.175   7.494   1.499 -0.3285 -0.3846 -0.7739
  273MOL0     C36743  13.183   7.547   1.354  0.2904 -0.1694  0.1782
  273MOL0     O36744  13.224   7.683   1.348  0.6394 -0.1975 -0.4413
  273MOL0     C36745  13.344   7.707   1.408  0.3356 -0.1853 -0.1086
  273MOL0     C36746  13.361   7.786   1.520 -0.1798  0.0199  0.0620
  273MOL0     C36747  13.486   7.811   1.575 -0.8476 -0.1465 -0.0608
  273MOL0     C36748  13.595   7.743   1.534 -0.5500 -0.2283  0.9786
  273MOL0     C36749  13.723   7.763   1.593  0.5496  0.7347  0.4385
  273MOL0     O36750  13.823   7.696   1.541  0.2680  0.5999 -0.7741
  273MOL0     C36751  13.947   7.754   1.551 -0.1698 -0.1430 -0.3126
  273MOL0     C36752  14.016   7.777   1.670 -0.7652  0.7676  0.0952
  273MOL0     C36753  14.156   7.811   1.669 -0.3923 -0.2512  1.2600
  273MOL0     C36754  14.220   7.839   1.550  0.0914  0.2225  0.4923
  273MOL0     O36755  14.354   7.871   1.527  0.4666 -0.1431  0.0850
  273MOL0     C36756  14.429   7.936   1.631  0.6551 -0.2676 -0.8759
  273MOL0     C36757  14.577   7.908   1.592 -1.0833 -0.3250 -0.2939
  273MOL0     C36758  14.686   8.009   1.644 -0.1136 -0.3038  0.7034
  273MOL0     C36759  14.825   7.978   1.598 -0.3863  0.8741 -0.4646
  273MOL0     C36760  14.840   7.975   1.440 -0.3661  0.1079 -0.3209
  273MOL0     C36761  14.826   8.113   1.379 -0.8912 -0.8966  0.6518
  273MOL0     C36762  14.840   8.125   1.219 -0.2729  0.6686 -0.5673
  273MOL0     C36763  14.764   8.255   1.175 -0.0535 -0.0426  0.3552
  273MOL0    Cl36764  14.590   8.233   1.199  0.1526  0.3416  0.0645
  273MOL0     C36765  14.144   7.810   1.437  0.3411 -0.8714  1.6103
  273MOL0     C36766  14.011   7.771   1.432 -0.2251 -0.4093  0.1869
  273MOL0     O36767  13.733   7.840   1.690 -0.0849  0.5304  0.1684
  273MOL0     C36768  13.576   7.649   1.427 -1.3212 -0.3689 -0.6339
  273MOL0     C36769  13.454   7.635   1.365 -0.7297 -0.1412  0.0335
  273MOL0     N36770  12.966   7.150   1.806 -0.1804  0.5406 -0.8718
  273MOL0     N36771  12.882   7.052   1.791  0.0029 -0.0010 -0.5109
  273MOL0     C36772  11.617   7.150   1.283 -0.5023  0.4598 -0.1692
  273MOL0     C36773  11.490   7.173   1.337  0.3556  0.3144  0.1453
  273MOL0     C36774  11.050   7.108   1.441 -0.4924 -0.1059 -0.3223
  273MOL0     C36775  11.047   7.034   1.560  0.2135 -0.6326 -0.3953
  273MOL0     C36776  10.934   7.025   1.636  0.6558 -0.8498 -0.8644
  273MOL0     C36777  10.810   7.092   1.609 -0.1345  0.7065  0.0759
  273MOL0     O36778  10.705   7.074   1.701 -0.5380  0.1895  0.1499
  273MOL0     C36779  10.564   7.083   1.650 -1.0101  0.1047 -0.5705
  273MOL0     C36780  10.504   7.183   1.744  0.8172 -0.5346 -0.1752
  273MOL0     C36781  10.366   7.213   1.681 -0.1381  0.1610 -0.1088
  273MOL0     C36782  10.281   7.286   1.786 -0.8967  0.3195  0.1375
  273MOL0     C36783  10.142   7.320   1.746  0.1401  0.7890  0.0328
  273MOL0     C36784  10.017   7.339   1.725 -0.6852 -0.5647  0.1472
  273MOL0     C36785  10.809   7.164   1.483  0.3733  0.5961 -0.4834
  273MOL0     C36786  10.925   7.178   1.405 -0.5686 -0.0247  0.0081
  273MOL0     C36787  10.909   7.261   1.278  1.1979  0.2227  0.0092
  273MOL0     H36788  11.374   6.858   1.372  0.0473  0.2105 -2.8777
  273MOL0     H36789  11.621   6.815   1.301 -1.4029 -0.9444 -0.6507
  273MOL0     H36790  11.906   7.149   1.339  0.2005 -0.1115  0.0415
  273MOL0     H36791  11.864   7.015   1.435 -2.4495  1.8980  0.4511
  273MOL0     H36792  12.066   6.961   1.201  1.0908 -0.5562  0.2223
  273MOL0     H36793  12.019   6.875   1.346 -2.6949  0.6633  0.0589
  273MOL0     H36794  12.123   7.083   1.486  1.1663  2.1897  1.1062
  273MOL0     H36795  12.159   7.153   1.338 -0.8798 -0.3590 -2.2016
  273MOL0     H36796  12.281   6.879   1.380 -2.1384  0.2625 -1.1004
  273MOL0     H36797  12.326   7.019   1.281  0.9081 -1.1890 -0.1091
  273MOL0     H36798  12.395   7.149   1.469  1.5022  0.2559  0.0260
  273MOL0     H36799  12.332   7.037   1.589 -2.9050  3.1284 -1.0989
  273MOL0     H36800  12.500   6.872   1.507 -0.6629 -0.0302 -2.7959
  273MOL0     H36801  12.557   7.006   1.390 -0.9678  4.3439 -0.2682
  273MOL0     H36802  12.537   7.043   1.686  1.9486 -1.6165  0.6847
  273MOL0     H36803  12.620   7.145   1.560  2.7244  1.1285  1.6722
  273MOL0     H36804  12.708   6.876   1.676 -0.4724  0.0529  0.6123
  273MOL0     H36805  12.767   6.933   1.515  3.8680  1.4353  1.6034
  273MOL0     H36806  12.885   7.177   1.487  0.1408  1.9609 -0.2510
  273MOL0     H36807  13.027   7.426   1.706  2.5578  0.6901  2.5733
  273MOL0     H36808  13.152   7.312   1.723  0.8542  2.5711  0.9867
  273MOL0     H36809  13.164   7.281   1.470 -0.5683  1.7498 -4.7034
  273MOL0     H36810  13.002   7.358   1.467  0.5481  0.6474 -0.8984
  273MOL0     H36811  13.270   7.481   1.551 -1.3862 -1.2541  1.0888
  273MOL0     H36812  13.118   7.568   1.557 -1.3829 -1.6061 -0.1884
  273MOL0     H36813  13.084   7.545   1.308  1.1710 -0.1484 -1.8091
  273MOL0     H36814  13.248   7.480   1.298  0.3280  1.7004 -2.1966
  273MOL0     H36815  13.274   7.841   1.557 -0.6992 -0.6298 -0.1727
  273MOL0     H36816  13.498   7.884   1.654 -0.0956 -1.3596  0.9713
  273MOL0     H36817  13.968   7.760   1.765  0.7939 -1.7594  0.5307
  273MOL0     H36818  14.195   7.835   1.767  1.4484  1.3721  0.1844
  273MOL0     H36819  14.413   8.044   1.626 -3.8497 -0.7195 -0.1048
  273MOL0     H36820  14.412   7.901   1.733  0.3820  3.5689  0.5539
  273MOL0     H36821  14.614   7.820   1.646 -1.2174  1.8262  3.7622
  273MOL0     H36822  14.586   7.887   1.485 -0.0214  0.3729 -0.3582
  273MOL0     H36823  14.660   8.112   1.615  0.0329 -0.0618  1.4026
  273MOL0     H36824  14.680   7.999   1.753  1.7325 -1.2091  0.7610
  273MOL0     H36825  14.855   7.884   1.646 -2.2478  0.9230  0.9036
  273MOL0     H36826  14.895   8.051   1.639  0.5641 -0.5585  0.5734
  273MOL0     H36827  14.762   7.912   1.397 -0.7183 -0.3227  0.8943
  273MOL0     H36828  14.931   7.929   1.401 -2.5739 -3.3083 -1.9002
  273MOL0     H36829  14.725   8.138   1.414 -0.7366 -0.6850  0.9579
  273MOL0     H36830  14.895   8.188   1.420 -1.2001  1.3267 -2.5302
  273MOL0     H36831  14.794   8.037   1.173 -2.0209  1.4124 -0.3035
  273MOL0     H36832  14.947   8.131   1.195 -0.6132  1.7062 -1.9049
  273MOL0     H36833  14.783   8.341   1.240 -4.4665 -0.6701  2.9010
  273MOL0     H36834  14.796   8.288   1.076  0.7326  0.1908  0.6818
  273MOL0     H36835  14.197   7.829   1.344  0.7512  0.6509  2.1382
  273MOL0     H36836  13.976   7.735   1.336 -0.1139 -0.5560  0.2010
  273MOL0     H36837  13.648   7.589   1.373 -0.8013 -2.1075  1.8719
  273MOL0     H36838  13.448   7.578   1.272  2.0281 -1.6313  0.6699
  273MOL0     H36839  11.685   7.226   1.246  1.5932  0.1054  2.5774
  273MOL0     H36840  11.456   7.274   1.356 -2.0355 -0.5388  0.7725
  273MOL0     H36841  11.138   6.984   1.592  1.3406  1.9173  0.7243
  273MOL0     H36842  10.924   6.977   1.733 -0.9636 -2.6037 -1.8471
  273MOL0     H36843  10.510   6.988   1.658 -0.2055 -0.5269 -2.1254
  273MOL0     H36844  10.557   7.117   1.546  0.7151 -0.2493 -0.8361
  273MOL0     H36845  10.570   7.269   1.755 -0.9680  0.9542 -0.5976
  273MOL0     H36846  10.491   7.130   1.838 -2.4120  0.3683 -0.0092
  273MOL0     H36847  10.320   7.118   1.653 -1.0148  0.6187 -0.2564
  273MOL0     H36848  10.382   7.281   1.597  1.0182 -0.7662 -0.6679
  273MOL0     H36849  10.284   7.217   1.871  3.3407 -0.4087 -0.3568
  273MOL0     H36850  10.333   7.379   1.811  2.1240 -1.5290  1.3159
  273MOL0     H36851   9.919   7.373   1.697 -0.1729 -0.0650 -1.1424
  273MOL0     H36852  10.713   7.206   1.454 -0.6248 -1.8662 -1.0011
  273MOL0     H36853  10.819   7.323   1.286  1.1120 -0.0216  1.1469
  273MOL0     H36854  10.993   7.327   1.256  0.8706  1.7013  2.8283
  273MOL0     H36855  10.900   7.188   1.197 -2.2589 -0.7984  1.1158
  274MOL0     O36856   9.869   8.415   3.626 -0.0030 -0.2481  0.3637
  274MOL0     C36857   9.798   8.328   3.671 -0.2116 -0.0324  0.1840
  274MOL0     O36858   9.802   8.291   3.797 -0.7530 -0.2036  0.1174
  274MOL0     C36859   9.880   8.373   3.881 -0.5471  0.0599  0.3336
  274MOL0     C36860   9.847   8.508   3.908  0.9533  0.9628  0.3967
  274MOL0     C36861   9.933   8.588   3.989  0.3758 -0.3522  1.1065
  274MOL0     C36862  10.059   8.541   4.036  0.2124 -0.4637  0.3645
  274MOL0     O36863  10.138   8.615   4.115 -0.2487 -0.4817  0.2465
  274MOL0     C36864  10.077   8.719   4.193  0.4801 -0.2824  0.4079
  274MOL0     C36865  10.149   8.724   4.330 -0.1330 -0.7936 -0.9900
  274MOL0     C36866  10.279   8.803   4.337 -0.0512 -0.6213 -0.0516
  274MOL0     C36867  10.402   8.728   4.322 -0.4667  0.7134 -0.6121
  274MOL0     C36868  10.522   8.817   4.304 -0.1566  0.1551 -0.1461
  274MOL0     C36869  10.654   8.733   4.297 -0.0492 -0.2297  0.5805
  274MOL0     C36870  10.772   8.819   4.272  0.1078 -0.2245  0.9527
  274MOL0     C36871  10.891   8.727   4.267 -0.1568  0.1088 -0.0404
  274MOL0     N36872  11.005   8.800   4.213  0.3519 -0.5527  0.1750
  274MOL0     C36873  11.051   8.921   4.266  0.9292  0.4379  0.2854
  274MOL0     C36874  11.159   8.948   4.189  0.3090  0.2491 -0.8334
  274MOL0     C36875  11.240   9.071   4.209  0.2233 -0.3700 -1.4057
  274MOL0     C36876  11.322   9.055   4.337  1.0146  0.2987  0.1000
  274MOL0     C36877  11.413   9.173   4.385  0.0419 -0.6659  0.3216
  274MOL0     C36878  11.523   9.209   4.286 -0.7668 -0.2959  0.1228
  274MOL0     O36879  11.540   9.355   4.289 -0.1797 -0.4926 -0.1601
  274MOL0     C36880  11.621   9.423   4.374 -0.2520 -0.2133  0.2093
  274MOL0     C36881  11.648   9.555   4.349 -0.7514 -0.9579 -0.0390
  274MOL0     C36882  11.745   9.626   4.426 -0.4157  0.0936 -0.0507
  274MOL0     C36883  11.818   9.562   4.530 -0.0098  0.8773  0.7492
  274MOL0     C36884  11.927   9.632   4.594 -0.7484  0.2491 -0.5579
  274MOL0     O36885  11.966   9.752   4.534 -0.0278  0.5462 -0.5291
  274MOL0     C36886  12.088   9.819   4.577 -0.4475 -0.2850  0.0184
  274MOL0     C36887  12.124   9.932   4.500  0.4415  0.1015 -0.3613
  274MOL0     C36888  12.238  10.009   4.519  0.3480 -0.1026  0.7469
  274MOL0     C36889  12.324   9.971   4.628  0.2915 -0.1108  0.1149
  274MOL0     O36890  12.441  10.036   4.656  0.5044 -0.1024  0.1498
  274MOL0     C36891  12.457  10.176   4.622  0.2258 -0.6318  0.1488
  274MOL0     C36892  12.604  10.217   4.615  0.1780  1.0530 -0.2858
  274MOL0     C36893  12.621  10.369   4.611 -0.4835  0.3715  0.2380
  274MOL0     C36894  12.716  10.417   4.508  0.2215  0.2040 -0.4846
  274MOL0     C36895  12.745  10.565   4.528 -0.0263  0.3209 -0.2871
  274MOL0     C36896  12.797  10.636   4.403 -0.2450 -0.1058  0.4403
  274MOL0     C36897  12.852  10.780   4.434  0.4314  0.1833 -0.4808
  274MOL0     C36898  13.000  10.788   4.464 -0.1274 -1.4024  0.5504
  274MOL0    Cl36899  13.060  10.680   4.586  0.3577 -0.0293 -0.0776
  274MOL0     C36900  12.287   9.865   4.714  0.9656 -0.4305 -0.8681
  274MOL0     C36901  12.175   9.788   4.683 -0.0760 -0.0933 -0.2757
  274MOL0     O36902  11.969   9.583   4.697 -0.4133  0.2478  0.4072
  274MOL0     C36903  11.784   9.427   4.561  0.0263 -0.3604  0.9450
  274MOL0     C36904  11.686   9.361   4.483  0.2498  0.4489 -0.9384
  274MOL0     N36905  11.183   8.837   4.104  0.3055  0.8023 -0.2711
  274MOL0     N36906  11.087   8.751   4.118  0.4466  0.1462  0.0691
  274MOL0     C36907  10.094   8.408   4.009 -0.1637  0.2051  0.3111
  274MOL0     C36908   9.998   8.327   3.938 -0.4034 -0.2518  0.1337
  274MOL0     C36909   9.697   8.256   3.588 -0.2900  0.3449 -0.9764
  274MOL0     C36910   9.636   8.153   3.651  0.0212  0.4017  1.0895
  274MOL0     C36911   9.536   8.081   3.580 -0.2876 -0.6924 -0.6161
  274MOL0     C36912   9.492   8.120   3.459 -0.3756 -0.1538  0.0611
  274MOL0     O36913   9.393   8.052   3.394 -0.4857  0.3512 -0.5244
  274MOL0     C36914   9.420   7.999   3.261  0.2233 -0.6060 -0.6358
  274MOL0     C36915   9.290   8.032   3.177  0.3115  0.6470 -1.0663
  274MOL0     C36916   9.198   7.916   3.203 -0.1283  0.4919 -0.3073
  274MOL0     C36917   9.107   7.904   3.080 -0.3440 -0.0162  0.9074
  274MOL0     C36918   8.995   7.809   3.112  0.1516  0.2134 -0.1324
  274MOL0     C36919   8.902   7.742   3.153 -0.3325  0.2262 -0.2583
  274MOL0     C36920   9.549   8.235   3.401 -0.8264  0.4544 -0.8127
  274MOL0     C36921   9.658   8.305   3.459  0.7050 -0.1167 -0.6737
  274MOL0     C36922   9.713   8.432   3.386 -0.2873  0.3118 -0.0302
  274MOL0     H36923   9.754   8.553   3.875  0.9056  1.5126  1.2509
  274MOL0     H36924   9.907   8.694   3.993  0.3167  0.1047 -4.2475
  274MOL0     H36925  10.095   8.818   4.151  1.4866 -0.5927  0.0609
  274MOL0     H36926   9.970   8.714   4.214 -0.2010  1.6963 -2.1668
  274MOL0     H36927  10.179   8.625   4.364  1.8902  0.4288  1.0422
  274MOL0     H36928  10.079   8.776   4.396  1.1539  0.7350 -0.7740
  274MOL0     H36929  10.283   8.838   4.441 -2.3484 -0.8142  0.1524
  274MOL0     H36930  10.290   8.891   4.273  1.8481  0.8621  2.1333
  274MOL0     H36931  10.408   8.659   4.407 -1.3357  0.0374 -1.0732
  274MOL0     H36932  10.387   8.665   4.234 -2.0854  0.4645 -0.1946
  274MOL0     H36933  10.514   8.881   4.216 -0.4625 -0.6357 -0.7137
  274MOL0     H36934  10.525   8.886   4.388  1.4736  0.8603 -0.7508
  274MOL0     H36935  10.656   8.677   4.390 -2.6080 -0.6635  0.4374
  274MOL0     H36936  10.646   8.664   4.212 -1.5031  1.4825 -0.7661
  274MOL0     H36937  10.790   8.894   4.350 -2.4474 -0.6431  2.0385
  274MOL0     H36938  10.760   8.869   4.176 -0.3797  0.6787  1.4731
  274MOL0     H36939  10.922   8.686   4.364  0.8138 -0.3553 -0.5283
  274MOL0     H36940  10.880   8.641   4.201 -1.1947  1.7774 -2.1497
  274MOL0     H36941  11.002   8.985   4.338  0.4803 -1.4356  1.7003
  274MOL0     H36942  11.308   9.074   4.123  1.1503 -3.5434 -0.9229
  274MOL0     H36943  11.181   9.163   4.205 -0.6476 -0.9567 -2.5735
  274MOL0     H36944  11.256   9.024   4.419  0.5477 -1.5168 -0.9225
  274MOL0     H36945  11.390   8.970   4.324 -0.1960 -0.6172 -0.4221
  274MOL0     H36946  11.463   9.156   4.481  0.5967 -3.6711 -0.4049
  274MOL0     H36947  11.345   9.259   4.391  0.4156 -0.4800  3.0668
  274MOL0     H36948  11.500   9.180   4.183 -0.1788 -1.8586  0.4053
  274MOL0     H36949  11.612   9.150   4.310 -1.4648 -2.4512 -2.1452
  274MOL0     H36950  11.607   9.596   4.258 -0.4289  2.0625  1.0601
  274MOL0     H36951  11.773   9.724   4.390  3.7595 -0.7825  0.2847
  274MOL0     H36952  12.054   9.960   4.421 -0.8913  1.3462  1.1848
  274MOL0     H36953  12.253  10.094   4.455 -1.0389 -0.7521 -0.4981
  274MOL0     H36954  12.425  10.202   4.520  0.9161 -0.9587 -0.1529
  274MOL0     H36955  12.399  10.220   4.704 -1.3982 -0.7769 -0.8846
  274MOL0     H36956  12.659  10.184   4.704  1.4517  1.6601 -0.8233
  274MOL0     H36957  12.664  10.174   4.535 -1.0431  1.3070 -1.3653
  274MOL0     H36958  12.527  10.415   4.579  0.1968  3.2289  2.0033
  274MOL0     H36959  12.645  10.408   4.710 -0.6597 -0.2654  0.5319
  274MOL0     H36960  12.673  10.401   4.409  0.7221 -0.5531 -0.5839
  274MOL0     H36961  12.806  10.355   4.518 -0.0429 -0.7374 -3.1226
  274MOL0     H36962  12.814  10.579   4.612 -0.7969  2.9539 -0.0261
  274MOL0     H36963  12.658  10.624   4.556  0.1563  0.4437  0.0252
  274MOL0     H36964  12.874  10.583   4.347 -0.5591 -0.0997  0.0061
  274MOL0     H36965  12.713  10.642   4.334  0.7713 -1.1352 -0.9242
  274MOL0     H36966  12.793  10.834   4.508  0.4328 -0.2281 -0.1731
  274MOL0     H36967  12.835  10.840   4.344  0.9371  2.0118  0.6067
  274MOL0     H36968  13.051  10.758   4.372  0.7849  2.4871 -0.3803
  274MOL0     H36969  13.036  10.888   4.490  1.9341 -2.4944  2.2453
  274MOL0     H36970  12.346   9.840   4.802 -0.7571 -1.7482 -0.0248
  274MOL0     H36971  12.160   9.705   4.751 -2.0405  0.2960 -0.1627
  274MOL0     H36972  11.842   9.385   4.642  0.5202  1.2688  1.4753
  274MOL0     H36973  11.679   9.256   4.510  2.7156  0.1242 -1.4099
  274MOL0     H36974  10.196   8.376   4.025 -0.4956 -1.7078 -1.0941
  274MOL0     H36975  10.038   8.227   3.919 -2.4334 -1.4674  1.8079
  274MOL0     H36976   9.665   8.112   3.747  3.5943 -0.7940 -0.3461
  274MOL0     H36977   9.503   7.990   3.630  1.0890  0.2631  2.2640
  274MOL0     H36978   9.447   7.893   3.264 -0.3955 -0.7952  3.8699
  274MOL0     H36979   9.504   8.049   3.211  0.7515 -2.8655 -2.1285
  274MOL0     H36980   9.316   8.034   3.071  1.6568 -0.3876 -0.7862
  274MOL0     H36981   9.233   8.121   3.203  0.4368  0.1712  1.0425
  274MOL0     H36982   9.144   7.929   3.297  2.3162 -0.8143  1.3948
  274MOL0     H36983   9.253   7.822   3.211  0.3412  0.9062  1.9963
  274MOL0     H36984   9.057   7.992   3.038 -1.6066 -3.1308 -5.3822
  274MOL0     H36985   9.159   7.863   2.993 -2.9791 -0.3561 -0.6222
  274MOL0     H36986   8.808   7.709   3.192 -0.7518  2.3041  0.6499
  274MOL0     H36987   9.501   8.260   3.306 -2.9173 -1.8553 -0.4717
  274MOL0     H36988   9.697   8.522   3.446  2.0855  0.9033 -0.1678
  274MOL0     H36989   9.820   8.419   3.365 -0.8263 -2.0257 -1.7684
  274MOL0     H36990   9.655   8.444   3.294  1.4163  0.9230 -1.0762
  275MOL0     O36991   7.546   4.811   3.907 -0.1490  0.0375  0.6480
  275MOL0     C36992   7.527   4.922   3.946  0.9657 -0.2122 -0.0278
  275MOL0     O36993   7.619   5.019   3.979  0.2297 -0.3595 -0.1203
  275MOL0     C36994   7.747   4.976   3.999 -0.4259 -0.0337 -0.1069
  275MOL0     C36995   7.854   5.007   3.915  0.6926  0.7229  0.0890
  275MOL0     C36996   7.982   4.977   3.952 -0.2804 -0.3650 -0.0455
  275MOL0     C36997   8.009   4.914   4.072 -0.4278 -0.8000  0.5173
  275MOL0     O36998   8.146   4.892   4.094  0.3890 -0.4594  0.3760
  275MOL0     C36999   8.186   4.817   4.214 -0.5218  0.4980 -0.5295
  275MOL0     C37000   8.342   4.779   4.204  0.1303 -0.4153  0.2848
  275MOL0     C37001   8.414   4.915   4.223 -0.3389  0.7684 -0.2582
  275MOL0     C37002   8.567   4.886   4.208 -0.2319 -0.3638  0.5278
  275MOL0     C37003   8.635   4.837   4.337  0.2213 -0.2381 -0.4021
  275MOL0     C37004   8.779   4.820   4.317 -0.0090  0.1872 -0.5484
  275MOL0     C37005   8.852   4.718   4.405  0.0864  0.0449 -0.1064
  275MOL0     C37006   8.873   4.756   4.547 -0.0844  0.2919  0.3253
  275MOL0     N37007   8.920   4.640   4.620 -0.0551  0.5829 -0.5198
  275MOL0     C37008   9.048   4.610   4.646 -0.6283 -0.3749  0.4417
  275MOL0     C37009   9.047   4.481   4.685  0.3387 -0.1480  0.2364
  275MOL0     C37010   9.168   4.399   4.723  0.8400 -0.9115  0.4387
  275MOL0     C37011   9.253   4.351   4.609  0.0984  0.2851 -1.1565
  275MOL0     C37012   9.328   4.462   4.535  0.8843 -0.6688  0.0684
  275MOL0     C37013   9.441   4.417   4.444 -0.4472 -0.1024 -0.6066
  275MOL0     O37014   9.498   4.543   4.391  0.4862  0.0546  0.0999
  275MOL0     C37015   9.632   4.580   4.408  0.0518  1.1355  0.2559
  275MOL0     C37016   9.665   4.712   4.393 -0.3670  0.4352  0.1685
  275MOL0     C37017   9.807   4.744   4.395  0.1475 -0.0171 -0.4594
  275MOL0     C37018   9.909   4.649   4.403  0.3744 -0.2393 -0.8477
  275MOL0     C37019  10.049   4.680   4.390 -0.4588  0.6854  0.0812
  275MOL0     O37020  10.142   4.578   4.388 -0.8822 -0.1358 -0.0422
  275MOL0     C37021  10.272   4.625   4.409  0.0848 -0.3549  0.3024
  275MOL0     C37022  10.315   4.670   4.534  0.0235 -0.1735 -0.1206
  275MOL0     C37023  10.444   4.712   4.553  0.1387  0.3599  0.0242
  275MOL0     C37024  10.535   4.708   4.447 -0.0873  0.3805 -0.1716
  275MOL0     O37025  10.662   4.745   4.458 -0.5420 -0.6311 -0.0795
  275MOL0     C37026  10.701   4.822   4.575  0.4891 -0.0433 -0.6161
  275MOL0     C37027  10.838   4.897   4.549 -0.0234 -1.0302  0.1575
  275MOL0     C37028  10.957   4.808   4.528 -0.1125 -0.6119 -0.4840
  275MOL0     C37029  11.091   4.891   4.499  0.0269 -0.9257 -0.1998
  275MOL0     C37030  11.226   4.821   4.526  0.4578  0.8379  0.5089
  275MOL0     C37031  11.345   4.901   4.487 -0.6739  0.0870  0.0794
  275MOL0     C37032  11.484   4.829   4.493  0.4445 -0.4567  0.5978
  275MOL0     C37033  11.586   4.924   4.431  0.0225  0.2575 -0.1457
  275MOL0    Cl37034  11.749   4.835   4.447  0.1816 -0.3359  0.3422
  275MOL0     C37035  10.492   4.675   4.322  0.4196  0.6671 -0.3754
  275MOL0     C37036  10.364   4.630   4.300 -0.0082 -0.2542  0.6292
  275MOL0     O37037  10.076   4.802   4.388 -0.0048  1.1093  0.3841
  275MOL0     C37038   9.862   4.516   4.417  0.5603 -0.3636  1.1039
  275MOL0     C37039   9.734   4.484   4.413  0.5125 -0.2759 -0.0788
  275MOL0     N37040   8.926   4.433   4.691 -0.7924  0.3637  0.7398
  275MOL0     N37041   8.850   4.532   4.649  0.2080  0.2469 -0.4196
  275MOL0     C37042   7.907   4.875   4.157  0.3191  0.1808 -0.0190
  275MOL0     C37043   7.772   4.909   4.124 -0.4591 -0.2003 -0.3068
  275MOL0     C37044   7.382   4.966   3.964  0.3089 -0.0373  0.0998
  275MOL0     C37045   7.366   5.099   3.992 -0.3919 -0.3250  0.5234
  275MOL0     C37046   7.238   5.155   4.014  0.0658 -0.7593 -0.8886
  275MOL0     C37047   7.124   5.080   3.984 -0.1879  0.2183  0.1413
  275MOL0     O37048   7.012   5.156   3.992 -0.4999 -1.3150 -0.1774
  275MOL0     C37049   6.890   5.094   4.011 -0.4671  0.0186  0.3353
  275MOL0     C37050   6.880   5.026   4.153  0.2647 -0.0943  0.0404
  275MOL0     C37051   6.743   4.952   4.158 -1.0627  0.3435 -0.2433
  275MOL0     C37052   6.707   4.913   4.308  0.0302 -1.3967  0.1590
  275MOL0     C37053   6.563   4.892   4.332  0.1057  0.3265  0.3091
  275MOL0     C37054   6.446   4.883   4.361  1.2530 -0.2098 -0.2736
  275MOL0     C37055   7.142   4.951   3.947 -0.2512  0.8323  0.8955
  275MOL0     C37056   7.264   4.887   3.935 -0.7276  0.0835  0.3925
  275MOL0     C37057   7.272   4.736   3.892 -0.6108 -0.4915 -0.2848
  275MOL0     H37058   7.820   5.058   3.826  1.7096 -0.7657 -1.2195
  275MOL0     H37059   8.058   5.012   3.883 -0.4761 -0.5014 -0.3316
  275MOL0     H37060   8.176   4.871   4.309  3.9415 -0.3730  0.6713
  275MOL0     H37061   8.139   4.718   4.219  1.5361 -0.5173 -0.0867
  275MOL0     H37062   8.369   4.736   4.108  0.5713  1.3531 -0.4226
  275MOL0     H37063   8.375   4.707   4.280 -0.5591 -1.6986 -0.5990
  275MOL0     H37064   8.382   4.966   4.315 -0.4672 -2.3160  1.5679
  275MOL0     H37065   8.384   4.976   4.138 -2.2852 -2.9354 -2.4668
  275MOL0     H37066   8.574   4.810   4.130 -2.4603  0.1693 -0.2551
  275MOL0     H37067   8.618   4.980   4.184 -1.7070  0.1432 -0.7996
  275MOL0     H37068   8.619   4.906   4.419  1.9236  1.8104 -1.6734
  275MOL0     H37069   8.588   4.739   4.349 -1.0071  0.5853  1.8868
  275MOL0     H37070   8.789   4.772   4.219 -2.1188 -2.0601  0.2232
  275MOL0     H37071   8.828   4.917   4.309  1.4328 -0.4269  0.5270
  275MOL0     H37072   8.949   4.714   4.356 -0.1915  1.2084 -0.7751
  275MOL0     H37073   8.804   4.620   4.398 -0.8819  0.6271 -3.1282
  275MOL0     H37074   8.944   4.840   4.547 -0.6564  0.7808 -0.5687
  275MOL0     H37075   8.775   4.791   4.580 -1.3415 -1.6067 -1.2221
  275MOL0     H37076   9.135   4.669   4.620 -1.6488  1.6834  1.4336
  275MOL0     H37077   9.223   4.463   4.792 -1.5943  2.7263 -0.6687
  275MOL0     H37078   9.137   4.306   4.771 -1.7419 -0.7641 -0.7827
  275MOL0     H37079   9.326   4.284   4.656 -2.1555 -1.7310 -0.2416
  275MOL0     H37080   9.194   4.293   4.538  0.2096  1.1191 -1.9359
  275MOL0     H37081   9.360   4.527   4.616  0.4906 -0.8746  0.3922
  275MOL0     H37082   9.257   4.509   4.466  0.7968 -3.9138 -2.3161
  275MOL0     H37083   9.399   4.344   4.374 -1.4264  0.8772 -1.0801
  275MOL0     H37084   9.518   4.367   4.503 -0.8733 -0.0756 -0.0223
  275MOL0     H37085   9.599   4.797   4.380 -0.0200  0.8754  1.1444
  275MOL0     H37086   9.836   4.848   4.399  1.0305 -0.3023  1.0998
  275MOL0     H37087  10.244   4.671   4.616 -2.6175  1.5574 -2.2357
  275MOL0     H37088  10.473   4.752   4.650  0.7886  2.5875 -1.0282
  275MOL0     H37089  10.636   4.905   4.602  2.2754  0.3105  3.2980
  275MOL0     H37090  10.727   4.762   4.663  1.7367  1.7705  0.3284
  275MOL0     H37091  10.831   4.958   4.458  2.8193  2.6213  2.1136
  275MOL0     H37092  10.862   4.963   4.632 -0.9854 -1.3703  0.7195
  275MOL0     H37093  10.971   4.758   4.624 -3.5304 -1.1855 -0.1534
  275MOL0     H37094  10.944   4.726   4.457 -0.2354 -2.0833  1.1589
  275MOL0     H37095  11.088   4.983   4.558  1.1629 -0.2337 -1.1733
  275MOL0     H37096  11.086   4.923   4.395 -0.5309  0.3646  0.2079
  275MOL0     H37097  11.234   4.724   4.477 -2.1030 -0.2092  1.9579
  275MOL0     H37098  11.232   4.795   4.632 -2.6771 -1.0594  0.3510
  275MOL0     H37099  11.323   4.937   4.387  0.1955  0.3325 -0.0274
  275MOL0     H37100  11.348   4.985   4.557  1.6070  1.1195 -1.1598
  275MOL0     H37101  11.482   4.729   4.449 -0.2566 -1.2120  2.2684
  275MOL0     H37102  11.506   4.820   4.600  2.5726 -1.6009  0.1046
  275MOL0     H37103  11.563   4.956   4.329 -1.6978  2.8491  0.9499
  275MOL0     H37104  11.599   5.021   4.480  1.7187  0.0094 -0.0366
  275MOL0     H37105  10.566   4.657   4.244 -0.0048 -1.7119 -0.2774
  275MOL0     H37106  10.320   4.609   4.202 -0.5224  0.4753  0.7008
  275MOL0     H37107   9.927   4.430   4.415 -0.2012 -1.2690 -4.8946
  275MOL0     H37108   9.714   4.378   4.423  1.1394 -0.5538 -1.4722
  275MOL0     H37109   7.928   4.826   4.252  0.0072 -0.7148 -0.3961
  275MOL0     H37110   7.699   4.878   4.197  0.9549  1.2278  1.8326
  275MOL0     H37111   7.450   5.168   3.999 -1.5470  1.3157 -0.7906
  275MOL0     H37112   7.220   5.254   4.057 -0.9685 -1.2250 -0.2056
  275MOL0     H37113   6.872   5.025   3.928  1.8870  2.3768 -2.3495
  275MOL0     H37114   6.812   5.167   3.988 -1.7256 -0.8831  1.5671
  275MOL0     H37115   6.897   5.096   4.235 -0.2558  0.4723 -0.3335
  275MOL0     H37116   6.957   4.949   4.166 -2.6936 -4.2218 -3.7848
  275MOL0     H37117   6.760   4.858   4.106  0.5606 -0.1785  1.1547
  275MOL0     H37118   6.663   5.014   4.115 -2.5850 -0.4054  1.3558
  275MOL0     H37119   6.770   4.832   4.345  1.1988 -0.9193 -0.7043
  275MOL0     H37120   6.738   4.998   4.370  0.7569 -0.5742 -1.2618
  275MOL0     H37121   6.341   4.888   4.383  0.2194  4.5949 -4.4110
  275MOL0     H37122   7.058   4.884   3.932 -1.0743  1.7729  1.2181
  275MOL0     H37123   7.173   4.689   3.903 -2.0003  2.1941 -0.4371
  275MOL0     H37124   7.305   4.732   3.788  0.4370  5.6248 -0.5471
  275MOL0     H37125   7.345   4.688   3.957 -0.0015  2.3838  1.3188
  276MOL0     O37126   7.975   7.985   2.543  0.5952 -0.5543  0.2040
  276MOL0     C37127   7.897   8.053   2.479  0.3865 -0.2889 -0.9421
  276MOL0     O37128   7.943   8.148   2.397  0.5753  0.1601  0.5831
  276MOL0     C37129   8.078   8.171   2.380 -1.1666  0.3754 -0.1294
  276MOL0     C37130   8.116   8.303   2.391  0.0254 -0.0662  0.4286
  276MOL0     C37131   8.254   8.340   2.391  0.4190 -0.6392  0.0630
  276MOL0     C37132   8.360   8.249   2.367  0.4939 -0.1131  0.5980
  276MOL0     O37133   8.489   8.275   2.363 -0.3276  0.4516 -0.3862
  276MOL0     C37134   8.537   8.413   2.389 -0.5851 -0.7514 -0.3105
  276MOL0     C37135   8.686   8.392   2.423  0.4070  0.7208  0.1241
  276MOL0     C37136   8.771   8.499   2.478  0.4571 -0.8642 -0.3263
  276MOL0     C37137   8.909   8.446   2.494 -0.4950  0.4443  0.5131
  276MOL0     C37138   9.015   8.550   2.548 -0.3638 -0.4333  0.0918
  276MOL0     C37139   9.144   8.473   2.573  0.2329 -0.1361 -0.3195
  276MOL0     C37140   9.251   8.569   2.615 -0.8990  0.5633  0.2159
  276MOL0     C37141   9.295   8.658   2.501 -0.1990  0.8615  0.9030
  276MOL0     N37142   9.430   8.727   2.526  0.1867  0.3214 -0.1235
  276MOL0     C37143   9.449   8.856   2.552 -0.4080 -0.0768 -0.0879
  276MOL0     C37144   9.581   8.867   2.570 -0.8246  0.6477  0.6092
  276MOL0     C37145   9.639   8.990   2.632 -0.1526 -0.7986  0.0991
  276MOL0     C37146   9.667   8.975   2.784  0.1607 -0.1895 -0.5333
  276MOL0     C37147   9.734   9.094   2.835  0.3203 -0.2725 -0.7036
  276MOL0     C37148   9.737   9.081   2.995  0.4315  0.1042  0.2548
  276MOL0     O37149   9.844   9.160   3.056 -0.5572  0.3300  0.7264
  276MOL0     C37150   9.979   9.116   3.041  0.0210  0.6592  0.1546
  276MOL0     C37151  10.067   9.204   3.105  0.5459  0.2812  0.1219
  276MOL0     C37152  10.204   9.185   3.089  0.5095  0.3677 -0.2408
  276MOL0     C37153  10.255   9.074   3.018 -0.7244  0.0389  1.0199
  276MOL0     C37154  10.403   9.049   3.013 -0.4570  0.4920  1.1020
  276MOL0     O37155  10.497   9.151   3.022  0.3246  0.8470 -0.1584
  276MOL0     C37156  10.630   9.129   3.034  0.5953  0.6540  0.0487
  276MOL0     C37157  10.714   9.241   2.987  0.4538  0.7613 -0.1720
  276MOL0     C37158  10.850   9.227   3.005  0.3279  0.0602  0.0527
  276MOL0     C37159  10.911   9.111   3.052  1.1687  0.7783 -0.0816
  276MOL0     O37160  11.047   9.114   3.070  0.5168  0.6232 -0.4292
  276MOL0     C37161  11.111   8.989   3.087  0.1172 -0.1035 -0.3293
  276MOL0     C37162  11.111   8.899   2.966 -0.3462  0.9472  0.3489
  276MOL0     C37163  11.194   8.964   2.858  0.6792 -0.3270  0.4398
  276MOL0     C37164  11.239   8.866   2.748 -0.8269  0.0162  0.3807
  276MOL0     C37165  11.294   8.944   2.629 -0.5455  0.1207  0.0779
  276MOL0     C37166  11.329   8.844   2.528  0.2858 -0.0268 -0.3932
  276MOL0     C37167  11.374   8.903   2.392  0.6068  0.0611 -0.5260
  276MOL0     C37168  11.497   8.995   2.408 -0.2528 -0.0590  1.0020
  276MOL0    Cl37169  11.607   8.974   2.261 -0.2873 -0.7153  0.0838
  276MOL0     C37170  10.830   9.004   3.086 -1.0358 -0.6360 -0.0827
  276MOL0     C37171  10.694   9.016   3.091 -0.6584 -0.6794  0.1515
  276MOL0     O37172  10.434   8.932   2.974  0.5943 -0.0969 -1.2389
  276MOL0     C37173  10.164   8.981   2.960  0.5765  0.1015  0.0881
  276MOL0     C37174  10.027   9.007   2.959 -0.2950 -1.3660 -0.5451
  276MOL0     N37175   9.638   8.744   2.536 -0.5821  0.0023  0.3752
  276MOL0     N37176   9.544   8.656   2.520 -0.1064 -0.1884 -0.6284
  276MOL0     C37177   8.315   8.113   2.352  0.3618  1.0099 -0.5420
  276MOL0     C37178   8.180   8.077   2.354 -0.0567 -0.7772  0.1663
  276MOL0     C37179   7.748   8.056   2.503  0.4035 -0.2326  0.0387
  276MOL0     C37180   7.665   8.117   2.401 -0.0095 -1.4108 -0.1973
  276MOL0     C37181   7.523   8.133   2.428  0.1974 -0.1198  0.5002
  276MOL0     C37182   7.463   8.067   2.535 -1.1728 -0.0500 -0.2434
  276MOL0     O37183   7.329   8.068   2.553 -0.3269 -0.6833  0.7066
  276MOL0     C37184   7.270   8.194   2.540  0.1843 -1.0248  0.2710
  276MOL0     C37185   7.139   8.201   2.609 -0.5426  0.5041  0.7823
  276MOL0     C37186   7.075   8.338   2.615  0.3760 -0.3369 -0.3240
  276MOL0     C37187   6.959   8.334   2.713 -0.0578 -0.7359 -0.1150
  276MOL0     C37188   6.852   8.249   2.662 -0.1322  0.0956  0.4498
  276MOL0     C37189   6.763   8.171   2.632  0.8860  0.2573 -0.3103
  276MOL0     C37190   7.542   7.982   2.615 -0.2596 -0.1358 -0.2313
  276MOL0     C37191   7.688   7.977   2.602  0.1131  0.4108 -0.3630
  276MOL0     C37192   7.758   7.884   2.694 -0.1086  0.0722 -0.3326
  276MOL0     H37193   8.039   8.376   2.415 -0.3445 -0.3584  0.1327
  276MOL0     H37194   8.281   8.441   2.419 -2.4867 -0.8373  4.5621
  276MOL0     H37195   8.518   8.489   2.313 -0.9386 -0.6513 -0.1253
  276MOL0     H37196   8.492   8.440   2.485 -0.8369 -1.5919 -0.1828
  276MOL0     H37197   8.723   8.371   2.322 -1.5524 -0.0310 -0.4783
  276MOL0     H37198   8.686   8.304   2.487 -2.6180  0.9410  0.5857
  276MOL0     H37199   8.736   8.543   2.572  2.3619 -0.1831  0.1208
  276MOL0     H37200   8.780   8.582   2.407  0.8461  0.7477  1.5215
  276MOL0     H37201   8.908   8.362   2.564 -1.6241  1.1192  1.3522
  276MOL0     H37202   8.940   8.411   2.396 -0.5152  1.4208  0.1451
  276MOL0     H37203   9.027   8.620   2.465  0.2223 -0.6594 -0.0205
  276MOL0     H37204   8.983   8.611   2.633  0.3674 -0.5769  0.4736
  276MOL0     H37205   9.125   8.403   2.655 -1.7559  0.5317 -0.1698
  276MOL0     H37206   9.182   8.411   2.491  1.2628 -0.3925  0.3255
  276MOL0     H37207   9.334   8.510   2.656 -1.5408 -1.3785 -1.1586
  276MOL0     H37208   9.213   8.632   2.696  1.7668  0.9185  1.2987
  276MOL0     H37209   9.305   8.584   2.420  1.8042  3.0004 -0.9478
  276MOL0     H37210   9.214   8.729   2.482 -2.8578 -1.9207  1.0222
  276MOL0     H37211   9.379   8.936   2.572  1.0931  2.2116 -3.2854
  276MOL0     H37212   9.738   9.011   2.589 -0.0105  0.2149  0.8782
  276MOL0     H37213   9.575   9.078   2.617  1.6757  1.0528  2.4534
  276MOL0     H37214   9.570   8.953   2.828 -1.6365  4.2642 -1.6237
  276MOL0     H37215   9.731   8.888   2.799  1.0570  0.0653 -2.6158
  276MOL0     H37216   9.684   9.188   2.808  0.1749 -0.4977 -1.2262
  276MOL0     H37217   9.834   9.103   2.791  0.4494 -0.4237 -0.4446
  276MOL0     H37218   9.754   8.984   3.043 -0.6683  0.8633  2.2851
  276MOL0     H37219   9.640   9.114   3.034  0.7921  2.2218 -0.5122
  276MOL0     H37220  10.019   9.287   3.156 -1.5852 -0.5672 -0.3871
  276MOL0     H37221  10.266   9.253   3.146 -1.0991  1.6320  0.0738
  276MOL0     H37222  10.678   9.336   2.950  2.5370  0.9796 -1.8170
  276MOL0     H37223  10.914   9.314   2.992 -1.1348  1.2776  0.7110
  276MOL0     H37224  11.215   9.002   3.116 -0.0724 -1.0604  0.8319
  276MOL0     H37225  11.062   8.927   3.162 -1.8450  1.1565 -0.4841
  276MOL0     H37226  11.159   8.807   2.998  0.4643  0.6359 -1.6393
  276MOL0     H37227  11.008   8.878   2.933  0.4790 -0.9387 -1.1715
  276MOL0     H37228  11.145   9.055   2.823 -0.2548 -0.7841  0.5241
  276MOL0     H37229  11.281   9.012   2.904 -0.3084  0.8254  1.1660
  276MOL0     H37230  11.149   8.810   2.722  0.0181 -1.3490  0.2824
  276MOL0     H37231  11.313   8.789   2.773  0.7656  1.3034 -0.1627
  276MOL0     H37232  11.373   9.015   2.654 -0.4884 -0.1991  0.8226
  276MOL0     H37233  11.216   9.008   2.586 -0.7516 -0.8254 -0.9951
  276MOL0     H37234  11.407   8.777   2.566  1.7186  0.4238 -2.3808
  276MOL0     H37235  11.245   8.780   2.499  1.0177  0.1585 -3.2192
  276MOL0     H37236  11.299   8.958   2.334 -0.5192 -0.6594  0.2052
  276MOL0     H37237  11.409   8.830   2.319  2.0004 -0.5314  0.6817
  276MOL0     H37238  11.475   9.102   2.405  1.3594  0.3290 -2.9955
  276MOL0     H37239  11.548   8.973   2.503  0.5865  0.5487  0.7055
  276MOL0     H37240  10.870   8.908   3.115 -0.6822 -0.2534  0.7452
  276MOL0     H37241  10.634   8.940   3.142  0.3553 -0.3940  1.8451
  276MOL0     H37242  10.204   8.890   2.917  0.1528  0.2309 -0.5918
  276MOL0     H37243   9.949   8.959   2.900 -0.6583  0.4849 -1.6605
  276MOL0     H37244   8.390   8.037   2.333  0.4092  0.7233  0.7291
  276MOL0     H37245   8.151   7.973   2.346  0.9593 -1.1426  1.0445
  276MOL0     H37246   7.703   8.163   2.310 -2.4554  2.4301  0.4920
  276MOL0     H37247   7.466   8.190   2.356  1.9300  1.7363  0.5068
  276MOL0     H37248   7.265   8.221   2.434 -1.5092 -1.4171  0.2249
  276MOL0     H37249   7.332   8.275   2.582  0.9977 -1.7650  0.5209
  276MOL0     H37250   7.149   8.152   2.706  2.0631  1.2734  0.9933
  276MOL0     H37251   7.080   8.135   2.546  0.7652 -0.7252  0.8023
  276MOL0     H37252   7.043   8.358   2.512 -0.2689  1.1982  0.1544
  276MOL0     H37253   7.151   8.411   2.644  0.7104 -0.9038  0.2667
  276MOL0     H37254   6.997   8.300   2.810  0.1088  2.3597  1.0439
  276MOL0     H37255   6.926   8.435   2.739  1.8083  0.1781 -1.1191
  276MOL0     H37256   6.684   8.106   2.602 -0.4261  1.5430  0.2670
  276MOL0     H37257   7.485   7.920   2.682 -1.1580 -1.0682 -1.7945
  276MOL0     H37258   7.823   7.954   2.748  2.0788 -1.7228 -0.5185
  276MOL0     H37259   7.699   7.832   2.771  2.1843 -0.9610  0.8174
  276MOL0     H37260   7.836   7.818   2.655  1.8511 -0.8079  4.3625
  277MOL0     O37261   6.240   2.738   8.026 -0.2739  0.2271 -0.0987
  277MOL0     C37262   6.318   2.831   8.040  0.5170 -0.5172 -0.4109
  277MOL0     O37263   6.450   2.836   8.009  0.3538 -0.3757 -0.6350
  277MOL0     C37264   6.509   2.755   7.915  0.1078  0.0314  0.4899
  277MOL0     C37265   6.454   2.662   7.827  0.1612  0.3845  0.8564
  277MOL0     C37266   6.532   2.573   7.758 -0.7297 -0.4803 -0.3957
  277MOL0     C37267   6.675   2.590   7.760 -0.7332 -0.3824  0.0092
  277MOL0     O37268   6.753   2.515   7.676  0.4456  0.0983  0.6877
  277MOL0     C37269   6.891   2.488   7.726 -0.4674 -0.5670  0.8179
  277MOL0     C37270   6.956   2.377   7.643 -0.1031 -0.2757 -0.2771
  277MOL0     C37271   7.075   2.317   7.717 -0.3777 -0.3868  0.2641
  277MOL0     C37272   7.130   2.195   7.639 -0.3153  0.4817 -0.0401
  277MOL0     C37273   7.233   2.123   7.723 -1.1965 -0.4236 -0.6982
  277MOL0     C37274   7.275   1.994   7.669 -0.8301  0.2051 -0.3284
  277MOL0     C37275   7.344   2.012   7.529 -0.1824  0.5028  0.2457
  277MOL0     C37276   7.430   1.889   7.493  0.4436 -0.5795  0.4370
  277MOL0     N37277   7.565   1.900   7.539  0.1474 -0.0684 -0.3928
  277MOL0     C37278   7.606   1.825   7.645  0.3822 -0.3774 -0.0715
  277MOL0     C37279   7.730   1.871   7.679 -0.0015 -0.7041 -1.0420
  277MOL0     C37280   7.813   1.824   7.800 -0.5012  0.0549  0.6386
  277MOL0     C37281   7.954   1.884   7.816 -0.2279  0.8207  0.6789
  277MOL0     C37282   8.067   1.841   7.717  0.6501 -0.6801 -0.4656
  277MOL0     C37283   8.180   1.936   7.723 -0.5316  0.2808 -0.1170
  277MOL0     O37284   8.277   1.881   7.637 -0.3825  0.1046  0.4590
  277MOL0     C37285   8.403   1.926   7.635 -0.1046 -1.2290  0.1415
  277MOL0     C37286   8.489   1.855   7.558 -0.3244 -0.8005  0.1191
  277MOL0     C37287   8.621   1.895   7.554 -0.4565 -0.5982  0.3625
  277MOL0     C37288   8.674   2.006   7.621 -0.0481  0.3275  0.7983
  277MOL0     C37289   8.818   2.048   7.613  0.4650 -0.0388  0.9306
  277MOL0     O37290   8.846   2.171   7.665 -0.2464 -0.3132 -0.0866
  277MOL0     C37291   8.970   2.216   7.643  0.4945  0.4803 -0.0582
  277MOL0     C37292   9.081   2.158   7.705  0.7841 -0.8890  1.1000
  277MOL0     C37293   9.203   2.225   7.690 -0.0650 -0.4575  0.8594
  277MOL0     C37294   9.215   2.347   7.636 -1.3028 -0.6136  0.0615
  277MOL0     O37295   9.339   2.400   7.640 -0.0180 -0.4058  0.1201
  277MOL0     C37296   9.352   2.545   7.659  0.3643  0.4987  0.1650
  277MOL0     C37297   9.462   2.566   7.761  0.1803  0.0384  0.2307
  277MOL0     C37298   9.485   2.709   7.809  0.3804  0.5143  0.7558
  277MOL0     C37299   9.629   2.758   7.835  0.8397  0.6814 -0.5057
  277MOL0     C37300   9.658   2.913   7.806 -0.0252  0.6167  0.6249
  277MOL0     C37301   9.624   3.010   7.924  0.2481 -0.8405 -0.1148
  277MOL0     C37302   9.713   3.007   8.049 -0.2189  1.1230  0.4679
  277MOL0     C37303   9.654   3.106   8.150 -0.0622  0.0996  0.5300
  277MOL0    Cl37304   9.666   3.265   8.104  0.0319 -0.1218 -0.0096
  277MOL0     C37305   9.108   2.413   7.579  0.7424 -0.1525 -1.0687
  277MOL0     C37306   8.983   2.344   7.587 -0.5718 -0.0005  0.0242
  277MOL0     O37307   8.892   1.970   7.554  0.3479 -0.1372 -0.4623
  277MOL0     C37308   8.578   2.092   7.686 -0.7939 -0.6733 -0.0385
  277MOL0     C37309   8.444   2.050   7.702 -0.1002  0.3530  0.3605
  277MOL0     N37310   7.761   1.981   7.609 -0.1852  0.3552  0.2815
  277MOL0     N37311   7.657   2.005   7.523  0.3712  0.2965 -0.3763
  277MOL0     C37312   6.730   2.680   7.848 -0.5739  0.5415  0.8064
  277MOL0     C37313   6.645   2.768   7.919  0.8023  1.1352 -0.0940
  277MOL0     C37314   6.254   2.948   8.102 -0.9036 -0.2576  0.4097
  277MOL0     C37315   6.151   2.921   8.191 -0.5283 -0.1814  0.1759
  277MOL0     C37316   6.084   3.020   8.258  0.6501 -0.7478 -0.5739
  277MOL0     C37317   6.113   3.152   8.223  0.6142 -0.2409 -0.3970
  277MOL0     O37318   6.040   3.255   8.281  0.0672  0.0147 -0.7210
  277MOL0     C37319   5.931   3.230   8.369 -0.8648  0.4038  0.0823
  277MOL0     C37320   5.891   3.359   8.434 -0.2587 -0.2861  0.7373
  277MOL0     C37321   5.750   3.340   8.498  0.1458 -0.2661  0.4648
  277MOL0     C37322   5.727   3.435   8.612 -0.5990  0.0833 -0.7577
  277MOL0     C37323   5.693   3.574   8.569  0.4362  0.4882 -0.2609
  277MOL0     C37324   5.664   3.693   8.538 -0.2862 -0.2130 -0.3488
  277MOL0     C37325   6.206   3.179   8.124  0.2909  0.1812 -0.5588
  277MOL0     C37326   6.281   3.080   8.062 -0.4594 -0.1663 -0.6686
  277MOL0     C37327   6.383   3.133   7.973  0.1450 -0.0539 -0.9991
  277MOL0     H37328   6.346   2.657   7.819  0.1024 -0.4658  1.9348
  277MOL0     H37329   6.490   2.496   7.693  0.6452 -1.0201 -0.6906
  277MOL0     H37330   6.948   2.581   7.722 -1.9642  0.3466 -0.2153
  277MOL0     H37331   6.893   2.451   7.829 -0.4648  1.2107  1.4876
  277MOL0     H37332   7.002   2.422   7.554 -1.7107  1.7728 -0.1680
  277MOL0     H37333   6.885   2.297   7.620  0.8877 -0.9595 -1.0259
  277MOL0     H37334   7.046   2.278   7.815  1.0809 -1.4171  0.3222
  277MOL0     H37335   7.158   2.388   7.724  0.3623 -1.0785 -1.0113
  277MOL0     H37336   7.039   2.137   7.620  0.1134 -0.8066  1.6474
  277MOL0     H37337   7.178   2.235   7.549 -0.3433  4.1104  1.4106
  277MOL0     H37338   7.323   2.184   7.735 -1.3157 -0.4771  0.6764
  277MOL0     H37339   7.190   2.112   7.823  0.5788  0.2625  0.1841
  277MOL0     H37340   7.348   1.952   7.738 -1.1474 -1.5662 -1.0173
  277MOL0     H37341   7.192   1.922   7.666 -0.1065 -0.6427 -0.3092
  277MOL0     H37342   7.397   2.108   7.533 -0.2877  0.5327  1.1826
  277MOL0     H37343   7.273   2.026   7.447  1.9453 -0.5481 -1.9045
  277MOL0     H37344   7.385   1.794   7.524  0.2742 -0.0558  1.8366
  277MOL0     H37345   7.439   1.889   7.384  0.1911 -0.5210  0.4162
  277MOL0     H37346   7.550   1.742   7.686  0.4730 -0.9645 -1.1112
  277MOL0     H37347   7.759   1.852   7.891  1.4497  2.8708  1.0731
  277MOL0     H37348   7.835   1.717   7.804  1.4231  0.3696 -0.5976
  277MOL0     H37349   7.934   1.991   7.805 -1.7173  0.4400 -0.7206
  277MOL0     H37350   8.002   1.873   7.913  2.6133  2.0887 -0.4882
  277MOL0     H37351   8.020   1.846   7.619  0.5855  1.0393 -0.3749
  277MOL0     H37352   8.106   1.741   7.740 -1.1211 -0.7130  3.2374
  277MOL0     H37353   8.207   1.957   7.827 -0.7646 -1.0211  0.2270
  277MOL0     H37354   8.159   2.031   7.673  0.5023  0.5799  0.0004
  277MOL0     H37355   8.452   1.769   7.504 -0.3925 -1.0776  0.6010
  277MOL0     H37356   8.684   1.827   7.498 -0.0320  0.3878 -0.3873
  277MOL0     H37357   9.061   2.062   7.753 -1.9102 -1.1502 -0.3458
  277MOL0     H37358   9.293   2.175   7.723  0.5428  0.2792  0.3413
  277MOL0     H37359   9.383   2.593   7.566 -0.2042  1.7767  0.6211
  277MOL0     H37360   9.266   2.598   7.699  0.6318  0.8422  0.2845
  277MOL0     H37361   9.439   2.489   7.836  0.0475 -1.8640 -1.6578
  277MOL0     H37362   9.557   2.535   7.716  0.9047 -1.3972  2.5737
  277MOL0     H37363   9.446   2.769   7.726  1.2888  0.4905  0.2954
  277MOL0     H37364   9.417   2.727   7.893 -0.6827 -0.6756  0.1767
  277MOL0     H37365   9.692   2.697   7.771 -0.2545 -2.0470  0.8837
  277MOL0     H37366   9.661   2.727   7.935  1.1197  0.3182 -0.7050
  277MOL0     H37367   9.615   2.953   7.713  1.7316  1.9731  0.3354
  277MOL0     H37368   9.767   2.923   7.803 -0.1471  2.0587 -1.9389
  277MOL0     H37369   9.643   3.108   7.880 -0.4618  0.3550  2.1067
  277MOL0     H37370   9.521   2.987   7.954 -0.6709  1.4128 -1.2877
  277MOL0     H37371   9.816   3.004   8.012 -1.1123  0.4136 -2.1746
  277MOL0     H37372   9.706   2.912   8.103  1.3847  0.4197 -0.5150
  277MOL0     H37373   9.555   3.073   8.186  0.6203 -1.6029  0.9557
  277MOL0     H37374   9.708   3.099   8.245  0.3947  1.8880  0.4198
  277MOL0     H37375   9.115   2.513   7.539 -2.3362  0.3624 -0.5744
  277MOL0     H37376   8.890   2.380   7.544 -0.1404  0.0083 -0.9330
  277MOL0     H37377   8.609   2.182   7.738 -0.2258 -1.8453  1.7766
  277MOL0     H37378   8.368   2.103   7.759 -0.5870  0.2355 -0.1700
  277MOL0     H37379   6.836   2.699   7.845 -0.7098  1.2185 -1.4411
  277MOL0     H37380   6.684   2.853   7.974 -0.7901  0.9236  1.4443
  277MOL0     H37381   6.146   2.818   8.225  1.9113  0.0395  1.4461
  277MOL0     H37382   6.003   2.999   8.327 -0.6698  2.8399 -0.8013
  277MOL0     H37383   5.952   3.164   8.454 -0.7784  1.8390  1.2258
  277MOL0     H37384   5.839   3.186   8.329 -0.7009 -0.8714  1.0485
  277MOL0     H37385   5.882   3.432   8.353  3.0629  0.8582  1.2279
  277MOL0     H37386   5.967   3.401   8.500  0.2747 -0.2708  0.1138
  277MOL0     H37387   5.746   3.244   8.550 -3.9454  0.0068  0.9938
  277MOL0     H37388   5.670   3.353   8.425 -0.4149  1.1580  1.2787
  277MOL0     H37389   5.658   3.377   8.674  0.4967 -3.3192 -2.4826
  277MOL0     H37390   5.820   3.443   8.670 -0.5516  0.2763 -0.8578
  277MOL0     H37391   5.643   3.796   8.518 -0.2283 -0.4996 -1.9948
  277MOL0     H37392   6.229   3.282   8.098 -1.8942  0.6326 -0.8712
  277MOL0     H37393   6.333   3.183   7.889 -3.1086  0.3268  0.9594
  277MOL0     H37394   6.440   3.206   8.031 -0.1741  0.6610 -1.5649
  277MOL0     H37395   6.445   3.055   7.928 -1.6613 -2.0659 -0.1921
  278MOL0     O37396   4.159   2.245  10.466  0.3367 -0.5329  0.4138
  278MOL0     C37397   4.125   2.291  10.574  0.4990  0.3249 -1.0093
  278MOL0     O37398   4.202   2.355  10.662  0.3747 -0.1283 -0.7535
  278MOL0     C37399   4.330   2.397  10.633 -0.3016 -0.2330 -0.0939
  278MOL0     C37400   4.407   2.377  10.518 -0.4933  0.5786  0.1166
  278MOL0     C37401   4.547   2.405  10.516  1.0802 -0.1659 -0.4345
  278MOL0     C37402   4.600   2.470  10.627 -0.6314 -0.1983 -0.3792
  278MOL0     O37403   4.737   2.512  10.630  0.3701  0.9068 -0.3012
  278MOL0     C37404   4.815   2.495  10.513 -0.5202 -0.3011  0.0575
  278MOL0     C37405   4.955   2.524  10.561  0.0589 -0.4287  1.0560
  278MOL0     C37406   5.022   2.436  10.665 -0.3159 -0.3204  1.0677
  278MOL0     C37407   5.167   2.478  10.669 -0.2477  0.2691 -0.5259
  278MOL0     C37408   5.236   2.413  10.786 -0.8666  0.6933  0.3479
  278MOL0     C37409   5.280   2.513  10.888  0.5210 -0.5795 -0.4249
  278MOL0     C37410   5.348   2.436  11.007 -0.4653 -0.1828  0.0607
  278MOL0     C37411   5.422   2.534  11.100 -0.9715  0.4877  0.0801
  278MOL0     N37412   5.563   2.555  11.067  0.3503 -0.0908 -0.0244
  278MOL0     C37413   5.637   2.666  11.084 -0.4532  0.8612 -0.2766
  278MOL0     C37414   5.758   2.619  11.051 -0.5829  0.3558  0.2938
  278MOL0     C37415   5.887   2.691  11.044  1.0859 -0.0250  0.0508
  278MOL0     C37416   5.944   2.697  10.901 -0.2589  0.0622 -0.3210
  278MOL0     C37417   6.091   2.741  10.883  0.6932 -0.4186  0.0652
  278MOL0     C37418   6.188   2.639  10.955  0.1660  0.5458  0.0113
  278MOL0     O37419   6.189   2.504  10.904  0.3772 -0.0906  0.5863
  278MOL0     C37420   6.309   2.455  10.854  0.2594 -1.0996  0.6918
  278MOL0     C37421   6.309   2.399  10.729 -0.0033  0.5505 -0.0248
  278MOL0     C37422   6.431   2.348  10.673  0.4627  0.0393 -0.0534
  278MOL0     C37423   6.547   2.372  10.740 -0.0940  0.5290 -0.0570
  278MOL0     C37424   6.664   2.321  10.667 -0.9280 -0.7449 -0.6709
  278MOL0     O37425   6.644   2.249  10.552  0.1551 -0.4543 -0.2928
  278MOL0     C37426   6.747   2.213  10.466  0.0747  0.8410  1.1651
  278MOL0     C37427   6.719   2.192  10.330  0.2763  0.1689 -0.7701
  278MOL0     C37428   6.810   2.151  10.234 -0.8223  0.8716  0.5757
  278MOL0     C37429   6.947   2.135  10.268 -0.4399 -0.9170  0.3272
  278MOL0     O37430   7.049   2.079  10.193 -0.2325 -0.0671 -0.2614
  278MOL0     C37431   7.045   2.086  10.052 -0.4074  0.5037 -0.8086
  278MOL0     C37432   7.160   2.013   9.990 -0.4416  0.7125  0.6596
  278MOL0     C37433   7.292   2.092  10.008  0.0493 -0.1328 -0.5274
  278MOL0     C37434   7.402   2.021   9.936  0.4677 -1.1702 -0.0680
  278MOL0     C37435   7.525   2.113   9.934 -0.6007  0.0968  0.3628
  278MOL0     C37436   7.630   2.049   9.842  0.8706  0.7231  0.2134
  278MOL0     C37437   7.732   2.157   9.812  0.0224  0.3909 -0.4573
  278MOL0     C37438   7.829   2.104   9.704  0.6655 -0.5034 -0.0918
  278MOL0    Cl37439   7.959   2.024   9.793 -0.1033 -0.2664  0.3482
  278MOL0     C37440   6.975   2.156  10.407 -0.8115  0.4022  0.8952
  278MOL0     C37441   6.885   2.190  10.504 -0.2084 -0.7399  0.7233
  278MOL0     O37442   6.778   2.346  10.714  0.5187 -0.1857 -0.2963
  278MOL0     C37443   6.550   2.438  10.864  0.1184  0.2059  0.4488
  278MOL0     C37444   6.426   2.480  10.925  0.5368  0.4406 -0.0161
  278MOL0     N37445   5.757   2.480  11.037 -0.0873  0.2216  0.3323
  278MOL0     N37446   5.634   2.445  11.042 -0.1811  0.4075  0.4758
  278MOL0     C37447   4.519   2.504  10.740 -0.0636  0.3677 -0.3719
  278MOL0     C37448   4.393   2.463  10.743  0.9496 -0.2178 -0.3008
  278MOL0     C37449   3.998   2.237  10.613  0.5640  0.3629 -0.5706
  278MOL0     C37450   3.981   2.100  10.589  0.7809  0.6319 -0.1978
  278MOL0     C37451   3.860   2.046  10.619 -0.0140  0.7414 -0.6231
  278MOL0     C37452   3.747   2.115  10.666 -0.5175 -0.8185  0.4855
  278MOL0     O37453   3.638   2.039  10.698  0.7128  0.0245  0.1733
  278MOL0     C37454   3.515   2.101  10.732 -0.2715  0.5976  0.5901
  278MOL0     C37455   3.431   2.003  10.817  0.1011 -0.0748  0.4107
  278MOL0     C37456   3.358   1.898  10.734 -0.2783 -0.2399 -1.0004
  278MOL0     C37457   3.321   1.775  10.813  0.4362  0.0255  0.4037
  278MOL0     C37458   3.253   1.679  10.722 -0.1407 -0.2598  0.1728
  278MOL0     C37459   3.187   1.598  10.656  0.5336 -0.0042 -0.5371
  278MOL0     C37460   3.761   2.257  10.694  0.0650  0.6556 -0.5861
  278MOL0     C37461   3.889   2.309  10.677  0.3797 -0.2795  0.6978
  278MOL0     C37462   3.920   2.454  10.715 -0.2586 -0.3115  0.1497
  278MOL0     H37463   4.374   2.332  10.424 -0.1559 -0.3252  0.4169
  278MOL0     H37464   4.596   2.378  10.423 -0.7242 -0.6742 -1.3001
  278MOL0     H37465   4.803   2.390  10.486 -0.7496 -0.2413 -0.0756
  278MOL0     H37466   4.783   2.571  10.442 -0.3311 -1.0229 -0.8079
  278MOL0     H37467   4.954   2.628  10.596 -0.6230  0.9245 -2.4879
  278MOL0     H37468   5.027   2.525  10.479 -0.2886  1.0044  0.7341
  278MOL0     H37469   5.015   2.327  10.651  0.1177 -0.2194  0.0181
  278MOL0     H37470   4.969   2.464  10.757 -3.2304 -1.4138 -0.1532
  278MOL0     H37471   5.207   2.440  10.574 -0.1663  1.1777 -0.8658
  278MOL0     H37472   5.185   2.585  10.676 -0.2922  0.2641 -0.3347
  278MOL0     H37473   5.180   2.332  10.832 -1.3440  0.0873 -1.2449
  278MOL0     H37474   5.330   2.373  10.747 -1.6021  2.4220 -3.7301
  278MOL0     H37475   5.351   2.582  10.841 -2.1086  1.3961 -1.8061
  278MOL0     H37476   5.190   2.571  10.911  1.5837  2.6249 -3.4194
  278MOL0     H37477   5.420   2.364  10.968 -0.4846 -0.8728  1.2664
  278MOL0     H37478   5.275   2.374  11.060 -0.2880 -1.5688 -1.2669
  278MOL0     H37479   5.368   2.629  11.111 -3.0576 -0.5484 -0.6863
  278MOL0     H37480   5.442   2.495  11.200  2.5456  2.7657  0.4562
  278MOL0     H37481   5.604   2.765  11.112 -0.4210  0.6870  0.3899
  278MOL0     H37482   5.867   2.789  11.091 -3.6509 -0.0307 -1.4219
  278MOL0     H37483   5.964   2.642  11.104  1.3628  0.3130 -0.0196
  278MOL0     H37484   5.940   2.597  10.856 -1.4757 -0.9359  1.8744
  278MOL0     H37485   5.878   2.761  10.842  0.0769 -0.2275 -1.0260
  278MOL0     H37486   6.099   2.841  10.926 -3.3742  0.5714 -1.0635
  278MOL0     H37487   6.121   2.745  10.778 -1.3729  0.6866 -0.5448
  278MOL0     H37488   6.174   2.630  11.063  3.2543  2.6777  0.7403
  278MOL0     H37489   6.289   2.681  10.947  2.7360 -4.6861  0.6649
  278MOL0     H37490   6.215   2.391  10.675  0.4461 -1.6981 -0.5838
  278MOL0     H37491   6.436   2.305  10.573  0.7686  0.9781 -0.4538
  278MOL0     H37492   6.620   2.193  10.287  0.4848 -2.1836 -1.4325
  278MOL0     H37493   6.769   2.124  10.137 -3.3924 -0.6414  1.9662
  278MOL0     H37494   6.949   2.041  10.026 -1.2978 -0.4907  3.5464
  278MOL0     H37495   7.043   2.190  10.018  2.1584  0.3816 -1.5889
  278MOL0     H37496   7.168   1.909  10.023  0.5659  0.1577 -1.2226
  278MOL0     H37497   7.140   2.019   9.883  0.0730 -1.7622  0.3750
  278MOL0     H37498   7.280   2.188   9.956 -0.0680  0.1539  0.0229
  278MOL0     H37499   7.315   2.102  10.114 -1.1820  2.7258 -0.4220
  278MOL0     H37500   7.361   2.001   9.837 -0.7981  1.5369 -0.1981
  278MOL0     H37501   7.431   1.931   9.991  0.2361  0.6599  3.3748
  278MOL0     H37502   7.571   2.131  10.032  1.4203 -3.0682  0.1319
  278MOL0     H37503   7.491   2.207   9.889 -2.9623 -0.1624  1.4420
  278MOL0     H37504   7.685   1.971   9.897  1.6118 -0.0464 -1.5397
  278MOL0     H37505   7.585   2.009   9.751 -2.0463  2.2483  0.8733
  278MOL0     H37506   7.777   2.200   9.902 -0.3363  0.3370 -0.2494
  278MOL0     H37507   7.669   2.234   9.766 -1.0670 -0.9373 -1.2877
  278MOL0     H37508   7.787   2.021   9.647  0.3442 -0.0235 -0.5496
  278MOL0     H37509   7.860   2.179   9.632 -0.4746 -0.4217 -0.5103
  278MOL0     H37510   7.077   2.145  10.440 -0.5270  0.6932  0.1264
  278MOL0     H37511   6.922   2.213  10.603 -0.7892  2.3206  0.3279
  278MOL0     H37512   6.643   2.445  10.919  0.4781  1.9711 -0.3057
  278MOL0     H37513   6.414   2.516  11.027 -2.3518 -0.6722  0.1150
  278MOL0     H37514   4.558   2.556  10.826  0.2640  0.4569 -0.5712
  278MOL0     H37515   4.333   2.463  10.834  1.7131  0.7128  0.2111
  278MOL0     H37516   4.060   2.038  10.548 -1.2884  0.1890 -3.9458
  278MOL0     H37517   3.849   1.939  10.605 -0.1126  0.4808  1.2446
  278MOL0     H37518   3.462   2.115  10.637 -2.0362 -4.2090  0.5695
  278MOL0     H37519   3.523   2.191  10.793  0.7351  0.2533  0.9926
  278MOL0     H37520   3.360   2.065  10.873 -1.4476 -0.6431 -0.8637
  278MOL0     H37521   3.506   1.956  10.881 -1.1396 -1.2802  1.0292
  278MOL0     H37522   3.425   1.871  10.652  0.9789 -2.5081  0.6592
  278MOL0     H37523   3.264   1.944  10.701 -1.0537 -0.1552  1.1879
  278MOL0     H37524   3.417   1.739  10.850  0.9648  1.2591  0.3080
  278MOL0     H37525   3.249   1.791  10.894 -1.2817 -0.4336 -0.9465
  278MOL0     H37526   3.137   1.528  10.591  1.1294  1.8278 -3.1536
  278MOL0     H37527   3.679   2.317  10.731 -2.6024 -1.7800 -2.0952
  278MOL0     H37528   3.828   2.509  10.738 -1.2541 -2.0447  0.4925
  278MOL0     H37529   3.984   2.448  10.804  0.0022  0.8982  0.0677
  278MOL0     H37530   3.983   2.513  10.647  3.1177 -0.8938  2.5124
  279MOL0     O37531   7.214   6.602   1.280 -0.8632  0.6716 -0.4809
  279MOL0     C37532   7.166   6.689   1.202 -0.4227  0.0594  0.8990
  279MOL0     O37533   7.174   6.678   1.063  0.0458  0.1943  0.1395
  279MOL0     C37534   7.270   6.584   1.019  0.0263 -0.1430  0.2655
  279MOL0     C37535   7.397   6.625   0.984  0.4897 -0.9442  0.9456
  279MOL0     C37536   7.494   6.533   0.948 -0.5319  0.8995 -0.3081
  279MOL0     C37537   7.456   6.399   0.943  0.1006  0.3511  0.6157
  279MOL0     O37538   7.541   6.300   0.900 -0.6453  0.1911 -0.2427
  279MOL0     C37539   7.684   6.335   0.899  0.1165  0.1591 -0.9063
  279MOL0     C37540   7.779   6.215   0.876 -0.4955  0.4628 -0.0061
  279MOL0     C37541   7.926   6.240   0.921  0.1250  0.3682  0.5906
  279MOL0     C37542   7.988   6.366   0.851 -0.3115  0.6479  0.3070
  279MOL0     C37543   8.126   6.391   0.895 -0.4758  0.0737  0.0098
  279MOL0     C37544   8.139   6.427   1.049  0.3975 -0.2156 -0.4115
  279MOL0     C37545   8.053   6.532   1.112  0.3317  0.2242 -0.5107
  279MOL0     C37546   8.100   6.561   1.255  0.0069 -0.6805  0.3183
  279MOL0     N37547   8.091   6.453   1.352 -0.0791  0.4036 -0.6935
  279MOL0     C37548   8.004   6.439   1.454 -0.2053  0.8502  0.2623
  279MOL0     C37549   8.067   6.337   1.530  0.0904 -0.2680 -0.4918
  279MOL0     C37550   8.009   6.273   1.650 -0.2598 -1.0119 -0.1169
  279MOL0     C37551   8.065   6.323   1.779 -0.4852 -0.4399 -0.3721
  279MOL0     C37552   8.028   6.464   1.802 -0.0598 -0.0122 -0.6861
  279MOL0     C37553   7.874   6.487   1.796  0.8848 -0.1528 -0.4593
  279MOL0     O37554   7.871   6.625   1.842 -0.7465  0.2398 -0.4409
  279MOL0     C37555   7.748   6.684   1.838 -1.0330  0.3166  0.0506
  279MOL0     C37556   7.749   6.816   1.872 -1.2037 -0.5407  0.4726
  279MOL0     C37557   7.628   6.894   1.882  0.2604 -0.0425 -0.0990
  279MOL0     C37558   7.508   6.842   1.837 -0.4143  0.2421  0.0776
  279MOL0     C37559   7.388   6.925   1.853 -0.0676 -1.0411 -0.9188
  279MOL0     O37560   7.403   7.039   1.916 -0.8487 -0.3047 -0.2250
  279MOL0     C37561   7.299   7.130   1.932 -0.2207  0.3705 -0.1704
  279MOL0     C37562   7.330   7.263   1.925  0.0283 -0.1548 -0.0753
  279MOL0     C37563   7.231   7.362   1.955 -0.3720 -1.1116 -0.2606
  279MOL0     C37564   7.105   7.325   2.000  0.2496  0.6522  0.0680
  279MOL0     O37565   7.024   7.424   2.043  0.3831  0.2098 -0.0975
  279MOL0     C37566   6.923   7.389   2.145 -0.1933 -0.0616  0.0268
  279MOL0     C37567   6.786   7.350   2.102 -0.3276 -0.4218  0.3639
  279MOL0     C37568   6.688   7.379   2.220 -0.6735  0.0687  0.0361
  279MOL0     C37569   6.546   7.326   2.202 -1.4515 -0.4101  0.5897
  279MOL0     C37570   6.433   7.378   2.284 -0.5471  0.0410 -0.2444
  279MOL0     C37571   6.316   7.294   2.228  0.3197 -0.0507 -0.5924
  279MOL0     C37572   6.185   7.344   2.287  0.8657 -0.3629  0.2956
  279MOL0     C37573   6.065   7.266   2.237 -0.6062 -0.5755 -0.3031
  279MOL0    Cl37574   6.066   7.097   2.293 -0.0050 -0.2852 -0.5640
  279MOL0     C37575   7.069   7.194   1.991 -0.4735 -0.6376 -0.2924
  279MOL0     C37576   7.166   7.098   1.961 -0.2447 -0.1895  1.2097
  279MOL0     O37577   7.288   6.892   1.791 -0.3263 -0.3522  0.5540
  279MOL0     C37578   7.501   6.707   1.797  0.0863  0.1729 -0.1175
  279MOL0     C37579   7.626   6.632   1.800  0.7170 -0.3046  0.6268
  279MOL0     N37580   8.190   6.310   1.479 -0.2984  0.2327  0.2523
  279MOL0     N37581   8.196   6.369   1.368 -0.3942  0.9172 -0.2892
  279MOL0     C37582   7.327   6.354   0.969 -0.2924 -0.2278  0.6017
  279MOL0     C37583   7.234   6.449   1.012  0.4649  1.0448 -0.1745
  279MOL0     C37584   7.075   6.786   1.271  0.6205 -0.2334 -1.2537
  279MOL0     C37585   6.981   6.855   1.188 -0.0322  0.9316 -0.0386
  279MOL0     C37586   6.890   6.942   1.250 -0.4810  0.1729 -0.3165
  279MOL0     C37587   6.885   6.965   1.389 -0.1290 -0.3801  0.1822
  279MOL0     O37588   6.808   7.069   1.428  0.6512  0.1062  0.1804
  279MOL0     C37589   6.746   7.071   1.559 -0.0923  0.0511  0.7082
  279MOL0     C37590   6.796   7.186   1.644  0.3750 -0.1623 -0.0704
  279MOL0     C37591   6.763   7.311   1.567 -0.3899  0.4866  0.3487
  279MOL0     C37592   6.770   7.438   1.655  0.3451  0.0626  0.1632
  279MOL0     C37593   6.639   7.467   1.712 -0.6156 -0.2858 -0.3641
  279MOL0     C37594   6.547   7.491   1.791 -0.3847  0.8039  0.1611
  279MOL0     C37595   6.972   6.897   1.472  0.1202 -0.9338 -0.1755
  279MOL0     C37596   7.071   6.813   1.411 -1.2723  0.3254 -0.4012
  279MOL0     C37597   7.172   6.757   1.507 -0.2635 -0.1650  0.0929
  279MOL0     H37598   7.419   6.730   1.000 -0.3599 -0.2433 -1.8561
  279MOL0     H37599   7.589   6.579   0.924 -0.1415  2.0336  2.9046
  279MOL0     H37600   7.698   6.411   0.822 -2.6255  0.9462 -0.7216
  279MOL0     H37601   7.710   6.373   0.999  0.3614 -0.4983 -0.7178
  279MOL0     H37602   7.770   6.157   0.783 -3.1120 -0.9848  1.0362
  279MOL0     H37603   7.742   6.144   0.950 -0.7763  0.3821 -0.2206
  279MOL0     H37604   7.992   6.159   0.889  0.2971  0.2020  1.3371
  279MOL0     H37605   7.931   6.254   1.030  0.6054 -0.5018  0.6933
  279MOL0     H37606   7.989   6.336   0.745 -1.4337 -0.8981  0.7031
  279MOL0     H37607   7.926   6.453   0.872  1.3487  1.3620  2.5734
  279MOL0     H37608   8.173   6.292   0.889  0.5905  0.6293 -1.3563
  279MOL0     H37609   8.176   6.462   0.828 -0.5059  1.8889  1.8035
  279MOL0     H37610   8.128   6.332   1.102 -1.4259 -1.0612 -2.1735
  279MOL0     H37611   8.243   6.462   1.047  1.4404 -2.9123  1.2212
  279MOL0     H37612   7.950   6.498   1.126  1.2464 -1.5873  2.8733
  279MOL0     H37613   8.056   6.623   1.052 -2.6141  1.3060  0.7692
  279MOL0     H37614   8.207   6.581   1.257 -0.2382  0.6431  0.8704
  279MOL0     H37615   8.044   6.648   1.291  1.7844  0.4753  0.3688
  279MOL0     H37616   7.914   6.494   1.481  0.5108  1.9478  0.4743
  279MOL0     H37617   7.901   6.286   1.664  0.1252  5.2097 -0.0703
  279MOL0     H37618   8.036   6.167   1.643 -3.0970 -2.1806  3.2234
  279MOL0     H37619   8.017   6.266   1.859 -2.3817  0.8708 -0.5099
  279MOL0     H37620   8.174   6.310   1.783 -0.3127  1.0328  0.1325
  279MOL0     H37621   8.081   6.534   1.736 -0.4739 -0.5961 -1.6498
  279MOL0     H37622   8.075   6.486   1.898  0.8237  0.5914 -1.2389
  279MOL0     H37623   7.816   6.419   1.860  0.9249 -0.9860 -1.2877
  279MOL0     H37624   7.830   6.477   1.696 -1.3708  0.1124  0.4412
  279MOL0     H37625   7.847   6.858   1.890 -1.6261  1.5792 -1.6724
  279MOL0     H37626   7.635   6.995   1.922 -1.0329 -0.2860  0.7880
  279MOL0     H37627   7.431   7.298   1.904  0.2374 -1.3193 -1.0422
  279MOL0     H37628   7.242   7.470   1.953 -1.6030 -0.9620  0.1269
  279MOL0     H37629   6.964   7.325   2.223 -0.6294 -0.1633  0.1775
  279MOL0     H37630   6.912   7.486   2.195  0.7190  0.3523 -0.5543
  279MOL0     H37631   6.769   7.421   2.020  0.4916 -0.9628 -0.2940
  279MOL0     H37632   6.773   7.252   2.054  1.8943 -1.1784  1.1867
  279MOL0     H37633   6.732   7.320   2.301  0.1466  0.0180 -0.4404
  279MOL0     H37634   6.690   7.487   2.239  0.5734  0.2124 -0.8112
  279MOL0     H37635   6.548   7.217   2.208  1.1445 -0.4194  0.6889
  279MOL0     H37636   6.535   7.360   2.099 -1.3244 -0.6853  0.4859
  279MOL0     H37637   6.420   7.484   2.262 -0.9271  0.0975  0.2630
  279MOL0     H37638   6.454   7.359   2.390  1.3190 -3.6776 -1.0812
  279MOL0     H37639   6.301   7.299   2.120 -1.3462 -0.5939 -0.4240
  279MOL0     H37640   6.333   7.188   2.247  1.8138  0.3323  0.3558
  279MOL0     H37641   6.162   7.450   2.269  1.1901 -0.5699 -1.4258
  279MOL0     H37642   6.183   7.328   2.396 -1.1532 -0.2647  0.3088
  279MOL0     H37643   5.963   7.288   2.270 -1.5700 -4.7931  0.1295
  279MOL0     H37644   6.058   7.277   2.128 -2.6927  2.4039  0.0122
  279MOL0     H37645   6.969   7.162   2.017  0.4438 -3.3317  0.2921
  279MOL0     H37646   7.144   6.992   1.964 -0.8211 -0.2061 -1.4698
  279MOL0     H37647   7.404   6.668   1.766 -1.0482  2.7266 -0.0241
  279MOL0     H37648   7.625   6.527   1.772 -0.6296 -0.4391  1.0884
  279MOL0     H37649   7.299   6.249   0.970  3.6137 -1.4616 -1.5460
  279MOL0     H37650   7.134   6.424   1.046  0.6469  0.8556  0.2359
  279MOL0     H37651   6.995   6.840   1.082 -0.8641 -1.7069  0.1516
  279MOL0     H37652   6.819   6.994   1.186 -1.1328 -0.1355  0.1376
  279MOL0     H37653   6.763   6.978   1.613  1.7452  0.3493  0.7028
  279MOL0     H37654   6.639   7.082   1.537  0.0513 -2.4677 -1.7308
  279MOL0     H37655   6.902   7.162   1.659  0.2473 -0.1517  0.9487
  279MOL0     H37656   6.751   7.173   1.743  2.3413 -0.2366  0.8556
  279MOL0     H37657   6.668   7.306   1.514 -0.6157  2.8425  0.4389
  279MOL0     H37658   6.848   7.315   1.498  1.0405 -3.6279  1.5793
  279MOL0     H37659   6.846   7.431   1.734 -1.1766 -0.7572  1.6044
  279MOL0     H37660   6.795   7.519   1.585  1.7429 -0.3117  0.1984
  279MOL0     H37661   6.465   7.512   1.858 -1.4936  0.0496 -0.9133
  279MOL0     H37662   6.975   6.921   1.577 -1.0877 -2.4070  0.2390
  279MOL0     H37663   7.161   6.804   1.605 -1.4619  0.8402 -0.4812
  279MOL0     H37664   7.159   6.649   1.517 -1.3266  0.0385  1.0955
  279MOL0     H37665   7.273   6.777   1.470 -0.6959 -1.2316 -1.8052
  280MOL0     O37666   3.794   2.379   0.965 -0.1926  0.0689 -0.1184
  280MOL0     C37667   3.758   2.342   1.074  1.2814  0.3520  0.3983
  280MOL0     O37668   3.832   2.291   1.178 -0.0041  0.3935  0.3521
  280MOL0     C37669   3.964   2.270   1.149  0.1194 -0.4544 -0.1165
  280MOL0     C37670   3.998   2.147   1.100  0.2954  0.0751  0.7314
  280MOL0     C37671   4.123   2.130   1.045  0.0721  0.5946 -0.2698
  280MOL0     C37672   4.220   2.228   1.053  0.7366 -0.0079 -0.1882
  280MOL0     O37673   4.341   2.211   1.010 -0.3234  0.3123  0.4286
  280MOL0     C37674   4.419   2.127   1.094 -0.1702 -0.7387 -0.0203
  280MOL0     C37675   4.560   2.114   1.045 -0.7920  0.1285  0.5962
  280MOL0     C37676   4.638   2.003   1.117 -0.1523  0.1980  0.6487
  280MOL0     C37677   4.580   1.866   1.119 -0.2585  0.0797 -0.0542
  280MOL0     C37678   4.687   1.774   1.184  0.0131  0.4109  0.3797
  280MOL0     C37679   4.728   1.805   1.322 -0.0623  0.0291 -0.6444
  280MOL0     C37680   4.875   1.860   1.335  1.2592 -0.7814 -0.4162
  280MOL0     C37681   4.986   1.756   1.328 -0.3408  0.1760 -0.3537
  280MOL0     N37682   5.108   1.809   1.390 -0.9694 -0.3903  0.0960
  280MOL0     C37683   5.208   1.872   1.319  0.6820 -0.6683 -0.3873
  280MOL0     C37684   5.284   1.924   1.424  0.0855 -0.2236 -0.2293
  280MOL0     C37685   5.409   2.001   1.412 -0.1194 -0.1417  0.6217
  280MOL0     C37686   5.530   1.901   1.405  0.3106  0.1453  0.1633
  280MOL0     C37687   5.659   1.971   1.357  0.2313 -0.0366  0.0748
  280MOL0     C37688   5.770   1.907   1.426 -0.7570 -0.0013 -0.5541
  280MOL0     O37689   5.898   1.978   1.392 -0.1256 -0.7756 -0.0077
  280MOL0     C37690   6.004   1.942   1.470 -0.0189  0.3964  0.3051
  280MOL0     C37691   6.104   2.043   1.489  0.4566  0.4425  0.3530
  280MOL0     C37692   6.232   2.016   1.546  0.7020 -0.1127  0.2927
  280MOL0     C37693   6.254   1.889   1.593 -0.9916  0.0411  1.0075
  280MOL0     C37694   6.387   1.866   1.655  0.2080  0.5697  0.0283
  280MOL0     O37695   6.465   1.974   1.675 -0.4545 -0.5055 -0.5098
  280MOL0     C37696   6.593   1.958   1.720 -0.4296 -0.6026  0.0425
  280MOL0     C37697   6.636   2.027   1.830  0.2805 -0.4027 -1.1067
  280MOL0     C37698   6.761   2.014   1.887  0.1686  0.1367 -0.6363
  280MOL0     C37699   6.861   1.943   1.816  0.3275  0.0801  0.0017
  280MOL0     O37700   6.983   1.932   1.873 -0.7424  0.8174 -0.2990
  280MOL0     C37701   7.052   1.809   1.890  0.7798  0.2044 -0.8014
  280MOL0     C37702   7.143   1.771   1.775 -0.3795 -0.5576  0.4447
  280MOL0     C37703   7.283   1.834   1.810  0.2408  0.0149  0.3728
  280MOL0     C37704   7.376   1.810   1.690  0.4278  0.6651  0.3009
  280MOL0     C37705   7.520   1.847   1.724 -0.6706  0.3601  0.3046
  280MOL0     C37706   7.614   1.799   1.616 -0.1046  0.1744 -0.0441
  280MOL0     C37707   7.763   1.834   1.648  0.1161 -0.1098 -0.1345
  280MOL0     C37708   7.852   1.793   1.540  0.1971  0.2394 -0.0008
  280MOL0    Cl37709   7.854   1.612   1.553  0.6758 -0.1039  0.5858
  280MOL0     C37710   6.825   1.868   1.700  0.2618  0.9850 -0.0051
  280MOL0     C37711   6.688   1.878   1.651  0.4169  0.0285 -0.5270
  280MOL0     O37712   6.414   1.752   1.690 -0.0330  1.2855 -0.4041
  280MOL0     C37713   6.148   1.793   1.600  0.9658 -0.5235 -0.6081
  280MOL0     C37714   6.024   1.824   1.542  1.4818  0.1005  0.4101
  280MOL0     N37715   5.231   1.897   1.550  0.8594  0.6342 -0.5097
  280MOL0     N37716   5.127   1.821   1.525 -0.3098  0.0529  0.2048
  280MOL0     C37717   4.178   2.354   1.108  0.2606 -0.2913  0.3066
  280MOL0     C37718   4.050   2.373   1.163 -0.1400  0.3398 -0.1586
  280MOL0     C37719   3.612   2.348   1.101 -0.4841  0.0462  0.4226
  280MOL0     C37720   3.547   2.245   1.157  0.0037  0.1843 -0.1395
  280MOL0     C37721   3.408   2.231   1.167 -0.1751 -0.1658 -0.2223
  280MOL0     C37722   3.326   2.338   1.121 -0.0688 -0.4703 -0.7472
  280MOL0     O37723   3.187   2.347   1.134 -0.0777  0.3973  0.7869
  280MOL0     C37724   3.131   2.288   1.249 -0.1796 -0.2935 -0.1957
  280MOL0     C37725   3.001   2.362   1.274  0.4407  0.3409  0.5787
  280MOL0     C37726   2.951   2.340   1.413 -0.4822 -0.1032 -0.1928
  280MOL0     C37727   2.827   2.423   1.431 -0.6250  0.5792 -0.1683
  280MOL0     C37728   2.703   2.357   1.383 -1.0356 -0.1416  0.7617
  280MOL0     C37729   2.606   2.296   1.348 -0.5209  0.0967  0.8789
  280MOL0     C37730   3.403   2.450   1.073  0.2272 -0.0549 -0.0841
  280MOL0     C37731   3.540   2.463   1.065 -1.2209  0.7212  0.1321
  280MOL0     C37732   3.595   2.588   0.999 -0.3042 -0.1357 -0.7312
  280MOL0     H37733   3.923   2.068   1.105  0.5731 -0.2538 -0.1313
  280MOL0     H37734   4.151   2.032   1.007  0.3526 -0.5122  2.5769
  280MOL0     H37735   4.424   2.173   1.193 -0.9672 -1.6242  0.4495
  280MOL0     H37736   4.366   2.033   1.110 -1.6129 -0.1459 -1.1424
  280MOL0     H37737   4.622   2.204   1.054 -1.0185  0.2248  1.2176
  280MOL0     H37738   4.558   2.093   0.938  1.6090  0.5892  0.4062
  280MOL0     H37739   4.662   2.037   1.218  2.4188  0.0223  0.1713
  280MOL0     H37740   4.732   2.000   1.061 -0.3329  4.9750 -0.3633
  280MOL0     H37741   4.492   1.864   1.185  0.1956 -1.1702  0.5365
  280MOL0     H37742   4.545   1.828   1.023 -0.1986 -1.1697  0.4062
  280MOL0     H37743   4.635   1.678   1.184 -2.7352  1.7658 -1.7443
  280MOL0     H37744   4.774   1.769   1.118 -1.8127  0.2388 -2.1527
  280MOL0     H37745   4.665   1.886   1.361  4.1883  2.6450  1.5359
  280MOL0     H37746   4.719   1.716   1.386  1.7944 -0.9982 -1.7224
  280MOL0     H37747   4.869   1.910   1.432  1.6051  0.0346 -0.8061
  280MOL0     H37748   4.898   1.936   1.259  0.0693 -1.1130 -1.1442
  280MOL0     H37749   4.939   1.668   1.371 -0.4587  0.4156  0.0144
  280MOL0     H37750   5.012   1.729   1.225 -1.1115  0.4431 -0.6272
  280MOL0     H37751   5.241   1.883   1.216  0.7737  2.2323 -0.1253
  280MOL0     H37752   5.405   2.060   1.320  2.8385 -3.2956 -1.7796
  280MOL0     H37753   5.417   2.078   1.490 -0.6197  2.8553 -2.0689
  280MOL0     H37754   5.545   1.830   1.487  3.8092  0.2750 -0.1999
  280MOL0     H37755   5.513   1.830   1.324  0.9697 -0.1515  0.2776
  280MOL0     H37756   5.661   2.075   1.393  1.6445  0.1451 -0.4689
  280MOL0     H37757   5.663   1.967   1.248 -1.6317 -0.3623 -0.0214
  280MOL0     H37758   5.776   1.804   1.389  3.7704 -1.3448  2.9574
  280MOL0     H37759   5.751   1.911   1.534  0.3520 -0.9974 -0.2987
  280MOL0     H37760   6.081   2.145   1.461  2.0286  0.8133  0.3166
  280MOL0     H37761   6.311   2.090   1.552  0.5377  0.1778 -0.8576
  280MOL0     H37762   6.565   2.084   1.889  1.8183  0.8061 -0.3526
  280MOL0     H37763   6.771   2.077   1.975 -1.0063  0.4796 -0.7233
  280MOL0     H37764   7.119   1.802   1.977 -1.4253 -2.6013  0.8530
  280MOL0     H37765   6.979   1.731   1.912  0.6248  0.5544 -0.0314
  280MOL0     H37766   7.159   1.663   1.764  3.8793  0.1370 -3.3722
  280MOL0     H37767   7.103   1.807   1.679 -0.1024  0.3920  0.6743
  280MOL0     H37768   7.282   1.942   1.825  3.4615  0.2735 -0.4598
  280MOL0     H37769   7.319   1.781   1.899 -0.8174  0.8844  1.3425
  280MOL0     H37770   7.335   1.857   1.600 -1.5925 -2.1820 -0.3944
  280MOL0     H37771   7.368   1.701   1.681 -3.1286  0.7648  0.8311
  280MOL0     H37772   7.549   1.797   1.817 -2.8980 -0.2568  0.7312
  280MOL0     H37773   7.531   1.952   1.750  0.7367  0.4549 -0.6161
  280MOL0     H37774   7.602   1.693   1.592 -0.9589  0.2583 -0.0222
  280MOL0     H37775   7.596   1.847   1.519 -0.4416 -0.8004 -0.4750
  280MOL0     H37776   7.798   1.779   1.735  1.4651 -2.3863 -2.0007
  280MOL0     H37777   7.775   1.942   1.667  2.1271 -0.6706  2.2571
  280MOL0     H37778   7.805   1.833   1.449 -0.8756  1.8967  1.2053
  280MOL0     H37779   7.948   1.845   1.548 -0.2553  0.7733  3.3921
  280MOL0     H37780   6.903   1.813   1.649 -0.8902 -0.1272 -0.6144
  280MOL0     H37781   6.654   1.837   1.556 -0.7460  2.7171 -1.3581
  280MOL0     H37782   6.166   1.696   1.646  0.7073 -0.5336 -0.5276
  280MOL0     H37783   5.954   1.742   1.539  1.4267 -0.0885 -6.0546
  280MOL0     H37784   4.258   2.425   1.126  2.0596 -2.0117 -0.5775
  280MOL0     H37785   4.007   2.462   1.208  0.6917  0.1315  1.1169
  280MOL0     H37786   3.610   2.161   1.186  1.7498  1.2264 -0.7718
  280MOL0     H37787   3.363   2.141   1.206 -1.2276  0.6277  0.4409
  280MOL0     H37788   3.195   2.308   1.335 -0.5932  0.2098  0.0058
  280MOL0     H37789   3.129   2.179   1.245  1.6064 -0.3333 -2.0196
  280MOL0     H37790   2.926   2.323   1.205  2.4590  0.9653 -2.1290
  280MOL0     H37791   3.010   2.469   1.250  1.8810 -0.1752 -1.4641
  280MOL0     H37792   3.020   2.384   1.486 -0.1548  2.8845 -2.1122
  280MOL0     H37793   2.930   2.233   1.425  0.8523 -0.3518  0.0666
  280MOL0     H37794   2.804   2.427   1.538 -3.5024 -0.7242 -0.6383
  280MOL0     H37795   2.846   2.524   1.394 -0.8061 -0.1066 -2.2428
  280MOL0     H37796   2.521   2.237   1.320 -1.0703  0.8330  0.9515
  280MOL0     H37797   3.340   2.538   1.064  0.4192  0.2025  1.0268
  280MOL0     H37798   3.544   2.675   1.040  2.2125  1.5349 -0.9378
  280MOL0     H37799   3.699   2.619   1.017 -0.1265 -1.5220  0.9089
  280MOL0     H37800   3.567   2.584   0.894 -2.0533  1.9425 -0.4115
  281MOL0     O37801   9.595   8.937  10.363  0.1130 -0.4624  0.2124
  281MOL0     C37802   9.596   8.889  10.476 -0.1049 -0.2171 -0.4466
  281MOL0     O37803   9.713   8.872  10.552  0.7997  0.8550 -0.0142
  281MOL0     C37804   9.830   8.899  10.482 -0.3130 -0.1417 -0.2415
  281MOL0     C37805   9.885   8.806  10.398  0.7226  0.1470 -0.1452
  281MOL0     C37806  10.004   8.835  10.337  0.3067  0.5194  0.3109
  281MOL0     C37807  10.065   8.962  10.360 -0.0906 -0.1959  1.4336
  281MOL0     O37808  10.171   9.011  10.286 -0.1501 -0.2641 -0.0365
  281MOL0     C37809  10.270   8.917  10.240 -0.6449  0.0745 -0.4281
  281MOL0     C37810  10.405   8.979  10.250 -0.6702  0.0072 -0.0669
  281MOL0     C37811  10.512   8.882  10.192  0.6663  0.0387  0.0483
  281MOL0     C37812  10.647   8.948  10.185  0.5867 -0.3320  0.0097
  281MOL0     C37813  10.760   8.863  10.128  0.2639  0.3404 -0.0340
  281MOL0     C37814  10.895   8.929  10.136  0.3282  0.1128  0.7148
  281MOL0     C37815  10.913   9.039  10.027 -0.5493  0.7903  0.0073
  281MOL0     C37816  11.056   9.103  10.054  0.0675  0.4800  0.5327
  281MOL0     N37817  11.077   9.221   9.968 -0.6326  0.1032  0.2854
  281MOL0     C37818  11.193   9.269   9.921  0.0624  0.6133 -0.6332
  281MOL0     C37819  11.170   9.391   9.865 -0.4064  1.2704 -0.6033
  281MOL0     C37820  11.275   9.480   9.822 -0.0241 -0.5232 -0.4970
  281MOL0     C37821  11.227   9.624   9.784  0.1438 -0.8405  0.6651
  281MOL0     C37822  11.327   9.707   9.703  0.2637  0.2093 -0.4585
  281MOL0     C37823  11.458   9.735   9.777 -0.1789  0.5246 -0.2233
  281MOL0     O37824  11.530   9.829   9.692 -0.3562  0.3779  0.8020
  281MOL0     C37825  11.666   9.842   9.713  0.1845 -0.4154 -0.5102
  281MOL0     C37826  11.744   9.913   9.615  0.5865  0.3720  0.0084
  281MOL0     C37827  11.885   9.930   9.632  0.3771 -0.0060 -0.4442
  281MOL0     C37828  11.947   9.867   9.741  0.3457  0.0172  0.1946
  281MOL0     C37829  12.095   9.881   9.757  1.0622  0.5142  1.3059
  281MOL0     O37830  12.154   9.955   9.654  0.9084  0.2178 -0.4221
  281MOL0     C37831  12.274   9.910   9.619 -0.9093 -0.6530  0.4048
  281MOL0     C37832  12.393   9.971   9.666  0.0742 -0.7378 -0.8702
  281MOL0     C37833  12.517   9.938   9.609 -0.3016  0.0809 -0.0618
  281MOL0     C37834  12.525   9.829   9.520 -0.0663  0.0223 -0.9394
  281MOL0     O37835  12.636   9.787   9.450 -0.2614  1.0216  0.6246
  281MOL0     C37836  12.763   9.807   9.507  0.1217 -0.7543  0.0661
  281MOL0     C37837  12.883   9.793   9.401  0.5032  0.3327 -0.9066
  281MOL0     C37838  12.890   9.652   9.348  0.3378  0.1965  0.2808
  281MOL0     C37839  13.006   9.620   9.259 -0.8393  0.6041  0.1796
  281MOL0     C37840  12.991   9.488   9.183 -0.4608 -0.0587 -0.0580
  281MOL0     C37841  13.131   9.455   9.120  1.1307 -0.5700 -0.0490
  281MOL0     C37842  13.145   9.312   9.070 -0.9454 -0.3704 -0.3739
  281MOL0     C37843  13.288   9.249   9.080  0.3881 -0.0577  0.7975
  281MOL0    Cl37844  13.415   9.357   9.016  0.1820 -0.0884 -0.4914
  281MOL0     C37845  12.413   9.761   9.481 -0.1921  0.0779 -0.2595
  281MOL0     C37846  12.288   9.804   9.527  0.4019  0.5932 -0.7508
  281MOL0     O37847  12.153   9.817   9.840  0.3414 -0.3735 -0.0893
  281MOL0     C37848  11.870   9.792   9.840 -0.2286  0.0984  0.3407
  281MOL0     C37849  11.727   9.785   9.825  0.8083 -0.4642  0.5952
  281MOL0     N37850  11.031   9.418   9.863 -0.0310 -0.0521  0.0338
  281MOL0     N37851  10.977   9.310   9.920 -0.4048 -0.3247 -0.0270
  281MOL0     C37852  10.015   9.046  10.454  0.6220  0.3672 -0.2673
  281MOL0     C37853   9.892   9.016  10.512 -0.2024  0.7090 -0.3015
  281MOL0     C37854   9.462   8.842  10.529 -0.0761  0.8414 -0.0207
  281MOL0     C37855   9.469   8.768  10.650 -0.7099 -0.5976  0.1030
  281MOL0     C37856   9.356   8.718  10.708 -0.3062  0.0154 -0.3555
  281MOL0     C37857   9.230   8.733  10.650 -0.0484  0.1381  0.4582
  281MOL0     O37858   9.118   8.664  10.694 -0.5304  0.6671  0.0083
  281MOL0     C37859   9.118   8.616  10.824  0.5632  0.7059 -0.7566
  281MOL0     C37860   8.962   8.588  10.851 -0.2982 -0.4421 -0.1785
  281MOL0     C37861   8.920   8.604  10.998 -0.5792  0.0670 -0.1488
  281MOL0     C37862   9.005   8.519  11.093 -0.4402 -0.4529  0.3122
  281MOL0     C37863   8.961   8.551  11.231  0.0530  0.2062  0.4214
  281MOL0     C37864   8.936   8.561  11.346 -1.0321  0.4797 -0.6170
  281MOL0     C37865   9.222   8.816  10.530  0.1868 -0.8697  0.1231
  281MOL0     C37866   9.339   8.866  10.471  0.0540  0.8252  0.8104
  281MOL0     C37867   9.316   8.942  10.341 -0.1800 -0.1630 -0.8113
  281MOL0     H37868   9.839   8.708  10.385 -0.0340  0.4458  0.2632
  281MOL0     H37869  10.059   8.768  10.272  3.0418 -2.4088  5.1634
  281MOL0     H37870  10.276   8.821  10.291 -0.0020 -0.9137 -2.2662
  281MOL0     H37871  10.253   8.890  10.135  0.4230  2.0696 -1.1649
  281MOL0     H37872  10.427   9.005  10.354  1.7912 -4.0115  0.6424
  281MOL0     H37873  10.419   9.070  10.191 -2.6259 -1.0714 -2.3727
  281MOL0     H37874  10.484   8.861  10.089 -2.1495  0.8617  0.5481
  281MOL0     H37875  10.533   8.790  10.247  2.1168 -0.1062 -0.7088
  281MOL0     H37876  10.644   9.040  10.126 -1.1174  0.1825  0.8386
  281MOL0     H37877  10.679   8.980  10.284  1.8916  0.4830 -0.6434
  281MOL0     H37878  10.763   8.770  10.185  0.6559  0.2943 -0.1228
  281MOL0     H37879  10.728   8.834  10.027  0.2600  0.1471  0.0221
  281MOL0     H37880  10.922   8.964  10.236  2.5687 -2.4902  1.1394
  281MOL0     H37881  10.964   8.849  10.106 -2.3474 -1.8307 -0.7059
  281MOL0     H37882  10.832   9.108  10.050 -0.9603  0.1116  0.6388
  281MOL0     H37883  10.907   9.007   9.922  0.7656  1.7125 -0.3732
  281MOL0     H37884  11.067   9.136  10.157  1.5399  2.9893 -0.3544
  281MOL0     H37885  11.138   9.032  10.041 -1.3167 -0.9221 -1.2120
  281MOL0     H37886  11.287   9.215   9.929 -0.5029 -0.1382  2.7159
  281MOL0     H37887  11.354   9.481   9.897 -0.6519 -0.7720  0.1879
  281MOL0     H37888  11.317   9.444   9.728 -0.7232  1.4604 -1.6508
  281MOL0     H37889  11.132   9.625   9.730 -0.3092 -1.7696  1.4196
  281MOL0     H37890  11.206   9.662   9.884  3.4456 -2.8256  2.3049
  281MOL0     H37891  11.292   9.810   9.686 -1.4491 -0.6576 -2.7578
  281MOL0     H37892  11.337   9.672   9.600  3.3364 -0.1215 -0.1426
  281MOL0     H37893  11.501   9.636   9.792 -2.8761 -0.5522  0.8688
  281MOL0     H37894  11.441   9.778   9.876 -0.9488  0.5789 -0.3755
  281MOL0     H37895  11.700   9.955   9.525  2.4218  2.3650 -0.0373
  281MOL0     H37896  11.938   9.973   9.547 -0.8340 -0.9105 -1.6931
  281MOL0     H37897  12.398  10.044   9.746 -0.8249  2.3598 -3.4384
  281MOL0     H37898  12.599  10.002   9.640 -0.6278 -0.4566  2.0568
  281MOL0     H37899  12.770   9.911   9.542 -0.3866 -0.4653 -0.6602
  281MOL0     H37900  12.760   9.733   9.588 -1.9066  0.7109  1.4294
  281MOL0     H37901  12.871   9.863   9.318 -1.7870 -1.1215 -1.9228
  281MOL0     H37902  12.980   9.814   9.448  0.3121 -0.9115  0.1161
  281MOL0     H37903  12.881   9.586   9.434 -0.7825 -1.5748 -1.1152
  281MOL0     H37904  12.795   9.650   9.293  0.4133  1.9258  0.0437
  281MOL0     H37905  13.098   9.621   9.318 -0.6546 -1.2995 -0.0038
  281MOL0     H37906  13.037   9.701   9.192  2.5231 -0.1352  0.6814
  281MOL0     H37907  12.912   9.492   9.107  1.2109 -0.6206 -1.9206
  281MOL0     H37908  12.968   9.406   9.252 -0.7913 -0.0366 -0.1396
  281MOL0     H37909  13.154   9.526   9.039 -0.3603  0.1574  0.1316
  281MOL0     H37910  13.210   9.474   9.193  0.9822 -1.8644  0.4668
  281MOL0     H37911  13.101   9.302   8.971  1.4130 -1.2264 -1.4133
  281MOL0     H37912  13.085   9.258   9.144 -2.0879  3.7380  2.0274
  281MOL0     H37913  13.286   9.244   9.189 -2.8198  3.1824  1.0667
  281MOL0     H37914  13.294   9.153   9.027  0.8483  0.0672  0.6168
  281MOL0     H37915  12.408   9.676   9.413 -1.2524  0.6535 -0.9376
  281MOL0     H37916  12.197   9.756   9.492 -0.2181  0.7268  0.5730
  281MOL0     H37917  11.908   9.747   9.931 -1.5910  0.3277  1.0544
  281MOL0     H37918  11.671   9.742   9.908  0.0093 -0.2028  0.2058
  281MOL0     H37919  10.066   9.137  10.482  0.4822 -0.0350  1.4026
  281MOL0     H37920   9.833   9.080  10.576 -1.3088 -2.5213  2.1930
  281MOL0     H37921   9.571   8.754  10.684 -0.3786  0.7630 -0.2721
  281MOL0     H37922   9.360   8.669  10.804  0.4102 -0.1399 -0.4601
  281MOL0     H37923   9.158   8.693  10.891 -0.4991 -1.1152  2.1967
  281MOL0     H37924   9.172   8.521  10.829 -0.0360  0.4248  1.2992
  281MOL0     H37925   8.931   8.489  10.817 -0.3153 -0.7241  0.6386
  281MOL0     H37926   8.910   8.658  10.785  0.6319  1.7994  1.3556
  281MOL0     H37927   8.813   8.583  11.008 -0.4923  0.3976  2.0835
  281MOL0     H37928   8.936   8.709  11.022 -0.5626  0.1889 -0.6952
  281MOL0     H37929   8.996   8.411  11.084  3.6667 -1.1539  2.3198
  281MOL0     H37930   9.111   8.544  11.078 -0.7103  3.1365  2.9127
  281MOL0     H37931   8.904   8.567  11.448 -0.3994 -0.9113 -0.3055
  281MOL0     H37932   9.122   8.815  10.487  0.0914  3.9763 -0.3675
  281MOL0     H37933   9.373   8.897  10.259 -0.1901 -1.9704  0.1094
  281MOL0     H37934   9.213   8.959  10.311  0.4285  0.9977 -2.3680
  281MOL0     H37935   9.344   9.045  10.368 -2.5671  0.1279  0.9089
  282MOL0     O37936   8.212  11.144  10.000  0.6290  0.2719  0.1472
  282MOL0     C37937   8.138  11.139  10.095 -0.0931  0.1054  0.1390
  282MOL0     O37938   8.180  11.108  10.227  0.3289 -0.0540  0.2718
  282MOL0     C37939   8.310  11.073  10.235 -0.4851 -0.0177  0.1538
  282MOL0     C37940   8.359  10.954  10.170 -0.5872 -1.1738  0.2620
  282MOL0     C37941   8.492  10.910  10.194  0.6540 -0.3085 -0.4141
  282MOL0     C37942   8.574  10.985  10.283  0.5397  0.5345 -0.3350
  282MOL0     O37943   8.707  10.973  10.316 -0.5100 -0.0405 -0.8011
  282MOL0     C37944   8.786  10.888  10.234  0.3034 -0.4843 -0.1453
  282MOL0     C37945   8.935  10.919  10.257  1.1713  0.7579 -0.7691
  282MOL0     C37946   8.974  11.051  10.201  0.3728  0.9015  0.1581
  282MOL0     C37947   9.117  11.080  10.241 -0.6325  0.7911  0.4581
  282MOL0     C37948   9.171  11.215  10.203  0.5024  0.3473 -0.4721
  282MOL0     C37949   9.316  11.237  10.249 -0.9842  0.8746  1.0451
  282MOL0     C37950   9.420  11.151  10.167  0.3596 -0.2392  0.9049
  282MOL0     C37951   9.483  11.036  10.252  0.3096 -0.2056 -0.0592
  282MOL0     N37952   9.573  11.078  10.359 -0.3261 -0.3220  0.2948
  282MOL0     C37953   9.648  11.192  10.355 -0.6543 -0.1610 -0.2771
  282MOL0     C37954   9.767  11.153  10.415  1.2809  0.5706 -0.9650
  282MOL0     C37955   9.873  11.252  10.453  0.5073  0.0029 -0.0895
  282MOL0     C37956   9.968  11.279  10.329 -0.5629  0.5043 -0.2223
  282MOL0     C37957  10.048  11.406  10.356  1.5854 -0.0439 -0.3347
  282MOL0     C37958  10.185  11.373  10.406 -0.0332 -0.6307  0.0422
  282MOL0     O37959  10.229  11.491  10.476  0.5551  0.2853  0.1214
  282MOL0     C37960  10.333  11.461  10.559 -0.7599 -0.7291  0.2324
  282MOL0     C37961  10.314  11.442  10.697 -0.2287  1.0965 -0.0164
  282MOL0     C37962  10.432  11.416  10.786  0.4556  0.3618  0.5288
  282MOL0     C37963  10.560  11.427  10.724 -0.5597 -0.2259  0.5786
  282MOL0     C37964  10.683  11.408  10.810  0.2213  0.2564  0.5962
  282MOL0     O37965  10.811  11.430  10.754 -0.3284  0.0979  0.0240
  282MOL0     C37966  10.931  11.408  10.827  0.0141 -0.1831  0.6223
  282MOL0     C37967  10.942  11.316  10.929 -0.7155 -0.2080 -0.4499
  282MOL0     C37968  11.061  11.325  11.008 -0.1709  0.0274 -0.4205
  282MOL0     C37969  11.168  11.414  10.979 -0.7081 -0.0836  0.1817
  282MOL0     O37970  11.280  11.403  11.052  0.5088  0.8009  0.3278
  282MOL0     C37971  11.380  11.496  11.028  0.2779 -1.1137 -0.1534
  282MOL0     C37972  11.485  11.503  11.148  0.8383  0.9243 -0.4216
  282MOL0     C37973  11.591  11.393  11.125 -0.6988  0.1241 -0.6835
  282MOL0     C37974  11.695  11.416  11.242  0.4808  0.2248  0.3059
  282MOL0     C37975  11.788  11.294  11.263  0.7097 -1.3431 -0.6993
  282MOL0     C37976  11.903  11.280  11.155  0.2372  0.2163  0.0100
  282MOL0     C37977  11.978  11.141  11.175 -0.6350  0.0018  0.1920
  282MOL0     C37978  12.065  11.106  11.051 -0.4075  0.8145  0.0379
  282MOL0    Cl37979  12.211  11.212  11.072 -0.2363  0.0203  0.0028
  282MOL0     C37980  11.149  11.509  10.876  0.0723  0.0683  0.4037
  282MOL0     C37981  11.031  11.500  10.800 -0.5655  0.3810  0.2055
  282MOL0     O37982  10.663  11.375  10.926  0.2993 -0.9180 -0.1665
  282MOL0     C37983  10.575  11.465  10.590 -0.2135 -0.6784  0.6646
  282MOL0     C37984  10.463  11.473  10.506 -0.5246 -0.9417 -0.5508
  282MOL0     N37985   9.754  11.035  10.470  0.3606  0.1705 -0.6437
  282MOL0     N37986   9.644  10.983  10.420 -0.7105  0.3799  0.0607
  282MOL0     C37987   8.522  11.100  10.351  0.4737 -0.2417  0.0929
  282MOL0     C37988   8.392  11.143  10.325  0.2483 -0.0874 -0.1038
  282MOL0     C37989   7.996  11.161  10.058  0.0953 -1.4057 -0.5955
  282MOL0     C37990   7.914  11.220  10.158  0.0321  0.5878 -0.2039
  282MOL0     C37991   7.771  11.231  10.139 -0.3129  0.1282  0.2362
  282MOL0     C37992   7.713  11.197  10.010 -0.5726 -0.7200 -0.6378
  282MOL0     O37993   7.578  11.209   9.986  0.0745 -0.2585  0.5787
  282MOL0     C37994   7.491  11.286  10.073  0.1270  0.3584  0.3833
  282MOL0     C37995   7.348  11.296  10.025 -0.9043 -0.2881 -0.2182
  282MOL0     C37996   7.297  11.164   9.957 -0.0299 -0.4073  0.1543
  282MOL0     C37997   7.159  11.166   9.900  0.0147 -0.1806  0.5704
  282MOL0     C37998   7.051  11.187   9.996  0.7523 -0.3186 -0.8362
  282MOL0     C37999   6.961  11.205  10.076 -0.2829 -0.9074 -0.4813
  282MOL0     C38000   7.796  11.147   9.921  0.7969  0.5296  0.8868
  282MOL0     C38001   7.928  11.125   9.934  0.6239  0.8866  0.7086
  282MOL0     C38002   8.005  11.077   9.811  0.0384 -0.2538 -0.3746
  282MOL0     H38003   8.298  10.887  10.110  0.2789 -0.5647 -1.3692
  282MOL0     H38004   8.531  10.825  10.139  0.0220 -0.6980 -0.2654
  282MOL0     H38005   8.774  10.784  10.265 -1.0320 -0.1514  0.5635
  282MOL0     H38006   8.759  10.892  10.128 -2.0395  0.7230  0.4190
  282MOL0     H38007   8.995  10.843  10.205 -0.6383  0.3703 -2.4039
  282MOL0     H38008   8.970  10.906  10.360  1.8997 -0.7015 -1.1606
  282MOL0     H38009   8.910  11.129  10.243 -1.4074 -1.1806  1.5180
  282MOL0     H38010   8.967  11.050  10.092 -0.5113 -1.3875  0.1825
  282MOL0     H38011   9.117  11.066  10.349 -0.8275 -2.3080  0.1616
  282MOL0     H38012   9.179  10.998  10.202 -0.5424  0.9354  0.2954
  282MOL0     H38013   9.156  11.243  10.098 -1.6828 -1.4487 -0.7076
  282MOL0     H38014   9.101  11.280  10.257  2.1502  1.0271  0.9622
  282MOL0     H38015   9.340  11.344  10.240  0.2271  0.5210 -0.2501
  282MOL0     H38016   9.332  11.218  10.356 -0.8386 -0.0335  0.8655
  282MOL0     H38017   9.497  11.216  10.124 -0.2748 -0.2764 -0.3359
  282MOL0     H38018   9.362  11.103  10.088 -1.9507  2.3967  0.8271
  282MOL0     H38019   9.398  10.979  10.290  1.4170 -1.2752  0.9137
  282MOL0     H38020   9.543  10.971  10.187  0.2322  0.3916 -0.7342
  282MOL0     H38021   9.631  11.289  10.309 -0.0468 -0.2222 -0.6500
  282MOL0     H38022   9.822  11.343  10.484  0.9331  0.8479 -1.7289
  282MOL0     H38023   9.930  11.215  10.538 -0.8729  0.0911  0.9133
  282MOL0     H38024  10.037  11.195  10.316  1.2748  1.8760  0.3927
  282MOL0     H38025   9.900  11.282  10.242 -0.8229 -0.5348 -0.0716
  282MOL0     H38026   9.985  11.458  10.428  0.2657 -1.7748 -0.1448
  282MOL0     H38027  10.045  11.460  10.261 -0.3919  0.0362 -0.2732
  282MOL0     H38028  10.251  11.348  10.322 -0.3902  0.5446 -0.6080
  282MOL0     H38029  10.171  11.289  10.475  1.1919 -2.0662 -1.3732
  282MOL0     H38030  10.217  11.427  10.742  0.1625  0.0885  0.5329
  282MOL0     H38031  10.427  11.398  10.893 -1.8127  0.0743  0.4292
  282MOL0     H38032  10.865  11.245  10.960 -0.4557  0.3506  1.6860
  282MOL0     H38033  11.068  11.254  11.090  0.0546 -0.7583 -1.1054
  282MOL0     H38034  11.432  11.466  10.937 -0.4968 -0.9166 -0.6767
  282MOL0     H38035  11.342  11.598  11.014  0.0195 -1.3282 -1.0539
  282MOL0     H38036  11.530  11.602  11.144  1.3285  0.7898  1.1554
  282MOL0     H38037  11.424  11.479  11.236  1.7029 -3.3996 -0.8010
  282MOL0     H38038  11.549  11.292  11.133  0.9062 -0.5268 -0.0700
  282MOL0     H38039  11.646  11.415  11.032 -0.2495 -1.4108 -0.8089
  282MOL0     H38040  11.641  11.438  11.334 -0.4641  1.8271 -0.5750
  282MOL0     H38041  11.753  11.500  11.205  0.7013  0.9669  2.2684
  282MOL0     H38042  11.731  11.201  11.252 -0.1422 -0.6263 -2.8881
  282MOL0     H38043  11.825  11.304  11.366 -1.9304 -0.4860  0.2265
  282MOL0     H38044  11.858  11.281  11.056 -0.2058  0.8917  0.2126
  282MOL0     H38045  11.970  11.367  11.154  1.8706 -0.9704  0.7665
  282MOL0     H38046  11.904  11.062  11.192 -2.8275  2.4100  2.7685
  282MOL0     H38047  12.046  11.149  11.260 -1.7858  1.5107  1.0260
  282MOL0     H38048  12.093  11.000  11.049  0.8841  1.1371 -1.6711
  282MOL0     H38049  12.005  11.136  10.964 -1.2454  3.1874  1.3388
  282MOL0     H38050  11.231  11.575  10.851  3.0926 -0.9494  5.9713
  282MOL0     H38051  11.020  11.563  10.712 -0.4433  0.2888  0.1233
  282MOL0     H38052  10.669  11.485  10.541 -0.1384 -1.5113  0.4564
  282MOL0     H38053  10.481  11.484  10.400  2.8611  1.3358  0.1055
  282MOL0     H38054   8.579  11.174  10.406 -0.8600 -0.8796  2.4478
  282MOL0     H38055   8.344  11.227  10.375  0.2561  0.5755 -1.1779
  282MOL0     H38056   7.954  11.251  10.254  2.3220 -0.2406 -0.8071
  282MOL0     H38057   7.719  11.268  10.226 -2.0883 -2.5849  0.4529
  282MOL0     H38058   7.534  11.387  10.083 -0.3763  0.9032 -2.1920
  282MOL0     H38059   7.492  11.240  10.172 -1.4073 -0.2346  0.1369
  282MOL0     H38060   7.338  11.380   9.957  0.3935  0.2351  0.2028
  282MOL0     H38061   7.295  11.324  10.116  1.8745  2.4928  0.7031
  282MOL0     H38062   7.299  11.086  10.034 -3.1698  0.5619  1.3642
  282MOL0     H38063   7.363  11.144   9.872 -2.5362  2.0470 -2.6410
  282MOL0     H38064   7.151  11.249   9.830 -3.6752 -0.3008  0.6837
  282MOL0     H38065   7.138  11.068   9.855  0.5155  0.5227 -1.2997
  282MOL0     H38066   6.873  11.216  10.136 -2.1071 -0.2967 -3.0928
  282MOL0     H38067   7.766  11.109   9.824 -0.2617  0.1871  1.3256
  282MOL0     H38068   8.083  11.009   9.845 -1.5337 -1.4419  1.0190
  282MOL0     H38069   7.940  11.021   9.743  1.0462 -0.5520 -1.1331
  282MOL0     H38070   8.040  11.165   9.756 -0.5840  0.3295  0.1434
  283MOL0     O38071   5.750   5.978   2.931  0.1325  0.2852  0.0236
  283MOL0     C38072   5.675   6.059   2.884 -0.6154 -1.0089 -0.4583
  283MOL0     O38073   5.717   6.187   2.842  0.5813  0.4377 -0.0058
  283MOL0     C38074   5.849   6.198   2.810 -1.1183 -0.6563 -0.2298
  283MOL0     C38075   5.943   6.210   2.912 -0.4421  0.3100  0.3982
  283MOL0     C38076   6.081   6.229   2.879  0.0996  0.1941  0.0222
  283MOL0     C38077   6.118   6.235   2.741  0.2459 -0.9652  0.2550
  283MOL0     O38078   6.248   6.243   2.698 -0.2181  0.1192  0.7561
  283MOL0     C38079   6.330   6.336   2.772 -0.3969 -1.0446  0.1564
  283MOL0     C38080   6.452   6.380   2.681 -0.0761  0.8084  0.4358
  283MOL0     C38081   6.410   6.473   2.569  0.0832 -0.8049  1.1403
  283MOL0     C38082   6.529   6.526   2.490 -1.2471  0.2134 -0.0472
  283MOL0     C38083   6.494   6.614   2.371  0.0672 -0.6642 -0.8286
  283MOL0     C38084   6.615   6.680   2.312  0.4225  0.2553  0.2381
  283MOL0     C38085   6.577   6.774   2.201  0.0330 -0.6085  0.1575
  283MOL0     C38086   6.528   6.912   2.243 -0.0248  0.0361 -0.0017
  283MOL0     N38087   6.474   6.968   2.115 -0.3070 -0.0192 -0.6810
  283MOL0     C38088   6.336   6.989   2.100  0.2024  0.6869 -0.2370
  283MOL0     C38089   6.334   7.041   1.974  0.2924 -0.6872  0.5302
  283MOL0     C38090   6.220   7.105   1.898 -0.2985  0.2474 -0.5651
  283MOL0     C38091   6.090   7.022   1.894  0.6244  0.2548 -0.4226
  283MOL0     C38092   5.966   7.110   1.860  0.0007  0.6799 -0.9504
  283MOL0     C38093   5.841   7.026   1.886 -0.4817 -0.0626 -0.1797
  283MOL0     O38094   5.744   7.079   1.792  0.6138  0.3760  0.1507
  283MOL0     C38095   5.620   7.026   1.786 -0.0217  0.5972 -0.2371
  283MOL0     C38096   5.586   6.903   1.848  1.0679  0.3389  0.8485
  283MOL0     C38097   5.457   6.845   1.822  0.4570 -0.9383  0.6002
  283MOL0     C38098   5.361   6.914   1.737  0.2745  1.0094 -0.5960
  283MOL0     C38099   5.227   6.845   1.712 -0.5960  0.6995  0.0993
  283MOL0     O38100   5.177   6.753   1.806  0.5042 -0.2486 -0.7288
  283MOL0     C38101   5.049   6.706   1.784 -0.5789 -0.1485  0.5071
  283MOL0     C38102   5.006   6.645   1.666 -0.4984  0.4095 -0.6597
  283MOL0     C38103   4.884   6.577   1.642  0.4036 -0.4823 -0.1975
  283MOL0     C38104   4.799   6.569   1.755 -0.1913 -0.3075  0.8135
  283MOL0     O38105   4.685   6.495   1.757  0.4064 -0.2905  0.7524
  283MOL0     C38106   4.695   6.365   1.692  0.0447  0.0867 -0.0059
  283MOL0     C38107   4.641   6.260   1.787 -0.0518 -0.8733 -0.3074
  283MOL0     C38108   4.506   6.294   1.847 -0.2697 -0.2373 -0.3455
  283MOL0     C38109   4.457   6.177   1.934  0.0710  0.4697 -0.8008
  283MOL0     C38110   4.347   6.199   2.031  0.3987  0.6217 -0.1250
  283MOL0     C38111   4.332   6.083   2.135  0.0025  0.7626  0.3947
  283MOL0     C38112   4.245   6.116   2.256  0.8346 -0.3962  0.4719
  283MOL0     C38113   4.317   6.232   2.341  0.7289 -0.5563  1.0203
  283MOL0    Cl38114   4.496   6.196   2.375  0.4925  0.0051  0.2303
  283MOL0     C38115   4.828   6.644   1.875 -0.9260  0.2492 -0.6292
  283MOL0     C38116   4.951   6.709   1.887  0.1640  1.3282 -0.2180
  283MOL0     O38117   5.164   6.881   1.610  0.0814  0.2065  0.2362
  283MOL0     C38118   5.398   7.030   1.681 -0.0693  0.5456 -0.0764
  283MOL0     C38119   5.524   7.086   1.704 -0.1400  0.2572 -0.5840
  283MOL0     N38120   6.456   7.047   1.917 -0.3845 -0.2790  0.2077
  283MOL0     N38121   6.544   7.006   2.004  0.0705 -0.1926 -0.8422
  283MOL0     C38122   6.022   6.218   2.642 -0.2448  0.9004  0.4294
  283MOL0     C38123   5.893   6.206   2.676 -0.0696  0.3981  0.7411
  283MOL0     C38124   5.527   6.029   2.871  0.8878  0.5038  0.0481
  283MOL0     C38125   5.458   6.122   2.791 -0.5315 -0.5506  0.1675
  283MOL0     C38126   5.319   6.117   2.766 -0.2482  0.3161  0.9483
  283MOL0     C38127   5.252   6.011   2.811  1.3634  0.2406  0.1311
  283MOL0     O38128   5.117   5.991   2.801  0.0575  0.6295 -0.1829
  283MOL0     C38129   5.053   6.097   2.885 -1.5360 -0.1271  0.2704
  283MOL0     C38130   4.940   6.168   2.809  0.1733  0.8407  0.8520
  283MOL0     C38131   4.801   6.111   2.835  0.8762  1.1552  0.7106
  283MOL0     C38132   4.698   6.182   2.745 -0.1285  0.1304  1.3296
  283MOL0     C38133   4.567   6.144   2.796  0.6438  0.2970 -0.5928
  283MOL0     C38134   4.458   6.137   2.849  0.7738  0.1969 -0.1840
  283MOL0     C38135   5.319   5.910   2.887 -0.1682  0.2387 -0.0028
  283MOL0     C38136   5.454   5.917   2.917 -0.4319  0.5785 -0.2736
  283MOL0     C38137   5.525   5.820   3.007  0.5719 -0.1157  0.2917
  283MOL0     H38138   5.913   6.204   3.016  0.6631 -1.1077  0.6551
  283MOL0     H38139   6.156   6.236   2.958 -0.5744 -0.8495  0.7860
  283MOL0     H38140   6.268   6.425   2.790  1.4324  0.6689 -1.5034
  283MOL0     H38141   6.379   6.294   2.860 -0.6856 -1.7704 -0.0239
  283MOL0     H38142   6.482   6.284   2.638 -1.0277  1.3781 -1.6293
  283MOL0     H38143   6.522   6.425   2.752  0.3696 -0.6118  0.9270
  283MOL0     H38144   6.364   6.568   2.596 -1.8722 -1.5380  0.5136
  283MOL0     H38145   6.345   6.423   2.497  1.2859  0.1684 -0.7012
  283MOL0     H38146   6.590   6.591   2.553 -1.5971  0.8879 -0.3871
  283MOL0     H38147   6.596   6.446   2.456 -2.3802 -1.0701  0.6176
  283MOL0     H38148   6.442   6.560   2.291  1.5826  1.1609 -3.2157
  283MOL0     H38149   6.427   6.695   2.402 -1.5059 -2.1505 -0.2017
  283MOL0     H38150   6.671   6.736   2.388  1.0918  0.0096 -0.0707
  283MOL0     H38151   6.677   6.599   2.272 -2.2699 -0.2652 -3.3179
  283MOL0     H38152   6.505   6.722   2.138 -0.7532 -0.1849  0.6843
  283MOL0     H38153   6.667   6.781   2.140 -0.4624 -0.7304 -0.6013
  283MOL0     H38154   6.450   6.906   2.319 -0.0166 -0.8748 -0.0594
  283MOL0     H38155   6.610   6.969   2.288  0.8796 -0.2621 -1.2259
  283MOL0     H38156   6.257   6.991   2.174  0.6293 -0.5093  0.2750
  283MOL0     H38157   6.191   7.188   1.962 -3.2583 -1.3307  0.3845
  283MOL0     H38158   6.234   7.136   1.794 -0.6799  0.0463 -0.6809
  283MOL0     H38159   6.095   6.946   1.815 -3.4765 -1.1449  0.4548
  283MOL0     H38160   6.074   6.967   1.987 -0.1627 -2.2213 -1.9137
  283MOL0     H38161   5.971   7.132   1.753  2.8058  2.0464 -0.6295
  283MOL0     H38162   5.958   7.194   1.930  1.5927  1.4168 -1.5919
  283MOL0     H38163   5.803   7.046   1.987  0.4589 -0.7152  0.3271
  283MOL0     H38164   5.849   6.918   1.873 -3.8058 -0.3680 -0.5839
  283MOL0     H38165   5.644   6.844   1.918  1.1855  1.9745  2.2143
  283MOL0     H38166   5.434   6.752   1.873  0.0629 -1.5121 -0.6037
  283MOL0     H38167   5.090   6.635   1.598  0.9065  0.4189  0.9952
  283MOL0     H38168   4.869   6.535   1.543  1.1467  0.1125 -0.5739
  283MOL0     H38169   4.638   6.363   1.599  0.9011 -0.8060 -0.5348
  283MOL0     H38170   4.800   6.352   1.665  0.6550  1.0624  1.6875
  283MOL0     H38171   4.634   6.168   1.728  0.7832 -1.3451  0.3102
  283MOL0     H38172   4.709   6.239   1.870 -1.2720 -0.7662  0.7503
  283MOL0     H38173   4.525   6.385   1.905 -0.5018  0.9341 -2.0072
  283MOL0     H38174   4.431   6.325   1.773 -0.9674 -1.6046 -0.2334
  283MOL0     H38175   4.541   6.140   1.993 -2.5556  0.2608  3.1520
  283MOL0     H38176   4.426   6.097   1.867  2.1268  1.4764 -3.1622
  283MOL0     H38177   4.250   6.207   1.982 -0.9217  1.2039  2.3973
  283MOL0     H38178   4.360   6.293   2.086 -0.2113  1.5030 -1.4360
  283MOL0     H38179   4.298   5.988   2.093  0.1501 -0.8186  3.5489
  283MOL0     H38180   4.435   6.064   2.166  1.5487  3.3436 -2.5369
  283MOL0     H38181   4.242   6.019   2.307  0.7550 -1.4229 -1.4240
  283MOL0     H38182   4.145   6.150   2.228  0.9187  2.4259  3.0129
  283MOL0     H38183   4.321   6.332   2.296  3.2563 -0.2327  1.8144
  283MOL0     H38184   4.256   6.240   2.432 -2.2677 -4.0143 -0.4063
  283MOL0     H38185   4.760   6.637   1.959 -0.2713 -1.0680 -0.1888
  283MOL0     H38186   4.997   6.760   1.972  5.9147  0.4652 -2.3336
  283MOL0     H38187   5.332   7.086   1.615 -1.8443 -0.8716  0.3966
  283MOL0     H38188   5.558   7.176   1.653 -1.3786  0.0334 -1.8647
  283MOL0     H38189   6.056   6.219   2.539 -0.5873 -1.6850  0.2192
  283MOL0     H38190   5.830   6.202   2.589  0.9124  1.3506 -0.0462
  283MOL0     H38191   5.506   6.209   2.746 -2.5728  0.3974 -0.3029
  283MOL0     H38192   5.272   6.197   2.711 -0.1396 -1.0987 -1.3212
  283MOL0     H38193   5.125   6.174   2.912 -0.7162 -1.2131  1.3245
  283MOL0     H38194   5.012   6.059   2.979 -0.7643 -1.2215  0.1931
  283MOL0     H38195   4.963   6.167   2.703  1.1739 -0.0990  1.0609
  283MOL0     H38196   4.944   6.275   2.831 -0.3046  1.1555 -0.4940
  283MOL0     H38197   4.777   6.120   2.942 -0.0074 -1.2017  0.7671
  283MOL0     H38198   4.801   6.004   2.816  1.5958  0.4999  3.7767
  283MOL0     H38199   4.717   6.289   2.736  1.7796 -0.2346  0.5863
  283MOL0     H38200   4.705   6.140   2.645 -0.2359 -2.5979  2.3841
  283MOL0     H38201   4.363   6.120   2.894 -1.2071 -0.3011 -4.1188
  283MOL0     H38202   5.272   5.816   2.915  2.3226 -1.1360 -0.0757
  283MOL0     H38203   5.552   5.868   3.102 -3.7553  2.5407  0.4573
  283MOL0     H38204   5.454   5.739   3.026  0.7476 -0.7633 -1.6136
  283MOL0     H38205   5.617   5.786   2.958 -0.4061  0.4273 -2.0031
  284MOL0     O38206   9.361   5.045   7.551 -0.7160 -0.2279  0.5242
  284MOL0     C38207   9.440   5.145   7.545 -0.1597 -0.0515  0.5569
  284MOL0     O38208   9.465   5.215   7.432 -0.2446  0.1322 -0.1462
  284MOL0     C38209   9.370   5.219   7.331 -0.1026 -0.2111  0.5179
  284MOL0     C38210   9.416   5.224   7.200 -0.2021 -0.2567 -0.5484
  284MOL0     C38211   9.328   5.242   7.093 -0.1957  0.2707  0.7141
  284MOL0     C38212   9.189   5.252   7.115  0.0819  0.8622  0.2912
  284MOL0     O38213   9.083   5.274   7.022 -0.6715  0.2553 -0.3839
  284MOL0     C38214   9.003   5.163   7.004 -0.5845 -0.0858  0.1463
  284MOL0     C38215   8.915   5.189   6.881  0.4819 -0.6009 -0.8463
  284MOL0     C38216   8.851   5.064   6.810 -0.1669 -0.1390  0.6421
  284MOL0     C38217   8.758   5.116   6.693  0.0151  0.0545 -0.5037
  284MOL0     C38218   8.666   5.008   6.619 -0.0669 -0.4663 -0.3415
  284MOL0     C38219   8.598   4.902   6.699 -0.1330  0.0632 -0.5566
  284MOL0     C38220   8.511   4.801   6.621  0.1582 -0.2093 -0.7907
  284MOL0     C38221   8.572   4.722   6.506  0.1381  0.3265 -0.4227
  284MOL0     N38222   8.480   4.628   6.433  0.7677 -0.5955 -0.1033
  284MOL0     C38223   8.344   4.622   6.428 -0.5087 -0.8788  0.0473
  284MOL0     C38224   8.308   4.501   6.371 -0.8794  0.0455 -0.6057
  284MOL0     C38225   8.166   4.441   6.361 -0.3722 -0.7307  0.0950
  284MOL0     C38226   8.162   4.306   6.441 -0.2445  0.4684 -0.4686
  284MOL0     C38227   8.013   4.269   6.481 -0.0700 -0.2347 -0.2826
  284MOL0     C38228   7.989   4.136   6.563  0.2467 -0.2704 -0.5688
  284MOL0     O38229   8.028   4.133   6.698 -0.2111 -0.5320  0.6900
  284MOL0     C38230   8.149   4.091   6.740  0.1853 -0.3786  0.2290
  284MOL0     C38231   8.236   4.027   6.653 -0.0744  0.7410  0.3189
  284MOL0     C38232   8.364   3.987   6.701 -0.4997 -0.4900  1.2348
  284MOL0     C38233   8.405   4.018   6.831 -0.3454 -0.8926  0.6589
  284MOL0     C38234   8.534   3.974   6.876  0.4917  0.1700 -1.2108
  284MOL0     O38235   8.569   4.022   6.998  0.6635  0.2328 -0.3602
  284MOL0     C38236   8.687   3.968   7.054  0.5612 -0.3766 -0.1992
  284MOL0     C38237   8.686   3.875   7.157  0.9072  0.7805 -1.2020
  284MOL0     C38238   8.809   3.832   7.215  1.4090 -0.3161 -1.1019
  284MOL0     C38239   8.932   3.877   7.165 -0.4130 -0.0218  0.3322
  284MOL0     O38240   9.042   3.817   7.222 -0.7175  0.6702 -0.2211
  284MOL0     C38241   9.175   3.844   7.175 -0.7122  0.0959 -0.2356
  284MOL0     C38242   9.275   3.755   7.248 -0.4886  0.0307  0.3998
  284MOL0     C38243   9.295   3.814   7.393 -0.0175 -0.0504  0.2710
  284MOL0     C38244   9.403   3.730   7.469  0.9393 -1.4401  0.4534
  284MOL0     C38245   9.358   3.588   7.488 -0.8817 -0.2520  0.2680
  284MOL0     C38246   9.437   3.528   7.597 -0.0876 -0.4926 -0.3460
  284MOL0     C38247   9.398   3.386   7.619 -0.3383  0.2876 -0.1583
  284MOL0     C38248   9.429   3.338   7.764 -0.1761 -0.1810 -0.5100
  284MOL0    Cl38249   9.356   3.175   7.784 -0.3559  0.3038 -0.2697
  284MOL0     C38250   8.937   3.978   7.075  1.4215 -0.4931  0.1308
  284MOL0     C38251   8.806   4.028   7.017  0.1317  0.1481  0.0870
  284MOL0     O38252   8.596   3.888   6.813  0.2147 -0.5499  0.0886
  284MOL0     C38253   8.319   4.079   6.921  0.5125 -0.0354  0.9929
  284MOL0     C38254   8.187   4.112   6.878  1.0017 -0.0925  0.0894
  284MOL0     N38255   8.419   4.427   6.344  0.0575  0.4629 -0.2153
  284MOL0     N38256   8.519   4.504   6.382  0.5944  0.4408 -0.5508
  284MOL0     C38257   9.145   5.244   7.250  0.8968 -0.7605 -0.6651
  284MOL0     C38258   9.237   5.231   7.351  0.3100  0.3233 -0.3229
  284MOL0     C38259   9.537   5.178   7.654 -0.3787  0.2538 -0.1643
  284MOL0     C38260   9.598   5.300   7.664 -0.6077 -1.0615  0.3417
  284MOL0     C38261   9.685   5.334   7.772 -0.6724 -1.1711  0.3546
  284MOL0     C38262   9.701   5.242   7.879 -0.2637 -0.7620 -0.0332
  284MOL0     O38263   9.790   5.279   7.979 -0.0149  0.2915  0.0494
  284MOL0     C38264   9.834   5.185   8.083 -0.0745 -0.3712 -0.6088
  284MOL0     C38265   9.907   5.278   8.173  0.4492 -0.9737  0.2606
  284MOL0     C38266   9.958   5.196   8.298 -0.0831  0.3680 -0.5682
  284MOL0     C38267  10.071   5.102   8.272  0.4967  0.0035  0.6606
  284MOL0     C38268  10.185   5.183   8.228  0.2764  0.4685 -0.9841
  284MOL0     C38269  10.281   5.235   8.184 -0.8431 -0.3701 -0.1824
  284MOL0     C38270   9.637   5.123   7.870  0.3773  0.0349 -0.4616
  284MOL0     C38271   9.549   5.090   7.770  0.3103 -0.1336  0.6230
  284MOL0     C38272   9.466   4.964   7.788 -0.1308  0.3070  0.2508
  284MOL0     H38273   9.522   5.206   7.182 -0.4854 -1.9190 -0.7319
  284MOL0     H38274   9.362   5.232   6.990 -0.8644  0.4771  0.4650
  284MOL0     H38275   9.061   5.072   6.989 -2.6701 -1.3080 -0.9773
  284MOL0     H38276   8.937   5.147   7.090  0.9370 -0.6360  1.2606
  284MOL0     H38277   8.975   5.245   6.808 -0.4375 -0.0522 -1.1916
  284MOL0     H38278   8.838   5.259   6.916  0.6440 -0.7581 -0.1556
  284MOL0     H38279   8.789   5.001   6.874 -0.7426 -0.1273  0.0964
  284MOL0     H38280   8.935   5.010   6.765  0.2849 -0.8706  2.2921
  284MOL0     H38281   8.694   5.185   6.748  3.4333  1.1996  2.4611
  284MOL0     H38282   8.810   5.174   6.616  2.4424 -1.3178 -0.0034
  284MOL0     H38283   8.602   5.063   6.550 -0.4438  0.8491  1.0069
  284MOL0     H38284   8.729   4.955   6.547  0.8781 -0.0656  0.1670
  284MOL0     H38285   8.675   4.843   6.750 -0.3010  0.3880  0.0857
  284MOL0     H38286   8.539   4.961   6.770  1.4379 -1.0055  1.7724
  284MOL0     H38287   8.430   4.867   6.589  2.5224  2.2659 -2.2123
  284MOL0     H38288   8.468   4.734   6.696 -0.2727 -0.4954 -1.2868
  284MOL0     H38289   8.607   4.791   6.428 -0.7747 -1.5478 -2.6287
  284MOL0     H38290   8.659   4.667   6.543  2.3339  3.0311 -1.2251
  284MOL0     H38291   8.267   4.693   6.457 -3.6058 -1.7696 -4.8680
  284MOL0     H38292   8.092   4.511   6.400  0.9353  1.3524 -0.9985
  284MOL0     H38293   8.146   4.410   6.258 -3.0187 -1.5765  0.7753
  284MOL0     H38294   8.211   4.229   6.380  0.9785  0.8563 -0.0025
  284MOL0     H38295   8.210   4.320   6.538  1.3199 -4.6241 -0.1979
  284MOL0     H38296   7.959   4.272   6.386  4.3974  1.8188 -3.0875
  284MOL0     H38297   7.988   4.353   6.546  0.1022 -0.0460 -0.4594
  284MOL0     H38298   8.041   4.060   6.503  4.3999  0.9032  1.1890
  284MOL0     H38299   7.882   4.122   6.582  0.0996 -0.5724 -1.5797
  284MOL0     H38300   8.212   4.002   6.550 -3.0388 -0.0796  1.0913
  284MOL0     H38301   8.417   3.922   6.632 -0.1509  1.4452 -0.4181
  284MOL0     H38302   8.592   3.845   7.202  0.9360 -2.3224 -2.8928
  284MOL0     H38303   8.794   3.778   7.308  1.5217  1.3339 -0.0841
  284MOL0     H38304   9.166   3.823   7.068  1.7718  0.2243 -0.5361
  284MOL0     H38305   9.211   3.946   7.191 -1.7033  0.5462 -0.8108
  284MOL0     H38306   9.231   3.656   7.263 -0.7674  0.0342 -0.3679
  284MOL0     H38307   9.370   3.748   7.195 -1.4076 -1.1577 -1.1576
  284MOL0     H38308   9.303   3.923   7.381 -0.4962 -0.2099 -1.9382
  284MOL0     H38309   9.202   3.802   7.450  2.6844 -3.9500  4.5031
  284MOL0     H38310   9.418   3.771   7.569 -2.9894 -2.9245  1.8726
  284MOL0     H38311   9.497   3.726   7.414 -0.4085  0.4974 -2.2197
  284MOL0     H38312   9.376   3.526   7.399 -3.3702  0.3008 -0.7164
  284MOL0     H38313   9.251   3.582   7.506 -0.8165  0.0046  0.7611
  284MOL0     H38314   9.544   3.528   7.575 -0.3531 -1.3483 -1.8307
  284MOL0     H38315   9.427   3.581   7.692 -0.3299 -2.3048  0.6894
  284MOL0     H38316   9.437   3.310   7.550 -2.3633 -1.3360  0.3951
  284MOL0     H38317   9.290   3.376   7.611 -0.1282 -1.6396 -1.3571
  284MOL0     H38318   9.538   3.340   7.774 -0.2218 -0.5418  0.1390
  284MOL0     H38319   9.386   3.413   7.831  1.8263  0.3909  0.2152
  284MOL0     H38320   9.028   4.031   7.049  0.4264  0.3063 -1.9609
  284MOL0     H38321   8.818   4.093   6.931  0.7680 -0.1666 -0.0714
  284MOL0     H38322   8.344   4.115   7.021 -0.3133 -0.3611  1.3249
  284MOL0     H38323   8.116   4.155   6.949 -2.1224 -1.4466 -1.9703
  284MOL0     H38324   9.040   5.264   7.264  1.2372 -0.5516  2.0654
  284MOL0     H38325   9.194   5.241   7.450 -1.3920 -1.3804 -0.8307
  284MOL0     H38326   9.602   5.367   7.579 -2.7196 -2.0759 -0.6485
  284MOL0     H38327   9.748   5.422   7.765 -0.9265 -1.0241 -0.0670
  284MOL0     H38328   9.911   5.115   8.049 -0.5213 -1.5538  0.6905
  284MOL0     H38329   9.755   5.132   8.138 -0.6367  0.6325 -0.4370
  284MOL0     H38330   9.824   5.340   8.208  0.2941 -0.4427 -0.9708
  284MOL0     H38331   9.983   5.339   8.124 -0.4801  0.5049  0.6052
  284MOL0     H38332   9.874   5.141   8.342  0.7637  0.1127  0.7942
  284MOL0     H38333  10.005   5.256   8.377  1.3649 -1.7281  0.2616
  284MOL0     H38334  10.094   5.056   8.369  0.5670 -1.9093 -0.2177
  284MOL0     H38335  10.043   5.033   8.191  2.9533  2.0804 -2.1765
  284MOL0     H38336  10.366   5.292   8.152  0.6779 -2.0443  0.7137
  284MOL0     H38337   9.673   5.052   7.943  0.1658  2.0214  1.7039
  284MOL0     H38338   9.489   4.913   7.882  0.5662  1.7606  0.8956
  284MOL0     H38339   9.360   4.991   7.791 -0.7316 -1.5074 -1.9636
  284MOL0     H38340   9.494   4.897   7.705  2.0647 -1.1717  2.0373
  285MOL0     O38341   9.920  11.302   9.864  0.6653  0.1474  0.4977
  285MOL0     C38342   9.910  11.205   9.939  0.5410  0.4792 -0.2018
  285MOL0     O38343  10.008  11.167  10.017 -0.4034 -0.9830 -1.0561
  285MOL0     C38344  10.134  11.220  10.022 -0.1628  0.3373  0.5449
  285MOL0     C38345  10.154  11.354   9.997  0.0667  0.2672  0.0218
  285MOL0     C38346  10.273  11.416  10.029 -0.0257 -0.3992  0.2331
  285MOL0     C38347  10.388  11.340  10.071 -0.0576  0.1082  0.3736
  285MOL0     O38348  10.517  11.388  10.088 -0.2403  0.2223  0.6217
  285MOL0     C38349  10.533  11.529  10.082  0.1885  0.2565  0.9361
  285MOL0     C38350  10.678  11.562  10.107  0.0881 -0.1462 -0.3922
  285MOL0     C38351  10.727  11.537  10.245 -0.3336 -0.6143 -1.3205
  285MOL0     C38352  10.871  11.587  10.253 -0.3130  0.1319 -0.2537
  285MOL0     C38353  10.934  11.588  10.394  0.4566 -0.3709 -0.6730
  285MOL0     C38354  11.086  11.625  10.395  0.2653  0.5890 -0.2077
  285MOL0     C38355  11.125  11.742  10.306  0.6687  1.1335 -0.6829
  285MOL0     C38356  11.264  11.799  10.337  0.1861  0.0077  0.4096
  285MOL0     N38357  11.384  11.721  10.327  0.3611 -1.0398 -0.1307
  285MOL0     C38358  11.486  11.734  10.237  0.7935 -0.6831 -0.4462
  285MOL0     C38359  11.584  11.647  10.275  1.0314 -0.2546 -0.3063
  285MOL0     C38360  11.700  11.603  10.189 -0.0109  0.2122 -1.1982
  285MOL0     C38361  11.840  11.628  10.257  0.6168  0.0216  0.3989
  285MOL0     C38362  11.863  11.535  10.377  0.2832 -0.2394  0.5487
  285MOL0     C38363  12.013  11.518  10.399 -0.7361  0.4941 -0.7281
  285MOL0     O38364  12.100  11.635  10.403  0.6117 -0.4614 -0.8548
  285MOL0     C38365  12.232  11.622  10.435  0.6215 -0.5426  0.6032
  285MOL0     C38366  12.305  11.503  10.448 -0.1266 -0.3402 -0.1419
  285MOL0     C38367  12.442  11.502  10.456  0.9643  0.2361  0.4293
  285MOL0     C38368  12.510  11.623  10.458  0.0616 -0.2742 -0.0574
  285MOL0     C38369  12.653  11.625  10.461  0.9331  1.1428  0.1794
  285MOL0     O38370  12.710  11.505  10.481  0.3563  0.8274 -0.8469
  285MOL0     C38371  12.848  11.487  10.484  1.2863 -0.5288 -0.2727
  285MOL0     C38372  12.902  11.451  10.603 -0.3543 -1.2201 -0.5768
  285MOL0     C38373  13.035  11.426  10.614  0.0427 -0.1028 -0.5447
  285MOL0     C38374  13.127  11.435  10.505  0.3103  0.0354 -0.1426
  285MOL0     O38375  13.263  11.401  10.520 -0.3283 -0.5391 -0.0337
  285MOL0     C38376  13.312  11.372  10.648 -0.2644 -0.1182 -0.5839
  285MOL0     C38377  13.452  11.315  10.634  0.0295 -0.5070 -0.4342
  285MOL0     C38378  13.502  11.271  10.774  0.8048  0.3490 -0.0580
  285MOL0     C38379  13.643  11.224  10.758  0.1572  0.3210  0.1581
  285MOL0     C38380  13.733  11.350  10.752 -0.0222  0.1915 -0.4741
  285MOL0     C38381  13.880  11.309  10.760 -0.1723  0.4193  0.1293
  285MOL0     C38382  13.980  11.415  10.727 -0.4484  0.0282  0.1594
  285MOL0     C38383  13.984  11.538  10.802  1.2260 -0.0171  0.5983
  285MOL0    Cl38384  13.959  11.517  10.974 -0.1718 -0.0844 -0.2944
  285MOL0     C38385  13.069  11.459  10.384  0.3651 -0.0820  0.3731
  285MOL0     C38386  12.931  11.485  10.367  0.4222 -0.1504 -0.0988
  285MOL0     O38387  12.714  11.726  10.447 -0.2977 -0.0884  0.8839
  285MOL0     C38388  12.438  11.740  10.468  0.6381  0.2295  0.5423
  285MOL0     C38389  12.298  11.740  10.457 -0.3069 -0.0252  0.7671
  285MOL0     N38390  11.532  11.575  10.385 -0.7089 -0.2917  0.1521
  285MOL0     N38391  11.425  11.628  10.422 -0.1747 -0.8223 -0.3808
  285MOL0     C38392  10.368  11.206  10.074  0.6646 -0.0882  0.5472
  285MOL0     C38393  10.241  11.145  10.067  0.0781  0.9380  0.0797
  285MOL0     C38394   9.781  11.134   9.936 -0.2109  0.6292  0.1747
  285MOL0     C38395   9.677  11.199   9.864  0.0040 -0.4580 -0.9096
  285MOL0     C38396   9.556  11.135   9.843  0.1532 -0.0546 -0.0142
  285MOL0     C38397   9.531  11.005   9.885 -0.7011 -0.5923 -1.0349
  285MOL0     O38398   9.405  10.960   9.871 -0.0686 -0.8101 -0.2432
  285MOL0     C38399   9.356  10.853   9.951  1.1360 -0.8129  0.3628
  285MOL0     C38400   9.207  10.862   9.950  0.3037  0.6144 -0.1084
  285MOL0     C38401   9.149  10.801   9.818  0.1401  0.2380  0.0046
  285MOL0     C38402   8.998  10.799   9.822 -0.3835  0.2729  0.5344
  285MOL0     C38403   8.942  10.729   9.712 -0.1093  0.0435  0.2827
  285MOL0     C38404   8.893  10.677   9.615  0.3871 -0.5258  0.4727
  285MOL0     C38405   9.635  10.935   9.945 -0.8214 -1.2970 -0.0364
  285MOL0     C38406   9.762  11.002   9.972  0.7472 -0.2545 -0.3805
  285MOL0     C38407   9.876  10.913  10.011 -0.1635 -0.7312 -0.8506
  285MOL0     H38408  10.069  11.414   9.967 -0.3143 -0.5972 -0.6731
  285MOL0     H38409  10.269  11.522  10.011  1.2584 -0.6244 -1.5843
  285MOL0     H38410  10.503  11.560   9.982 -2.7609 -3.8376  0.2882
  285MOL0     H38411  10.464  11.583  10.147 -0.0082  1.2140 -0.0389
  285MOL0     H38412  10.673  11.671  10.094 -0.2347 -0.1929 -0.6827
  285MOL0     H38413  10.738  11.512  10.031 -1.2418 -3.0316  0.3117
  285MOL0     H38414  10.727  11.429  10.264 -0.6639 -0.7393 -1.9786
  285MOL0     H38415  10.660  11.588  10.315 -1.0007 -0.3906 -2.1058
  285MOL0     H38416  10.935  11.542  10.177  0.0140  4.4659 -2.9145
  285MOL0     H38417  10.867  11.692  10.223  0.1978 -0.0486 -0.9737
  285MOL0     H38418  10.880  11.657  10.459  0.3907 -0.5853 -0.4946
  285MOL0     H38419  10.918  11.492  10.445 -1.7115  0.9585  1.3643
  285MOL0     H38420  11.103  11.658  10.498 -3.6315 -0.2849  0.8711
  285MOL0     H38421  11.147  11.541  10.362 -0.7263  0.2733 -1.2689
  285MOL0     H38422  11.048  11.819  10.316  0.1247  0.4740  0.4729
  285MOL0     H38423  11.127  11.701  10.205  1.4470  1.2520 -0.7209
  285MOL0     H38424  11.266  11.878  10.262 -1.4180  0.2390  0.5769
  285MOL0     H38425  11.263  11.861  10.428 -1.6399  2.0672 -0.9165
  285MOL0     H38426  11.475  11.790  10.145  0.8839 -1.2491 -0.8092
  285MOL0     H38427  11.688  11.501  10.154 -2.2015  1.0297 -3.0543
  285MOL0     H38428  11.695  11.661  10.097 -0.6460 -0.7205 -1.7622
  285MOL0     H38429  11.912  11.600  10.179 -1.4607  2.2277 -2.5582
  285MOL0     H38430  11.856  11.735  10.271  0.3360  0.2876 -1.0696
  285MOL0     H38431  11.820  11.436  10.364  2.0466 -0.9985  0.2674
  285MOL0     H38432  11.825  11.595  10.460  0.1623  0.5351 -0.0446
  285MOL0     H38433  12.053  11.458  10.317  0.7725  0.7973 -0.2443
  285MOL0     H38434  12.028  11.464  10.493 -2.8714 -1.0281 -1.1793
  285MOL0     H38435  12.249  11.411  10.432 -0.9379  0.3601 -1.5538
  285MOL0     H38436  12.497  11.409  10.468  0.9318  0.2022  0.3172
  285MOL0     H38437  12.846  11.464  10.695  2.0354  1.6869  0.6313
  285MOL0     H38438  13.074  11.398  10.712  1.0350  3.9110  0.3633
  285MOL0     H38439  13.310  11.456  10.718  0.8671 -1.1289  0.7065
  285MOL0     H38440  13.250  11.289  10.683  0.2002  0.4048  1.5905
  285MOL0     H38441  13.448  11.228  10.567 -0.5982 -0.4411 -0.4860
  285MOL0     H38442  13.522  11.382  10.585  1.1876 -0.0582  1.6934
  285MOL0     H38443  13.505  11.361  10.835  1.8618  1.3102 -1.4386
  285MOL0     H38444  13.438  11.190  10.810 -0.1061  0.7702 -0.7064
  285MOL0     H38445  13.665  11.157  10.674 -0.6317  0.3927 -0.1106
  285MOL0     H38446  13.664  11.168  10.850 -0.5197  0.2794  0.2890
  285MOL0     H38447  13.726  11.412  10.842 -0.2161 -0.2946 -0.1566
  285MOL0     H38448  13.713  11.407  10.660 -0.0124  0.4074 -0.3443
  285MOL0     H38449  13.908  11.262  10.854 -1.3252  0.0055  0.2923
  285MOL0     H38450  13.890  11.234  10.681 -0.4509  1.2861 -0.7498
  285MOL0     H38451  13.975  11.437  10.620  0.4219  0.6776  0.2409
  285MOL0     H38452  14.077  11.365  10.734 -0.5729 -0.0747  1.2307
  285MOL0     H38453  14.079  11.587  10.780  1.7177 -0.9257  0.6377
  285MOL0     H38454  13.900  11.591  10.756  2.8715 -1.7431 -5.2602
  285MOL0     H38455  13.128  11.472  10.293  1.0142  0.3997  0.8540
  285MOL0     H38456  12.895  11.498  10.265 -0.3226 -0.6505  0.0964
  285MOL0     H38457  12.490  11.834  10.484  1.9846 -0.7940  2.6549
  285MOL0     H38458  12.239  11.830  10.447 -0.5389 -0.1928  0.6036
  285MOL0     H38459  10.448  11.138  10.101  0.2592  0.1162  2.4520
  285MOL0     H38460  10.232  11.040  10.090  0.2235  0.5701 -1.4354
  285MOL0     H38461   9.688  11.303   9.836 -1.4154  0.5416  1.8580
  285MOL0     H38462   9.479  11.195   9.795 -0.1731  2.2284  3.0437
  285MOL0     H38463   9.391  10.859  10.055 -0.8477  0.1035  1.0123
  285MOL0     H38464   9.396  10.761   9.906  0.8536 -1.2053  0.9084
  285MOL0     H38465   9.176  10.966   9.963  0.0087  0.1513  4.3989
  285MOL0     H38466   9.176  10.803  10.037  0.0532  4.7523  2.8943
  285MOL0     H38467   9.179  10.696   9.806  1.3804  0.8275 -2.5066
  285MOL0     H38468   9.186  10.848   9.727 -0.0921  1.7010  0.6304
  285MOL0     H38469   8.962  10.774   9.922 -1.3650  3.1437  0.9850
  285MOL0     H38470   8.964  10.902   9.805  1.7565  0.7977 -0.9713
  285MOL0     H38471   8.847  10.642   9.525 -2.6829 -0.0056  1.6986
  285MOL0     H38472   9.625  10.837   9.989 -0.8825 -0.1553  2.7238
  285MOL0     H38473   9.907  10.932  10.115 -1.0363 -1.4364 -0.4482
  285MOL0     H38474   9.854  10.810   9.982  0.4099 -1.1073 -0.0027
  285MOL0     H38475   9.966  10.931   9.951  0.2940  0.6205  0.1774
  286MOL0     O38476   0.873   4.457   0.896 -0.0109  0.5584  0.2514
  286MOL0     C38477   0.841   4.349   0.947 -0.5812  0.0174  1.1943
  286MOL0     O38478   0.935   4.265   1.000 -0.2406  0.0292  0.0922
  286MOL0     C38479   1.063   4.309   1.009 -0.2840  0.7846  1.2310
  286MOL0     C38480   1.154   4.243   0.924  0.5769 -0.0216 -0.6909
  286MOL0     C38481   1.289   4.278   0.939 -0.3831  0.3422 -0.5142
  286MOL0     C38482   1.320   4.380   1.029 -0.1584 -0.1456  0.1684
  286MOL0     O38483   1.458   4.403   1.039  0.1033 -0.4045 -0.4051
  286MOL0     C38484   1.509   4.479   1.143 -0.2277  1.2846  0.5972
  286MOL0     C38485   1.659   4.484   1.141  0.2580  0.2344 -0.3941
  286MOL0     C38486   1.717   4.585   1.233  0.3022 -0.1927 -0.4706
  286MOL0     C38487   1.854   4.626   1.174 -0.3687  0.8066  0.4533
  286MOL0     C38488   1.912   4.742   1.256  0.2427  0.3180 -0.4689
  286MOL0     C38489   1.996   4.835   1.169 -0.9769  0.4501 -0.6395
  286MOL0     C38490   2.062   4.932   1.260  1.0203  1.1805  0.1759
  286MOL0     C38491   2.148   5.043   1.188  0.4760 -0.3416 -0.5030
  286MOL0     N38492   2.270   4.988   1.127  0.4818  0.0707 -0.4981
  286MOL0     C38493   2.274   4.938   0.996 -0.3044  0.3146  0.0191
  286MOL0     C38494   2.401   4.909   0.973  0.8785  0.3426  0.6827
  286MOL0     C38495   2.434   4.835   0.842 -0.1625 -0.5727 -0.5159
  286MOL0     C38496   2.544   4.916   0.761  0.5906 -0.4448  0.5063
  286MOL0     C38497   2.684   4.870   0.805  0.0384  0.2939 -0.4792
  286MOL0     C38498   2.725   4.718   0.797 -0.1709  0.2179 -0.1257
  286MOL0     O38499   2.748   4.681   0.662  0.5923  0.5140  0.8411
  286MOL0     C38500   2.874   4.686   0.605  0.3444 -1.2287 -0.5459
  286MOL0     C38501   2.994   4.736   0.662  0.2130  0.3366 -0.1577
  286MOL0     C38502   3.115   4.738   0.582  0.0219  0.0443 -0.4768
  286MOL0     C38503   3.117   4.674   0.463  0.9836 -0.0892  0.1513
  286MOL0     C38504   3.240   4.673   0.380  0.7735 -0.2669  0.1420
  286MOL0     O38505   3.363   4.699   0.434 -0.2230 -0.5391  0.1976
  286MOL0     C38506   3.482   4.661   0.375  0.5258  0.0174 -0.4226
  286MOL0     C38507   3.590   4.641   0.468  0.9399 -0.2986 -0.3288
  286MOL0     C38508   3.710   4.580   0.432  0.3642 -1.1664  0.1237
  286MOL0     C38509   3.735   4.546   0.300 -0.1560  0.4264 -0.0933
  286MOL0     O38510   3.858   4.487   0.250  1.2089 -0.3227 -0.3160
  286MOL0     C38511   3.949   4.418   0.338 -0.5825 -0.5870 -0.0963
  286MOL0     C38512   4.078   4.380   0.256  0.2136  0.3823 -1.0763
  286MOL0     C38513   4.048   4.288   0.131 -0.2483 -0.5599  0.5947
  286MOL0     C38514   4.166   4.258   0.041  0.1473 -0.0982 -0.1642
  286MOL0     C38515   4.140   4.156  -0.072 -0.2480 -0.1703 -0.4608
  286MOL0     C38516   4.074   4.028  -0.032  0.5053 -0.6393 -0.2628
  286MOL0     C38517   4.042   3.945  -0.159 -0.4809  0.0195 -0.4667
  286MOL0     C38518   3.958   3.824  -0.143  0.0548 -0.0831 -0.1027
  286MOL0    Cl38519   3.979   3.741   0.012  0.6244 -0.0977  0.1881
  286MOL0     C38520   3.627   4.570   0.207 -0.1596  0.3593  0.5429
  286MOL0     C38521   3.505   4.625   0.242 -0.3853 -0.4706 -0.0899
  286MOL0     O38522   3.224   4.634   0.263 -0.0854  0.0207  0.8743
  286MOL0     C38523   3.001   4.619   0.413  0.6919  0.3902 -0.1299
  286MOL0     C38524   2.880   4.634   0.481  0.7452 -0.2725 -0.6774
  286MOL0     N38525   2.476   4.951   1.079  0.0913 -0.3475  0.0036
  286MOL0     N38526   2.396   4.990   1.176  0.0586 -0.0018 -0.4871
  286MOL0     C38527   1.219   4.451   1.097 -0.1379  0.6295  0.8501
  286MOL0     C38528   1.089   4.405   1.088  0.2884 -1.0104  0.1601
  286MOL0     C38529   0.699   4.304   0.953  0.4492  0.0662 -0.2926
  286MOL0     C38530   0.646   4.269   0.828  0.1487 -0.7804 -0.5462
  286MOL0     C38531   0.525   4.214   0.819  0.5664 -0.9586  0.2802
  286MOL0     C38532   0.445   4.190   0.940 -0.3721  0.0003  0.4727
  286MOL0     O38533   0.315   4.144   0.940  0.1608  0.1820  0.3820
  286MOL0     C38534   0.254   4.088   0.815 -0.6046 -0.5635  0.4576
  286MOL0     C38535   0.111   4.039   0.843 -0.0406  0.3493  0.3402
  286MOL0     C38536   0.040   3.986   0.718 -0.4386  0.6305 -0.3084
  286MOL0     C38537  -0.102   3.946   0.745 -0.3930  0.5918 -0.2459
  286MOL0     C38538  -0.141   3.844   0.657 -0.0011  0.9046 -0.4087
  286MOL0     C38539  -0.139   3.758   0.573 -0.5113  0.9202 -0.6588
  286MOL0     C38540   0.492   4.229   1.059  0.7810 -0.3400 -0.2425
  286MOL0     C38541   0.624   4.285   1.073  0.3159 -0.5495  0.7803
  286MOL0     C38542   0.671   4.340   1.209  0.2618 -0.1053  0.0834
  286MOL0     H38543   1.128   4.163   0.855 -0.3130 -1.3391  1.1081
  286MOL0     H38544   1.365   4.223   0.886 -1.1781  0.2017 -1.5363
  286MOL0     H38545   1.483   4.583   1.119 -0.8490  0.7617 -1.1589
  286MOL0     H38546   1.468   4.443   1.238  0.6421  0.1705  0.5647
  286MOL0     H38547   1.693   4.499   1.038 -0.1930 -0.8152 -0.7016
  286MOL0     H38548   1.704   4.390   1.172 -1.0983  0.1337  1.4455
  286MOL0     H38549   1.733   4.538   1.330  2.4562 -0.5933 -0.9772
  286MOL0     H38550   1.650   4.672   1.240 -1.9405 -1.8534 -0.3070
  286MOL0     H38551   1.930   4.548   1.173 -0.0287  1.1326  0.6292
  286MOL0     H38552   1.840   4.660   1.071 -1.7288 -1.2062 -0.0840
  286MOL0     H38553   1.835   4.806   1.299 -0.6721  0.0988 -1.7382
  286MOL0     H38554   1.971   4.694   1.335  0.0488  3.1045  1.5367
  286MOL0     H38555   2.074   4.773   1.124 -2.6887 -2.2145 -0.2184
  286MOL0     H38556   1.933   4.880   1.092 -0.5348  0.5284 -0.9591
  286MOL0     H38557   2.125   4.870   1.325  3.0885  2.6625 -0.3376
  286MOL0     H38558   1.983   4.976   1.322 -1.3670  1.0274 -2.5558
  286MOL0     H38559   2.085   5.095   1.116 -0.1339 -1.0964 -0.5265
  286MOL0     H38560   2.176   5.123   1.258  0.7322 -0.6194 -0.2842
  286MOL0     H38561   2.189   4.906   0.935 -1.8958  1.2252  1.6662
  286MOL0     H38562   2.463   4.733   0.865  3.1795  0.6503  1.3828
  286MOL0     H38563   2.348   4.832   0.775 -1.3661 -0.6460  0.9933
  286MOL0     H38564   2.531   4.900   0.654  0.8265  1.6738  0.1072
  286MOL0     H38565   2.524   5.024   0.767  0.6534 -0.2703 -1.7186
  286MOL0     H38566   2.695   4.898   0.910  2.0397 -0.5053 -0.4353
  286MOL0     H38567   2.764   4.923   0.753  1.3915  1.4498  2.5503
  286MOL0     H38568   2.643   4.651   0.827  0.9654 -2.2216 -2.1189
  286MOL0     H38569   2.812   4.698   0.860  0.3157  0.2848 -0.7691
  286MOL0     H38570   2.989   4.781   0.760  1.5197 -2.4369  1.3193
  286MOL0     H38571   3.201   4.794   0.618  0.4632  0.6983 -2.4371
  286MOL0     H38572   3.590   4.661   0.574 -0.1480 -1.1422 -0.1608
  286MOL0     H38573   3.788   4.568   0.507  0.3220 -1.9117  0.0572
  286MOL0     H38574   3.986   4.494   0.408  1.3705 -0.1879 -1.5050
  286MOL0     H38575   3.909   4.333   0.393 -3.7437  0.8298  0.0684
  286MOL0     H38576   4.135   4.463   0.213 -1.1122  0.3309 -3.0804
  286MOL0     H38577   4.151   4.329   0.320  0.2075 -0.7643 -1.9499
  286MOL0     H38578   3.994   4.201   0.170 -0.3221 -1.9023 -2.2684
  286MOL0     H38579   3.972   4.340   0.073  0.2760  0.5885  0.9161
  286MOL0     H38580   4.250   4.214   0.095  0.2351 -2.4558 -2.0570
  286MOL0     H38581   4.200   4.356   0.006  2.0561 -0.6637 -0.0015
  286MOL0     H38582   4.237   4.131  -0.117 -0.8720 -2.4304 -0.6329
  286MOL0     H38583   4.084   4.202  -0.154 -0.2983  0.8238  0.1187
  286MOL0     H38584   4.150   3.981   0.031  2.2045  2.4844  0.2120
  286MOL0     H38585   3.981   4.050   0.021  1.1479  0.7254  0.3429
  286MOL0     H38586   4.135   3.911  -0.204 -0.0550  0.0183  0.4006
  286MOL0     H38587   4.005   4.010  -0.239  0.5784  0.2735 -0.7648
  286MOL0     H38588   3.855   3.861  -0.148 -0.0478  0.6808  4.2777
  286MOL0     H38589   3.987   3.750  -0.219  0.3875 -1.7779  1.5905
  286MOL0     H38590   3.646   4.544   0.103 -1.3270 -0.0056  0.4046
  286MOL0     H38591   3.427   4.623   0.166  0.2758 -0.5632 -0.7825
  286MOL0     H38592   3.004   4.581   0.312 -1.0725  2.3968 -1.0275
  286MOL0     H38593   2.799   4.574   0.439  2.1191 -2.7460 -0.0287
  286MOL0     H38594   1.227   4.532   1.169  1.7210  1.7236 -0.4881
  286MOL0     H38595   1.014   4.461   1.143  0.7506  0.1889 -0.4013
  286MOL0     H38596   0.708   4.271   0.739 -2.0321  3.2904 -2.2696
  286MOL0     H38597   0.485   4.192   0.720 -4.4234 -4.4839  2.6647
  286MOL0     H38598   0.316   4.005   0.781  0.5506 -0.2115  1.6246
  286MOL0     H38599   0.254   4.165   0.738 -2.0206 -0.5537  0.4408
  286MOL0     H38600   0.056   4.116   0.898  1.9719  4.3851 -2.6815
  286MOL0     H38601   0.127   3.964   0.921 -3.8700  0.1543  1.1125
  286MOL0     H38602   0.104   3.901   0.693 -0.0929  1.3137 -1.8379
  286MOL0     H38603   0.038   4.064   0.642 -0.1100  1.8310  0.8741
  286MOL0     H38604  -0.113   3.914   0.849  4.2089 -2.7295 -0.4709
  286MOL0     H38605  -0.162   4.035   0.724  1.6881  1.8002 -1.4834
  286MOL0     H38606  -0.153   3.676   0.506 -1.0650 -0.3037  0.8948
  286MOL0     H38607   0.434   4.214   1.150 -0.6208 -3.5199 -1.5209
  286MOL0     H38608   0.710   4.259   1.271 -0.5566 -0.9766 -0.5145
  286MOL0     H38609   0.750   4.415   1.195  1.7204 -1.7536 -0.7971
  286MOL0     H38610   0.583   4.383   1.259 -2.2464 -2.4528 -1.9856
  287MOL0     O38611   7.497   2.901  10.816  0.5778  0.3334  0.7790
  287MOL0     C38612   7.407   2.880  10.888  0.6742  0.2585 -0.7369
  287MOL0     O38613   7.418   2.799  11.004  0.0350 -0.3067 -0.1850
  287MOL0     C38614   7.545   2.769  11.052  0.6062 -0.2988 -0.4216
  287MOL0     C38615   7.641   2.865  11.062  0.4760 -0.6639 -0.4966
  287MOL0     C38616   7.770   2.841  11.113  0.0587 -0.0616  0.0863
  287MOL0     C38617   7.805   2.718  11.170 -0.2148 -0.5458 -0.7705
  287MOL0     O38618   7.925   2.689  11.222 -0.0591  1.1131  0.1448
  287MOL0     C38619   8.029   2.788  11.236  0.3854 -0.3178  0.1427
  287MOL0     C38620   8.140   2.713  11.317  0.3693  0.0727  0.3671
  287MOL0     C38621   8.267   2.791  11.319  0.3726 -0.2128  0.1994
  287MOL0     C38622   8.345   2.757  11.189  0.4004 -0.4179  0.0936
  287MOL0     C38623   8.508   2.773  11.212  0.0690 -0.2028  0.3850
  287MOL0     C38624   8.591   2.750  11.080 -0.6109 -0.4728 -1.0606
  287MOL0     C38625   8.611   2.596  11.058  0.2228 -0.5154  0.3168
  287MOL0     C38626   8.721   2.579  10.932  0.3804  0.3277 -0.1544
  287MOL0     N38627   8.852   2.649  10.937  0.4092  0.4020 -0.8135
  287MOL0     C38628   8.896   2.754  10.864  0.8777  0.3912  0.4972
  287MOL0     C38629   9.003   2.810  10.935  0.2418  0.2923  1.0672
  287MOL0     C38630   9.093   2.915  10.877  0.1351 -0.8841 -0.2219
  287MOL0     C38631   9.155   2.866  10.745  0.2758  0.0611  0.0498
  287MOL0     C38632   9.226   2.984  10.669 -0.1337  0.2731 -0.4186
  287MOL0     C38633   9.315   2.926  10.558 -0.1286  0.2531  0.7002
  287MOL0     O38634   9.421   2.842  10.611 -0.5274 -0.3684  0.5581
  287MOL0     C38635   9.452   2.728  10.535 -1.2611 -0.5970 -0.4362
  287MOL0     C38636   9.364   2.641  10.490  0.6002  0.6693  0.8067
  287MOL0     C38637   9.400   2.516  10.428  0.1983  0.7602  0.8449
  287MOL0     C38638   9.531   2.483  10.405 -0.2388 -0.2185  0.0490
  287MOL0     C38639   9.563   2.359  10.328 -0.8316  0.2972  0.0768
  287MOL0     O38640   9.699   2.355  10.292 -0.7264  0.2371  0.0672
  287MOL0     C38641   9.736   2.297  10.177  0.1604  0.4809  0.0707
  287MOL0     C38642   9.853   2.217  10.177 -0.5328  0.6282  0.1307
  287MOL0     C38643   9.898   2.153  10.059  0.3490  0.3949 -0.0553
  287MOL0     C38644   9.832   2.168   9.935 -0.6206  0.3426 -0.1056
  287MOL0     O38645   9.870   2.107   9.819 -0.3186  0.3271  0.0281
  287MOL0     C38646  10.010   2.068   9.813 -0.9534  0.3174 -0.9215
  287MOL0     C38647  10.028   2.025   9.671 -0.4160  0.0422  0.2042
  287MOL0     C38648  10.019   2.140   9.565 -0.8366 -0.4294 -0.2512
  287MOL0     C38649  10.144   2.232   9.573 -0.4347  0.3801  0.4419
  287MOL0     C38650  10.159   2.307   9.439  0.1150  0.6054  0.5969
  287MOL0     C38651  10.048   2.400   9.396  0.3526  0.1842 -0.5666
  287MOL0     C38652  10.014   2.509   9.503 -0.3559  0.4890 -0.4448
  287MOL0     C38653   9.908   2.602   9.445  0.2197  0.2719  0.2808
  287MOL0    Cl38654   9.833   2.716   9.566  0.2971 -0.1979 -0.1542
  287MOL0     C38655   9.717   2.243   9.936  0.0202 -0.1796 -0.4748
  287MOL0     C38656   9.665   2.310  10.054  0.3523  0.3482 -1.1659
  287MOL0     O38657   9.479   2.280  10.289  0.0634  0.8705  0.5150
  287MOL0     C38658   9.631   2.568  10.447 -0.2946  0.2357  0.0190
  287MOL0     C38659   9.589   2.693  10.514 -0.7441 -0.1218  0.3950
  287MOL0     N38660   9.033   2.724  11.033 -0.0465 -0.0105 -0.4344
  287MOL0     N38661   8.936   2.642  11.043 -0.4273 -0.2545 -0.0851
  287MOL0     C38662   7.705   2.623  11.170 -0.0289  0.1594 -0.1008
  287MOL0     C38663   7.576   2.644  11.108 -0.4872 -0.4298  0.8392
  287MOL0     C38664   7.281   2.949  10.880 -0.3590 -0.8031  0.4584
  287MOL0     C38665   7.194   2.933  10.986  0.8472  0.4121 -0.4379
  287MOL0     C38666   7.073   3.006  10.981  0.3565 -0.0019  0.6889
  287MOL0     C38667   7.029   3.071  10.868  0.5160 -0.1862 -1.0259
  287MOL0     O38668   6.914   3.131  10.879 -0.6001  0.1992 -0.1176
  287MOL0     C38669   6.855   3.182  10.760 -0.8397  0.3632  0.6361
  287MOL0     C38670   6.713   3.211  10.784  0.0594  0.5321  0.7324
  287MOL0     C38671   6.644   3.236  10.652  0.8641  0.2767  0.8488
  287MOL0     C38672   6.514   3.313  10.678 -0.0971  0.3029 -0.1952
  287MOL0     C38673   6.437   3.359  10.557 -0.9357  0.7227 -0.9566
  287MOL0     C38674   6.389   3.398  10.456  0.8726  0.2665 -0.6559
  287MOL0     C38675   7.116   3.083  10.762  0.3668  0.4045  0.2587
  287MOL0     C38676   7.238   3.014  10.761 -0.4882 -0.9844 -0.8171
  287MOL0     C38677   7.314   3.025  10.630 -0.5343 -0.0019  0.8223
  287MOL0     H38678   7.615   2.968  11.037 -0.5975 -0.8437 -0.1557
  287MOL0     H38679   7.835   2.928  11.117 -3.2374  2.6091 -0.0143
  287MOL0     H38680   8.060   2.830  11.140 -0.8049  2.4422  0.8548
  287MOL0     H38681   7.993   2.869  11.300  0.0933 -0.3013 -0.0392
  287MOL0     H38682   8.148   2.608  11.288 -0.1840  0.3747 -0.9421
  287MOL0     H38683   8.104   2.707  11.420 -2.5070  1.1249 -0.4838
  287MOL0     H38684   8.318   2.763  11.412 -1.9658 -1.7148  1.1297
  287MOL0     H38685   8.247   2.898  11.325 -3.3660 -0.8466  2.1360
  287MOL0     H38686   8.326   2.652  11.164 -0.9079 -0.0808 -0.4291
  287MOL0     H38687   8.314   2.820  11.105 -0.5827 -1.2337 -0.1779
  287MOL0     H38688   8.529   2.876  11.244 -3.1358  1.2862 -1.8219
  287MOL0     H38689   8.541   2.706  11.293  1.9809  0.7233  0.4440
  287MOL0     H38690   8.541   2.804  10.999 -1.6020  2.3361  1.2413
  287MOL0     H38691   8.681   2.809  11.101 -1.0634  0.6541 -2.1078
  287MOL0     H38692   8.513   2.552  11.035 -1.2012  2.8951 -0.8728
  287MOL0     H38693   8.649   2.544  11.146 -0.1943 -0.8585  0.2952
  287MOL0     H38694   8.750   2.477  10.907 -0.2933  0.2414 -0.5940
  287MOL0     H38695   8.681   2.618  10.838  1.2828  1.0176 -0.2645
  287MOL0     H38696   8.847   2.780  10.771  1.2953 -1.5261 -0.3091
  287MOL0     H38697   9.035   3.004  10.849  0.2590 -1.2138 -1.5561
  287MOL0     H38698   9.163   2.939  10.958 -0.3930 -1.2347  0.3518
  287MOL0     H38699   9.235   2.796  10.769  0.3205  0.3811  0.8703
  287MOL0     H38700   9.080   2.819  10.681  0.6635 -1.7319  0.8546
  287MOL0     H38701   9.284   3.050  10.733 -0.0202  0.9411 -1.1938
  287MOL0     H38702   9.143   3.039  10.622  0.1532  1.1319  0.0620
  287MOL0     H38703   9.376   3.008  10.520 -1.3675  1.1156  0.4947
  287MOL0     H38704   9.255   2.888  10.475  0.0256  0.5062  0.4761
  287MOL0     H38705   9.257   2.650  10.504 -0.7337 -4.3783 -3.3418
  287MOL0     H38706   9.320   2.451  10.394  1.2571  0.3621 -1.0565
  287MOL0     H38707   9.908   2.200  10.269 -0.2613 -0.0897 -0.1508
  287MOL0     H38708   9.982   2.085  10.071 -0.0193 -0.4465 -1.9351
  287MOL0     H38709  10.087   2.138   9.845  1.0364 -1.7849 -0.8132
  287MOL0     H38710  10.036   1.981   9.874  1.9585  1.5173 -0.2987
  287MOL0     H38711  10.128   1.981   9.676 -0.7562 -0.7103  0.5854
  287MOL0     H38712   9.963   1.945   9.635 -1.6542  1.9231 -1.9880
  287MOL0     H38713  10.014   2.095   9.466  1.5022 -1.2422 -0.0730
  287MOL0     H38714   9.937   2.206   9.595 -0.7607  0.1852 -1.3720
  287MOL0     H38715  10.237   2.176   9.580 -1.0026 -0.4639  1.5902
  287MOL0     H38716  10.138   2.300   9.659 -0.0753  1.4718 -0.3765
  287MOL0     H38717  10.175   2.226   9.366  1.9779  0.8241  0.6929
  287MOL0     H38718  10.257   2.356   9.435  2.7288 -4.0369 -0.8444
  287MOL0     H38719  10.076   2.443   9.299  1.1097 -1.0784 -0.9258
  287MOL0     H38720   9.959   2.337   9.386 -0.8279  1.1399  2.5789
  287MOL0     H38721  10.107   2.564   9.524 -0.2879 -0.7972  3.1531
  287MOL0     H38722   9.976   2.467   9.596  0.8506  1.9387  0.7549
  287MOL0     H38723   9.940   2.659   9.358 -1.4044 -0.4586 -0.8515
  287MOL0     H38724   9.827   2.539   9.407  0.7611  0.6924 -1.6450
  287MOL0     H38725   9.666   2.259   9.842  1.1032  2.3817 -0.7054
  287MOL0     H38726   9.591   2.387  10.032  0.0351 -0.6918 -4.2223
  287MOL0     H38727   9.737   2.545  10.437 -0.7186 -2.7547  1.5036
  287MOL0     H38728   9.668   2.762  10.541  0.8042 -0.6815 -2.2949
  287MOL0     H38729   7.732   2.522  11.199  2.4236  0.6316 -0.5364
  287MOL0     H38730   7.494   2.572  11.113 -2.2230  1.4636  0.8155
  287MOL0     H38731   7.211   2.882  11.081 -0.7098  0.2557 -0.2155
  287MOL0     H38732   6.996   2.996  11.056 -0.9068 -0.6865 -0.6367
  287MOL0     H38733   6.861   3.108  10.680  1.6867 -0.3139  1.3653
  287MOL0     H38734   6.904   3.274  10.728  1.0531 -0.4373  1.0683
  287MOL0     H38735   6.689   3.289  10.857 -1.2189  0.8147  0.0428
  287MOL0     H38736   6.671   3.119  10.825 -2.5305  0.4147 -1.9139
  287MOL0     H38737   6.615   3.151  10.590 -0.3201  1.2819 -0.0360
  287MOL0     H38738   6.710   3.295  10.586  0.6129 -0.0047  0.3372
  287MOL0     H38739   6.452   3.270  10.758  2.8154  1.9840  3.2253
  287MOL0     H38740   6.550   3.407  10.720 -0.5492  0.2516  0.3135
  287MOL0     H38741   6.351   3.444  10.367 -0.0578 -2.4845 -1.7790
  287MOL0     H38742   7.082   3.124  10.668 -0.9167 -0.8844  0.1340
  287MOL0     H38743   7.316   2.924  10.588 -2.1335  1.4626 -3.2772
  287MOL0     H38744   7.279   3.092  10.551  1.6143  0.1273 -0.1059
  287MOL0     H38745   7.418   3.051  10.653  1.1254 -5.5507  1.1398
  288MOL0     O38746   4.741   2.024   6.272 -0.0426 -0.1789  0.6160
  288MOL0     C38747   4.805   2.006   6.375 -0.2148 -0.4886  0.5686
  288MOL0     O38748   4.739   1.994   6.501  0.3709 -0.6352 -0.1465
  288MOL0     C38749   4.598   1.991   6.496 -0.8839 -0.0319  0.3545
  288MOL0     C38750   4.523   2.104   6.474  0.9258  0.1247  0.4794
  288MOL0     C38751   4.387   2.105   6.454  0.1170  0.0460  0.5570
  288MOL0     C38752   4.313   1.989   6.459 -0.3593  0.0868 -0.4680
  288MOL0     O38753   4.177   1.980   6.436 -0.7140 -0.8833 -0.1839
  288MOL0     C38754   4.112   2.101   6.398 -0.4216  1.0092  0.4441
  288MOL0     C38755   3.968   2.082   6.369 -0.5372 -0.3686  0.4904
  288MOL0     C38756   3.889   2.215   6.314  0.3805 -0.1881 -0.6411
  288MOL0     C38757   3.739   2.203   6.292 -0.6125 -0.6556  0.2767
  288MOL0     C38758   3.674   2.343   6.287  0.1787 -0.0969 -0.1411
  288MOL0     C38759   3.519   2.339   6.309 -0.0105 -0.4162  0.0533
  288MOL0     C38760   3.445   2.463   6.244 -0.2283  0.4574 -0.1296
  288MOL0     C38761   3.295   2.471   6.294  0.0069  1.0693 -0.8305
  288MOL0     N38762   3.239   2.592   6.238 -0.2786  0.1349  0.4378
  288MOL0     C38763   3.142   2.586   6.136 -0.0054 -0.2321  0.6734
  288MOL0     C38764   3.081   2.706   6.135  0.2941 -0.3160  0.3194
  288MOL0     C38765   2.975   2.746   6.043  0.7822 -0.2186  0.6098
  288MOL0     C38766   2.849   2.668   6.059  0.3036  0.3832 -0.4324
  288MOL0     C38767   2.750   2.720   5.950  0.4761  0.6116  1.3023
  288MOL0     C38768   2.611   2.651   5.954  0.2172 -0.8835  0.9655
  288MOL0     O38769   2.500   2.733   5.913  0.1717  0.0474 -0.4695
  288MOL0     C38770   2.373   2.703   5.949 -0.0136  0.8626  0.3955
  288MOL0     C38771   2.288   2.812   5.954  0.2573 -0.3015 -0.3674
  288MOL0     C38772   2.157   2.798   6.008 -0.2498 -0.5454  0.0325
  288MOL0     C38773   2.118   2.679   6.072 -0.0048  0.7117  0.2328
  288MOL0     C38774   1.981   2.663   6.126  0.0850  0.0009 -0.2758
  288MOL0     O38775   1.950   2.536   6.167 -0.0967 -0.7068  0.0662
  288MOL0     C38776   1.817   2.501   6.174  0.4629  0.4830  0.0865
  288MOL0     C38777   1.762   2.468   6.053  1.1499 -0.9096 -0.5862
  288MOL0     C38778   1.621   2.466   6.054  0.8778  0.2668  0.6577
  288MOL0     C38779   1.546   2.470   6.163  0.6618  0.2899  0.1354
  288MOL0     O38780   1.411   2.451   6.156  0.0773 -0.3852 -0.4008
  288MOL0     C38781   1.326   2.458   6.265  0.5407 -0.0199  0.3114
  288MOL0     C38782   1.185   2.407   6.233 -0.1654 -0.1412  0.1607
  288MOL0     C38783   1.085   2.469   6.334 -0.3862 -0.0858 -0.3881
  288MOL0     C38784   1.097   2.398   6.470 -0.6545  0.0830  0.2207
  288MOL0     C38785   0.977   2.431   6.553  0.0221  0.0168 -0.1842
  288MOL0     C38786   0.986   2.393   6.704 -0.2458  0.2022  0.8151
  288MOL0     C38787   0.986   2.240   6.738  0.6000 -0.3181  0.2911
  288MOL0     C38788   0.999   2.230   6.890  0.0255  0.1527 -0.2714
  288MOL0    Cl38789   0.844   2.259   6.960 -0.3662 -0.0862 -0.4429
  288MOL0     C38790   1.604   2.493   6.288 -0.6845  0.1553  0.1316
  288MOL0     C38791   1.739   2.511   6.298 -0.7101 -0.7661  0.1249
  288MOL0     O38792   1.898   2.760   6.124 -0.2187  0.1606  0.4349
  288MOL0     C38793   2.213   2.571   6.080  0.6679 -0.0614  0.3542
  288MOL0     C38794   2.334   2.579   6.011 -0.3001 -0.5618  0.3494
  288MOL0     N38795   3.134   2.784   6.237  0.2848  0.1004 -0.0153
  288MOL0     N38796   3.225   2.716   6.294 -0.4606 -0.3542  0.3970
  288MOL0     C38797   4.385   1.873   6.501  0.7525 -0.3695 -0.0093
  288MOL0     C38798   4.524   1.875   6.516 -0.8471 -0.1040  0.1428
  288MOL0     C38799   4.952   2.014   6.381 -0.7461 -0.7186  0.6172
  288MOL0     C38800   5.017   1.951   6.501  0.7643 -0.3130  0.9661
  288MOL0     C38801   5.155   1.969   6.527  0.2894  0.1471 -0.0405
  288MOL0     C38802   5.247   2.011   6.425 -0.4018 -0.3679  0.7566
  288MOL0     O38803   5.386   2.022   6.433 -0.4494 -0.4839  0.6712
  288MOL0     C38804   5.447   1.993   6.561  0.2997  0.1684  0.6633
  288MOL0     C38805   5.422   2.107   6.670 -0.6451 -1.0608 -0.8134
  288MOL0     C38806   5.556   2.178   6.725 -0.0540  0.1822 -0.8322
  288MOL0     C38807   5.644   2.235   6.623 -0.9662  0.5063  0.0449
  288MOL0     C38808   5.776   2.262   6.683  0.4780  0.6378  0.3307
  288MOL0     C38809   5.872   2.291   6.748  1.1688  0.0639 -0.0494
  288MOL0     C38810   5.182   2.059   6.302 -0.2495  0.6593 -0.3443
  288MOL0     C38811   5.040   2.061   6.280  0.1428 -0.2852  0.1919
  288MOL0     C38812   4.988   2.099   6.149  0.3702 -0.4548  0.4554
  288MOL0     H38813   4.582   2.195   6.467 -1.7892  1.9330 -0.7826
  288MOL0     H38814   4.338   2.197   6.422 -0.4645 -0.6561 -0.6209
  288MOL0     H38815   4.117   2.181   6.473 -2.8127 -2.1669  4.3879
  288MOL0     H38816   4.147   2.124   6.297 -0.0181 -2.1388 -0.2314
  288MOL0     H38817   3.915   2.034   6.453  0.3365 -0.0672  1.2256
  288MOL0     H38818   3.961   2.009   6.288 -2.3434  0.4937 -0.1917
  288MOL0     H38819   3.942   2.260   6.229  0.5069 -1.6425 -1.3662
  288MOL0     H38820   3.905   2.279   6.401 -0.2697 -2.3948  1.1945
  288MOL0     H38821   3.719   2.165   6.191  2.3995  1.1112 -1.1357
  288MOL0     H38822   3.692   2.141   6.368 -1.9178  0.2389  0.2418
  288MOL0     H38823   3.727   2.402   6.363  2.3025 -0.9839 -0.8313
  288MOL0     H38824   3.692   2.393   6.191 -0.5860 -3.5512 -2.2719
  288MOL0     H38825   3.488   2.253   6.249  2.3088 -0.1143 -1.7324
  288MOL0     H38826   3.486   2.331   6.413 -1.7387 -0.9895 -0.5055
  288MOL0     H38827   3.439   2.452   6.135  0.7480  1.6108 -0.3288
  288MOL0     H38828   3.492   2.559   6.269 -0.0844  1.0983 -2.5874
  288MOL0     H38829   3.245   2.380   6.262  0.0697  0.7877 -0.1340
  288MOL0     H38830   3.312   2.489   6.401  0.2456 -1.0851 -0.4564
  288MOL0     H38831   3.119   2.497   6.078  0.1350 -0.1917  0.5552
  288MOL0     H38832   2.960   2.852   6.065 -1.2535  0.0991 -1.9605
  288MOL0     H38833   3.007   2.744   5.938  0.4210  3.3163  0.2844
  288MOL0     H38834   2.860   2.563   6.030  0.0641  0.7947 -2.1313
  288MOL0     H38835   2.803   2.683   6.157 -3.6687  0.9753 -2.1952
  288MOL0     H38836   2.796   2.708   5.851  1.7513  0.8163  1.8487
  288MOL0     H38837   2.739   2.828   5.964  3.0535  1.2931 -0.9220
  288MOL0     H38838   2.599   2.614   6.057 -1.5569 -3.2853 -0.0209
  288MOL0     H38839   2.614   2.568   5.883 -2.6399  0.7791 -1.3028
  288MOL0     H38840   2.307   2.909   5.909  0.0405  1.0528  2.3014
  288MOL0     H38841   2.089   2.881   5.998 -0.8193 -0.7422  1.9605
  288MOL0     H38842   1.820   2.451   5.963  1.1506 -4.0357 -0.1199
  288MOL0     H38843   1.566   2.436   5.966 -2.9499  2.4274  2.0803
  288MOL0     H38844   1.359   2.384   6.339 -2.8050 -2.0669 -0.0366
  288MOL0     H38845   1.324   2.561   6.301 -0.9644 -0.3562  1.2656
  288MOL0     H38846   1.167   2.432   6.128 -0.5333  3.0088  0.8704
  288MOL0     H38847   1.183   2.298   6.245 -0.3816 -0.0956  0.5366
  288MOL0     H38848   1.103   2.574   6.361  0.3553 -0.0514 -0.9808
  288MOL0     H38849   0.984   2.463   6.294 -0.5729  0.3370  0.0210
  288MOL0     H38850   1.185   2.428   6.527  1.3914 -1.0692 -2.1613
  288MOL0     H38851   1.108   2.293   6.443 -0.5384  0.6377 -2.1317
  288MOL0     H38852   0.887   2.386   6.510 -0.5672  0.0285  0.9937
  288MOL0     H38853   0.967   2.540   6.557 -1.3067 -0.1170  2.6166
  288MOL0     H38854   1.081   2.426   6.749 -0.1181 -0.5311  1.0977
  288MOL0     H38855   0.907   2.445   6.760 -1.4280 -1.3724  0.6695
  288MOL0     H38856   1.073   2.189   6.696  1.4693  1.7061 -0.5247
  288MOL0     H38857   0.904   2.176   6.703 -1.4344  2.3804 -0.2261
  288MOL0     H38858   1.032   2.129   6.918  1.2015  1.0861  1.9721
  288MOL0     H38859   1.074   2.301   6.927  0.1230  0.6247 -1.3559
  288MOL0     H38860   1.546   2.489   6.380 -0.0152  0.1267  0.5579
  288MOL0     H38861   1.804   2.518   6.385  2.5464 -2.6801 -1.9290
  288MOL0     H38862   2.183   2.471   6.112  0.7967 -1.0408 -2.3663
  288MOL0     H38863   2.396   2.491   5.998  3.4192  1.9351 -0.3577
  288MOL0     H38864   4.345   1.772   6.507  1.4835 -0.7019 -0.4850
  288MOL0     H38865   4.578   1.784   6.539  0.8833  0.3748 -1.6939
  288MOL0     H38866   4.965   1.894   6.578 -0.8164 -0.4260 -0.1356
  288MOL0     H38867   5.186   1.941   6.627  2.0984  1.4323 -0.1981
  288MOL0     H38868   5.555   1.979   6.550  0.5031  0.7868  1.7868
  288MOL0     H38869   5.408   1.898   6.597 -0.0295  0.2529  0.5267
  288MOL0     H38870   5.358   2.079   6.755 -0.7796  1.9726  0.1963
  288MOL0     H38871   5.356   2.182   6.624 -1.1237 -0.9860 -0.0358
  288MOL0     H38872   5.615   2.111   6.789  2.1850  1.7840 -1.0949
  288MOL0     H38873   5.541   2.265   6.790 -0.6990  1.5059 -2.6945
  288MOL0     H38874   5.660   2.160   6.545 -1.8618  2.0548 -1.7054
  288MOL0     H38875   5.595   2.324   6.583 -1.9761  0.6321  1.4813
  288MOL0     H38876   5.948   2.323   6.817  0.1635  1.9578  0.2465
  288MOL0     H38877   5.241   2.099   6.219 -0.1766 -0.8520 -1.0523
  288MOL0     H38878   4.948   2.200   6.167  2.8099  0.6853 -0.1508
  288MOL0     H38879   5.061   2.103   6.068  0.1674  1.5062  0.3179
  288MOL0     H38880   4.907   2.033   6.116 -0.5097  0.7546  0.1129
  289MOL0     O38881   7.888   7.409   5.323 -0.2272 -0.4677 -0.1594
  289MOL0     C38882   7.928   7.298   5.364 -0.3928  0.2667 -0.6376
  289MOL0     O38883   7.847   7.182   5.374 -0.6098  0.0624  0.3255
  289MOL0     C38884   7.717   7.209   5.338  0.2161 -0.2801 -0.9781
  289MOL0     C38885   7.613   7.214   5.440 -0.2896  1.0623  0.0479
  289MOL0     C38886   7.478   7.228   5.408  0.5744 -0.3006  0.2194
  289MOL0     C38887   7.435   7.231   5.274  0.9434 -0.2919  0.4429
  289MOL0     O38888   7.302   7.230   5.265 -0.1555  0.4760  0.1955
  289MOL0     C38889   7.255   7.339   5.180 -1.1891  1.0064 -0.1667
  289MOL0     C38890   7.114   7.372   5.205  0.6415 -0.4353 -1.0399
  289MOL0     C38891   7.017   7.268   5.151 -0.1343 -0.4239 -0.1430
  289MOL0     C38892   6.876   7.325   5.152  1.1038  0.0511  0.3920
  289MOL0     C38893   6.843   7.420   5.030 -0.0255  0.2809  0.1855
  289MOL0     C38894   6.801   7.342   4.905 -0.0391  0.4388 -0.6208
  289MOL0     C38895   6.824   7.426   4.787 -0.1867  0.1360  0.8747
  289MOL0     C38896   6.756   7.378   4.658  0.2960 -0.1482 -0.3995
  289MOL0     N38897   6.791   7.445   4.534  1.3660 -0.7858 -0.0930
  289MOL0     C38898   6.688   7.516   4.462  0.1627  0.9909 -0.4900
  289MOL0     C38899   6.764   7.573   4.357  0.1134  0.4093 -0.9483
  289MOL0     C38900   6.715   7.679   4.268  0.4595  0.5717  0.5232
  289MOL0     C38901   6.661   7.647   4.121  0.3997 -0.0948 -0.1692
  289MOL0     C38902   6.762   7.578   4.028 -0.9353 -0.1879  0.1665
  289MOL0     C38903   6.869   7.671   3.988  0.9708  0.0815 -0.5529
  289MOL0     O38904   6.949   7.598   3.898 -0.0440 -0.6178  0.1157
  289MOL0     C38905   7.074   7.645   3.877  0.5992 -0.9286  0.0186
  289MOL0     C38906   7.126   7.769   3.926 -0.6522  0.6227 -0.0385
  289MOL0     C38907   7.263   7.794   3.906 -0.3535  0.1833 -0.0343
  289MOL0     C38908   7.348   7.702   3.844  0.3563 -0.3778 -0.1392
  289MOL0     C38909   7.487   7.733   3.832 -0.6815  0.2493  0.1532
  289MOL0     O38910   7.553   7.653   3.738  0.3406  0.7883 -0.3399
  289MOL0     C38911   7.689   7.680   3.710 -0.5151 -0.5078 -0.4454
  289MOL0     C38912   7.735   7.785   3.623  0.2880  0.0486 -0.0413
  289MOL0     C38913   7.867   7.813   3.595 -0.3417  0.7970  0.8364
  289MOL0     C38914   7.966   7.739   3.665 -1.2453  0.3772 -0.1771
  289MOL0     O38915   8.101   7.755   3.648 -0.2583 -0.0784 -0.0094
  289MOL0     C38916   8.160   7.878   3.694  0.1607  0.3311  0.1977
  289MOL0     C38917   8.316   7.853   3.691 -0.2623 -0.4606  0.0613
  289MOL0     C38918   8.398   7.984   3.676  0.9937  0.2169  0.4048
  289MOL0     C38919   8.542   7.951   3.660 -0.1506 -0.2498  0.2129
  289MOL0     C38920   8.632   8.081   3.612 -0.2758  0.3331  0.0354
  289MOL0     C38921   8.776   8.090   3.667  0.7414  0.1666 -0.2374
  289MOL0     C38922   8.849   7.966   3.643 -0.0757  1.2036  0.6752
  289MOL0     C38923   8.947   7.980   3.537 -0.6287  0.0759 -0.4386
  289MOL0    Cl38924   9.095   8.073   3.583  0.0567 -0.7922 -0.2771
  289MOL0     C38925   7.930   7.642   3.763  0.5314  0.2602  0.8627
  289MOL0     C38926   7.793   7.615   3.782  0.1294  0.7959  0.9645
  289MOL0     O38927   7.533   7.830   3.886  0.5607 -0.0339  0.2128
  289MOL0     C38928   7.287   7.590   3.784 -0.5414  0.0120 -0.8366
  289MOL0     C38929   7.153   7.563   3.797 -0.0596 -0.2203 -0.4897
  289MOL0     N38930   6.900   7.531   4.371  0.2284 -0.7355 -0.1539
  289MOL0     N38931   6.913   7.453   4.475 -0.0206  0.6305 -0.0255
  289MOL0     C38932   7.534   7.237   5.176 -0.3667 -0.5703 -0.0353
  289MOL0     C38933   7.672   7.224   5.209  0.3772 -0.2115  0.0099
  289MOL0     C38934   8.078   7.286   5.386 -0.8575 -0.1030  0.7562
  289MOL0     C38935   8.146   7.168   5.344 -0.1890 -0.7184  0.2804
  289MOL0     C38936   8.279   7.156   5.344 -0.9232 -0.3386  0.2905
  289MOL0     C38937   8.360   7.261   5.397 -0.0155 -0.4679  0.1496
  289MOL0     O38938   8.499   7.254   5.400  0.4802 -0.4668 -0.0334
  289MOL0     C38939   8.567   7.144   5.332  0.6060  0.0166 -0.5624
  289MOL0     C38940   8.715   7.158   5.352 -0.4550  0.6673 -0.3342
  289MOL0     C38941   8.776   7.036   5.281 -0.5846 -0.1424  0.5645
  289MOL0     C38942   8.933   7.052   5.256  0.2222  0.2543  0.7915
  289MOL0     C38943   8.979   6.936   5.179  0.3146 -0.3714 -0.1375
  289MOL0     C38944   8.995   6.830   5.119 -0.4176  0.7154  0.4603
  289MOL0     C38945   8.296   7.372   5.441 -0.4417 -0.4877  0.0793
  289MOL0     C38946   8.155   7.393   5.433 -0.0859 -0.5521  0.2200
  289MOL0     C38947   8.097   7.521   5.488  1.0639 -0.1799 -0.6475
  289MOL0     H38948   7.643   7.211   5.545 -2.0565 -2.4606  0.6072
  289MOL0     H38949   7.407   7.249   5.488 -0.5588 -0.3867 -0.7386
  289MOL0     H38950   7.312   7.429   5.207 -1.7714  0.7594  2.0176
  289MOL0     H38951   7.283   7.326   5.075 -0.2411  1.6708 -0.0107
  289MOL0     H38952   7.095   7.465   5.151 -1.1528  0.2730  0.6912
  289MOL0     H38953   7.107   7.383   5.314  0.2577 -0.3294 -1.0755
  289MOL0     H38954   7.018   7.178   5.214 -1.2393 -2.0010 -2.2402
  289MOL0     H38955   7.042   7.246   5.047  0.8420  0.9882 -0.2333
  289MOL0     H38956   6.818   7.233   5.150  1.4396 -0.1580 -0.7417
  289MOL0     H38957   6.853   7.385   5.240 -1.0554  3.1385 -2.0460
  289MOL0     H38958   6.757   7.479   5.060  0.8621  1.5757  0.2812
  289MOL0     H38959   6.920   7.491   4.999 -1.1995  0.7041 -1.9352
  289MOL0     H38960   6.863   7.252   4.905  0.3832  0.6738  1.5135
  289MOL0     H38961   6.694   7.320   4.919  0.4098 -0.7190  1.5399
  289MOL0     H38962   6.927   7.444   4.752 -1.2890  1.0435 -2.2393
  289MOL0     H38963   6.778   7.520   4.817 -3.7158 -2.1122  3.2164
  289MOL0     H38964   6.791   7.276   4.638  3.6140 -0.0021  3.4406
  289MOL0     H38965   6.648   7.379   4.676  0.5680 -1.5981  1.8357
  289MOL0     H38966   6.587   7.532   4.497  0.6079 -1.4241  2.3054
  289MOL0     H38967   6.640   7.743   4.314 -2.2042 -0.4865 -2.0294
  289MOL0     H38968   6.793   7.755   4.251 -0.7188  1.4870 -1.1514
  289MOL0     H38969   6.570   7.588   4.133 -1.2364  2.1256 -0.9555
  289MOL0     H38970   6.627   7.738   4.070 -1.1242 -2.1869 -3.1951
  289MOL0     H38971   6.715   7.541   3.937 -0.0174  2.9934 -1.7668
  289MOL0     H38972   6.810   7.494   4.078 -2.1216 -0.2320  1.2828
  289MOL0     H38973   6.917   7.705   4.080 -1.9358  0.3734  0.9430
  289MOL0     H38974   6.826   7.762   3.946 -1.0212 -0.6154 -0.1168
  289MOL0     H38975   7.077   7.840   3.991  1.6891  2.4728 -0.1569
  289MOL0     H38976   7.306   7.883   3.950  3.3982 -1.0804 -0.7689
  289MOL0     H38977   7.650   7.826   3.568  0.3992 -2.2020 -2.0611
  289MOL0     H38978   7.887   7.895   3.527 -0.8892  0.4309  0.2290
  289MOL0     H38979   8.140   7.963   3.628  0.0901 -0.3807 -0.7223
  289MOL0     H38980   8.132   7.901   3.797  0.7389 -1.6457  0.8357
  289MOL0     H38981   8.336   7.787   3.776 -2.4786 -3.7615 -1.7706
  289MOL0     H38982   8.339   7.796   3.601 -1.6741 -0.4967 -0.2994
  289MOL0     H38983   8.356   8.032   3.587 -1.8081 -2.0217  0.3351
  289MOL0     H38984   8.394   8.052   3.761  0.1028 -1.3924  1.7081
  289MOL0     H38985   8.553   7.878   3.580  0.1050  0.0584 -0.0351
  289MOL0     H38986   8.582   7.911   3.754 -0.7231 -0.8991  0.1846
  289MOL0     H38987   8.587   8.180   3.623  2.2997  1.4542  1.6457
  289MOL0     H38988   8.639   8.064   3.504  1.4808  0.3043  0.1155
  289MOL0     H38989   8.824   8.177   3.622  2.0975  0.0636  0.9370
  289MOL0     H38990   8.754   8.110   3.772 -0.8149 -1.8516 -0.1073
  289MOL0     H38991   8.786   7.879   3.620 -0.8823  1.6789  1.0512
  289MOL0     H38992   8.908   7.949   3.734  2.2155  3.7545 -0.2043
  289MOL0     H38993   8.978   7.884   3.496 -1.3123 -1.6212  2.7434
  289MOL0     H38994   8.894   8.036   3.459 -1.8574 -2.4957 -1.5516
  289MOL0     H38995   8.002   7.585   3.821  0.1740  0.2950  1.3524
  289MOL0     H38996   7.757   7.536   3.847  1.3033  1.3644  2.3621
  289MOL0     H38997   7.353   7.522   3.730  1.6926  1.2745  0.1775
  289MOL0     H38998   7.109   7.468   3.767 -0.0960 -1.0726  2.0270
  289MOL0     H38999   7.493   7.250   5.076 -1.2773 -0.8115  0.2941
  289MOL0     H39000   7.758   7.228   5.142  1.8835 -2.3394  1.6558
  289MOL0     H39001   8.074   7.100   5.299 -2.3096 -0.1636  2.6027
  289MOL0     H39002   8.324   7.059   5.323  1.4605  0.7367  0.1118
  289MOL0     H39003   8.547   7.146   5.224 -1.9486  1.9242 -0.1738
  289MOL0     H39004   8.527   7.049   5.369  0.1694  1.2314  2.2979
  289MOL0     H39005   8.733   7.137   5.458  0.6989  0.5158 -0.5448
  289MOL0     H39006   8.759   7.255   5.327  1.0968  0.7096  2.1322
  289MOL0     H39007   8.726   7.007   5.189  0.1586  2.8404 -0.9331
  289MOL0     H39008   8.773   6.953   5.352  1.8963  1.7349  3.1358
  289MOL0     H39009   8.966   7.147   5.214  0.0322 -0.6028 -1.4423
  289MOL0     H39010   8.983   7.043   5.353  0.5821  2.8145  0.9028
  289MOL0     H39011   9.008   6.740   5.062 -0.7125  2.1747 -2.0679
  289MOL0     H39012   8.365   7.445   5.484  1.2226 -0.4540 -2.4366
  289MOL0     H39013   8.089   7.592   5.406  1.1305  2.5386  1.5733
  289MOL0     H39014   8.001   7.503   5.536  0.0349 -0.5085 -2.7246
  289MOL0     H39015   8.159   7.564   5.568  0.0635  1.1756 -0.5749
  290MOL0     O39016   1.542   3.455  10.213  0.1991  0.2508 -0.4476
  290MOL0     C39017   1.466   3.552  10.188 -0.3327  0.7236 -0.2843
  290MOL0     O39018   1.504   3.686  10.195  0.0700 -0.0886 -0.0654
  290MOL0     C39019   1.618   3.717  10.261  0.1690  0.2055  0.0685
  290MOL0     C39020   1.630   3.756  10.395  0.3394  0.2618  0.3366
  290MOL0     C39021   1.752   3.808  10.430  0.6213  0.5697  0.1181
  290MOL0     C39022   1.875   3.810  10.345  0.6704 -0.7164 -0.5713
  290MOL0     O39023   1.988   3.861  10.402  0.4129 -0.1775 -0.1953
  290MOL0     C39024   2.110   3.849  10.332 -0.1064  0.0967  0.4034
  290MOL0     C39025   2.219   3.884  10.421  0.3615 -0.4186 -1.1599
  290MOL0     C39026   2.217   4.032  10.466  0.0110 -0.0976  0.2795
  290MOL0     C39027   2.344   4.048  10.541 -0.2252  0.0776 -0.0856
  290MOL0     C39028   2.366   4.183  10.612  0.2913 -0.1338  0.1672
  290MOL0     C39029   2.510   4.180  10.673 -0.1825 -0.3730  0.6156
  290MOL0     C39030   2.552   4.309  10.755  0.1720  0.8226 -0.8149
  290MOL0     C39031   2.699   4.297  10.796 -0.4275  0.2410  0.1903
  290MOL0     N39032   2.733   4.413  10.880  0.6990  0.4702  0.3068
  290MOL0     C39033   2.740   4.541  10.837  0.2513  0.1370 -0.1445
  290MOL0     C39034   2.780   4.601  10.947 -0.0026 -0.1900  0.5629
  290MOL0     C39035   2.808   4.751  10.957  0.0110  0.0432  0.6648
  290MOL0     C39036   2.961   4.780  10.954 -0.5158 -0.5153  0.5618
  290MOL0     C39037   2.974   4.934  10.930 -0.0060 -0.5379  0.0121
  290MOL0     C39038   3.113   4.998  10.976 -0.1105  0.0884 -0.9363
  290MOL0     O39039   3.204   4.974  10.868 -0.7295  0.2377  0.0549
  290MOL0     C39040   3.337   5.003  10.906  0.5042 -0.5966 -0.1599
  290MOL0     C39041   3.379   5.090  11.010  0.1822  0.2278  0.5313
  290MOL0     C39042   3.511   5.125  11.019 -0.3073  0.5813  1.3008
  290MOL0     C39043   3.606   5.059  10.943  0.2413 -0.1630  0.8208
  290MOL0     C39044   3.752   5.096  10.958  0.1697 -0.3906 -1.5730
  290MOL0     O39045   3.850   5.025  10.887  0.4340  0.0593  0.3663
  290MOL0     C39046   3.987   5.051  10.892 -0.5924  0.4326 -1.1285
  290MOL0     C39047   4.063   4.951  10.829 -0.7736 -0.1946  0.4980
  290MOL0     C39048   4.199   4.945  10.839 -0.2209 -0.7668  0.4549
  290MOL0     C39049   4.263   5.045  10.913  0.2143 -0.0687  0.8426
  290MOL0     O39050   4.400   5.055  10.928  0.0389  0.7580 -0.1296
  290MOL0     C39051   4.493   4.988  10.841 -0.9727 -0.3147  0.1828
  290MOL0     C39052   4.636   5.049  10.845 -0.0857 -0.5650 -0.0292
  290MOL0     C39053   4.718   5.027  10.968  0.4372  0.0727  0.4197
  290MOL0     C39054   4.699   5.135  11.073  0.7157 -1.1019 -0.1183
  290MOL0     C39055   4.800   5.160  11.182 -0.1090  0.0697  0.9619
  290MOL0     C39056   4.934   5.199  11.115 -0.0655 -0.5892  0.1615
  290MOL0     C39057   5.031   5.250  11.216 -0.0752  0.2933 -1.2354
  290MOL0     C39058   5.174   5.274  11.161  0.7310  0.2652  0.4092
  290MOL0    Cl39059   5.277   5.305  11.298 -0.0125 -0.1723  0.1096
  290MOL0     C39060   4.192   5.153  10.973  0.4361  0.1963 -0.2688
  290MOL0     C39061   4.053   5.155  10.960  0.7809  0.1575  0.9759
  290MOL0     O39062   3.780   5.186  11.036  0.2881  0.0109  0.1427
  290MOL0     C39063   3.580   4.969  10.838  1.3782 -0.2216 -0.1690
  290MOL0     C39064   3.438   4.948  10.814  0.2321 -0.1926 -0.8986
  290MOL0     N39065   2.807   4.517  11.048 -0.0832  0.2153 -0.1239
  290MOL0     N39066   2.783   4.396  11.009 -0.2803  0.0165 -0.2210
  290MOL0     C39067   1.853   3.766  10.213  0.1768  0.0195 -0.5626
  290MOL0     C39068   1.730   3.718  10.174  0.5273 -0.3132  0.4266
  290MOL0     C39069   1.349   3.528  10.100 -0.1468  0.0877  1.4007
  290MOL0     C39070   1.341   3.397  10.035  0.7734 -0.4800 -1.0392
  290MOL0     C39071   1.232   3.351   9.963 -0.2016  0.5129  0.0945
  290MOL0     C39072   1.137   3.446   9.931  0.0699  0.1798 -0.0473
  290MOL0     O39073   1.039   3.408   9.840 -0.2483 -0.6540  0.1586
  290MOL0     C39074   0.899   3.408   9.886 -0.9253  0.2404  0.1770
  290MOL0     C39075   0.813   3.493   9.796 -0.3351  0.0534 -0.5926
  290MOL0     C39076   0.851   3.482   9.645 -0.4244  0.0721  0.6769
  290MOL0     C39077   0.759   3.577   9.565  0.5626  0.3927  0.3113
  290MOL0     C39078   0.831   3.698   9.521  0.1505  0.1995  0.8430
  290MOL0     C39079   0.918   3.779   9.495  0.9182  0.5823 -0.5392
  290MOL0     C39080   1.134   3.572   9.997  0.1070  0.4261  0.8490
  290MOL0     C39081   1.239   3.615  10.084 -0.5436  0.4700 -0.2134
  290MOL0     C39082   1.226   3.751  10.154 -0.5779  1.0916  0.5911
  290MOL0     H39083   1.548   3.751  10.466 -1.4934 -2.1318 -1.7566
  290MOL0     H39084   1.772   3.840  10.532 -0.6790 -0.6103  0.7882
  290MOL0     H39085   2.113   3.745  10.298 -3.2616  0.5106 -1.5642
  290MOL0     H39086   2.119   3.912  10.243 -0.0188 -0.7262 -0.1862
  290MOL0     H39087   2.307   3.864  10.360  1.8706  1.8374  0.1385
  290MOL0     H39088   2.222   3.815  10.506  1.6082  0.1542 -0.7166
  290MOL0     H39089   2.131   4.055  10.529 -1.1748 -0.4527 -1.1712
  290MOL0     H39090   2.213   4.098  10.379  2.6591  0.3029  0.3818
  290MOL0     H39091   2.346   3.977  10.624  1.8087  1.1117  0.8070
  290MOL0     H39092   2.427   4.025  10.475  0.1451 -2.1622  1.0423
  290MOL0     H39093   2.357   4.262  10.537 -0.8188  0.3615  0.8065
  290MOL0     H39094   2.298   4.214  10.691 -0.6419  0.3116 -0.7830
  290MOL0     H39095   2.524   4.089  10.732  3.6640 -2.3932 -2.9142
  290MOL0     H39096   2.584   4.188  10.593 -0.3436 -1.6685  0.3214
  290MOL0     H39097   2.494   4.314  10.847  0.0305 -2.1894 -0.6356
  290MOL0     H39098   2.552   4.405  10.703 -0.1945  1.7367  0.7861
  290MOL0     H39099   2.712   4.212  10.864  2.3105 -1.3496 -2.1073
  290MOL0     H39100   2.774   4.299  10.716  0.3490  2.0795  0.8981
  290MOL0     H39101   2.700   4.589  10.749 -0.9745 -2.4831 -1.1132
  290MOL0     H39102   2.753   4.797  10.875  0.0706 -2.0281 -0.6091
  290MOL0     H39103   2.761   4.789  11.048  1.5171 -0.8734  1.8894
  290MOL0     H39104   3.008   4.762  11.051 -0.7111  0.3512  0.8227
  290MOL0     H39105   3.017   4.722  10.880 -1.6672 -0.4406 -0.3975
  290MOL0     H39106   2.893   4.973  10.991 -1.2735 -0.3546 -1.7173
  290MOL0     H39107   2.971   4.964  10.825  2.7210  1.3886  0.3686
  290MOL0     H39108   3.146   4.954  11.071 -0.9405  2.3681  0.4808
  290MOL0     H39109   3.095   5.103  11.000 -1.9851 -0.2214 -0.8299
  290MOL0     H39110   3.308   5.137  11.078  0.0629  0.8896 -0.0467
  290MOL0     H39111   3.531   5.189  11.104  0.6762 -0.5486  1.9414
  290MOL0     H39112   4.003   4.887  10.765 -1.1383  1.3322 -0.7565
  290MOL0     H39113   4.252   4.860  10.797 -2.5606 -1.0261 -2.2496
  290MOL0     H39114   4.502   4.883  10.870 -2.2878  0.0624  2.2186
  290MOL0     H39115   4.460   4.996  10.737  0.4073  2.2820 -0.1414
  290MOL0     H39116   4.697   5.005  10.766  1.5238  0.2355  0.7041
  290MOL0     H39117   4.632   5.157  10.827  0.8759 -1.0928 -4.5744
  290MOL0     H39118   4.681   4.936  11.018 -2.8057  1.8523  1.5630
  290MOL0     H39119   4.823   5.013  10.940  0.4245  1.0586 -0.1605
  290MOL0     H39120   4.604   5.130  11.128  1.2521  5.0138  2.1985
  290MOL0     H39121   4.687   5.234  11.028  3.0270  1.2785  3.8776
  290MOL0     H39122   4.816   5.069  11.239 -0.2856 -1.5636 -1.4315
  290MOL0     H39123   4.764   5.240  11.247 -3.7914 -0.6569  0.0815
  290MOL0     H39124   4.971   5.112  11.060  1.4405  0.3708 -0.4249
  290MOL0     H39125   4.920   5.286  11.049 -1.9517  0.3240  1.6605
  290MOL0     H39126   5.028   5.182  11.301 -0.5648 -2.1114 -3.0465
  290MOL0     H39127   5.005   5.346  11.261  2.1707  0.7949 -0.8872
  290MOL0     H39128   5.204   5.185  11.105  2.3025  0.0096  1.5847
  290MOL0     H39129   5.159   5.352  11.086 -3.7160 -1.7830 -1.1463
  290MOL0     H39130   4.249   5.232  11.020  2.2204 -0.1254 -1.7769
  290MOL0     H39131   3.994   5.235  11.005 -1.6527 -1.0613  0.1134
  290MOL0     H39132   3.656   4.930  10.772 -0.2884 -1.3735 -1.5223
  290MOL0     H39133   3.397   4.878  10.742 -0.7239 -2.5864  1.7758
  290MOL0     H39134   1.932   3.755  10.140  2.5661 -0.1190  1.8698
  290MOL0     H39135   1.722   3.705  10.067  4.3275  0.4017 -0.0911
  290MOL0     H39136   1.411   3.318  10.063  0.1999 -1.0530 -1.1867
  290MOL0     H39137   1.224   3.245   9.940 -3.1633  0.9270 -1.2401
  290MOL0     H39138   0.883   3.435   9.990  0.0936 -2.2325  1.0574
  290MOL0     H39139   0.859   3.307   9.896 -0.1686  0.0003  0.9134
  290MOL0     H39140   0.817   3.597   9.831 -0.6563  0.6101 -2.1174
  290MOL0     H39141   0.708   3.463   9.804  0.1967 -1.7837  0.1062
  290MOL0     H39142   0.840   3.379   9.610  0.8689  0.4121 -0.8165
  290MOL0     H39143   0.955   3.506   9.622 -0.1174 -0.6967  1.2225
  290MOL0     H39144   0.712   3.532   9.476 -0.2345  3.4061 -0.9158
  290MOL0     H39145   0.682   3.615   9.632  0.3294  1.9318 -0.7740
  290MOL0     H39146   0.995   3.852   9.485  2.5057 -0.6835  1.6334
  290MOL0     H39147   1.051   3.635   9.968  0.3673  0.1023 -0.6982
  290MOL0     H39148   1.317   3.811  10.170 -0.4436  1.0662 -0.0543
  290MOL0     H39149   1.160   3.807  10.087 -1.0602  1.7691  1.6053
  290MOL0     H39150   1.182   3.738  10.253 -2.5669 -0.8866 -0.4807
  291MOL0     O39151   4.472   6.928   5.874  0.4494 -0.5177  0.3586
  291MOL0     C39152   4.457   7.052   5.854 -0.5697 -0.0053 -0.7806
  291MOL0     O39153   4.548   7.146   5.893  0.1476  0.2754  0.5160
  291MOL0     C39154   4.682   7.116   5.901 -0.4114  0.2955 -0.1181
  291MOL0     C39155   4.749   7.005   5.837 -0.0748  0.1405 -0.1987
  291MOL0     C39156   4.885   7.008   5.847  0.4895  0.6247  0.5239
  291MOL0     C39157   4.966   7.090   5.926  0.8729  0.3840 -0.8738
  291MOL0     O39158   5.098   7.075   5.922 -0.4384 -0.5038 -0.8036
  291MOL0     C39159   5.163   7.128   6.040 -0.1718 -0.4543 -0.2015
  291MOL0     C39160   5.300   7.064   6.053  0.7888  0.4745  0.6237
  291MOL0     C39161   5.402   7.132   5.968 -0.3500  0.7454 -0.2786
  291MOL0     C39162   5.532   7.042   5.950 -0.5893  0.3113  0.0428
  291MOL0     C39163   5.616   7.005   6.077  0.1628 -1.4289 -0.3403
  291MOL0     C39164   5.651   7.135   6.151  0.3543  0.0550  0.8473
  291MOL0     C39165   5.719   7.106   6.281 -0.2428 -0.3789  0.4042
  291MOL0     C39166   5.755   7.223   6.371 -0.2352  0.0005 -0.2603
  291MOL0     N39167   5.865   7.300   6.321  0.7985 -0.6805  0.7626
  291MOL0     C39168   5.972   7.252   6.251 -0.4028 -0.2768 -0.6273
  291MOL0     C39169   6.048   7.359   6.217 -0.0423  0.4575  0.1179
  291MOL0     C39170   6.177   7.356   6.146 -0.5339 -0.3922  0.9872
  291MOL0     C39171   6.302   7.326   6.230  0.6492 -0.8360  0.9092
  291MOL0     C39172   6.409   7.352   6.123 -0.0160 -0.3246  0.5556
  291MOL0     C39173   6.550   7.359   6.197 -0.2899 -0.2596 -0.6510
  291MOL0     O39174   6.641   7.396   6.091  0.6169 -0.2716 -0.4307
  291MOL0     C39175   6.770   7.415   6.129  0.5725  0.1865  0.4380
  291MOL0     C39176   6.823   7.320   6.221 -0.7719  0.4221 -0.3928
  291MOL0     C39177   6.956   7.327   6.255 -0.2661 -0.6643 -0.1270
  291MOL0     C39178   7.036   7.421   6.198 -0.4563 -0.5926  0.1228
  291MOL0     C39179   7.181   7.417   6.233  0.0112 -0.4197 -1.3680
  291MOL0     O39180   7.258   7.526   6.202 -0.0630  0.1534  0.7124
  291MOL0     C39181   7.380   7.552   6.268  0.2874 -0.6161  0.3539
  291MOL0     C39182   7.491   7.551   6.183  0.4655  0.0250 -0.2345
  291MOL0     C39183   7.624   7.558   6.234 -0.0035 -0.3905  0.4157
  291MOL0     C39184   7.639   7.582   6.368 -0.7278  0.2114 -0.7638
  291MOL0     O39185   7.763   7.616   6.422 -0.0013 -0.5951  0.3137
  291MOL0     C39186   7.876   7.618   6.340  0.4235  0.8397  0.3292
  291MOL0     C39187   7.992   7.668   6.425  0.3806  0.5103  0.4960
  291MOL0     C39188   8.132   7.665   6.349 -0.0635  0.0958 -0.1059
  291MOL0     C39189   8.253   7.704   6.437  0.4099  0.3489 -0.5866
  291MOL0     C39190   8.373   7.643   6.371 -0.1975 -0.2808 -1.4117
  291MOL0     C39191   8.495   7.696   6.444 -0.7780  0.5611 -0.8766
  291MOL0     C39192   8.540   7.841   6.416 -0.1063 -0.6427  0.7747
  291MOL0     C39193   8.593   7.864   6.274  0.3571  0.7054  0.3639
  291MOL0    Cl39194   8.764   7.810   6.269  0.0135  0.4371 -0.5195
  291MOL0     C39195   7.526   7.590   6.452 -0.6031 -0.7673  0.4014
  291MOL0     C39196   7.395   7.572   6.408  0.4002  0.7261  0.4716
  291MOL0     O39197   7.229   7.312   6.294  0.2069 -0.3466 -0.4679
  291MOL0     C39198   6.989   7.509   6.099  1.0136 -0.2344 -0.3626
  291MOL0     C39199   6.853   7.511   6.070  1.2336  0.0500 -0.5714
  291MOL0     N39200   5.979   7.472   6.256  0.2751 -0.3930 -0.8902
  291MOL0     N39201   5.874   7.434   6.328 -0.5106 -0.1475 -0.6425
  291MOL0     C39202   4.897   7.198   5.981  0.4367  0.1627 -0.9949
  291MOL0     C39203   4.761   7.213   5.959  0.1421  0.0282 -0.3702
  291MOL0     C39204   4.337   7.099   5.781 -0.2655 -0.2715 -0.1892
  291MOL0     C39205   4.276   7.008   5.700  0.3634 -0.2835 -0.2860
  291MOL0     C39206   4.163   7.027   5.626  0.3479  0.0767  0.2424
  291MOL0     C39207   4.109   7.158   5.630 -0.4651  0.5343  0.5876
  291MOL0     O39208   4.002   7.200   5.551 -0.3296  0.7057 -0.0024
  291MOL0     C39209   3.891   7.108   5.539  0.1520 -0.0190 -0.3530
  291MOL0     C39210   3.758   7.186   5.532 -0.0018 -0.0380  0.3140
  291MOL0     C39211   3.644   7.075   5.506  0.4181  0.1196  0.0550
  291MOL0     C39212   3.644   7.009   5.362  0.2586 -0.2749  0.0477
  291MOL0     C39213   3.660   7.092   5.238 -0.1647 -0.2157 -0.4071
  291MOL0     C39214   3.674   7.178   5.148  0.4560  0.6177 -0.4278
  291MOL0     C39215   4.165   7.260   5.712  0.8235 -0.8781  0.0127
  291MOL0     C39216   4.277   7.232   5.787  0.7653 -0.2956 -0.0760
  291MOL0     C39217   4.338   7.346   5.875  1.0114  0.3921  0.3707
  291MOL0     H39218   4.694   6.931   5.779 -1.2460  0.1361  0.8804
  291MOL0     H39219   4.934   6.928   5.793  0.3897  1.5650 -1.0239
  291MOL0     H39220   5.179   7.236   6.045 -2.3371 -0.0016 -1.6075
  291MOL0     H39221   5.100   7.102   6.125 -1.0193  0.3226 -0.5812
  291MOL0     H39222   5.280   6.959   6.028  0.5256  1.0468 -1.8771
  291MOL0     H39223   5.329   7.081   6.157  2.5980  1.3527  0.0121
  291MOL0     H39224   5.433   7.228   6.010  0.7702  0.9489 -1.5167
  291MOL0     H39225   5.357   7.150   5.870  0.2260  1.2214 -0.4619
  291MOL0     H39226   5.505   6.954   5.891  2.4623 -0.6107 -0.1409
  291MOL0     H39227   5.597   7.106   5.888 -0.2787  1.1216  1.1745
  291MOL0     H39228   5.557   6.933   6.136 -0.4714 -0.7427 -0.1233
  291MOL0     H39229   5.707   6.956   6.041  0.7067 -0.3204 -0.5128
  291MOL0     H39230   5.716   7.200   6.091 -0.3362  0.4886  0.5490
  291MOL0     H39231   5.553   7.180   6.173 -0.0773  0.0116 -0.7958
  291MOL0     H39232   5.812   7.059   6.247  0.5461  2.3412 -1.5586
  291MOL0     H39233   5.660   7.035   6.339  0.3021  0.6157  2.2495
  291MOL0     H39234   5.674   7.287   6.406 -0.2244 -0.7023  1.1002
  291MOL0     H39235   5.795   7.171   6.458  0.8196  1.9974  0.5185
  291MOL0     H39236   5.999   7.151   6.220 -2.7197 -0.2512 -3.0560
  291MOL0     H39237   6.167   7.282   6.065  0.7196  0.2023  0.2673
  291MOL0     H39238   6.187   7.452   6.095 -3.6333  0.0907  1.0997
  291MOL0     H39239   6.306   7.398   6.311  1.7486  1.0166 -0.7031
  291MOL0     H39240   6.299   7.226   6.274  0.6182 -0.3383  2.0684
  291MOL0     H39241   6.397   7.453   6.082  0.9364 -0.3800  0.1102
  291MOL0     H39242   6.406   7.285   6.037 -0.2146  0.5383 -0.1269
  291MOL0     H39243   6.568   7.263   6.246  2.6165  0.6918  0.4043
  291MOL0     H39244   6.554   7.431   6.279  0.0828 -2.8170  1.7171
  291MOL0     H39245   6.761   7.241   6.263 -1.8434  0.5985 -1.5738
  291MOL0     H39246   6.996   7.243   6.312 -2.8804 -1.3629  0.8381
  291MOL0     H39247   7.485   7.545   6.074 -0.7727  2.6690 -0.3995
  291MOL0     H39248   7.703   7.549   6.161 -0.4840  1.7985 -0.4570
  291MOL0     H39249   7.898   7.521   6.294  0.5134  0.6534  0.7622
  291MOL0     H39250   7.873   7.681   6.251 -0.2368  1.9908  1.1395
  291MOL0     H39251   7.965   7.762   6.473 -1.6279  0.0287  0.3954
  291MOL0     H39252   8.003   7.598   6.508  0.3090  2.0138  1.8082
  291MOL0     H39253   8.142   7.566   6.304  0.3266  0.0407  0.1029
  291MOL0     H39254   8.113   7.729   6.262 -1.7916  0.6959  0.6745
  291MOL0     H39255   8.237   7.670   6.540  0.4795  0.0564 -0.6731
  291MOL0     H39256   8.254   7.813   6.447 -2.2540  0.3311  1.0666
  291MOL0     H39257   8.374   7.667   6.264  0.5303 -0.4233 -1.4391
  291MOL0     H39258   8.366   7.534   6.384  1.1278 -0.0186  2.8976
  291MOL0     H39259   8.479   7.684   6.551 -0.5517 -2.7117 -1.1043
  291MOL0     H39260   8.581   7.631   6.423 -0.1726  0.3282  1.8956
  291MOL0     H39261   8.623   7.867   6.482  3.1495  1.5782 -3.6976
  291MOL0     H39262   8.456   7.908   6.438  0.5198 -0.1864  1.8323
  291MOL0     H39263   8.532   7.806   6.204 -0.9926  1.2690  1.0189
  291MOL0     H39264   8.591   7.969   6.244  3.1190  0.4191 -1.0532
  291MOL0     H39265   7.541   7.616   6.557 -1.9199  1.3268  0.1169
  291MOL0     H39266   7.311   7.568   6.476 -1.3044  2.0283 -1.4099
  291MOL0     H39267   7.063   7.578   6.061  2.4887 -0.5377  1.7999
  291MOL0     H39268   6.809   7.576   5.995  0.2491 -0.8368 -0.7760
  291MOL0     H39269   4.951   7.284   6.020  0.0985 -0.6496  1.4285
  291MOL0     H39270   4.718   7.302   6.005  1.6411  0.5025  0.1633
  291MOL0     H39271   4.307   6.903   5.700  0.0777 -0.4315  1.9657
  291MOL0     H39272   4.120   6.945   5.571  3.0800  0.5345 -2.8757
  291MOL0     H39273   3.889   7.041   5.626  0.8268  0.8483  0.3460
  291MOL0     H39274   3.906   7.042   5.453 -0.9356  0.5552 -0.9978
  291MOL0     H39275   3.744   7.261   5.454 -1.4674  0.9593  1.4805
  291MOL0     H39276   3.746   7.232   5.630 -1.5471  3.5592 -1.3755
  291MOL0     H39277   3.548   7.126   5.506 -1.7691 -3.2535 -4.8574
  291MOL0     H39278   3.651   6.999   5.584 -3.2116  0.3255  0.7354
  291MOL0     H39279   3.698   6.914   5.353 -1.0062 -0.9282 -1.0443
  291MOL0     H39280   3.538   6.981   5.362  0.0023  0.6586  0.6375
  291MOL0     H39281   3.678   7.257   5.077 -0.9495  3.1021  2.0515
  291MOL0     H39282   4.123   7.360   5.710 -0.0880 -1.2574 -1.5990
  291MOL0     H39283   4.265   7.426   5.885  0.3782 -0.2005  0.6086
  291MOL0     H39284   4.334   7.302   5.975  1.0134  0.3079  0.3338
  291MOL0     H39285   4.443   7.372   5.862  1.5171 -0.4856  2.2785
  292MOL0     O39286   4.379   0.936   7.891 -0.7194 -0.4923  0.4262
  292MOL0     C39287   4.286   0.986   7.829 -0.6210 -0.8379 -0.4125
  292MOL0     O39288   4.281   1.008   7.693  0.4688  0.7248 -0.0260
  292MOL0     C39289   4.397   1.005   7.623  0.8450 -0.5300 -0.1857
  292MOL0     C39290   4.519   1.056   7.677 -0.0324 -0.5284 -0.0834
  292MOL0     C39291   4.633   1.061   7.593 -0.2872  0.6914  0.5821
  292MOL0     C39292   4.626   1.013   7.455 -0.0843 -0.5373  0.5688
  292MOL0     O39293   4.733   1.036   7.372  0.3597  0.2296 -0.0039
  292MOL0     C39294   4.843   0.954   7.409 -0.2052  0.5363  0.7275
  292MOL0     C39295   4.959   0.979   7.316  0.1238 -0.4457 -0.7811
  292MOL0     C39296   5.077   0.886   7.343 -0.2698  0.5240  0.5275
  292MOL0     C39297   5.188   0.897   7.243 -1.1323 -0.5921  0.0711
  292MOL0     C39298   5.303   0.813   7.293  1.2738  0.5111 -0.2675
  292MOL0     C39299   5.420   0.812   7.190 -0.4897  0.7509 -0.7952
  292MOL0     C39300   5.548   0.742   7.261  1.0922 -0.7781 -1.0812
  292MOL0     C39301   5.633   0.654   7.174  0.6086  0.5286 -0.4683
  292MOL0     N39302   5.731   0.740   7.100 -0.7362  0.7524 -0.3152
  292MOL0     C39303   5.861   0.710   7.086 -0.2977 -0.2486  0.5299
  292MOL0     C39304   5.912   0.792   6.994  0.4965  0.4996 -0.4239
  292MOL0     C39305   6.063   0.804   6.967 -0.9015  0.4222  1.1068
  292MOL0     C39306   6.137   0.916   7.050 -0.4591 -0.1816  0.3104
  292MOL0     C39307   6.286   0.906   7.046 -0.3485 -0.1280  0.2064
  292MOL0     C39308   6.348   0.786   7.119  0.3628 -0.4160  1.1153
  292MOL0     O39309   6.491   0.795   7.136  0.3960 -0.4766 -0.3029
  292MOL0     C39310   6.552   0.680   7.164 -0.2355 -0.9612 -0.8129
  292MOL0     C39311   6.672   0.660   7.096  0.2352 -0.2534  0.4414
  292MOL0     C39312   6.743   0.544   7.099 -0.9902  0.3077 -0.2103
  292MOL0     C39313   6.707   0.436   7.180 -0.3043  0.4351 -0.8285
  292MOL0     C39314   6.765   0.299   7.189 -0.2283 -0.0912  0.4038
  292MOL0     O39315   6.842   0.266   7.082  0.5601 -0.6847  0.1962
  292MOL0     C39316   6.868   0.137   7.050 -0.2254 -0.2770 -0.4265
  292MOL0     C39317   6.770   0.066   6.986 -0.7678 -0.0935 -0.3384
  292MOL0     C39318   6.790  -0.072   6.968  0.1948  0.2390 -0.0386
  292MOL0     C39319   6.916  -0.130   7.002 -0.7831  0.6424  0.5301
  292MOL0     O39320   6.936  -0.264   6.984 -0.5684  0.4155  0.7677
  292MOL0     C39321   6.934  -0.299   6.852  0.8551 -1.0032 -0.4719
  292MOL0     C39322   6.926  -0.448   6.836  0.9888 -0.2248 -0.3904
  292MOL0     C39323   7.060  -0.531   6.862 -0.7131 -0.2848  0.3868
  292MOL0     C39324   7.183  -0.511   6.770 -0.0843 -0.4936  1.2243
  292MOL0     C39325   7.317  -0.489   6.850 -0.6669  0.1939  0.2470
  292MOL0     C39326   7.348  -0.617   6.933 -0.1890  0.2925  0.6640
  292MOL0     C39327   7.373  -0.747   6.852 -0.1838  0.0115 -0.3158
  292MOL0     C39328   7.433  -0.852   6.942 -0.2404 -0.0697 -0.2894
  292MOL0    Cl39329   7.610  -0.813   6.963 -0.0583 -0.2764 -0.0754
  292MOL0     C39330   7.009  -0.049   7.065  0.1821  0.6863 -0.2998
  292MOL0     C39331   6.989   0.084   7.087  1.1717  0.6957 -0.8733
  292MOL0     O39332   6.757   0.233   7.288 -0.7436  0.2779 -0.5775
  292MOL0     C39333   6.594   0.463   7.263  0.3343  0.2092  0.4647
  292MOL0     C39334   6.519   0.579   7.254  0.1424 -0.5910  0.2565
  292MOL0     N39335   5.807   0.869   6.956  0.1904 -0.6846  0.8557
  292MOL0     N39336   5.703   0.850   7.028 -0.0996 -0.1182  1.1050
  292MOL0     C39337   4.513   0.970   7.402 -0.8295  0.0711  0.1092
  292MOL0     C39338   4.399   0.976   7.483  0.4251 -0.3933 -0.8925
  292MOL0     C39339   4.155   1.023   7.906  0.0076  0.0960  0.9566
  292MOL0     C39340   4.048   1.060   7.823 -0.8136 -0.0822 -0.6163
  292MOL0     C39341   3.927   1.082   7.864  1.2717 -0.0277 -0.8642
  292MOL0     C39342   3.894   1.079   8.003 -0.6270  0.1042  0.1572
  292MOL0     O39343   3.767   1.121   8.047 -0.0594  0.1354 -0.0766
  292MOL0     C39344   3.739   1.148   8.182  0.4189 -0.2512 -0.3406
  292MOL0     C39345   3.588   1.187   8.201 -0.7068  0.0990 -0.0851
  292MOL0     C39346   3.550   1.303   8.114  0.1461 -0.8103 -1.0296
  292MOL0     C39347   3.401   1.329   8.124 -0.4815  0.1370 -0.0077
  292MOL0     C39348   3.382   1.469   8.077 -0.5745  0.1556  0.5024
  292MOL0     C39349   3.335   1.579   8.049 -0.2821  0.8245 -0.1678
  292MOL0     C39350   4.002   1.047   8.089 -0.0190 -1.4671 -0.3589
  292MOL0     C39351   4.136   1.018   8.046  0.4433  0.0791  0.1904
  292MOL0     C39352   4.240   0.969   8.148 -0.2669  0.4844  0.0471
  292MOL0     H39353   4.539   1.093   7.777  0.5629 -2.7357  0.6758
  292MOL0     H39354   4.724   1.094   7.642  0.6496 -0.9685  0.0067
  292MOL0     H39355   4.882   0.976   7.509  2.9875  4.2748 -1.0992
  292MOL0     H39356   4.798   0.854   7.408 -1.9509  1.2765  1.4953
  292MOL0     H39357   4.998   1.081   7.308 -2.1605  0.3723 -2.6356
  292MOL0     H39358   4.928   0.957   7.214 -1.7937  0.0594 -0.3467
  292MOL0     H39359   5.048   0.781   7.342 -4.3714  1.4112 -2.5046
  292MOL0     H39360   5.110   0.907   7.445  0.2232  2.3153  0.0352
  292MOL0     H39361   5.151   0.861   7.146 -0.7831 -0.8856  0.0430
  292MOL0     H39362   5.217   1.002   7.237  1.2628 -1.0471  2.0071
  292MOL0     H39363   5.340   0.856   7.386  1.1480 -2.4804  1.2692
  292MOL0     H39364   5.261   0.713   7.303 -3.3865  2.1980 -0.3998
  292MOL0     H39365   5.399   0.746   7.106  0.0817 -1.2097  0.5325
  292MOL0     H39366   5.444   0.913   7.156 -0.0670  0.9230 -0.0166
  292MOL0     H39367   5.502   0.681   7.339 -0.7956 -0.3541 -1.8058
  292MOL0     H39368   5.610   0.819   7.308 -0.4699 -0.6487  0.9137
  292MOL0     H39369   5.674   0.578   7.241  1.1407  2.0847  1.0829
  292MOL0     H39370   5.575   0.597   7.102 -1.3925  0.7130  0.9166
  292MOL0     H39371   5.918   0.630   7.133  0.6441  0.3674  0.4762
  292MOL0     H39372   6.102   0.709   7.004 -3.3552 -0.2100  2.3402
  292MOL0     H39373   6.089   0.819   6.862  1.5573  1.5136  1.7984
  292MOL0     H39374   6.115   1.015   7.010 -1.0592 -1.3825 -2.5453
  292MOL0     H39375   6.109   0.915   7.156  1.9194  0.3809  1.0105
  292MOL0     H39376   6.327   0.990   7.103  0.1279  0.0890 -0.4409
  292MOL0     H39377   6.325   0.914   6.944  0.2130  0.5396  0.4665
  292MOL0     H39378   6.328   0.700   7.055  0.6685  1.6474 -1.9748
  292MOL0     H39379   6.296   0.775   7.214  1.2110  0.7013  1.7287
  292MOL0     H39380   6.713   0.738   7.032  0.0310 -2.1313 -2.1198
  292MOL0     H39381   6.826   0.541   7.029 -0.9430 -0.3255 -0.1322
  292MOL0     H39382   6.678   0.117   6.956 -1.2359  0.8123  2.3651
  292MOL0     H39383   6.711  -0.133   6.924  0.0913  2.1274 -2.7440
  292MOL0     H39384   6.849  -0.254   6.800  0.0469 -1.9913 -0.0236
  292MOL0     H39385   7.022  -0.257   6.801  0.8060  0.4835  0.6099
  292MOL0     H39386   6.841  -0.491   6.890  1.2510  0.1376  0.3259
  292MOL0     H39387   6.901  -0.470   6.732  1.9755 -0.6913 -0.5402
  292MOL0     H39388   7.093  -0.500   6.962  0.2180 -1.5072  0.4917
  292MOL0     H39389   7.029  -0.636   6.863 -2.7239  0.2276 -1.2992
  292MOL0     H39390   7.157  -0.425   6.708 -1.1941  0.2202  2.6178
  292MOL0     H39391   7.198  -0.594   6.700 -1.5668 -0.2637  0.6140
  292MOL0     H39392   7.329  -0.401   6.913  0.8475  0.9485 -1.0364
  292MOL0     H39393   7.401  -0.483   6.780  1.3792 -0.5856  2.4871
  292MOL0     H39394   7.442  -0.605   6.989  0.6207 -2.6711  0.0931
  292MOL0     H39395   7.272  -0.639   7.008  1.4325 -3.6010  1.4038
  292MOL0     H39396   7.450  -0.736   6.776 -2.1273 -1.8372 -2.7474
  292MOL0     H39397   7.278  -0.783   6.811 -0.9428  1.0317  0.4882
  292MOL0     H39398   7.377  -0.874   7.033 -0.6629  1.2412 -0.2281
  292MOL0     H39399   7.418  -0.940   6.878  0.5028 -1.8229  1.8078
  292MOL0     H39400   7.106  -0.088   7.095 -0.2632 -1.0442 -1.0209
  292MOL0     H39401   7.058   0.155   7.131  0.1444  1.4009 -0.3639
  292MOL0     H39402   6.548   0.373   7.305  0.4953 -2.1345 -3.7820
  292MOL0     H39403   6.430   0.596   7.314  1.7652  0.7003  2.4421
  292MOL0     H39404   4.522   0.920   7.306 -0.3523 -0.6067  0.4980
  292MOL0     H39405   4.302   0.950   7.441 -0.3186  0.1949  0.4025
  292MOL0     H39406   4.065   1.080   7.718 -1.1240 -1.9091 -1.0456
  292MOL0     H39407   3.846   1.120   7.802  1.1426  0.6871 -0.2728
  292MOL0     H39408   3.798   1.234   8.215 -0.4719 -0.1326  0.9937
  292MOL0     H39409   3.764   1.068   8.252  0.4974 -0.3311 -0.4594
  292MOL0     H39410   3.562   1.219   8.302 -1.7274  2.6168 -1.0544
  292MOL0     H39411   3.521   1.103   8.178  0.7090 -0.6094 -1.8496
  292MOL0     H39412   3.574   1.277   8.010  2.2019 -1.0478 -0.5478
  292MOL0     H39413   3.598   1.394   8.152 -3.1351 -0.9049  4.3276
  292MOL0     H39414   3.340   1.262   8.063 -1.7379  1.2000  0.0419
  292MOL0     H39415   3.355   1.333   8.223 -1.4138  0.4543 -0.4468
  292MOL0     H39416   3.291   1.676   8.035 -1.0629  0.1818 -2.7147
  292MOL0     H39417   3.997   1.048   8.198  2.9513 -1.8646 -0.1473
  292MOL0     H39418   4.342   1.003   8.129  0.6867 -2.5384 -0.7703
  292MOL0     H39419   4.213   1.005   8.247 -3.3184  2.7488 -1.4371
  292MOL0     H39420   4.246   0.860   8.152 -0.0557  0.5292  2.1339
  293MOL0     O39421   0.734   7.382   5.970 -0.4171 -0.5096 -0.1755
  293MOL0     C39422   0.789   7.276   5.941  0.4611  0.4002  0.4322
  293MOL0     O39423   0.921   7.256   5.942  0.1177  0.8393  0.0451
  293MOL0     C39424   0.999   7.320   6.036  0.7589 -0.5795  0.2512
  293MOL0     C39425   1.133   7.311   6.009 -0.5579  0.2938 -0.1992
  293MOL0     C39426   1.232   7.351   6.103  0.2913 -0.2098 -0.1238
  293MOL0     C39427   1.193   7.421   6.224  0.5893 -0.9770 -0.1283
  293MOL0     O39428   1.276   7.482   6.319  0.0769  0.2845  0.2418
  293MOL0     C39429   1.409   7.419   6.321 -0.1769  0.0820 -0.1735
  293MOL0     C39430   1.454   7.443   6.464 -0.7746 -0.2866  0.0736
  293MOL0     C39431   1.353   7.395   6.564 -0.5813  0.4134  0.4121
  293MOL0     C39432   1.389   7.408   6.711 -0.6578 -0.5208 -0.3561
  293MOL0     C39433   1.265   7.392   6.806  0.3494 -0.2546  0.0910
  293MOL0     C39434   1.286   7.429   6.953  0.9590  0.4590 -0.1575
  293MOL0     C39435   1.416   7.366   7.011  0.0301  0.0960 -0.5678
  293MOL0     C39436   1.430   7.394   7.155 -0.3215  0.1132 -0.4319
  293MOL0     N39437   1.554   7.338   7.210 -0.4861 -0.7251  0.2198
  293MOL0     C39438   1.538   7.227   7.288 -1.5759  0.4764  0.6433
  293MOL0     C39439   1.656   7.221   7.354 -0.0209  0.2953  0.1883
  293MOL0     C39440   1.705   7.106   7.443  0.5245 -0.1856  0.1845
  293MOL0     C39441   1.746   6.979   7.369 -1.0495  0.1353  0.7399
  293MOL0     C39442   1.803   6.873   7.459 -0.0338 -0.2491 -0.8995
  293MOL0     C39443   1.856   6.749   7.396  0.5344  0.1428 -0.5742
  293MOL0     O39444   1.768   6.690   7.300 -0.0659 -0.6281  0.1709
  293MOL0     C39445   1.652   6.640   7.350  0.5476  0.5649  0.2290
  293MOL0     C39446   1.651   6.544   7.447  0.0050 -0.6116 -0.3418
  293MOL0     C39447   1.532   6.476   7.476 -0.5121 -1.0798  0.0826
  293MOL0     C39448   1.408   6.519   7.418  0.3453 -0.4363 -0.0354
  293MOL0     C39449   1.280   6.446   7.434  0.0167  0.4362 -0.6270
  293MOL0     O39450   1.172   6.505   7.392 -0.4070 -0.1359 -0.0789
  293MOL0     C39451   1.055   6.441   7.387  0.9031 -0.9861  0.0284
  293MOL0     C39452   1.024   6.318   7.341  0.0713  0.8504 -0.2684
  293MOL0     C39453   0.896   6.262   7.348  0.4060 -0.6062 -0.1802
  293MOL0     C39454   0.794   6.334   7.404 -0.0364  1.0848 -0.8930
  293MOL0     O39455   0.665   6.287   7.395  0.0253 -0.5621 -0.0466
  293MOL0     C39456   0.553   6.335   7.471  0.3322 -0.0868 -0.4941
  293MOL0     C39457   0.429   6.256   7.447  0.2220  0.0730 -0.3397
  293MOL0     C39458   0.298   6.348   7.456 -0.1459  0.3586 -0.0634
  293MOL0     C39459   0.179   6.260   7.439  0.3138 -0.8180 -0.5598
  293MOL0     C39460   0.068   6.340   7.372 -0.2577  0.1071 -0.8097
  293MOL0     C39461  -0.075   6.266   7.376  0.4656 -0.1958  0.4940
  293MOL0     C39462  -0.178   6.343   7.289  0.1675  0.3665  0.1831
  293MOL0     C39463  -0.321   6.285   7.304  0.0422  0.6047  0.0049
  293MOL0    Cl39464  -0.362   6.251   7.464 -0.0135 -0.0006  0.1794
  293MOL0     C39465   0.818   6.468   7.446 -0.3597 -0.4215 -0.3694
  293MOL0     C39466   0.951   6.517   7.441 -0.2817  0.6602  0.1177
  293MOL0     O39467   1.286   6.345   7.498  0.8969 -0.4629  0.5048
  293MOL0     C39468   1.411   6.632   7.337  0.6696 -0.3416  0.7991
  293MOL0     C39469   1.533   6.678   7.288 -0.2844 -0.4699 -0.0378
  293MOL0     N39470   1.742   7.320   7.307  0.1493 -0.3599  0.3623
  293MOL0     N39471   1.684   7.392   7.226 -0.1116 -0.2088  0.2104
  293MOL0     C39472   1.055   7.438   6.236 -0.7375  1.0482 -0.4458
  293MOL0     C39473   0.956   7.384   6.151 -0.3433 -0.4146  0.3390
  293MOL0     C39474   0.694   7.166   5.911 -0.7856 -0.4215 -0.5961
  293MOL0     C39475   0.756   7.044   5.918  0.9049 -0.1720 -0.8364
  293MOL0     C39476   0.690   6.922   5.916  0.6657  0.0465  0.4311
  293MOL0     C39477   0.552   6.918   5.915  0.2554 -0.6126  0.1892
  293MOL0     O39478   0.486   6.797   5.915  0.4185  0.1745  0.1230
  293MOL0     C39479   0.349   6.782   5.961  0.1159 -0.9268  0.5671
  293MOL0     C39480   0.319   6.630   5.983  0.0083 -0.0675  0.1297
  293MOL0     C39481   0.331   6.544   5.850 -0.5443 -0.9327 -0.6447
  293MOL0     C39482   0.207   6.527   5.764  0.1057 -0.3265 -0.0392
  293MOL0     C39483   0.167   6.649   5.698  0.0562  0.6838 -0.4713
  293MOL0     C39484   0.137   6.745   5.631 -0.3049  0.4045  0.0034
  293MOL0     C39485   0.489   7.041   5.925 -0.1446 -0.8498  0.8118
  293MOL0     C39486   0.551   7.160   5.929 -0.2130  0.2850  0.8585
  293MOL0     C39487   0.457   7.279   5.939  0.3258  0.0425 -0.4942
  293MOL0     H39488   1.167   7.271   5.914 -0.3179  3.2866 -1.4857
  293MOL0     H39489   1.335   7.333   6.076  0.4680  2.8482 -1.9740
  293MOL0     H39490   1.389   7.313   6.303 -0.5731  0.1455 -0.1301
  293MOL0     H39491   1.477   7.458   6.244  0.5129 -2.7357 -1.0897
  293MOL0     H39492   1.469   7.551   6.475  0.8096 -0.6064  1.4926
  293MOL0     H39493   1.552   7.396   6.473 -1.0804 -1.1397 -0.9452
  293MOL0     H39494   1.332   7.290   6.542 -1.0032  0.9403 -2.0367
  293MOL0     H39495   1.256   7.446   6.568 -0.6311  0.2317  1.8522
  293MOL0     H39496   1.471   7.337   6.726  1.4016  1.8675  0.3686
  293MOL0     H39497   1.432   7.508   6.720  1.2744 -1.3646  0.3425
  293MOL0     H39498   1.183   7.461   6.781 -2.0939 -2.9074  0.1833
  293MOL0     H39499   1.236   7.288   6.793  1.8679 -0.7571  0.6132
  293MOL0     H39500   1.279   7.538   6.962 -0.0868  0.3256  0.8486
  293MOL0     H39501   1.205   7.390   7.016  2.4210 -0.2948  1.3274
  293MOL0     H39502   1.504   7.401   6.955  0.8774 -1.6603 -0.3862
  293MOL0     H39503   1.404   7.259   6.995  0.6659 -0.5446  2.6669
  293MOL0     H39504   1.441   7.502   7.174  0.6066  0.0102 -0.3511
  293MOL0     H39505   1.345   7.363   7.216 -0.4162  2.4246  0.7490
  293MOL0     H39506   1.452   7.161   7.295 -0.4880 -1.2094 -0.7714
  293MOL0     H39507   1.791   7.152   7.492 -1.7142  0.7932  3.5565
  293MOL0     H39508   1.628   7.096   7.521  1.4344  1.2152  1.3237
  293MOL0     H39509   1.672   6.931   7.305 -1.4958  1.6544  0.0688
  293MOL0     H39510   1.828   7.007   7.303  0.8243 -1.3806  2.3020
  293MOL0     H39511   1.728   6.842   7.533  1.0404 -3.2666 -0.9159
  293MOL0     H39512   1.892   6.904   7.514  1.6464  0.0961 -3.6381
  293MOL0     H39513   1.879   6.677   7.475  0.7227  0.9746  0.1422
  293MOL0     H39514   1.942   6.781   7.337 -0.0051  0.4262 -1.2178
  293MOL0     H39515   1.740   6.504   7.494 -0.1002 -0.1388  0.2862
  293MOL0     H39516   1.537   6.390   7.542  1.6482 -1.9710 -1.1659
  293MOL0     H39517   1.098   6.261   7.285 -0.4874  2.4252 -2.7580
  293MOL0     H39518   0.891   6.163   7.305 -0.1232 -0.8897  0.5344
  293MOL0     H39519   0.581   6.332   7.577  3.2320  1.7612 -1.0872
  293MOL0     H39520   0.548   6.443   7.451 -0.9098  0.8889  3.8800
  293MOL0     H39521   0.440   6.209   7.349  1.0712 -0.1724 -0.1326
  293MOL0     H39522   0.418   6.181   7.526  0.9143  1.6575  1.3351
  293MOL0     H39523   0.287   6.399   7.552 -2.0429 -1.5482  0.8068
  293MOL0     H39524   0.310   6.417   7.372  0.4815 -1.6553 -1.7291
  293MOL0     H39525   0.139   6.236   7.538 -0.9280  2.6766 -0.0639
  293MOL0     H39526   0.210   6.170   7.385  0.4287  0.4339 -2.6956
  293MOL0     H39527   0.099   6.351   7.267 -0.8821 -0.1620 -1.0317
  293MOL0     H39528   0.054   6.434   7.425  1.0683 -0.5949  0.8440
  293MOL0     H39529  -0.074   6.167   7.331 -1.5911  0.8998 -2.2569
  293MOL0     H39530  -0.117   6.255   7.476 -2.6213 -0.1195 -0.6805
  293MOL0     H39531  -0.161   6.341   7.181 -2.6056 -0.6421 -0.2875
  293MOL0     H39532  -0.175   6.451   7.308  2.0553  0.3096  0.4095
  293MOL0     H39533  -0.392   6.362   7.271  0.1789  0.9229  0.4527
  293MOL0     H39534  -0.329   6.188   7.253 -0.7711  0.7539 -0.1652
  293MOL0     H39535   0.732   6.528   7.477  0.2546  0.5322 -0.4727
  293MOL0     H39536   0.979   6.618   7.469  1.7721  0.1271  0.1295
  293MOL0     H39537   1.317   6.660   7.289  0.0878 -2.0645  0.8540
  293MOL0     H39538   1.541   6.752   7.209  0.5209 -1.2397 -0.6932
  293MOL0     H39539   1.027   7.494   6.324 -1.8811  2.8411 -1.8849
  293MOL0     H39540   0.851   7.381   6.178 -1.0808 -1.3289 -2.3391
  293MOL0     H39541   0.862   7.025   5.926  1.6169  3.0118 -1.3844
  293MOL0     H39542   0.738   6.825   5.913  1.4242  0.3221  2.4056
  293MOL0     H39543   0.265   6.823   5.903 -0.3217 -0.2726  1.6145
  293MOL0     H39544   0.348   6.821   6.064  0.2712  0.3375  0.1089
  293MOL0     H39545   0.213   6.623   6.008  0.2166  2.5737  2.2051
  293MOL0     H39546   0.377   6.587   6.065 -0.0521 -0.1288  0.1402
  293MOL0     H39547   0.359   6.441   5.870 -2.0516 -1.6555 -1.9480
  293MOL0     H39548   0.404   6.584   5.779  0.3726 -0.0792  0.7322
  293MOL0     H39549   0.223   6.455   5.683 -1.7238 -1.1298  0.2535
  293MOL0     H39550   0.118   6.500   5.821 -0.1567  3.1824  1.4700
  293MOL0     H39551   0.116   6.819   5.555  0.1339  0.4359 -0.0905
  293MOL0     H39552   0.381   7.046   5.911 -0.3767 -1.7183  2.1196
  293MOL0     H39553   0.455   7.309   6.044 -4.4362 -1.0004 -0.0271
  293MOL0     H39554   0.483   7.367   5.879  1.0980  0.2980  0.2062
  293MOL0     H39555   0.355   7.246   5.916  0.7572 -1.7869  0.0670
  294MOL0     O39556   7.434   3.435   5.570  0.3429  0.2178 -0.3288
  294MOL0     C39557   7.438   3.321   5.609 -0.1729  0.9506 -0.3653
  294MOL0     O39558   7.551   3.254   5.626 -0.4829 -0.3842  0.8204
  294MOL0     C39559   7.676   3.312   5.601 -0.4756 -0.9362 -0.2015
  294MOL0     C39560   7.749   3.281   5.487  0.2224 -0.1234 -0.6135
  294MOL0     C39561   7.872   3.341   5.467 -0.9480  0.2229 -0.8639
  294MOL0     C39562   7.935   3.428   5.564  0.8576 -0.2428  0.6044
  294MOL0     O39563   8.065   3.468   5.555  0.2467 -0.5900 -0.0795
  294MOL0     C39564   8.149   3.426   5.447  0.1123  0.2838  0.2003
  294MOL0     C39565   8.287   3.475   5.478  0.0106 -0.0789 -0.4052
  294MOL0     C39566   8.309   3.627   5.439 -0.1346  0.5720 -1.1399
  294MOL0     C39567   8.445   3.669   5.519  0.1865 -0.6532  0.5274
  294MOL0     C39568   8.483   3.822   5.510 -0.8921  0.4348 -0.1400
  294MOL0     C39569   8.568   3.870   5.633  0.3494  0.5452  0.2529
  294MOL0     C39570   8.696   3.786   5.637  0.4404 -1.0649  0.1969
  294MOL0     C39571   8.785   3.825   5.755 -0.7927  0.1672 -0.5486
  294MOL0     N39572   8.882   3.717   5.798 -0.2167 -0.5065  0.3226
  294MOL0     C39573   8.870   3.638   5.901  0.3532 -0.2658 -0.6056
  294MOL0     C39574   8.987   3.579   5.921  0.2942 -0.4158 -0.5281
  294MOL0     C39575   9.012   3.489   6.034  0.8336 -0.0522  0.8250
  294MOL0     C39576   9.109   3.563   6.125  0.9780  0.1903 -0.4030
  294MOL0     C39577   9.094   3.507   6.272 -0.8347 -0.0900 -0.3938
  294MOL0     C39578   9.212   3.547   6.358  0.1117 -1.1638  0.0646
  294MOL0     O39579   9.325   3.478   6.310 -0.4932 -0.1014 -0.7073
  294MOL0     C39580   9.450   3.495   6.377 -0.2976 -0.1766  0.7054
  294MOL0     C39581   9.466   3.494   6.509 -0.2670 -0.0899 -0.0927
  294MOL0     C39582   9.594   3.512   6.569 -0.0151 -0.1451 -0.3052
  294MOL0     C39583   9.703   3.538   6.492  0.7175  0.2033  0.1918
  294MOL0     C39584   9.831   3.564   6.559 -0.2762 -0.3196 -0.9134
  294MOL0     O39585   9.826   3.648   6.673 -0.2420 -0.2896 -0.5140
  294MOL0     C39586   9.938   3.693   6.730 -0.2510  0.4043  0.1572
  294MOL0     C39587   9.947   3.829   6.746 -0.6461  0.9940  0.2990
  294MOL0     C39588  10.064   3.880   6.806 -0.5788  0.1920  0.5234
  294MOL0     C39589  10.168   3.800   6.849  0.5366  0.2651  0.2819
  294MOL0     O39590  10.289   3.851   6.892  0.1491  0.1665  0.1534
  294MOL0     C39591  10.279   3.910   7.023 -0.1725 -0.5183 -0.4801
  294MOL0     C39592  10.415   3.902   7.107  0.5646  0.8028  0.5218
  294MOL0     C39593  10.525   3.982   7.038 -0.9098  0.2469 -0.1506
  294MOL0     C39594  10.662   3.956   7.105  0.1574 -0.0889 -0.8452
  294MOL0     C39595  10.778   4.044   7.059 -0.0030 -0.0593  0.3779
  294MOL0     C39596  10.914   3.992   7.112 -0.2959 -0.2408 -0.5863
  294MOL0     C39597  11.035   4.065   7.058  0.2192 -0.5483  0.4863
  294MOL0     C39598  11.163   4.022   7.125 -0.4131  0.1621 -0.4493
  294MOL0    Cl39599  11.209   3.870   7.037  0.2230 -0.0630  0.0123
  294MOL0     C39600  10.153   3.662   6.835 -1.0561  0.1990  0.6379
  294MOL0     C39601  10.035   3.604   6.776  0.0096  0.1870  0.6478
  294MOL0     O39602   9.930   3.532   6.499  0.6599 -0.2934  0.0184
  294MOL0     C39603   9.687   3.547   6.347  0.0989 -0.1875 -0.0420
  294MOL0     C39604   9.561   3.518   6.291  0.2015 -0.1977 -0.3013
  294MOL0     N39605   9.077   3.627   5.836 -0.5997 -0.4320 -0.7766
  294MOL0     N39606   9.011   3.708   5.760 -0.5886  0.2010  1.1637
  294MOL0     C39607   7.861   3.455   5.674 -0.6035  0.2036 -0.0783
  294MOL0     C39608   7.726   3.407   5.698 -0.6850 -0.1189  0.1315
  294MOL0     C39609   7.314   3.257   5.669 -0.2988  0.1068 -0.5168
  294MOL0     C39610   7.325   3.135   5.738  0.2869 -0.1777 -1.1095
  294MOL0     C39611   7.214   3.073   5.795  0.6109 -0.3737  0.3620
  294MOL0     C39612   7.089   3.139   5.795 -0.9637  0.4265  0.0682
  294MOL0     O39613   6.989   3.115   5.882  0.1908  0.2221  0.0924
  294MOL0     C39614   7.008   3.032   5.996  0.5389  0.8480 -0.4442
  294MOL0     C39615   6.995   2.883   5.962 -0.0163 -0.0707  0.3641
  294MOL0     C39616   7.059   2.791   6.069  0.3723  1.3598  0.1148
  294MOL0     C39617   6.975   2.781   6.199  0.6405 -0.0326  0.0147
  294MOL0     C39618   6.844   2.726   6.192 -0.0363 -0.1779  0.7564
  294MOL0     C39619   6.739   2.672   6.184  0.0587  0.4056  0.5637
  294MOL0     C39620   7.078   3.266   5.725 -0.7394 -0.5431  0.0707
  294MOL0     C39621   7.186   3.327   5.667 -0.6481  0.9315  0.0689
  294MOL0     C39622   7.153   3.448   5.579  0.0961 -0.4558  0.3667
  294MOL0     H39623   7.701   3.214   5.417 -2.9181  1.7449 -0.4457
  294MOL0     H39624   7.927   3.314   5.377  0.2693 -4.2154  0.9719
  294MOL0     H39625   8.152   3.318   5.433  0.8541  0.5452 -2.2330
  294MOL0     H39626   8.115   3.479   5.357 -0.5084  1.9587  1.3757
  294MOL0     H39627   8.353   3.423   5.408 -0.0637  2.0460 -2.1372
  294MOL0     H39628   8.304   3.442   5.581 -1.7382 -1.1659 -0.4140
  294MOL0     H39629   8.231   3.692   5.480  2.8258  3.1792  0.9167
  294MOL0     H39630   8.316   3.630   5.330 -1.0804 -0.8845 -1.2659
  294MOL0     H39631   8.432   3.651   5.626 -1.6107 -0.0503  0.4466
  294MOL0     H39632   8.519   3.600   5.478 -0.0797 -0.5138 -0.2033
  294MOL0     H39633   8.538   3.832   5.416 -0.5234 -0.5233 -0.0429
  294MOL0     H39634   8.391   3.878   5.490  0.1228  2.1169 -0.2071
  294MOL0     H39635   8.581   3.978   5.629  0.8357  0.4668 -0.5143
  294MOL0     H39636   8.507   3.838   5.718  0.8981 -1.1931  0.0286
  294MOL0     H39637   8.746   3.800   5.541 -0.8191 -1.2717 -0.5129
  294MOL0     H39638   8.673   3.680   5.646 -4.3533 -0.3559 -0.8935
  294MOL0     H39639   8.851   3.906   5.721  1.6688 -1.1413  0.7640
  294MOL0     H39640   8.732   3.861   5.843 -2.8537 -1.4265 -1.0827
  294MOL0     H39641   8.776   3.627   5.954  1.0664 -0.3223  0.6895
  294MOL0     H39642   8.918   3.472   6.087 -0.5771  0.6065 -1.2953
  294MOL0     H39643   9.051   3.394   5.997 -1.9659 -0.2948 -1.9543
  294MOL0     H39644   9.211   3.551   6.089  2.1517  3.0316  1.6430
  294MOL0     H39645   9.082   3.669   6.130 -3.0310 -0.4596 -3.1251
  294MOL0     H39646   9.106   3.399   6.269  0.8481 -0.1494  2.8770
  294MOL0     H39647   8.995   3.536   6.310 -1.8009 -0.7786 -2.2975
  294MOL0     H39648   9.203   3.542   6.467  2.7871 -2.3884  0.2928
  294MOL0     H39649   9.219   3.655   6.339  0.1136 -1.2154 -0.2278
  294MOL0     H39650   9.387   3.481   6.583  0.7313  0.3616  1.0874
  294MOL0     H39651   9.603   3.514   6.677  0.3225  0.8928 -0.3368
  294MOL0     H39652   9.851   3.878   6.730 -1.1674  0.4760  1.6759
  294MOL0     H39653  10.078   3.988   6.801 -0.4244  0.1394 -0.3355
  294MOL0     H39654  10.259   4.017   7.008 -0.4347 -0.7228 -1.6999
  294MOL0     H39655  10.203   3.860   7.083  0.5671  1.9039  2.7991
  294MOL0     H39656  10.413   3.927   7.213  0.4456 -1.3974  1.0837
  294MOL0     H39657  10.437   3.795   7.109  0.7545  0.7796 -1.3146
  294MOL0     H39658  10.545   3.948   6.935 -1.3719 -1.7937  0.3842
  294MOL0     H39659  10.501   4.088   7.037 -3.3973 -0.2519  0.5840
  294MOL0     H39660  10.690   3.851   7.093  1.1168  0.1253 -0.5730
  294MOL0     H39661  10.647   3.954   7.213 -0.5939  0.0689 -0.9408
  294MOL0     H39662  10.762   4.146   7.095 -1.6109 -1.4515  4.1504
  294MOL0     H39663  10.775   4.027   6.951 -0.4504  0.2250  0.3463
  294MOL0     H39664  10.910   4.001   7.221 -4.1944 -1.7982 -0.4592
  294MOL0     H39665  10.919   3.885   7.087  2.5879 -0.3906  0.2603
  294MOL0     H39666  11.010   4.171   7.069  1.1213  0.1863 -3.3842
  294MOL0     H39667  11.034   4.052   6.950 -1.9246 -3.5342  0.7129
  294MOL0     H39668  11.246   4.092   7.112 -0.1888  0.1074  0.5864
  294MOL0     H39669  11.146   4.006   7.232  1.2445 -0.1326 -0.2053
  294MOL0     H39670  10.235   3.598   6.865 -1.3246  1.1681  3.7830
  294MOL0     H39671  10.023   3.496   6.778  2.5722 -0.2314 -1.2049
  294MOL0     H39672   9.774   3.564   6.286  1.8943 -0.6350  2.2450
  294MOL0     H39673   9.543   3.504   6.185 -0.1244  1.2646 -0.4570
  294MOL0     H39674   7.916   3.524   5.738  2.3023 -1.4263 -0.6586
  294MOL0     H39675   7.669   3.439   5.785 -0.8486  0.3355 -0.1443
  294MOL0     H39676   7.424   3.091   5.747  0.5293  0.0704 -2.4344
  294MOL0     H39677   7.225   2.977   5.845 -0.4945 -0.0745  1.2298
  294MOL0     H39678   6.936   3.052   6.075  1.7288 -0.1535  0.9641
  294MOL0     H39679   7.108   3.049   6.037  1.1221 -1.8209 -0.5650
  294MOL0     H39680   7.044   2.852   5.870 -1.3552 -1.7588  0.1614
  294MOL0     H39681   6.889   2.857   5.955  0.3909 -1.2647 -4.1335
  294MOL0     H39682   7.156   2.837   6.092  1.3311  0.5502 -2.0121
  294MOL0     H39683   7.076   2.690   6.031 -2.7081 -0.5085  3.1431
  294MOL0     H39684   7.028   2.720   6.273 -2.6268 -1.9897  0.9338
  294MOL0     H39685   6.966   2.881   6.242 -0.4233 -0.4059  0.6793
  294MOL0     H39686   6.644   2.622   6.174 -0.2962  0.9804  0.9661
  294MOL0     H39687   6.981   3.311   5.707 -0.5120 -0.1981 -0.2915
  294MOL0     H39688   7.046   3.450   5.557  0.0241 -0.9685  0.6468
  294MOL0     H39689   7.178   3.545   5.621 -5.6406  2.4241 -1.7489
  294MOL0     H39690   7.210   3.443   5.486  1.0483  0.2639  0.9058
  295MOL0     O39691   7.601   0.896   8.321 -0.1773  0.2704 -0.8676
  295MOL0     C39692   7.493   0.888   8.263  0.7764  0.3107 -0.1890
  295MOL0     O39693   7.475   0.844   8.131 -0.3705 -0.2941 -0.6571
  295MOL0     C39694   7.583   0.852   8.052  0.7505  0.1732 -0.2396
  295MOL0     C39695   7.649   0.744   8.007 -0.1500 -0.9038 -0.8187
  295MOL0     C39696   7.765   0.753   7.926  0.5116  0.3171 -0.0230
  295MOL0     C39697   7.821   0.873   7.904 -0.3990 -0.8564  1.0799
  295MOL0     O39698   7.940   0.889   7.827 -0.7619  0.0021 -0.4572
  295MOL0     C39699   8.061   0.926   7.897 -0.0527 -0.0675  0.0844
  295MOL0     C39700   8.174   0.864   7.824  0.5782  0.1295 -0.0937
  295MOL0     C39701   8.311   0.928   7.862  1.1865  0.3367 -0.3284
  295MOL0     C39702   8.324   1.055   7.785  0.1777  0.5971 -0.1493
  295MOL0     C39703   8.447   1.140   7.824 -0.2834 -0.7756  0.0916
  295MOL0     C39704   8.473   1.258   7.722 -0.3260 -0.2638 -0.0085
  295MOL0     C39705   8.592   1.337   7.756 -0.1084  0.6679  0.0419
  295MOL0     C39706   8.618   1.448   7.656  0.4341  1.1962  0.1195
  295MOL0     N39707   8.742   1.515   7.690  1.2654 -0.5223  0.2539
  295MOL0     C39708   8.743   1.623   7.784  0.1959  0.3147 -0.4383
  295MOL0     C39709   8.878   1.642   7.803  0.1763  0.6766  0.1444
  295MOL0     C39710   8.944   1.736   7.896 -0.0430  0.0735 -0.0948
  295MOL0     C39711   9.097   1.732   7.889  0.2497  0.2581 -0.3448
  295MOL0     C39712   9.149   1.799   8.016  0.7911 -0.1562 -0.1750
  295MOL0     C39713   9.300   1.818   8.020  0.4132  0.6090  0.2999
  295MOL0     O39714   9.331   1.945   7.960  0.5209 -0.2840 -0.0130
  295MOL0     C39715   9.430   2.014   8.017  0.4815  0.8384 -0.0323
  295MOL0     C39716   9.441   2.144   7.979 -0.8567  0.2250 -0.6124
  295MOL0     C39717   9.541   2.230   8.029 -1.1961  0.5771 -0.1198
  295MOL0     C39718   9.632   2.182   8.125  0.5012 -0.3903  0.0791
  295MOL0     C39719   9.746   2.267   8.172 -0.3217 -0.1381 -0.1081
  295MOL0     O39720   9.752   2.387   8.118  0.7243 -0.7686  0.0193
  295MOL0     C39721   9.839   2.488   8.157 -0.4790  0.6385  0.1016
  295MOL0     C39722   9.863   2.586   8.054  0.7630  0.3171  0.4199
  295MOL0     C39723   9.949   2.698   8.077 -0.4674 -0.7415 -0.4195
  295MOL0     C39724  10.018   2.709   8.197  0.5515 -0.1138  0.7773
  295MOL0     O39725  10.096   2.821   8.207  0.6695 -0.3222 -0.4979
  295MOL0     C39726  10.110   2.880   8.335 -0.5946 -0.1363 -0.5014
  295MOL0     C39727  10.156   3.031   8.313 -0.7641  0.8097 -0.1524
  295MOL0     C39728  10.082   3.099   8.198 -0.1631  0.7518 -0.6772
  295MOL0     C39729  10.132   3.243   8.189 -0.7858 -0.1237 -0.0901
  295MOL0     C39730  10.045   3.338   8.096  0.6180  0.4228 -0.7144
  295MOL0     C39731  10.072   3.345   7.947 -0.7355 -0.4135  0.4963
  295MOL0     C39732  10.000   3.460   7.875 -0.6237  0.3799  0.2413
  295MOL0     C39733   9.863   3.434   7.821  0.3514 -0.1090  0.3077
  295MOL0    Cl39734   9.806   3.555   7.709 -0.3367  0.3488  0.0963
  295MOL0     C39735   9.991   2.621   8.303  0.1046  0.3211 -0.0273
  295MOL0     C39736   9.907   2.505   8.280 -0.3307  0.9907 -0.6666
  295MOL0     O39737   9.827   2.220   8.251  0.1293  0.2714  0.7403
  295MOL0     C39738   9.625   2.043   8.160 -0.8019 -0.3290 -0.5127
  295MOL0     C39739   9.527   1.959   8.104  0.1568  0.0042  0.5163
  295MOL0     N39740   8.949   1.552   7.730  0.8684  0.0007 -0.2408
  295MOL0     N39741   8.869   1.483   7.657  0.0438 -0.5811 -0.3226
  295MOL0     C39742   7.755   0.989   7.948  0.1347 -0.8363  0.4480
  295MOL0     C39743   7.635   0.978   8.019  0.5002  0.7215  0.6839
  295MOL0     C39744   7.378   0.938   8.342  1.1136  0.1041  0.1169
  295MOL0     C39745   7.251   0.929   8.265 -0.3790 -0.6611 -0.0650
  295MOL0     C39746   7.133   0.963   8.329  0.1925 -0.0217  0.0323
  295MOL0     C39747   7.127   1.026   8.453  0.2374  0.1941  0.5900
  295MOL0     O39748   7.021   1.058   8.529 -0.6904  0.0506  0.1338
  295MOL0     C39749   6.926   1.146   8.476  0.4268  0.4217  0.3474
  295MOL0     C39750   6.954   1.292   8.512  0.0898  0.2780  0.1749
  295MOL0     C39751   6.933   1.318   8.665 -0.2697 -0.5255  0.3955
  295MOL0     C39752   6.800   1.289   8.730  1.0734 -0.7190  0.8621
  295MOL0     C39753   6.695   1.354   8.653 -0.7321 -0.8409 -0.3511
  295MOL0     C39754   6.618   1.410   8.581  0.6943  0.2587 -0.0814
  295MOL0     C39755   7.251   1.037   8.523 -0.5063  0.0171 -0.0102
  295MOL0     C39756   7.374   0.991   8.470 -0.0226  0.1981  0.1483
  295MOL0     C39757   7.487   1.003   8.567 -1.2374  0.1042 -0.9796
  295MOL0     H39758   7.623   0.641   8.030  0.8717 -0.6410  1.8283
  295MOL0     H39759   7.797   0.656   7.889 -2.5423 -0.9246  0.3289
  295MOL0     H39760   8.062   1.035   7.890 -1.7429 -0.0641 -0.4579
  295MOL0     H39761   8.056   0.916   8.006 -0.7718  0.7844  0.1428
  295MOL0     H39762   8.160   0.856   7.716 -0.2640 -0.4323  0.0558
  295MOL0     H39763   8.177   0.758   7.853 -0.8247  0.2767  0.6338
  295MOL0     H39764   8.390   0.853   7.852  0.5848 -0.1445 -1.6863
  295MOL0     H39765   8.317   0.956   7.968  4.0210 -0.5851 -0.1585
  295MOL0     H39766   8.341   1.021   7.682  2.3069 -1.4038  0.7509
  295MOL0     H39767   8.238   1.122   7.794 -0.0677  0.1312  1.2631
  295MOL0     H39768   8.448   1.181   7.926  2.9462 -1.8175  0.5910
  295MOL0     H39769   8.538   1.079   7.817  0.2401  0.0807 -0.9053
  295MOL0     H39770   8.497   1.217   7.623  1.9044 -1.0119  0.7718
  295MOL0     H39771   8.383   1.319   7.711 -1.1117 -1.8107 -4.2264
  295MOL0     H39772   8.677   1.268   7.754  2.1098  3.1980 -1.1182
  295MOL0     H39773   8.569   1.382   7.853 -0.5584  2.0655 -0.6842
  295MOL0     H39774   8.613   1.404   7.556  0.0825 -0.3717  0.8037
  295MOL0     H39775   8.535   1.519   7.657 -0.5612  0.3870 -4.3918
  295MOL0     H39776   8.656   1.674   7.824 -0.2200 -0.2342 -0.6278
  295MOL0     H39777   8.906   1.837   7.880  0.2951  0.6335  2.3209
  295MOL0     H39778   8.910   1.705   7.995 -1.4526 -0.0490 -0.5916
  295MOL0     H39779   9.130   1.629   7.902 -1.7080 -0.2944  0.7209
  295MOL0     H39780   9.139   1.775   7.798  0.7328  1.1716  0.2914
  295MOL0     H39781   9.125   1.736   8.102  3.7643  0.0613  0.9321
  295MOL0     H39782   9.104   1.898   8.028 -0.8975 -0.7685 -1.1071
  295MOL0     H39783   9.365   1.748   7.967  1.4577  3.6820 -2.8756
  295MOL0     H39784   9.326   1.819   8.126 -2.5100 -0.1731  1.0924
  295MOL0     H39785   9.382   2.191   7.902 -0.4473  3.6368  0.9238
  295MOL0     H39786   9.538   2.332   7.994 -1.0398  1.1045  1.3357
  295MOL0     H39787   9.843   2.565   7.950  0.7137  2.4814 -0.0571
  295MOL0     H39788   9.969   2.765   7.994  1.1168  0.7894  1.1094
  295MOL0     H39789  10.015   2.887   8.388  0.3425  1.4267  1.0950
  295MOL0     H39790  10.195   2.829   8.381  1.5486  0.7097 -3.2067
  295MOL0     H39791  10.149   3.096   8.400  3.2121 -0.8972  1.6818
  295MOL0     H39792  10.258   3.030   8.273 -2.2638 -0.8389 -4.5815
  295MOL0     H39793  10.094   3.042   8.106  1.6369 -0.3876  0.2005
  295MOL0     H39794   9.976   3.092   8.225 -0.1258 -0.9131 -0.8544
  295MOL0     H39795  10.235   3.245   8.152 -1.5225 -1.0383 -2.3635
  295MOL0     H39796  10.142   3.292   8.286  1.2954 -1.0905  0.2546
  295MOL0     H39797  10.061   3.442   8.129 -0.6772  0.7086 -0.9221
  295MOL0     H39798   9.938   3.318   8.107  1.2507 -2.1849  1.7499
  295MOL0     H39799  10.178   3.372   7.935 -1.7669  3.8321 -1.3030
  295MOL0     H39800  10.058   3.247   7.902  0.0203 -0.6622  0.7863
  295MOL0     H39801  10.067   3.484   7.792 -0.5169 -0.8391 -0.0507
  295MOL0     H39802  10.004   3.546   7.942  0.3775  1.0247 -0.6117
  295MOL0     H39803   9.877   3.343   7.763  0.8269  1.1703 -1.6711
  295MOL0     H39804   9.782   3.423   7.894  0.6889 -0.1287  0.6847
  295MOL0     H39805  10.050   2.642   8.392  2.6085 -0.1555 -1.4743
  295MOL0     H39806   9.891   2.430   8.357 -1.5341  1.0205 -0.8661
  295MOL0     H39807   9.698   1.997   8.226  0.4946  3.1872  0.7000
  295MOL0     H39808   9.534   1.853   8.125  1.1703 -0.1230 -0.3739
  295MOL0     H39809   7.799   1.082   7.915  1.6403 -2.3568 -2.1807
  295MOL0     H39810   7.578   1.068   8.037 -0.1205  0.2681  1.0546
  295MOL0     H39811   7.243   0.881   8.168 -2.4594 -0.9376  0.2039
  295MOL0     H39812   7.038   0.947   8.280  0.7058 -2.2133 -0.3520
  295MOL0     H39813   6.827   1.118   8.516  0.5072 -1.7229 -0.7979
  295MOL0     H39814   6.924   1.132   8.367  1.0468 -0.7817  0.4789
  295MOL0     H39815   6.889   1.354   8.451 -2.7197  0.6064  3.2289
  295MOL0     H39816   7.057   1.311   8.479 -0.2352 -1.3488 -2.0222
  295MOL0     H39817   6.949   1.424   8.686 -1.1789 -0.4399  0.7116
  295MOL0     H39818   7.006   1.251   8.714 -4.0104 -4.9833  0.6108
  295MOL0     H39819   6.779   1.182   8.727 -0.9901 -0.3346 -0.6346
  295MOL0     H39820   6.793   1.321   8.834 -3.5147  2.2202 -0.0648
  295MOL0     H39821   6.560   1.467   8.510  0.8170 -1.4289 -1.6072
  295MOL0     H39822   7.249   1.081   8.623 -1.1966 -0.9390  0.4199
  295MOL0     H39823   7.520   0.902   8.595  1.7448  1.8457  2.6632
  295MOL0     H39824   7.580   1.044   8.525 -0.8618  0.1558 -0.1174
  295MOL0     H39825   7.465   1.066   8.653  0.7666  2.2929 -1.9548
  296MOL0     O39826   4.348   8.363   0.205  0.0135 -0.2125 -0.0694
  296MOL0     C39827   4.308   8.249   0.191 -0.0800 -0.6475  0.6316
  296MOL0     O39828   4.368   8.129   0.238  0.4717  0.7434  0.0784
  296MOL0     C39829   4.490   8.140   0.308 -1.1488 -0.0864 -0.0502
  296MOL0     C39830   4.491   8.155   0.451  0.4692  0.0622  0.2929
  296MOL0     C39831   4.609   8.153   0.518 -0.2880 -0.6348  0.3475
  296MOL0     C39832   4.737   8.150   0.454  1.0544  0.7354 -0.0002
  296MOL0     O39833   4.860   8.143   0.511  1.0224 -0.0174  0.2525
  296MOL0     C39834   4.857   8.152   0.655 -0.0657 -0.7472 -0.0031
  296MOL0     C39835   4.992   8.170   0.711 -0.4177 -0.5969  0.1219
  296MOL0     C39836   5.100   8.079   0.648 -0.3207 -0.0801 -0.4730
  296MOL0     C39837   5.222   8.093   0.733  0.5576  0.0776  0.0277
  296MOL0     C39838   5.338   8.014   0.688  0.7199  0.2636 -0.7376
  296MOL0     C39839   5.310   7.862   0.676  0.5162 -0.1946  0.5488
  296MOL0     C39840   5.435   7.793   0.630 -0.0283  0.2141  0.4015
  296MOL0     C39841   5.540   7.753   0.744  0.7190 -0.6401  0.0271
  296MOL0     N39842   5.649   7.677   0.695 -0.3034  0.1637  0.2767
  296MOL0     C39843   5.756   7.714   0.613  0.0305  0.3001 -0.0117
  296MOL0     C39844   5.834   7.603   0.603  0.1266 -0.1693 -0.8357
  296MOL0     C39845   5.970   7.583   0.534  0.5560  0.7211  0.5415
  296MOL0     C39846   5.965   7.536   0.388 -0.6157 -0.6385 -0.0069
  296MOL0     C39847   5.919   7.656   0.292 -0.6622  1.1783  0.3610
  296MOL0     C39848   6.019   7.771   0.271  0.7624  0.2179 -0.2481
  296MOL0     O39849   6.146   7.709   0.235 -0.4740 -0.3536  0.1614
  296MOL0     C39850   6.249   7.794   0.204 -0.1995 -0.0700  0.2417
  296MOL0     C39851   6.275   7.910   0.280 -0.1228  0.1904  0.0864
  296MOL0     C39852   6.393   7.986   0.253  0.3417  0.0507 -0.3284
  296MOL0     C39853   6.475   7.953   0.148 -0.3542  0.6628  0.1639
  296MOL0     C39854   6.583   8.045   0.108 -0.4571 -0.9836 -0.1037
  296MOL0     O39855   6.603   8.167   0.174 -0.2671  0.1847 -0.7387
  296MOL0     C39856   6.716   8.238   0.144 -1.0396 -0.1254 -0.6308
  296MOL0     C39857   6.840   8.179   0.156 -0.5142  0.5032  0.6228
  296MOL0     C39858   6.956   8.243   0.128 -0.1594 -0.8562  0.1886
  296MOL0     C39859   6.954   8.382   0.092 -0.5180  0.1487 -1.1163
  296MOL0     O39860   7.065   8.452   0.049  0.0339  0.2446 -0.2392
  296MOL0     C39861   7.187   8.381  -0.005  0.3487 -0.2556  0.6057
  296MOL0     C39862   7.173   8.353  -0.156 -0.5528  1.0830 -0.3251
  296MOL0     C39863   7.300   8.328  -0.245  0.0027 -0.0559 -0.9813
  296MOL0     C39864   7.404   8.235  -0.186 -0.3223  0.5550  0.1052
  296MOL0     C39865   7.521   8.221  -0.280 -0.6262  0.0660 -0.1510
  296MOL0     C39866   7.609   8.105  -0.227 -0.1513 -0.4197 -0.0814
  296MOL0     C39867   7.694   8.149  -0.102  0.4662  0.0818 -0.2035
  296MOL0     C39868   7.796   8.050  -0.057 -0.0196 -0.0278 -0.0778
  296MOL0    Cl39869   7.957   8.114  -0.097  0.0703 -0.5987  0.0753
  296MOL0     C39870   6.829   8.448   0.087  0.1997  0.7879  0.0046
  296MOL0     C39871   6.713   8.373   0.114 -0.7963 -0.8428 -0.3620
  296MOL0     O39872   6.655   7.999   0.019  0.1068 -0.2976 -0.4637
  296MOL0     C39873   6.441   7.836   0.073 -0.2747  1.2371  0.3366
  296MOL0     C39874   6.331   7.758   0.104 -0.4434  0.2033  0.2213
  296MOL0     N39875   5.792   7.513   0.700  0.7727  0.7790 -1.0129
  296MOL0     N39876   5.677   7.552   0.752 -0.2986 -0.1039 -0.2822
  296MOL0     C39877   4.740   8.139   0.314  0.2104  0.8439 -0.4041
  296MOL0     C39878   4.620   8.130   0.244  0.6135  0.4756  0.7748
  296MOL0     C39879   4.174   8.247   0.141  0.3895 -0.4262 -0.0678
  296MOL0     C39880   4.134   8.337   0.040  0.9023 -0.2112  0.3276
  296MOL0     C39881   4.004   8.330  -0.015  0.4236  0.0248  0.9093
  296MOL0     C39882   3.904   8.250   0.038 -0.5089  0.6923 -0.3176
  296MOL0     O39883   3.783   8.254  -0.027 -0.1777  0.6127 -0.4029
  296MOL0     C39884   3.697   8.139  -0.013 -0.7704  0.1649 -0.1984
  296MOL0     C39885   3.748   8.010  -0.081  0.4870 -0.0294 -0.8906
  296MOL0     C39886   3.744   8.015  -0.230  0.3289  0.0145  0.3600
  296MOL0     C39887   3.766   7.885  -0.302 -0.4123  0.0344  0.0282
  296MOL0     C39888   3.904   7.845  -0.298 -0.0070  0.5631  0.3155
  296MOL0     C39889   4.020   7.806  -0.288 -0.5451 -0.6106  0.8017
  296MOL0     C39890   3.940   8.164   0.144 -1.0667 -0.4394 -0.3818
  296MOL0     C39891   4.073   8.169   0.203  0.6073 -0.5554  0.2070
  296MOL0     C39892   4.086   8.091   0.327  0.4725  0.1833 -0.2704
  296MOL0     H39893   4.402   8.164   0.513 -0.6731  2.1147 -1.4956
  296MOL0     H39894   4.594   8.152   0.625  0.8960 -1.0147  0.5212
  296MOL0     H39895   4.785   8.231   0.679 -3.1755 -3.1439 -0.8720
  296MOL0     H39896   4.821   8.055   0.691 -0.7600 -0.6509 -0.4285
  296MOL0     H39897   4.982   8.148   0.818  1.8920 -0.3938  0.4346
  296MOL0     H39898   5.028   8.271   0.691 -0.1571 -0.8979 -0.9715
  296MOL0     H39899   5.118   8.104   0.543 -0.2943 -1.7233 -0.8894
  296MOL0     H39900   5.067   7.975   0.644 -1.5672  0.3111 -1.1020
  296MOL0     H39901   5.251   8.198   0.729  0.1037  0.1699 -1.5858
  296MOL0     H39902   5.207   8.072   0.839  2.5593  0.3797  0.4067
  296MOL0     H39903   5.373   8.061   0.596  0.7430  2.5241  0.3767
  296MOL0     H39904   5.418   8.031   0.761  0.2157  2.4749 -0.6378
  296MOL0     H39905   5.268   7.827   0.771 -3.2711  2.3278  0.0288
  296MOL0     H39906   5.234   7.849   0.598 -0.3237  0.2210  1.2699
  296MOL0     H39907   5.485   7.847   0.548  4.0447 -3.4953  0.1098
  296MOL0     H39908   5.420   7.703   0.570  1.0151 -1.6194  2.7490
  296MOL0     H39909   5.559   7.851   0.789 -1.1286  0.2069 -0.9025
  296MOL0     H39910   5.480   7.703   0.820 -1.0700  3.3287  1.5068
  296MOL0     H39911   5.760   7.816   0.576 -0.3955  0.6717  0.9449
  296MOL0     H39912   6.020   7.681   0.532  0.8970  0.5499 -1.4238
  296MOL0     H39913   6.021   7.510   0.597  1.4508 -0.3557 -1.3517
  296MOL0     H39914   6.065   7.500   0.359 -0.4964 -0.1755 -0.1784
  296MOL0     H39915   5.898   7.450   0.378  0.4715 -1.4816 -0.2610
  296MOL0     H39916   5.830   7.706   0.331 -1.0563  1.0854 -0.4131
  296MOL0     H39917   5.909   7.613   0.192  1.1436 -2.9896  1.7694
  296MOL0     H39918   6.022   7.823   0.367  1.6667  1.9620 -1.1629
  296MOL0     H39919   5.978   7.838   0.194  3.3062  0.1972 -1.7473
  296MOL0     H39920   6.208   7.930   0.363 -2.2819  0.3296 -1.5929
  296MOL0     H39921   6.414   8.079   0.304 -0.1534 -0.0633  0.0962
  296MOL0     H39922   6.840   8.076   0.188  3.7607  0.0727 -0.1264
  296MOL0     H39923   7.053   8.194   0.132 -1.4397 -3.4937  2.2278
  296MOL0     H39924   7.275   8.441   0.021  0.5790 -1.0083  1.6639
  296MOL0     H39925   7.204   8.280   0.033 -0.7152 -0.9318 -0.6435
  296MOL0     H39926   7.108   8.266  -0.167  1.2738 -0.8989  2.7025
  296MOL0     H39927   7.133   8.445  -0.200  0.5103  2.4088  1.3409
  296MOL0     H39928   7.276   8.293  -0.346  0.0829 -1.4446 -0.5395
  296MOL0     H39929   7.353   8.422  -0.266  2.6963 -1.3379 -0.3206
  296MOL0     H39930   7.347   8.141  -0.180  1.7092 -1.0661 -2.9670
  296MOL0     H39931   7.435   8.278  -0.090  0.9407 -1.3398  0.6081
  296MOL0     H39932   7.576   8.315  -0.291 -2.4214  1.1126 -0.5057
  296MOL0     H39933   7.489   8.203  -0.383 -0.9585  0.5640 -0.1363
  296MOL0     H39934   7.550   8.017  -0.202 -0.9319  0.7163  2.3213
  296MOL0     H39935   7.685   8.086  -0.304  0.0094  0.3260 -0.1191
  296MOL0     H39936   7.634   8.170  -0.013  1.0557  1.1316 -0.0431
  296MOL0     H39937   7.744   8.243  -0.123  0.3039  0.0273 -0.8599
  296MOL0     H39938   7.797   8.025   0.049 -2.0947  1.6212  0.4014
  296MOL0     H39939   7.788   7.954  -0.109 -1.1067  0.1480 -0.2676
  296MOL0     H39940   6.824   8.554   0.065  2.8735  1.1271  0.7468
  296MOL0     H39941   6.614   8.415   0.128 -0.9216 -0.9784 -0.8137
  296MOL0     H39942   6.511   7.810  -0.006 -1.7867  2.8304 -1.6375
  296MOL0     H39943   6.315   7.665   0.050 -2.0179 -0.3060  1.4658
  296MOL0     H39944   4.834   8.135   0.260  0.5731  0.4597  0.2412
  296MOL0     H39945   4.623   8.087   0.144  0.7319 -2.1331  1.8276
  296MOL0     H39946   4.200   8.408  -0.009  0.5894 -0.5472 -0.6004
  296MOL0     H39947   3.979   8.397  -0.096 -0.7929  0.1208  1.3487
  296MOL0     H39948   3.598   8.157  -0.056 -1.0926 -0.0985  0.4236
  296MOL0     H39949   3.679   8.117   0.093  3.2834 -3.6077  0.0157
  296MOL0     H39950   3.690   7.924  -0.045  1.1522 -0.7110 -1.4209
  296MOL0     H39951   3.851   7.986  -0.053 -0.0191 -0.7267  0.4791
  296MOL0     H39952   3.818   8.086  -0.270  0.4073 -0.7330 -0.8777
  296MOL0     H39953   3.647   8.057  -0.257  0.2406  0.6352  1.5735
  296MOL0     H39954   3.700   7.806  -0.263 -2.2876  1.0986 -0.8381
  296MOL0     H39955   3.740   7.889  -0.408  1.1848  4.2399 -0.3718
  296MOL0     H39956   4.121   7.772  -0.277  0.9517  3.2536  0.5590
  296MOL0     H39957   3.872   8.108   0.208 -1.4356 -0.6545 -0.9558
  296MOL0     H39958   3.989   8.071   0.373 -0.0056  0.1312 -1.2770
  296MOL0     H39959   4.146   8.001   0.316 -2.2656 -1.7539 -0.4239
  296MOL0     H39960   4.140   8.154   0.399  1.3297 -0.1942 -0.5738
  297MOL0     O39961   6.400   6.986  10.292  0.5953  0.2048  0.3168
  297MOL0     C39962   6.363   6.916  10.391 -0.5745 -0.2232 -0.5762
  297MOL0     O39963   6.446   6.848  10.478 -0.2508 -0.5305  0.1439
  297MOL0     C39964   6.576   6.838  10.439 -0.9698 -0.6787  0.0708
  297MOL0     C39965   6.623   6.715  10.395 -0.0565 -1.1486  0.3271
  297MOL0     C39966   6.760   6.699  10.350 -0.5527  0.7036  0.5377
  297MOL0     C39967   6.846   6.803  10.362  0.0457  0.6896  0.3036
  297MOL0     O39968   6.977   6.786  10.341  0.3427  0.4151  0.1862
  297MOL0     C39969   7.024   6.642  10.345 -0.4109  0.5387 -0.4043
  297MOL0     C39970   7.177   6.640  10.305  0.4013  0.5177 -0.4489
  297MOL0     C39971   7.233   6.501  10.273  0.8087  0.3663  0.0871
  297MOL0     C39972   7.382   6.498  10.260 -0.9010 -0.0160  0.1912
  297MOL0     C39973   7.446   6.367  10.270 -1.1788 -0.9971  0.2237
  297MOL0     C39974   7.597   6.371  10.262  0.9286  0.9737  0.5788
  297MOL0     C39975   7.643   6.380  10.408 -0.0655  0.4484 -0.9319
  297MOL0     C39976   7.796   6.373  10.412  0.2540 -0.0670  0.0629
  297MOL0     N39977   7.845   6.352  10.551 -0.4356 -0.2791 -0.3310
  297MOL0     C39978   7.969   6.385  10.591 -0.0532 -0.1276 -0.0201
  297MOL0     C39979   7.986   6.334  10.717  1.1492 -1.0489 -1.7555
  297MOL0     C39980   8.103   6.336  10.806 -1.2665  0.1300 -0.2800
  297MOL0     C39981   8.219   6.274  10.736  0.3046 -0.0154 -0.6150
  297MOL0     C39982   8.337   6.262  10.825  0.3648  0.0495  0.1468
  297MOL0     C39983   8.445   6.192  10.743 -0.6174 -0.2539  0.2219
  297MOL0     O39984   8.572   6.221  10.811  0.4481 -0.1201  0.7638
  297MOL0     C39985   8.685   6.147  10.790  0.1642 -0.0338 -0.2020
  297MOL0     C39986   8.795   6.163  10.873  0.0481  0.1256 -0.0731
  297MOL0     C39987   8.909   6.094  10.861  0.4571 -0.1027 -0.2599
  297MOL0     C39988   8.916   5.998  10.759 -0.7341  0.6649  0.0752
  297MOL0     C39989   9.050   5.923  10.739 -0.4899  0.4387 -0.1918
  297MOL0     O39990   9.145   5.938  10.832 -0.1207  0.2403 -0.1028
  297MOL0     C39991   9.261   5.872  10.818  0.1272  0.7248  0.0624
  297MOL0     C39992   9.272   5.730  10.835  0.6647 -0.7452  0.6475
  297MOL0     C39993   9.394   5.664  10.815  0.3066  0.5615 -0.1349
  297MOL0     C39994   9.508   5.733  10.775 -0.1077 -0.9605  1.3777
  297MOL0     O39995   9.627   5.669  10.749  0.3264 -0.0726  0.7454
  297MOL0     C39996   9.627   5.526  10.761 -0.1942  0.1474 -0.2991
  297MOL0     C39997   9.769   5.476  10.725  0.2902 -0.9328  0.3764
  297MOL0     C39998   9.869   5.528  10.823 -0.4372 -0.0239 -0.3946
  297MOL0     C39999  10.011   5.465  10.793  0.4138  1.1464 -0.4659
  297MOL0     C40000  10.120   5.553  10.869 -0.1689 -0.2745  0.2494
  297MOL0     C40001  10.253   5.486  10.875  0.2907  0.2356 -0.9513
  297MOL0     C40002  10.304   5.454  10.733  1.0644  1.0291 -0.1055
  297MOL0     C40003  10.440   5.393  10.760 -0.6269  0.8949 -0.0119
  297MOL0    Cl40004  10.425   5.252  10.874 -0.1757  0.4482 -0.0068
  297MOL0     C40005   9.498   5.871  10.759 -0.0387  0.4527  0.9228
  297MOL0     C40006   9.377   5.937  10.784  0.7887  0.2264  0.2538
  297MOL0     O40007   9.067   5.861  10.630  0.4198  0.3590 -0.7363
  297MOL0     C40008   8.807   5.969  10.677 -0.6747 -0.4593  0.3107
  297MOL0     C40009   8.692   6.047  10.690  0.6283 -0.5360 -0.1745
  297MOL0     N40010   7.864   6.268  10.754 -0.0021  0.1909  0.5740
  297MOL0     N40011   7.784   6.283  10.657 -0.2381 -1.1589  0.3286
  297MOL0     C40012   6.802   6.927  10.413 -0.9066 -0.4038 -0.5713
  297MOL0     C40013   6.664   6.944  10.440 -1.1721  0.1727 -0.0620
  297MOL0     C40014   6.218   6.897  10.412 -0.4647  0.9065 -1.0400
  297MOL0     C40015   6.175   6.801  10.511  0.4504  0.2255 -1.0725
  297MOL0     C40016   6.043   6.784  10.547  0.1163 -0.0177 -0.4654
  297MOL0     C40017   5.940   6.846  10.482 -0.4231  0.4473 -0.5328
  297MOL0     O40018   5.813   6.801  10.507  0.2351 -0.3907  0.0757
  297MOL0     C40019   5.767   6.714  10.397 -0.2218 -1.0317  0.0929
  297MOL0     C40020   5.842   6.580  10.411  0.9971 -0.1354 -0.1037
  297MOL0     C40021   5.767   6.479  10.310 -0.6140  0.0259  0.4441
  297MOL0     C40022   5.840   6.346  10.314 -0.0148 -0.2878 -0.7099
  297MOL0     C40023   5.773   6.260  10.218 -0.2288  0.0997  0.0656
  297MOL0     C40024   5.705   6.191  10.141 -1.0138 -0.4703 -0.9929
  297MOL0     C40025   5.973   6.949  10.391 -0.3712 -0.0568 -0.0982
  297MOL0     C40026   6.109   6.974  10.355 -0.3352  0.4352 -1.1045
  297MOL0     C40027   6.118   7.085  10.258 -0.7625  0.0563 -0.2162
  297MOL0     H40028   6.549   6.635  10.398 -0.1305 -1.0546  1.5087
  297MOL0     H40029   6.780   6.596  10.325  0.0736  0.5069  1.8155
  297MOL0     H40030   7.005   6.607  10.447  4.0502  0.5078  0.6552
  297MOL0     H40031   6.984   6.576  10.268 -1.2964 -1.0261  1.3145
  297MOL0     H40032   7.237   6.673  10.391  3.2870 -0.4069 -1.9641
  297MOL0     H40033   7.194   6.706  10.219 -0.6144 -1.1553 -1.9939
  297MOL0     H40034   7.185   6.473  10.179 -0.7000 -1.0639  1.2370
  297MOL0     H40035   7.208   6.429  10.351 -1.8942  3.1359  1.9939
  297MOL0     H40036   7.416   6.543  10.166  1.4497 -4.1993 -1.2398
  297MOL0     H40037   7.424   6.559  10.342 -1.7605 -0.0935  0.6969
  297MOL0     H40038   7.408   6.326  10.364 -0.9838  1.3715  1.3904
  297MOL0     H40039   7.406   6.316  10.181 -1.0237 -1.5673  0.4776
  297MOL0     H40040   7.637   6.279  10.219 -1.2227 -0.0350  0.5814
  297MOL0     H40041   7.641   6.456  10.210  0.1168  1.7656  1.1611
  297MOL0     H40042   7.598   6.301  10.469  0.9522 -0.9761 -1.9674
  297MOL0     H40043   7.617   6.474  10.458 -0.1839 -1.1279  2.2271
  297MOL0     H40044   7.826   6.287  10.351  0.0270 -0.4957  0.5453
  297MOL0     H40045   7.835   6.465  10.367 -0.8642  1.3047  1.7256
  297MOL0     H40046   8.035   6.454  10.540 -0.6572 -0.2134 -0.9419
  297MOL0     H40047   8.134   6.435  10.843  1.2511 -0.1281 -1.4926
  297MOL0     H40048   8.078   6.274  10.893 -3.1539 -0.2201 -1.0389
  297MOL0     H40049   8.192   6.173  10.705  1.6062 -0.6009  0.0552
  297MOL0     H40050   8.246   6.342  10.654 -0.9982  1.5060  0.1828
  297MOL0     H40051   8.315   6.205  10.916  0.6950 -1.4949 -0.6993
  297MOL0     H40052   8.382   6.361  10.838 -1.5103  1.2190 -1.6798
  297MOL0     H40053   8.449   6.232  10.641  2.5647 -0.1894  0.2718
  297MOL0     H40054   8.425   6.085  10.736 -0.5750 -0.2362 -0.2038
  297MOL0     H40055   8.808   6.235  10.954  2.7111 -0.9145  0.5247
  297MOL0     H40056   8.991   6.120  10.928  0.1448  0.1635  0.0250
  297MOL0     H40057   9.185   5.671  10.863  0.1311  0.6055  1.9758
  297MOL0     H40058   9.398   5.560  10.843 -1.2021  0.2487 -0.9670
  297MOL0     H40059   9.601   5.494  10.862 -0.6780 -0.4129 -0.5961
  297MOL0     H40060   9.553   5.485  10.692 -1.8241  0.1799  1.3425
  297MOL0     H40061   9.778   5.369  10.746  1.8899 -0.4825  2.3854
  297MOL0     H40062   9.792   5.503  10.621 -1.0793  1.4737  0.6205
  297MOL0     H40063   9.887   5.634  10.805  1.6917 -0.3347 -0.3738
  297MOL0     H40064   9.833   5.510  10.925  0.9376  0.3058  0.1613
  297MOL0     H40065  10.029   5.456  10.686  1.2483  0.6683 -0.2948
  297MOL0     H40066  10.014   5.361  10.826  1.0511  0.3912 -2.7305
  297MOL0     H40067  10.090   5.592  10.966  1.8262  1.1493  0.3463
  297MOL0     H40068  10.128   5.650  10.818  1.9604 -0.7773 -0.4715
  297MOL0     H40069  10.330   5.557  10.908  1.2530 -1.8192  1.4914
  297MOL0     H40070  10.268   5.406  10.947  2.1693  1.5725  0.2592
  297MOL0     H40071  10.312   5.548  10.679  2.6206  0.3933 -1.0534
  297MOL0     H40072  10.239   5.387  10.675 -0.5098  1.2516  1.3234
  297MOL0     H40073  10.489   5.362  10.668  0.2022  2.7065 -0.2184
  297MOL0     H40074  10.506   5.471  10.799  0.2657 -0.0531  0.4298
  297MOL0     H40075   9.579   5.935  10.727 -0.9536  0.6456 -1.1707
  297MOL0     H40076   9.363   6.043  10.766  0.3559  0.2276  0.5978
  297MOL0     H40077   8.815   5.905  10.589  1.4941  0.9834 -0.6464
  297MOL0     H40078   8.611   6.032  10.619 -1.5325  3.0170  1.2441
  297MOL0     H40079   6.866   7.014  10.426 -0.7229 -0.2504 -2.2841
  297MOL0     H40080   6.635   7.044  10.470 -0.2592  0.4129  0.0548
  297MOL0     H40081   6.248   6.730  10.550  1.0596  2.5802  2.5178
  297MOL0     H40082   6.020   6.705  10.619  1.2502  0.5558  0.5593
  297MOL0     H40083   5.781   6.769  10.303  0.2325  0.3673  0.9548
  297MOL0     H40084   5.659   6.702  10.412 -0.9519  1.6770 -2.0572
  297MOL0     H40085   5.837   6.538  10.511 -1.5660 -0.4970 -0.3124
  297MOL0     H40086   5.948   6.589  10.389  2.2254 -0.0334  4.7455
  297MOL0     H40087   5.764   6.506  10.204  4.7352 -1.8248 -0.4709
  297MOL0     H40088   5.659   6.476  10.332 -0.7501  0.2641 -0.1778
  297MOL0     H40089   5.944   6.357  10.283  0.3872 -0.2589  0.5641
  297MOL0     H40090   5.826   6.299  10.412  1.5539  1.4108  0.4075
  297MOL0     H40091   5.652   6.132  10.069 -2.8331  0.3346 -0.3543
  297MOL0     H40092   5.885   7.002  10.354 -0.8794  0.2027  1.4219
  297MOL0     H40093   6.036   7.157  10.257 -1.7280 -0.9814 -2.5881
  297MOL0     H40094   6.206   7.149  10.277  0.5563 -0.8516 -2.7435
  297MOL0     H40095   6.124   7.050  10.154 -0.8945 -1.0676  0.1422
  298MOL0     O40096   3.660  10.049   4.572 -0.0736  0.0066 -0.6430
  298MOL0     C40097   3.574  10.089   4.497 -0.0389  0.0124 -0.2172
  298MOL0     O40098   3.602  10.155   4.380  0.0067 -1.0739  0.5297
  298MOL0     C40099   3.739  10.171   4.344  0.5163 -0.8310 -0.0428
  298MOL0     C40100   3.789  10.095   4.240 -0.1352 -0.5493 -0.3421
  298MOL0     C40101   3.930  10.104   4.210  0.6692  0.8810 -0.6141
  298MOL0     C40102   4.010  10.208   4.268 -0.3985 -0.0683  0.8646
  298MOL0     O40103   4.130  10.233   4.214 -0.3583  0.4843 -0.2668
  298MOL0     C40104   4.230  10.259   4.310  0.2974 -0.1978 -0.7614
  298MOL0     C40105   4.364  10.302   4.248  0.5312 -0.1863  0.7166
  298MOL0     C40106   4.454  10.384   4.334 -0.0483  0.1307 -0.2335
  298MOL0     C40107   4.421  10.532   4.319  0.0487  0.2907  0.0175
  298MOL0     C40108   4.522  10.629   4.379 -0.2524 -0.3869 -0.2082
  298MOL0     C40109   4.671  10.617   4.358  0.3492  0.4029  0.5175
  298MOL0     C40110   4.711  10.598   4.212  0.7919  0.5443  0.6815
  298MOL0     C40111   4.676  10.716   4.118 -0.1010  0.3681 -0.1929
  298MOL0     N40112   4.769  10.825   4.119  0.2330 -0.1913  0.3371
  298MOL0     C40113   4.902  10.827   4.080  0.0193  0.5447  0.4093
  298MOL0     C40114   4.941  10.948   4.114 -0.1653 -1.1065  0.4950
  298MOL0     C40115   5.078  11.026   4.106 -0.3672 -0.4328 -0.3505
  298MOL0     C40116   5.206  10.944   4.100 -0.8279 -0.8014 -0.8239
  298MOL0     C40117   5.314  11.029   4.042 -0.2336  0.3180 -0.1816
  298MOL0     C40118   5.443  10.948   4.048 -0.3395 -0.3079  0.0118
  298MOL0     O40119   5.558  11.022   3.994  0.7805 -0.5296 -0.8405
  298MOL0     C40120   5.647  11.058   4.090  0.0913 -0.7280  0.9100
  298MOL0     C40121   5.619  11.144   4.194  0.4240  0.8349 -0.0094
  298MOL0     C40122   5.717  11.171   4.295 -0.2405 -0.0684  0.3143
  298MOL0     C40123   5.851  11.126   4.277  0.5769  1.0702 -0.5513
  298MOL0     C40124   5.955  11.139   4.382  1.0558 -0.3213 -0.7137
  298MOL0     O40125   6.086  11.096   4.353  0.1312 -0.5228 -0.5136
  298MOL0     C40126   6.193  11.129   4.432  0.6999  0.5095  0.6882
  298MOL0     C40127   6.198  11.240   4.514 -0.1235 -0.3434  0.0854
  298MOL0     C40128   6.318  11.271   4.584  0.4701  0.4435  0.1266
  298MOL0     C40129   6.426  11.200   4.571 -1.1641 -0.1388 -0.6581
  298MOL0     O40130   6.539  11.257   4.634 -0.6876 -0.5361  0.2213
  298MOL0     C40131   6.657  11.174   4.657  0.1065 -0.3205 -0.4901
  298MOL0     C40132   6.775  11.266   4.720 -0.6291  0.2663  0.6475
  298MOL0     C40133   6.736  11.315   4.857  0.8138 -0.0756  0.2580
  298MOL0     C40134   6.853  11.413   4.910 -0.1190  0.0018  0.0624
  298MOL0     C40135   6.829  11.446   5.065  0.6696 -0.2038 -0.5840
  298MOL0     C40136   6.944  11.509   5.142 -0.1379  0.7200  0.0964
  298MOL0     C40137   6.903  11.531   5.284  0.7826  0.1107 -0.0535
  298MOL0     C40138   7.025  11.587   5.359  0.5322  0.6442 -0.1415
  298MOL0    Cl40139   7.040  11.761   5.319 -0.4953 -0.0623  0.2560
  298MOL0     C40140   6.423  11.089   4.491  0.1348  0.0971 -0.1749
  298MOL0     C40141   6.310  11.056   4.417 -0.8867 -0.0556 -0.7597
  298MOL0     O40142   5.915  11.190   4.487 -0.1903  0.0428  0.1002
  298MOL0     C40143   5.882  11.045   4.162  0.1500 -0.2995 -0.2553
  298MOL0     C40144   5.785  11.013   4.069  0.0126  0.9702 -0.6047
  298MOL0     N40145   4.834  11.023   4.156  0.1017  0.4948 -0.3100
  298MOL0     N40146   4.726  10.948   4.152  0.0894  0.2243 -0.0724
  298MOL0     C40147   3.944  10.290   4.366  0.1245  0.4414  0.4464
  298MOL0     C40148   3.820  10.271   4.406  1.1677 -0.0041 -0.8513
  298MOL0     C40149   3.444  10.107   4.561 -0.3262 -0.4794 -0.3402
  298MOL0     C40150   3.429  10.188   4.673 -0.5101  0.9181  0.3615
  298MOL0     C40151   3.308  10.215   4.732 -0.1246  0.1523 -0.5631
  298MOL0     C40152   3.199  10.138   4.695 -0.2053 -0.3596 -0.3163
  298MOL0     O40153   3.076  10.161   4.750 -0.3273 -0.2021  0.0162
  298MOL0     C40154   2.994  10.046   4.775  0.3396 -0.4583 -0.1847
  298MOL0     C40155   2.877  10.031   4.682  0.0803 -0.9833 -0.5662
  298MOL0     C40156   2.756  10.123   4.711  0.4050 -0.5865  1.0202
  298MOL0     C40157   2.629  10.089   4.635 -1.1466  0.5814  1.0614
  298MOL0     C40158   2.641  10.106   4.487 -0.4197 -1.4326 -0.4591
  298MOL0     C40159   2.670  10.134   4.365 -0.0500  0.4321  0.1369
  298MOL0     C40160   3.213  10.030   4.599 -0.2121  0.0113 -0.4374
  298MOL0     C40161   3.340  10.027   4.529 -0.2971 -0.2913  0.0339
  298MOL0     C40162   3.340   9.929   4.416 -0.0263  0.3297  0.1028
  298MOL0     H40163   3.716  10.028   4.195  0.2425 -0.3312 -1.3072
  298MOL0     H40164   3.966  10.038   4.132  1.1974  0.0262  0.3475
  298MOL0     H40165   4.202  10.338   4.381  0.1362 -0.0669 -0.9679
  298MOL0     H40166   4.249  10.170   4.371 -0.0081  1.0155  1.2050
  298MOL0     H40167   4.337  10.356   4.156 -1.2291 -0.6794  0.9018
  298MOL0     H40168   4.404  10.206   4.215 -2.3242 -2.1471  2.4123
  298MOL0     H40169   4.558  10.364   4.308  0.8784  0.9545  2.5136
  298MOL0     H40170   4.446  10.356   4.440  0.9116  0.2371 -0.1283
  298MOL0     H40171   4.413  10.557   4.213 -0.9176  0.3702  0.1000
  298MOL0     H40172   4.323  10.557   4.360  0.6744 -0.6191  2.2538
  298MOL0     H40173   4.499  10.729   4.339  0.1008  0.9103  2.5758
  298MOL0     H40174   4.501  10.639   4.485 -1.4886  2.2789 -0.5992
  298MOL0     H40175   4.703  10.716   4.390 -0.0635 -0.9015  5.7762
  298MOL0     H40176   4.710  10.532   4.415 -0.6389 -0.6808 -0.3528
  298MOL0     H40177   4.654  10.509   4.187  1.3976  0.5560 -0.8322
  298MOL0     H40178   4.818  10.580   4.203  0.1376 -3.3221 -1.9650
  298MOL0     H40179   4.673  10.670   4.019  4.8382 -0.9520  0.0311
  298MOL0     H40180   4.574  10.749   4.141 -0.6359 -1.3896  0.0768
  298MOL0     H40181   4.949  10.739   4.037 -2.5985  0.2836 -2.1998
  298MOL0     H40182   5.061  11.079   4.012  1.8609 -0.8268 -1.0325
  298MOL0     H40183   5.086  11.088   4.196 -2.3611 -2.3062  1.2195
  298MOL0     H40184   5.226  10.909   4.201 -1.2223 -1.1426 -0.8606
  298MOL0     H40185   5.204  10.860   4.029  1.7608 -1.1059 -0.6129
  298MOL0     H40186   5.318  11.132   4.078  1.3736  1.2572 -2.7811
  298MOL0     H40187   5.288  11.036   3.936 -1.5609 -1.7025 -0.0269
  298MOL0     H40188   5.433  10.859   3.985  0.6147  0.4148 -1.2007
  298MOL0     H40189   5.465  10.916   4.151  0.5090 -1.0854 -0.3913
  298MOL0     H40190   5.523  11.192   4.206  0.2175  0.2837  0.6111
  298MOL0     H40191   5.696  11.226   4.387  1.1175  0.2630  0.4564
  298MOL0     H40192   6.112  11.304   4.534 -0.4649 -0.4885 -0.8524
  298MOL0     H40193   6.326  11.356   4.650  0.3314 -0.5440  1.4576
  298MOL0     H40194   6.631  11.091   4.723 -0.3771 -1.4165 -1.9923
  298MOL0     H40195   6.689  11.125   4.565  1.7029  1.0112 -0.6878
  298MOL0     H40196   6.866  11.205   4.714 -0.7539 -0.2600  3.0935
  298MOL0     H40197   6.786  11.354   4.656 -1.9350  0.8397  1.1755
  298MOL0     H40198   6.643  11.372   4.862  0.9726  0.1156  1.2501
  298MOL0     H40199   6.736  11.230   4.925  1.5579  0.0785  0.4551
  298MOL0     H40200   6.869  11.506   4.856 -0.2939 -1.0011 -1.7951
  298MOL0     H40201   6.943  11.351   4.922  0.5317  1.1021  1.1611
  298MOL0     H40202   6.799  11.356   5.120  1.1117 -0.0117 -0.0196
  298MOL0     H40203   6.742  11.512   5.076  1.6172  1.0161 -0.1466
  298MOL0     H40204   7.023  11.433   5.142 -0.3933  0.4263  1.4032
  298MOL0     H40205   6.970  11.603   5.094  1.1174  1.6644  2.4467
  298MOL0     H40206   6.866  11.437   5.325  1.3095 -0.7431 -1.4946
  298MOL0     H40207   6.819  11.601   5.291  0.4909 -0.1950 -0.4810
  298MOL0     H40208   7.005  11.566   5.464  1.6534 -2.4103 -0.4368
  298MOL0     H40209   7.122  11.547   5.329  1.4826  1.2903  1.9041
  298MOL0     H40210   6.518  11.048   4.458  0.0548 -1.4188  1.3749
  298MOL0     H40211   6.306  10.970   4.352  1.5130  0.2566 -1.4038
  298MOL0     H40212   5.987  11.018   4.155 -0.0432 -0.9631 -0.7258
  298MOL0     H40213   5.807  10.944   3.988 -1.5085 -1.6135  1.0246
  298MOL0     H40214   4.002  10.376   4.396  0.4869  0.8848 -1.3918
  298MOL0     H40215   3.772  10.346   4.468 -0.1337  0.1048 -1.9377
  298MOL0     H40216   3.517  10.238   4.711  0.6150 -1.7529  1.5331
  298MOL0     H40217   3.297  10.305   4.792 -1.2262 -1.5584  2.0165
  298MOL0     H40218   2.951  10.066   4.874  0.2457  1.8451 -0.6264
  298MOL0     H40219   3.053   9.954   4.771 -1.3585 -1.5709 -2.3808
  298MOL0     H40220   2.833   9.931   4.692 -0.1385 -0.8319  0.0314
  298MOL0     H40221   2.911  10.053   4.580 -0.0706  0.3269 -0.3550
  298MOL0     H40222   2.778  10.228   4.690 -0.7054 -0.5030  0.2479
  298MOL0     H40223   2.740  10.125   4.819  1.9200  2.4181  1.2980
  298MOL0     H40224   2.598   9.987   4.658 -1.2135  0.4799  0.5375
  298MOL0     H40225   2.545  10.158   4.649 -1.3700  0.4472  0.4112
  298MOL0     H40226   2.698  10.162   4.265 -1.6868  1.4816 -0.0620
  298MOL0     H40227   3.130   9.961   4.586 -0.9184  0.8181 -0.3656
  298MOL0     H40228   3.317   9.825   4.442 -0.0704  0.0402 -1.0664
  298MOL0     H40229   3.266   9.967   4.346  2.1489 -0.1264 -2.5840
  298MOL0     H40230   3.431   9.921   4.357 -1.2846 -1.4590 -1.7602
  299MOL0     O40231   8.163   6.368   3.183  0.4372  0.6130  0.1012
  299MOL0     C40232   8.152   6.257   3.240 -1.2546 -0.6170  0.4029
  299MOL0     O40233   8.263   6.179   3.270 -0.6392  0.1148  0.0562
  299MOL0     C40234   8.378   6.207   3.206 -0.2855  0.0778  0.3974
  299MOL0     C40235   8.495   6.243   3.281  0.2671  0.5012  0.7243
  299MOL0     C40236   8.615   6.282   3.218  0.2119 -0.6518 -0.1947
  299MOL0     C40237   8.620   6.287   3.077  0.5644  0.8286 -0.1583
  299MOL0     O40238   8.729   6.313   2.998 -0.1259  0.1046  0.3696
  299MOL0     C40239   8.848   6.344   3.074 -0.0386 -0.0310  0.1186
  299MOL0     C40240   8.973   6.336   2.987 -0.5227 -0.5234 -0.3655
  299MOL0     C40241   8.984   6.216   2.901 -0.3832  0.4497  0.5072
  299MOL0     C40242   9.116   6.135   2.921 -0.1646  0.6678  0.1687
  299MOL0     C40243   9.235   6.219   2.878  0.0775  0.5965  0.1294
  299MOL0     C40244   9.365   6.154   2.889  0.4820 -0.1770 -0.1376
  299MOL0     C40245   9.471   6.238   2.810 -0.2190 -0.0812  0.2911
  299MOL0     C40246   9.600   6.157   2.815  0.0833  0.4956 -0.6576
  299MOL0     N40247   9.651   6.129   2.951 -0.3197 -0.3834 -0.2092
  299MOL0     C40248   9.640   6.007   3.014 -0.7521 -0.6097  0.3411
  299MOL0     C40249   9.663   6.044   3.138  0.1343  0.2370  0.1849
  299MOL0     C40250   9.652   5.939   3.243  0.1305  0.1003  0.0205
  299MOL0     C40251   9.516   5.944   3.300  0.0564 -0.0431 -0.8467
  299MOL0     C40252   9.398   5.912   3.209  0.4791  0.2079 -0.6971
  299MOL0     C40253   9.268   5.904   3.304 -0.7907 -0.0972  0.0657
  299MOL0     O40254   9.260   6.016   3.385 -0.0677 -0.3680  0.1524
  299MOL0     C40255   9.171   6.029   3.491 -0.0529  0.2338  0.5095
  299MOL0     C40256   9.180   6.143   3.569 -0.5518  0.0954  0.2701
  299MOL0     C40257   9.106   6.158   3.690  0.2889  0.3237  0.3184
  299MOL0     C40258   9.013   6.050   3.721  0.6326  0.3113 -0.5674
  299MOL0     C40259   8.930   6.050   3.844  0.3123 -0.2470  0.1496
  299MOL0     O40260   8.923   6.171   3.902 -0.2551 -0.5793 -0.2031
  299MOL0     C40261   8.854   6.184   4.023 -0.4669  0.9779  0.2586
  299MOL0     C40262   8.920   6.214   4.137  0.1369  0.2941 -0.7427
  299MOL0     C40263   8.859   6.229   4.262 -0.2006 -0.1170  0.1115
  299MOL0     C40264   8.718   6.230   4.263  0.0611  0.7511  0.3162
  299MOL0     O40265   8.645   6.263   4.375  0.4750 -0.0838 -0.0016
  299MOL0     C40266   8.715   6.347   4.470  0.2044 -0.4783 -0.8957
  299MOL0     C40267   8.610   6.409   4.567  0.4772  0.6518  0.3873
  299MOL0     C40268   8.513   6.305   4.635 -0.7723 -0.4475  0.7455
  299MOL0     C40269   8.411   6.374   4.730 -0.0807  0.0311 -0.9831
  299MOL0     C40270   8.309   6.274   4.789  0.1389  0.2943  0.5579
  299MOL0     C40271   8.190   6.361   4.851 -0.3533 -0.4102 -0.1933
  299MOL0     C40272   8.084   6.264   4.875  0.7264 -0.3994  0.8310
  299MOL0     C40273   7.939   6.319   4.887 -0.4961 -1.1429  0.3282
  299MOL0    Cl40274   7.943   6.481   4.975  0.5342  0.1174  0.1325
  299MOL0     C40275   8.650   6.198   4.147 -0.8718 -0.4301  0.4138
  299MOL0     C40276   8.715   6.181   4.026 -0.2176 -0.2316  0.2857
  299MOL0     O40277   8.871   5.948   3.889 -0.4786  0.1160  0.2273
  299MOL0     C40278   9.005   5.941   3.635  0.1028 -0.4830  0.1323
  299MOL0     C40279   9.087   5.927   3.523  0.0166  0.2512  0.7619
  299MOL0     N40280   9.705   6.175   3.160  0.0849  0.5225  0.0958
  299MOL0     N40281   9.688   6.228   3.045  0.3517  0.2494  0.0719
  299MOL0     C40282   8.508   6.238   3.007 -0.9536 -0.5309  0.4440
  299MOL0     C40283   8.397   6.200   3.072  0.1185 -0.3307  0.1396
  299MOL0     C40284   8.016   6.214   3.280 -0.0344 -0.2330 -0.1161
  299MOL0     C40285   7.994   6.120   3.384  0.5830 -0.1681  0.1056
  299MOL0     C40286   7.866   6.077   3.428  0.7242  0.3861 -0.0876
  299MOL0     C40287   7.756   6.137   3.371  0.6115 -0.3824  0.1692
  299MOL0     O40288   7.626   6.115   3.409  0.3031 -0.1145  0.4713
  299MOL0     C40289   7.591   5.991   3.478 -0.1141 -0.2525  0.1177
  299MOL0     C40290   7.592   5.877   3.383  1.0456 -0.0274  0.2640
  299MOL0     C40291   7.532   5.757   3.454  0.8555  0.3133 -0.7603
  299MOL0     C40292   7.546   5.633   3.379 -0.2573  0.4492  0.1641
  299MOL0     C40293   7.481   5.630   3.259  0.1541 -0.5285 -0.1412
  299MOL0     C40294   7.422   5.627   3.153 -0.0136 -0.3752 -0.1784
  299MOL0     C40295   7.775   6.226   3.264 -0.7283 -0.8610 -0.0863
  299MOL0     C40296   7.897   6.261   3.213  0.1770 -0.1295 -0.7122
  299MOL0     C40297   7.895   6.343   3.092 -0.1723 -1.2048 -0.5281
  299MOL0     H40298   8.472   6.248   3.387 -1.5707  2.2209  0.3015
  299MOL0     H40299   8.695   6.310   3.285 -2.0768 -1.3494  3.0339
  299MOL0     H40300   8.852   6.438   3.130  2.1313 -0.8777  1.5475
  299MOL0     H40301   8.860   6.268   3.152  2.9539 -0.0957 -0.2754
  299MOL0     H40302   9.060   6.338   3.054  0.8187  0.9701 -2.0506
  299MOL0     H40303   8.985   6.426   2.926  1.4723  1.3468  2.5022
  299MOL0     H40304   8.973   6.238   2.795 -0.0058 -0.2200  0.3230
  299MOL0     H40305   8.902   6.148   2.928 -1.3070  0.7852 -1.3004
  299MOL0     H40306   9.126   6.088   3.019  2.7663  1.1935  0.2161
  299MOL0     H40307   9.122   6.044   2.860 -1.7879  0.4193  0.3248
  299MOL0     H40308   9.216   6.246   2.774  0.4719  1.8258  0.3700
  299MOL0     H40309   9.235   6.315   2.930  2.3863  1.2257 -0.9275
  299MOL0     H40310   9.388   6.151   2.996 -0.9591 -0.9789  0.1657
  299MOL0     H40311   9.358   6.055   2.844 -0.5098  0.0019 -0.3991
  299MOL0     H40312   9.487   6.340   2.845  1.2238 -0.3831  0.5844
  299MOL0     H40313   9.445   6.232   2.704 -1.5786 -1.2055  0.6651
  299MOL0     H40314   9.578   6.062   2.766  0.7863 -0.9903  1.7389
  299MOL0     H40315   9.677   6.211   2.759  1.7678 -2.6704 -1.6301
  299MOL0     H40316   9.588   5.917   2.980 -1.3251  0.5280 -2.0452
  299MOL0     H40317   9.688   5.842   3.207  1.0192  0.6857 -0.6943
  299MOL0     H40318   9.721   5.949   3.327 -1.1947  0.2736  1.1252
  299MOL0     H40319   9.506   5.868   3.379  0.1196  0.8204  0.0001
  299MOL0     H40320   9.498   6.048   3.329 -1.2145  0.1870 -2.3447
  299MOL0     H40321   9.419   5.819   3.155  2.9595 -0.5355  1.3278
  299MOL0     H40322   9.405   5.996   3.140  2.1206  0.4415 -0.2814
  299MOL0     H40323   9.261   5.806   3.351 -1.9879 -1.1878 -2.2515
  299MOL0     H40324   9.186   5.897   3.232 -2.1577 -3.7408  1.7549
  299MOL0     H40325   9.251   6.222   3.547 -2.2914  1.1454 -1.9411
  299MOL0     H40326   9.140   6.245   3.745  2.8224 -0.8578  0.7601
  299MOL0     H40327   9.028   6.229   4.137 -0.0466  1.9855  0.8875
  299MOL0     H40328   8.915   6.246   4.353 -2.7934  2.4331  1.4011
  299MOL0     H40329   8.790   6.289   4.525  0.1207  1.2267  1.1861
  299MOL0     H40330   8.768   6.430   4.423  1.1988 -0.1735  0.6762
  299MOL0     H40331   8.656   6.476   4.640  0.6414 -0.0738  0.9722
  299MOL0     H40332   8.549   6.474   4.504  1.5639  0.2419 -1.1634
  299MOL0     H40333   8.459   6.246   4.560  1.2886 -0.3352 -0.9010
  299MOL0     H40334   8.568   6.227   4.689 -1.2576 -1.0186  0.4317
  299MOL0     H40335   8.367   6.447   4.662  1.1179  2.6129  0.8647
  299MOL0     H40336   8.477   6.415   4.806  1.3098 -2.9363 -0.4326
  299MOL0     H40337   8.349   6.204   4.864 -0.5501  0.5055  1.1239
  299MOL0     H40338   8.265   6.213   4.709 -3.6878  3.7954 -0.3336
  299MOL0     H40339   8.229   6.407   4.942 -0.0685  2.7767 -1.7863
  299MOL0     H40340   8.156   6.443   4.788  0.8823  0.7448  0.5830
  299MOL0     H40341   8.107   6.210   4.967 -2.2528  1.3434  2.7762
  299MOL0     H40342   8.073   6.190   4.794 -1.7851  0.5153  0.2335
  299MOL0     H40343   7.893   6.347   4.792  2.0283  3.8695  0.2316
  299MOL0     H40344   7.869   6.253   4.940 -1.0865  0.9617  2.3522
  299MOL0     H40345   8.544   6.175   4.151 -1.2077  0.6129 -1.4551
  299MOL0     H40346   8.648   6.146   3.948  1.0802 -1.3882 -0.3474
  299MOL0     H40347   8.939   5.856   3.652  0.3156 -1.2700 -2.5116
  299MOL0     H40348   9.094   5.840   3.458  4.3640  0.8787  0.1159
  299MOL0     H40349   8.518   6.211   2.902 -2.5270 -0.5523  0.2783
  299MOL0     H40350   8.328   6.160   2.998  2.1457 -0.5846 -1.6944
  299MOL0     H40351   8.074   6.077   3.443  0.6850 -0.0671  0.0407
  299MOL0     H40352   7.856   6.000   3.504 -0.5924  0.2880 -0.3359
  299MOL0     H40353   7.490   6.001   3.517 -0.4261  0.7820 -0.8907
  299MOL0     H40354   7.656   5.966   3.562 -0.0733 -3.3882 -0.6850
  299MOL0     H40355   7.696   5.859   3.355  0.4467 -1.6682 -1.0229
  299MOL0     H40356   7.527   5.904   3.299  1.1719  0.4010  0.2986
  299MOL0     H40357   7.428   5.780   3.477  1.5327  2.0158  0.9153
  299MOL0     H40358   7.577   5.736   3.552 -0.7274 -3.1394 -0.6530
  299MOL0     H40359   7.649   5.606   3.353 -1.3007 -0.3729 -3.7566
  299MOL0     H40360   7.514   5.547   3.438  0.1968  0.1255 -0.0529
  299MOL0     H40361   7.360   5.642   3.066 -1.6440  1.0894  1.1650
  299MOL0     H40362   7.679   6.262   3.229 -2.6980 -3.8554  1.7285
  299MOL0     H40363   7.977   6.318   3.024 -1.0130 -1.5818 -1.4241
  299MOL0     H40364   7.804   6.314   3.040 -1.5877 -0.0239  1.1902
  299MOL0     H40365   7.884   6.451   3.104  0.5995 -1.0947 -0.7576
  300MOL0     O40366   0.390   9.055   9.892  0.0280 -0.6601  0.3095
  300MOL0     C40367   0.377   8.936   9.872 -0.1149 -0.1442  0.1853
  300MOL0     O40368   0.480   8.853   9.852 -0.8108 -0.4295  0.4660
  300MOL0     C40369   0.603   8.903   9.821  0.4592 -0.0876  0.3605
  300MOL0     C40370   0.680   8.954   9.922 -0.0831 -0.0865 -0.6960
  300MOL0     C40371   0.814   8.997   9.906  0.7273  0.0640 -0.1779
  300MOL0     C40372   0.872   8.984   9.776  1.0093  0.3873  0.0342
  300MOL0     O40373   1.002   9.013   9.736 -0.0915 -1.0578  0.0911
  300MOL0     C40374   1.088   9.067   9.840 -0.1805 -0.1772  0.0375
  300MOL0     C40375   1.228   9.097   9.787 -0.5949 -1.0333 -0.1054
  300MOL0     C40376   1.295   8.978   9.726  0.2530 -0.2922  0.4389
  300MOL0     C40377   1.426   9.008   9.660  0.3927 -0.1481  0.5178
  300MOL0     C40378   1.540   8.982   9.761  0.1151  0.7090  0.1178
  300MOL0     C40379   1.669   9.044   9.708  0.0047  0.8782  0.5214
  300MOL0     C40380   1.787   8.985   9.786 -0.0528  0.6689 -0.0607
  300MOL0     C40381   1.828   9.042   9.921  0.3053  0.0006  0.3691
  300MOL0     N40382   1.945   8.969   9.979 -0.2018  0.3856  0.3783
  300MOL0     C40383   1.954   8.837   9.981 -0.1673 -0.1623  0.1217
  300MOL0     C40384   2.080   8.804  10.011 -0.2658 -0.1570 -0.5301
  300MOL0     C40385   2.150   8.667  10.014 -0.3649 -0.4796 -0.3789
  300MOL0     C40386   2.288   8.682  10.084  0.0935  0.5620  0.9531
  300MOL0     C40387   2.412   8.736  10.003 -0.3843 -0.8195  0.2857
  300MOL0     C40388   2.515   8.806  10.099  0.2051 -0.5187 -0.1233
  300MOL0     O40389   2.619   8.847  10.015  0.3872  0.5937 -0.4617
  300MOL0     C40390   2.710   8.936  10.069  0.1186 -0.8166  0.2879
  300MOL0     C40391   2.816   8.987   9.981  0.9662 -0.2590 -0.1307
  300MOL0     C40392   2.921   9.065  10.024  0.2422  0.8110  0.3446
  300MOL0     C40393   2.917   9.118  10.155  0.0939  0.9970  0.6434
  300MOL0     C40394   3.018   9.211  10.211 -0.1407 -0.8371  0.5093
  300MOL0     O40395   3.122   9.239  10.126 -0.0063 -0.7557  0.2333
  300MOL0     C40396   3.229   9.319  10.157  0.6871 -0.1202 -0.3264
  300MOL0     C40397   3.293   9.308  10.276 -0.0049  0.0435 -0.0828
  300MOL0     C40398   3.412   9.372  10.290  0.5073 -0.2158  0.4424
  300MOL0     C40399   3.472   9.450  10.190  0.1532  0.1918  0.1337
  300MOL0     O40400   3.581   9.522  10.215 -0.9376 -0.3162 -0.5774
  300MOL0     C40401   3.678   9.530  10.107 -0.3889  1.1274 -0.8141
  300MOL0     C40402   3.802   9.616  10.131  1.0042 -0.0589  0.0356
  300MOL0     C40403   3.922   9.588  10.033  0.4329  0.5525 -0.0449
  300MOL0     C40404   4.036   9.685  10.075 -0.0857 -0.2494  0.2697
  300MOL0     C40405   4.168   9.601  10.072 -0.6068 -0.6029  0.3494
  300MOL0     C40406   4.216   9.606   9.924 -0.2246  0.5559 -0.3619
  300MOL0     C40407   4.366   9.595   9.896  0.2289  0.4227 -0.1424
  300MOL0     C40408   4.383   9.535   9.754  0.3092 -0.1897  0.2182
  300MOL0    Cl40409   4.343   9.654   9.624  0.1626  0.1883  0.0051
  300MOL0     C40410   3.402   9.457  10.068 -0.0387  0.4016  0.0266
  300MOL0     C40411   3.282   9.402  10.055  0.2597  0.2518 -0.4447
  300MOL0     O40412   2.990   9.275  10.312  0.1336 -0.5002  0.6679
  300MOL0     C40413   2.810   9.081  10.235  0.0275  0.8798 -0.1298
  300MOL0     C40414   2.716   8.983  10.198 -0.0680 -0.8371 -0.0631
  300MOL0     N40415   2.148   8.927  10.037  0.1849  0.5103  0.1674
  300MOL0     N40416   2.072   9.022  10.004  0.8186 -0.9309 -0.4645
  300MOL0     C40417   0.796   8.919   9.678 -1.5448 -0.3974 -0.4288
  300MOL0     C40418   0.660   8.884   9.701 -1.2300  0.2388  0.3048
  300MOL0     C40419   0.242   8.876   9.877  0.1021 -0.3373  0.8182
  300MOL0     C40420   0.222   8.765   9.955  0.4067  0.6720  0.7506
  300MOL0     C40421   0.094   8.711   9.968 -0.5687  0.1752 -1.4143
  300MOL0     C40422  -0.015   8.775   9.915  0.6093  0.1505  0.0609
  300MOL0     O40423  -0.138   8.718   9.939 -0.6313  0.7695 -0.3362
  300MOL0     C40424  -0.225   8.716   9.831 -0.4640  0.0122  0.0026
  300MOL0     C40425  -0.349   8.639   9.867  0.5868  0.3147 -0.1721
  300MOL0     C40426  -0.418   8.588   9.737 -0.5963 -0.6186  0.5079
  300MOL0     C40427  -0.548   8.503   9.757 -0.1374  1.0185 -0.3241
  300MOL0     C40428  -0.660   8.575   9.815  0.4996 -0.3393 -0.3345
  300MOL0     C40429  -0.746   8.638   9.866  0.2214  0.1805 -0.7405
  300MOL0     C40430   0.005   8.897   9.843  0.3348  0.7864  0.0883
  300MOL0     C40431   0.130   8.942   9.819  0.4350  0.3255 -0.0865
  300MOL0     C40432   0.155   9.074   9.744  0.2666  0.8353 -0.3675
  300MOL0     H40433   0.649   8.982  10.023 -1.0045 -1.1224 -0.6658
  300MOL0     H40434   0.877   9.031   9.988  0.7456  0.6444 -0.4233
  300MOL0     H40435   1.044   9.161   9.877  1.0297  0.5998 -0.4231
  300MOL0     H40436   1.094   8.993   9.920 -1.9412 -1.0002 -0.5468
  300MOL0     H40437   1.299   9.129   9.865  0.2821 -1.5849 -0.6634
  300MOL0     H40438   1.210   9.172   9.709 -2.0113 -2.6855 -1.4425
  300MOL0     H40439   1.227   8.954   9.645 -1.4308  1.3495  1.2926
  300MOL0     H40440   1.311   8.898   9.799  0.6115 -0.6637 -0.0413
  300MOL0     H40441   1.446   8.952   9.568  2.4541  0.7058  0.3820
  300MOL0     H40442   1.424   9.115   9.639  0.2899  0.0138  1.3007
  300MOL0     H40443   1.520   9.031   9.857  0.2191  0.8502  0.0680
  300MOL0     H40444   1.559   8.875   9.776 -0.9568  0.4736 -0.1124
  300MOL0     H40445   1.670   9.013   9.604 -0.1447  4.3449 -0.6445
  300MOL0     H40446   1.665   9.153   9.717 -2.2450  0.9993 -1.1815
  300MOL0     H40447   1.875   8.992   9.723 -0.2919 -1.1364 -0.6583
  300MOL0     H40448   1.774   8.879   9.807 -4.6061  1.3099  1.5371
  300MOL0     H40449   1.863   9.145   9.922  3.8700 -1.0419 -0.3423
  300MOL0     H40450   1.743   9.039   9.989 -1.5631 -0.0220 -1.8443
  300MOL0     H40451   1.881   8.762   9.954 -0.9352  0.9892 -1.1370
  300MOL0     H40452   2.097   8.601  10.084  1.4184 -1.5092  0.0450
  300MOL0     H40453   2.146   8.620   9.915  1.9541  2.2461 -1.8976
  300MOL0     H40454   2.263   8.732  10.178 -3.0574  0.6715  0.1701
  300MOL0     H40455   2.329   8.584  10.111 -2.1223 -0.3756  1.1264
  300MOL0     H40456   2.389   8.810   9.925  0.8922 -0.6345  0.0677
  300MOL0     H40457   2.471   8.656   9.958  1.6136  0.3083  0.7978
  300MOL0     H40458   2.555   8.745  10.181  1.6141 -0.4113 -0.7041
  300MOL0     H40459   2.463   8.888  10.150  1.7127 -0.3657  1.2150
  300MOL0     H40460   2.821   8.958   9.876  1.3688 -0.2176 -0.1249
  300MOL0     H40461   3.002   9.099   9.960 -0.1226  0.8376 -0.1011
  300MOL0     H40462   3.249   9.261  10.364 -1.8185  0.8615 -0.5254
  300MOL0     H40463   3.463   9.350  10.383  1.8355  0.7488 -0.0284
  300MOL0     H40464   3.706   9.427  10.083 -4.9195 -1.0056  1.5560
  300MOL0     H40465   3.628   9.578  10.022  0.3185  2.4571 -0.5110
  300MOL0     H40466   3.759   9.716  10.136 -1.9287 -1.2879  1.6396
  300MOL0     H40467   3.839   9.595  10.232 -1.4621 -2.1064  0.6179
  300MOL0     H40468   3.960   9.486  10.043  2.1361  1.2790  1.4633
  300MOL0     H40469   3.890   9.615   9.932 -0.3671 -0.2089 -0.0054
  300MOL0     H40470   4.015   9.722  10.176 -1.8230 -3.3489  1.1996
  300MOL0     H40471   4.040   9.767  10.003 -2.4960 -2.2050 -2.3204
  300MOL0     H40472   4.151   9.507  10.125 -2.9484 -0.4905 -0.1000
  300MOL0     H40473   4.233   9.660  10.138 -1.7765  0.2825  0.7671
  300MOL0     H40474   4.174   9.513   9.884  1.1246  1.1012 -3.3259
  300MOL0     H40475   4.180   9.693   9.868 -0.6442  0.5902 -0.0503
  300MOL0     H40476   4.424   9.534   9.965  1.5829  1.2583 -0.5065
  300MOL0     H40477   4.411   9.695   9.893  2.1243 -0.4053 -1.0063
  300MOL0     H40478   4.492   9.523   9.753  0.6710  2.0526  2.7157
  300MOL0     H40479   4.331   9.439   9.747 -0.0661 -0.2143  2.5880
  300MOL0     H40480   3.433   9.517   9.983 -2.0303  0.1996 -0.8969
  300MOL0     H40481   3.228   9.401   9.961  2.0401 -0.5413 -1.5256
  300MOL0     H40482   2.805   9.131  10.331 -0.7719  3.8979 -1.6211
  300MOL0     H40483   2.645   8.950  10.273 -0.4919  0.6677  0.2342
  300MOL0     H40484   0.835   8.900   9.578 -0.6213 -0.2822 -0.0961
  300MOL0     H40485   0.605   8.845   9.616 -0.8077  1.2024 -0.4299
  300MOL0     H40486   0.306   8.711   9.998  2.0757  1.8526 -0.8845
  300MOL0     H40487   0.074   8.618  10.020 -0.7137  0.1516 -1.5112
  300MOL0     H40488  -0.177   8.656   9.753  2.4492 -2.7188  3.5258
  300MOL0     H40489  -0.252   8.817   9.800 -1.4917  0.0310  0.9091
  300MOL0     H40490  -0.414   8.718   9.907  3.1899  2.6057 -0.1406
  300MOL0     H40491  -0.343   8.559   9.941 -0.9197 -2.4141 -2.7479
  300MOL0     H40492  -0.347   8.528   9.679 -0.7530 -0.1279 -0.2074
  300MOL0     H40493  -0.441   8.671   9.669  0.2317 -2.3225 -2.0204
  300MOL0     H40494  -0.592   8.480   9.660  2.0500  1.7855 -1.5675
  300MOL0     H40495  -0.521   8.408   9.806 -2.3843 -0.4489 -1.7440
  300MOL0     H40496  -0.832   8.686   9.908  0.1321 -0.9310  0.3897
  300MOL0     H40497  -0.087   8.940   9.804 -0.4391 -2.3018 -1.9083
  300MOL0     H40498   0.259   9.084   9.709  1.5827  2.0389  3.4216
  300MOL0     H40499   0.092   9.086   9.655 -2.6432  0.2724  1.4768
  300MOL0     H40500   0.134   9.161   9.807 -0.2685  1.0536 -0.8381
  301MOL0     O40501   1.343   5.466   8.520 -0.2990 -0.6811 -0.4044
  301MOL0     C40502   1.353   5.463   8.646  0.9679 -0.6868  0.0199
  301MOL0     O40503   1.466   5.479   8.715 -0.0000 -0.2448  0.3973
  301MOL0     C40504   1.576   5.502   8.638  0.3002 -0.0956  0.8806
  301MOL0     C40505   1.697   5.440   8.669 -0.2163  0.0541  1.1353
  301MOL0     C40506   1.816   5.466   8.591 -0.2461 -0.4267 -0.5969
  301MOL0     C40507   1.818   5.548   8.483  0.4334 -0.1002  0.9029
  301MOL0     O40508   1.944   5.545   8.429 -0.1355 -0.6118 -0.0253
  301MOL0     C40509   1.970   5.592   8.294  0.2107  0.7046  0.1769
  301MOL0     C40510   2.121   5.580   8.262  0.2860 -0.1864 -0.5894
  301MOL0     C40511   2.174   5.439   8.259 -0.2416 -0.3856  0.2435
  301MOL0     C40512   2.319   5.428   8.317 -0.4533  0.5907 -0.1845
  301MOL0     C40513   2.370   5.289   8.286  0.5700 -0.2606  0.2091
  301MOL0     C40514   2.497   5.250   8.363  0.0282 -0.6439 -0.4051
  301MOL0     C40515   2.575   5.128   8.300  0.3158 -0.4975  0.3912
  301MOL0     C40516   2.696   5.082   8.379  0.2914  0.4104 -0.0304
  301MOL0     N40517   2.777   4.990   8.303 -0.4473 -0.1749  0.1797
  301MOL0     C40518   2.912   5.014   8.290  1.2653 -0.1453 -0.3614
  301MOL0     C40519   2.946   4.925   8.198 -0.2479  1.2256  0.5391
  301MOL0     C40520   3.092   4.902   8.142 -0.0204  0.7409 -0.1856
  301MOL0     C40521   3.177   4.804   8.223  0.3023  0.8086  0.2708
  301MOL0     C40522   3.312   4.790   8.159 -0.2728 -0.1184 -0.0439
  301MOL0     C40523   3.403   4.684   8.222  0.3587  0.4764  0.9055
  301MOL0     O40524   3.522   4.686   8.149 -0.3244 -0.5643  0.6237
  301MOL0     C40525   3.630   4.623   8.209 -0.6185 -0.7142  0.0540
  301MOL0     C40526   3.724   4.572   8.131 -0.8503  0.1192 -0.5329
  301MOL0     C40527   3.831   4.500   8.186 -0.6423 -0.1280 -0.2374
  301MOL0     C40528   3.850   4.476   8.325 -1.1342 -0.0450  0.0216
  301MOL0     C40529   3.972   4.405   8.379  0.0655 -0.9458 -0.6168
  301MOL0     O40530   3.982   4.402   8.518  0.0606  0.7233  0.2545
  301MOL0     C40531   4.087   4.316   8.559  0.0602 -0.4178  0.3518
  301MOL0     C40532   4.071   4.184   8.573  0.9345  0.3622 -0.1654
  301MOL0     C40533   4.170   4.108   8.635 -0.1632 -0.4340  0.8275
  301MOL0     C40534   4.297   4.161   8.654 -0.4946 -0.0861  0.2082
  301MOL0     O40535   4.389   4.075   8.715 -0.5826 -0.3027 -0.2734
  301MOL0     C40536   4.522   4.119   8.743  0.2291  0.0828 -0.0928
  301MOL0     C40537   4.601   4.004   8.791  0.7089 -0.1343  0.4408
  301MOL0     C40538   4.747   4.036   8.829  0.5881  0.5865  0.2856
  301MOL0     C40539   4.833   3.949   8.739  0.1421  0.5516 -0.5064
  301MOL0     C40540   4.988   3.961   8.747 -0.1677  0.4738  0.3904
  301MOL0     C40541   5.055   3.872   8.646 -0.8783  0.7389 -0.3840
  301MOL0     C40542   5.209   3.875   8.637  0.2074  0.4763  0.1040
  301MOL0     C40543   5.255   3.828   8.501  0.2918  0.1018 -1.5948
  301MOL0    Cl40544   5.201   3.653   8.476  0.1947  0.2343 -0.1799
  301MOL0     C40545   4.319   4.297   8.625 -0.4857  0.8137  0.5995
  301MOL0     C40546   4.214   4.371   8.580  0.0439 -1.0031 -0.6179
  301MOL0     O40547   4.051   4.360   8.294  0.5335 -0.2586 -0.3796
  301MOL0     C40548   3.750   4.536   8.403 -0.3975  0.4115 -0.7347
  301MOL0     C40549   3.644   4.608   8.349 -0.3317  0.0184  0.1693
  301MOL0     N40550   2.837   4.846   8.161 -0.5614  0.2673  0.4953
  301MOL0     N40551   2.731   4.888   8.223 -0.1364  0.3156 -0.1903
  301MOL0     C40552   1.701   5.624   8.458 -0.5080  0.7612 -0.9233
  301MOL0     C40553   1.585   5.598   8.533 -0.0280  0.1960 -0.3607
  301MOL0     C40554   1.224   5.460   8.718  0.3635  0.1489  0.1216
  301MOL0     C40555   1.100   5.499   8.658  0.2968  0.0879 -0.2541
  301MOL0     C40556   0.981   5.487   8.721  0.0448  1.0227 -0.6054
  301MOL0     C40557   0.973   5.452   8.866 -1.0336 -0.2824  0.2858
  301MOL0     O40558   0.864   5.434   8.937  0.1483  0.2823  0.1416
  301MOL0     C40559   0.749   5.500   8.897 -0.1408  0.4573 -0.6601
  301MOL0     C40560   0.643   5.490   9.009  0.4014 -0.3580  0.6158
  301MOL0     C40561   0.640   5.352   9.079  0.0781 -0.2150 -0.5410
  301MOL0     C40562   0.586   5.247   8.990 -0.6358  0.9013  0.0540
  301MOL0     C40563   0.573   5.124   9.071 -0.1396  0.0008 -0.2813
  301MOL0     C40564   0.537   5.039   9.143  1.3834  0.2765 -0.0215
  301MOL0     C40565   1.096   5.408   8.920  1.0092 -0.6505  0.4569
  301MOL0     C40566   1.212   5.400   8.844  0.5841 -0.0049  0.0020
  301MOL0     C40567   1.316   5.314   8.896  0.0614 -0.0011 -0.8724
  301MOL0     H40568   1.703   5.369   8.751  1.0120  1.1709  2.0439
  301MOL0     H40569   1.905   5.418   8.632  0.3195  1.0770 -0.0110
  301MOL0     H40570   1.925   5.532   8.214 -0.9533 -0.1802  1.4596
  301MOL0     H40571   1.938   5.696   8.285 -0.6624  0.3198 -1.4630
  301MOL0     H40572   2.167   5.641   8.340 -0.2932  1.0625 -1.1806
  301MOL0     H40573   2.141   5.630   8.166 -1.6563  1.0008 -0.4338
  301MOL0     H40574   2.164   5.409   8.155 -1.4219 -0.2120  0.2935
  301MOL0     H40575   2.104   5.375   8.313 -0.1576 -0.7375 -0.0602
  301MOL0     H40576   2.384   5.508   8.281  0.1218 -0.8471 -2.5531
  301MOL0     H40577   2.315   5.434   8.426  0.8426 -1.0163 -0.0206
  301MOL0     H40578   2.299   5.219   8.333 -1.1998  1.9432  0.9749
  301MOL0     H40579   2.367   5.268   8.179 -1.6793  0.1156  0.1624
  301MOL0     H40580   2.566   5.334   8.368 -2.5619  1.5255  2.1597
  301MOL0     H40581   2.467   5.210   8.460  0.9675 -1.4957 -0.4512
  301MOL0     H40582   2.603   5.164   8.200  2.6265 -0.3194  1.0436
  301MOL0     H40583   2.517   5.038   8.279 -0.3414 -0.4252  1.7876
  301MOL0     H40584   2.752   5.169   8.417 -0.8769  1.1534  0.0359
  301MOL0     H40585   2.661   5.034   8.471  0.8588 -0.7258 -0.3926
  301MOL0     H40586   2.972   5.095   8.330  0.8276 -0.7500  1.6818
  301MOL0     H40587   3.080   4.859   8.042 -1.2247 -0.4787  0.4509
  301MOL0     H40588   3.154   4.992   8.145  3.0582 -1.2388 -0.0469
  301MOL0     H40589   3.180   4.837   8.327 -2.0842 -0.9900  0.9942
  301MOL0     H40590   3.129   4.706   8.215  0.6429  0.7752 -2.6132
  301MOL0     H40591   3.360   4.888   8.169  0.2508 -0.4558  0.9783
  301MOL0     H40592   3.296   4.761   8.055  1.2306  0.0349 -0.3480
  301MOL0     H40593   3.348   4.592   8.198  0.9445 -0.2273  2.1911
  301MOL0     H40594   3.410   4.679   8.331 -1.8548 -1.5218  1.0328
  301MOL0     H40595   3.712   4.579   8.024 -0.2746  0.2179 -0.5940
  301MOL0     H40596   3.902   4.457   8.117 -2.9475 -1.6218 -1.8276
  301MOL0     H40597   3.969   4.149   8.561  0.5319  1.0130  1.1294
  301MOL0     H40598   4.159   4.006   8.671  1.4122 -0.1291  2.2877
  301MOL0     H40599   4.564   4.162   8.652 -1.7009 -0.0314 -1.0887
  301MOL0     H40600   4.522   4.198   8.819  0.0524  0.2264 -0.2404
  301MOL0     H40601   4.541   3.961   8.872 -0.7536 -2.3238 -1.6381
  301MOL0     H40602   4.594   3.928   8.712 -1.6495  0.8137 -0.3738
  301MOL0     H40603   4.779   4.140   8.814  0.7214  0.8253  2.0187
  301MOL0     H40604   4.761   4.006   8.934  1.2866 -0.9616 -0.2184
  301MOL0     H40605   4.797   3.973   8.638  0.7200  4.5163  0.0502
  301MOL0     H40606   4.796   3.848   8.760 -1.8228  1.6893  1.9429
  301MOL0     H40607   5.030   3.933   8.844  0.1648 -0.9187 -0.1381
  301MOL0     H40608   5.015   4.064   8.722  1.1045  0.2364  0.7187
  301MOL0     H40609   5.030   3.771   8.681 -0.4301  1.1103  1.0622
  301MOL0     H40610   5.011   3.899   8.550  0.5478  2.6840 -0.5568
  301MOL0     H40611   5.252   3.815   8.717  1.1221  0.4012 -0.4304
  301MOL0     H40612   5.240   3.979   8.653 -2.1435  1.3320 -0.5180
  301MOL0     H40613   5.202   3.882   8.422 -0.9781 -0.7570 -1.3633
  301MOL0     H40614   5.362   3.843   8.484  0.6177  1.0611  0.8649
  301MOL0     H40615   4.419   4.338   8.636  0.1341 -0.6403  0.6354
  301MOL0     H40616   4.224   4.474   8.549 -1.0508 -0.6435  0.1921
  301MOL0     H40617   3.753   4.528   8.511 -1.5450  3.2862 -0.4019
  301MOL0     H40618   3.580   4.666   8.415 -0.6973 -0.4363  0.2158
  301MOL0     H40619   1.705   5.689   8.371  0.5596  0.3502 -1.1924
  301MOL0     H40620   1.491   5.648   8.513 -0.8065 -0.3511  1.7657
  301MOL0     H40621   1.109   5.533   8.555  1.1632 -2.0276 -0.9200
  301MOL0     H40622   0.891   5.517   8.669  0.2700 -0.9500 -2.2760
  301MOL0     H40623   0.712   5.453   8.805  1.5123 -1.0127 -0.6230
  301MOL0     H40624   0.764   5.606   8.874  0.5772  0.9620  1.8878
  301MOL0     H40625   0.541   5.503   8.972  1.5278 -0.1972 -2.7739
  301MOL0     H40626   0.651   5.575   9.077 -1.1484  1.2844 -1.1422
  301MOL0     H40627   0.579   5.367   9.168  1.6839 -1.2584  0.7891
  301MOL0     H40628   0.738   5.323   9.118 -1.3820 -0.9479  2.9919
  301MOL0     H40629   0.487   5.274   8.953 -0.5661  1.6383  0.3681
  301MOL0     H40630   0.644   5.236   8.898 -1.3306  1.2339 -0.4291
  301MOL0     H40631   0.515   4.956   9.206  0.0077 -0.0289 -0.8654
  301MOL0     H40632   1.103   5.365   9.020 -0.0992 -3.9758 -0.7330
  301MOL0     H40633   1.258   5.225   8.922 -1.0976  1.2254  0.9077
  301MOL0     H40634   1.397   5.286   8.827  2.0258 -0.9333  1.6640
  301MOL0     H40635   1.366   5.360   8.982  3.0197  1.4213 -3.1492
  302MOL0     O40636   7.791   5.739  10.429 -0.2743 -0.0726  0.1337
  302MOL0     C40637   7.697   5.792  10.493 -0.5989 -0.3692 -0.7083
  302MOL0     O40638   7.713   5.857  10.615  0.0687  0.0123 -0.1325
  302MOL0     C40639   7.842   5.845  10.671  0.0976 -0.3595  1.0988
  302MOL0     C40640   7.938   5.931  10.614 -0.3052 -1.0242 -0.3013
  302MOL0     C40641   8.075   5.903  10.627 -0.1257  0.0635  0.0641
  302MOL0     C40642   8.122   5.792  10.696 -0.6831  0.0225  0.6740
  302MOL0     O40643   8.262   5.764  10.696 -0.5228 -0.5266 -0.1855
  302MOL0     C40644   8.297   5.619  10.714  0.3391 -0.2273  0.8749
  302MOL0     C40645   8.446   5.600  10.679  0.7958 -0.3092  0.3810
  302MOL0     C40646   8.473   5.615  10.522  0.5608  0.0509  0.0038
  302MOL0     C40647   8.619   5.648  10.487  0.9024  0.0930 -1.0940
  302MOL0     C40648   8.717   5.540  10.531 -1.2288 -0.0903 -0.2481
  302MOL0     C40649   8.862   5.585  10.484 -0.2030 -0.1344  0.7838
  302MOL0     C40650   8.961   5.468  10.492  0.9887  0.2223 -0.0058
  302MOL0     C40651   9.101   5.524  10.489  0.7459  0.4520 -0.8120
  302MOL0     N40652   9.198   5.423  10.498  0.5455  0.0656  0.0446
  302MOL0     C40653   9.225   5.346  10.397 -0.7816  0.5084  0.7032
  302MOL0     C40654   9.300   5.243  10.454 -0.1931 -0.2105 -0.0897
  302MOL0     C40655   9.379   5.146  10.374  0.1197 -0.1985 -0.4397
  302MOL0     C40656   9.518   5.209  10.344  1.2938  0.5535  1.7575
  302MOL0     C40657   9.612   5.184  10.458 -0.2687 -0.1092 -0.2120
  302MOL0     C40658   9.751   5.249  10.432 -0.9085  0.0654 -0.3840
  302MOL0     O40659   9.850   5.200  10.526  0.0684  0.2661 -0.1458
  302MOL0     C40660   9.983   5.199  10.490 -0.0153  0.3876 -0.2627
  302MOL0     C40661  10.068   5.149  10.587  0.6790 -0.1181 -0.4945
  302MOL0     C40662  10.207   5.130  10.576  0.0318 -0.7857  0.2909
  302MOL0     C40663  10.274   5.175  10.463  0.9517  0.6378  0.8122
  302MOL0     C40664  10.422   5.190  10.461 -0.6543 -0.2327  0.3246
  302MOL0     O40665  10.494   5.125  10.558 -0.1955  0.4553 -0.8175
  302MOL0     C40666  10.635   5.127  10.574  0.6076  0.3990 -0.5170
  302MOL0     C40667  10.728   5.161  10.479  0.5696  0.7952  0.9169
  302MOL0     C40668  10.865   5.142  10.512 -0.2076 -0.0560 -0.1720
  302MOL0     C40669  10.914   5.097  10.633  0.4278  0.2206 -1.4811
  302MOL0     O40670  11.043   5.097  10.674  0.0667  0.4662  0.8524
  302MOL0     C40671  11.141   5.070  10.564  0.4186 -0.1301 -0.2240
  302MOL0     C40672  11.282   5.098  10.617 -1.1863 -0.6837 -0.0017
  302MOL0     C40673  11.294   5.229  10.684  0.9531  0.7019  0.2983
  302MOL0     C40674  11.440   5.244  10.736  0.3841 -0.2831  0.1049
  302MOL0     C40675  11.453   5.379  10.805  0.0290 -0.1609 -0.0430
  302MOL0     C40676  11.592   5.414  10.846  0.5966 -0.4646  0.1873
  302MOL0     C40677  11.603   5.559  10.892 -0.3071  0.4780 -0.0279
  302MOL0     C40678  11.648   5.656  10.780  0.0488 -0.1082  0.4027
  302MOL0    Cl40679  11.681   5.813  10.834 -0.1435 -0.5110 -0.7665
  302MOL0     C40680  10.814   5.058  10.725 -1.1178 -0.9318  0.4900
  302MOL0     C40681  10.683   5.077  10.693  0.3873 -0.5235 -0.5466
  302MOL0     O40682  10.474   5.264  10.376  0.2092 -0.0463  0.7578
  302MOL0     C40683  10.189   5.220  10.357  0.2074 -0.3280  0.3290
  302MOL0     C40684  10.046   5.238  10.366  0.1571  0.5608 -0.5448
  302MOL0     N40685   9.306   5.264  10.584  0.0135  0.2536 -0.2648
  302MOL0     N40686   9.239   5.365  10.616  0.6304 -0.5058 -0.1584
  302MOL0     C40687   8.027   5.708  10.760 -0.2496  0.3041  0.4809
  302MOL0     C40688   7.890   5.740  10.746  0.0788  0.0632  0.2535
  302MOL0     C40689   7.562   5.783  10.424 -0.5992 -0.5552  0.6150
  302MOL0     C40690   7.543   5.683  10.324 -0.1196 -0.5775 -0.3466
  302MOL0     C40691   7.417   5.672  10.267 -1.4046  0.0770  0.4886
  302MOL0     C40692   7.310   5.752  10.305  0.2971 -0.6909  0.2562
  302MOL0     O40693   7.192   5.727  10.241 -0.0726  0.3756 -0.3676
  302MOL0     C40694   7.079   5.786  10.298 -0.0159  0.3858 -0.1284
  302MOL0     C40695   6.952   5.710  10.266 -0.2438 -0.2078 -0.5050
  302MOL0     C40696   6.834   5.807  10.279 -0.0021 -0.5455 -0.0068
  302MOL0     C40697   6.704   5.734  10.242 -0.5669 -0.1275  0.2571
  302MOL0     C40698   6.585   5.801  10.300 -0.6092  0.7595  0.2006
  302MOL0     C40699   6.493   5.847  10.362 -0.3537 -0.5836  1.2968
  302MOL0     C40700   7.330   5.850  10.399 -0.5304  0.0237 -0.2920
  302MOL0     C40701   7.458   5.868  10.457  0.0798 -0.2397  0.0598
  302MOL0     C40702   7.469   5.994  10.551  0.8269 -0.0585  0.1102
  302MOL0     H40703   7.895   6.016  10.561 -1.3211  0.1918  2.2970
  302MOL0     H40704   8.144   5.975  10.583 -0.9672 -0.4465 -2.2520
  302MOL0     H40705   8.269   5.598  10.817 -1.0516 -2.6390  0.0954
  302MOL0     H40706   8.240   5.561  10.640  0.0029  0.3695  0.6597
  302MOL0     H40707   8.479   5.501  10.711 -0.9918 -1.0956 -0.0914
  302MOL0     H40708   8.505   5.676  10.732  0.7469 -0.9093  1.3200
  302MOL0     H40709   8.409   5.694  10.482 -1.7449 -1.2342  1.0060
  302MOL0     H40710   8.435   5.522  10.479 -2.6555  0.9187  0.7133
  302MOL0     H40711   8.636   5.660  10.379  1.1084 -0.1741 -1.0937
  302MOL0     H40712   8.653   5.745  10.524 -0.9682 -0.2618  1.8706
  302MOL0     H40713   8.712   5.522  10.639 -0.5436 -0.5063 -0.2740
  302MOL0     H40714   8.709   5.442  10.483  2.8047  0.1057 -1.7280
  302MOL0     H40715   8.857   5.633  10.386 -3.4502 -3.2922 -0.8258
  302MOL0     H40716   8.897   5.654  10.561  0.4249 -0.4498  0.7821
  302MOL0     H40717   8.946   5.417  10.396 -1.1231  1.6134 -0.4716
  302MOL0     H40718   8.939   5.398  10.573 -3.8700  1.3491 -0.0717
  302MOL0     H40719   9.112   5.578  10.394 -1.5503  1.0611 -0.7929
  302MOL0     H40720   9.115   5.600  10.566 -0.0417  1.3461 -1.5141
  302MOL0     H40721   9.208   5.360  10.291  4.9384  1.1689 -0.4313
  302MOL0     H40722   9.393   5.056  10.435 -0.3890  0.3682  0.5414
  302MOL0     H40723   9.332   5.126  10.278 -1.1094  1.7136 -0.2914
  302MOL0     H40724   9.561   5.158  10.257  0.3668 -0.5178  1.8957
  302MOL0     H40725   9.498   5.312  10.313 -1.6238 -1.4387 -4.9863
  302MOL0     H40726   9.641   5.082  10.484 -0.4151  0.1289  0.9513
  302MOL0     H40727   9.559   5.234  10.540 -2.4869 -1.3761 -0.7706
  302MOL0     H40728   9.743   5.358  10.442 -2.0932  0.2135 -2.3780
  302MOL0     H40729   9.782   5.220  10.332 -2.4136 -0.8535 -0.6222
  302MOL0     H40730  10.018   5.115  10.677  0.0707 -1.3546 -1.2815
  302MOL0     H40731  10.273   5.100  10.657  1.3029 -1.9038 -1.1068
  302MOL0     H40732  10.698   5.181  10.377  1.6279  5.7981  1.3471
  302MOL0     H40733  10.939   5.171  10.439  0.3109  1.8458  1.0313
  302MOL0     H40734  11.129   4.962  10.555  0.9675 -0.1911 -0.2695
  302MOL0     H40735  11.134   5.121  10.468 -0.2996 -1.2107 -0.7569
  302MOL0     H40736  11.312   5.017  10.684  0.0574  0.2715  0.6311
  302MOL0     H40737  11.356   5.092  10.536 -1.7271 -1.8154 -0.4341
  302MOL0     H40738  11.254   5.310  10.621 -0.7524  0.1935  0.6549
  302MOL0     H40739  11.229   5.234  10.772  0.0437  2.4591 -0.4004
  302MOL0     H40740  11.504   5.235  10.649 -1.1431 -4.8951 -0.8247
  302MOL0     H40741  11.469   5.163  10.804  2.9845  1.2144  0.9089
  302MOL0     H40742  11.385   5.387  10.890 -0.9081  0.4771 -0.8234
  302MOL0     H40743  11.427   5.454  10.730  0.2604 -0.6775 -0.6569
  302MOL0     H40744  11.637   5.345  10.918  1.8356  0.9206  0.7927
  302MOL0     H40745  11.663   5.405  10.763  2.0813  1.1092  1.2110
  302MOL0     H40746  11.679   5.555  10.971  2.4142 -1.8447 -2.4758
  302MOL0     H40747  11.512   5.590  10.943  0.6943 -0.3069  2.3627
  302MOL0     H40748  11.738   5.619  10.730  0.2574 -1.3566  1.6354
  302MOL0     H40749  11.566   5.665  10.707  0.3948 -1.2456 -0.1524
  302MOL0     H40750  10.845   5.024  10.823  1.6821  0.7045  0.2911
  302MOL0     H40751  10.613   5.048  10.771  0.3106  1.1465  0.0365
  302MOL0     H40752  10.233   5.259  10.265 -0.1340 -3.0266 -1.0845
  302MOL0     H40753   9.993   5.285  10.284 -0.1156  0.0319 -0.6767
  302MOL0     H40754   8.046   5.616  10.814 -1.6229  0.4499  1.2549
  302MOL0     H40755   7.811   5.679  10.789 -2.9543  2.1166 -1.9484
  302MOL0     H40756   7.627   5.618  10.300 -0.2514 -0.8918  0.0325
  302MOL0     H40757   7.393   5.590  10.200 -1.8504 -0.2532  1.0449
  302MOL0     H40758   7.082   5.890  10.264 -1.9570  0.4126 -0.3326
  302MOL0     H40759   7.079   5.784  10.407 -1.6955  0.7251 -0.0973
  302MOL0     H40760   6.930   5.637  10.344  3.7697  0.2462  1.3085
  302MOL0     H40761   6.969   5.670  10.166  3.1323  0.0919 -0.1518
  302MOL0     H40762   6.841   5.886  10.204  1.7337 -1.8711 -1.3364
  302MOL0     H40763   6.828   5.850  10.379  2.8363 -1.5672  0.7078
  302MOL0     H40764   6.696   5.728  10.133  1.5357  1.6974 -0.0811
  302MOL0     H40765   6.706   5.638  10.294 -1.9107 -0.2144  0.1679
  302MOL0     H40766   6.414   5.893  10.417 -1.8769 -0.3913 -0.9063
  302MOL0     H40767   7.264   5.936  10.414  2.3352  2.2610  0.4110
  302MOL0     H40768   7.409   6.081  10.522  4.1639  2.4501  0.1317
  302MOL0     H40769   7.443   5.956  10.651 -2.1164  0.0779 -0.5116
  302MOL0     H40770   7.571   6.034  10.549  0.4962  0.8243 -2.1001
  303MOL0     O40771  11.214   4.350   0.912 -0.0411 -0.6288  0.0310
  303MOL0     C40772  11.200   4.347   1.034 -0.2478  0.9099  0.6505
  303MOL0     O40773  11.098   4.292   1.102 -0.2491 -0.5820  0.5028
  303MOL0     C40774  11.008   4.233   1.021  0.3191 -1.0025  0.8968
  303MOL0     C40775  10.879   4.292   0.989 -0.9914  0.0016  0.4414
  303MOL0     C40776  10.780   4.216   0.918  0.8357 -0.5803 -0.0143
  303MOL0     C40777  10.805   4.089   0.873 -0.5233  0.0654 -1.1029
  303MOL0     O40778  10.716   4.005   0.815 -0.0626 -0.2572  0.2097
  303MOL0     C40779  10.744   3.955   0.683  0.9308  0.4297 -0.3089
  303MOL0     C40780  10.773   3.804   0.676 -0.7236  0.2471  0.2538
  303MOL0     C40781  10.814   3.767   0.537 -0.9446  0.8410 -0.0990
  303MOL0     C40782  10.868   3.623   0.547  0.0364 -0.1345 -0.2524
  303MOL0     C40783  10.897   3.558   0.409  0.2163 -0.8653  0.3839
  303MOL0     C40784  11.000   3.442   0.416  0.6327  0.1417 -0.3607
  303MOL0     C40785  10.946   3.319   0.491 -0.4775 -0.6940  0.1771
  303MOL0     C40786  11.026   3.184   0.484 -0.1359 -0.9985  0.4651
  303MOL0     N40787  11.168   3.206   0.473 -0.0565 -0.6680 -0.0391
  303MOL0     C40788  11.245   3.279   0.559 -1.0253  0.4647  0.0732
  303MOL0     C40789  11.363   3.304   0.494 -0.7347  0.0824 -0.3599
  303MOL0     C40790  11.482   3.365   0.564 -0.5321  0.0950  0.3094
  303MOL0     C40791  11.605   3.295   0.509  0.2766 -0.0042 -0.5542
  303MOL0     C40792  11.734   3.314   0.580 -0.9101 -0.4462  0.0580
  303MOL0     C40793  11.836   3.199   0.554  0.4898  0.3073  0.3415
  303MOL0     O40794  11.948   3.214   0.644  0.4887 -0.0199 -1.1329
  303MOL0     C40795  12.061   3.139   0.627 -0.2905  0.4662  0.1833
  303MOL0     C40796  12.086   3.042   0.522  0.5406  0.3165 -0.8368
  303MOL0     C40797  12.211   2.973   0.525  0.1450  0.6707 -0.3013
  303MOL0     C40798  12.312   2.999   0.625  0.0026 -0.6180  0.0083
  303MOL0     C40799  12.436   2.930   0.634 -0.7836 -0.1244  0.1836
  303MOL0     O40800  12.449   2.832   0.541 -0.3885  0.2096 -0.1227
  303MOL0     C40801  12.552   2.745   0.538 -0.0450  0.9452  0.8034
  303MOL0     C40802  12.577   2.688   0.415 -0.6669  0.0488  0.5917
  303MOL0     C40803  12.666   2.577   0.398 -0.3868 -0.1083 -0.2145
  303MOL0     C40804  12.739   2.539   0.506 -0.2568 -0.0027  0.5397
  303MOL0     O40805  12.835   2.446   0.510 -1.4072 -0.1371  0.0719
  303MOL0     C40806  12.829   2.342   0.414  0.2906  0.1361 -0.2102
  303MOL0     C40807  12.932   2.226   0.423  0.3001  0.1217  0.3202
  303MOL0     C40808  12.952   2.166   0.569  0.2056  0.2443 -0.3615
  303MOL0     C40809  13.032   2.036   0.573 -0.5021 -0.9803 -0.1710
  303MOL0     C40810  12.935   1.926   0.537  0.0946 -1.1090 -0.1042
  303MOL0     C40811  13.008   1.788   0.520  0.7089 -0.5971 -0.2828
  303MOL0     C40812  12.902   1.682   0.498  0.1441  0.6634 -0.1203
  303MOL0     C40813  12.959   1.536   0.489 -0.6239  0.4551  0.2442
  303MOL0    Cl40814  13.098   1.516   0.376 -0.0498  0.0071 -0.4325
  303MOL0     C40815  12.724   2.598   0.628 -0.3401 -0.9138 -0.6341
  303MOL0     C40816  12.629   2.701   0.644 -0.4281  0.8060 -1.0431
  303MOL0     O40817  12.514   2.955   0.726  0.4704  0.4229  0.3146
  303MOL0     C40818  12.284   3.095   0.720 -0.2825  0.2205 -0.0101
  303MOL0     C40819  12.163   3.162   0.720  0.1611  0.0202 -0.0531
  303MOL0     N40820  11.359   3.245   0.366 -0.3487 -0.3811  0.0262
  303MOL0     N40821  11.234   3.188   0.355  0.5738 -0.3123  0.0326
  303MOL0     C40822  10.928   4.028   0.914 -0.2522  0.5340 -0.6799
  303MOL0     C40823  11.024   4.103   0.984  0.0397  0.2266  0.0314
  303MOL0     C40824  11.294   4.427   1.111  1.1490 -0.4341  1.3898
  303MOL0     C40825  11.420   4.382   1.112  0.3138  0.3278 -0.0135
  303MOL0     C40826  11.514   4.420   1.205  0.9528 -0.5442 -0.0003
  303MOL0     C40827  11.481   4.518   1.303 -0.1256  0.5237  0.0028
  303MOL0     O40828  11.576   4.541   1.388 -0.2875 -0.4095 -0.1873
  303MOL0     C40829  11.558   4.626   1.502 -0.5284 -0.6219  0.4173
  303MOL0     C40830  11.673   4.576   1.597 -0.0385  0.1480  0.0448
  303MOL0     C40831  11.815   4.582   1.525 -0.3863 -0.0791  0.6709
  303MOL0     C40832  11.931   4.546   1.624  0.1330  0.9267 -0.0550
  303MOL0     C40833  12.051   4.522   1.537  0.2224  0.7976  0.3119
  303MOL0     C40834  12.154   4.516   1.467  0.8144 -0.0178  0.3719
  303MOL0     C40835  11.355   4.581   1.293  0.3790 -0.5487  0.7022
  303MOL0     C40836  11.261   4.531   1.205 -0.3653 -0.6032 -0.4208
  303MOL0     C40837  11.124   4.588   1.203  0.1132  0.1122  0.7473
  303MOL0     H40838  10.864   4.396   1.016 -2.0449 -0.2006  0.6887
  303MOL0     H40839  10.691   4.266   0.880 -1.0302 -2.1780  2.0140
  303MOL0     H40840  10.654   3.966   0.621  0.1365 -0.5446  0.6452
  303MOL0     H40841  10.827   4.003   0.629  0.6918  1.0263 -0.1576
  303MOL0     H40842  10.686   3.749   0.714 -0.2352 -0.5146  0.2909
  303MOL0     H40843  10.853   3.790   0.750 -1.6145  2.9733  1.9396
  303MOL0     H40844  10.887   3.842   0.502 -1.7345  2.2047  1.0787
  303MOL0     H40845  10.740   3.773   0.457 -0.4888 -0.7163 -0.6690
  303MOL0     H40846  10.960   3.621   0.607 -0.0989  3.3362  0.2457
  303MOL0     H40847  10.795   3.566   0.605  0.7577 -0.9027 -0.0725
  303MOL0     H40848  10.811   3.528   0.348  0.4553 -0.3949 -0.1898
  303MOL0     H40849  10.955   3.635   0.357  2.4468 -0.8967  2.6115
  303MOL0     H40850  11.025   3.405   0.316  0.3552  2.6978 -1.4590
  303MOL0     H40851  11.095   3.472   0.461  2.0724 -2.8174 -1.1483
  303MOL0     H40852  10.839   3.312   0.471 -0.5816 -0.1182  0.5130
  303MOL0     H40853  10.956   3.357   0.593  0.4888 -0.6368  0.0703
  303MOL0     H40854  11.015   3.119   0.571 -1.0697 -0.1001  1.0391
  303MOL0     H40855  10.986   3.136   0.394 -0.4508 -0.9076  0.5568
  303MOL0     H40856  11.211   3.327   0.650 -0.1373  0.9140  0.1850
  303MOL0     H40857  11.478   3.473   0.548 -1.6297 -0.4207 -4.4965
  303MOL0     H40858  11.460   3.341   0.668 -2.3001  0.8213  0.1494
  303MOL0     H40859  11.574   3.191   0.496  2.0082 -0.3297 -2.6489
  303MOL0     H40860  11.617   3.327   0.405 -0.0239 -1.3218 -1.0098
  303MOL0     H40861  11.699   3.318   0.684  0.5718  2.2975  0.5597
  303MOL0     H40862  11.787   3.407   0.558 -2.6426  0.7435  0.6606
  303MOL0     H40863  11.869   3.203   0.450 -0.4465  1.3827  0.0609
  303MOL0     H40864  11.777   3.108   0.572 -2.0346  1.7083 -0.3078
  303MOL0     H40865  12.014   3.031   0.442 -0.3865 -2.5184  0.2690
  303MOL0     H40866  12.230   2.904   0.443  2.3018 -0.3468  0.9532
  303MOL0     H40867  12.518   2.719   0.330 -1.8281  0.7510  1.6256
  303MOL0     H40868  12.667   2.534   0.298 -3.0506 -0.6995 -0.0767
  303MOL0     H40869  12.727   2.303   0.418  0.3210  0.0696 -0.0604
  303MOL0     H40870  12.834   2.382   0.313 -1.3649 -1.5803 -1.0433
  303MOL0     H40871  12.892   2.148   0.359 -2.3317  0.4969  1.3666
  303MOL0     H40872  13.031   2.257   0.391  2.6469 -2.6528  4.0213
  303MOL0     H40873  13.000   2.250   0.620 -3.6995  2.0092  0.8114
  303MOL0     H40874  12.858   2.155   0.623 -0.7597  1.2083 -1.7712
  303MOL0     H40875  13.052   2.022   0.680 -2.1455 -0.2513  0.2724
  303MOL0     H40876  13.129   2.041   0.523 -0.2844 -2.6512  0.0219
  303MOL0     H40877  12.898   1.942   0.435 -0.5486  3.1581  0.6311
  303MOL0     H40878  12.860   1.919   0.615 -0.5701  0.9163 -0.5149
  303MOL0     H40879  13.086   1.791   0.444  0.4388  2.2892 -0.5666
  303MOL0     H40880  13.064   1.769   0.613  0.5864 -1.0491 -0.2992
  303MOL0     H40881  12.843   1.698   0.408 -1.4097  2.2279  1.1203
  303MOL0     H40882  12.841   1.678   0.589 -1.0198 -1.9608 -0.9223
  303MOL0     H40883  12.983   1.486   0.583  1.5080 -1.3838 -1.1777
  303MOL0     H40884  12.885   1.468   0.447  0.3033 -1.2620  1.3146
  303MOL0     H40885  12.786   2.560   0.708  0.9490  1.3488 -0.4618
  303MOL0     H40886  12.609   2.728   0.747 -0.1980 -2.1146 -0.1477
  303MOL0     H40887  12.361   3.127   0.790  0.7461  0.1445 -1.0611
  303MOL0     H40888  12.147   3.239   0.794  0.4954  3.1010 -2.9363
  303MOL0     H40889  10.945   3.921   0.901  1.5559  0.6321  0.4907
  303MOL0     H40890  11.116   4.065   1.028 -0.9653 -0.5654  1.5551
  303MOL0     H40891  11.450   4.310   1.037 -1.1884 -2.5891  1.9957
  303MOL0     H40892  11.610   4.369   1.210  0.3245 -1.7545  0.1729
  303MOL0     H40893  11.466   4.601   1.556 -1.2803  0.5158 -0.3043
  303MOL0     H40894  11.558   4.733   1.478 -2.1758 -0.8016 -0.5504
  303MOL0     H40895  11.652   4.475   1.634 -2.5612 -0.1595 -1.8970
  303MOL0     H40896  11.671   4.645   1.681 -1.8935 -1.6725  1.6040
  303MOL0     H40897  11.842   4.672   1.468 -0.7449  0.0004  0.6232
  303MOL0     H40898  11.815   4.495   1.458  5.5005 -2.5925  3.2070
  303MOL0     H40899  11.956   4.623   1.697 -1.1404  1.3091 -0.0088
  303MOL0     H40900  11.899   4.459   1.682 -2.0554  1.7560  0.0529
  303MOL0     H40901  12.229   4.497   1.393 -0.3656 -0.3137 -0.7978
  303MOL0     H40902  11.326   4.662   1.359 -0.1927 -1.1214  1.1623
  303MOL0     H40903  11.054   4.510   1.175  0.5062 -0.3237  0.9709
  303MOL0     H40904  11.086   4.621   1.300 -0.8738 -2.1619  1.1973
  303MOL0     H40905  11.117   4.676   1.138 -1.4602 -1.0800 -0.7654
  304MOL0     O40906   9.875   3.084   9.396  0.3247 -0.3202  0.0606
  304MOL0     C40907   9.949   3.161   9.453 -0.4328 -0.2114  0.6267
  304MOL0     O40908  10.085   3.156   9.443  1.6422  0.2990 -0.7318
  304MOL0     C40909  10.127   3.053   9.360  0.1296 -0.1937  0.1539
  304MOL0     C40910  10.152   2.928   9.420  0.9405 -0.9373  0.2217
  304MOL0     C40911  10.194   2.821   9.336 -0.7107 -0.3167 -0.7694
  304MOL0     C40912  10.243   2.847   9.205 -0.5749  0.5381 -0.2682
  304MOL0     O40913  10.297   2.752   9.119  0.3049 -0.5368 -0.2231
  304MOL0     C40914  10.389   2.661   9.177 -0.4848 -0.0328  0.1245
  304MOL0     C40915  10.427   2.564   9.060  0.3927  0.0883 -0.9089
  304MOL0     C40916  10.513   2.453   9.116  0.2349  0.2419  0.1312
  304MOL0     C40917  10.536   2.357   8.998  0.0292 -0.2625 -0.7399
  304MOL0     C40918  10.628   2.414   8.887 -0.3734  0.2467  0.1730
  304MOL0     C40919  10.776   2.411   8.919  0.6175 -0.0210  0.2162
  304MOL0     C40920  10.869   2.494   8.839  0.6666 -0.4240 -0.3284
  304MOL0     C40921  10.892   2.438   8.695 -0.5600  0.5291 -0.0738
  304MOL0     N40922  10.969   2.538   8.616 -0.4488 -0.6430  0.3563
  304MOL0     C40923  11.030   2.661   8.658 -0.0411  0.1863  0.3731
  304MOL0     C40924  11.033   2.733   8.544  0.5740 -0.0648 -0.4350
  304MOL0     C40925  11.074   2.871   8.533  0.4678 -0.2717  0.0206
  304MOL0     C40926  11.213   2.894   8.464 -0.5227 -0.4288 -0.9366
  304MOL0     C40927  11.246   3.046   8.466 -0.3815 -0.1318  0.2194
  304MOL0     C40928  11.392   3.065   8.434  1.1309  0.4253  0.3437
  304MOL0     O40929  11.416   3.208   8.424 -0.0200  0.2190 -0.4382
  304MOL0     C40930  11.537   3.246   8.383 -0.2253  0.1298  0.2351
  304MOL0     C40931  11.647   3.155   8.378  0.0920 -0.3774  0.3642
  304MOL0     C40932  11.775   3.203   8.368  0.2186 -0.0748  0.3493
  304MOL0     C40933  11.804   3.337   8.352 -0.3507  0.4470  0.3791
  304MOL0     C40934  11.942   3.384   8.342 -0.6116 -0.3317 -0.9907
  304MOL0     O40935  12.045   3.301   8.358  0.3838  0.2903 -1.0294
  304MOL0     C40936  12.170   3.343   8.325  0.5808  0.4208  1.4497
  304MOL0     C40937  12.224   3.448   8.399 -0.3027  0.8219  0.6337
  304MOL0     C40938  12.347   3.500   8.367 -0.6642  0.3050  0.1328
  304MOL0     C40939  12.423   3.433   8.266 -0.2978 -0.5067  0.1936
  304MOL0     O40940  12.536   3.497   8.226 -0.4114  1.0474  0.9081
  304MOL0     C40941  12.654   3.418   8.212 -0.2550  0.4191  1.4871
  304MOL0     C40942  12.757   3.499   8.282  0.4660  0.1545 -0.4395
  304MOL0     C40943  12.726   3.515   8.434 -0.2070 -0.7019  0.4224
  304MOL0     C40944  12.859   3.560   8.498 -0.2861 -0.0191 -0.3467
  304MOL0     C40945  12.884   3.483   8.623 -0.1364 -0.6025 -0.2747
  304MOL0     C40946  12.968   3.352   8.623  0.3817  0.5839  0.1669
  304MOL0     C40947  13.011   3.315   8.769 -0.2726  0.4302  1.1825
  304MOL0     C40948  13.068   3.167   8.755  1.4451 -0.1739 -0.1277
  304MOL0    Cl40949  13.197   3.152   8.624  0.3458  0.1148  0.4431
  304MOL0     C40950  12.373   3.313   8.205  0.2112  0.0994  0.0791
  304MOL0     C40951  12.243   3.270   8.244 -1.2430  0.6696  1.0446
  304MOL0     O40952  11.960   3.501   8.299 -0.3239 -0.2331 -0.1033
  304MOL0     C40953  11.703   3.424   8.352  0.1265 -0.8530  0.4529
  304MOL0     C40954  11.571   3.381   8.367  0.0849  0.5497  0.1567
  304MOL0     N40955  10.979   2.663   8.440  0.7256  0.1080  0.2764
  304MOL0     N40956  10.956   2.549   8.483  0.0684  0.6441 -0.5798
  304MOL0     C40957  10.222   2.978   9.155  0.3920  0.6772 -0.8945
  304MOL0     C40958  10.166   3.079   9.231  0.3981 -0.1022  0.3529
  304MOL0     C40959   9.901   3.277   9.540  0.3704  0.6399  0.3383
  304MOL0     C40960   9.993   3.365   9.596 -0.7009 -0.1981  0.4225
  304MOL0     C40961   9.950   3.474   9.671 -0.1575 -0.5968 -0.0044
  304MOL0     C40962   9.811   3.504   9.685 -1.0258  0.1558  0.3894
  304MOL0     O40963   9.751   3.607   9.743  0.3672  0.3272  0.1301
  304MOL0     C40964   9.835   3.709   9.801 -0.9336  0.4321 -0.0720
  304MOL0     C40965   9.742   3.828   9.809 -0.0878 -0.4711  0.6893
  304MOL0     C40966   9.691   3.846   9.950 -0.3889  0.6906 -0.5927
  304MOL0     C40967   9.556   3.907   9.958 -0.5000 -0.2076  0.4237
  304MOL0     C40968   9.529   3.945  10.095 -0.1645 -0.7471 -0.4331
  304MOL0     C40969   9.513   3.972  10.212  0.1308 -0.2013  0.2721
  304MOL0     C40970   9.718   3.417   9.629  0.7199 -0.3105 -1.1151
  304MOL0     C40971   9.760   3.303   9.560  0.2448  0.4906 -0.6579
  304MOL0     C40972   9.653   3.219   9.499  0.5062  0.8597 -0.1824
  304MOL0     H40973  10.129   2.914   9.525  1.0232 -0.7241  0.2684
  304MOL0     H40974  10.197   2.719   9.373  2.1219 -0.1687 -0.3423
  304MOL0     H40975  10.475   2.708   9.227 -0.5628  0.6735 -0.3905
  304MOL0     H40976  10.333   2.604   9.252 -2.7754  0.0562 -1.4261
  304MOL0     H40977  10.471   2.617   8.975  1.3729  1.6183  0.5056
  304MOL0     H40978  10.335   2.514   9.027  2.1225 -2.0375 -2.8685
  304MOL0     H40979  10.461   2.414   9.204 -2.6099  3.4923  0.1044
  304MOL0     H40980  10.615   2.478   9.146  0.1402 -0.1706  0.8220
  304MOL0     H40981  10.582   2.268   9.043  1.0907  0.6049 -0.0675
  304MOL0     H40982  10.439   2.330   8.956 -0.9657  0.4634  0.9652
  304MOL0     H40983  10.613   2.345   8.803  0.0223  0.9218 -0.4670
  304MOL0     H40984  10.584   2.506   8.848 -2.9293 -1.5768 -1.6032
  304MOL0     H40985  10.777   2.442   9.024 -0.2067 -0.0823  0.2521
  304MOL0     H40986  10.814   2.308   8.918 -1.0957 -0.7031  0.6205
  304MOL0     H40987  10.966   2.496   8.889 -0.1121  0.4029  1.2219
  304MOL0     H40988  10.836   2.599   8.834  1.0819 -0.0559  2.6653
  304MOL0     H40989  10.956   2.349   8.689 -1.4002 -0.1827  1.0801
  304MOL0     H40990  10.795   2.419   8.648 -0.1052 -1.2132 -0.3598
  304MOL0     H40991  11.057   2.689   8.759  0.2101  1.7108 -0.0909
  304MOL0     H40992  10.987   2.931   8.504  0.9595 -0.1400 -1.2611
  304MOL0     H40993  11.092   2.909   8.634 -0.0990 -2.0587  0.8283
  304MOL0     H40994  11.271   2.827   8.528 -4.1064 -2.7977  0.1523
  304MOL0     H40995  11.222   2.854   8.362  0.3352 -1.0275 -0.6432
  304MOL0     H40996  11.228   3.097   8.561 -1.7010  2.9538 -1.5450
  304MOL0     H40997  11.183   3.104   8.399  1.5719  2.9074  0.8443
  304MOL0     H40998  11.429   3.010   8.347  0.0658 -0.9855  0.7540
  304MOL0     H40999  11.436   3.031   8.528  1.6470  0.0125 -0.0471
  304MOL0     H41000  11.636   3.050   8.403 -1.5751 -0.1005  0.8987
  304MOL0     H41001  11.858   3.138   8.392 -0.8431 -1.6166 -0.0214
  304MOL0     H41002  12.169   3.501   8.475  0.3304  0.8798  1.0628
  304MOL0     H41003  12.384   3.590   8.414  0.2192 -0.5695  1.1514
  304MOL0     H41004  12.648   3.324   8.268 -2.4739  1.1139  2.5021
  304MOL0     H41005  12.680   3.402   8.107  1.6396 -0.8841  2.1049
  304MOL0     H41006  12.848   3.439   8.273  1.4089  1.4424  0.2249
  304MOL0     H41007  12.775   3.589   8.222  0.6977  0.0936 -0.4592
  304MOL0     H41008  12.654   3.594   8.458  1.3104  0.5438  1.0371
  304MOL0     H41009  12.688   3.420   8.471 -1.5221 -0.3507  0.0222
  304MOL0     H41010  12.837   3.661   8.534 -2.4860 -1.5307  3.1418
  304MOL0     H41011  12.944   3.555   8.430 -0.1868 -2.1140 -0.1240
  304MOL0     H41012  12.789   3.462   8.672 -1.5171  0.9101 -2.1705
  304MOL0     H41013  12.945   3.553   8.682  0.7050 -1.5634  0.0284
  304MOL0     H41014  12.917   3.274   8.567 -0.7896 -0.2003  2.2141
  304MOL0     H41015  13.055   3.371   8.559  1.4421 -0.2956  1.2802
  304MOL0     H41016  12.928   3.311   8.840  0.8909 -0.0144  2.5456
  304MOL0     H41017  13.091   3.383   8.799  2.4162 -2.6491  1.4871
  304MOL0     H41018  13.107   3.126   8.849 -0.7472 -3.3872 -0.4703
  304MOL0     H41019  12.979   3.109   8.729  1.1825  0.3366 -0.3791
  304MOL0     H41020  12.435   3.263   8.132  1.0451  0.5424  0.4718
  304MOL0     H41021  12.205   3.180   8.196 -3.1333  0.7570  2.2822
  304MOL0     H41022  11.719   3.532   8.348 -2.6483 -0.0538  4.6085
  304MOL0     H41023  11.488   3.451   8.370 -0.9469 -0.6326  2.8952
  304MOL0     H41024  10.268   3.010   9.062  2.3949  1.6662  0.3891
  304MOL0     H41025  10.143   3.177   9.190 -2.4949 -1.4389 -1.5968
  304MOL0     H41026  10.094   3.338   9.566 -0.5542  2.3251 -1.7543
  304MOL0     H41027  10.025   3.531   9.725 -0.9707 -0.2931  0.8410
  304MOL0     H41028   9.926   3.729   9.744 -1.5394  1.2546 -0.7793
  304MOL0     H41029   9.871   3.677   9.900  0.5213 -3.5225 -1.6608
  304MOL0     H41030   9.663   3.823   9.733  1.4629  0.2108 -1.0590
  304MOL0     H41031   9.800   3.914   9.775 -0.4411 -0.2241  0.7149
  304MOL0     H41032   9.766   3.906  10.004 -0.5736 -0.1760  0.6638
  304MOL0     H41033   9.689   3.753  10.008 -1.2339  1.4193  0.5977
  304MOL0     H41034   9.555   4.000   9.901 -1.1090 -0.7623 -0.5061
  304MOL0     H41035   9.481   3.841   9.913 -0.5853  0.3546 -0.2738
  304MOL0     H41036   9.484   3.978  10.315 -3.0102  0.4103 -0.5172
  304MOL0     H41037   9.613   3.439   9.647  0.5904 -1.2116 -0.7349
  304MOL0     H41038   9.662   3.114   9.530  0.9084  0.6571 -0.9524
  304MOL0     H41039   9.558   3.260   9.535 -0.8977  0.1522 -2.8763
  304MOL0     H41040   9.646   3.219   9.390 -1.9408 -0.7537 -0.0999
  305MOL0     O41041  10.190   3.413  11.225  0.4765  0.8026  0.1960
  305MOL0     C41042  10.125   3.310  11.240  0.8354 -0.0264 -0.2085
  305MOL0     O41043  10.045   3.255  11.152  0.0156  0.3491  0.3152
  305MOL0     C41044  10.050   3.296  11.023 -0.2442 -0.8809  0.1696
  305MOL0     C41045   9.966   3.397  10.985  1.4288  0.3854 -0.1846
  305MOL0     C41046   9.974   3.452  10.851 -0.0957  0.0915 -0.0366
  305MOL0     C41047  10.068   3.396  10.765  0.0707  0.5629 -0.0239
  305MOL0     O41048  10.070   3.455  10.641 -0.8815  0.2994  0.2817
  305MOL0     C41049  10.096   3.599  10.637 -0.5894  0.2607 -0.6681
  305MOL0     C41050  10.183   3.633  10.521  0.8593  0.2817  0.1111
  305MOL0     C41051  10.320   3.577  10.548 -0.0200  0.3691 -0.2031
  305MOL0     C41052  10.404   3.578  10.419  0.5024  0.8454 -0.0327
  305MOL0     C41053  10.555   3.550  10.433  0.3157 -0.0433  0.8412
  305MOL0     C41054  10.630   3.611  10.310 -0.6302 -0.3800 -0.4580
  305MOL0     C41055  10.787   3.602  10.314 -0.7813 -0.8939  0.4837
  305MOL0     C41056  10.858   3.688  10.418  0.2926  0.0656  0.3431
  305MOL0     N41057  11.005   3.681  10.414  0.5389 -0.6686  0.3725
  305MOL0     C41058  11.075   3.565  10.397 -0.6190 -0.4113  0.7337
  305MOL0     C41059  11.197   3.612  10.434  0.4010 -0.2544  0.3437
  305MOL0     C41060  11.313   3.522  10.455 -0.4997 -0.1639 -0.0771
  305MOL0     C41061  11.278   3.433  10.579 -0.2532 -0.3454  0.9848
  305MOL0     C41062  11.386   3.313  10.606  0.3229  0.5613  0.2084
  305MOL0     C41063  11.536   3.363  10.618  0.6892  0.1402  0.5136
  305MOL0     O41064  11.615   3.271  10.686  0.3211 -0.2265  0.0144
  305MOL0     C41065  11.750   3.304  10.702 -0.4982 -0.3560  0.2086
  305MOL0     C41066  11.824   3.204  10.770 -0.0270 -0.4654  0.4819
  305MOL0     C41067  11.954   3.231  10.813  0.1801  0.2427 -0.0668
  305MOL0     C41068  12.016   3.353  10.801 -0.5232  0.6444 -0.7454
  305MOL0     C41069  12.160   3.374  10.848 -0.4757 -0.1144 -0.5238
  305MOL0     O41070  12.205   3.268  10.932 -0.4322 -0.0796  0.0426
  305MOL0     C41071  12.330   3.295  10.995  0.2342  0.1088 -0.3412
  305MOL0     C41072  12.348   3.386  11.099 -0.3732 -0.5585 -1.1285
  305MOL0     C41073  12.479   3.420  11.136  0.5698  0.2934  0.4247
  305MOL0     C41074  12.588   3.340  11.096  0.5444  0.2143  0.8131
  305MOL0     O41075  12.714   3.363  11.152 -0.4504 -0.2778  0.4743
  305MOL0     C41076  12.808   3.247  11.159  1.0564  0.6903 -0.8920
  305MOL0     C41077  12.927   3.287  11.243  0.3542 -0.2523 -0.6327
  305MOL0     C41078  13.039   3.188  11.221  0.3423  0.5837 -0.0143
  305MOL0     C41079  13.023   3.073  11.319  0.1188 -0.3106 -0.0964
  305MOL0     C41080  13.121   2.955  11.291  0.0847 -0.7852 -0.7882
  305MOL0     C41081  13.096   2.893  11.157  0.2223  0.3915  0.1437
  305MOL0     C41082  13.170   2.762  11.146  0.9026  0.9137 -0.0761
  305MOL0     C41083  13.188   2.715  11.002  0.0511  0.8765 -0.8638
  305MOL0    Cl41084  13.048   2.729  10.903  0.3050 -0.4115 -0.2805
  305MOL0     C41085  12.563   3.238  11.006  0.2028  0.0750 -0.0410
  305MOL0     C41086  12.437   3.217  10.947  0.6254  0.5201 -1.3629
  305MOL0     O41087  12.232   3.467  10.811 -0.0128 -0.0020 -0.3118
  305MOL0     C41088  11.945   3.456  10.734 -0.8774 -0.0355 -0.4645
  305MOL0     C41089  11.818   3.430  10.681 -0.0909  0.3500 -0.0169
  305MOL0     N41090  11.195   3.746  10.454  0.1580  0.4764 -0.0164
  305MOL0     N41091  11.087   3.796  10.413  0.6838  0.9074  0.2879
  305MOL0     C41092  10.151   3.291  10.804  1.0474  0.0348 -1.0235
  305MOL0     C41093  10.145   3.247  10.939  0.4386  0.4464  0.1702
  305MOL0     C41094  10.148   3.221  11.360  0.7924 -0.0480 -0.8411
  305MOL0     C41095  10.052   3.221  11.458 -0.2586  0.5397  0.1108
  305MOL0     C41096  10.076   3.139  11.573  0.8191  0.2430 -0.3462
  305MOL0     C41097  10.188   3.054  11.580 -0.7296  0.5448 -0.1984
  305MOL0     O41098  10.218   2.972  11.689  0.2106 -0.2347  0.5466
  305MOL0     C41099  10.128   2.956  11.797  0.0400  0.1875  0.2896
  305MOL0     C41100  10.139   3.052  11.900 -0.4432  0.4259 -0.1958
  305MOL0     C41101  10.284   3.058  11.959 -0.3551 -0.2372  0.1480
  305MOL0     C41102  10.303   3.179  12.045 -0.2745 -0.2049  0.4589
  305MOL0     C41103  10.444   3.198  12.079 -0.3810  0.6222  0.1460
  305MOL0     C41104  10.561   3.221  12.097 -0.4110  0.3461  0.0197
  305MOL0     C41105  10.282   3.065  11.483  0.8844  0.5385 -0.4301
  305MOL0     C41106  10.265   3.148  11.374  0.2688 -0.1828 -0.5863
  305MOL0     C41107  10.381   3.167  11.277 -0.5428 -0.1848 -0.0829
  305MOL0     H41108   9.891   3.448  11.045 -0.4740  0.6945 -2.6833
  305MOL0     H41109   9.911   3.537  10.828 -0.4791  0.7901  3.0443
  305MOL0     H41110  10.003   3.650  10.609 -0.3951  0.2753 -1.3147
  305MOL0     H41111  10.138   3.630  10.732 -0.3371 -1.9666 -0.0021
  305MOL0     H41112  10.195   3.739  10.545  1.5459 -0.4365  3.4721
  305MOL0     H41113  10.137   3.602  10.427  3.3069 -2.7687 -0.2309
  305MOL0     H41114  10.314   3.472  10.579 -4.9672 -0.4602 -3.0673
  305MOL0     H41115  10.361   3.627  10.636  1.0273 -0.0555 -0.4329
  305MOL0     H41116  10.363   3.507  10.347 -0.8813  0.0525  1.4718
  305MOL0     H41117  10.394   3.677  10.374  1.5368 -0.2715 -2.9825
  305MOL0     H41118  10.592   3.581  10.531  2.4267 -2.5493  0.9448
  305MOL0     H41119  10.574   3.443  10.422 -0.7837  0.0472 -4.7675
  305MOL0     H41120  10.609   3.549  10.223  1.9432 -1.2809 -0.5238
  305MOL0     H41121  10.602   3.715  10.292 -1.0939 -0.0882  1.6378
  305MOL0     H41122  10.824   3.636  10.217  1.4865 -0.1533  1.5364
  305MOL0     H41123  10.822   3.501  10.340  3.7752  1.0222  2.9590
  305MOL0     H41124  10.822   3.789  10.400 -2.2205 -0.7828  0.2836
  305MOL0     H41125  10.826   3.651  10.516 -1.0046 -0.0812 -0.1182
  305MOL0     H41126  11.047   3.461  10.382  0.6154 -0.7910  0.9399
  305MOL0     H41127  11.330   3.468  10.361  0.6319  0.3566 -0.1814
  305MOL0     H41128  11.399   3.584  10.481 -0.6674  0.4193 -0.8884
  305MOL0     H41129  11.288   3.507  10.660 -0.0601  1.0368 -0.2487
  305MOL0     H41130  11.175   3.398  10.579 -0.7541  1.0283  1.3622
  305MOL0     H41131  11.376   3.237  10.528 -0.4935  0.0744  0.7746
  305MOL0     H41132  11.373   3.262  10.702  1.5219 -0.7040 -0.2565
  305MOL0     H41133  11.536   3.461  10.667  2.8578  0.0084  0.8739
  305MOL0     H41134  11.576   3.387  10.519 -3.4088  0.1455 -1.3472
  305MOL0     H41135  11.772   3.110  10.777 -0.5047 -0.4489 -1.9493
  305MOL0     H41136  12.010   3.150  10.859 -0.4484  0.7048  1.5697
  305MOL0     H41137  12.260   3.443  11.125  1.8849  3.3864 -1.3158
  305MOL0     H41138  12.509   3.503  11.198  1.3563  2.8955 -3.1509
  305MOL0     H41139  12.752   3.168  11.209  0.1259  2.0300  0.2813
  305MOL0     H41140  12.841   3.218  11.059  1.7961 -0.9059 -0.2146
  305MOL0     H41141  12.953   3.382  11.195  0.1733  0.0158 -0.2003
  305MOL0     H41142  12.892   3.300  11.345  0.7492 -0.8593 -0.4158
  305MOL0     H41143  13.038   3.162  11.115  2.6188 -0.6437  0.2066
  305MOL0     H41144  13.134   3.241  11.230  0.7484  0.6593 -3.5400
  305MOL0     H41145  12.922   3.032  11.321 -0.1488  0.3266 -0.5087
  305MOL0     H41146  13.041   3.103  11.422  1.1794 -1.8646  0.2161
  305MOL0     H41147  13.118   2.873  11.363 -1.5750  0.3775  0.5421
  305MOL0     H41148  13.225   2.988  11.292  0.3772 -1.7004 -0.0980
  305MOL0     H41149  12.990   2.869  11.152  0.1652 -0.4055  3.1147
  305MOL0     H41150  13.117   2.967  11.080 -1.4813 -0.2411 -0.9660
  305MOL0     H41151  13.119   2.681  11.199  1.5352  1.3983  1.3011
  305MOL0     H41152  13.270   2.782  11.185  2.3772 -2.6634 -1.5817
  305MOL0     H41153  13.259   2.794  10.973 -0.5808  1.6930 -0.2375
  305MOL0     H41154  13.222   2.612  11.001  0.5016  0.9778 -3.2524
  305MOL0     H41155  12.643   3.175  10.970  1.1814  0.1921  1.8195
  305MOL0     H41156  12.424   3.134  10.877 -0.6656 -0.6556  0.1978
  305MOL0     H41157  12.002   3.548  10.734  0.7522 -1.0061  0.6013
  305MOL0     H41158  11.769   3.514  10.632 -0.7736 -1.0622 -1.8748
  305MOL0     H41159  10.231   3.243  10.747  1.5285 -0.5927  0.1485
  305MOL0     H41160  10.209   3.167  10.975  1.3667  0.7429 -0.7810
  305MOL0     H41161   9.969   3.290  11.447 -2.3136 -2.0644 -1.6683
  305MOL0     H41162   9.991   3.142  11.641 -0.3587  1.5071 -1.7854
  305MOL0     H41163  10.162   2.865  11.848 -0.4212  0.6668  1.4997
  305MOL0     H41164  10.021   2.943  11.776 -0.1353  1.5706  0.2065
  305MOL0     H41165  10.073   3.026  11.983 -1.8979  2.6717 -0.5575
  305MOL0     H41166  10.128   3.145  11.843  1.7311 -0.8477 -2.9186
  305MOL0     H41167  10.352   3.049  11.874 -1.9531  2.7140 -1.6263
  305MOL0     H41168  10.303   2.968  12.017  1.4954  0.9230  1.4801
  305MOL0     H41169  10.258   3.267  11.997  0.5921  0.4313  0.7892
  305MOL0     H41170  10.248   3.169  12.139 -0.1229 -1.5851  0.4156
  305MOL0     H41171  10.660   3.260  12.111 -0.3908 -0.4601  2.4481
  305MOL0     H41172  10.360   2.989  11.491 -0.2951 -0.9570 -2.1372
  305MOL0     H41173  10.392   3.274  11.260 -4.2944  0.3290 -0.1169
  305MOL0     H41174  10.470   3.118  11.319 -2.2902 -1.5278  2.3461
  305MOL0     H41175  10.345   3.125  11.183 -0.4386 -1.2849  0.3500
  306MOL0     O41176   4.326   5.017   4.449 -0.0263 -0.3105 -0.1886
  306MOL0     C41177   4.317   5.138   4.460 -0.1207 -0.1468 -0.1192
  306MOL0     O41178   4.411   5.236   4.437  0.4312 -0.4660 -0.6253
  306MOL0     C41179   4.525   5.189   4.365  0.1829 -0.0933 -0.4211
  306MOL0     C41180   4.628   5.133   4.440  0.7606  0.1819 -0.3386
  306MOL0     C41181   4.729   5.071   4.376 -0.2041 -0.0136  0.3552
  306MOL0     C41182   4.749   5.084   4.232  0.6388 -0.1743  0.2284
  306MOL0     O41183   4.857   5.024   4.170  0.0254  0.7746 -0.7122
  306MOL0     C41184   4.879   5.045   4.034  0.0154  0.6509  0.0283
  306MOL0     C41185   4.988   4.960   3.984  0.2122 -0.0865  0.6937
  306MOL0     C41186   5.122   5.022   4.021  0.5531 -0.5944 -0.0786
  306MOL0     C41187   5.233   4.971   3.935  0.5999  0.0550 -0.0487
  306MOL0     C41188   5.372   5.013   3.974  0.5197 -0.0920 -0.5927
  306MOL0     C41189   5.487   4.943   3.924  0.0274 -0.5771  0.9053
  306MOL0     C41190   5.621   4.978   3.997  0.7258 -0.3005  0.5957
  306MOL0     C41191   5.665   5.125   3.969  0.2914  0.5809 -0.8701
  306MOL0     N41192   5.793   5.144   4.046  1.2494 -0.2025 -0.2994
  306MOL0     C41193   5.910   5.085   4.017 -0.5384  0.3989 -0.7382
  306MOL0     C41194   5.990   5.139   4.104 -0.0898 -0.1342  0.3442
  306MOL0     C41195   6.133   5.096   4.128 -0.0388 -0.1783 -0.2605
  306MOL0     C41196   6.240   5.198   4.081  0.5367 -0.6676 -0.2784
  306MOL0     C41197   6.385   5.165   4.097  0.0028 -0.8536 -0.0915
  306MOL0     C41198   6.438   5.195   4.244  0.6599 -0.7383 -0.0759
  306MOL0     O41199   6.471   5.337   4.241 -0.2787  0.1195 -0.2675
  306MOL0     C41200   6.602   5.353   4.215  0.1646 -0.3720 -0.0623
  306MOL0     C41201   6.705   5.315   4.301  0.2297  0.5944  0.6152
  306MOL0     C41202   6.836   5.359   4.296 -0.3700  0.2482 -0.3504
  306MOL0     C41203   6.877   5.438   4.181  0.6398  0.5332 -0.5029
  306MOL0     C41204   7.016   5.476   4.168 -0.0068 -0.4386  0.5427
  306MOL0     O41205   7.039   5.507   4.039 -0.1266 -0.0939 -0.3044
  306MOL0     C41206   7.175   5.519   4.001  0.6304 -0.0893  0.1434
  306MOL0     C41207   7.287   5.580   4.060 -0.3848 -0.1732  0.1450
  306MOL0     C41208   7.416   5.576   3.995 -0.0325 -0.2277 -0.0698
  306MOL0     C41209   7.432   5.506   3.877 -0.3221 -0.2988  0.7831
  306MOL0     O41210   7.564   5.508   3.819 -0.8076  0.0108  0.0811
  306MOL0     C41211   7.586   5.415   3.712 -0.9014  0.2685  0.8087
  306MOL0     C41212   7.741   5.400   3.692 -1.1903  0.6056  0.0760
  306MOL0     C41213   7.799   5.536   3.665  0.4211  1.3590  0.2536
  306MOL0     C41214   7.946   5.499   3.647  0.0195 -0.8123  0.1272
  306MOL0     C41215   7.973   5.466   3.496 -0.5969  0.6306 -0.8106
  306MOL0     C41216   8.116   5.503   3.459  0.1912 -0.3789  0.3647
  306MOL0     C41217   8.148   5.449   3.318  0.5032 -0.0894 -0.2622
  306MOL0     C41218   8.141   5.300   3.304 -0.1149  0.2710 -0.5358
  306MOL0    Cl41219   8.226   5.255   3.157  0.0858  0.1770  0.1221
  306MOL0     C41220   7.318   5.452   3.816  0.3013  0.3988 -0.3963
  306MOL0     C41221   7.193   5.463   3.879  0.4550 -0.1601 -0.2539
  306MOL0     O41222   7.091   5.451   4.268 -0.5728 -0.0132 -0.0908
  306MOL0     C41223   6.776   5.466   4.080 -0.5549  0.1273  0.1778
  306MOL0     C41224   6.643   5.425   4.099 -0.6490 -0.3897 -0.3356
  306MOL0     N41225   5.924   5.206   4.198 -0.2691  0.3762  0.0505
  306MOL0     N41226   5.807   5.218   4.159  0.0884 -0.5476  0.3187
  306MOL0     C41227   4.649   5.167   4.165 -0.5325  0.6746  0.4736
  306MOL0     C41228   4.548   5.220   4.237  1.1994  0.6947  0.7679
  306MOL0     C41229   4.189   5.188   4.515 -1.1445  0.6375 -0.5817
  306MOL0     C41230   4.142   5.307   4.475  0.0312  0.1565 -0.9227
  306MOL0     C41231   4.016   5.359   4.517 -0.7610  0.4316  0.4349
  306MOL0     C41232   3.940   5.283   4.604 -0.0944 -1.1766 -0.0395
  306MOL0     O41233   3.822   5.342   4.650  1.1584 -0.4949  0.1841
  306MOL0     C41234   3.804   5.347   4.788 -0.3056  0.5423 -0.4627
  306MOL0     C41235   3.725   5.476   4.828 -0.1190 -0.6215 -0.0612
  306MOL0     C41236   3.589   5.430   4.879  0.4836  0.1679 -0.4685
  306MOL0     C41237   3.499   5.555   4.921  0.5570 -0.2346 -0.0268
  306MOL0     C41238   3.365   5.502   4.949 -0.1812 -0.2945  0.0124
  306MOL0     C41239   3.263   5.442   4.970  0.3428 -0.0990 -0.8449
  306MOL0     C41240   3.990   5.160   4.654  0.3078  0.0996 -0.1142
  306MOL0     C41241   4.111   5.113   4.609 -0.5251  0.4459 -0.2587
  306MOL0     C41242   4.167   4.992   4.688 -0.1747 -0.2509  0.4814
  306MOL0     H41243   4.616   5.119   4.547  2.1628 -4.0792 -0.5589
  306MOL0     H41244   4.797   5.008   4.432  0.7031  0.5698 -0.0801
  306MOL0     H41245   4.786   5.009   3.990 -0.3412 -2.1789  2.7465
  306MOL0     H41246   4.889   5.152   4.016  3.9293  0.8268  2.1805
  306MOL0     H41247   4.974   4.958   3.875  0.0771  1.4038  0.6736
  306MOL0     H41248   4.971   4.859   4.022 -1.9378 -0.8938 -2.0210
  306MOL0     H41249   5.137   5.002   4.127  0.3200 -1.8619 -0.2656
  306MOL0     H41250   5.114   5.128   3.995 -2.0835 -0.2314  1.8259
  306MOL0     H41251   5.230   4.862   3.934  4.2254 -0.1819 -0.0007
  306MOL0     H41252   5.226   5.007   3.832  4.9590 -1.6749 -1.1900
  306MOL0     H41253   5.381   5.122   3.977  0.0946 -0.0490 -0.8045
  306MOL0     H41254   5.373   4.984   4.080 -2.3923  3.4812  0.6190
  306MOL0     H41255   5.465   4.836   3.928  0.5660 -0.7135  0.4501
  306MOL0     H41256   5.506   4.985   3.824  4.1709  2.0519  2.5456
  306MOL0     H41257   5.696   4.903   3.970 -1.4730 -2.9543  1.3352
  306MOL0     H41258   5.610   4.967   4.106 -0.8808  0.8979  0.5837
  306MOL0     H41259   5.702   5.139   3.867 -0.6211 -0.1188 -1.3086
  306MOL0     H41260   5.590   5.199   3.998 -1.0920 -1.5394  1.3577
  306MOL0     H41261   5.940   5.011   3.943 -0.9344  0.1004 -0.6027
  306MOL0     H41262   6.138   5.074   4.235  3.4259 -0.7953 -0.4259
  306MOL0     H41263   6.152   5.008   4.066  0.3110  1.0364 -1.9663
  306MOL0     H41264   6.222   5.221   3.976  1.2266  0.9307 -0.0840
  306MOL0     H41265   6.216   5.292   4.132  2.3423 -0.2027 -0.2285
  306MOL0     H41266   6.430   5.232   4.023 -0.9782  0.4090  0.4068
  306MOL0     H41267   6.401   5.060   4.071 -0.0596 -1.2983  1.5783
  306MOL0     H41268   6.529   5.138   4.268 -0.4880 -1.3845  3.1631
  306MOL0     H41269   6.367   5.174   4.324  1.7102 -0.2759  1.0120
  306MOL0     H41270   6.681   5.244   4.380 -0.5217 -0.5881 -0.6412
  306MOL0     H41271   6.904   5.319   4.371 -0.1322 -1.1335 -1.2644
  306MOL0     H41272   7.292   5.639   4.151  0.9123 -1.0463  0.6732
  306MOL0     H41273   7.508   5.615   4.037 -0.2467  1.9224 -1.4735
  306MOL0     H41274   7.538   5.321   3.741  0.7828 -0.6697  0.7349
  306MOL0     H41275   7.526   5.442   3.625 -2.2228 -0.8716  1.3335
  306MOL0     H41276   7.786   5.365   3.786 -4.0734  4.3975  3.1923
  306MOL0     H41277   7.766   5.325   3.616  1.6485  1.5500 -0.0456
  306MOL0     H41278   7.751   5.573   3.574 -2.2886  1.8887  1.8040
  306MOL0     H41279   7.793   5.609   3.746 -1.3201  1.6205 -0.0866
  306MOL0     H41280   7.971   5.420   3.719 -0.5475 -1.1842 -0.0779
  306MOL0     H41281   8.006   5.586   3.675 -0.0958 -1.0110  1.0191
  306MOL0     H41282   7.910   5.537   3.441 -1.6757  1.5566  1.4731
  306MOL0     H41283   7.963   5.358   3.479 -2.1997  0.3639  1.3244
  306MOL0     H41284   8.123   5.612   3.469 -2.3223 -0.0817 -0.2417
  306MOL0     H41285   8.197   5.458   3.516  0.3620 -0.2257  0.2445
  306MOL0     H41286   8.247   5.487   3.295  1.0322 -0.6504  1.0029
  306MOL0     H41287   8.079   5.487   3.242  1.3046 -0.6919 -1.3255
  306MOL0     H41288   8.189   5.257   3.392 -0.9481  2.3356  1.0185
  306MOL0     H41289   8.039   5.261   3.301  0.0910 -0.3459  0.1293
  306MOL0     H41290   7.322   5.405   3.719 -1.6782  0.1721 -0.4088
  306MOL0     H41291   7.103   5.426   3.831  0.2101 -2.3001  1.6590
  306MOL0     H41292   6.812   5.512   3.989 -1.3860  0.0619 -0.1910
  306MOL0     H41293   6.563   5.459   4.034 -1.5878 -1.3533  0.2760
  306MOL0     H41294   4.647   5.193   4.060  0.1490  0.0209  0.2869
  306MOL0     H41295   4.461   5.275   4.200  0.2608 -1.2080  0.0163
  306MOL0     H41296   4.203   5.377   4.418  1.5327  2.6461  3.2677
  306MOL0     H41297   3.987   5.460   4.488  1.0657  0.1980 -2.5048
  306MOL0     H41298   3.902   5.361   4.834 -1.2797  2.8785  1.0844
  306MOL0     H41299   3.754   5.257   4.825  0.3861  1.3873  2.8309
  306MOL0     H41300   3.714   5.532   4.735 -0.2311 -4.4109 -2.5302
  306MOL0     H41301   3.783   5.523   4.908 -1.4166  1.6375 -0.3399
  306MOL0     H41302   3.611   5.364   4.963 -0.4393  0.9951  0.4613
  306MOL0     H41303   3.542   5.375   4.797 -1.6747  2.8302 -1.1646
  306MOL0     H41304   3.548   5.617   4.997  0.9100 -2.3863  1.5641
  306MOL0     H41305   3.491   5.609   4.826  0.8152 -2.5772 -1.4447
  306MOL0     H41306   3.168   5.401   4.996 -0.2069  1.7882  0.2791
  306MOL0     H41307   3.935   5.104   4.728  1.5265  0.3181  0.9976
  306MOL0     H41308   4.170   4.915   4.610 -1.1611  1.1690 -1.0512
  306MOL0     H41309   4.268   5.009   4.724 -0.3644 -2.8882  2.5359
  306MOL0     H41310   4.104   4.966   4.773  1.1667  1.4043  2.0510
  307MOL0     O41311   3.920   5.933  10.639  0.3719 -0.0003 -0.2704
  307MOL0     C41312   3.818   5.884  10.595  0.4272  0.3987 -0.3405
  307MOL0     O41313   3.803   5.825  10.476  0.5818 -0.1482  0.0236
  307MOL0     C41314   3.918   5.806  10.401  0.3233  0.0741  0.6659
  307MOL0     C41315   3.996   5.699  10.439 -0.5588 -0.3190  0.0325
  307MOL0     C41316   4.123   5.683  10.376  0.6492  0.2653  0.0608
  307MOL0     C41317   4.163   5.767  10.266  0.3435  0.0954 -0.1528
  307MOL0     O41318   4.283   5.756  10.200  0.7344 -0.3601  0.0730
  307MOL0     C41319   4.367   5.647  10.242  0.2566  0.7700 -0.1077
  307MOL0     C41320   4.488   5.660  10.153  0.2179 -0.1761  0.4937
  307MOL0     C41321   4.586   5.542  10.163 -0.2700 -0.5347  0.2187
  307MOL0     C41322   4.702   5.569  10.072  0.0756 -0.2839  0.1679
  307MOL0     C41323   4.808   5.464  10.062  0.0440 -0.8282  0.0455
  307MOL0     C41324   4.767   5.318  10.039 -0.8204 -0.4056 -0.7120
  307MOL0     C41325   4.727   5.272   9.903  0.6296 -0.9223  0.1963
  307MOL0     C41326   4.590   5.319   9.841 -0.8405 -0.8111 -0.7694
  307MOL0     N41327   4.477   5.237   9.898  0.5768  0.3974 -0.4718
  307MOL0     C41328   4.378   5.269   9.997 -0.3534 -1.1397  0.8790
  307MOL0     C41329   4.302   5.166  10.015  0.0616  1.4550  0.7596
  307MOL0     C41330   4.177   5.162  10.102 -0.0552 -0.4327 -1.2729
  307MOL0     C41331   4.087   5.038  10.065 -0.1292  0.1301  0.4426
  307MOL0     C41332   3.967   5.024  10.147  0.7356  0.6991  0.2108
  307MOL0     C41333   3.867   4.925  10.111  1.7711 -0.3598 -0.3598
  307MOL0     O41334   3.806   4.929   9.977 -1.1217  0.9381 -0.2280
  307MOL0     C41335   3.666   4.927   9.959 -1.0363  0.3447 -0.0561
  307MOL0     C41336   3.582   4.834  10.027  0.1104  0.4029  0.2271
  307MOL0     C41337   3.445   4.813   9.991  0.1241  0.7139 -0.3134
  307MOL0     C41338   3.389   4.890   9.888 -0.8725  0.1940  0.6139
  307MOL0     C41339   3.250   4.874   9.855  0.6795  1.3351  0.9423
  307MOL0     O41340   3.171   4.861   9.968 -0.3917 -0.0382  0.4521
  307MOL0     C41341   3.036   4.834   9.958  0.5320 -0.4104 -0.5111
  307MOL0     C41342   2.971   4.766   9.854 -0.2484  0.2317 -0.7801
  307MOL0     C41343   2.835   4.739   9.863 -0.0133  0.8293  0.4476
  307MOL0     C41344   2.762   4.770   9.984 -0.3389  0.1518 -0.3146
  307MOL0     O41345   2.632   4.730  10.012  0.3487 -0.3365  0.2010
  307MOL0     C41346   2.572   4.618   9.947 -0.8637  0.1793  0.2603
  307MOL0     C41347   2.434   4.577  10.006  0.7445 -0.1264  0.2680
  307MOL0     C41348   2.386   4.442   9.945  0.6871  0.4128  0.3189
  307MOL0     C41349   2.253   4.403   9.997 -0.5909 -0.3219 -1.2819
  307MOL0     C41350   2.204   4.269   9.937  0.4529 -0.5451  0.6122
  307MOL0     C41351   2.128   4.179  10.038 -0.9496 -0.1783 -0.0676
  307MOL0     C41352   1.994   4.234  10.077  0.5337 -0.6891 -0.5640
  307MOL0     C41353   1.931   4.129  10.167  0.1318 -0.2564 -0.0249
  307MOL0    Cl41354   1.753   4.145  10.208  0.5925 -0.4971  0.3172
  307MOL0     C41355   2.833   4.831  10.087  1.1915 -0.1864  0.3673
  307MOL0     C41356   2.969   4.869  10.077 -0.5982 -0.0132  0.3210
  307MOL0     O41357   3.202   4.897   9.737 -0.1940  0.1588  0.3382
  307MOL0     C41358   3.477   4.976   9.816  0.3776 -0.3314 -0.5512
  307MOL0     C41359   3.613   4.992   9.853  0.0029 -0.1670  0.0765
  307MOL0     N41360   4.341   5.066   9.923  0.7923 -0.4807  0.0358
  307MOL0     N41361   4.442   5.106   9.863  0.0597  0.6838 -0.3583
  307MOL0     C41362   4.064   5.853  10.209 -0.5361  0.9672 -0.1893
  307MOL0     C41363   3.945   5.873  10.282  0.0217 -0.3209 -0.1439
  307MOL0     C41364   3.693   5.887  10.677  0.2075 -0.1850  0.9307
  307MOL0     C41365   3.598   5.790  10.668  0.1500 -0.1506  0.0099
  307MOL0     C41366   3.467   5.799  10.730  0.0913  0.9551  0.0323
  307MOL0     C41367   3.435   5.900  10.822  0.7051  0.3292 -0.7828
  307MOL0     O41368   3.317   5.920  10.895  0.7202  0.3846  0.7142
  307MOL0     C41369   3.207   5.835  10.852 -0.5131  0.8307  0.2689
  307MOL0     C41370   3.083   5.891  10.924  0.9375  0.2856  0.2404
  307MOL0     C41371   2.960   5.798  10.949  0.0415 -0.4149  0.7345
  307MOL0     C41372   2.854   5.850  11.040  0.7561  0.2871  0.7492
  307MOL0     C41373   2.726   5.772  11.019 -0.5773  0.7163 -0.5443
  307MOL0     C41374   2.623   5.714  10.989 -0.2319  0.3802 -0.2493
  307MOL0     C41375   3.541   5.991  10.839  0.3701 -0.3637  0.4799
  307MOL0     C41376   3.662   5.986  10.777  0.3004  0.3279 -0.2602
  307MOL0     C41377   3.764   6.096  10.821  0.6026 -0.1833 -0.2902
  307MOL0     H41378   3.978   5.645  10.531 -1.7304  0.5347  0.3280
  307MOL0     H41379   4.190   5.604  10.410  0.7392  1.5154  3.1544
  307MOL0     H41380   4.395   5.661  10.347 -0.1993  1.7219 -0.1010
  307MOL0     H41381   4.310   5.556  10.225 -0.2116  1.2623 -1.3400
  307MOL0     H41382   4.538   5.753  10.184  0.0172 -0.2576  1.0872
  307MOL0     H41383   4.456   5.665  10.049  2.9072 -1.6906 -0.5145
  307MOL0     H41384   4.532   5.454  10.128 -3.8732  1.3187  0.6255
  307MOL0     H41385   4.614   5.523  10.267  1.0029  4.8431  1.1477
  307MOL0     H41386   4.668   5.602   9.973 -1.3056  0.1580  0.7543
  307MOL0     H41387   4.755   5.653  10.118  1.7480  0.6363 -3.1366
  307MOL0     H41388   4.874   5.508   9.987 -0.2819  0.8027  0.6598
  307MOL0     H41389   4.857   5.473  10.159 -2.3192  0.5971  1.2194
  307MOL0     H41390   4.861   5.264  10.055 -1.8833 -2.7264 -1.7704
  307MOL0     H41391   4.709   5.274  10.121  0.3331 -2.6595 -1.0521
  307MOL0     H41392   4.720   5.163   9.905  2.3372 -1.0763  2.1629
  307MOL0     H41393   4.807   5.304   9.835 -0.5177 -1.0390 -1.2641
  307MOL0     H41394   4.580   5.426   9.863 -2.9503 -1.4037  1.5846
  307MOL0     H41395   4.580   5.315   9.732 -1.7137 -1.9883 -0.6661
  307MOL0     H41396   4.356   5.369  10.033 -1.3204 -0.3474 -1.6993
  307MOL0     H41397   4.209   5.166  10.206 -0.8348 -3.1709 -0.8430
  307MOL0     H41398   4.120   5.254  10.086  0.5415  0.4959  1.4889
  307MOL0     H41399   4.060   5.051   9.959  1.9057  0.9403 -0.0161
  307MOL0     H41400   4.154   4.953  10.077  1.4433  1.1038 -1.0263
  307MOL0     H41401   3.925   5.125  10.154  0.2749  0.4246  1.6140
  307MOL0     H41402   4.014   5.001  10.243 -1.0684  0.0548  0.9610
  307MOL0     H41403   3.791   4.941  10.188  1.0156 -1.9277 -0.7285
  307MOL0     H41404   3.908   4.824  10.118  0.7943 -0.8472 -1.3354
  307MOL0     H41405   3.640   4.784  10.104  1.4871  0.4573 -0.7412
  307MOL0     H41406   3.395   4.734  10.046 -1.0923  0.5111 -1.6515
  307MOL0     H41407   3.013   4.728   9.761 -0.0665  1.3408 -1.1633
  307MOL0     H41408   2.790   4.675   9.787  1.0154 -2.0104  2.0729
  307MOL0     H41409   2.553   4.643   9.842 -1.3775  0.6031  0.4519
  307MOL0     H41410   2.635   4.529   9.945  1.7385  1.8806 -2.4482
  307MOL0     H41411   2.433   4.581  10.115 -1.0859 -0.3176  0.2878
  307MOL0     H41412   2.357   4.647   9.972 -0.7690 -2.2107 -0.8415
  307MOL0     H41413   2.364   4.447   9.838 -0.2757  2.1706  0.5507
  307MOL0     H41414   2.458   4.363   9.967  0.4204  0.3608  1.0378
  307MOL0     H41415   2.178   4.481   9.978  0.2090  1.4128  2.0247
  307MOL0     H41416   2.259   4.395  10.106 -0.1325 -2.0136 -1.3939
  307MOL0     H41417   2.286   4.208   9.898 -1.1592 -2.5346  0.1773
  307MOL0     H41418   2.144   4.299   9.851  1.3628  2.7823  0.9917
  307MOL0     H41419   2.132   4.076  10.000 -0.4829  0.4776 -1.8617
  307MOL0     H41420   2.196   4.175  10.123  0.1948 -1.0715 -0.9902
  307MOL0     H41421   1.926   4.252   9.993 -0.7671  4.9334  1.2738
  307MOL0     H41422   2.007   4.330  10.127  0.4707 -0.9067 -0.1316
  307MOL0     H41423   1.930   4.031  10.120 -1.0222  0.8091 -2.3947
  307MOL0     H41424   1.989   4.126  10.259 -2.7351 -1.2248  1.8559
  307MOL0     H41425   2.774   4.862  10.173  0.3840  1.3590 -0.6890
  307MOL0     H41426   3.027   4.911  10.159 -2.9211  0.6210  1.7110
  307MOL0     H41427   3.429   5.035   9.739  2.9347  1.3303 -0.9796
  307MOL0     H41428   3.670   5.067   9.798 -1.3114 -0.3100 -1.5603
  307MOL0     H41429   4.078   5.922  10.127 -1.2042  1.2653 -0.0555
  307MOL0     H41430   3.872   5.947  10.253  1.8565  1.6149 -0.0313
  307MOL0     H41431   3.616   5.709  10.597  2.2938 -1.6798  2.1262
  307MOL0     H41432   3.403   5.715  10.702  1.7471 -0.6944  0.9573
  307MOL0     H41433   3.220   5.729  10.875  1.8248  1.0517  0.2086
  307MOL0     H41434   3.174   5.847  10.748 -2.5768  0.4732  0.8258
  307MOL0     H41435   3.061   5.982  10.867  1.4539 -0.1890 -0.7474
  307MOL0     H41436   3.097   5.924  11.028  1.1734 -0.5478  0.4767
  307MOL0     H41437   2.987   5.703  10.994 -0.2698 -1.5303 -1.3084
  307MOL0     H41438   2.924   5.772  10.849  1.2124 -2.1063  0.7056
  307MOL0     H41439   2.880   5.866  11.145 -1.9740 -0.8879  1.7009
  307MOL0     H41440   2.832   5.948  10.996  1.3651 -0.5861 -1.6517
  307MOL0     H41441   2.529   5.664  10.977  0.3382 -0.0514 -4.0987
  307MOL0     H41442   3.512   6.067  10.911  0.5898 -0.1696  0.3654
  307MOL0     H41443   3.829   6.130  10.740  2.6338 -2.3294  0.3171
  307MOL0     H41444   3.715   6.180  10.871 -0.0183 -0.7822  0.1271
  307MOL0     H41445   3.833   6.054  10.896 -0.3786  1.0365  1.3741
  308MOL0     O41446   0.252   8.204   6.550 -0.4479  0.2373  0.3098
  308MOL0     C41447   0.211   8.277   6.460  0.7438  0.0067  0.3891
  308MOL0     O41448   0.274   8.312   6.345 -0.1090 -0.5920 -0.2559
  308MOL0     C41449   0.414   8.301   6.343  0.0304  0.9565 -0.2294
  308MOL0     C41450   0.495   8.406   6.376 -1.1524  0.3857 -0.1034
  308MOL0     C41451   0.634   8.412   6.346 -0.5193 -0.4828 -0.8206
  308MOL0     C41452   0.692   8.301   6.290  0.9844 -0.4349 -0.2792
  308MOL0     O41453   0.824   8.309   6.260 -0.7768 -0.8002 -0.2276
  308MOL0     C41454   0.905   8.189   6.266 -0.1080  0.1728  0.2314
  308MOL0     C41455   1.049   8.234   6.243 -0.1452  0.4809 -0.0632
  308MOL0     C41456   1.120   8.273   6.379  0.4860 -0.0260 -0.5371
  308MOL0     C41457   1.267   8.260   6.347 -0.8438  0.3191  0.3985
  308MOL0     C41458   1.353   8.294   6.461 -0.3302  1.2121  0.1362
  308MOL0     C41459   1.497   8.321   6.427 -0.0500 -0.7914 -0.1610
  308MOL0     C41460   1.572   8.397   6.545 -0.1561  0.8035 -0.1026
  308MOL0     C41461   1.721   8.437   6.516  0.1729  0.1406 -0.0658
  308MOL0     N41462   1.790   8.336   6.432  0.0833  0.5742  0.1748
  308MOL0     C41463   1.867   8.237   6.478  0.0089  0.4569  0.1256
  308MOL0     C41464   1.900   8.157   6.374  0.0195 -0.6807 -0.1788
  308MOL0     C41465   1.989   8.035   6.388  0.5750 -0.0286 -0.6645
  308MOL0     C41466   1.908   7.905   6.375 -0.7278  0.0864  0.1491
  308MOL0     C41467   1.811   7.884   6.493 -0.4481  0.8263 -0.6906
  308MOL0     C41468   1.663   7.885   6.457 -0.1768  0.3078  0.6893
  308MOL0     O41469   1.589   7.835   6.566 -0.3229 -0.7902 -0.4647
  308MOL0     C41470   1.451   7.833   6.553 -0.0355 -1.8636  0.6897
  308MOL0     C41471   1.373   7.784   6.658 -1.0602 -0.3218  0.6778
  308MOL0     C41472   1.235   7.775   6.659 -0.6444  1.0916  0.2142
  308MOL0     C41473   1.168   7.831   6.547  0.0404  0.6228  0.6547
  308MOL0     C41474   1.022   7.830   6.541  0.4100 -0.1619 -0.6474
  308MOL0     O41475   0.960   7.820   6.419  0.2947  0.0726  0.4945
  308MOL0     C41476   0.818   7.817   6.409  0.1010  0.3897  0.0250
  308MOL0     C41477   0.752   7.715   6.337 -0.0092 -0.4461  0.7549
  308MOL0     C41478   0.608   7.727   6.303 -0.3486 -0.0616  0.3115
  308MOL0     C41479   0.531   7.839   6.352  0.2879  0.2170  0.3982
  308MOL0     O41480   0.390   7.847   6.336  0.4784 -0.0609  0.6731
  308MOL0     C41481   0.314   7.752   6.416  0.1596  0.4713  0.1281
  308MOL0     C41482   0.177   7.732   6.353  0.7459  0.4954 -0.3735
  308MOL0     C41483   0.082   7.848   6.393 -0.5063 -0.9029 -0.3352
  308MOL0     C41484  -0.047   7.828   6.333 -1.2638 -0.4179  0.4140
  308MOL0     C41485  -0.159   7.927   6.374  0.4878 -0.8522  0.0154
  308MOL0     C41486  -0.291   7.912   6.285  0.8257 -0.8380 -0.0819
  308MOL0     C41487  -0.377   7.800   6.346 -0.1392 -0.4771  0.1386
  308MOL0     C41488  -0.499   7.765   6.262 -0.1570 -0.1472  0.3562
  308MOL0    Cl41489  -0.611   7.909   6.290 -0.1049  0.8233 -0.2161
  308MOL0     C41490   0.597   7.929   6.435 -0.0680  0.4216 -0.6545
  308MOL0     C41491   0.738   7.923   6.451 -0.0842  0.7811 -0.4550
  308MOL0     O41492   0.959   7.822   6.651 -1.0613  0.1241 -0.5183
  308MOL0     C41493   1.240   7.883   6.442 -0.1548  0.5265  0.0320
  308MOL0     C41494   1.383   7.894   6.446 -0.1539  0.2140 -0.1874
  308MOL0     N41495   1.840   8.218   6.261 -0.4456  0.0393  0.6917
  308MOL0     N41496   1.766   8.320   6.298 -0.7463 -0.2797  0.2386
  308MOL0     C41497   0.604   8.195   6.248  0.3706 -0.2507  0.9092
  308MOL0     C41498   0.469   8.198   6.277 -0.2386 -0.7398  0.0727
  308MOL0     C41499   0.065   8.315   6.460 -0.0128 -0.8616  0.3821
  308MOL0     C41500   0.009   8.403   6.363 -0.1137 -0.8334 -0.1538
  308MOL0     C41501  -0.127   8.436   6.350  0.6535  0.1540  0.4713
  308MOL0     C41502  -0.211   8.401   6.452 -0.0425  0.3159  0.0955
  308MOL0     O41503  -0.349   8.415   6.449 -0.1944 -0.1161 -0.3160
  308MOL0     C41504  -0.445   8.335   6.530 -0.5335  0.0913  1.3814
  308MOL0     C41505  -0.571   8.351   6.451  1.0562  0.7426 -0.3919
  308MOL0     C41506  -0.683   8.292   6.540 -0.3169  1.2533  0.2666
  308MOL0     C41507  -0.815   8.371   6.528  0.1654  0.0076 -0.0338
  308MOL0     C41508  -0.866   8.386   6.388  0.2653  0.8931  0.0551
  308MOL0     C41509  -0.909   8.398   6.278  0.2871  0.1661 -0.5875
  308MOL0     C41510  -0.158   8.317   6.552 -0.9249  0.4224  0.3902
  308MOL0     C41511  -0.029   8.274   6.553 -0.3139  0.2145  0.4724
  308MOL0     C41512   0.007   8.169   6.654 -0.1658  0.0451  0.1967
  308MOL0     H41513   0.440   8.491   6.415 -0.8872  0.2835  0.4929
  308MOL0     H41514   0.697   8.498   6.364 -0.2934 -1.2187  2.4070
  308MOL0     H41515   0.897   8.127   6.355 -0.0240 -0.0103  0.1140
  308MOL0     H41516   0.866   8.135   6.180 -0.9563  0.5173  0.3918
  308MOL0     H41517   1.050   8.311   6.166  0.3195  0.0255 -0.5228
  308MOL0     H41518   1.092   8.144   6.198  0.4280  0.2973  0.8254
  308MOL0     H41519   1.088   8.204   6.457 -1.9659  1.8318  0.2388
  308MOL0     H41520   1.096   8.376   6.409  1.4358  1.3615 -3.9576
  308MOL0     H41521   1.288   8.158   6.316  2.6365  0.2644  2.4175
  308MOL0     H41522   1.292   8.327   6.264 -0.3948 -1.2037 -0.7404
  308MOL0     H41523   1.306   8.386   6.496 -1.7031  0.3392  0.6534
  308MOL0     H41524   1.335   8.221   6.540 -1.7705 -1.4935 -2.4963
  308MOL0     H41525   1.541   8.224   6.400 -0.5959 -0.6529 -1.6040
  308MOL0     H41526   1.496   8.384   6.337  0.2775  0.2424  0.5402
  308MOL0     H41527   1.579   8.324   6.626  3.7821  1.2482  0.1441
  308MOL0     H41528   1.506   8.476   6.584 -4.5816 -2.7456  0.4275
  308MOL0     H41529   1.714   8.532   6.462  0.5308  0.8164  1.0394
  308MOL0     H41530   1.766   8.456   6.614 -1.8841  0.7291  0.8272
  308MOL0     H41531   1.900   8.227   6.581  1.5969 -0.7273 -0.4599
  308MOL0     H41532   2.069   8.040   6.314  0.8253 -0.8864 -0.4624
  308MOL0     H41533   2.042   8.032   6.483  1.7740  2.4672 -1.1667
  308MOL0     H41534   1.848   7.902   6.284  0.6017 -0.4161 -0.7375
  308MOL0     H41535   1.982   7.825   6.363 -1.6138 -0.5668 -1.2529
  308MOL0     H41536   1.828   7.963   6.567  2.4042  0.4545 -0.8552
  308MOL0     H41537   1.843   7.785   6.525 -2.0648  0.3242 -0.5441
  308MOL0     H41538   1.641   7.812   6.379  1.1701  0.7620 -0.1385
  308MOL0     H41539   1.637   7.985   6.420  0.2001 -0.2462 -1.1400
  308MOL0     H41540   1.429   7.753   6.747 -2.0616  0.0949  1.4717
  308MOL0     H41541   1.194   7.734   6.750  1.2318  1.3253  1.2011
  308MOL0     H41542   0.815   7.631   6.313  1.6392  1.3763 -1.7192
  308MOL0     H41543   0.563   7.651   6.240 -1.8155  1.3433 -0.4041
  308MOL0     H41544   0.359   7.654   6.433  0.1938  0.7120  1.5507
  308MOL0     H41545   0.305   7.790   6.519  0.7517  1.0159 -0.0099
  308MOL0     H41546   0.185   7.728   6.244  2.5247 -0.2629 -0.2398
  308MOL0     H41547   0.127   7.641   6.389  0.6094  0.1861 -1.3297
  308MOL0     H41548   0.069   7.853   6.501  1.0095  0.0280 -0.1643
  308MOL0     H41549   0.112   7.942   6.344 -0.8065 -0.4857  0.2681
  308MOL0     H41550  -0.087   7.729   6.357  1.0650 -0.8118  3.2363
  308MOL0     H41551  -0.027   7.842   6.226 -0.0825  1.8736  0.8706
  308MOL0     H41552  -0.118   8.028   6.367 -1.4248 -0.1056 -1.0741
  308MOL0     H41553  -0.184   7.905   6.478 -1.1479 -1.2548 -0.4271
  308MOL0     H41554  -0.345   8.006   6.289  2.7636  0.2949  0.8546
  308MOL0     H41555  -0.255   7.890   6.184  1.2330 -2.5386  0.3909
  308MOL0     H41556  -0.408   7.821   6.449 -2.9746  1.0606 -0.8977
  308MOL0     H41557  -0.312   7.713   6.357  1.0586  0.5163  1.3466
  308MOL0     H41558  -0.471   7.762   6.157 -0.3752  2.9625  0.1357
  308MOL0     H41559  -0.543   7.667   6.286 -0.2608 -0.5774 -1.4533
  308MOL0     H41560   0.546   8.010   6.486 -0.2265 -0.9839  1.5723
  308MOL0     H41561   0.779   8.011   6.500  1.5209  1.7542 -3.3141
  308MOL0     H41562   1.189   7.916   6.352 -0.6538 -1.7239 -0.5819
  308MOL0     H41563   1.435   7.941   6.363 -0.0157 -0.0717 -0.2656
  308MOL0     H41564   0.631   8.098   6.209  0.6227  0.8571 -1.8404
  308MOL0     H41565   0.406   8.117   6.242  1.5444 -1.9575 -0.4607
  308MOL0     H41566   0.068   8.437   6.278 -0.1368 -0.1974  0.0799
  308MOL0     H41567  -0.162   8.499   6.269 -0.7928  2.3389  2.6562
  308MOL0     H41568  -0.457   8.367   6.634 -0.6475 -0.9029  1.6850
  308MOL0     H41569  -0.407   8.232   6.537  3.2235  0.7152 -3.6797
  308MOL0     H41570  -0.572   8.298   6.355  2.4255 -0.0945  0.0307
  308MOL0     H41571  -0.590   8.459   6.441 -1.6207  0.4627  0.7831
  308MOL0     H41572  -0.652   8.274   6.644  1.6801 -2.8612 -0.8320
  308MOL0     H41573  -0.716   8.193   6.507 -0.3036  0.4701  2.3948
  308MOL0     H41574  -0.898   8.330   6.585 -1.0934 -3.0576 -3.6584
  308MOL0     H41575  -0.801   8.473   6.565 -0.6721  0.5090 -1.0538
  308MOL0     H41576  -0.944   8.402   6.177  0.3725 -1.2391 -0.6932
  308MOL0     H41577  -0.216   8.278   6.635 -0.0654 -3.7964 -0.7473
  308MOL0     H41578   0.089   8.204   6.717 -0.4388 -2.8802  2.4009
  308MOL0     H41579  -0.079   8.153   6.721 -0.9349  2.8199 -0.0034
  308MOL0     H41580   0.023   8.073   6.604 -0.3026  1.3222 -2.4180
  309MOL0     O41581  10.945   1.176   2.452  0.5566 -0.6332  0.5979
  309MOL0     C41582  10.942   1.072   2.385  0.5449 -0.1909 -0.0609
  309MOL0     O41583  11.039   1.034   2.298  0.3654 -0.0470  0.1459
  309MOL0     C41584  11.166   1.104   2.291  0.4468  1.2159  0.4036
  309MOL0     C41585  11.172   1.240   2.291 -0.7328  0.5319  0.1749
  309MOL0     C41586  11.306   1.292   2.298 -0.4173 -0.0204  0.0243
  309MOL0     C41587  11.424   1.224   2.278  0.8941  1.0266 -0.5126
  309MOL0     O41588  11.546   1.277   2.289 -0.0429  0.0764  0.0090
  309MOL0     C41589  11.563   1.411   2.264  0.7737  0.1843  0.7110
  309MOL0     C41590  11.702   1.411   2.207  0.5517  0.2227  0.3168
  309MOL0     C41591  11.762   1.544   2.169 -0.0081  0.9677 -0.0781
  309MOL0     C41592  11.911   1.531   2.122  0.2968  0.1759 -0.0543
  309MOL0     C41593  11.978   1.670   2.100 -0.7639 -0.1927 -0.5871
  309MOL0     C41594  12.130   1.652   2.078 -0.0012 -0.0575 -0.2481
  309MOL0     C41595  12.202   1.789   2.057  0.5164  1.1647  0.7260
  309MOL0     C41596  12.337   1.795   2.120 -0.6166  0.0001  0.0135
  309MOL0     N41597  12.448   1.764   2.030  0.2847 -0.1159  0.6811
  309MOL0     C41598  12.517   1.858   1.954  0.1933 -0.1909 -0.6076
  309MOL0     C41599  12.635   1.806   1.908 -0.7458  0.3575 -1.3213
  309MOL0     C41600  12.749   1.867   1.833 -0.6295  0.0624 -0.1360
  309MOL0     C41601  12.782   1.791   1.704 -0.1132  0.0889  0.6705
  309MOL0     C41602  12.855   1.651   1.736 -0.0702 -0.8624  0.0194
  309MOL0     C41603  12.919   1.606   1.605  0.2974 -0.0877 -0.6388
  309MOL0     O41604  13.028   1.694   1.577  0.0969  0.5028  0.1548
  309MOL0     C41605  13.083   1.683   1.453 -0.7827 -0.2222 -0.0818
  309MOL0     C41606  13.055   1.581   1.359  0.2737  0.0293  0.6135
  309MOL0     C41607  13.110   1.595   1.230 -0.0936  0.5398 -0.3725
  309MOL0     C41608  13.202   1.688   1.201 -0.4182  0.9790 -0.0432
  309MOL0     C41609  13.276   1.674   1.077  0.3864  0.0510 -0.6355
  309MOL0     O41610  13.281   1.553   1.019  0.8507 -0.0150  0.1490
  309MOL0     C41611  13.315   1.535   0.891 -0.2604  0.2933  0.0403
  309MOL0     C41612  13.260   1.599   0.782  0.0441  0.4408  0.2103
  309MOL0     C41613  13.309   1.574   0.647  0.0705  0.2573  0.3097
  309MOL0     C41614  13.396   1.464   0.621 -0.7002 -0.7357  0.3786
  309MOL0     O41615  13.446   1.431   0.494 -0.1643  0.1425 -0.1074
  309MOL0     C41616  13.502   1.530   0.408  0.7886 -0.7181  0.4820
  309MOL0     C41617  13.554   1.463   0.282 -0.0116  0.7663  0.0878
  309MOL0     C41618  13.684   1.382   0.306 -0.2781 -1.1534 -0.4602
  309MOL0     C41619  13.751   1.364   0.167 -0.5589  0.7297 -0.1975
  309MOL0     C41620  13.866   1.268   0.180  0.2527  0.0062  0.1552
  309MOL0     C41621  13.941   1.234   0.049 -0.1606  0.7794  0.1066
  309MOL0     C41622  14.060   1.124   0.080  0.6760  0.9911  0.2878
  309MOL0     C41623  14.010   0.987   0.109  0.2832  0.2757  0.1105
  309MOL0    Cl41624  13.945   0.911  -0.046 -0.0490  0.1915 -0.4408
  309MOL0     C41625  13.439   1.385   0.732  0.1189 -0.0657  0.6958
  309MOL0     C41626  13.404   1.422   0.867  0.3141 -0.0833  0.6852
  309MOL0     O41627  13.330   1.781   1.028 -0.4801  0.4449 -0.2613
  309MOL0     C41628  13.235   1.788   1.288  0.2160 -0.6892 -0.2038
  309MOL0     C41629  13.168   1.791   1.412 -0.4507 -0.2518 -0.0240
  309MOL0     N41630  12.641   1.674   1.969  0.1167 -0.1715  0.0193
  309MOL0     N41631  12.532   1.659   2.035  0.1922  0.2344  0.0052
  309MOL0     C41632  11.417   1.087   2.271  1.2122 -0.2564 -0.8793
  309MOL0     C41633  11.284   1.029   2.267 -0.2795  0.3562  0.9380
  309MOL0     C41634  10.824   0.983   2.398  0.9627 -0.7139  0.4578
  309MOL0     C41635  10.707   1.048   2.443 -0.3604 -0.2111  0.9739
  309MOL0     C41636  10.586   0.987   2.452  0.3062  0.4633  0.3142
  309MOL0     C41637  10.573   0.854   2.409  0.8367 -0.7937  0.7455
  309MOL0     O41638  10.447   0.797   2.412 -0.9474 -0.4320  0.1077
  309MOL0     C41639  10.453   0.682   2.499  0.4315  0.3882  0.1681
  309MOL0     C41640  10.507   0.702   2.646 -0.9801  0.2476 -0.6671
  309MOL0     C41641  10.414   0.793   2.720  0.2156 -0.2805  0.0087
  309MOL0     C41642  10.462   0.825   2.864 -0.4375  0.9058  0.4521
  309MOL0     C41643  10.593   0.893   2.867  0.2245  0.6823  0.4268
  309MOL0     C41644  10.707   0.930   2.865  0.0761  0.5358  0.5062
  309MOL0     C41645  10.692   0.783   2.367 -0.4329 -0.7939 -0.4248
  309MOL0     C41646  10.819   0.847   2.357 -0.8038 -0.4600  0.1791
  309MOL0     C41647  10.938   0.766   2.327 -0.4988  0.5256 -0.5652
  309MOL0     H41648  11.086   1.305   2.304 -0.9155  0.9684 -2.6847
  309MOL0     H41649  11.305   1.399   2.320  0.6345 -0.0887  0.4712
  309MOL0     H41650  11.503   1.452   2.182  2.6171 -1.9471 -1.9119
  309MOL0     H41651  11.562   1.473   2.353  0.7867  1.5141 -0.1903
  309MOL0     H41652  11.707   1.336   2.127 -1.4718 -0.4785  0.7769
  309MOL0     H41653  11.767   1.357   2.277  1.2165 -1.1384 -1.2724
  309MOL0     H41654  11.774   1.604   2.259  0.7454 -0.9171  1.1492
  309MOL0     H41655  11.710   1.602   2.093 -0.8381  0.7394  0.2979
  309MOL0     H41656  11.965   1.461   2.187 -1.3805 -1.0438  0.0955
  309MOL0     H41657  11.890   1.487   2.024 -3.1143  3.4862 -1.0633
  309MOL0     H41658  11.937   1.722   2.013 -3.9398  0.6503  1.2587
  309MOL0     H41659  11.966   1.739   2.184 -2.0601  0.8113 -1.5666
  309MOL0     H41660  12.176   1.600   2.163  0.4500 -0.5583 -0.7989
  309MOL0     H41661  12.142   1.578   1.999  0.2118  0.0334 -0.3005
  309MOL0     H41662  12.142   1.871   2.098 -1.5676  2.1006 -3.6326
  309MOL0     H41663  12.214   1.798   1.949  0.2091  2.1110  0.7587
  309MOL0     H41664  12.347   1.896   2.159 -0.5895  0.1096 -0.2756
  309MOL0     H41665  12.340   1.729   2.208  0.1254 -1.6060 -1.1754
  309MOL0     H41666  12.483   1.960   1.941 -0.3553  0.2556  3.1748
  309MOL0     H41667  12.720   1.970   1.810 -1.3067  0.3056  1.5811
  309MOL0     H41668  12.839   1.863   1.895 -0.4137 -0.6176 -0.4903
  309MOL0     H41669  12.696   1.774   1.639  1.1620 -1.7188 -0.6229
  309MOL0     H41670  12.847   1.849   1.638 -0.8158 -0.0277 -0.1441
  309MOL0     H41671  12.773   1.583   1.760 -2.0259  0.1161 -3.1587
  309MOL0     H41672  12.938   1.666   1.806  1.8886  1.0189 -2.4978
  309MOL0     H41673  12.845   1.618   1.525 -0.2580  2.0200  0.1254
  309MOL0     H41674  12.941   1.499   1.614 -3.0676 -0.7687  1.4008
  309MOL0     H41675  12.989   1.504   1.397 -2.0933  3.0213  3.1420
  309MOL0     H41676  13.078   1.515   1.164 -0.9616 -0.2199  0.9096
  309MOL0     H41677  13.188   1.676   0.808  1.7229  2.0698  0.1943
  309MOL0     H41678  13.258   1.622   0.564  1.6102  2.0546  0.3516
  309MOL0     H41679  13.411   1.585   0.381  1.5627 -0.3458 -1.5407
  309MOL0     H41680  13.578   1.601   0.443  1.0970  1.5204 -4.0556
  309MOL0     H41681  13.471   1.397   0.254 -0.8826  1.4330  1.0144
  309MOL0     H41682  13.565   1.541   0.206 -3.8200 -0.0732 -1.5584
  309MOL0     H41683  13.753   1.431   0.375 -1.7683 -0.6814  0.7633
  309MOL0     H41684  13.660   1.282   0.343 -3.8695 -0.5430 -0.7749
  309MOL0     H41685  13.788   1.462   0.136 -1.1016  0.8945 -0.3415
  309MOL0     H41686  13.683   1.325   0.090 -2.3745 -1.3529  2.2874
  309MOL0     H41687  13.821   1.172   0.209  0.8596 -0.1120  0.7429
  309MOL0     H41688  13.939   1.298   0.256 -0.1573  4.6778 -1.0363
  309MOL0     H41689  13.861   1.201  -0.017  0.1465 -0.7028  0.4303
  309MOL0     H41690  13.983   1.324   0.004  1.2618 -0.1886 -0.6247
  309MOL0     H41691  14.122   1.154   0.164  2.1534 -1.4164  0.1346
  309MOL0     H41692  14.126   1.126  -0.007 -0.0119  0.8203 -0.2547
  309MOL0     H41693  14.095   0.930   0.148  0.2132 -0.0641 -0.2190
  309MOL0     H41694  13.917   0.980   0.168 -0.5689  1.9805 -0.9606
  309MOL0     H41695  13.507   1.303   0.707 -0.1840  0.7499 -3.7303
  309MOL0     H41696  13.455   1.371   0.948  0.2574 -0.8363  0.2585
  309MOL0     H41697  13.308   1.862   1.258 -1.6188  0.4300 -2.2697
  309MOL0     H41698  13.183   1.878   1.475 -2.1155  0.0776 -0.0440
  309MOL0     H41699  11.508   1.030   2.254  0.8045 -1.8764  1.7137
  309MOL0     H41700  11.263   0.923   2.266  1.3698 -0.0145 -1.1098
  309MOL0     H41701  10.694   1.154   2.466 -2.2601  0.0778 -1.0187
  309MOL0     H41702  10.500   1.042   2.487  0.5048  1.2363 -0.3899
  309MOL0     H41703  10.500   0.595   2.452 -0.4140  0.2160 -0.3748
  309MOL0     H41704  10.355   0.638   2.514  1.7513 -3.1836 -0.6420
  309MOL0     H41705  10.609   0.741   2.651 -1.5210  1.5371  2.7216
  309MOL0     H41706  10.514   0.602   2.689  1.2547  0.0358 -1.3973
  309MOL0     H41707  10.317   0.742   2.727 -0.7581  1.6829  2.3294
  309MOL0     H41708  10.412   0.882   2.656 -0.8218 -1.2024 -1.3025
  309MOL0     H41709  10.384   0.889   2.907 -2.3745 -2.6435  2.7900
  309MOL0     H41710  10.475   0.735   2.926  0.5319  1.7484  1.5140
  309MOL0     H41711  10.811   0.938   2.841  0.2283  0.3706  1.0731
  309MOL0     H41712  10.680   0.686   2.320  0.4594 -1.9257  1.5832
  309MOL0     H41713  11.021   0.813   2.380  0.2888 -1.1298 -0.2666
  309MOL0     H41714  10.932   0.663   2.364 -1.4230  0.8584  0.2619
  309MOL0     H41715  10.962   0.761   2.220  1.0834 -2.0852 -0.1826
  310MOL0     O41716   2.244  11.237   1.802  0.3153  0.1934  0.1883
  310MOL0     C41717   2.272  11.119   1.822 -0.1045 -0.0872  0.0926
  310MOL0     O41718   2.391  11.065   1.779  0.0578  0.2754 -0.3073
  310MOL0     C41719   2.492  11.125   1.701 -0.3930  0.3866  0.1689
  310MOL0     C41720   2.562  11.037   1.612 -0.3298  0.8348 -0.5046
  310MOL0     C41721   2.670  11.082   1.539  0.0795 -0.7928  0.4164
  310MOL0     C41722   2.723  11.207   1.552  0.1530  0.0070  1.0036
  310MOL0     O41723   2.839  11.253   1.491  0.6122 -0.5732 -0.2087
  310MOL0     C41724   2.932  11.160   1.433 -0.3644  0.0168  0.2356
  310MOL0     C41725   2.894  11.125   1.292 -0.3719  0.0500  0.1304
  310MOL0     C41726   2.957  11.226   1.197  1.4284  0.7745  0.3622
  310MOL0     C41727   2.883  11.241   1.062 -0.1691 -0.5961 -0.4292
  310MOL0     C41728   2.979  11.320   0.970  0.1652  1.1214 -0.1937
  310MOL0     C41729   2.900  11.376   0.848  0.6547 -0.0583 -0.4088
  310MOL0     C41730   2.996  11.399   0.731 -1.1564 -0.2965 -0.0226
  310MOL0     C41731   3.098  11.509   0.760 -0.6982  0.3585  0.4573
  310MOL0     N41732   3.172  11.562   0.649 -0.5294  0.4157  0.2658
  310MOL0     C41733   3.274  11.496   0.579 -0.1186 -2.1433 -0.4341
  310MOL0     C41734   3.314  11.587   0.484 -1.0435  0.0897 -0.4512
  310MOL0     C41735   3.407  11.565   0.382 -0.0856 -0.1865 -0.3317
  310MOL0     C41736   3.552  11.567   0.420  0.0225  0.9089  0.5336
  310MOL0     C41737   3.656  11.569   0.298 -0.0632 -0.9275  0.1157
  310MOL0     C41738   3.799  11.528   0.325  0.1995  0.1417 -0.8309
  310MOL0     O41739   3.847  11.590   0.447 -0.6567 -0.1143  0.4789
  310MOL0     C41740   3.973  11.568   0.491 -0.6071 -0.3249 -0.2009
  310MOL0     C41741   4.019  11.644   0.597  0.3608  0.5186 -0.5297
  310MOL0     C41742   4.138  11.622   0.659 -0.1692 -0.0018  0.9562
  310MOL0     C41743   4.224  11.521   0.615 -0.0872 -0.5733 -0.8671
  310MOL0     C41744   4.362  11.512   0.672  0.1189  0.0824 -0.0225
  310MOL0     O41745   4.428  11.397   0.632 -0.9586 -0.6280 -0.8001
  310MOL0     C41746   4.561  11.373   0.663  0.2104 -0.6605  0.6269
  310MOL0     C41747   4.585  11.262   0.738 -0.1242  0.2559 -0.5224
  310MOL0     C41748   4.719  11.232   0.764  0.4374 -0.3406 -0.5692
  310MOL0     C41749   4.826  11.315   0.736  0.2394  0.1188 -0.1311
  310MOL0     O41750   4.957  11.290   0.762 -0.3926  0.3506  0.1785
  310MOL0     C41751   4.982  11.187   0.856  0.4674  0.3531  0.2762
  310MOL0     C41752   5.130  11.199   0.899 -0.4831  0.3842  0.7350
  310MOL0     C41753   5.223  11.187   0.775 -0.8270  0.4712  0.7134
  310MOL0     C41754   5.374  11.206   0.810 -0.8611 -0.4131 -0.0876
  310MOL0     C41755   5.457  11.182   0.678  0.0713  0.9720 -1.0771
  310MOL0     C41756   5.467  11.303   0.580  0.5123  0.9259 -0.4341
  310MOL0     C41757   5.572  11.282   0.469  0.9004  0.0469 -0.4865
  310MOL0     C41758   5.618  11.420   0.409 -0.0554 -0.1833 -0.1839
  310MOL0    Cl41759   5.714  11.524   0.528 -0.4843 -0.2208 -0.4389
  310MOL0     C41760   4.794  11.433   0.665  0.4509 -0.5264  0.0031
  310MOL0     C41761   4.660  11.462   0.619 -0.3513 -0.4092 -0.0406
  310MOL0     O41762   4.395  11.589   0.763 -0.2579 -0.0192  0.3302
  310MOL0     C41763   4.178  11.444   0.503 -0.1115 -0.1561  1.0971
  310MOL0     C41764   4.056  11.473   0.435  0.3121 -0.5521 -0.7876
  310MOL0     N41765   3.234  11.699   0.501 -0.0855  0.0555  0.0463
  310MOL0     N41766   3.141  11.680   0.593 -0.3105  0.4633  0.6108
  310MOL0     C41767   2.652  11.295   1.630 -0.2126  0.4122 -0.0831
  310MOL0     C41768   2.539  11.253   1.710 -0.3530 -0.3044  0.3773
  310MOL0     C41769   2.174  11.030   1.886  0.7465 -0.4549  0.0031
  310MOL0     C41770   2.052  11.090   1.917 -0.1586 -0.3715 -0.3738
  310MOL0     C41771   1.943  11.017   1.969 -0.7507  0.1058 -0.1203
  310MOL0     C41772   1.965  10.879   1.993 -0.3383 -0.7446  0.1373
  310MOL0     O41773   1.856  10.830   2.060 -0.1498 -0.1136 -0.6311
  310MOL0     C41774   1.873  10.694   2.112  0.4521 -0.9184 -0.6982
  310MOL0     C41775   1.753  10.667   2.209  0.0622  0.2868 -0.7562
  310MOL0     C41776   1.616  10.680   2.132 -0.4354 -0.2436  0.5088
  310MOL0     C41777   1.512  10.707   2.238 -0.4032  0.5106  0.8826
  310MOL0     C41778   1.383  10.734   2.174  0.8168 -0.9712  0.0788
  310MOL0     C41779   1.273  10.771   2.135  0.5791 -0.1763 -0.1291
  310MOL0     C41780   2.094  10.819   1.980  0.0258  0.0797  0.3238
  310MOL0     C41781   2.198  10.897   1.928 -0.8565 -0.1497 -1.0587
  310MOL0     C41782   2.333  10.834   1.908  0.5508 -0.4090  0.5942
  310MOL0     H41783   2.519  10.938   1.624  0.4974  0.5422  0.1809
  310MOL0     H41784   2.724  11.010   1.479  0.1560  0.0765 -0.5853
  310MOL0     H41785   3.031  11.205   1.442 -0.7200  0.5533  1.8028
  310MOL0     H41786   2.936  11.070   1.495  0.6539 -0.3646 -0.3660
  310MOL0     H41787   2.785  11.116   1.286 -0.4671  1.8027 -1.4570
  310MOL0     H41788   2.927  11.022   1.276  1.1944  0.3410  1.2697
  310MOL0     H41789   3.051  11.194   1.151  0.5849  0.0631 -0.9369
  310MOL0     H41790   2.972  11.322   1.247  1.4468  1.5455 -1.0701
  310MOL0     H41791   2.862  11.138   1.030  1.1611 -1.0440  0.0916
  310MOL0     H41792   2.795  11.304   1.073  1.4669  1.5087  1.2909
  310MOL0     H41793   3.029  11.393   1.034 -1.0569 -0.3043  2.5332
  310MOL0     H41794   3.053  11.248   0.933 -1.7383 -1.2712  0.3847
  310MOL0     H41795   2.821  11.314   0.803 -1.2685  1.9151  0.0666
  310MOL0     H41796   2.844  11.464   0.881  0.6599  0.4291 -1.6386
  310MOL0     H41797   2.959  11.423   0.631  1.5073  0.7884 -0.8440
  310MOL0     H41798   3.049  11.304   0.719 -2.3429 -0.8843 -0.8384
  310MOL0     H41799   3.048  11.593   0.809 -1.3815 -0.6540  1.5564
  310MOL0     H41800   3.165  11.469   0.837 -2.4249 -0.6095  1.5281
  310MOL0     H41801   3.310  11.396   0.601  0.3628 -1.3704  2.8009
  310MOL0     H41802   3.387  11.477   0.321 -1.4770 -0.6000  0.6706
  310MOL0     H41803   3.389  11.651   0.316  0.2625  1.6778  1.8911
  310MOL0     H41804   3.579  11.647   0.490 -2.5135  2.6458 -0.3150
  310MOL0     H41805   3.559  11.466   0.461 -1.3959  0.8610  0.6859
  310MOL0     H41806   3.650  11.676   0.275 -0.8077 -0.8996  0.3891
  310MOL0     H41807   3.620  11.493   0.228 -1.7829  0.4507 -0.5714
  310MOL0     H41808   3.875  11.551   0.250  1.9552  0.6858  1.0396
  310MOL0     H41809   3.797  11.420   0.342  2.7316  0.2318  0.6168
  310MOL0     H41810   3.956  11.724   0.633  0.2221  1.2264 -2.2338
  310MOL0     H41811   4.163  11.683   0.745 -1.5431 -0.2538  1.5553
  310MOL0     H41812   4.508  11.194   0.774  0.3316  0.7628  1.5100
  310MOL0     H41813   4.721  11.139   0.821 -0.3805 -0.0737 -0.0821
  310MOL0     H41814   4.917  11.193   0.944  0.9029  0.6528  0.5794
  310MOL0     H41815   4.966  11.090   0.809 -0.7560 -0.3144  1.9734
  310MOL0     H41816   5.147  11.295   0.948 -2.5201  0.6536  0.9857
  310MOL0     H41817   5.152  11.119   0.971 -1.6250  0.5166  1.2577
  310MOL0     H41818   5.202  11.090   0.730  1.4103  0.9063 -1.5001
  310MOL0     H41819   5.202  11.256   0.693  1.3607  0.5451  0.1746
  310MOL0     H41820   5.399  11.130   0.886  1.6294  1.2366  0.8782
  310MOL0     H41821   5.385  11.306   0.854  2.1027 -0.0187 -1.4486
  310MOL0     H41822   5.424  11.094   0.622  1.8521  0.0387 -0.7370
  310MOL0     H41823   5.550  11.163   0.731 -1.8904  0.2799  2.3770
  310MOL0     H41824   5.369  11.316   0.533  0.2697  1.1797  0.1391
  310MOL0     H41825   5.485  11.399   0.629  0.0663  0.7007  0.1961
  310MOL0     H41826   5.541  11.210   0.393  0.9038 -1.4553  0.8749
  310MOL0     H41827   5.669  11.244   0.504  0.9802  2.7223  2.6545
  310MOL0     H41828   5.681  11.421   0.321  0.8573  0.5856  0.4531
  310MOL0     H41829   5.524  11.464   0.375  0.6659 -0.6928 -3.0381
  310MOL0     H41830   4.868  11.511   0.651  0.5866 -0.5121  0.7614
  310MOL0     H41831   4.641  11.553   0.564 -2.0483 -0.4178  0.4903
  310MOL0     H41832   4.244  11.367   0.464 -1.1117  0.0768 -1.2242
  310MOL0     H41833   4.035  11.398   0.360 -0.9383 -0.0903 -0.9102
  310MOL0     H41834   2.688  11.396   1.646 -0.5735  0.5869 -0.3535
  310MOL0     H41835   2.497  11.328   1.775  1.2440 -1.4909  2.9445
  310MOL0     H41836   2.026  11.195   1.915  0.8147  0.0067  2.2422
  310MOL0     H41837   1.844  11.057   1.988 -2.1933 -2.6733 -1.1203
  310MOL0     H41838   1.958  10.684   2.180 -2.8465 -3.9373  3.4807
  310MOL0     H41839   1.884  10.617   2.035 -1.0997 -0.8406 -1.0349
  310MOL0     H41840   1.761  10.721   2.303 -1.1105 -1.7257  0.5694
  310MOL0     H41841   1.761  10.565   2.248 -0.2506  1.6039  3.1501
  310MOL0     H41842   1.587  10.594   2.072  0.1294  1.9160 -3.1948
  310MOL0     H41843   1.621  10.766   2.064 -0.6726 -1.7782 -1.5286
  310MOL0     H41844   1.506  10.612   2.293  3.3669 -0.5750 -0.3176
  310MOL0     H41845   1.538  10.796   2.296  1.5386  0.3462  0.3104
  310MOL0     H41846   1.184  10.807   2.088  1.9362 -0.2649 -3.0069
  310MOL0     H41847   2.108  10.717   2.014 -0.6264 -0.0541  0.1951
  310MOL0     H41848   2.419  10.896   1.937 -0.4517  2.0264 -1.2865
  310MOL0     H41849   2.347  10.749   1.976 -1.1456  0.9301  2.7655
  310MOL0     H41850   2.337  10.795   1.806  0.0391 -0.7706  0.7072
  311MOL0     O41851   7.445   2.797   7.096  0.9914 -0.8470  0.4505
  311MOL0     C41852   7.443   2.729   7.200  0.2459 -0.0303 -0.5801
  311MOL0     O41853   7.526   2.635   7.235 -0.1501  0.3262 -0.4495
  311MOL0     C41854   7.652   2.634   7.178 -0.2547 -1.3445 -0.3103
  311MOL0     C41855   7.712   2.515   7.209  0.4199  0.6126  0.7385
  311MOL0     C41856   7.852   2.493   7.173  0.5462  0.2610  0.2494
  311MOL0     C41857   7.920   2.588   7.099  0.0504  0.6870 -0.5759
  311MOL0     O41858   8.046   2.547   7.068 -0.1633  0.0646  0.6445
  311MOL0     C41859   8.113   2.637   6.973 -0.5344  0.1416  0.9759
  311MOL0     C41860   8.259   2.595   6.977  0.7933  0.1651 -0.6127
  311MOL0     C41861   8.337   2.648   6.861  0.3898  0.7438 -0.2725
  311MOL0     C41862   8.483   2.664   6.891 -0.8628  0.6700 -0.8449
  311MOL0     C41863   8.558   2.525   6.903 -0.8958 -0.6994 -0.1240
  311MOL0     C41864   8.702   2.549   6.948 -0.2522 -0.0581  0.5750
  311MOL0     C41865   8.804   2.435   6.915  0.2555 -0.5671 -0.0195
  311MOL0     C41866   8.942   2.488   6.898 -0.9184 -0.0320 -0.0303
  311MOL0     N41867   9.030   2.520   7.015  0.1925  0.4311 -0.4889
  311MOL0     C41868   9.155   2.461   7.045  0.4335 -1.5061 -0.2152
  311MOL0     C41869   9.196   2.522   7.159 -0.2998 -0.5376 -0.2817
  311MOL0     C41870   9.312   2.476   7.249 -0.1585 -0.0636  0.6298
  311MOL0     C41871   9.446   2.474   7.179 -0.4021 -0.9519 -0.2576
  311MOL0     C41872   9.557   2.410   7.258  0.4343 -0.3334 -0.1949
  311MOL0     C41873   9.627   2.500   7.352 -0.2433  0.2169  0.3646
  311MOL0     O41874   9.741   2.428   7.408 -0.0194 -0.2894 -0.1461
  311MOL0     C41875   9.826   2.506   7.479 -0.4375 -0.5391  0.1121
  311MOL0     C41876   9.930   2.440   7.538 -0.9970  0.5399  0.2792
  311MOL0     C41877  10.027   2.507   7.613  0.0969 -0.0355 -0.6542
  311MOL0     C41878  10.019   2.643   7.639 -0.2754 -0.3295  0.4608
  311MOL0     C41879  10.128   2.703   7.719  0.5183 -0.9833  0.5144
  311MOL0     O41880  10.192   2.618   7.807 -0.1916 -0.3242  0.4273
  311MOL0     C41881  10.317   2.662   7.852 -0.3138 -0.6469  0.6102
  311MOL0     C41882  10.438   2.624   7.784 -0.7158  0.0378 -0.3577
  311MOL0     C41883  10.564   2.661   7.836 -0.9005  0.1844  0.5748
  311MOL0     C41884  10.573   2.756   7.939  0.2536 -0.0434 -0.7307
  311MOL0     O41885  10.702   2.792   7.964 -0.5054 -0.2064  0.2654
  311MOL0     C41886  10.747   2.746   8.095 -0.0733  0.5903  0.7027
  311MOL0     C41887  10.796   2.860   8.180  0.3960 -0.7696  0.4785
  311MOL0     C41888  10.701   2.932   8.285  0.8163  0.0656 -0.0502
  311MOL0     C41889  10.692   2.864   8.417 -0.0579 -0.1449  0.0467
  311MOL0     C41890  10.564   2.913   8.490  0.2707 -0.2472  1.1413
  311MOL0     C41891  10.558   2.880   8.637  0.1418 -0.0522 -0.2466
  311MOL0     C41892  10.513   2.729   8.659 -0.0573  0.2914 -0.0653
  311MOL0     C41893  10.381   2.694   8.602  0.6464 -0.1958 -0.0350
  311MOL0    Cl41894  10.249   2.804   8.670 -0.3338  0.0174  0.2665
  311MOL0     C41895  10.455   2.804   7.998 -0.9545 -0.1925  0.2950
  311MOL0     C41896  10.332   2.751   7.952  0.1916 -0.5271 -0.0194
  311MOL0     O41897  10.162   2.819   7.688 -0.1972  0.7589  1.0153
  311MOL0     C41898   9.910   2.708   7.579  0.1353  0.3185  0.4903
  311MOL0     C41899   9.815   2.640   7.504 -0.0180 -0.6400 -0.3466
  311MOL0     N41900   9.100   2.617   7.197  0.5646  0.7807 -0.0310
  311MOL0     N41901   8.997   2.617   7.113 -0.2314  0.5967 -0.2765
  311MOL0     C41902   7.851   2.709   7.060  0.3381 -0.3389 -1.0766
  311MOL0     C41903   7.718   2.731   7.099 -0.3936  0.3126  0.2280
  311MOL0     C41904   7.328   2.756   7.291 -0.6824 -0.4507 -0.3825
  311MOL0     C41905   7.290   2.647   7.375 -1.2201 -0.0042 -0.5110
  311MOL0     C41906   7.195   2.655   7.478  0.1714  0.0756 -0.5903
  311MOL0     C41907   7.124   2.773   7.497  0.2426 -0.0002 -0.6252
  311MOL0     O41908   7.039   2.772   7.608 -0.1650  0.3884  0.3139
  311MOL0     C41909   6.928   2.872   7.615 -1.2994  0.0651  0.4819
  311MOL0     C41910   6.953   2.982   7.714  0.4704  0.3203  0.9780
  311MOL0     C41911   6.841   3.084   7.695 -0.0034 -0.4148  0.6577
  311MOL0     C41912   6.816   3.170   7.815 -1.5218 -0.3650  0.2008
  311MOL0     C41913   6.914   3.285   7.823 -0.8389  1.2539 -0.6692
  311MOL0     C41914   7.001   3.362   7.835  0.1995  0.0368 -0.6548
  311MOL0     C41915   7.146   2.878   7.413  0.0948 -0.2194 -0.5005
  311MOL0     C41916   7.254   2.870   7.313 -0.0840  0.0581 -0.3682
  311MOL0     C41917   7.294   2.996   7.236 -0.1862  0.6816  0.0996
  311MOL0     H41918   7.668   2.443   7.277 -2.3886  2.7692  1.3935
  311MOL0     H41919   7.900   2.409   7.223 -0.4583 -0.5883 -0.1719
  311MOL0     H41920   8.074   2.632   6.871 -2.5775  0.8904  1.6505
  311MOL0     H41921   8.101   2.736   7.019  1.5830  0.8806  0.0611
  311MOL0     H41922   8.270   2.487   6.984 -0.6435  0.0629  0.6276
  311MOL0     H41923   8.301   2.638   7.069 -0.6718  0.6937 -0.1554
  311MOL0     H41924   8.291   2.742   6.831 -1.4101  0.8119  2.3805
  311MOL0     H41925   8.325   2.576   6.779 -3.8058  2.1582 -1.1352
  311MOL0     H41926   8.534   2.726   6.816  0.6977 -0.5859 -0.8824
  311MOL0     H41927   8.499   2.727   6.980  1.0786 -1.7599  0.6634
  311MOL0     H41928   8.499   2.461   6.970 -0.8860 -1.2822 -0.6588
  311MOL0     H41929   8.573   2.479   6.805 -0.8758 -0.2560 -0.3314
  311MOL0     H41930   8.729   2.641   6.895 -1.8212  1.6235  2.5062
  311MOL0     H41931   8.703   2.581   7.053  0.1756  3.0706 -0.2689
  311MOL0     H41932   8.771   2.391   6.820 -5.7973  0.2571  1.3101
  311MOL0     H41933   8.803   2.356   6.990  3.8252 -0.6003  0.1905
  311MOL0     H41934   8.997   2.409   6.846 -4.0403 -2.1667 -0.3393
  311MOL0     H41935   8.935   2.579   6.839 -1.0958  0.2958  0.4829
  311MOL0     H41936   9.216   2.392   6.987  0.3183 -2.2898  0.5684
  311MOL0     H41937   9.324   2.539   7.339  1.2291  0.3190  0.1997
  311MOL0     H41938   9.290   2.373   7.277 -1.2955 -0.0374 -0.1393
  311MOL0     H41939   9.435   2.408   7.093  0.0024 -0.5188 -0.6550
  311MOL0     H41940   9.470   2.578   7.154  0.6654 -0.7114  1.6139
  311MOL0     H41941   9.629   2.376   7.184  0.0446  0.6713 -1.0725
  311MOL0     H41942   9.509   2.332   7.319 -2.2539  0.8108 -0.6813
  311MOL0     H41943   9.559   2.524   7.434  0.5821  0.8974  0.8697
  311MOL0     H41944   9.662   2.595   7.309 -2.0345  1.6702  1.9663
  311MOL0     H41945   9.941   2.333   7.521 -0.8651  0.4977  0.6222
  311MOL0     H41946  10.116   2.455   7.647  0.8509  0.6288 -1.5554
  311MOL0     H41947  10.427   2.541   7.715  0.6037  0.1933 -0.7939
  311MOL0     H41948  10.651   2.617   7.788  0.8100  1.8556  2.0007
  311MOL0     H41949  10.671   2.686   8.145 -0.9118 -1.1343 -2.3624
  311MOL0     H41950  10.825   2.675   8.064  0.8155  1.5242  0.7640
  311MOL0     H41951  10.885   2.833   8.239 -0.0384 -0.3647  1.3490
  311MOL0     H41952  10.818   2.944   8.114 -0.4586 -0.5982  0.3967
  311MOL0     H41953  10.739   3.031   8.312  1.9904 -0.4694  0.3349
  311MOL0     H41954  10.598   2.941   8.248  0.0786  0.1375  1.8898
  311MOL0     H41955  10.782   2.899   8.469 -0.0963 -1.6462  1.1752
  311MOL0     H41956  10.692   2.756   8.404 -3.1922 -0.8153  3.7649
  311MOL0     H41957  10.471   2.878   8.445  0.1976 -0.6936  1.6264
  311MOL0     H41958  10.570   3.022   8.479  1.0182 -0.4031 -0.2257
  311MOL0     H41959  10.661   2.901   8.665 -0.1729  2.1433 -0.5448
  311MOL0     H41960  10.503   2.954   8.696 -1.5058 -1.4648  0.0722
  311MOL0     H41961  10.513   2.713   8.768 -0.9826  0.7592  0.0134
  311MOL0     H41962  10.593   2.665   8.619  2.6622  3.1324  0.4495
  311MOL0     H41963  10.382   2.690   8.493  0.5565  2.0135 -0.1700
  311MOL0     H41964  10.352   2.592   8.630  0.4426 -0.6258 -1.7375
  311MOL0     H41965  10.459   2.881   8.074  0.3102 -0.1681  0.2334
  311MOL0     H41966  10.236   2.790   7.984 -0.0749 -0.9169 -0.3317
  311MOL0     H41967   9.914   2.815   7.595  1.9704  0.9545 -3.0319
  311MOL0     H41968   9.733   2.703   7.469  0.8246  0.0893 -1.0550
  311MOL0     H41969   7.898   2.799   7.021  1.4982 -0.2478  0.4605
  311MOL0     H41970   7.672   2.825   7.071 -1.2002 -0.4578 -1.1632
  311MOL0     H41971   7.340   2.551   7.378  0.1864  0.6710  2.7720
  311MOL0     H41972   7.174   2.573   7.545 -2.3341  1.0218 -0.1311
  311MOL0     H41973   6.837   2.818   7.643 -1.0033  0.4936  2.3918
  311MOL0     H41974   6.900   2.915   7.519  0.4366 -0.6001 -0.3801
  311MOL0     H41975   7.050   3.029   7.697  1.7499 -1.5303  2.7258
  311MOL0     H41976   6.955   2.950   7.818 -0.7179 -0.0569  0.9080
  311MOL0     H41977   6.747   3.029   7.683  0.0367 -0.2494 -0.4881
  311MOL0     H41978   6.854   3.140   7.603 -1.8452 -1.3763 -0.2502
  311MOL0     H41979   6.721   3.224   7.811 -0.4641  1.7015  1.4197
  311MOL0     H41980   6.820   3.106   7.904  1.3956 -1.0004 -0.2823
  311MOL0     H41981   7.071   3.441   7.846  2.4514 -1.6600 -1.8738
  311MOL0     H41982   7.093   2.971   7.427  0.1837 -0.5720  3.0308
  311MOL0     H41983   7.397   3.030   7.253  0.3867 -1.1408  0.4265
  311MOL0     H41984   7.273   2.976   7.130 -2.6287  1.0079  0.4596
  311MOL0     H41985   7.219   3.069   7.269 -1.7611 -0.2672 -1.2332
  312MOL0     O41986  10.055   4.997   5.393 -0.0103 -0.4505 -0.1004
  312MOL0     C41987  10.093   5.076   5.314  0.4519 -0.0338 -0.2994
  312MOL0     O41988  10.231   5.116   5.293 -0.0277  0.0007  0.8056
  312MOL0     C41989  10.339   5.047   5.333 -0.9888  0.3712 -0.1171
  312MOL0     C41990  10.464   5.100   5.300 -0.4834 -0.3907 -0.2142
  312MOL0     C41991  10.580   5.045   5.341  0.0837  0.3084  0.3261
  312MOL0     C41992  10.582   4.921   5.408  0.8332 -0.0641 -0.4686
  312MOL0     O41993  10.692   4.857   5.460  0.2734 -0.2392 -0.8756
  312MOL0     C41994  10.815   4.914   5.500 -0.4776  0.9603  0.4146
  312MOL0     C41995  10.909   4.811   5.558 -0.4117 -1.1283 -0.9069
  312MOL0     C41996  10.938   4.699   5.458 -0.0300 -0.4036  0.1746
  312MOL0     C41997  11.061   4.618   5.522 -0.5874 -1.1449  0.4658
  312MOL0     C41998  11.035   4.560   5.667 -0.7119  0.5074 -0.5457
  312MOL0     C41999  11.141   4.458   5.700 -0.3216 -0.0151  0.3590
  312MOL0     C42000  11.286   4.512   5.703  0.5205 -0.2547 -1.3934
  312MOL0     C42001  11.380   4.414   5.782 -0.4027 -0.0500 -0.0886
  312MOL0     N42002  11.511   4.473   5.795 -0.2544  0.1201  0.0264
  312MOL0     C42003  11.554   4.552   5.899 -0.3377 -0.0237  0.6532
  312MOL0     C42004  11.690   4.554   5.882  0.0033 -0.0808 -0.7782
  312MOL0     C42005  11.787   4.631   5.969  0.0133 -0.2001  0.1688
  312MOL0     C42006  11.821   4.566   6.102 -0.3146  0.0047  0.2237
  312MOL0     C42007  11.901   4.659   6.198  0.1157 -0.0274  0.6430
  312MOL0     C42008  12.030   4.703   6.135 -0.1912 -0.3605 -0.3049
  312MOL0     O42009  12.116   4.591   6.128 -0.1846 -0.0875 -0.0490
  312MOL0     C42010  12.252   4.615   6.105  0.7250 -0.1590 -1.1514
  312MOL0     C42011  12.338   4.522   6.154  0.5300  0.4332 -0.2747
  312MOL0     C42012  12.474   4.548   6.141  0.1619  0.3447  0.3090
  312MOL0     C42013  12.529   4.654   6.073 -0.0878  0.4918  0.2848
  312MOL0     C42014  12.676   4.680   6.070 -0.7456  0.1417  0.3769
  312MOL0     O42015  12.757   4.576   6.110 -0.1831  0.3822  0.1888
  312MOL0     C42016  12.896   4.585   6.131 -0.1818 -0.3769  0.1100
  312MOL0     C42017  12.976   4.470   6.111  0.2594  0.3058  0.4473
  312MOL0     C42018  13.104   4.468   6.161  0.1218 -0.3653  0.9046
  312MOL0     C42019  13.161   4.570   6.237  0.4456  0.3590  0.6261
  312MOL0     O42020  13.287   4.566   6.296  0.2650  0.6114  0.5972
  312MOL0     C42021  13.333   4.659   6.392  0.0203  0.0613 -0.5397
  312MOL0     C42022  13.458   4.608   6.455  0.2663  0.5837 -0.1156
  312MOL0     C42023  13.585   4.643   6.372 -0.9727 -0.0117 -0.6838
  312MOL0     C42024  13.704   4.566   6.416 -0.0486  0.4081 -0.4574
  312MOL0     C42025  13.832   4.607   6.350  0.3025 -0.6048 -0.0701
  312MOL0     C42026  13.925   4.686   6.446 -0.1636  0.0410  0.3322
  312MOL0     C42027  14.014   4.779   6.359  0.0231  0.4764  0.6103
  312MOL0     C42028  14.122   4.859   6.439  0.4499 -0.0967 -0.8361
  312MOL0    Cl42029  14.226   4.950   6.336 -0.2166 -0.5211  0.0871
  312MOL0     C42030  13.082   4.687   6.247 -0.4493 -0.3699  0.0827
  312MOL0     C42031  12.952   4.694   6.202  0.3825 -0.9484  0.0975
  312MOL0     O42032  12.719   4.793   6.028  0.2957 -0.3433 -0.0098
  312MOL0     C42033  12.432   4.741   6.020  0.5560 -0.0750  0.4172
  312MOL0     C42034  12.296   4.731   6.040 -0.1737 -0.1916  0.2435
  312MOL0     N42035  11.727   4.461   5.782  0.2099 -0.3229 -0.2706
  312MOL0     N42036  11.619   4.427   5.724 -0.1324  0.2047 -0.7396
  312MOL0     C42037  10.460   4.856   5.439  1.1902 -0.1416 -0.3491
  312MOL0     C42038  10.339   4.921   5.401 -0.1550  0.2459  0.5724
  312MOL0     C42039   9.985   5.163   5.255 -0.2066  0.4119  0.2099
  312MOL0     C42040   9.860   5.189   5.317 -0.2930  0.1245  0.1497
  312MOL0     C42041   9.757   5.270   5.264  0.0918 -0.1446 -0.5674
  312MOL0     C42042   9.779   5.344   5.156 -0.5634 -0.2933 -0.5093
  312MOL0     O42043   9.685   5.432   5.103  0.5280  0.2613  0.9531
  312MOL0     C42044   9.567   5.449   5.184  0.5671  0.6300 -0.4850
  312MOL0     C42045   9.495   5.570   5.126  0.8907  0.7327 -0.6612
  312MOL0     C42046   9.383   5.619   5.211  0.0250 -0.1748  0.4324
  312MOL0     C42047   9.255   5.541   5.187  0.8750 -0.3548 -0.1154
  312MOL0     C42048   9.209   5.528   5.052 -0.3364  0.5507  0.1636
  312MOL0     C42049   9.166   5.515   4.942 -0.9870  0.3716 -0.3765
  312MOL0     C42050   9.898   5.330   5.092 -0.0362 -0.6745  0.0199
  312MOL0     C42051  10.002   5.241   5.138  0.6667 -0.6010  0.3202
  312MOL0     C42052  10.122   5.232   5.047 -0.0304  0.1848  0.5208
  312MOL0     H42053  10.475   5.193   5.245  0.2466 -1.4287 -1.9159
  312MOL0     H42054  10.676   5.071   5.298  0.2868 -1.1185 -0.1329
  312MOL0     H42055  10.859   4.956   5.408 -0.2464 -1.9676 -0.9367
  312MOL0     H42056  10.792   4.989   5.575 -3.9387  0.4813 -0.0399
  312MOL0     H42057  10.877   4.772   5.655  2.6562  2.6426  1.9749
  312MOL0     H42058  10.998   4.863   5.595 -0.6561 -1.8785  0.8662
  312MOL0     H42059  10.963   4.742   5.361 -0.7424  2.6392  1.2215
  312MOL0     H42060  10.850   4.636   5.444 -0.2585  0.2717 -1.7157
  312MOL0     H42061  11.071   4.533   5.454  1.1350 -0.3145 -0.3681
  312MOL0     H42062  11.156   4.671   5.528 -2.4602  2.5238  0.6767
  312MOL0     H42063  11.047   4.639   5.742 -0.0586  0.7885 -0.9413
  312MOL0     H42064  10.939   4.508   5.672 -1.7353  2.1686 -1.7937
  312MOL0     H42065  11.115   4.418   5.799 -0.6398 -1.7895 -0.4031
  312MOL0     H42066  11.146   4.376   5.628 -1.6376  2.3607 -2.6918
  312MOL0     H42067  11.282   4.605   5.761  1.5937  1.2423 -3.5882
  312MOL0     H42068  11.325   4.530   5.602  2.0951  0.3328 -0.7153
  312MOL0     H42069  11.343   4.396   5.883  1.2144 -0.2220  0.4910
  312MOL0     H42070  11.387   4.315   5.737  0.4788 -0.6583  1.3307
  312MOL0     H42071  11.485   4.597   5.970 -0.6254  0.9288 -0.2125
  312MOL0     H42072  11.880   4.651   5.915 -0.1532  3.6918  0.9759
  312MOL0     H42073  11.748   4.733   5.982 -0.3749 -0.1555 -1.1482
  312MOL0     H42074  11.730   4.530   6.152 -0.5161  0.2474  0.0357
  312MOL0     H42075  11.885   4.483   6.071 -1.2766 -0.8696  0.5443
  312MOL0     H42076  11.929   4.602   6.287 -0.5810 -1.7208 -0.1738
  312MOL0     H42077  11.844   4.750   6.217 -3.6506 -0.7599 -4.8287
  312MOL0     H42078  12.073   4.786   6.192 -2.2147  0.4080  0.1994
  312MOL0     H42079  12.024   4.737   6.032  1.6279  0.7839 -0.0687
  312MOL0     H42080  12.307   4.436   6.212  0.7517  0.8900  0.5476
  312MOL0     H42081  12.541   4.474   6.183 -0.7817  0.6953  2.6478
  312MOL0     H42082  12.946   4.369   6.084  2.2344 -0.3606  0.5725
  312MOL0     H42083  13.169   4.381   6.152  0.7740  0.2248 -0.2997
  312MOL0     H42084  13.366   4.756   6.353  0.6564  0.1114  0.1025
  312MOL0     H42085  13.255   4.667   6.467 -1.5516  0.1173 -2.1155
  312MOL0     H42086  13.468   4.664   6.548 -1.0436  0.2581  0.2472
  312MOL0     H42087  13.447   4.501   6.478 -0.1504  0.0785 -2.3410
  312MOL0     H42088  13.562   4.607   6.271  1.9397  0.1377 -1.4766
  312MOL0     H42089  13.601   4.751   6.371  2.1024 -0.3858 -1.3536
  312MOL0     H42090  13.681   4.461   6.397  0.9710 -0.0422  0.6928
  312MOL0     H42091  13.716   4.575   6.524 -0.3661  2.1956 -0.5371
  312MOL0     H42092  13.818   4.676   6.266  5.4516 -1.0188 -1.6130
  312MOL0     H42093  13.888   4.524   6.306 -0.1300  0.1456 -2.1863
  312MOL0     H42094  13.864   4.743   6.518  0.0296 -0.3068  0.7780
  312MOL0     H42095  13.978   4.610   6.503  0.5471 -0.5049 -1.0264
  312MOL0     H42096  13.956   4.858   6.310 -1.6171 -1.0161  0.0145
  312MOL0     H42097  14.066   4.719   6.285  0.0720 -0.3111  1.2682
  312MOL0     H42098  14.071   4.928   6.505  0.1437  0.8399 -2.0168
  312MOL0     H42099  14.179   4.785   6.497  0.0141 -0.2053 -0.5445
  312MOL0     H42100  13.126   4.781   6.278  2.1347 -1.1806 -0.9009
  312MOL0     H42101  12.906   4.790   6.222 -2.1238 -2.2663  1.0747
  312MOL0     H42102  12.470   4.826   5.964 -1.2056  1.6243  1.6818
  312MOL0     H42103  12.228   4.812   6.015 -2.0563 -1.4494  1.0863
  312MOL0     H42104  10.450   4.776   5.510 -0.0425  0.8360  0.6345
  312MOL0     H42105  10.245   4.877   5.432 -0.4222 -0.1593 -0.7644
  312MOL0     H42106   9.834   5.139   5.410  0.6222 -0.8353 -0.0945
  312MOL0     H42107   9.665   5.273   5.322  1.4793  2.6433  1.7330
  312MOL0     H42108   9.586   5.469   5.290 -4.2844  0.9852  0.5796
  312MOL0     H42109   9.504   5.360   5.200  0.4062  0.5123 -1.7130
  312MOL0     H42110   9.453   5.538   5.031 -0.5975 -1.2919  0.5885
  312MOL0     H42111   9.567   5.648   5.102  1.7622  0.0123 -0.4441
  312MOL0     H42112   9.364   5.724   5.189  2.4552  0.6891  2.0190
  312MOL0     H42113   9.409   5.615   5.318  1.1372  0.7426  0.2127
  312MOL0     H42114   9.283   5.440   5.220  2.7294  0.6705  1.6843
  312MOL0     H42115   9.178   5.595   5.243  0.3236  1.8297 -2.7549
  312MOL0     H42116   9.130   5.518   4.841 -0.4199  3.4772 -0.5874
  312MOL0     H42117   9.903   5.377   4.994 -2.3870 -0.2042  0.0600
  312MOL0     H42118  10.213   5.263   5.099  0.1530 -1.6524  1.3719
  312MOL0     H42119  10.135   5.130   5.010 -1.5995  1.7375 -5.5781
  312MOL0     H42120  10.107   5.294   4.958 -0.7734 -1.0109 -0.2160
  313MOL0     O42121   9.138   7.893   1.925  0.1410  0.4629  0.7627
  313MOL0     C42122   9.095   7.929   1.812 -0.4223 -0.2762  0.5182
  313MOL0     O42123   9.174   7.984   1.716 -0.3606 -0.8708  0.0269
  313MOL0     C42124   9.311   7.974   1.730  0.1207  0.0304  0.6077
  313MOL0     C42125   9.395   8.076   1.784 -0.2760 -0.0664 -0.4653
  313MOL0     C42126   9.532   8.065   1.798 -0.3350 -0.7864  0.9401
  313MOL0     C42127   9.589   7.947   1.750  1.2339 -0.3860 -0.2290
  313MOL0     O42128   9.728   7.919   1.754 -0.1429 -0.9894 -0.5727
  313MOL0     C42129   9.818   8.015   1.821 -1.6461  0.0262 -0.7550
  313MOL0     C42130   9.958   7.953   1.824 -0.0130  0.2818  0.1134
  313MOL0     C42131  10.015   7.923   1.691  0.7645 -0.0478  0.4875
  313MOL0     C42132  10.135   7.829   1.695 -0.3151  0.9030  0.1318
  313MOL0     C42133  10.161   7.782   1.551 -0.9170  0.9964 -0.8354
  313MOL0     C42134  10.272   7.678   1.526  0.2494  0.8024  0.3442
  313MOL0     C42135  10.413   7.711   1.577  0.5466  0.1156  0.1120
  313MOL0     C42136  10.516   7.598   1.546  1.3169 -0.6389 -0.7243
  313MOL0     N42137  10.524   7.573   1.403  0.2204 -0.7539 -0.0787
  313MOL0     C42138  10.605   7.632   1.315 -0.6383 -0.0246  0.1594
  313MOL0     C42139  10.594   7.561   1.198  0.1732  0.6749 -0.1225
  313MOL0     C42140  10.660   7.588   1.065  0.2398  0.3196 -0.2708
  313MOL0     C42141  10.797   7.526   1.057  0.3571 -0.2501  0.5270
  313MOL0     C42142  10.863   7.568   0.921 -0.7393  0.2637 -0.5298
  313MOL0     C42143  11.014   7.531   0.919 -0.7687  0.0986 -0.1688
  313MOL0     O42144  11.043   7.397   0.939 -0.1533  0.3633  0.3196
  313MOL0     C42145  11.168   7.340   0.910 -0.5076  0.2292 -0.0972
  313MOL0     C42146  11.188   7.199   0.948  0.1856 -0.7975 -0.1401
  313MOL0     C42147  11.307   7.138   0.913  0.6229 -0.1794 -0.3647
  313MOL0     C42148  11.415   7.211   0.854 -1.1942 -0.7419  0.0056
  313MOL0     C42149  11.552   7.136   0.846 -0.0876 -0.3183 -0.5053
  313MOL0     O42150  11.658   7.190   0.770  0.4191 -0.0585  0.2764
  313MOL0     C42151  11.784   7.125   0.773 -0.3563 -0.2029  0.3966
  313MOL0     C42152  11.839   7.046   0.882 -0.4442 -0.1521 -0.2692
  313MOL0     C42153  11.967   7.007   0.884  0.3374 -0.0304 -0.0298
  313MOL0     C42154  12.057   7.041   0.786 -0.8497 -0.7264  0.6742
  313MOL0     O42155  12.189   6.998   0.782 -0.5646 -0.9089  0.2251
  313MOL0     C42156  12.267   6.997   0.907  0.5469  0.2485 -0.3677
  313MOL0     C42157  12.409   6.971   0.868  0.0140  0.4846  0.2645
  313MOL0     C42158  12.504   6.958   0.996 -0.1438  0.2956 -0.1123
  313MOL0     C42159  12.649   6.937   0.956 -0.3061 -0.0885  0.1264
  313MOL0     C42160  12.740   6.964   1.078 -0.0767 -0.2610 -0.4637
  313MOL0     C42161  12.881   6.936   1.039  0.3633  0.5881  0.6278
  313MOL0     C42162  12.983   6.933   1.161  0.6724  0.9438  0.3788
  313MOL0     C42163  13.118   6.874   1.114  0.1041 -0.6238  0.5534
  313MOL0    Cl42164  13.181   6.957   0.967 -0.1824 -0.2652 -0.7420
  313MOL0     C42165  12.015   7.125   0.688 -0.5322  0.6421 -0.0546
  313MOL0     C42166  11.880   7.164   0.678  0.2820 -1.1887  1.4815
  313MOL0     O42167  11.552   7.025   0.897 -0.3800  0.0109  1.6119
  313MOL0     C42168  11.394   7.346   0.817  0.2833  0.1869  0.4310
  313MOL0     C42169  11.271   7.403   0.843 -0.7235 -0.7943 -0.7003
  313MOL0     N42170  10.505   7.458   1.216  1.1873  0.1740  0.8507
  313MOL0     N42171  10.457   7.471   1.332 -0.0647  0.8663 -0.4561
  313MOL0     C42172   9.509   7.845   1.695  0.0019  0.1815 -0.1253
  313MOL0     C42173   9.373   7.857   1.680 -0.2029  0.3781  0.0326
  313MOL0     C42174   8.951   7.921   1.775 -0.7658 -0.3779 -0.8114
  313MOL0     C42175   8.890   8.024   1.691 -0.5768 -0.5884  0.2390
  313MOL0     C42176   8.755   8.020   1.662  0.1162  0.6367  0.8740
  313MOL0     C42177   8.687   7.909   1.707 -0.0843  0.1275 -0.5762
  313MOL0     O42178   8.551   7.884   1.690 -0.4426 -0.1587 -0.0887
  313MOL0     C42179   8.478   7.976   1.612 -0.1909  0.2753 -0.0166
  313MOL0     C42180   8.338   7.926   1.607 -0.1259  0.5421 -0.2175
  313MOL0     C42181   8.234   8.032   1.561 -0.3240 -0.4127 -1.0436
  313MOL0     C42182   8.097   7.976   1.515 -0.3436 -0.8569  0.5055
  313MOL0     C42183   8.004   8.078   1.488  1.2724 -0.3752 -0.3152
  313MOL0     C42184   7.919   8.162   1.493  0.0996  0.2234 -0.2974
  313MOL0     C42185   8.750   7.803   1.775  0.8669 -0.9304 -0.3802
  313MOL0     C42186   8.878   7.800   1.804 -0.1955 -0.7775 -0.5601
  313MOL0     C42187   8.939   7.680   1.881  0.0992 -0.6816  0.0210
  313MOL0     H42188   9.344   8.162   1.826 -1.1635 -0.8221  0.0497
  313MOL0     H42189   9.596   8.147   1.827  1.8826 -1.4342 -1.7958
  313MOL0     H42190   9.822   8.118   1.784  2.7846 -0.3652 -1.8555
  313MOL0     H42191   9.792   8.024   1.927  2.6012  0.5874  0.4094
  313MOL0     H42192   9.965   7.875   1.901 -0.5156 -0.1769 -0.2923
  313MOL0     H42193  10.026   8.026   1.867  0.5128 -1.2944  2.1177
  313MOL0     H42194  10.043   8.012   1.633  3.3522 -0.8351  0.4327
  313MOL0     H42195   9.938   7.869   1.636  1.3999 -2.1177  1.5520
  313MOL0     H42196  10.220   7.887   1.733 -0.8188  1.8110 -0.0922
  313MOL0     H42197  10.103   7.747   1.760 -1.0922  0.2509 -1.0303
  313MOL0     H42198  10.066   7.748   1.509 -1.5354 -0.6811  1.7492
  313MOL0     H42199  10.203   7.865   1.492  0.6784  1.8371  1.3319
  313MOL0     H42200  10.242   7.580   1.565  2.0463 -0.4023 -1.1136
  313MOL0     H42201  10.282   7.657   1.419  0.1677  0.0101  0.4806
  313MOL0     H42202  10.409   7.723   1.686 -0.3118  0.9030  0.0106
  313MOL0     H42203  10.451   7.804   1.533 -1.0917  0.3186 -0.9818
  313MOL0     H42204  10.612   7.619   1.593  0.4110 -1.3413  1.6186
  313MOL0     H42205  10.475   7.503   1.582  0.1769 -0.2497 -0.9563
  313MOL0     H42206  10.678   7.713   1.327 -0.3504 -0.1103 -0.8450
  313MOL0     H42207  10.589   7.546   0.993 -2.4884  0.1817  2.3429
  313MOL0     H42208  10.655   7.697   1.061 -3.3254  0.2961  0.4168
  313MOL0     H42209  10.866   7.565   1.132 -0.0371 -1.5845  1.6280
  313MOL0     H42210  10.789   7.417   1.069 -0.8101 -0.3982 -1.1637
  313MOL0     H42211  10.830   7.667   0.887 -0.8056 -0.4289 -2.5877
  313MOL0     H42212  10.816   7.503   0.847 -0.3108 -1.2827  0.4952
  313MOL0     H42213  11.076   7.586   0.990  0.3759  0.8489 -1.7027
  313MOL0     H42214  11.051   7.567   0.822 -2.7641  1.2807 -0.5474
  313MOL0     H42215  11.104   7.144   0.988  1.0725 -1.6369  0.6040
  313MOL0     H42216  11.321   7.034   0.944 -1.7243 -0.4350 -0.0290
  313MOL0     H42217  11.780   7.018   0.968  1.5452 -0.4137  1.0647
  313MOL0     H42218  11.984   6.943   0.970 -0.2548  1.1406  0.9828
  313MOL0     H42219  12.256   7.088   0.966  1.1122  0.7721 -1.0600
  313MOL0     H42220  12.222   6.922   0.972  2.8222  0.9388  2.1963
  313MOL0     H42221  12.430   6.886   0.803 -0.0347 -0.8197  1.8751
  313MOL0     H42222  12.438   7.062   0.815  0.5446  1.1828  1.6861
  313MOL0     H42223  12.504   7.042   1.066  2.0305  0.6082 -0.4113
  313MOL0     H42224  12.474   6.863   1.042  2.2448 -0.6589 -0.3938
  313MOL0     H42225  12.667   7.005   0.872 -0.6872  0.4301  0.4601
  313MOL0     H42226  12.658   6.830   0.935  0.2060 -0.6053  2.6239
  313MOL0     H42227  12.717   6.897   1.162 -0.4990 -0.7663 -0.9762
  313MOL0     H42228  12.727   7.067   1.112 -0.5542  0.3994 -2.5574
  313MOL0     H42229  12.885   6.836   0.997  1.9837 -0.3856  2.8790
  313MOL0     H42230  12.916   7.012   0.968 -0.3656  1.1687  0.8746
  313MOL0     H42231  12.941   6.876   1.244  0.6541  2.9294  1.8046
  313MOL0     H42232  12.996   7.028   1.213  1.5386 -0.6770  3.3752
  313MOL0     H42233  13.197   6.872   1.189  2.1216 -2.3624 -1.4569
  313MOL0     H42234  13.104   6.770   1.083  0.9801 -0.2455 -1.2552
  313MOL0     H42235  12.088   7.154   0.614 -0.3011  0.9465  0.2913
  313MOL0     H42236  11.847   7.232   0.601 -3.3190 -1.6960  2.3754
  313MOL0     H42237  11.478   7.402   0.777  1.3165 -0.6557  1.3518
  313MOL0     H42238  11.246   7.506   0.823 -3.2373 -1.0636  0.6902
  313MOL0     H42239   9.554   7.753   1.657 -2.1353 -1.8133  1.8523
  313MOL0     H42240   9.300   7.794   1.630 -1.5139  1.4134  0.5706
  313MOL0     H42241   8.950   8.111   1.669 -0.3189 -0.9810 -0.6825
  313MOL0     H42242   8.703   8.109   1.629  0.8204  0.9267  0.5189
  313MOL0     H42243   8.514   7.975   1.509 -0.5458 -2.3832 -0.1729
  313MOL0     H42244   8.473   8.076   1.657  0.6425 -0.6931  2.3559
  313MOL0     H42245   8.324   7.899   1.712  0.6535 -0.0540 -0.2517
  313MOL0     H42246   8.327   7.830   1.556 -1.6943  0.4855  0.1665
  313MOL0     H42247   8.285   8.100   1.491 -0.0944 -0.2229 -0.6990
  313MOL0     H42248   8.192   8.082   1.648 -2.6652 -0.4324 -2.1064
  313MOL0     H42249   8.103   7.907   1.431 -0.3954 -0.6687  0.3458
  313MOL0     H42250   8.064   7.910   1.596 -1.4310 -0.9147  0.0186
  313MOL0     H42251   7.864   8.254   1.499  1.1269  0.7812  1.2797
  313MOL0     H42252   8.678   7.734   1.816  0.8212  0.5172  2.1275
  313MOL0     H42253   8.946   7.695   1.989  0.7238  0.0888 -0.1211
  313MOL0     H42254   8.882   7.590   1.858 -0.3654 -0.4699  0.3354
  313MOL0     H42255   9.043   7.672   1.846  0.4523 -0.7865  1.0592
  314MOL0     O42256  10.355  10.258   6.790 -0.2697 -0.2079 -0.3579
  314MOL0     C42257  10.310  10.338   6.875 -0.7246  0.2067  0.1125
  314MOL0     O42258  10.358  10.463   6.897  0.0195 -0.8983  0.1585
  314MOL0     C42259  10.457  10.510   6.820 -0.5740  0.9802 -0.1973
  314MOL0     C42260  10.448  10.551   6.685  0.9731  0.1358 -0.4354
  314MOL0     C42261  10.557  10.603   6.622 -0.3395  0.1182  0.4029
  314MOL0     C42262  10.684  10.620   6.682 -0.6945 -0.3295 -0.8549
  314MOL0     O42263  10.789  10.662   6.607 -0.6746  0.0344 -0.1283
  314MOL0     C42264  10.920  10.699   6.666  0.8939 -0.6697  0.3673
  314MOL0     C42265  11.018  10.590   6.679 -0.6422  0.1461  0.2725
  314MOL0     C42266  11.121  10.617   6.791  0.4581 -0.6011  0.0920
  314MOL0     C42267  11.229  10.507   6.802 -0.8985 -0.0872  0.4863
  314MOL0     C42268  11.353  10.565   6.869  0.3940 -0.4366 -0.5563
  314MOL0     C42269  11.474  10.474   6.868 -0.7302  0.2435  0.0422
  314MOL0     C42270  11.584  10.517   6.973 -1.0137 -0.1904 -0.1999
  314MOL0     C42271  11.662  10.644   6.945  0.1939 -0.5150 -0.3180
  314MOL0     N42272  11.796  10.657   7.010  0.1128 -0.3738  0.3255
  314MOL0     C42273  11.886  10.761   6.985  0.1677  0.0085 -0.0210
  314MOL0     C42274  11.980  10.751   7.076 -0.4879 -0.7113 -0.0702
  314MOL0     C42275  12.112  10.825   7.084  0.6018  0.7624 -0.1027
  314MOL0     C42276  12.215  10.760   6.991 -0.9630  0.6221  0.3323
  314MOL0     C42277  12.346  10.836   6.996 -1.1237 -0.0980  0.6694
  314MOL0     C42278  12.464  10.767   7.076 -0.1386  0.1994  0.4761
  314MOL0     O42279  12.583  10.842   7.071  0.5546  0.1231 -0.2441
  314MOL0     C42280  12.708  10.808   7.118 -0.5945  0.6813  0.3954
  314MOL0     C42281  12.797  10.914   7.114  0.0803  0.4355 -0.5185
  314MOL0     C42282  12.925  10.893   7.159 -0.8921  0.0140  0.4443
  314MOL0     C42283  12.974  10.766   7.200 -0.4952  0.2421 -0.1620
  314MOL0     C42284  13.116  10.750   7.227 -0.6260  0.0664  0.8215
  314MOL0     O42285  13.166  10.617   7.220 -0.3609 -0.8877 -0.0706
  314MOL0     C42286  13.282  10.580   7.284 -0.0377 -0.3352  0.2952
  314MOL0     C42287  13.358  10.483   7.218  0.0160 -0.0636  0.3674
  314MOL0     C42288  13.481  10.451   7.264 -1.2585 -0.1737 -0.2484
  314MOL0     C42289  13.532  10.491   7.389  0.0026  0.9784  0.6896
  314MOL0     O42290  13.650  10.449   7.450  0.3460  0.5957  0.0012
  314MOL0     C42291  13.715  10.329   7.405  0.6335  0.1773  0.5692
  314MOL0     C42292  13.833  10.307   7.490 -0.4886 -0.1886 -0.6385
  314MOL0     C42293  13.957  10.398   7.465 -0.7591 -0.0321  0.0681
  314MOL0     C42294  14.095  10.356   7.534 -0.5057 -0.7182  0.1255
  314MOL0     C42295  14.205  10.467   7.499  0.2621  0.6612 -0.0533
  314MOL0     C42296  14.346  10.422   7.538  0.2463 -0.2899 -0.5506
  314MOL0     C42297  14.452  10.534   7.570  0.7274  0.0941 -0.1022
  314MOL0     C42298  14.499  10.622   7.450  0.0130 -0.4152  0.6643
  314MOL0    Cl42299  14.657  10.682   7.490 -0.2132  0.3181  0.6407
  314MOL0     C42300  13.444  10.574   7.462  0.6457 -0.6939 -0.0224
  314MOL0     C42301  13.320  10.622   7.408 -0.2901 -0.2464 -0.0925
  314MOL0     O42302  13.187  10.850   7.263 -0.0241  0.1960 -0.3015
  314MOL0     C42303  12.888  10.657   7.187 -0.1059 -0.1669  0.2222
  314MOL0     C42304  12.750  10.681   7.161  0.1167 -0.3718  0.4883
  314MOL0     N42305  11.937  10.651   7.165 -0.3034 -0.2452 -0.0104
  314MOL0     N42306  11.827  10.599   7.118  0.2089 -0.5057 -0.0637
  314MOL0     C42307  10.697  10.566   6.811  0.8257 -0.3139 -0.0492
  314MOL0     C42308  10.588  10.512   6.881 -0.5093 -0.3310 -0.5887
  314MOL0     C42309  10.175  10.305   6.924  0.3794 -0.5511  0.2240
  314MOL0     C42310  10.083  10.413   6.927 -1.3692  0.6308  1.0215
  314MOL0     C42311   9.954  10.397   6.980  0.4918  0.2954  0.3062
  314MOL0     C42312   9.903  10.271   7.015  0.0231  0.3195  0.1457
  314MOL0     O42313   9.773  10.236   7.042 -0.1331  0.2334 -0.2085
  314MOL0     C42314   9.670  10.334   7.060  0.6059  0.2870 -0.1177
  314MOL0     C42315   9.539  10.254   7.048  0.0206 -0.0352  0.3273
  314MOL0     C42316   9.529  10.129   7.130  0.8585 -0.3228  0.1838
  314MOL0     C42317   9.382  10.071   7.142 -0.9160 -0.3308  0.3086
  314MOL0     C42318   9.309  10.049   7.014 -0.2381 -0.0138  0.2730
  314MOL0     C42319   9.237  10.030   6.915 -0.3036  0.0797  0.1832
  314MOL0     C42320   9.997  10.168   7.017  0.5983  0.6547  0.3415
  314MOL0     C42321  10.131  10.178   6.967 -1.6262 -0.0140  0.1422
  314MOL0     C42322  10.208  10.050   6.964 -0.1854 -0.2946  0.3587
  314MOL0     H42323  10.354  10.531   6.636  0.7795 -0.1504  0.0408
  314MOL0     H42324  10.546  10.639   6.520 -6.4749 -1.0472  0.2312
  314MOL0     H42325  10.962  10.777   6.602  0.8257 -0.8833  0.0632
  314MOL0     H42326  10.897  10.745   6.763  1.2865  1.5931 -0.5564
  314MOL0     H42327  11.066  10.570   6.583 -0.2074  0.4787  0.4174
  314MOL0     H42328  10.969  10.494   6.701  0.6993 -0.6773 -0.2210
  314MOL0     H42329  11.073  10.617   6.889 -2.5132 -1.9489 -1.2481
  314MOL0     H42330  11.174  10.711   6.770  0.8463 -1.2404 -2.1383
  314MOL0     H42331  11.198  10.412   6.844  0.7185 -0.7301  0.2993
  314MOL0     H42332  11.264  10.487   6.700 -0.2804  3.0698 -0.0245
  314MOL0     H42333  11.376  10.662   6.825 -1.2739  0.1234 -0.2467
  314MOL0     H42334  11.313  10.575   6.970 -2.2807  0.4085 -1.6016
  314MOL0     H42335  11.439  10.374   6.896 -0.6016 -0.2349 -1.4031
  314MOL0     H42336  11.509  10.471   6.764 -0.8529  1.5643 -0.0459
  314MOL0     H42337  11.650  10.430   6.979  1.0895  1.2659 -1.0486
  314MOL0     H42338  11.531  10.532   7.068 -0.0584  3.4588 -0.0711
  314MOL0     H42339  11.676  10.646   6.837 -1.7026 -1.6276 -0.6383
  314MOL0     H42340  11.600  10.729   6.974 -1.6713 -2.3347  1.4041
  314MOL0     H42341  11.876  10.842   6.913 -0.7280 -0.9760 -1.0319
  314MOL0     H42342  12.093  10.925   7.045  1.9200  0.5815 -1.2849
  314MOL0     H42343  12.149  10.823   7.187  2.2025  2.5721 -0.5905
  314MOL0     H42344  12.226  10.655   7.017  0.2027  0.9775  1.3674
  314MOL0     H42345  12.168  10.765   6.892 -1.0198 -0.3037  0.3041
  314MOL0     H42346  12.330  10.936   7.037 -1.5461  0.7110 -1.3535
  314MOL0     H42347  12.385  10.844   6.894  1.2449 -0.3864  1.5015
  314MOL0     H42348  12.478  10.673   7.022  1.1535  0.0220  1.0826
  314MOL0     H42349  12.427  10.731   7.172 -0.7286 -2.3423 -0.6317
  314MOL0     H42350  12.762  11.013   7.086 -0.0109  0.8578  1.0309
  314MOL0     H42351  12.999  10.971   7.164 -2.0140  1.2436 -1.2967
  314MOL0     H42352  13.333  10.455   7.116  0.3413  0.4373  0.1413
  314MOL0     H42353  13.528  10.383   7.193  0.5586 -0.2721  0.9657
  314MOL0     H42354  13.660  10.236   7.421  1.8626 -0.5071  0.9155
  314MOL0     H42355  13.749  10.332   7.301 -1.0302 -0.2916 -0.0199
  314MOL0     H42356  13.799  10.316   7.594  0.2279 -1.8694 -0.2132
  314MOL0     H42357  13.858  10.201   7.474  2.0228  0.5462 -2.1685
  314MOL0     H42358  13.986  10.404   7.360  2.4123 -1.9952  0.6923
  314MOL0     H42359  13.934  10.501   7.494  0.0412  0.8061 -2.0646
  314MOL0     H42360  14.131  10.259   7.497  0.6696  0.4593 -2.0046
  314MOL0     H42361  14.096  10.339   7.642  2.7838  1.6592  0.6197
  314MOL0     H42362  14.173  10.560   7.547 -3.4959 -0.7660  0.5636
  314MOL0     H42363  14.191  10.482   7.391 -4.7345  3.9093  0.7190
  314MOL0     H42364  14.332  10.364   7.630 -0.7108 -0.4218 -0.7675
  314MOL0     H42365  14.381  10.345   7.469  0.2477 -0.6221 -0.1833
  314MOL0     H42366  14.550  10.490   7.589  0.6776 -0.1830 -0.4629
  314MOL0     H42367  14.423  10.587   7.661  0.8897  1.2694 -0.7151
  314MOL0     H42368  14.504  10.560   7.360 -0.4993 -2.7789  2.1627
  314MOL0     H42369  14.418  10.693   7.433 -1.0769 -1.3223  1.8368
  314MOL0     H42370  13.479  10.595   7.562  0.2213 -1.6552  0.3356
  314MOL0     H42371  13.258  10.682   7.473  1.9252 -0.7928  2.7371
  314MOL0     H42372  12.919  10.555   7.207 -0.7605 -0.6330 -1.0588
  314MOL0     H42373  12.681  10.597   7.162  1.6219 -1.6783 -0.8560
  314MOL0     H42374  10.790  10.581   6.864  0.5637  1.5732 -0.0744
  314MOL0     H42375  10.595  10.466   6.980 -1.6683  0.7767  0.0406
  314MOL0     H42376  10.113  10.507   6.882  0.8229 -0.5395 -0.1019
  314MOL0     H42377   9.902  10.492   6.987  3.0990  1.8216  0.5499
  314MOL0     H42378   9.677  10.414   6.985 -0.1157  1.5519  1.1215
  314MOL0     H42379   9.673  10.369   7.164  0.2300 -1.1176  0.3847
  314MOL0     H42380   9.533  10.236   6.940 -1.0334 -0.6083  0.4680
  314MOL0     H42381   9.452  10.316   7.068 -1.5847 -2.2193  0.4304
  314MOL0     H42382   9.570  10.142   7.230 -1.7783  0.7930  1.2265
  314MOL0     H42383   9.588  10.053   7.079  2.0001  0.3745  0.4445
  314MOL0     H42384   9.399   9.972   7.185  0.8427  1.1666  3.3700
  314MOL0     H42385   9.324  10.128   7.215  1.9355  2.6678  0.4932
  314MOL0     H42386   9.186  10.005   6.824  1.1739  0.0707 -0.6672
  314MOL0     H42387   9.960  10.074   7.059  0.7413  0.9246  1.0836
  314MOL0     H42388  10.160   9.980   7.033 -1.1065  1.0611  1.1455
  314MOL0     H42389  10.205  10.003   6.866  0.0420  0.7345 -0.1550
  314MOL0     H42390  10.310  10.062   7.000  0.2119 -2.9566  0.3199
  315MOL0     O42391   3.318   4.937   7.871 -0.6414 -0.3670  0.4109
  315MOL0     C42392   3.360   4.878   7.772  0.1874 -0.9260  0.5126
  315MOL0     O42393   3.277   4.836   7.674  0.0058  0.8201  0.7655
  315MOL0     C42394   3.142   4.866   7.678 -0.0688 -0.4422 -2.7831
  315MOL0     C42395   3.090   4.974   7.603  0.5515  0.8486 -0.0443
  315MOL0     C42396   2.956   5.026   7.632 -0.4063  0.1896  0.0073
  315MOL0     C42397   2.871   4.956   7.721 -0.0735  1.1673 -0.4916
  315MOL0     O42398   2.743   4.992   7.753 -0.4870 -0.5574  0.0453
  315MOL0     C42399   2.704   4.988   7.888  0.2010 -0.2453 -0.5124
  315MOL0     C42400   2.565   5.064   7.896 -0.0205  0.5675  0.8449
  315MOL0     C42401   2.596   5.213   7.871  0.1762  0.4578 -0.1988
  315MOL0     C42402   2.473   5.281   7.840 -0.0313 -0.6211 -1.2832
  315MOL0     C42403   2.489   5.412   7.763  0.1415  0.7666 -0.5448
  315MOL0     C42404   2.367   5.510   7.782  0.3072  0.0963 -0.0695
  315MOL0     C42405   2.382   5.634   7.692 -0.2883 -0.0793  0.3933
  315MOL0     C42406   2.302   5.761   7.750 -0.3669 -0.3596  0.0073
  315MOL0     N42407   2.325   5.877   7.673  0.1788  1.0305  0.3544
  315MOL0     C42408   2.438   5.952   7.669 -0.4429 -0.1574  0.1994
  315MOL0     C42409   2.417   6.042   7.565 -0.1073 -0.7345  0.3272
  315MOL0     C42410   2.514   6.143   7.517 -1.6646 -0.0408  0.6258
  315MOL0     C42411   2.610   6.088   7.409  0.5732 -0.4198 -0.3149
  315MOL0     C42412   2.694   5.972   7.459 -0.3495 -0.5799  0.1544
  315MOL0     C42413   2.820   5.943   7.379 -0.1651  0.5807 -0.7652
  315MOL0     O42414   2.915   6.046   7.423  0.5941  1.2661  0.0975
  315MOL0     C42415   3.043   6.007   7.393  0.2592 -0.5076 -0.0414
  315MOL0     C42416   3.106   5.908   7.467 -0.1708  0.2373 -0.2312
  315MOL0     C42417   3.235   5.881   7.449 -0.1036  0.0995  0.6953
  315MOL0     C42418   3.310   5.946   7.351  0.0696 -0.4859 -0.1969
  315MOL0     C42419   3.458   5.919   7.338  0.9906  0.7838 -0.2006
  315MOL0     O42420   3.521   5.985   7.232 -0.3509 -0.7414  0.3584
  315MOL0     C42421   3.659   5.967   7.200 -0.6102  0.2081 -0.7201
  315MOL0     C42422   3.757   6.007   7.294 -0.4116  0.0221  0.2180
  315MOL0     C42423   3.886   6.019   7.241 -0.0382 -0.5782  0.2977
  315MOL0     C42424   3.919   5.980   7.110 -0.2752 -0.1053 -0.9351
  315MOL0     O42425   4.051   5.972   7.060  0.0755 -0.7447 -0.1145
  315MOL0     C42426   4.147   5.973   7.166 -1.0701  0.0199 -0.7007
  315MOL0     C42427   4.278   5.933   7.099 -0.2709 -0.0686  0.4811
  315MOL0     C42428   4.402   5.927   7.184  0.5828  0.3999 -0.0201
  315MOL0     C42429   4.448   6.059   7.249  0.5405 -0.0831  1.6220
  315MOL0     C42430   4.482   6.055   7.390 -0.7782 -0.7277  0.5424
  315MOL0     C42431   4.365   6.043   7.488 -0.2756 -0.1440 -1.2574
  315MOL0     C42432   4.262   6.158   7.485  0.8333  0.4116  0.5533
  315MOL0     C42433   4.204   6.177   7.623  0.0595 -0.7021 -0.7707
  315MOL0    Cl42434   4.079   6.310   7.624  0.0686 -0.4122  0.0136
  315MOL0     C42435   3.819   5.922   7.034  1.0831  0.0904 -0.5389
  315MOL0     C42436   3.688   5.917   7.076  0.5856 -0.5065 -0.7281
  315MOL0     O42437   3.515   5.850   7.417 -0.4409 -0.2270 -0.6072
  315MOL0     C42438   3.247   6.047   7.276  0.5392 -0.3635 -1.3178
  315MOL0     C42439   3.112   6.081   7.293 -0.0448  0.7563 -0.3702
  315MOL0     N42440   2.296   6.014   7.511  0.0102  0.9384 -0.6531
  315MOL0     N42441   2.244   5.911   7.573  0.9142 -0.2658  0.5792
  315MOL0     C42442   2.925   4.839   7.792  0.5660 -0.5196 -0.0638
  315MOL0     C42443   3.059   4.800   7.769 -0.0234  0.0998 -0.0235
  315MOL0     C42444   3.500   4.826   7.756  0.2988  0.0710  0.0301
  315MOL0     C42445   3.518   4.700   7.691  0.5854 -0.8511 -0.4516
  315MOL0     C42446   3.644   4.648   7.675 -0.0553  0.4639  0.4543
  315MOL0     C42447   3.762   4.719   7.701 -0.4225  0.5956 -0.0652
  315MOL0     O42448   3.880   4.660   7.671 -0.2883  0.2621  0.2198
  315MOL0     C42449   4.005   4.735   7.677 -0.2077  0.2491 -0.1646
  315MOL0     C42450   4.116   4.646   7.628 -0.2449  0.2701 -0.6915
  315MOL0     C42451   4.257   4.719   7.636  0.0835 -0.5676 -0.6780
  315MOL0     C42452   4.283   4.787   7.500 -1.4092  0.0600 -0.3656
  315MOL0     C42453   4.423   4.806   7.473 -0.7428 -0.0071 -0.6906
  315MOL0     C42454   4.539   4.816   7.434  0.8530 -0.5133  0.6279
  315MOL0     C42455   3.742   4.835   7.776  0.4252  0.3716  0.1905
  315MOL0     C42456   3.611   4.888   7.810  0.6565  0.1109 -0.3125
  315MOL0     C42457   3.617   5.009   7.896  0.9219 -0.3784 -0.2510
  315MOL0     H42458   3.147   5.028   7.528  0.1203 -0.8789 -1.6911
  315MOL0     H42459   2.918   5.117   7.586  0.4892  2.0513  2.6871
  315MOL0     H42460   2.682   4.885   7.916 -0.2115 -0.8152 -2.7336
  315MOL0     H42461   2.780   5.035   7.951 -0.5054 -0.4149  0.4864
  315MOL0     H42462   2.527   5.051   7.998 -0.9939 -1.4652  0.2745
  315MOL0     H42463   2.498   5.019   7.822 -0.2408  1.9444  0.1780
  315MOL0     H42464   2.659   5.213   7.782 -0.3079 -3.1628 -0.7020
  315MOL0     H42465   2.652   5.249   7.958  1.7256 -1.1762 -0.4825
  315MOL0     H42466   2.398   5.219   7.790  0.7858 -2.5362 -0.2320
  315MOL0     H42467   2.437   5.295   7.942  3.9054  0.0237  0.1744
  315MOL0     H42468   2.577   5.464   7.803 -0.3482  0.3022  1.2488
  315MOL0     H42469   2.496   5.380   7.659 -1.8568  0.8211 -0.7440
  315MOL0     H42470   2.269   5.465   7.766  0.0044  0.9237 -0.6055
  315MOL0     H42471   2.368   5.535   7.889 -1.8436  1.4813 -0.3169
  315MOL0     H42472   2.328   5.603   7.601 -3.1944  3.5339  0.6610
  315MOL0     H42473   2.486   5.655   7.665  0.3733 -1.7513  1.4957
  315MOL0     H42474   2.195   5.740   7.755 -0.5849  0.9179  1.8901
  315MOL0     H42475   2.344   5.778   7.850 -1.2608  2.4809 -0.0146
  315MOL0     H42476   2.534   5.940   7.717 -0.7405 -2.5861  0.3252
  315MOL0     H42477   2.474   6.240   7.487  3.4796  1.8749 -1.2543
  315MOL0     H42478   2.560   6.184   7.607 -2.4016 -1.4825  1.7081
  315MOL0     H42479   2.545   6.059   7.326 -0.0560 -0.9712  0.3613
  315MOL0     H42480   2.671   6.162   7.356 -1.3090  1.1777 -0.3783
  315MOL0     H42481   2.632   5.882   7.451  1.1127 -1.5768 -0.4937
  315MOL0     H42482   2.725   5.988   7.563 -0.2168  1.8649 -0.1961
  315MOL0     H42483   2.802   5.949   7.272 -0.5416 -2.5958 -0.9700
  315MOL0     H42484   2.857   5.844   7.406  0.6300  1.5463  2.1337
  315MOL0     H42485   3.048   5.851   7.539 -0.9704 -0.6685 -1.5650
  315MOL0     H42486   3.282   5.804   7.510  0.4477  1.3742  1.9483
  315MOL0     H42487   3.733   6.039   7.395 -2.3326  2.5036 -0.9216
  315MOL0     H42488   3.964   6.049   7.310 -0.9994  0.7331  0.8478
  315MOL0     H42489   4.152   6.069   7.218 -0.3077  0.3670 -1.4053
  315MOL0     H42490   4.123   5.887   7.229  0.7067 -0.9839 -1.3205
  315MOL0     H42491   4.258   5.836   7.053 -0.1435  0.7451 -1.4071
  315MOL0     H42492   4.304   6.013   7.028 -1.2756  1.5258  1.8256
  315MOL0     H42493   4.385   5.855   7.264 -0.5330  2.8886  2.1062
  315MOL0     H42494   4.485   5.891   7.122  1.1413  0.5296  0.6448
  315MOL0     H42495   4.362   6.127   7.245 -0.0134 -0.6695  3.0079
  315MOL0     H42496   4.524   6.107   7.186 -0.2931  0.5560  1.0832
  315MOL0     H42497   4.537   6.147   7.412 -1.5974 -0.5179  1.8428
  315MOL0     H42498   4.550   5.971   7.408  1.3497 -0.0218 -3.1535
  315MOL0     H42499   4.321   5.947   7.457 -0.6368 -1.5837  3.0039
  315MOL0     H42500   4.401   6.031   7.590 -1.3466 -3.6499 -1.1597
  315MOL0     H42501   4.185   6.131   7.412  1.0587  1.1944  0.0078
  315MOL0     H42502   4.304   6.250   7.443 -0.3023  0.1939 -1.1707
  315MOL0     H42503   4.158   6.089   7.668 -1.2038  0.6435  0.6881
  315MOL0     H42504   4.284   6.197   7.695 -3.5644 -1.9424  4.1410
  315MOL0     H42505   3.847   5.872   6.942 -1.6717  0.2877 -1.6001
  315MOL0     H42506   3.615   5.861   7.018 -0.1622 -0.0747 -0.2188
  315MOL0     H42507   3.290   6.108   7.197  0.1978  0.0737 -1.1732
  315MOL0     H42508   3.066   6.165   7.242  2.0556  2.3398  0.2150
  315MOL0     H42509   2.859   4.783   7.858 -1.7092 -3.5799 -4.4124
  315MOL0     H42510   3.107   4.734   7.840  1.5640  0.3983 -0.7859
  315MOL0     H42511   3.425   4.658   7.655 -1.0207  1.8401  0.2620
  315MOL0     H42512   3.655   4.559   7.615 -2.4494  0.9201 -0.7857
  315MOL0     H42513   4.019   4.783   7.774  2.2299  2.1645 -1.3546
  315MOL0     H42514   3.999   4.816   7.603  0.6131 -1.3819 -2.1157
  315MOL0     H42515   4.090   4.610   7.528 -0.3864 -1.5812 -0.0339
  315MOL0     H42516   4.112   4.559   7.695  2.2761  0.9942  0.5292
  315MOL0     H42517   4.333   4.644   7.658  1.5560  0.4982 -1.8668
  315MOL0     H42518   4.267   4.792   7.717  0.6808 -0.4815 -0.8243
  315MOL0     H42519   4.260   4.722   7.415 -0.7076 -3.8611  2.1997
  315MOL0     H42520   4.221   4.878   7.496  0.3240  1.3855  1.2392
  315MOL0     H42521   4.640   4.809   7.400  0.1199  1.3260 -2.3209
  315MOL0     H42522   3.831   4.890   7.805  0.7019  0.3494 -0.5978
  315MOL0     H42523   3.601   4.985   8.001 -0.0246 -2.1056 -0.7510
  315MOL0     H42524   3.709   5.067   7.886  0.5525  0.2667  0.0085
  315MOL0     H42525   3.540   5.080   7.862 -0.0944  0.2646  3.0263
  316MOL0     O42526   8.273   5.996   8.033 -0.3584  0.5922 -0.1078
  316MOL0     C42527   8.278   5.911   8.118 -0.8548  0.4583  0.5428
  316MOL0     O42528   8.383   5.885   8.199 -0.7962  0.3570 -0.3465
  316MOL0     C42529   8.508   5.944   8.169 -0.0536 -0.3091  1.7820
  316MOL0     C42530   8.559   6.044   8.251  0.2382 -0.3555  0.2910
  316MOL0     C42531   8.685   6.102   8.212 -0.3769  0.0532  0.1829
  316MOL0     C42532   8.744   6.068   8.088 -0.5124  0.2548 -0.2004
  316MOL0     O42533   8.863   6.118   8.048 -1.2462 -0.4877 -0.2323
  316MOL0     C42534   8.901   6.257   8.083  0.1309  0.3049 -1.0613
  316MOL0     C42535   9.022   6.317   8.013  1.0392  0.3321 -0.3018
  316MOL0     C42536   9.165   6.274   8.041 -0.0357  0.3358  0.3797
  316MOL0     C42537   9.246   6.350   7.941 -0.2462  1.5956  0.1392
  316MOL0     C42538   9.392   6.292   7.950  1.0416 -0.4699  0.2175
  316MOL0     C42539   9.465   6.356   7.833 -0.6885 -0.6424 -0.1479
  316MOL0     C42540   9.621   6.368   7.848 -0.9013  0.1437 -0.0510
  316MOL0     C42541   9.675   6.227   7.823  0.6113  0.8533  0.3154
  316MOL0     N42542   9.820   6.223   7.818  1.8036 -0.2834 -0.5093
  316MOL0     C42543   9.891   6.193   7.934  0.5663 -0.2332  0.2329
  316MOL0     C42544  10.021   6.191   7.884  0.1105  0.3682  1.2291
  316MOL0     C42545  10.143   6.148   7.950 -0.4948 -0.3947  0.1588
  316MOL0     C42546  10.258   6.244   7.922  0.5230  0.1630  0.4791
  316MOL0     C42547  10.387   6.169   7.963  0.3020  0.2497  0.1957
  316MOL0     C42548  10.509   6.246   7.937 -0.5256 -0.0518 -0.6464
  316MOL0     O42549  10.632   6.171   7.957  0.3352 -0.2237 -0.4713
  316MOL0     C42550  10.747   6.240   7.959  0.0204 -0.4906  0.0129
  316MOL0     C42551  10.783   6.353   8.029 -1.1499  0.5720 -0.2165
  316MOL0     C42552  10.915   6.401   8.028  0.2277  0.0735 -0.0256
  316MOL0     C42553  11.017   6.338   7.967  0.1427 -0.8024  0.4578
  316MOL0     C42554  11.157   6.381   7.983 -0.9077 -0.2688 -0.3154
  316MOL0     O42555  11.244   6.294   7.945  0.2756  0.0165 -0.7216
  316MOL0     C42556  11.376   6.317   7.957  0.1790  0.1092  0.5326
  316MOL0     C42557  11.430   6.409   8.052 -0.4658 -0.8929  0.0607
  316MOL0     C42558  11.566   6.436   8.042 -1.0867 -0.2590 -0.5789
  316MOL0     C42559  11.640   6.395   7.927  0.9153  0.2687  0.3349
  316MOL0     O42560  11.778   6.419   7.928  0.4022 -0.2769 -0.4779
  316MOL0     C42561  11.822   6.556   7.949  0.1744 -0.8429  0.8460
  316MOL0     C42562  11.976   6.571   7.946  0.3043 -0.2263 -0.6320
  316MOL0     C42563  12.047   6.595   7.821  0.8524  0.9094  0.0792
  316MOL0     C42564  12.193   6.602   7.845  0.1653  0.3301 -0.2785
  316MOL0     C42565  12.272   6.707   7.759  0.1342 -0.0788  0.4601
  316MOL0     C42566  12.425   6.710   7.764 -0.1769 -0.2302 -0.1002
  316MOL0     C42567  12.478   6.831   7.682 -0.3304  0.4272  0.5907
  316MOL0     C42568  12.637   6.834   7.672  0.6525  0.1710  0.0520
  316MOL0    Cl42569  12.716   6.977   7.582  0.3569 -0.6273 -0.1287
  316MOL0     C42570  11.585   6.296   7.838 -0.1350 -0.1685  0.0310
  316MOL0     C42571  11.454   6.258   7.860  0.0790 -0.0723  0.6346
  316MOL0     O42572  11.177   6.497   8.016  0.2425 -0.3389 -0.2823
  316MOL0     C42573  10.989   6.227   7.887  0.5462  0.4412 -0.2685
  316MOL0     C42574  10.854   6.179   7.881  0.4047 -0.5384  0.3622
  316MOL0     N42575  10.016   6.216   7.748 -0.2866 -0.4892  0.4462
  316MOL0     N42576   9.896   6.235   7.703 -0.4898 -0.5187 -0.4129
  316MOL0     C42577   8.687   5.971   8.007  1.0423  0.8509  0.5132
  316MOL0     C42578   8.577   5.902   8.052  0.5120 -0.2733 -0.0757
  316MOL0     C42579   8.163   5.821   8.141  0.3230  0.5156 -0.2958
  316MOL0     C42580   8.200   5.705   8.214 -0.4518  0.4518  0.2023
  316MOL0     C42581   8.098   5.610   8.245 -0.1947 -0.2141  0.2533
  316MOL0     C42582   7.965   5.623   8.200 -0.3053 -0.6029 -0.0729
  316MOL0     O42583   7.875   5.526   8.237  0.0673 -0.1841 -0.1119
  316MOL0     C42584   7.732   5.561   8.214 -0.3735  0.4256 -1.1265
  316MOL0     C42585   7.642   5.449   8.284 -0.2590  0.1721 -0.0711
  316MOL0     C42586   7.653   5.317   8.200 -0.2830  0.1109 -0.3434
  316MOL0     C42587   7.621   5.319   8.052  0.4438  0.0677 -0.5773
  316MOL0     C42588   7.497   5.392   8.021  0.5476 -0.2443 -0.5708
  316MOL0     C42589   7.391   5.450   7.997 -0.1493  0.4898 -0.5037
  316MOL0     C42590   7.935   5.745   8.126  0.3128  1.0645  0.1052
  316MOL0     C42591   8.032   5.836   8.099 -0.5791  0.9447  0.7543
  316MOL0     C42592   7.977   5.957   8.021 -0.0928  0.0992  0.1157
  316MOL0     H42593   8.526   6.057   8.354 -1.0520  0.8365 -0.2414
  316MOL0     H42594   8.731   6.180   8.271  4.7876 -2.1914 -0.3089
  316MOL0     H42595   8.822   6.331   8.071  0.4339  1.3130  2.1085
  316MOL0     H42596   8.930   6.266   8.189 -1.1601 -2.4710 -0.3848
  316MOL0     H42597   9.009   6.424   8.033 -2.8562 -0.3341  1.8617
  316MOL0     H42598   9.010   6.297   7.906  2.4286 -2.0388 -0.0806
  316MOL0     H42599   9.174   6.168   8.016  2.0494  0.6942 -0.5925
  316MOL0     H42600   9.198   6.303   8.141 -0.7099  1.0007  0.4181
  316MOL0     H42601   9.199   6.332   7.844 -1.6263  0.0112  1.0327
  316MOL0     H42602   9.243   6.457   7.960  0.3535  1.4765  0.9852
  316MOL0     H42603   9.430   6.318   8.049  1.8000  1.0293 -0.4393
  316MOL0     H42604   9.401   6.184   7.937  2.0055 -0.4371  0.5332
  316MOL0     H42605   9.443   6.296   7.743 -1.4578  1.6880 -1.6017
  316MOL0     H42606   9.432   6.460   7.829 -2.0183 -0.9953  0.7726
  316MOL0     H42607   9.665   6.409   7.939  0.4307 -0.1334 -0.5540
  316MOL0     H42608   9.673   6.429   7.773  2.2744  1.7474  3.1452
  316MOL0     H42609   9.644   6.162   7.906  0.5532  0.3165 -0.1215
  316MOL0     H42610   9.640   6.184   7.729  1.8525  0.1688  0.1415
  316MOL0     H42611   9.861   6.172   8.036 -0.9057  0.0331 -0.1300
  316MOL0     H42612  10.125   6.141   8.058 -0.9993 -0.2025  0.0891
  316MOL0     H42613  10.166   6.048   7.913 -3.1000  0.0568 -3.1724
  316MOL0     H42614  10.278   6.273   7.818  1.5273  0.2229  0.6736
  316MOL0     H42615  10.247   6.334   7.982  0.0206 -1.0258  2.2275
  316MOL0     H42616  10.396   6.080   7.901 -0.0972  1.6729 -1.9979
  316MOL0     H42617  10.381   6.134   8.067 -0.6987  1.2192  0.4857
  316MOL0     H42618  10.518   6.332   8.005  0.9757  0.5208 -1.5025
  316MOL0     H42619  10.502   6.289   7.837  0.1383  1.4519 -0.0806
  316MOL0     H42620  10.713   6.397   8.099  1.6905  2.2887  1.7347
  316MOL0     H42621  10.929   6.483   8.098 -0.7563  0.8841 -0.7513
  316MOL0     H42622  11.380   6.458   8.134  2.9663  0.4404  1.5725
  316MOL0     H42623  11.605   6.499   8.121  1.1846 -2.6747  0.3644
  316MOL0     H42624  11.777   6.620   7.872  1.3739  0.9592  1.5753
  316MOL0     H42625  11.797   6.591   8.050 -1.5271  1.4111 -0.2624
  316MOL0     H42626  11.983   6.663   8.005 -0.6029 -0.4342 -0.1852
  316MOL0     H42627  12.014   6.478   7.989  1.7357  1.6251  2.4488
  316MOL0     H42628  12.045   6.511   7.752  2.3322  1.3343 -0.5035
  316MOL0     H42629  12.007   6.682   7.768  0.8299  0.6221 -0.3742
  316MOL0     H42630  12.230   6.502   7.820  1.2510  0.6843 -0.1508
  316MOL0     H42631  12.214   6.623   7.950 -1.1281  1.8584 -0.2951
  316MOL0     H42632  12.233   6.801   7.800  0.4379  0.1598  0.2132
  316MOL0     H42633  12.255   6.688   7.653  1.7152 -2.6884  0.5827
  316MOL0     H42634  12.447   6.733   7.869  0.2558  0.0892 -0.2563
  316MOL0     H42635  12.472   6.614   7.739  1.1327  0.3328  0.0882
  316MOL0     H42636  12.442   6.926   7.722 -2.8133  0.1173 -0.7255
  316MOL0     H42637  12.435   6.812   7.583  0.9167 -1.4863  0.3457
  316MOL0     H42638  12.671   6.837   7.776 -1.1157  0.0579  0.6832
  316MOL0     H42639  12.674   6.741   7.628  0.9985  1.3126 -2.2018
  316MOL0     H42640  11.645   6.262   7.754 -0.7503 -0.5506 -0.2541
  316MOL0     H42641  11.401   6.199   7.786  0.3931 -0.6166  0.8441
  316MOL0     H42642  11.066   6.170   7.835  0.0635 -1.5316  1.0568
  316MOL0     H42643  10.819   6.096   7.821  2.9245 -2.0328  0.7881
  316MOL0     H42644   8.733   5.949   7.911 -0.0164  3.2340 -0.6422
  316MOL0     H42645   8.524   5.828   7.993 -2.1942  1.2017  0.3805
  316MOL0     H42646   8.300   5.679   8.248 -1.4004  1.1625  4.0468
  316MOL0     H42647   8.136   5.520   8.293  0.3532 -1.1672 -1.8760
  316MOL0     H42648   7.698   5.567   8.110 -0.0351  0.8803 -1.2133
  316MOL0     H42649   7.708   5.651   8.270 -1.5487 -1.0968  0.9660
  316MOL0     H42650   7.539   5.481   8.296 -0.6547 -0.3645 -1.7365
  316MOL0     H42651   7.682   5.445   8.385 -1.8619 -1.6138  0.5537
  316MOL0     H42652   7.575   5.255   8.244  0.8596 -1.4240 -0.3642
  316MOL0     H42653   7.751   5.273   8.224 -0.1641  1.8978  2.9922
  316MOL0     H42654   7.709   5.362   8.002 -0.3996  3.7963  0.7868
  316MOL0     H42655   7.594   5.225   8.006 -0.0078 -1.2510  2.1553
  316MOL0     H42656   7.307   5.515   7.985  1.8282  3.0241 -1.6174
  316MOL0     H42657   7.834   5.759   8.087  0.1759 -1.2913 -0.5016
  316MOL0     H42658   7.875   5.934   7.991  0.4857 -2.0155 -0.3904
  316MOL0     H42659   7.981   6.056   8.068  0.0396  0.6089 -0.9487
  316MOL0     H42660   8.030   5.957   7.925 -3.2886  1.6954 -1.8201
  317MOL0     O42661   9.908   5.083   6.088 -0.1431 -0.5746  0.0702
  317MOL0     C42662   9.839   5.065   6.192 -0.5570  0.0562  0.8244
  317MOL0     O42663   9.887   5.016   6.308 -0.4739 -0.0866  0.4817
  317MOL0     C42664  10.020   5.013   6.356 -0.8886  0.9441  0.7592
  317MOL0     C42665  10.030   4.955   6.483  0.3264  0.2085  0.0917
  317MOL0     C42666  10.158   4.927   6.545 -0.5179 -1.0180 -0.2914
  317MOL0     C42667  10.276   4.948   6.473  1.2122 -0.8967 -0.5133
  317MOL0     O42668  10.403   4.934   6.532  0.0202 -0.5327 -0.4416
  317MOL0     C42669  10.421   4.821   6.625 -0.7321 -0.3667  0.4220
  317MOL0     C42670  10.464   4.874   6.767 -0.3065 -0.0600 -1.0839
  317MOL0     C42671  10.509   4.744   6.845 -0.4091  0.4794 -0.0064
  317MOL0     C42672  10.578   4.763   6.972 -0.2931  0.1046 -0.5040
  317MOL0     C42673  10.546   4.650   7.075 -0.3119 -0.3746 -0.2077
  317MOL0     C42674  10.597   4.687   7.215  0.9500  0.5867  0.2051
  317MOL0     C42675  10.556   4.582   7.316 -0.3162  0.4400 -1.1214
  317MOL0     C42676  10.617   4.626   7.455 -0.9542  0.0087  0.2142
  317MOL0     N42677  10.762   4.638   7.448 -0.5897  0.0991  0.0410
  317MOL0     C42678  10.830   4.754   7.437 -0.3670  0.0566 -0.1698
  317MOL0     C42679  10.964   4.712   7.426 -0.4977 -0.0153  0.0685
  317MOL0     C42680  11.103   4.779   7.420  0.5694 -0.5278  0.5592
  317MOL0     C42681  11.093   4.913   7.339 -0.0106 -0.0871  0.5799
  317MOL0     C42682  11.199   5.007   7.397  0.3310 -0.1933 -0.8110
  317MOL0     C42683  11.340   4.969   7.362  0.0255 -0.1243 -0.7225
  317MOL0     O42684  11.379   4.982   7.221  0.1160 -0.4361 -0.2460
  317MOL0     C42685  11.507   4.956   7.199  0.0439  0.2132 -0.5326
  317MOL0     C42686  11.547   4.962   7.069  0.3592 -1.0346  0.1525
  317MOL0     C42687  11.678   4.939   7.034 -0.6929 -0.3538  0.2562
  317MOL0     C42688  11.780   4.910   7.127 -0.4540 -0.6241 -0.6820
  317MOL0     C42689  11.918   4.908   7.089 -0.1021 -0.3275 -0.0809
  317MOL0     O42690  11.958   4.987   6.981 -0.5065  0.5710  0.6654
  317MOL0     C42691  12.093   5.009   6.948 -0.5077  0.1478  0.8660
  317MOL0     C42692  12.123   5.057   6.816  0.8324  0.1522  0.0464
  317MOL0     C42693  12.251   5.093   6.779 -1.1582  0.0168 -0.0039
  317MOL0     C42694  12.352   5.082   6.875  0.2150  0.0126 -0.1250
  317MOL0     O42695  12.488   5.108   6.852  0.7824 -0.1860  0.3572
  317MOL0     C42696  12.503   5.216   6.767  0.4850 -0.4171  0.2878
  317MOL0     C42697  12.654   5.251   6.757  0.6270 -0.2086 -0.1235
  317MOL0     C42698  12.724   5.139   6.690  0.4283  0.1726  0.2615
  317MOL0     C42699  12.860   5.179   6.639  0.8550  0.3690 -0.9371
  317MOL0     C42700  12.965   5.185   6.751 -0.2816  0.6855 -0.5278
  317MOL0     C42701  13.008   5.047   6.800 -0.2402  0.2419 -0.5789
  317MOL0     C42702  13.118   5.077   6.904 -0.4842  0.2435  0.0364
  317MOL0     C42703  13.155   4.945   6.977  0.7003 -0.3918  0.1952
  317MOL0    Cl42704  13.265   4.848   6.876  0.4983  0.4224 -0.0609
  317MOL0     C42705  12.324   5.031   7.006 -1.0382 -0.0840  0.6197
  317MOL0     C42706  12.191   4.999   7.041 -0.4938 -0.4622  0.2758
  317MOL0     O42707  11.983   4.832   7.154  0.4738 -0.1047  0.2219
  317MOL0     C42708  11.737   4.897   7.264 -0.9740 -0.2751 -0.3982
  317MOL0     C42709  11.605   4.912   7.298  0.1793 -0.6910  0.2015
  317MOL0     N42710  10.967   4.572   7.435  0.2513 -0.1349 -0.7296
  317MOL0     N42711  10.846   4.533   7.449  0.4464  0.5323  0.0658
  317MOL0     C42712  10.267   5.035   6.356 -0.4666 -0.0078 -0.0859
  317MOL0     C42713  10.140   5.050   6.288  0.5055 -0.0200  0.5498
  317MOL0     C42714   9.688   5.064   6.168  0.4231  0.0920  0.6218
  317MOL0     C42715   9.634   5.059   6.035 -0.6757 -0.4615  0.8334
  317MOL0     C42716   9.497   5.069   5.999  0.9132 -0.4647  0.4278
  317MOL0     C42717   9.405   5.072   6.097 -0.6738 -1.2531 -0.4172
  317MOL0     O42718   9.276   5.073   6.072  0.8289  0.5154  0.0936
  317MOL0     C42719   9.231   5.184   5.989 -0.1991  0.0242 -0.2518
  317MOL0     C42720   9.140   5.148   5.869  0.5376 -0.5630  0.0754
  317MOL0     C42721   9.024   5.081   5.934  0.3505  0.0693 -0.2409
  317MOL0     C42722   8.897   5.073   5.845  0.5747  0.5222  0.4991
  317MOL0     C42723   8.920   5.009   5.717 -0.1452 -0.2998  0.1013
  317MOL0     C42724   8.947   4.975   5.604  0.2415  0.1845  0.2875
  317MOL0     C42725   9.451   5.075   6.227 -0.6982  0.4805 -1.3491
  317MOL0     C42726   9.585   5.079   6.264 -0.2981 -1.0218 -0.5081
  317MOL0     C42727   9.616   5.083   6.411 -0.1933  0.7832 -0.4064
  317MOL0     H42728   9.936   4.930   6.531 -0.2080 -0.2393 -1.1391
  317MOL0     H42729  10.150   4.892   6.647 -2.8677 -0.5316 -0.2472
  317MOL0     H42730  10.330   4.761   6.630  0.0539 -1.8997 -2.0137
  317MOL0     H42731  10.507   4.763   6.590 -0.1188 -0.7327  2.3976
  317MOL0     H42732  10.383   4.927   6.817 -0.6229 -0.7342 -0.8742
  317MOL0     H42733  10.547   4.946   6.769 -1.7904  1.6957  1.0297
  317MOL0     H42734  10.575   4.685   6.781  0.5890  0.3399  1.1218
  317MOL0     H42735  10.424   4.676   6.855 -0.0280  0.0174  0.1139
  317MOL0     H42736  10.685   4.769   6.951  0.1131 -2.3137  0.5358
  317MOL0     H42737  10.553   4.862   7.011  0.4473  0.3083 -0.5274
  317MOL0     H42738  10.438   4.636   7.083 -0.4281  0.1919 -0.6371
  317MOL0     H42739  10.584   4.551   7.050 -1.3995 -1.5072  2.2801
  317MOL0     H42740  10.706   4.691   7.204  0.9053  1.1657 -0.0841
  317MOL0     H42741  10.557   4.786   7.240  0.6568  0.4133  0.4290
  317MOL0     H42742  10.604   4.488   7.288  0.8998  1.1892 -1.6063
  317MOL0     H42743  10.446   4.580   7.314 -0.3058 -0.2793 -1.2316
  317MOL0     H42744  10.581   4.719   7.502 -0.6334  0.2957 -0.0988
  317MOL0     H42745  10.589   4.544   7.522 -1.5831  0.1166  0.0919
  317MOL0     H42746  10.801   4.859   7.432  2.9165  1.0407 -2.4083
  317MOL0     H42747  11.139   4.788   7.523  1.2267  0.0078  0.2912
  317MOL0     H42748  11.177   4.715   7.373 -2.7941 -4.3336 -0.1214
  317MOL0     H42749  11.108   4.894   7.233  1.4467  1.6312  0.4361
  317MOL0     H42750  11.004   4.969   7.368  1.2918  1.1158  2.4942
  317MOL0     H42751  11.178   5.008   7.505 -0.1585  1.1831 -0.8967
  317MOL0     H42752  11.179   5.102   7.346 -1.2228  0.5332  0.9874
  317MOL0     H42753  11.357   4.864   7.388 -0.2934  0.3781  1.8050
  317MOL0     H42754  11.405   5.018   7.434  0.8830 -2.1450 -0.0526
  317MOL0     H42755  11.467   4.981   6.998 -0.4117  0.2143  1.3055
  317MOL0     H42756  11.700   4.939   6.928 -0.6398  1.3317  0.2452
  317MOL0     H42757  12.046   5.069   6.740  2.5530  0.6800 -1.7005
  317MOL0     H42758  12.269   5.111   6.674 -1.9610 -0.0383 -0.1608
  317MOL0     H42759  12.457   5.198   6.669  2.2346  5.2314 -2.0078
  317MOL0     H42760  12.443   5.299   6.807 -3.3563 -3.1232  0.7339
  317MOL0     H42761  12.666   5.340   6.695 -2.7803  0.5190  0.0953
  317MOL0     H42762  12.686   5.277   6.858 -0.4582 -0.3473  0.2581
  317MOL0     H42763  12.735   5.050   6.753 -1.6272 -0.5346 -0.2820
  317MOL0     H42764  12.658   5.103   6.611 -0.5347 -1.8427  1.8726
  317MOL0     H42765  12.846   5.278   6.594  3.0912  0.2688 -1.9570
  317MOL0     H42766  12.909   5.113   6.568  3.3329 -0.2212  1.1597
  317MOL0     H42767  12.927   5.241   6.837 -1.8796 -0.7585 -0.2311
  317MOL0     H42768  13.053   5.224   6.699  2.0684 -3.9543 -0.5423
  317MOL0     H42769  12.924   4.999   6.851 -1.8035  2.6311 -0.7128
  317MOL0     H42770  13.053   4.986   6.723 -0.7254 -3.1053  1.5816
  317MOL0     H42771  13.091   5.155   6.976  0.0289 -1.4099  2.0994
  317MOL0     H42772  13.194   5.126   6.843  1.9924 -1.5609  1.5008
  317MOL0     H42773  13.199   4.970   7.074 -1.4498 -0.4152  1.2423
  317MOL0     H42774  13.069   4.881   6.999  0.1934 -0.2830 -1.3386
  317MOL0     H42775  12.409   5.012   7.071 -0.6207 -1.4077 -0.2695
  317MOL0     H42776  12.177   4.958   7.141  0.3226  0.8964  0.9789
  317MOL0     H42777  11.807   4.871   7.343  1.0601  4.0160 -0.5263
  317MOL0     H42778  11.585   4.881   7.400  1.5249  1.8098  1.3198
  317MOL0     H42779  10.358   5.056   6.302  0.6713 -1.7510  1.0681
  317MOL0     H42780  10.134   5.084   6.186 -0.3762 -1.4616  0.0899
  317MOL0     H42781   9.703   5.043   5.952 -0.1300 -0.5646  1.3044
  317MOL0     H42782   9.455   5.072   5.900 -1.2670 -0.6352  1.2971
  317MOL0     H42783   9.318   5.238   5.951  1.1109 -1.2998  0.7430
  317MOL0     H42784   9.170   5.250   6.052 -2.4240 -0.3847 -1.8498
  317MOL0     H42785   9.181   5.070   5.804  1.2993 -0.2294  0.1523
  317MOL0     H42786   9.109   5.232   5.806 -1.2927 -0.4099  1.1223
  317MOL0     H42787   8.994   5.120   6.032  2.3945  1.2544 -0.0364
  317MOL0     H42788   9.061   4.981   5.958  1.3263 -0.2182 -2.7082
  317MOL0     H42789   8.825   5.013   5.902  1.0214 -2.9604 -2.2051
  317MOL0     H42790   8.852   5.170   5.821 -0.9948 -0.2334  0.1798
  317MOL0     H42791   8.959   4.954   5.499  1.4656  0.0296  0.4482
  317MOL0     H42792   9.382   5.086   6.310  2.6888 -1.2593  1.9751
  317MOL0     H42793   9.529   5.107   6.472  0.6732  4.0800 -0.2667
  317MOL0     H42794   9.662   4.989   6.444  1.6529  1.6177 -0.4370
  317MOL0     H42795   9.687   5.164   6.434  0.1721  0.9050 -1.9045
  318MOL0     O42796   3.597  10.805   6.339  0.4006 -0.0771 -0.5030
  318MOL0     C42797   3.549  10.747   6.243  1.0393  0.4254 -0.0875
  318MOL0     O42798   3.601  10.635   6.177  0.2482 -0.6384 -0.2792
  318MOL0     C42799   3.718  10.568   6.219  0.4100 -0.6424  0.2689
  318MOL0     C42800   3.768  10.580   6.348 -0.9972 -0.5045 -0.2242
  318MOL0     C42801   3.881  10.505   6.385  0.9187 -0.4321  0.3026
  318MOL0     C42802   3.936  10.410   6.302  0.7810  0.4845  0.3826
  318MOL0     O42803   4.030  10.330   6.362  0.8013 -0.0000  0.4678
  318MOL0     C42804   4.127  10.275   6.280  0.3889  0.0483 -0.8069
  318MOL0     C42805   4.252  10.243   6.374  0.9396 -0.2600  1.0394
  318MOL0     C42806   4.320  10.368   6.433  0.2113 -0.3097 -0.0480
  318MOL0     C42807   4.454  10.342   6.497  0.9193 -0.3040 -0.2702
  318MOL0     C42808   4.501  10.450   6.602  0.8471  0.1701 -0.2494
  318MOL0     C42809   4.649  10.445   6.614 -0.0469 -0.1980 -0.5079
  318MOL0     C42810   4.692  10.540   6.724 -0.4142  0.0819  0.3622
  318MOL0     C42811   4.832  10.497   6.772  1.1850  0.0874 -0.0893
  318MOL0     N42812   4.884  10.584   6.873 -0.8071  0.3380 -0.0246
  318MOL0     C42813   4.819  10.647   6.976  0.4314  0.0356 -0.0186
  318MOL0     C42814   4.915  10.714   7.042 -0.1966 -0.3982 -0.2574
  318MOL0     C42815   4.898  10.813   7.143 -0.6131  0.0466  0.1995
  318MOL0     C42816   4.759  10.819   7.200  0.3913  0.9048 -0.7579
  318MOL0     C42817   4.756  10.906   7.323 -0.4215  0.1614 -0.8467
  318MOL0     C42818   4.605  10.927   7.371 -0.0886  0.1669 -0.4118
  318MOL0     O42819   4.544  11.026   7.280  0.4438  0.0091 -0.5087
  318MOL0     C42820   4.416  11.073   7.300 -0.4474  0.2033 -0.2831
  318MOL0     C42821   4.350  11.052   7.430  0.1592  0.5598  1.0463
  318MOL0     C42822   4.220  11.088   7.446 -0.2712  0.0688  0.7198
  318MOL0     C42823   4.154  11.138   7.342  0.3336  0.0982  0.5308
  318MOL0     C42824   4.017  11.180   7.368 -0.3411 -0.1964 -0.2037
  318MOL0     O42825   3.935  11.177   7.255 -0.0252 -0.0426  0.1773
  318MOL0     C42826   3.801  11.175   7.271  0.0574  0.2044 -0.2597
  318MOL0     C42827   3.732  11.137   7.394  0.8651  0.9675  0.2736
  318MOL0     C42828   3.592  11.150   7.400 -0.2216 -0.9404 -0.5959
  318MOL0     C42829   3.518  11.191   7.284  0.1842  0.1799 -0.4907
  318MOL0     O42830   3.381  11.191   7.293  0.0219  0.5159 -0.1913
  318MOL0     C42831   3.290  11.236   7.189 -0.6528 -0.1731 -0.5001
  318MOL0     C42832   3.155  11.265   7.254 -0.1343 -0.0169 -0.5323
  318MOL0     C42833   3.054  11.333   7.152  0.1379  0.8877  0.6057
  318MOL0     C42834   2.926  11.357   7.220  0.0207 -0.5220 -1.2496
  318MOL0     C42835   2.816  11.386   7.118  0.4205  0.2323  0.2070
  318MOL0     C42836   2.842  11.530   7.065 -0.0538 -0.4928 -0.8100
  318MOL0     C42837   2.771  11.539   6.926 -0.6739 -0.8719 -0.1881
  318MOL0     C42838   2.789  11.680   6.865  0.0440 -0.1655  0.0012
  318MOL0    Cl42839   2.708  11.685   6.710 -0.2418 -0.1907 -0.0335
  318MOL0     C42840   3.584  11.233   7.167  0.2722  0.2149 -0.0684
  318MOL0     C42841   3.722  11.225   7.162 -0.8212  0.0882  0.0030
  318MOL0     O42842   3.980  11.215   7.485 -0.5414  0.5658 -0.2595
  318MOL0     C42843   4.209  11.156   7.212 -0.2346 -0.4351 -0.0163
  318MOL0     C42844   4.344  11.118   7.192  0.5473 -0.5922 -0.2341
  318MOL0     N42845   5.031  10.704   6.963  0.5205 -0.3403 -0.0205
  318MOL0     N42846   5.013  10.623   6.867 -0.0612 -0.5666  0.0770
  318MOL0     C42847   3.882  10.396   6.170 -0.1647  0.4704  0.4027
  318MOL0     C42848   3.777  10.481   6.130 -0.4291  0.2655 -0.1663
  318MOL0     C42849   3.405  10.777   6.208 -0.7183  0.1227  0.2839
  318MOL0     C42850   3.332  10.684   6.126 -0.5609 -0.3896  0.2508
  318MOL0     C42851   3.200  10.711   6.094  0.2658 -0.1117  0.1497
  318MOL0     C42852   3.131  10.817   6.146 -0.4064  0.3202 -0.2044
  318MOL0     O42853   2.999  10.854   6.117  0.2377 -0.5993 -0.2318
  318MOL0     C42854   2.933  10.787   6.005 -0.2107 -0.3143 -0.3659
  318MOL0     C42855   2.974  10.849   5.866  0.8738 -0.0702 -0.9723
  318MOL0     C42856   2.931  10.997   5.845  0.9669 -0.8945  0.6317
  318MOL0     C42857   2.781  11.037   5.848  0.4455  0.1818 -0.0964
  318MOL0     C42858   2.704  10.949   5.760 -0.3111  0.8728 -0.2744
  318MOL0     C42859   2.657  10.875   5.683  0.9603 -0.1704  0.1224
  318MOL0     C42860   3.201  10.914   6.225  0.3211 -0.1770  0.1793
  318MOL0     C42861   3.339  10.903   6.249 -0.3072  0.4381  0.6302
  318MOL0     C42862   3.414  11.024   6.303  0.7620 -0.5352  0.2551
  318MOL0     H42863   3.727  10.647   6.423  1.3309  1.9533 -0.9998
  318MOL0     H42864   3.907  10.510   6.491 -0.6233  2.3604  0.6555
  318MOL0     H42865   4.080  10.187   6.235 -0.3560  0.0019  0.0323
  318MOL0     H42866   4.164  10.336   6.197  0.1412  1.8306  0.3413
  318MOL0     H42867   4.319  10.179   6.315 -1.2548 -2.0989  0.3961
  318MOL0     H42868   4.218  10.183   6.459 -3.0171 -0.1997 -0.3196
  318MOL0     H42869   4.247  10.416   6.498 -0.3248 -0.0030 -0.8579
  318MOL0     H42870   4.341  10.429   6.344 -0.3293 -1.5685 -1.0861
  318MOL0     H42871   4.453  10.241   6.539 -0.2148 -0.9952 -1.8873
  318MOL0     H42872   4.524  10.336   6.413 -0.3576  0.8227 -1.4523
  318MOL0     H42873   4.476  10.552   6.572  2.9352  0.7839 -0.0683
  318MOL0     H42874   4.453  10.430   6.698  1.2573 -1.3595 -0.3267
  318MOL0     H42875   4.685  10.344   6.638  0.3586  0.6058  2.7236
  318MOL0     H42876   4.696  10.474   6.519  1.5204 -1.0705 -0.0289
  318MOL0     H42877   4.616  10.537   6.803 -1.3543 -2.5119 -0.5490
  318MOL0     H42878   4.699  10.641   6.683  1.0128 -1.1442 -2.7086
  318MOL0     H42879   4.832  10.400   6.822 -0.7890  0.8866  1.6586
  318MOL0     H42880   4.910  10.488   6.697 -0.1344 -0.8863 -1.3989
  318MOL0     H42881   4.713  10.644   6.995  0.3690 -1.3027 -0.4421
  318MOL0     H42882   4.960  10.764   7.219  2.4262  0.6888 -1.7008
  318MOL0     H42883   4.938  10.909   7.109 -1.7758  0.1290 -1.0246
  318MOL0     H42884   4.694  10.857   7.121  0.1520  0.5763 -0.7178
  318MOL0     H42885   4.717  10.720   7.218 -0.4868  0.8617 -2.8065
  318MOL0     H42886   4.800  11.004   7.303  2.2747 -0.2200  2.2335
  318MOL0     H42887   4.815  10.861   7.404 -1.5142  0.6106  0.2346
  318MOL0     H42888   4.609  10.969   7.472 -1.4580  2.1142 -1.1069
  318MOL0     H42889   4.554  10.831   7.378 -2.0060  1.2449  4.6893
  318MOL0     H42890   4.404  11.020   7.519  0.8211 -2.1884 -0.2375
  318MOL0     H42891   4.172  11.078   7.542  0.6052  0.8137  1.2479
  318MOL0     H42892   3.784  11.097   7.480  1.3455  0.6414 -0.1661
  318MOL0     H42893   3.534  11.143   7.491 -0.1155 -2.1324 -0.6011
  318MOL0     H42894   3.328  11.328   7.143  0.5941 -1.0307 -1.2636
  318MOL0     H42895   3.284  11.161   7.110 -0.1324  0.2787 -0.9857
  318MOL0     H42896   3.126  11.169   7.297  0.1669 -0.7889 -1.9922
  318MOL0     H42897   3.164  11.336   7.337 -6.7156  0.2814  0.3938
  318MOL0     H42898   3.101  11.428   7.124 -0.8203  0.7723 -1.5545
  318MOL0     H42899   3.050  11.279   7.058  0.8527  3.3600 -0.9441
  318MOL0     H42900   2.915  11.423   7.307 -2.9499 -1.1009 -1.0803
  318MOL0     H42901   2.908  11.255   7.255  1.9012 -0.3463  0.4118
  318MOL0     H42902   2.716  11.377   7.162 -0.7850  1.3811 -2.1024
  318MOL0     H42903   2.825  11.318   7.033  2.7014 -0.1636  0.7103
  318MOL0     H42904   2.804  11.607   7.132  0.3539 -0.3845 -0.7003
  318MOL0     H42905   2.942  11.557   7.030  0.6811 -2.7506 -0.6323
  318MOL0     H42906   2.664  11.522   6.935 -0.1437 -3.5866  2.2997
  318MOL0     H42907   2.812  11.469   6.853 -0.4762 -0.3006 -0.6369
  318MOL0     H42908   2.744  11.751   6.935 -3.6558 -1.6741 -0.6051
  318MOL0     H42909   2.889  11.720   6.849  0.1549  1.7250  4.0271
  318MOL0     H42910   3.531  11.262   7.077  2.8179  0.5945 -1.5227
  318MOL0     H42911   3.782  11.252   7.075  0.0816 -2.0029 -0.1065
  318MOL0     H42912   4.159  11.180   7.119 -0.2957 -1.5975 -0.3032
  318MOL0     H42913   4.380  11.130   7.090 -0.7915 -0.7046 -0.7450
  318MOL0     H42914   3.925  10.321   6.105  0.9269 -1.4212  3.1420
  318MOL0     H42915   3.742  10.463   6.029 -2.5108 -1.7006  0.8135
  318MOL0     H42916   3.378  10.599   6.077  0.5972  1.2226 -1.6151
  318MOL0     H42917   3.148  10.627   6.048  0.4649 -0.9062  1.3290
  318MOL0     H42918   2.828  10.814   6.017  0.2828  0.9103  1.5874
  318MOL0     H42919   2.945  10.679   6.006  2.0915 -0.1473 -1.5840
  318MOL0     H42920   2.929  10.791   5.784  2.9146 -0.9366 -1.5340
  318MOL0     H42921   3.082  10.844   5.853  1.2477  1.1426  1.2558
  318MOL0     H42922   2.971  11.022   5.746  0.5456 -1.2362  0.3726
  318MOL0     H42923   2.994  11.061   5.908  1.7210 -0.2709 -0.6994
  318MOL0     H42924   2.740  11.034   5.950 -2.9068 -0.1665 -1.3482
  318MOL0     H42925   2.785  11.141   5.813 -2.2800 -0.0124 -1.1590
  318MOL0     H42926   2.610  10.808   5.614  1.2455 -1.5274  1.1951
  318MOL0     H42927   3.151  11.004   6.258  4.2759  1.6383  1.8338
  318MOL0     H42928   3.469  11.071   6.221 -0.3125 -0.7838 -0.6324
  318MOL0     H42929   3.340  11.098   6.336  1.3071  1.3640 -2.3967
  318MOL0     H42930   3.483  11.007   6.386 -2.0806 -1.8624  2.5333
  319MOL0     O42931   5.476   5.778   7.570 -0.2325  0.1096  0.7464
  319MOL0     C42932   5.480   5.740   7.451 -0.4856 -0.0821 -0.2256
  319MOL0     O42933   5.595   5.698   7.384 -0.5420  0.2111  0.1746
  319MOL0     C42934   5.721   5.709   7.443  0.2548 -0.0411 -1.2250
  319MOL0     C42935   5.810   5.615   7.401 -0.2415  0.5685  0.7506
  319MOL0     C42936   5.933   5.598   7.454 -0.9098  0.2589 -0.6038
  319MOL0     C42937   5.966   5.688   7.560 -0.5118 -0.2148 -0.6904
  319MOL0     O42938   6.090   5.667   7.619  0.2130  0.5948  0.2534
  319MOL0     C42939   6.199   5.668   7.525 -0.1108  0.8652 -1.0644
  319MOL0     C42940   6.336   5.706   7.566  0.1889 -0.4513 -0.4243
  319MOL0     C42941   6.400   5.605   7.658 -0.4778  0.7547  0.2128
  319MOL0     C42942   6.546   5.657   7.695 -0.0583  0.2506  0.2018
  319MOL0     C42943   6.604   5.588   7.817  0.5769  0.3827  0.0383
  319MOL0     C42944   6.746   5.631   7.840  0.0104 -0.3101 -0.2741
  319MOL0     C42945   6.801   5.570   7.958  0.1767  0.3168  0.1208
  319MOL0     C42946   6.953   5.604   7.964  0.1960 -0.7789  0.3117
  319MOL0     N42947   7.013   5.545   8.079 -0.6297 -0.6660  1.0788
  319MOL0     C42948   7.032   5.404   8.088  0.1831 -0.8261  0.3088
  319MOL0     C42949   7.061   5.389   8.221  0.6928  0.6993  0.1518
  319MOL0     C42950   7.071   5.263   8.303  0.2426 -0.7611 -0.2397
  319MOL0     C42951   7.209   5.234   8.347 -0.9909 -0.7129 -0.5673
  319MOL0     C42952   7.237   5.095   8.374 -1.1398 -0.2471  0.1426
  319MOL0     C42953   7.390   5.066   8.375  0.0313  0.1520  0.4416
  319MOL0     O42954   7.397   4.923   8.415 -1.1777 -0.4141 -0.8375
  319MOL0     C42955   7.520   4.867   8.374  0.7111  0.0485 -0.1676
  319MOL0     C42956   7.523   4.729   8.352 -0.2890 -0.3995 -0.1503
  319MOL0     C42957   7.633   4.668   8.299 -0.0664 -0.2133 -0.3095
  319MOL0     C42958   7.762   4.736   8.279  0.6973 -0.5126  0.3516
  319MOL0     C42959   7.884   4.677   8.213 -0.0364 -0.2197  0.5989
  319MOL0     O42960   7.905   4.547   8.242 -0.0011  0.0619 -0.2894
  319MOL0     C42961   8.012   4.478   8.174  0.1996 -0.6542  0.2634
  319MOL0     C42962   8.028   4.478   8.035  0.3014 -0.3098 -0.6321
  319MOL0     C42963   8.131   4.405   7.978 -0.0434  0.1952 -0.3142
  319MOL0     C42964   8.211   4.324   8.059 -0.0556 -1.3548  0.1433
  319MOL0     O42965   8.292   4.241   7.993 -0.0744  0.2328 -0.3206
  319MOL0     C42966   8.427   4.214   8.031 -0.4349 -0.4274 -0.3382
  319MOL0     C42967   8.514   4.285   7.931 -0.1624 -0.3535 -0.6001
  319MOL0     C42968   8.656   4.262   7.983 -0.5899 -0.2305  0.4584
  319MOL0     C42969   8.759   4.344   7.902 -0.9508 -0.5955  0.6588
  319MOL0     C42970   8.732   4.333   7.752  0.5641  0.2985 -0.2155
  319MOL0     C42971   8.742   4.186   7.705 -0.6057  0.1437  0.5790
  319MOL0     C42972   8.890   4.135   7.683  0.1308 -0.0482 -0.2571
  319MOL0     C42973   8.941   4.149   7.537 -0.7735  0.1521 -0.2172
  319MOL0    Cl42974   9.117   4.118   7.539  0.5037  0.2812  0.4468
  319MOL0     C42975   8.192   4.320   8.198  0.2846  0.6655 -0.3592
  319MOL0     C42976   8.089   4.392   8.254 -0.0875 -0.0745 -0.5229
  319MOL0     O42977   7.958   4.743   8.137 -0.0106 -0.5557 -0.0289
  319MOL0     C42978   7.753   4.871   8.296 -0.2781 -0.1099 -0.4427
  319MOL0     C42979   7.635   4.940   8.338  0.1717  0.9372 -0.0807
  319MOL0     N42980   7.075   5.507   8.275  0.5616 -0.7582  0.4530
  319MOL0     N42981   7.040   5.600   8.196 -0.3423 -0.3323 -0.3170
  319MOL0     C42982   5.893   5.798   7.592 -0.1480 -0.1008 -0.2467
  319MOL0     C42983   5.761   5.809   7.530 -0.7017 -0.9632 -0.6879
  319MOL0     C42984   5.350   5.748   7.370 -0.0429 -0.6281 -0.9292
  319MOL0     C42985   5.352   5.807   7.244 -0.1639 -0.6364  0.1287
  319MOL0     C42986   5.246   5.809   7.160  0.7531 -0.5053  0.7952
  319MOL0     C42987   5.133   5.739   7.199 -0.0636 -0.1863 -0.9708
  319MOL0     O42988   5.036   5.702   7.117 -0.0666  0.0528 -0.1488
  319MOL0     C42989   5.057   5.566   7.072 -0.0597 -0.1847  1.0663
  319MOL0     C42990   5.029   5.555   6.924  0.0722 -1.7878 -0.5879
  319MOL0     C42991   4.991   5.411   6.878  0.4499  0.3228  0.5196
  319MOL0     C42992   4.944   5.419   6.731 -1.0285 -0.0421 -0.5550
  319MOL0     C42993   4.880   5.293   6.693 -0.1184  0.4058 -0.7724
  319MOL0     C42994   4.822   5.196   6.651  0.0759  1.0661 -0.0299
  319MOL0     C42995   5.119   5.694   7.326  0.3515  1.3505 -0.0677
  319MOL0     C42996   5.223   5.693   7.418 -0.1669  0.6885  0.1680
  319MOL0     C42997   5.221   5.612   7.542  0.6317  0.1058  0.4566
  319MOL0     H42998   5.772   5.551   7.322 -2.0954  1.6566  0.7075
  319MOL0     H42999   6.001   5.524   7.413 -2.8361 -0.5460 -2.4860
  319MOL0     H43000   6.200   5.563   7.496 -1.2032  1.6593 -4.3526
  319MOL0     H43001   6.180   5.728   7.436 -0.4968  1.5557 -0.5244
  319MOL0     H43002   6.322   5.808   7.601 -0.6957 -0.2343 -1.3515
  319MOL0     H43003   6.383   5.706   7.468  0.7360  0.0065 -0.1646
  319MOL0     H43004   6.420   5.511   7.606 -0.9130  0.5393  0.4378
  319MOL0     H43005   6.354   5.569   7.750  1.1628 -3.5115 -0.4046
  319MOL0     H43006   6.617   5.647   7.612 -0.3622  0.5065 -0.0939
  319MOL0     H43007   6.540   5.764   7.715  0.2866  0.3080  0.0002
  319MOL0     H43008   6.537   5.607   7.901 -2.0619 -0.4750 -1.7326
  319MOL0     H43009   6.600   5.480   7.801  1.8251  0.5509 -1.6796
  319MOL0     H43010   6.808   5.613   7.752  2.3834  0.2556  1.1791
  319MOL0     H43011   6.735   5.738   7.859 -3.0987 -0.1516 -2.2569
  319MOL0     H43012   6.791   5.462   7.939  2.5806 -0.1372  1.0968
  319MOL0     H43013   6.744   5.600   8.046  0.1342  1.4238 -0.2672
  319MOL0     H43014   6.992   5.565   7.870  1.9016  0.4990  0.4513
  319MOL0     H43015   6.969   5.711   7.978 -1.7136 -0.5709  1.1853
  319MOL0     H43016   7.025   5.330   8.010 -0.0265  0.4722 -0.9398
  319MOL0     H43017   7.002   5.269   8.387  0.0352  0.4912 -0.4935
  319MOL0     H43018   7.043   5.182   8.235 -0.0185  0.4855 -1.6446
  319MOL0     H43019   7.278   5.274   8.272 -1.4679  0.4844 -0.3891
  319MOL0     H43020   7.219   5.290   8.440 -0.3393  1.5013 -1.8999
  319MOL0     H43021   7.192   5.025   8.303  0.6048 -2.0182  0.6822
  319MOL0     H43022   7.191   5.068   8.470 -0.5852 -1.5907  0.0631
  319MOL0     H43023   7.437   5.128   8.452  2.9902 -1.0818 -0.2137
  319MOL0     H43024   7.436   5.091   8.279 -1.4531  0.7684 -0.1366
  319MOL0     H43025   7.432   4.671   8.364 -0.2589 -0.2246  1.0668
  319MOL0     H43026   7.617   4.563   8.275 -3.0469  0.2655 -0.7796
  319MOL0     H43027   7.954   4.530   7.975  0.4466  1.2710  0.4876
  319MOL0     H43028   8.142   4.398   7.870 -0.0478  2.4959 -0.5103
  319MOL0     H43029   8.457   4.250   8.129  2.6795 -1.7573 -0.6918
  319MOL0     H43030   8.456   4.109   8.020  2.0092  0.2720 -1.3107
  319MOL0     H43031   8.498   4.233   7.836  2.8691  0.6955 -1.8117
  319MOL0     H43032   8.488   4.391   7.918 -5.1265 -1.3342 -0.6437
  319MOL0     H43033   8.662   4.301   8.085  2.7712  1.0264 -0.1118
  319MOL0     H43034   8.683   4.156   7.990  0.7316 -0.0830 -1.4829
  319MOL0     H43035   8.861   4.316   7.930  0.1953  2.3092 -0.2306
  319MOL0     H43036   8.762   4.448   7.935 -0.3989 -0.6536  0.7960
  319MOL0     H43037   8.803   4.388   7.689  3.3105 -0.9240  1.6103
  319MOL0     H43038   8.637   4.382   7.729  1.1391  1.0460 -1.0609
  319MOL0     H43039   8.694   4.124   7.781 -2.2389  2.0510  1.1872
  319MOL0     H43040   8.682   4.182   7.613  0.0833  1.0558  0.0813
  319MOL0     H43041   8.902   4.033   7.722 -0.4526  0.1436  0.4475
  319MOL0     H43042   8.964   4.185   7.745  3.3124 -2.8948 -1.4532
  319MOL0     H43043   8.886   4.083   7.469 -1.9851 -1.2079  1.9644
  319MOL0     H43044   8.936   4.257   7.521  1.8048  0.9011  3.0060
  319MOL0     H43045   8.253   4.247   8.251 -2.0481 -2.9884 -2.2383
  319MOL0     H43046   8.068   4.386   8.361 -0.1156 -2.0201 -0.6139
  319MOL0     H43047   7.844   4.926   8.275  0.4849 -2.0769 -2.7618
  319MOL0     H43048   7.631   5.048   8.350 -1.1761  1.1851 -2.2776
  319MOL0     H43049   5.921   5.877   7.661 -3.6289  2.6407 -1.6444
  319MOL0     H43050   5.701   5.898   7.547  0.4041 -0.3512  0.1733
  319MOL0     H43051   5.447   5.846   7.208  3.0311 -3.6257  4.3483
  319MOL0     H43052   5.254   5.834   7.054 -0.4435  0.9381  1.0050
  319MOL0     H43053   4.988   5.494   7.117 -0.3058 -0.6357 -0.0230
  319MOL0     H43054   5.160   5.529   7.082 -0.0604 -0.2212  0.9361
  319MOL0     H43055   5.113   5.595   6.866 -1.4115 -2.2773 -3.2105
  319MOL0     H43056   4.948   5.626   6.907  1.6777  0.6017  1.0032
  319MOL0     H43057   4.906   5.370   6.933  0.4305 -1.1275 -0.5369
  319MOL0     H43058   5.079   5.352   6.907  1.4998  0.4052 -2.2242
  319MOL0     H43059   4.874   5.500   6.709 -0.4155  1.3450  2.1216
  319MOL0     H43060   5.037   5.434   6.676 -0.8334  2.4623  0.3552
  319MOL0     H43061   4.774   5.111   6.609 -2.8052  1.6927  1.7185
  319MOL0     H43062   5.019   5.658   7.350 -0.3217  0.9172 -3.0759
  319MOL0     H43063   5.308   5.548   7.557 -0.1946 -0.7930  1.5385
  319MOL0     H43064   5.197   5.683   7.622  0.0471  1.2200 -0.6640
  319MOL0     H43065   5.134   5.546   7.538 -0.4875  1.3211  2.8454
  320MOL0     O43066   2.082   3.081   7.039 -0.3117 -0.6153  0.3659
  320MOL0     C43067   1.984   3.049   7.102  0.4525  0.9643  0.4438
  320MOL0     O43068   1.983   3.030   7.237  0.5532  0.0517  0.9653
  320MOL0     C43069   2.093   3.020   7.319  0.6183  0.5760 -0.0144
  320MOL0     C43070   2.172   2.906   7.324 -0.3035  1.1304 -0.5230
  320MOL0     C43071   2.264   2.893   7.429 -0.2648  0.3426  0.0384
  320MOL0     C43072   2.295   2.998   7.511  0.2881 -0.4318  0.5662
  320MOL0     O43073   2.393   2.980   7.607  0.3411 -0.1483  0.1303
  320MOL0     C43074   2.380   2.880   7.703  0.5003  0.3187  0.6591
  320MOL0     C43075   2.513   2.848   7.779  0.2340 -0.1431 -0.3846
  320MOL0     C43076   2.629   2.842   7.666  0.2762  0.4017  0.2614
  320MOL0     C43077   2.748   2.772   7.724 -0.3619  0.3104  1.0840
  320MOL0     C43078   2.869   2.787   7.634 -0.5607  0.0555 -0.5330
  320MOL0     C43079   2.994   2.731   7.702  0.0602  0.4039  0.1821
  320MOL0     C43080   3.101   2.702   7.596 -0.1882 -0.4031 -1.0291
  320MOL0     C43081   3.236   2.772   7.638 -0.5754  0.6264  0.0652
  320MOL0     N43082   3.346   2.734   7.552 -0.3839  0.9421 -0.6717
  320MOL0     C43083   3.424   2.818   7.469 -0.3878 -0.6469 -0.2213
  320MOL0     C43084   3.537   2.752   7.442 -1.0521  0.1443 -0.0324
  320MOL0     C43085   3.652   2.807   7.356 -0.0108  0.3044  0.5768
  320MOL0     C43086   3.737   2.700   7.296  0.9391 -0.4779  0.1288
  320MOL0     C43087   3.839   2.751   7.199  0.8675  0.1699  0.2132
  320MOL0     C43088   3.944   2.646   7.166  0.2342  0.0045  0.2405
  320MOL0     O43089   4.031   2.703   7.067  0.5236 -0.0744 -1.2536
  320MOL0     C43090   4.163   2.682   7.098 -0.2471  0.2836 -0.3375
  320MOL0     C43091   4.252   2.792   7.134 -0.3853  0.2724  0.4446
  320MOL0     C43092   4.388   2.768   7.149  0.5005  0.6919  0.0950
  320MOL0     C43093   4.433   2.633   7.155  0.2504 -0.8925  0.3515
  320MOL0     C43094   4.580   2.604   7.168  0.3734 -0.0233  0.1513
  320MOL0     O43095   4.665   2.717   7.163 -0.5548  0.1552 -0.8624
  320MOL0     C43096   4.801   2.702   7.178 -1.0452  0.4359 -0.2843
  320MOL0     C43097   4.864   2.769   7.289 -0.7387 -0.3858  0.2070
  320MOL0     C43098   4.996   2.752   7.319 -0.4039 -0.4736 -0.0940
  320MOL0     C43099   5.074   2.663   7.249 -0.5741  0.7257 -0.1962
  320MOL0     O43100   5.203   2.631   7.285  0.4142  0.2260  0.2129
  320MOL0     C43101   5.234   2.640   7.420 -0.1127 -0.5992 -0.7469
  320MOL0     C43102   5.375   2.580   7.424  0.5390  0.1579 -0.1765
  320MOL0     C43103   5.466   2.683   7.357  0.3058  0.1750  0.7756
  320MOL0     C43104   5.612   2.650   7.385  0.2870  0.2331 -0.8577
  320MOL0     C43105   5.722   2.740   7.313  0.5956 -0.1301 -0.9453
  320MOL0     C43106   5.864   2.717   7.369  0.0369 -0.1586 -0.0307
  320MOL0     C43107   5.919   2.573   7.355 -0.2014  0.3103 -0.0495
  320MOL0     C43108   6.062   2.563   7.411 -0.9587  0.5058  0.5765
  320MOL0    Cl43109   6.170   2.655   7.310  0.0563  0.1876 -0.1540
  320MOL0     C43110   5.016   2.595   7.137 -0.2582 -0.7683  0.1910
  320MOL0     C43111   4.884   2.618   7.106 -0.1925 -0.2173  0.5539
  320MOL0     O43112   4.613   2.485   7.192 -0.0065 -0.3332  0.0700
  320MOL0     C43113   4.343   2.528   7.127 -0.5166 -0.0655 -1.1005
  320MOL0     C43114   4.211   2.553   7.097 -0.6577  0.2537 -1.1899
  320MOL0     N43115   3.536   2.631   7.509 -0.1975  0.6703 -0.7425
  320MOL0     N43116   3.418   2.612   7.562  0.0184 -0.4057  0.0374
  320MOL0     C43117   2.227   3.121   7.505  0.4747  0.0718  0.7239
  320MOL0     C43118   2.112   3.122   7.414 -1.5892 -0.6035  0.2104
  320MOL0     C43119   1.853   3.039   7.032  0.3352  0.1126  0.0435
  320MOL0     C43120   1.742   2.985   7.103 -0.0329 -0.1847  0.4021
  320MOL0     C43121   1.619   2.976   7.038 -0.9250 -0.7028 -0.1012
  320MOL0     C43122   1.602   3.023   6.902  0.7091 -0.2433 -0.5593
  320MOL0     O43123   1.485   3.014   6.838  0.0424  0.2428 -0.3636
  320MOL0     C43124   1.370   3.078   6.907 -0.6708  0.7322 -0.2246
  320MOL0     C43125   1.284   3.153   6.812 -0.2423 -0.0321 -0.1661
  320MOL0     C43126   1.355   3.277   6.750  0.6391 -0.2049 -0.3253
  320MOL0     C43127   1.409   3.224   6.612 -0.7528  0.2748 -0.0463
  320MOL0     C43128   1.443   3.336   6.521  0.3186 -1.0964  0.1190
  320MOL0     C43129   1.450   3.433   6.454 -0.0518 -0.3421  0.0015
  320MOL0     C43130   1.711   3.068   6.836  0.5121 -0.2988  0.9942
  320MOL0     C43131   1.838   3.078   6.892  0.2916 -0.3803  0.0734
  320MOL0     C43132   1.938   3.143   6.796 -0.2260  0.3312 -0.4000
  320MOL0     H43133   2.138   2.833   7.251 -2.7332  4.2402 -2.8156
  320MOL0     H43134   2.324   2.804   7.443  1.1284  1.3753  0.8510
  320MOL0     H43135   2.309   2.911   7.780 -1.0284 -0.8600 -0.2003
  320MOL0     H43136   2.343   2.788   7.655  3.0514 -0.1258 -0.6709
  320MOL0     H43137   2.503   2.764   7.848  0.6874  1.4219  1.6702
  320MOL0     H43138   2.529   2.928   7.851 -2.5235 -0.5841  0.8695
  320MOL0     H43139   2.662   2.937   7.623  2.2392 -0.7532 -0.9161
  320MOL0     H43140   2.595   2.777   7.585  2.0512  0.8907 -0.9150
  320MOL0     H43141   2.770   2.804   7.826  0.5854 -0.4674  1.1338
  320MOL0     H43142   2.724   2.666   7.737  0.1698  0.2285  1.4193
  320MOL0     H43143   2.829   2.730   7.550  0.3725 -2.0854  0.4093
  320MOL0     H43144   2.886   2.888   7.594  1.3248 -1.0375 -2.7420
  320MOL0     H43145   3.019   2.803   7.780  3.7318  0.1400 -0.5442
  320MOL0     H43146   2.981   2.633   7.750  4.1660  0.0392  0.9183
  320MOL0     H43147   3.069   2.738   7.497  0.3959 -1.0535 -1.4663
  320MOL0     H43148   3.115   2.594   7.591 -0.7989 -0.6915  1.9052
  320MOL0     H43149   3.235   2.881   7.639 -0.6942  0.6300  1.5797
  320MOL0     H43150   3.254   2.749   7.744 -0.0642  1.3104  0.1311
  320MOL0     H43151   3.404   2.919   7.434  1.1645 -1.2212 -3.0790
  320MOL0     H43152   3.614   2.877   7.280  1.3178  2.9888  2.2365
  320MOL0     H43153   3.717   2.871   7.415 -0.3850  0.2457  1.0566
  320MOL0     H43154   3.783   2.653   7.384 -0.1932 -1.2638  0.3244
  320MOL0     H43155   3.673   2.638   7.234  2.9472  0.1491 -2.7645
  320MOL0     H43156   3.888   2.844   7.233  3.1643  0.3144 -3.0090
  320MOL0     H43157   3.789   2.792   7.111 -0.7766  1.5065  1.7015
  320MOL0     H43158   3.897   2.560   7.117  0.1457 -0.4893  1.1582
  320MOL0     H43159   3.989   2.614   7.261  2.3193  0.5053 -0.5179
  320MOL0     H43160   4.209   2.892   7.132 -2.1244 -0.3085 -4.3220
  320MOL0     H43161   4.451   2.855   7.169  1.3987  0.5817 -1.9674
  320MOL0     H43162   4.807   2.835   7.353 -1.3156 -0.0467 -0.6328
  320MOL0     H43163   5.036   2.805   7.405  1.1178 -0.2463 -0.8985
  320MOL0     H43164   5.231   2.738   7.468  1.8385 -1.6080  1.7395
  320MOL0     H43165   5.158   2.588   7.480 -2.6882  2.0553 -1.4982
  320MOL0     H43166   5.399   2.561   7.529  1.9135 -0.1506 -0.5293
  320MOL0     H43167   5.382   2.486   7.367  1.1990  0.3550 -0.4266
  320MOL0     H43168   5.451   2.696   7.250  1.7264  2.3591  0.7765
  320MOL0     H43169   5.456   2.786   7.391  1.7994  1.2633 -1.8310
  320MOL0     H43170   5.628   2.544   7.364  0.2684 -0.2426  1.3083
  320MOL0     H43171   5.628   2.665   7.492 -1.9896  2.4590 -0.7370
  320MOL0     H43172   5.702   2.844   7.342 -0.3991 -0.9793  1.6379
  320MOL0     H43173   5.720   2.721   7.205  1.8726  0.2786 -1.0586
  320MOL0     H43174   5.932   2.781   7.312  0.1653 -1.1839 -1.0587
  320MOL0     H43175   5.860   2.747   7.474 -0.9273  0.8026 -0.3152
  320MOL0     H43176   5.917   2.559   7.246  0.4944  2.3405 -0.3540
  320MOL0     H43177   5.857   2.503   7.412  0.2133  1.4712  1.8909
  320MOL0     H43178   6.064   2.609   7.511  1.4342  1.2745  0.2382
  320MOL0     H43179   6.085   2.456   7.418 -2.8711  0.0051 -0.1553
  320MOL0     H43180   5.085   2.539   7.074 -0.9802  0.1892 -1.5050
  320MOL0     H43181   4.839   2.570   7.020  0.0164  0.1065  0.2663
  320MOL0     H43182   4.392   2.433   7.110  0.7687  0.7188 -2.0598
  320MOL0     H43183   4.150   2.471   7.060  1.6028 -1.2666 -1.6969
  320MOL0     H43184   2.254   3.198   7.577 -3.3974  1.2749  1.1280
  320MOL0     H43185   2.061   3.217   7.404  2.6042  1.9537  0.5548
  320MOL0     H43186   1.743   2.942   7.203 -0.0354 -0.9632  0.0753
  320MOL0     H43187   1.539   2.934   7.097 -0.3959 -0.6090  0.6945
  320MOL0     H43188   1.395   3.131   6.999  1.0844 -1.6408  0.7656
  320MOL0     H43189   1.297   3.006   6.945  1.4336 -0.0497  2.6429
  320MOL0     H43190   1.212   3.204   6.877  3.3649  1.3469  3.1901
  320MOL0     H43191   1.252   3.082   6.735  3.0849 -1.4553 -0.4403
  320MOL0     H43192   1.435   3.301   6.821 -1.5325 -0.4179  2.3548
  320MOL0     H43193   1.282   3.358   6.749  0.8930  0.0214 -0.9877
  320MOL0     H43194   1.502   3.168   6.626 -0.1339  0.9619 -1.2990
  320MOL0     H43195   1.332   3.164   6.562 -1.1242 -0.3539  1.2390
  320MOL0     H43196   1.471   3.529   6.411  1.4338  0.0921  1.5995
  320MOL0     H43197   1.699   3.097   6.732  3.7726  2.8972  1.3209
  320MOL0     H43198   2.014   3.076   6.754 -1.0061 -1.6600  1.1934
  320MOL0     H43199   1.886   3.194   6.715  0.6044 -0.4745 -1.4786
  320MOL0     H43200   2.004   3.205   6.857  2.8190 -2.8110 -0.1948
  321MOL0     O43201  10.925   5.852   3.952  0.2192 -0.2457  0.0302
  321MOL0     C43202  10.840   5.915   3.887 -0.5954 -0.3447  0.1546
  321MOL0     O43203  10.863   6.027   3.814 -0.0675  0.6923 -0.6151
  321MOL0     C43204  10.984   6.080   3.796 -0.5784 -1.3022  0.6461
  321MOL0     C43205  11.092   6.004   3.734  0.2824 -0.0911 -0.2775
  321MOL0     C43206  11.213   6.060   3.708  0.8031 -0.8944 -0.8103
  321MOL0     C43207  11.239   6.190   3.750  0.2224  0.6897  0.5886
  321MOL0     O43208  11.359   6.252   3.741  0.4507 -0.0045  0.4017
  321MOL0     C43209  11.464   6.195   3.662 -0.1982 -0.1574 -0.7736
  321MOL0     C43210  11.604   6.265   3.668 -0.2226  0.6880 -0.5370
  321MOL0     C43211  11.696   6.189   3.571  0.2951 -0.7412 -0.3295
  321MOL0     C43212  11.829   6.282   3.554 -0.4684  0.5538 -0.1686
  321MOL0     C43213  11.927   6.204   3.476 -0.8087 -0.6523  0.1594
  321MOL0     C43214  12.066   6.279   3.461  0.5834  0.0078  0.9319
  321MOL0     C43215  12.178   6.179   3.414  0.3573  0.1096 -0.2046
  321MOL0     C43216  12.304   6.262   3.402  0.1991  0.2674 -0.2357
  321MOL0     N43217  12.406   6.182   3.332 -0.1911  0.2128  0.1156
  321MOL0     C43218  12.476   6.072   3.378 -0.1696 -0.4561 -0.4588
  321MOL0     C43219  12.571   6.049   3.283 -0.2828  0.0041 -1.0121
  321MOL0     C43220  12.682   5.945   3.293  0.5175  0.1453 -0.0833
  321MOL0     C43221  12.828   5.983   3.303  1.0655  0.0463  0.3072
  321MOL0     C43222  12.869   6.074   3.427 -0.9312  0.0097  0.1849
  321MOL0     C43223  12.819   6.021   3.568 -0.1810 -0.3202 -0.2972
  321MOL0     O43224  12.874   6.102   3.673 -1.0846 -0.3842  0.0265
  321MOL0     C43225  13.005   6.087   3.697 -0.2911  1.1562  0.2087
  321MOL0     C43226  13.085   5.971   3.673  0.2808 -0.2452 -0.6752
  321MOL0     C43227  13.221   5.972   3.695  0.2908 -0.1522 -0.1598
  321MOL0     C43228  13.288   6.087   3.723 -0.6951 -0.2791 -0.7394
  321MOL0     C43229  13.432   6.095   3.738 -0.2526 -0.2945 -0.5601
  321MOL0     O43230  13.496   6.211   3.757 -0.6410 -0.4219 -0.6102
  321MOL0     C43231  13.613   6.214   3.829 -0.1349 -0.1335 -0.2452
  321MOL0     C43232  13.717   6.294   3.781  0.0639  0.1969 -0.5701
  321MOL0     C43233  13.834   6.291   3.847 -0.4048 -0.6656 -0.1354
  321MOL0     C43234  13.865   6.219   3.969  0.5939 -1.0652  0.2485
  321MOL0     O43235  13.984   6.209   4.032  0.1293 -0.4107  0.3409
  321MOL0     C43236  14.079   6.304   4.003 -1.2155 -0.2870  0.7656
  321MOL0     C43237  14.199   6.303   4.095 -1.0103 -0.3853  0.5486
  321MOL0     C43238  14.233   6.447   4.140 -0.0785 -0.7775  0.1790
  321MOL0     C43239  14.127   6.505   4.236  0.4409  0.2036 -0.1880
  321MOL0     C43240  14.171   6.647   4.267 -0.0421  0.5385  0.4034
  321MOL0     C43241  14.097   6.705   4.390 -0.2625  0.1239  0.6082
  321MOL0     C43242  14.139   6.842   4.426  0.3141 -0.2211  0.1960
  321MOL0     C43243  14.074   6.887   4.560  0.2035 -0.5033  0.2525
  321MOL0    Cl43244  13.899   6.930   4.539 -0.3985 -0.1216 -0.5779
  321MOL0     C43245  13.757   6.139   4.010 -1.2691  0.4874 -0.0093
  321MOL0     C43246  13.634   6.135   3.947 -0.6280 -0.2983 -0.0499
  321MOL0     O43247  13.479   5.984   3.749 -0.1726  0.0142  0.5513
  321MOL0     C43248  13.211   6.200   3.745 -0.5331  0.0088 -0.6237
  321MOL0     C43249  13.067   6.205   3.739  0.2057 -0.3418 -0.0090
  321MOL0     N43250  12.558   6.150   3.190  0.0267 -0.2976  0.4004
  321MOL0     N43251  12.455   6.220   3.214 -0.4888  0.2371 -0.4269
  321MOL0     C43252  11.138   6.274   3.803 -0.1178 -0.5294 -0.2734
  321MOL0     C43253  11.011   6.216   3.823 -0.2670  0.1692 -0.8241
  321MOL0     C43254  10.710   5.858   3.865 -0.2421  0.2750  0.0727
  321MOL0     C43255  10.641   5.871   3.746  0.5441  0.5639  0.4249
  321MOL0     C43256  10.522   5.803   3.716 -0.0208  0.1574 -0.1194
  321MOL0     C43257  10.466   5.725   3.823 -1.1432 -0.2545  0.1469
  321MOL0     O43258  10.346   5.677   3.817 -0.0992 -0.7875 -0.0787
  321MOL0     C43259  10.267   5.707   3.703  0.2963  1.1083  0.2073
  321MOL0     C43260  10.125   5.651   3.734  1.1110  0.0351  0.1175
  321MOL0     C43261  10.024   5.697   3.617  1.4170  0.1654 -1.1406
  321MOL0     C43262   9.885   5.635   3.644 -0.3782  0.6840  0.4729
  321MOL0     C43263   9.886   5.493   3.635  0.2897  0.5289  0.6087
  321MOL0     C43264   9.872   5.368   3.619 -0.5017  0.0094  0.3494
  321MOL0     C43265  10.524   5.713   3.949  0.4952 -0.6042  0.3506
  321MOL0     C43266  10.647   5.781   3.967  0.7556  0.5779  0.2306
  321MOL0     C43267  10.704   5.755   4.100  0.4167 -0.9878  0.3974
  321MOL0     H43268  11.072   5.904   3.698  0.0425  0.3927 -1.5396
  321MOL0     H43269  11.283   5.992   3.661  0.1788 -1.4046 -1.0130
  321MOL0     H43270  11.489   6.098   3.706  3.9514  0.2112 -1.8575
  321MOL0     H43271  11.428   6.182   3.559 -2.7907 -1.0214  0.1748
  321MOL0     H43272  11.641   6.269   3.771 -1.6692  0.4281  0.0092
  321MOL0     H43273  11.587   6.367   3.632  0.5766  1.8825  2.1680
  321MOL0     H43274  11.651   6.176   3.473 -0.2845 -0.2357 -0.1352
  321MOL0     H43275  11.720   6.094   3.620 -1.8454 -0.8143  0.6905
  321MOL0     H43276  11.798   6.372   3.500 -1.3936 -1.2641 -2.8494
  321MOL0     H43277  11.865   6.305   3.655  1.3864  1.4296 -0.9885
  321MOL0     H43278  11.947   6.111   3.530 -2.0096  0.5804  2.8937
  321MOL0     H43279  11.883   6.193   3.376 -0.8829  0.5854  0.0403
  321MOL0     H43280  12.063   6.355   3.382 -1.3388  0.3631  1.2912
  321MOL0     H43281  12.089   6.327   3.556  0.9252  1.6246  0.0705
  321MOL0     H43282  12.152   6.138   3.316 -0.2573  1.7359 -0.7669
  321MOL0     H43283  12.189   6.103   3.492  1.6019  0.9816  0.5037
  321MOL0     H43284  12.285   6.350   3.340 -1.0311 -0.8883 -1.5767
  321MOL0     H43285  12.338   6.293   3.502  2.2777  1.6781 -1.2877
  321MOL0     H43286  12.458   6.018   3.470 -1.0570 -2.1444 -1.5673
  321MOL0     H43287  12.669   5.881   3.381  1.8387 -0.7557 -0.5174
  321MOL0     H43288  12.680   5.887   3.200 -1.6466  1.9852 -1.2856
  321MOL0     H43289  12.879   5.887   3.312  1.1370  0.1856  1.7219
  321MOL0     H43290  12.858   6.028   3.208 -1.5432 -0.6270 -0.9318
  321MOL0     H43291  12.829   6.175   3.414 -1.5068 -0.1995  0.3151
  321MOL0     H43292  12.977   6.087   3.420 -1.0276  0.0393 -3.6054
  321MOL0     H43293  12.844   5.917   3.587  2.6051  0.1978 -0.7559
  321MOL0     H43294  12.709   6.016   3.567 -0.1494 -1.0110 -1.2704
  321MOL0     H43295  13.044   5.886   3.620 -0.2034  0.7323 -1.9158
  321MOL0     H43296  13.276   5.881   3.674  0.4277  0.2455 -1.6268
  321MOL0     H43297  13.703   6.353   3.690 -2.0900 -0.7896 -0.9517
  321MOL0     H43298  13.912   6.356   3.807  1.0233 -2.5315 -0.5484
  321MOL0     H43299  14.125   6.278   3.907  0.2851 -1.3051  1.7001
  321MOL0     H43300  14.041   6.406   3.992  0.1694  0.0899 -0.9767
  321MOL0     H43301  14.196   6.246   4.188 -0.2557 -0.9492  0.2331
  321MOL0     H43302  14.291   6.260   4.056 -0.6936 -3.0206  3.7625
  321MOL0     H43303  14.335   6.444   4.179  0.5469 -0.5008 -1.3613
  321MOL0     H43304  14.230   6.512   4.052 -1.1622 -0.1183  0.6689
  321MOL0     H43305  14.132   6.453   4.332  2.2544  2.3288  0.9715
  321MOL0     H43306  14.026   6.494   4.198  0.4797  0.3640 -0.3377
  321MOL0     H43307  14.155   6.702   4.174 -4.1145  0.1834  0.6914
  321MOL0     H43308  14.276   6.637   4.296 -0.2599 -0.4569  0.9034
  321MOL0     H43309  13.990   6.715   4.366 -0.2251  2.9392  1.3589
  321MOL0     H43310  14.124   6.631   4.466  1.5226 -1.7184 -1.6501
  321MOL0     H43311  14.114   6.918   4.352  0.0126  0.5221  1.0421
  321MOL0     H43312  14.248   6.847   4.430  0.4246 -0.2312 -1.8711
  321MOL0     H43313  14.094   6.817   4.642  2.2210 -0.6330 -0.2814
  321MOL0     H43314  14.139   6.973   4.583  1.0225 -1.0907  0.1920
  321MOL0     H43315  13.777   6.073   4.094  1.6633  2.2824  0.8278
  321MOL0     H43316  13.548   6.079   3.984 -0.2538 -2.0290 -1.6485
  321MOL0     H43317  13.257   6.296   3.766 -2.4813  0.8502  0.0248
  321MOL0     H43318  13.008   6.295   3.748 -0.0335 -0.5209  0.2120
  321MOL0     H43319  11.151   6.378   3.831 -3.5506  0.0685 -0.4703
  321MOL0     H43320  10.928   6.271   3.864 -2.6413 -3.8093  0.2742
  321MOL0     H43321  10.671   5.947   3.673 -0.2698  2.9881  2.4880
  321MOL0     H43322  10.479   5.822   3.618  3.1892  0.9172 -1.5127
  321MOL0     H43323  10.309   5.653   3.617  1.1293  0.9695  0.6913
  321MOL0     H43324  10.261   5.815   3.686 -0.9078  0.5923 -3.7611
  321MOL0     H43325  10.102   5.706   3.826 -1.0503  3.2716 -2.1515
  321MOL0     H43326  10.116   5.544   3.757  1.1264  0.2483  1.1722
  321MOL0     H43327  10.059   5.669   3.517  2.4977  0.4973 -0.8686
  321MOL0     H43328  10.011   5.805   3.619  2.7591  0.3417  0.8988
  321MOL0     H43329   9.856   5.666   3.744  1.3423 -0.1919  1.2762
  321MOL0     H43330   9.811   5.679   3.576  0.6306  0.9404 -0.5024
  321MOL0     H43331   9.855   5.263   3.606 -2.3679  0.3506 -0.1579
  321MOL0     H43332  10.479   5.660   4.032  0.9281 -0.1747  0.8656
  321MOL0     H43333  10.729   5.848   4.152 -2.1437 -0.6834  1.2165
  321MOL0     H43334  10.635   5.698   4.162 -0.4159 -0.6970 -0.2310
  321MOL0     H43335  10.786   5.685   4.086 -0.8370 -2.8123  1.6839
  322MOL0     O43336   2.958   8.244   5.060 -0.1633  0.4181  0.3800
  322MOL0     C43337   2.962   8.175   4.957  0.0071  0.3221 -0.1496
  322MOL0     O43338   2.845   8.127   4.886 -0.4071 -0.2668 -0.0989
  322MOL0     C43339   2.726   8.185   4.927 -0.2920 -0.7146 -0.6786
  322MOL0     C43340   2.706   8.327   4.928 -0.0985  0.7377 -0.3503
  322MOL0     C43341   2.585   8.377   4.966  0.2156  1.1855  0.3390
  322MOL0     C43342   2.474   8.294   4.993  0.8628  0.4624 -1.0442
  322MOL0     O43343   2.354   8.361   5.023  0.7859  0.0127 -0.2167
  322MOL0     C43344   2.245   8.278   5.065  0.2733 -0.6532  0.2934
  322MOL0     C43345   2.110   8.365   5.084 -0.0185  0.8305 -0.4382
  322MOL0     C43346   2.001   8.272   5.143  0.2255 -0.3987 -0.0380
  322MOL0     C43347   2.020   8.241   5.290 -0.2327 -0.2063 -0.1547
  322MOL0     C43348   1.887   8.197   5.353  0.3050  0.0495  0.0643
  322MOL0     C43349   1.803   8.314   5.400  0.6407  0.3523 -0.1402
  322MOL0     C43350   1.708   8.278   5.514 -0.0538 -0.0003 -0.0167
  322MOL0     C43351   1.606   8.169   5.482 -0.7642  0.3497  0.9906
  322MOL0     N43352   1.522   8.221   5.375  0.3210  0.7668 -0.3849
  322MOL0     C43353   1.540   8.195   5.238 -0.5020 -0.3197  0.7917
  322MOL0     C43354   1.485   8.294   5.182  0.6367 -1.1564 -0.3473
  322MOL0     C43355   1.471   8.306   5.033 -0.1177  0.3394  0.2866
  322MOL0     C43356   1.590   8.369   4.966 -0.1163  0.2848 -0.5764
  322MOL0     C43357   1.614   8.316   4.818 -0.3276  0.1421 -0.0972
  322MOL0     C43358   1.751   8.345   4.770  0.2302 -0.7009  0.0849
  322MOL0     O43359   1.773   8.482   4.776  0.3933 -0.0603  0.6317
  322MOL0     C43360   1.902   8.522   4.789 -0.8982 -0.9929  0.2375
  322MOL0     C43361   2.016   8.450   4.748 -0.1148 -0.3002 -0.7258
  322MOL0     C43362   2.135   8.515   4.742  0.2750 -0.9671 -0.0533
  322MOL0     C43363   2.154   8.658   4.769 -0.5056 -0.0422  0.7616
  322MOL0     C43364   2.285   8.719   4.765 -0.4568  0.2560  0.7805
  322MOL0     O43365   2.386   8.644   4.706 -0.6994  0.1295  0.9017
  322MOL0     C43366   2.523   8.670   4.713  0.3187  0.5482  0.2135
  322MOL0     C43367   2.610   8.608   4.619 -0.3906  0.3502  0.5594
  322MOL0     C43368   2.754   8.626   4.635  0.4991  0.6141  0.1877
  322MOL0     C43369   2.808   8.688   4.745 -0.0052 -0.2098 -0.6930
  322MOL0     O43370   2.945   8.716   4.764  0.0623 -0.0966 -0.0292
  322MOL0     C43371   3.030   8.734   4.643  1.0165 -0.7228 -0.8007
  322MOL0     C43372   3.120   8.612   4.615 -0.1037  0.0558 -1.0720
  322MOL0     C43373   3.239   8.621   4.707  0.3768  0.4899 -0.3423
  322MOL0     C43374   3.292   8.483   4.754 -0.8706  1.0349 -0.0054
  322MOL0     C43375   3.432   8.495   4.824 -0.2878 -1.0078  0.0814
  322MOL0     C43376   3.484   8.364   4.870 -0.2113 -1.2963  0.6724
  322MOL0     C43377   3.641   8.372   4.909  0.9775 -0.6232  0.4627
  322MOL0     C43378   3.690   8.258   4.990  0.6698 -0.3785  0.3079
  322MOL0    Cl43379   3.589   8.221   5.130  0.3521 -0.0520  0.2982
  322MOL0     C43380   2.716   8.747   4.840 -0.1611  0.3626  0.5901
  322MOL0     C43381   2.573   8.745   4.822  0.4802  0.1817  0.4744
  322MOL0     O43382   2.295   8.832   4.802  0.4250  0.1825  0.8860
  322MOL0     C43383   2.042   8.732   4.801 -0.0019  0.0362  0.3279
  322MOL0     C43384   1.917   8.663   4.812  0.1742  0.7158 -0.3244
  322MOL0     N43385   1.419   8.376   5.270 -0.1640  0.5426 -0.4917
  322MOL0     N43386   1.431   8.319   5.383  0.6679 -0.5361 -0.0913
  322MOL0     C43387   2.492   8.154   4.995 -0.8321 -0.1181  0.2969
  322MOL0     C43388   2.624   8.101   4.961  0.2021  0.3560 -0.8731
  322MOL0     C43389   3.092   8.123   4.906  0.3126  0.7471 -0.2697
  322MOL0     C43390   3.106   8.082   4.774  0.4705  0.6761 -0.2758
  322MOL0     C43391   3.228   8.041   4.716 -0.7809  0.1028 -0.2235
  322MOL0     C43392   3.346   8.056   4.789  0.3622  0.2146  0.0183
  322MOL0     O43393   3.473   8.035   4.732  0.6276 -0.1936  0.1660
  322MOL0     C43394   3.484   7.964   4.612  0.0119  0.0783 -0.0158
  322MOL0     C43395   3.631   7.927   4.590 -0.0466  0.1578 -0.1940
  322MOL0     C43396   3.726   8.052   4.574  0.3056  0.4365  0.5398
  322MOL0     C43397   3.864   8.011   4.597 -0.4785  0.6069 -0.6307
  322MOL0     C43398   3.892   7.954   4.729  0.3978 -0.4589  0.1469
  322MOL0     C43399   3.932   7.914   4.838  0.4664  0.8891  0.0086
  322MOL0     C43400   3.334   8.088   4.925 -0.0706 -0.7481  0.8288
  322MOL0     C43401   3.213   8.128   4.984 -0.3910  0.9024  1.0846
  322MOL0     C43402   3.218   8.183   5.123  0.0021 -0.4620  0.0413
  322MOL0     H43403   2.777   8.396   4.885  0.8163 -0.3516 -0.6339
  322MOL0     H43404   2.571   8.482   4.944 -2.3687  0.8250 -0.0138
  322MOL0     H43405   2.225   8.193   4.999 -0.1652 -0.6410  0.4122
  322MOL0     H43406   2.280   8.231   5.158  0.7073 -0.4997  0.2123
  322MOL0     H43407   2.076   8.412   4.991 -1.6873  0.7684  0.1221
  322MOL0     H43408   2.122   8.447   5.156 -0.5880  1.0787 -0.6187
  322MOL0     H43409   1.999   8.182   5.081 -1.1131 -2.4054  2.7253
  322MOL0     H43410   1.906   8.320   5.120 -0.8626 -1.4645  1.9829
  322MOL0     H43411   2.103   8.171   5.298  0.6017  0.8909  1.3648
  322MOL0     H43412   2.065   8.317   5.354  1.8549 -0.4824 -1.2234
  322MOL0     H43413   1.830   8.138   5.281  1.3880 -1.3720  0.3078
  322MOL0     H43414   1.913   8.139   5.442  1.2279  0.4979  0.0991
  322MOL0     H43415   1.870   8.388   5.444  0.3145  0.5766 -0.0205
  322MOL0     H43416   1.751   8.357   5.314 -0.2457  0.3840  0.4045
  322MOL0     H43417   1.647   8.361   5.550 -0.8743 -0.1549 -1.0023
  322MOL0     H43418   1.772   8.239   5.594  0.1700 -0.8113 -0.5761
  322MOL0     H43419   1.670   8.087   5.448  0.8847  1.6519  0.8146
  322MOL0     H43420   1.551   8.135   5.570 -0.2645  0.3611  1.3145
  322MOL0     H43421   1.588   8.105   5.199  0.7858  0.3816  0.6805
  322MOL0     H43422   1.450   8.208   4.989 -1.4312  1.7141 -2.3808
  322MOL0     H43423   1.387   8.368   5.001 -0.7470 -0.5487  0.1843
  322MOL0     H43424   1.602   8.478   4.965  0.4986  0.3039  1.7899
  322MOL0     H43425   1.675   8.343   5.030  0.6929 -2.6132 -2.6147
  322MOL0     H43426   1.532   8.350   4.754 -1.3625 -1.8012  0.1231
  322MOL0     H43427   1.596   8.208   4.822 -1.7373  0.3798  0.3888
  322MOL0     H43428   1.762   8.321   4.664 -1.3781 -0.2648 -0.2028
  322MOL0     H43429   1.816   8.273   4.821 -0.0390 -2.4274 -1.8576
  322MOL0     H43430   2.000   8.349   4.712  2.2359 -0.2755 -2.0425
  322MOL0     H43431   2.222   8.458   4.712  2.3994  1.3638  1.2680
  322MOL0     H43432   2.556   8.543   4.551  0.1246 -0.0423  0.5255
  322MOL0     H43433   2.814   8.570   4.564 -0.0971 -0.0604  0.1951
  322MOL0     H43434   2.975   8.767   4.555  4.7761  3.1771 -2.0577
  322MOL0     H43435   3.091   8.822   4.667 -0.8435  0.6934 -1.1014
  322MOL0     H43436   3.065   8.518   4.630 -1.1884  0.6630 -1.1015
  322MOL0     H43437   3.147   8.620   4.510  3.2814 -2.4480 -0.5621
  322MOL0     H43438   3.323   8.678   4.666  2.0873 -0.3153  1.8169
  322MOL0     H43439   3.212   8.683   4.792  2.0758  1.3168 -0.3632
  322MOL0     H43440   3.304   8.415   4.669  2.1234 -1.3491  2.0990
  322MOL0     H43441   3.208   8.449   4.815 -2.3133  2.3855 -1.1556
  322MOL0     H43442   3.413   8.555   4.913 -0.3353 -1.1690  0.1801
  322MOL0     H43443   3.498   8.548   4.754 -0.5888 -0.4673  0.1975
  322MOL0     H43444   3.407   8.330   4.940 -2.4642 -0.1670 -1.1153
  322MOL0     H43445   3.489   8.294   4.787  0.2815  0.3317 -0.7341
  322MOL0     H43446   3.657   8.463   4.967 -0.1270  0.3802 -0.7223
  322MOL0     H43447   3.703   8.369   4.819 -0.6522 -1.7634 -0.7010
  322MOL0     H43448   3.694   8.165   4.932 -0.3754 -1.3553  1.7135
  322MOL0     H43449   3.793   8.275   5.022  1.6001 -0.0965 -2.5325
  322MOL0     H43450   2.764   8.802   4.920  2.1254 -2.8176  1.6132
  322MOL0     H43451   2.506   8.795   4.892  1.7647  2.1414  0.3665
  322MOL0     H43452   2.056   8.836   4.826 -3.7878  0.3186  1.8958
  322MOL0     H43453   1.833   8.716   4.856 -0.8755 -0.8507 -0.3672
  322MOL0     H43454   2.418   8.082   5.028  0.7078 -1.9136  0.0177
  322MOL0     H43455   2.637   7.994   4.968  0.9342  0.4548 -0.6955
  322MOL0     H43456   3.016   8.069   4.714  0.7892  1.1800 -0.8654
  322MOL0     H43457   3.224   8.002   4.615 -1.5429  0.6953 -0.4416
  322MOL0     H43458   3.439   8.032   4.538 -4.6353 -1.4346  1.1182
  322MOL0     H43459   3.433   7.868   4.623 -0.2832  0.0342 -1.5150
  322MOL0     H43460   3.640   7.868   4.498 -1.0698 -1.0165  0.4292
  322MOL0     H43461   3.658   7.863   4.674  0.8486  1.7831  0.7948
  322MOL0     H43462   3.699   8.124   4.651 -0.1480  0.3595  0.4594
  322MOL0     H43463   3.716   8.101   4.476  3.1098  2.3444  1.0828
  322MOL0     H43464   3.886   7.932   4.525 -2.1596 -0.3318 -0.1913
  322MOL0     H43465   3.937   8.089   4.578  2.4970 -0.7766  3.5473
  322MOL0     H43466   3.982   7.891   4.929 -2.3130 -2.0368  0.9905
  322MOL0     H43467   3.427   8.077   4.980  2.0954  0.5204 -2.2314
  322MOL0     H43468   3.160   8.119   5.190  0.8762 -1.2339  0.0873
  322MOL0     H43469   3.318   8.182   5.167 -0.7628  0.3478  1.8928
  322MOL0     H43470   3.178   8.284   5.131 -1.9544 -0.9579 -2.2407
  323MOL0     O43471   0.226   1.151   7.363 -0.2673  0.3624 -1.1523
  323MOL0     C43472   0.152   1.230   7.429  0.7176 -0.7306  0.1223
  323MOL0     O43473   0.196   1.347   7.489 -0.1675  0.8097  0.0040
  323MOL0     C43474   0.329   1.379   7.438 -0.0152  0.2630  0.6236
  323MOL0     C43475   0.447   1.328   7.495  0.4605  0.1158 -0.6879
  323MOL0     C43476   0.570   1.365   7.439  0.3577  0.3244  0.4936
  323MOL0     C43477   0.583   1.442   7.321  0.2457 -0.2882 -0.1189
  323MOL0     O43478   0.710   1.456   7.264 -0.0144 -0.4039  0.0718
  323MOL0     C43479   0.733   1.562   7.168  0.1255 -0.3486  0.0837
  323MOL0     C43480   0.883   1.552   7.141 -0.6504  0.0754  0.7679
  323MOL0     C43481   0.941   1.407   7.110  0.3431  0.3299 -0.1854
  323MOL0     C43482   1.064   1.420   7.027  0.2948 -0.5525  0.4819
  323MOL0     C43483   1.128   1.281   7.025  0.2802  0.0183 -0.1158
  323MOL0     C43484   1.254   1.266   6.954 -0.2023 -0.0389 -0.2266
  323MOL0     C43485   1.369   1.329   7.032  0.6900  0.3842  0.4078
  323MOL0     C43486   1.495   1.288   6.970 -0.4838 -0.4057  0.0869
  323MOL0     N43487   1.612   1.337   7.039 -0.1855  0.0462  0.1994
  323MOL0     C43488   1.665   1.463   7.070  0.6226  0.4908 -0.4625
  323MOL0     C43489   1.784   1.441   7.129  0.2192 -0.2168  0.0721
  323MOL0     C43490   1.868   1.543   7.198 -0.2681 -1.0190  0.2456
  323MOL0     C43491   2.002   1.489   7.255  0.0204 -0.4155  0.1754
  323MOL0     C43492   2.109   1.460   7.146 -0.0937  1.1764  0.8373
  323MOL0     C43493   2.249   1.514   7.160 -0.9024  0.6520  0.0722
  323MOL0     O43494   2.317   1.437   7.260 -0.3742  0.1747 -0.3794
  323MOL0     C43495   2.452   1.455   7.277 -0.1749  0.2543  0.6725
  323MOL0     C43496   2.511   1.579   7.265 -0.3228 -0.0520  1.3384
  323MOL0     C43497   2.654   1.593   7.291  0.4455 -0.0745 -0.0213
  323MOL0     C43498   2.731   1.485   7.331 -0.1181 -0.2769  0.4006
  323MOL0     C43499   2.878   1.497   7.360 -0.4978 -0.7291  0.0296
  323MOL0     O43500   2.952   1.387   7.368 -0.0158 -0.1179 -0.6501
  323MOL0     C43501   3.087   1.407   7.355  0.0087 -0.0965 -1.0538
  323MOL0     C43502   3.169   1.457   7.462  1.2226  0.4967  0.4285
  323MOL0     C43503   3.304   1.444   7.443  0.2756  1.0212 -0.4884
  323MOL0     C43504   3.366   1.361   7.338  0.4445 -0.6598  0.2959
  323MOL0     O43505   3.500   1.338   7.319 -0.3900 -0.2020 -0.4493
  323MOL0     C43506   3.580   1.327   7.443 -1.0964 -0.1801  0.6805
  323MOL0     C43507   3.718   1.253   7.418  0.5716  0.3715  0.2891
  323MOL0     C43508   3.705   1.098   7.448 -0.2248 -0.3206 -0.4383
  323MOL0     C43509   3.846   1.033   7.452  0.0979  1.2078  0.5807
  323MOL0     C43510   3.840   0.873   7.446 -0.5730 -0.3518 -0.0073
  323MOL0     C43511   3.981   0.818   7.436  0.0570  0.8029 -0.6675
  323MOL0     C43512   3.973   0.668   7.464  0.2694 -0.8854 -0.0227
  323MOL0     C43513   4.055   0.582   7.364 -1.0920  0.4217  0.0950
  323MOL0    Cl43514   4.228   0.650   7.378 -0.0375 -0.0348  0.0543
  323MOL0     C43515   3.282   1.316   7.238  0.6254 -0.1810  0.6507
  323MOL0     C43516   3.147   1.341   7.242 -0.1742 -0.3898 -0.4811
  323MOL0     O43517   2.919   1.604   7.394  1.1799 -0.3592  0.2328
  323MOL0     C43518   2.663   1.351   7.332 -0.1592 -0.3382 -0.2961
  323MOL0     C43519   2.527   1.344   7.313  0.2609 -0.3409  0.8333
  323MOL0     N43520   1.800   1.304   7.133  0.0591  0.1084  0.6083
  323MOL0     N43521   1.709   1.243   7.074  0.3582 -0.1007  1.0144
  323MOL0     C43522   0.466   1.512   7.276  0.0729 -0.8782 -0.1895
  323MOL0     C43523   0.340   1.476   7.340  0.7307 -0.2990 -0.1360
  323MOL0     C43524   0.001   1.208   7.434  0.0652  0.4935 -0.5858
  323MOL0     C43525  -0.058   1.237   7.556 -0.2103 -0.5308  0.0142
  323MOL0     C43526  -0.192   1.210   7.575 -0.8952  0.3370 -0.2568
  323MOL0     C43527  -0.261   1.134   7.478 -0.0789 -1.0120 -1.0059
  323MOL0     O43528  -0.390   1.108   7.519  0.0920  0.3957 -0.7685
  323MOL0     C43529  -0.481   1.054   7.424 -0.1488  0.1187 -0.0314
  323MOL0     C43530  -0.624   1.056   7.488  0.1498  0.1685  0.0350
  323MOL0     C43531  -0.633   0.936   7.586 -0.3457  0.7201  0.2739
  323MOL0     C43532  -0.786   0.891   7.594  0.6918 -0.0494  0.2961
  323MOL0     C43533  -0.879   0.987   7.651  0.3571  0.0349 -0.5810
  323MOL0     C43534  -0.971   1.057   7.685 -0.9638 -0.3899  0.0928
  323MOL0     C43535  -0.195   1.093   7.363  1.7458  0.1882  0.4499
  323MOL0     C43536  -0.067   1.135   7.332  0.2220  0.9160 -0.1496
  323MOL0     C43537  -0.016   1.102   7.193  0.3183 -0.0802 -0.5340
  323MOL0     H43538   0.436   1.260   7.579 -2.4986  0.6624 -0.5102
  323MOL0     H43539   0.668   1.338   7.476  0.1586  0.6843  1.3126
  323MOL0     H43540   0.688   1.539   7.071  2.6497 -2.3582 -0.7357
  323MOL0     H43541   0.706   1.663   7.203 -0.4298 -0.1156 -0.9752
  323MOL0     H43542   0.936   1.619   7.209 -0.3694  4.4377 -3.2583
  323MOL0     H43543   0.886   1.604   7.045 -3.7761  0.7130  0.9173
  323MOL0     H43544   0.868   1.350   7.053  1.2454 -1.3579  0.2842
  323MOL0     H43545   0.955   1.348   7.202 -2.1733 -0.6741 -0.3699
  323MOL0     H43546   1.048   1.442   6.921 -0.7146  3.6530  1.3282
  323MOL0     H43547   1.130   1.498   7.065  0.4304 -1.1122  1.4569
  323MOL0     H43548   1.139   1.248   7.129  1.5802  1.2295  0.1599
  323MOL0     H43549   1.060   1.204   6.986 -1.2431  1.7090 -0.9361
  323MOL0     H43550   1.283   1.161   6.968  1.3418  0.4077  0.0561
  323MOL0     H43551   1.252   1.297   6.849 -0.2898 -0.5330 -0.3735
  323MOL0     H43552   1.370   1.303   7.138 -0.6716  1.3444  0.6902
  323MOL0     H43553   1.371   1.438   7.024  4.7008  0.4661  0.6152
  323MOL0     H43554   1.509   1.180   6.971 -1.1322 -0.4907  0.8465
  323MOL0     H43555   1.486   1.322   6.866 -3.1093 -0.1229  0.3454
  323MOL0     H43556   1.606   1.554   7.057  0.6337  0.9403  2.1289
  323MOL0     H43557   1.884   1.631   7.134 -0.8523 -1.1465 -0.0877
  323MOL0     H43558   1.818   1.587   7.284 -0.8455  0.3294 -0.7369
  323MOL0     H43559   2.035   1.557   7.334 -1.1747  2.2150 -1.4340
  323MOL0     H43560   1.990   1.394   7.306 -0.6300 -0.1627  0.5030
  323MOL0     H43561   2.083   1.500   7.047  0.1679  1.0576  0.7185
  323MOL0     H43562   2.104   1.351   7.132 -1.5510  1.2357  0.7592
  323MOL0     H43563   2.252   1.620   7.188  3.1046  0.2575  1.8358
  323MOL0     H43564   2.296   1.512   7.061  0.9181  0.4728  0.8910
  323MOL0     H43565   2.459   1.665   7.225  2.5551  0.0373 -2.9342
  323MOL0     H43566   2.701   1.691   7.289  1.2502 -0.4550 -1.3752
  323MOL0     H43567   3.114   1.502   7.545 -2.4797  3.2002 -3.1081
  323MOL0     H43568   3.380   1.475   7.514  0.5694 -2.0689  0.6993
  323MOL0     H43569   3.607   1.427   7.480 -1.7056  0.1210  0.3418
  323MOL0     H43570   3.516   1.283   7.520  0.2696  2.2639  3.3974
  323MOL0     H43571   3.758   1.268   7.317  1.7571  1.3193  0.8668
  323MOL0     H43572   3.786   1.307   7.484 -0.7058  3.3011 -0.6312
  323MOL0     H43573   3.661   1.096   7.548 -0.5150  3.1588 -0.3592
  323MOL0     H43574   3.643   1.052   7.370 -0.3825  1.4316 -1.4021
  323MOL0     H43575   3.901   1.050   7.545  1.8846  0.0897 -0.2301
  323MOL0     H43576   3.899   1.080   7.368 -0.9061  2.7491  0.7622
  323MOL0     H43577   3.787   0.838   7.356 -2.2339  1.8545  0.0258
  323MOL0     H43578   3.792   0.827   7.532 -0.9205 -0.3989 -0.2223
  323MOL0     H43579   4.014   0.830   7.332  0.5796 -2.1696 -0.9350
  323MOL0     H43580   4.050   0.861   7.508 -0.1039 -1.9577  1.2801
  323MOL0     H43581   3.871   0.637   7.438  0.2643  0.2893 -1.5521
  323MOL0     H43582   3.992   0.644   7.569 -3.1027  2.2919  1.5470
  323MOL0     H43583   4.040   0.476   7.384  1.8440  0.0954  0.9528
  323MOL0     H43584   4.014   0.597   7.263 -0.1964 -2.2155 -0.7434
  323MOL0     H43585   3.329   1.245   7.171 -1.9115 -2.8529  1.4608
  323MOL0     H43586   3.082   1.294   7.168  0.5193 -1.1949 -0.5881
  323MOL0     H43587   2.723   1.261   7.346 -1.4266 -0.9235  1.7135
  323MOL0     H43588   2.485   1.244   7.321  2.1219 -1.3545 -0.9880
  323MOL0     H43589   0.464   1.583   7.194  1.9864  0.3010  0.7317
  323MOL0     H43590   0.249   1.511   7.293  1.9871  0.7382 -1.9489
  323MOL0     H43591  -0.005   1.283   7.638 -0.1994 -2.7222  1.3061
  323MOL0     H43592  -0.245   1.257   7.658 -0.6118 -1.4601  0.9895
  323MOL0     H43593  -0.452   0.950   7.410 -1.0895  0.1799 -2.9377
  323MOL0     H43594  -0.483   1.109   7.330  0.5930 -0.0784 -0.1731
  323MOL0     H43595  -0.698   1.032   7.410 -0.9065  0.5064  0.8970
  323MOL0     H43596  -0.651   1.151   7.534  0.7657 -0.1306  1.0312
  323MOL0     H43597  -0.599   0.975   7.683 -2.0276 -0.6908  1.4996
  323MOL0     H43598  -0.567   0.853   7.558  0.4303  1.1800  0.6929
  323MOL0     H43599  -0.832   0.850   7.504  3.0512 -1.0669 -0.5234
  323MOL0     H43600  -0.791   0.806   7.663  1.7374 -3.0728 -3.0449
  323MOL0     H43601  -1.035   1.127   7.734  1.1922  1.3226  0.6621
  323MOL0     H43602  -0.255   1.041   7.288  1.8065 -2.3990  2.0452
  323MOL0     H43603   0.000   1.187   7.126 -0.5275  0.7249  0.2568
  323MOL0     H43604   0.070   1.034   7.200  0.2394 -0.1307 -0.0250
  323MOL0     H43605  -0.091   1.039   7.143 -0.8991  1.7604 -1.1115
  324MOL0     O43606   9.991   5.580   4.274 -0.2663 -0.0660  0.5358
  324MOL0     C43607   9.981   5.686   4.211  0.4944  0.2883  0.1300
  324MOL0     O43608   9.906   5.701   4.097 -0.5199 -0.0441 -0.3335
  324MOL0     C43609   9.805   5.615   4.074  0.4617  0.7936  0.5717
  324MOL0     C43610   9.818   5.517   3.980 -0.4836  0.6134  0.9331
  324MOL0     C43611   9.707   5.445   3.943  0.2767 -0.1780  0.5993
  324MOL0     C43612   9.584   5.455   4.011 -0.0499  0.8414  0.5785
  324MOL0     O43613   9.475   5.370   3.974  0.1326 -0.5853  0.1939
  324MOL0     C43614   9.383   5.422   3.873 -0.2437 -0.2595 -0.0220
  324MOL0     C43615   9.234   5.368   3.879 -0.8336  1.1419 -0.0009
  324MOL0     C43616   9.132   5.457   3.812  0.0767 -0.1400  0.0798
  324MOL0     C43617   8.985   5.426   3.854  0.4921  0.2116 -0.5314
  324MOL0     C43618   8.891   5.512   3.768  0.1326 -0.6704 -1.5493
  324MOL0     C43619   8.747   5.499   3.813  0.0627 -0.1552 -0.2283
  324MOL0     C43620   8.707   5.578   3.935  0.4043 -1.3977 -0.2289
  324MOL0     C43621   8.553   5.560   3.958  0.6498  0.2110 -0.1488
  324MOL0     N43622   8.467   5.629   3.863  0.1347 -0.0857  0.3166
  324MOL0     C43623   8.426   5.762   3.879  0.1829 -0.1086 -0.1327
  324MOL0     C43624   8.369   5.795   3.759 -0.7529  0.0142 -0.7140
  324MOL0     C43625   8.308   5.930   3.731 -0.5472  1.0210 -0.6234
  324MOL0     C43626   8.351   5.990   3.596 -1.2239  0.1306  0.3008
  324MOL0     C43627   8.498   5.959   3.550 -0.3321  0.0065  0.1732
  324MOL0     C43628   8.600   5.998   3.658  0.7005  0.5549 -0.0901
  324MOL0     O43629   8.604   6.138   3.657 -0.5693  0.2146 -0.2964
  324MOL0     C43630   8.714   6.211   3.613  0.4290 -0.0694  0.2732
  324MOL0     C43631   8.783   6.176   3.497 -0.0059 -0.0339 -0.0148
  324MOL0     C43632   8.879   6.262   3.442  0.0392 -0.1192 -0.4958
  324MOL0     C43633   8.920   6.377   3.511 -0.5548 -1.3968 -0.2911
  324MOL0     C43634   9.030   6.466   3.457  0.1370  0.2645 -0.4508
  324MOL0     O43635   9.062   6.459   3.328  0.1783 -0.2416  0.2443
  324MOL0     C43636   9.168   6.520   3.281  0.1992 -0.5857 -0.4913
  324MOL0     C43637   9.171   6.660   3.267  1.1890 -0.3513  0.4766
  324MOL0     C43638   9.291   6.715   3.216  0.0412 -0.0848  0.4458
  324MOL0     C43639   9.388   6.634   3.166 -0.8478  0.9395  0.3909
  324MOL0     O43640   9.493   6.694   3.115 -0.5238 -0.8964  0.3054
  324MOL0     C43641   9.596   6.608   3.055  0.0581 -1.0449  0.4949
  324MOL0     C43642   9.719   6.693   3.034 -0.2329  0.2075  1.4142
  324MOL0     C43643   9.807   6.695   3.160 -0.1595  0.3186  0.2637
  324MOL0     C43644   9.923   6.791   3.152 -0.7138 -0.1724  0.3361
  324MOL0     C43645  10.025   6.739   3.047  0.1043 -0.0463  0.0531
  324MOL0     C43646  10.161   6.805   3.042  0.1592  0.0094  0.3742
  324MOL0     C43647  10.238   6.719   2.932 -0.0899  0.3632 -0.6993
  324MOL0     C43648  10.383   6.756   2.915 -0.1106 -0.3033  0.2066
  324MOL0    Cl43649  10.449   6.623   2.818  0.0569 -0.5330 -0.4706
  324MOL0     C43650   9.385   6.493   3.176 -0.0215  0.0692 -0.3989
  324MOL0     C43651   9.268   6.437   3.237 -0.5546 -0.1485  2.0497
  324MOL0     O43652   9.087   6.536   3.546 -0.3443  0.8393 -0.0091
  324MOL0     C43653   8.858   6.411   3.630 -0.3832  0.2909 -0.7992
  324MOL0     C43654   8.750   6.332   3.677 -0.0909  0.3357 -0.2224
  324MOL0     N43655   8.365   5.688   3.677  0.6297 -0.8077  0.2890
  324MOL0     N43656   8.424   5.590   3.742  0.5476  0.2857 -0.0376
  324MOL0     C43657   9.579   5.552   4.115 -0.3821 -0.1650  0.1550
  324MOL0     C43658   9.687   5.640   4.139 -0.6754  0.4159 -0.0878
  324MOL0     C43659  10.079   5.790   4.241 -0.4620  0.4059 -0.2127
  324MOL0     C43660  10.163   5.824   4.140  0.0445  0.1368 -0.1028
  324MOL0     C43661  10.272   5.915   4.151 -0.0230  0.8559 -0.1198
  324MOL0     C43662  10.284   5.988   4.264 -0.3527  0.1670  0.0488
  324MOL0     O43663  10.395   6.072   4.286  0.9247 -0.0560  0.3063
  324MOL0     C43664  10.520   6.046   4.213  0.1670 -0.9503  0.4015
  324MOL0     C43665  10.533   6.132   4.086 -0.1652  0.0384 -0.4244
  324MOL0     C43666  10.552   6.281   4.108  0.5328 -0.2672 -0.4741
  324MOL0     C43667  10.501   6.375   3.990  0.4450  0.2107  0.0938
  324MOL0     C43668  10.558   6.328   3.860  0.0368  0.1025 -0.2187
  324MOL0     C43669  10.586   6.282   3.750 -0.0398  0.0495  0.0265
  324MOL0     C43670  10.189   5.969   4.367 -0.7359 -0.2064 -0.2266
  324MOL0     C43671  10.095   5.864   4.359 -0.1636  0.3417 -0.4232
  324MOL0     C43672   9.992   5.849   4.469  0.0583 -0.2732 -0.4941
  324MOL0     H43673   9.912   5.508   3.926 -0.2462 -1.2764  1.6014
  324MOL0     H43674   9.693   5.374   3.861  0.6033 -0.0434  0.4246
  324MOL0     H43675   9.398   5.530   3.880  0.9511 -0.4296  0.4732
  324MOL0     H43676   9.419   5.387   3.776  0.5452  0.7343 -0.0994
  324MOL0     H43677   9.214   5.347   3.984 -0.2918  1.4957  0.1757
  324MOL0     H43678   9.250   5.276   3.823 -1.1180 -0.2988  2.1880
  324MOL0     H43679   9.143   5.431   3.706  1.5165 -2.3664  0.7087
  324MOL0     H43680   9.171   5.559   3.823  2.7262 -1.0909  0.3349
  324MOL0     H43681   8.968   5.318   3.847  2.9261 -0.3138  0.4510
  324MOL0     H43682   8.973   5.441   3.962 -0.4597  3.2789 -0.9962
  324MOL0     H43683   8.928   5.611   3.797  0.5071 -1.9877  3.4459
  324MOL0     H43684   8.895   5.503   3.660 -0.1172  1.3265 -1.7759
  324MOL0     H43685   8.684   5.531   3.729 -0.3819 -0.1788  0.0930
  324MOL0     H43686   8.719   5.395   3.829 -0.6177 -0.3156 -2.1378
  324MOL0     H43687   8.722   5.686   3.928  2.6522 -1.7544 -3.0523
  324MOL0     H43688   8.756   5.536   4.023 -1.8470  1.5828  2.6933
  324MOL0     H43689   8.530   5.453   3.952  1.9278 -0.0486 -0.8939
  324MOL0     H43690   8.532   5.595   4.059  0.3688  0.5189 -0.3126
  324MOL0     H43691   8.439   5.836   3.956 -0.1300 -0.1667 -0.0236
  324MOL0     H43692   8.199   5.920   3.734 -0.5565  1.3946  0.4995
  324MOL0     H43693   8.332   6.002   3.809 -0.3202  2.2339 -1.7812
  324MOL0     H43694   8.285   5.951   3.518 -0.4284  0.4712 -0.5573
  324MOL0     H43695   8.331   6.096   3.612 -1.1911  0.2111 -0.1912
  324MOL0     H43696   8.519   6.018   3.460 -0.4023 -0.7913 -0.3713
  324MOL0     H43697   8.512   5.854   3.525  1.4037  0.0465  0.8556
  324MOL0     H43698   8.690   5.943   3.631  1.3321 -0.6379  3.8156
  324MOL0     H43699   8.574   5.963   3.759 -0.7112 -0.0305 -0.6250
  324MOL0     H43700   8.772   6.081   3.445  2.0929  1.0061 -2.6361
  324MOL0     H43701   8.937   6.220   3.361 -1.6254 -0.5486 -1.5113
  324MOL0     H43702   9.096   6.733   3.295  1.3216 -0.3417  0.8082
  324MOL0     H43703   9.292   6.823   3.203  0.0517  0.0757  1.6352
  324MOL0     H43704   9.624   6.523   3.118  2.0227 -0.8254 -0.0267
  324MOL0     H43705   9.557   6.559   2.965 -1.2021 -0.4143  0.6759
  324MOL0     H43706   9.768   6.642   2.951 -4.8259 -1.0849 -0.8910
  324MOL0     H43707   9.690   6.792   2.995 -3.2994 -0.3432  2.0296
  324MOL0     H43708   9.746   6.722   3.247 -1.0594  1.5617 -0.7149
  324MOL0     H43709   9.842   6.592   3.174  0.1257  0.4681  0.6720
  324MOL0     H43710   9.973   6.786   3.250  0.2912 -1.5944 -0.2225
  324MOL0     H43711   9.894   6.893   3.127  1.0326  0.5772  1.1826
  324MOL0     H43712   9.980   6.756   2.949 -0.0063  0.2852  0.1592
  324MOL0     H43713  10.051   6.636   3.073 -0.1471  0.8658  4.8865
  324MOL0     H43714  10.155   6.906   2.999 -0.4173 -1.5898 -3.7988
  324MOL0     H43715  10.213   6.802   3.138  0.1881  1.1351  0.4149
  324MOL0     H43716  10.203   6.731   2.829  1.1126 -0.1943 -1.1892
  324MOL0     H43717  10.237   6.611   2.953 -1.2566  0.2730 -1.1705
  324MOL0     H43718  10.390   6.848   2.857 -0.6087 -0.7362 -0.5620
  324MOL0     H43719  10.435   6.770   3.010 -1.0161  1.1189  0.5185
  324MOL0     H43720   9.461   6.419   3.154  0.0683 -0.8789  2.5612
  324MOL0     H43721   9.241   6.332   3.246  0.1864 -0.3691  1.7670
  324MOL0     H43722   8.888   6.494   3.692 -2.3707  0.6802 -0.2940
  324MOL0     H43723   8.695   6.356   3.767 -1.2604 -1.3573 -0.4405
  324MOL0     H43724   9.490   5.560   4.177 -0.4115  1.8197 -0.0692
  324MOL0     H43725   9.670   5.711   4.220 -1.4847 -1.7578  1.7636
  324MOL0     H43726  10.166   5.788   4.038 -0.3407 -0.7955  0.2083
  324MOL0     H43727  10.339   5.917   4.066 -0.3500 -4.3705 -0.7914
  324MOL0     H43728  10.524   5.940   4.186  1.2718 -0.2292 -2.6720
  324MOL0     H43729  10.609   6.053   4.276  1.3134 -2.7131 -0.9320
  324MOL0     H43730  10.454   6.117   4.011  1.1379 -1.0434 -1.6515
  324MOL0     H43731  10.615   6.094   4.024  0.3590 -0.6012  0.6354
  324MOL0     H43732  10.656   6.307   4.129  1.6052 -3.2965 -1.5953
  324MOL0     H43733  10.497   6.297   4.202 -0.7208 -1.3611 -0.9974
  324MOL0     H43734  10.392   6.373   3.986  0.2306  3.2007  1.5902
  324MOL0     H43735  10.533   6.479   4.005  0.6926  0.0542  0.6767
  324MOL0     H43736  10.608   6.252   3.649 -1.0960  0.0727 -0.2188
  324MOL0     H43737  10.196   6.026   4.459  2.9784 -0.3386 -0.3058
  324MOL0     H43738   9.949   5.947   4.493 -0.6477 -0.8413  0.6934
  324MOL0     H43739   9.910   5.785   4.433  1.9744 -2.3247 -1.4259
  324MOL0     H43740  10.032   5.813   4.564 -0.1744  1.5242  0.3335
  325MOL0     O43741  10.223   3.763   9.681 -0.7600 -0.6200  0.9818
  325MOL0     C43742  10.154   3.798   9.583  0.1051  0.3561  0.3082
  325MOL0     O43743  10.094   3.917   9.566  0.7217 -0.2358  0.3419
  325MOL0     C43744  10.127   4.025   9.647 -0.1138  0.5928 -0.0426
  325MOL0     C43745  10.256   4.060   9.686 -0.2075  0.5286  0.1994
  325MOL0     C43746  10.278   4.173   9.764  0.1994  1.0270  0.1134
  325MOL0     C43747  10.177   4.262   9.801 -0.7627  0.5640  0.4815
  325MOL0     O43748  10.214   4.376   9.861 -0.5539  0.2093 -0.2667
  325MOL0     C43749  10.123   4.473   9.908  0.9072 -0.6479  0.1211
  325MOL0     C43750  10.185   4.580   9.992  0.0539  0.2978 -0.2041
  325MOL0     C43751  10.253   4.538  10.117 -0.0430  0.1087  0.1328
  325MOL0     C43752  10.366   4.438  10.105  0.1702 -0.3705 -0.2679
  325MOL0     C43753  10.454   4.430  10.239  0.4538 -0.2136 -0.6158
  325MOL0     C43754  10.579   4.352  10.206  0.1323  0.0920 -0.7575
  325MOL0     C43755  10.656   4.359  10.340  0.6823  0.3347  0.1294
  325MOL0     C43756  10.644   4.220  10.410  0.3390  0.2110 -0.4459
  325MOL0     N43757  10.723   4.214  10.535 -0.2904 -0.0272  0.7671
  325MOL0     C43758  10.858   4.195  10.545  0.0676 -0.4067 -0.4442
  325MOL0     C43759  10.884   4.243  10.669 -0.2632  0.2149 -0.8775
  325MOL0     C43760  11.017   4.258  10.733 -0.2423 -0.2289  0.0410
  325MOL0     C43761  11.080   4.131  10.790 -0.0634  0.2052 -0.3360
  325MOL0     C43762  11.111   4.017  10.688 -0.5117 -0.0262  0.7554
  325MOL0     C43763  11.195   4.071  10.575  0.1158  0.5803  1.2391
  325MOL0     O43764  11.302   4.148  10.616 -0.5963  0.1654  0.3165
  325MOL0     C43765  11.419   4.083  10.665 -0.9876 -0.1888  0.3623
  325MOL0     C43766  11.433   3.946  10.684 -0.2127 -0.4315  0.6454
  325MOL0     C43767  11.561   3.897  10.698  0.2843  0.9005 -0.1464
  325MOL0     C43768  11.675   3.979  10.723 -0.4257  0.7701  0.4854
  325MOL0     C43769  11.807   3.916  10.743  0.1181  0.3327  0.1431
  325MOL0     O43770  11.912   3.991  10.789 -0.0013 -0.2160  0.1051
  325MOL0     C43771  12.035   3.951  10.815  0.4480 -0.6522 -0.4288
  325MOL0     C43772  12.070   3.838  10.892 -0.1500  0.1319 -0.0936
  325MOL0     C43773  12.213   3.813  10.918 -0.0659 -0.0167  0.0567
  325MOL0     C43774  12.319   3.894  10.866  0.2303 -0.9659 -0.5135
  325MOL0     O43775  12.450   3.871  10.886  0.3108  0.5378  0.9362
  325MOL0     C43776  12.475   3.735  10.925  0.1732  0.6805 -0.5487
  325MOL0     C43777  12.626   3.713  10.923 -0.2262  0.7346 -0.3854
  325MOL0     C43778  12.692   3.807  11.026 -0.2768 -0.3515  0.4506
  325MOL0     C43779  12.842   3.790  11.003 -0.4601 -0.1067 -0.0598
  325MOL0     C43780  12.920   3.905  11.070  0.3253  1.1904 -0.2933
  325MOL0     C43781  13.065   3.867  11.099 -0.1049  0.6197 -0.5229
  325MOL0     C43782  13.129   3.984  11.166 -0.1349 -0.5977 -0.5873
  325MOL0     C43783  13.278   3.958  11.184 -0.3304  0.0855  0.0581
  325MOL0    Cl43784  13.315   3.808  11.281  0.2535  0.3431  0.5694
  325MOL0     C43785  12.280   4.011  10.792 -0.9782 -0.0029 -0.0795
  325MOL0     C43786  12.144   4.028  10.771  0.5229 -0.2109  0.1818
  325MOL0     O43787  11.823   3.800  10.699 -0.3490 -0.3734  0.0758
  325MOL0     C43788  11.654   4.115  10.712 -0.2681  0.7059 -0.1996
  325MOL0     C43789  11.528   4.164  10.684 -1.1456  0.1647 -0.8311
  325MOL0     N43790  10.764   4.276  10.732  0.2121 -0.8414  0.2047
  325MOL0     N43791  10.665   4.256  10.653  0.7311 -0.4544 -0.2258
  325MOL0     C43792  10.056   4.232   9.740  1.1326 -0.3559  0.3311
  325MOL0     C43793  10.028   4.124   9.664 -0.1097  0.2482  0.1931
  325MOL0     C43794  10.122   3.708   9.475 -0.6305  0.7742 -0.3476
  325MOL0     C43795   9.991   3.685   9.427 -0.0484 -1.8284  0.0479
  325MOL0     C43796   9.961   3.580   9.338  0.0308  0.1871  0.9395
  325MOL0     C43797  10.064   3.499   9.274 -0.6249 -0.0550 -0.2773
  325MOL0     O43798  10.039   3.386   9.195  0.5411 -0.8682 -0.7608
  325MOL0     C43799   9.913   3.386   9.118  1.2735  0.4653  0.3531
  325MOL0     C43800   9.884   3.251   9.048 -0.2744 -0.1594  0.6326
  325MOL0     C43801   9.915   3.244   8.904 -0.3308 -0.4976 -0.0546
  325MOL0     C43802   9.933   3.096   8.864 -0.8307 -0.4997  0.1582
  325MOL0     C43803   9.926   3.081   8.718 -0.1755  0.5589 -0.2490
  325MOL0     C43804   9.916   3.072   8.595 -0.0507 -0.0136 -0.6115
  325MOL0     C43805  10.193   3.530   9.318  1.5421 -0.5562 -0.1451
  325MOL0     C43806  10.225   3.633   9.407 -0.0969 -0.3868 -0.0678
  325MOL0     C43807  10.373   3.655   9.449  0.4904 -0.7826  0.6675
  325MOL0     H43808  10.339   3.995   9.661  1.0423  1.1008  2.5417
  325MOL0     H43809  10.373   4.200   9.808  1.9711 -1.5996 -1.7904
  325MOL0     H43810  10.067   4.519   9.827 -0.3030  1.0810  1.8306
  325MOL0     H43811  10.042   4.422   9.962  0.0651 -0.5171 -0.9869
  325MOL0     H43812  10.103   4.644  10.026 -0.8893 -0.9378 -0.1009
  325MOL0     H43813  10.259   4.640   9.938  0.6247 -0.3775 -0.1883
  325MOL0     H43814  10.174   4.513  10.189 -0.4595 -1.4900 -0.8441
  325MOL0     H43815  10.302   4.624  10.164  0.4288 -0.1223  0.0647
  325MOL0     H43816  10.320   4.339  10.097  1.4216 -1.0821  0.9124
  325MOL0     H43817  10.432   4.479  10.028  0.1877  3.2216  1.4799
  325MOL0     H43818  10.481   4.531  10.271 -0.2074  0.0132 -0.7661
  325MOL0     H43819  10.396   4.381  10.317 -0.9910  1.7391 -0.3814
  325MOL0     H43820  10.559   4.248  10.179 -2.1152 -0.1153  1.3923
  325MOL0     H43821  10.635   4.403  10.127 -1.0306 -1.2074 -2.4809
  325MOL0     H43822  10.613   4.436  10.403  0.3722  1.0460 -0.9169
  325MOL0     H43823  10.762   4.381  10.325  0.6770  0.2472 -0.0474
  325MOL0     H43824  10.539   4.196  10.426 -0.1219  2.9204  1.1567
  325MOL0     H43825  10.681   4.136  10.351 -1.6483 -0.5639 -0.6626
  325MOL0     H43826  10.934   4.161  10.477  1.2635 -0.3903  0.8385
  325MOL0     H43827  11.093   4.315  10.678 -0.4975  2.3102  2.1042
  325MOL0     H43828  11.009   4.315  10.826  3.4256 -1.8601  1.5508
  325MOL0     H43829  11.165   4.170  10.847 -1.0473  1.4248  0.3521
  325MOL0     H43830  11.003   4.088  10.855 -1.2526  1.1310 -1.0873
  325MOL0     H43831  11.024   3.967  10.645  1.2522 -2.1687 -0.4946
  325MOL0     H43832  11.164   3.933  10.735 -1.6866 -2.8057 -2.5420
  325MOL0     H43833  11.129   4.137  10.518  1.1909  1.4369  0.9448
  325MOL0     H43834  11.239   3.999  10.505  1.7021 -1.2468  3.8906
  325MOL0     H43835  11.347   3.884  10.661  0.0381 -0.7777  0.6382
  325MOL0     H43836  11.576   3.790  10.688 -0.8647  0.7122  0.0940
  325MOL0     H43837  11.985   3.782  10.930  0.9401 -0.6473  1.2850
  325MOL0     H43838  12.231   3.723  10.976 -0.0037 -0.0213  0.0303
  325MOL0     H43839  12.454   3.720  11.031  0.6746  0.2757 -0.4992
  325MOL0     H43840  12.431   3.655  10.865  1.2699 -0.0975 -0.3587
  325MOL0     H43841  12.662   3.610  10.937  0.1838  0.8929 -0.2547
  325MOL0     H43842  12.645   3.751  10.822  0.6846 -0.2766 -0.6189
  325MOL0     H43843  12.664   3.912  11.008  0.7160 -0.0065  0.8599
  325MOL0     H43844  12.680   3.781  11.131  0.3371 -0.9520  0.3738
  325MOL0     H43845  12.875   3.787  10.899  1.3379  1.1464  0.4207
  325MOL0     H43846  12.875   3.704  11.062  1.2590  1.0565  0.7496
  325MOL0     H43847  12.872   3.921  11.167 -0.0893 -4.3449  0.7958
  325MOL0     H43848  12.917   3.997  11.011 -4.2076  0.8905 -0.9195
  325MOL0     H43849  13.077   3.779  11.162  0.0888  0.7439 -0.3863
  325MOL0     H43850  13.112   3.838  11.005 -0.7199 -2.3979 -0.0001
  325MOL0     H43851  13.081   4.017  11.258 -1.3111 -3.5007 -0.0490
  325MOL0     H43852  13.117   4.064  11.093  0.7538  0.0043 -0.0896
  325MOL0     H43853  13.333   3.954  11.090 -0.0756  1.2379  0.1407
  325MOL0     H43854  13.314   4.036  11.252 -2.5450  1.6143 -0.4184
  325MOL0     H43855  12.363   4.067  10.749  1.2780 -1.3081  2.2486
  325MOL0     H43856  12.123   4.120  10.717 -0.7483 -0.3347  0.4352
  325MOL0     H43857  11.736   4.185  10.720  2.2046 -1.9669 -0.2120
  325MOL0     H43858  11.511   4.270  10.671 -1.8948  0.4172  1.7895
  325MOL0     H43859   9.982   4.309   9.759 -0.5254 -2.3656  2.6465
  325MOL0     H43860   9.927   4.112   9.627 -0.4341 -0.3959  1.2276
  325MOL0     H43861   9.915   3.752   9.465  2.7330  1.2209  0.7451
  325MOL0     H43862   9.855   3.566   9.316 -0.3277 -0.8468  3.0248
  325MOL0     H43863   9.902   3.462   9.040 -1.2556 -1.0307 -0.8475
  325MOL0     H43864   9.835   3.399   9.194  2.0492  3.2712  0.7847
  325MOL0     H43865   9.777   3.234   9.061 -0.8189  1.7482 -0.8873
  325MOL0     H43866   9.944   3.174   9.099  2.4207  1.7873  0.6341
  325MOL0     H43867  10.010   3.293   8.881 -0.4136  0.4249  1.4265
  325MOL0     H43868   9.843   3.294   8.839  1.0747 -0.8716 -1.9776
  325MOL0     H43869  10.024   3.050   8.903 -0.2718 -1.0057 -1.6252
  325MOL0     H43870   9.850   3.042   8.911 -2.0809  0.3536 -0.9789
  325MOL0     H43871   9.896   3.048   8.493 -1.9239 -1.0475 -0.0560
  325MOL0     H43872  10.285   3.485   9.281  0.8484  0.3262 -3.2512
  325MOL0     H43873  10.401   3.632   9.552  2.2978  1.8286  0.8639
  325MOL0     H43874  10.435   3.599   9.378  1.7344  1.5787 -0.2136
  325MOL0     H43875  10.398   3.761   9.436  0.6256 -0.9809 -0.9427
  326MOL0     O43876   1.778  10.907   0.417 -0.7089 -0.2714  1.0508
  326MOL0     C43877   1.731  11.017   0.391  0.4966 -0.7545  0.8776
  326MOL0     O43878   1.786  11.136   0.431 -0.4049  1.1695 -0.3865
  326MOL0     C43879   1.918  11.154   0.456 -0.2840  0.1479 -0.8191
  326MOL0     C43880   2.025  11.072   0.417 -0.6165  0.0122 -0.4666
  326MOL0     C43881   2.151  11.108   0.461  0.1699  0.2704  0.2723
  326MOL0     C43882   2.174  11.212   0.551  0.2899 -0.2604 -0.2897
  326MOL0     O43883   2.307  11.243   0.584 -0.1160 -0.6505 -0.1690
  326MOL0     C43884   2.379  11.141   0.646 -0.5880  0.1550 -0.3013
  326MOL0     C43885   2.529  11.155   0.631  0.4169  0.8142 -0.3922
  326MOL0     C43886   2.551  11.101   0.487  0.0320  0.3737  0.5478
  326MOL0     C43887   2.701  11.103   0.451 -0.3893  0.7424  0.4815
  326MOL0     C43888   2.755  11.250   0.434 -0.5187  0.1793  0.3938
  326MOL0     C43889   2.899  11.253   0.394 -0.4547 -0.1258  0.6674
  326MOL0     C43890   2.929  11.389   0.337  0.2076  0.0917 -0.3244
  326MOL0     C43891   3.071  11.405   0.277  0.4897 -0.3667  0.1535
  326MOL0     N43892   3.091  11.329   0.151 -0.1832 -0.7595  0.1259
  326MOL0     C43893   3.118  11.386   0.026  0.0566 -0.2347  1.0963
  326MOL0     C43894   3.167  11.284  -0.051  0.2037 -0.6254 -0.7551
  326MOL0     C43895   3.185  11.289  -0.204  0.6082  0.4840  0.1884
  326MOL0     C43896   3.323  11.344  -0.238 -0.5641  0.3678 -0.0597
  326MOL0     C43897   3.334  11.358  -0.404  0.1030 -0.2749  0.1788
  326MOL0     C43898   3.466  11.409  -0.436 -0.5758  0.1074 -1.2250
  326MOL0     O43899   3.562  11.309  -0.410 -1.0585 -0.1265  0.2184
  326MOL0     C43900   3.696  11.341  -0.429 -0.1642 -0.2209  0.4995
  326MOL0     C43901   3.745  11.463  -0.470  0.2757 -0.5683  0.6547
  326MOL0     C43902   3.878  11.483  -0.490  0.1224 -0.2731  0.3772
  326MOL0     C43903   3.966  11.382  -0.456 -0.7215 -0.9492 -0.2634
  326MOL0     C43904   4.118  11.415  -0.464 -0.0975 -0.0928  0.1918
  326MOL0     O43905   4.193  11.325  -0.394 -0.1967  0.3018  0.1227
  326MOL0     C43906   4.316  11.316  -0.437 -1.1933 -0.8222 -0.1193
  326MOL0     C43907   4.359  11.307  -0.571 -0.3161  0.6859  0.2527
  326MOL0     C43908   4.495  11.315  -0.609 -1.0652  0.1596  0.3776
  326MOL0     C43909   4.588  11.339  -0.510 -0.2229 -0.6619  0.3104
  326MOL0     O43910   4.717  11.353  -0.544 -0.0379  0.5799 -0.1610
  326MOL0     C43911   4.766  11.475  -0.504  0.7753  0.2259  0.0866
  326MOL0     C43912   4.798  11.550  -0.634  0.1440  0.1281 -0.2660
  326MOL0     C43913   4.679  11.613  -0.712 -0.5502  0.8778  0.7416
  326MOL0     C43914   4.728  11.722  -0.812 -1.2792 -0.2341 -0.2502
  326MOL0     C43915   4.785  11.683  -0.944 -0.4517  0.0937 -0.6882
  326MOL0     C43916   4.676  11.617  -1.039 -0.2897 -0.1796  0.0839
  326MOL0     C43917   4.742  11.597  -1.179 -0.5276 -0.2673 -0.0021
  326MOL0     C43918   4.645  11.533  -1.272 -0.1343  0.3035 -0.3489
  326MOL0    Cl43919   4.720  11.512  -1.424 -0.2874 -0.2164 -0.8976
  326MOL0     C43920   4.554  11.340  -0.373 -0.1613 -0.6698  0.0297
  326MOL0     C43921   4.419  11.322  -0.338  1.0246  0.1821  0.3577
  326MOL0     O43922   4.160  11.509  -0.530 -0.7645 -0.0645  0.7487
  326MOL0     C43923   3.924  11.265  -0.393  0.0900  0.8741  1.0465
  326MOL0     C43924   3.788  11.245  -0.387 -0.6449 -0.0958 -0.0543
  326MOL0     N43925   3.155  11.169   0.019 -0.0659  0.1672 -0.1835
  326MOL0     N43926   3.124  11.197   0.139 -0.9200 -1.6471 -0.3758
  326MOL0     C43927   2.071  11.293   0.583  0.1232  0.2203  0.7474
  326MOL0     C43928   1.946  11.273   0.536 -0.3982 -0.3162  0.8552
  326MOL0     C43929   1.598  11.029   0.316  0.2841 -0.9009  0.3336
  326MOL0     C43930   1.536  11.159   0.305  1.2669  0.2522 -0.4398
  326MOL0     C43931   1.420  11.169   0.234  0.5853  0.1401 -0.1363
  326MOL0     C43932   1.371  11.060   0.157 -0.3348 -1.1889  0.1504
  326MOL0     O43933   1.252  11.078   0.090  0.1691 -0.0773 -0.5840
  326MOL0     C43934   1.208  10.992  -0.011  0.3551 -0.4515  0.1676
  326MOL0     C43935   1.098  10.891   0.026 -0.2306  0.0073  0.6233
  326MOL0     C43936   0.989  10.935   0.120 -1.0433 -0.5962  0.1269
  326MOL0     C43937   0.880  10.830   0.135 -0.0516 -0.0084  0.2532
  326MOL0     C43938   0.789  10.816   0.026  0.1874  0.8270 -0.3711
  326MOL0     C43939   0.711  10.812  -0.065  0.3819  0.2364 -0.1019
  326MOL0     C43940   1.439  10.940   0.160  0.2069 -0.5808 -0.1871
  326MOL0     C43941   1.546  10.919   0.245  0.5306  0.7483  0.2149
  326MOL0     C43942   1.603  10.770   0.249  0.3290 -1.1247  0.8433
  326MOL0     H43943   2.006  10.983   0.357 -0.8125  0.0248 -0.4199
  326MOL0     H43944   2.230  11.053   0.412 -0.3216 -0.5060  0.3351
  326MOL0     H43945   2.364  11.146   0.754 -2.3350  0.9080 -0.5485
  326MOL0     H43946   2.345  11.040   0.623  0.9466 -0.3981 -0.2543
  326MOL0     H43947   2.581  11.091   0.703  0.0639  1.2092  0.2182
  326MOL0     H43948   2.562  11.258   0.645  2.4900  0.2605 -0.9043
  326MOL0     H43949   2.486  11.158   0.420 -1.1440  0.2968  1.5847
  326MOL0     H43950   2.521  10.996   0.486  0.6361  0.1780  1.9298
  326MOL0     H43951   2.761  11.046   0.523  1.9590 -2.2093 -3.4487
  326MOL0     H43952   2.710  11.049   0.357 -2.3143 -0.5541  0.9863
  326MOL0     H43953   2.694  11.300   0.358 -0.3166  1.4379  1.0272
  326MOL0     H43954   2.725  11.302   0.526 -4.5499 -0.1818 -0.5154
  326MOL0     H43955   2.966  11.225   0.476  1.1822 -0.8414 -0.8460
  326MOL0     H43956   2.906  11.171   0.322 -0.6825 -1.3066  1.9320
  326MOL0     H43957   2.917  11.459   0.421  1.4703 -3.4712  3.1534
  326MOL0     H43958   2.862  11.408   0.253  1.3633 -2.1902 -1.8391
  326MOL0     H43959   3.095  11.510   0.259 -0.5307  0.3694  2.6645
  326MOL0     H43960   3.132  11.359   0.356 -0.9711 -1.8301  0.4758
  326MOL0     H43961   3.098  11.488  -0.006  1.9153 -0.1426  0.0833
  326MOL0     H43962   3.190  11.187  -0.243  2.1337  0.3054  0.8081
  326MOL0     H43963   3.109  11.350  -0.254  1.4101 -0.7462 -2.6932
  326MOL0     H43964   3.342  11.442  -0.192  1.9350  1.0842 -2.3248
  326MOL0     H43965   3.410  11.291  -0.198 -1.1709  0.1204  0.9491
  326MOL0     H43966   3.264  11.432  -0.443 -1.2041 -2.1044 -1.0988
  326MOL0     H43967   3.315  11.264  -0.457  0.1868  0.8972 -2.0424
  326MOL0     H43968   3.486  11.502  -0.383 -0.0503 -0.5404 -0.2532
  326MOL0     H43969   3.472  11.442  -0.540  0.2777  2.9838 -0.3383
  326MOL0     H43970   3.679  11.542  -0.505 -1.6221 -2.3501 -0.0062
  326MOL0     H43971   3.919  11.583  -0.503 -3.4874  1.2616 -0.3079
  326MOL0     H43972   4.285  11.301  -0.651  0.9330 -2.1790 -0.8333
  326MOL0     H43973   4.534  11.305  -0.710  1.9687  1.4863  1.3129
  326MOL0     H43974   4.697  11.525  -0.435  2.1176  0.6685  1.1687
  326MOL0     H43975   4.861  11.466  -0.450  1.3256  0.0986 -0.8754
  326MOL0     H43976   4.871  11.627  -0.606 -0.0936  1.7892 -3.7397
  326MOL0     H43977   4.859  11.484  -0.697  2.9203 -0.1079  2.4410
  326MOL0     H43978   4.632  11.538  -0.776 -0.0804  0.1631  1.2171
  326MOL0     H43979   4.612  11.652  -0.635 -1.3167  0.6339  0.2090
  326MOL0     H43980   4.805  11.774  -0.755 -1.1683 -1.6194  0.9300
  326MOL0     H43981   4.646  11.791  -0.833  1.2638  2.1880 -3.2133
  326MOL0     H43982   4.867  11.613  -0.925 -1.4892 -1.5279 -1.9019
  326MOL0     H43983   4.838  11.770  -0.983  5.5138 -1.7585  1.9916
  326MOL0     H43984   4.642  11.523  -0.996 -1.8749  0.5994  0.5924
  326MOL0     H43985   4.586  11.679  -1.040 -0.3997 -0.3372 -0.4938
  326MOL0     H43986   4.824  11.528  -1.154  0.3094  1.4652  2.5025
  326MOL0     H43987   4.776  11.698  -1.205  2.8796 -0.6164  2.3589
  326MOL0     H43988   4.609  11.434  -1.242 -0.6219 -0.2746 -2.6466
  326MOL0     H43989   4.556  11.596  -1.280 -0.2721 -0.0993 -3.9352
  326MOL0     H43990   4.639  11.362  -0.310  0.2069 -1.0911 -0.3110
  326MOL0     H43991   4.402  11.304  -0.233 -1.2802 -1.9015 -0.2862
  326MOL0     H43992   3.997  11.192  -0.359 -0.1967  0.4338  0.7336
  326MOL0     H43993   3.742  11.150  -0.363  0.0279 -0.8958 -1.7867
  326MOL0     H43994   2.094  11.382   0.642 -0.8906  1.1425 -0.2041
  326MOL0     H43995   1.876  11.353   0.554 -0.9897 -1.1720  2.4964
  326MOL0     H43996   1.576  11.248   0.352 -0.7469 -0.7435  3.5822
  326MOL0     H43997   1.354  11.254   0.229 -1.6459 -1.5558 -0.9025
  326MOL0     H43998   1.289  10.955  -0.074  0.6001 -2.0161  1.3458
  326MOL0     H43999   1.152  11.058  -0.078  0.8101  0.2016  0.4268
  326MOL0     H44000   1.153  10.806   0.066 -0.5279 -0.6588 -0.3396
  326MOL0     H44001   1.064  10.851  -0.070  3.4753 -0.8045 -0.4987
  326MOL0     H44002   0.937  11.026   0.087  1.3388  0.4525 -1.0049
  326MOL0     H44003   1.043  10.961   0.211 -1.1255 -0.6660  0.1951
  326MOL0     H44004   0.918  10.733   0.170 -0.2278 -0.5975 -1.1268
  326MOL0     H44005   0.818  10.870   0.215 -1.9021  0.5695 -1.3875
  326MOL0     H44006   0.642  10.823  -0.147 -0.3532 -0.8880  0.3547
  326MOL0     H44007   1.389  10.864   0.101 -0.4069 -0.5558  0.3022
  326MOL0     H44008   1.579  10.725   0.345  0.5273  1.0673  1.9792
  326MOL0     H44009   1.560  10.706   0.171  0.3106 -1.2805  0.9818
  326MOL0     H44010   1.711  10.760   0.234 -0.2391 -3.9630 -2.8571
  327MOL0     O44011   6.305   9.103   0.498 -0.1696  0.3706  0.1991
  327MOL0     C44012   6.294   9.043   0.384 -0.4105 -0.3550 -0.8475
  327MOL0     O44013   6.368   9.057   0.270  0.3036  1.2198 -0.5433
  327MOL0     C44014   6.462   9.158   0.278  0.1550 -1.1873  0.3558
  327MOL0     C44015   6.585   9.135   0.339  0.6314 -1.4444  0.0544
  327MOL0     C44016   6.686   9.224   0.314 -0.6310  0.0314 -0.1565
  327MOL0     C44017   6.659   9.354   0.256 -0.1566 -1.1366  0.7306
  327MOL0     O44018   6.762   9.449   0.243 -0.8492  0.0301  0.5815
  327MOL0     C44019   6.735   9.582   0.290  0.2697  0.1171  0.4605
  327MOL0     C44020   6.859   9.649   0.310 -0.3457 -0.1330  1.1596
  327MOL0     C44021   6.958   9.574   0.403  0.4378 -0.9170 -0.3110
  327MOL0     C44022   7.087   9.653   0.437  0.9101  0.4503  1.2547
  327MOL0     C44023   7.167   9.587   0.548  0.4283  0.6619  0.3004
  327MOL0     C44024   7.299   9.645   0.577 -0.0008  0.2092  0.0760
  327MOL0     C44025   7.353   9.565   0.696  0.4918  0.2226  0.2472
  327MOL0     C44026   7.383   9.410   0.655 -0.3702 -0.5337  0.2923
  327MOL0     N44027   7.505   9.404   0.578 -0.1454  0.5366 -0.1566
  327MOL0     C44028   7.513   9.383   0.446 -0.2530 -0.0476 -0.1726
  327MOL0     C44029   7.640   9.413   0.410 -0.1377 -0.8620  0.4574
  327MOL0     C44030   7.688   9.435   0.267  0.6027 -1.0727 -0.0582
  327MOL0     C44031   7.820   9.357   0.241  0.1360  0.4070 -0.4309
  327MOL0     C44032   7.862   9.371   0.088  0.0821  0.1261 -0.2141
  327MOL0     C44033   7.900   9.513   0.042 -0.4265 -0.4405 -0.2362
  327MOL0     O44034   7.937   9.515  -0.094 -0.7344 -0.1016 -0.0583
  327MOL0     C44035   8.066   9.549  -0.127 -0.1389 -0.8902 -0.6813
  327MOL0     C44036   8.111   9.499  -0.244 -0.3178  1.3436  1.0122
  327MOL0     C44037   8.243   9.502  -0.281  0.3142 -0.5486  0.3040
  327MOL0     C44038   8.342   9.558  -0.189 -0.0322 -0.1882  0.2445
  327MOL0     C44039   8.489   9.564  -0.234  0.5533 -0.1695 -0.1029
  327MOL0     O44040   8.564   9.631  -0.143 -0.4294  0.2721  0.7632
  327MOL0     C44041   8.696   9.600  -0.125 -0.1795  0.5159 -0.3654
  327MOL0     C44042   8.732   9.531  -0.008 -0.4974  0.4769  0.2876
  327MOL0     C44043   8.865   9.484   0.006  0.5301  0.2922 -0.6705
  327MOL0     C44044   8.960   9.502  -0.095  0.2683  0.5088 -0.2347
  327MOL0     O44045   9.080   9.439  -0.071  0.1120  0.6494  0.8599
  327MOL0     C44046   9.183   9.470  -0.168  0.0745  0.0886  0.0961
  327MOL0     C44047   9.229   9.602  -0.135 -1.2692 -0.6409 -0.5664
  327MOL0     C44048   9.378   9.599  -0.131  0.3487 -0.6367  0.5326
  327MOL0     C44049   9.454   9.495  -0.045  0.4564 -0.0699  1.0334
  327MOL0     C44050   9.592   9.540  -0.006 -1.0189  0.3579  0.1125
  327MOL0     C44051   9.676   9.596  -0.127 -0.3861 -0.2729  0.8722
  327MOL0     C44052   9.827   9.617  -0.090  0.1497  0.2726  0.1777
  327MOL0     C44053   9.915   9.646  -0.211  0.2324  0.5081 -0.0739
  327MOL0    Cl44054  10.084   9.651  -0.188 -0.0284  0.0360 -0.2781
  327MOL0     C44055   8.922   9.581  -0.207  0.3803  0.1763 -0.4936
  327MOL0     C44056   8.792   9.626  -0.225  0.3332 -0.7109 -0.7992
  327MOL0     O44057   8.533   9.495  -0.322  0.3244 -0.3466  0.5992
  327MOL0     C44058   8.298   9.614  -0.073  0.1385  0.1182 -0.1869
  327MOL0     C44059   8.162   9.610  -0.042  0.1019 -0.5874  0.9280
  327MOL0     N44060   7.711   9.439   0.520  0.2498 -0.2255  0.2695
  327MOL0     N44061   7.632   9.424   0.621  0.1933  0.2578  0.0883
  327MOL0     C44062   6.528   9.380   0.205 -0.2798 -1.1916 -0.3214
  327MOL0     C44063   6.433   9.293   0.228  0.3400 -0.2913  0.2113
  327MOL0     C44064   6.184   8.937   0.373  0.0498 -0.1564 -0.5695
  327MOL0     C44065   6.145   8.902   0.241 -0.1298 -0.0876  0.0840
  327MOL0     C44066   6.058   8.801   0.213 -0.0209  1.2545 -1.3245
  327MOL0     C44067   5.986   8.745   0.321  0.4539 -0.4094 -0.0748
  327MOL0     O44068   5.882   8.652   0.306 -0.3837 -0.3196 -0.6563
  327MOL0     C44069   5.846   8.596   0.186 -0.5997 -0.5217  0.1651
  327MOL0     C44070   5.706   8.531   0.208  0.4418 -0.3739 -0.2524
  327MOL0     C44071   5.660   8.457   0.078 -0.3991 -0.1018 -0.0818
  327MOL0     C44072   5.511   8.432   0.062 -0.4389  0.7211  0.0026
  327MOL0     C44073   5.502   8.326  -0.041  0.1541  0.8673  0.0588
  327MOL0     C44074   5.471   8.234  -0.112  0.6540  0.5767 -0.2125
  327MOL0     C44075   6.014   8.774   0.450 -0.1370 -0.6476 -0.5501
  327MOL0     C44076   6.121   8.867   0.473  0.5242  0.3803  0.0051
  327MOL0     C44077   6.154   8.877   0.625 -0.8308  0.1009 -1.0106
  327MOL0     H44078   6.582   9.034   0.380 -1.9847 -1.0483  1.0062
  327MOL0     H44079   6.792   9.201   0.324 -0.1495  1.2328 -1.9464
  327MOL0     H44080   6.664   9.634   0.225 -2.7951 -2.3953  1.5461
  327MOL0     H44081   6.674   9.585   0.381 -4.8332  0.1131 -2.5595
  327MOL0     H44082   6.843   9.754   0.337  2.8448  0.9126 -0.5642
  327MOL0     H44083   6.893   9.667   0.208 -4.4741 -1.8853 -0.7391
  327MOL0     H44084   6.988   9.476   0.364 -0.3891 -1.7217  0.9683
  327MOL0     H44085   6.906   9.545   0.495 -0.8818 -1.0039 -1.0609
  327MOL0     H44086   7.155   9.661   0.352  1.1590  0.3801  1.4465
  327MOL0     H44087   7.067   9.755   0.470 -0.6164  1.0723 -1.2690
  327MOL0     H44088   7.107   9.588   0.640  0.3947 -0.6067  0.3090
  327MOL0     H44089   7.180   9.484   0.516 -0.5636  1.2233 -2.1229
  327MOL0     H44090   7.363   9.631   0.489 -2.0227  1.3311 -1.6558
  327MOL0     H44091   7.289   9.753   0.590 -0.2236 -0.0210  2.1492
  327MOL0     H44092   7.277   9.559   0.774 -1.3391  0.4563 -1.4451
  327MOL0     H44093   7.443   9.613   0.737  0.1229  2.1109 -1.0377
  327MOL0     H44094   7.408   9.360   0.749  1.6479 -1.3034 -0.5739
  327MOL0     H44095   7.302   9.355   0.607 -0.1004 -1.6406  1.0600
  327MOL0     H44096   7.438   9.391   0.367  0.4873 -1.5226 -1.0808
  327MOL0     H44097   7.606   9.398   0.205  0.5335  0.7754 -1.1376
  327MOL0     H44098   7.707   9.543   0.259 -0.5928 -0.8091  0.3372
  327MOL0     H44099   7.894   9.400   0.309  1.7045 -2.6366 -0.0661
  327MOL0     H44100   7.810   9.252   0.268  1.6294  0.2982 -0.2081
  327MOL0     H44101   7.788   9.327   0.021  1.2836 -3.1995  0.4376
  327MOL0     H44102   7.957   9.318   0.072 -0.2682  0.0084 -2.0981
  327MOL0     H44103   7.978   9.558   0.104  0.6113  1.3955 -2.7275
  327MOL0     H44104   7.820   9.584   0.067  0.9566  1.0862 -0.0041
  327MOL0     H44105   8.049   9.448  -0.317  0.8241 -1.2269  1.6899
  327MOL0     H44106   8.266   9.461  -0.379  0.8320  0.0890  0.1559
  327MOL0     H44107   8.668   9.491   0.070 -1.7361 -0.8623 -1.3390
  327MOL0     H44108   8.897   9.425   0.092 -2.3225 -0.1848  0.1830
  327MOL0     H44109   9.267   9.401  -0.158  2.3993  2.5129 -1.2983
  327MOL0     H44110   9.154   9.471  -0.274  1.0468 -1.8579 -0.2317
  327MOL0     H44111   9.197   9.675  -0.210  0.1393  0.1283 -0.4600
  327MOL0     H44112   9.198   9.637  -0.036  1.1288  0.3211 -0.0956
  327MOL0     H44113   9.414   9.589  -0.234 -0.3784  2.0187 -0.0333
  327MOL0     H44114   9.400   9.702  -0.102  0.4331  0.8838 -4.0973
  327MOL0     H44115   9.465   9.404  -0.106  1.8226  1.1721 -0.6870
  327MOL0     H44116   9.387   9.464   0.036  1.5466  2.0468  2.8429
  327MOL0     H44117   9.653   9.455   0.025 -2.8434 -0.9952  0.1671
  327MOL0     H44118   9.597   9.603   0.084  0.1944 -1.3598  1.3202
  327MOL0     H44119   9.681   9.531  -0.215  0.7726  2.9721 -1.6648
  327MOL0     H44120   9.635   9.688  -0.170  2.7919  0.5741 -0.6915
  327MOL0     H44121   9.862   9.525  -0.042 -0.1628 -0.7210 -1.4370
  327MOL0     H44122   9.844   9.704  -0.027 -0.6588  0.3799  0.2689
  327MOL0     H44123   9.896   9.582  -0.297 -0.3152  1.0536 -0.3650
  327MOL0     H44124   9.887   9.746  -0.243  1.1177  0.9830  0.5750
  327MOL0     H44125   8.983   9.611  -0.292 -0.4388 -0.9662 -1.5230
  327MOL0     H44126   8.762   9.685  -0.311  0.1071  3.2820  1.7606
  327MOL0     H44127   8.372   9.660  -0.008 -0.2206  2.5506 -1.3718
  327MOL0     H44128   8.143   9.646   0.058  1.5024 -1.2273  1.4418
  327MOL0     H44129   6.507   9.477   0.163  0.0002 -0.3916  1.2927
  327MOL0     H44130   6.335   9.312   0.185 -0.4527 -1.9173  1.1829
  327MOL0     H44131   6.188   8.954   0.156  2.2947 -0.9821  0.6667
  327MOL0     H44132   6.050   8.768   0.110  1.7890 -1.6858 -0.6208
  327MOL0     H44133   5.929   8.530   0.160  1.9461  1.6350  2.1598
  327MOL0     H44134   5.836   8.675   0.110  1.5540  1.2606  1.6093
  327MOL0     H44135   5.626   8.599   0.238 -1.5662 -2.1138 -1.3609
  327MOL0     H44136   5.732   8.457   0.284 -0.8290 -2.6551 -1.9083
  327MOL0     H44137   5.719   8.365   0.072  0.5468  0.4739  0.1790
  327MOL0     H44138   5.681   8.515  -0.012  1.4527 -0.6536 -0.0498
  327MOL0     H44139   5.473   8.389   0.155  1.8686 -2.2113 -0.2567
  327MOL0     H44140   5.461   8.519   0.019  0.1685  0.2724 -1.7070
  327MOL0     H44141   5.437   8.151  -0.171  2.9569 -0.9189  0.4308
  327MOL0     H44142   5.954   8.720   0.523 -4.1916  2.2757 -1.4129
  327MOL0     H44143   6.097   8.954   0.678  0.7110  0.6494 -0.0874
  327MOL0     H44144   6.137   8.774   0.659  1.2733 -0.4145 -1.3598
  327MOL0     H44145   6.258   8.901   0.649 -1.0642 -0.4058  0.6319
  328MOL0     O44146   7.157   9.230   0.789  0.2801  0.5038  0.5359
  328MOL0     C44147   7.111   9.120   0.826  0.0652  1.0384 -0.8120
  328MOL0     O44148   7.188   9.013   0.868 -0.4385 -0.0594  0.4753
  328MOL0     C44149   7.316   9.043   0.906 -0.5581  0.0625  0.0139
  328MOL0     C44150   7.422   8.993   0.835 -0.0890 -0.4320 -0.5031
  328MOL0     C44151   7.556   9.024   0.878  0.6042 -0.0228  0.4131
  328MOL0     C44152   7.582   9.090   0.998  0.4943 -0.3538 -0.0672
  328MOL0     O44153   7.715   9.108   1.024 -0.1081 -0.4455  0.0148
  328MOL0     C44154   7.739   9.142   1.158  0.0372  1.0338 -0.4866
  328MOL0     C44155   7.893   9.159   1.186  0.2630 -0.0416  0.0994
  328MOL0     C44156   7.904   9.214   1.328 -0.9679 -0.6786  0.5442
  328MOL0     C44157   8.042   9.201   1.390  0.4757  0.8414 -0.4128
  328MOL0     C44158   8.151   9.290   1.334  1.0279 -0.1615  0.3831
  328MOL0     C44159   8.292   9.257   1.397 -0.4177 -0.4994  0.4692
  328MOL0     C44160   8.388   9.378   1.431 -0.0927 -0.2006 -0.0842
  328MOL0     C44161   8.519   9.330   1.492 -1.5671 -0.1752  0.1372
  328MOL0     N44162   8.621   9.440   1.506  0.1491 -0.2707 -0.1553
  328MOL0     C44163   8.725   9.448   1.595  0.2663  0.0971 -1.1353
  328MOL0     C44164   8.791   9.559   1.562 -0.7002 -0.4126  0.4451
  328MOL0     C44165   8.921   9.604   1.607  1.0355 -0.1867 -1.1474
  328MOL0     C44166   8.930   9.766   1.609  0.9046  0.7977  0.8176
  328MOL0     C44167   9.050   9.823   1.699 -0.4076 -0.4623 -0.6918
  328MOL0     C44168   9.196   9.802   1.652 -0.9256 -0.1584  0.4285
  328MOL0     O44169   9.216   9.669   1.599  0.0166  0.0300 -0.7257
  328MOL0     C44170   9.336   9.639   1.540  0.1265 -0.1340  0.0802
  328MOL0     C44171   9.334   9.519   1.471 -0.1058 -0.7528 -0.3590
  328MOL0     C44172   9.462   9.477   1.412  0.5045  0.0262  0.4956
  328MOL0     C44173   9.583   9.553   1.428  0.4584 -0.2675  0.6876
  328MOL0     C44174   9.708   9.516   1.360  0.1987  0.5749 -0.3168
  328MOL0     O44175   9.825   9.575   1.411 -0.9820 -0.0966  0.0760
  328MOL0     C44176   9.944   9.566   1.342 -0.6157  0.0076 -0.3916
  328MOL0     C44177  10.064   9.582   1.411 -1.5453  0.5332  0.1278
  328MOL0     C44178  10.186   9.558   1.350  0.7625 -0.0102 -0.1335
  328MOL0     C44179  10.199   9.530   1.215  0.0621 -0.5901 -0.1851
  328MOL0     O44180  10.320   9.523   1.148  0.5192 -0.2209  0.1938
  328MOL0     C44181  10.439   9.538   1.223  0.9599 -0.0004  0.5909
  328MOL0     C44182  10.546   9.573   1.119  1.1471 -0.4617 -0.3454
  328MOL0     C44183  10.604   9.450   1.048  0.4022  0.1527 -0.1713
  328MOL0     C44184  10.742   9.480   0.989  0.7069 -0.1377 -0.2304
  328MOL0     C44185  10.850   9.379   1.044 -0.2010  0.2320 -0.1761
  328MOL0     C44186  10.984   9.441   1.020 -0.3573 -0.2771  0.4775
  328MOL0     C44187  11.104   9.351   1.038  0.2512 -0.1478 -0.2320
  328MOL0     C44188  11.223   9.407   0.963 -0.4866 -0.4529 -0.7179
  328MOL0    Cl44189  11.379   9.353   1.034  0.0145  0.8692 -0.4249
  328MOL0     C44190  10.076   9.514   1.147  0.5481 -0.3461 -0.2080
  328MOL0     C44191   9.949   9.535   1.203  0.2400 -0.6107  0.0821
  328MOL0     O44192   9.708   9.415   1.282  0.4433 -0.8585 -0.0238
  328MOL0     C44193   9.573   9.680   1.498  0.2800 -0.1175 -0.7179
  328MOL0     C44194   9.452   9.713   1.549 -0.2637  0.4106 -1.0231
  328MOL0     N44195   8.728   9.618   1.452 -0.2923  0.3700 -0.6012
  328MOL0     N44196   8.627   9.547   1.417 -0.0790 -0.7204  0.0891
  328MOL0     C44197   7.468   9.134   1.075  0.0476  0.1515 -0.2551
  328MOL0     C44198   7.339   9.113   1.023 -0.0604  0.5117 -0.4699
  328MOL0     C44199   6.964   9.116   0.851 -0.2601 -0.3151  0.0361
  328MOL0     C44200   6.921   9.048   0.965  0.5272 -0.1596  0.3033
  328MOL0     C44201   6.784   9.041   0.996  0.3900  0.3324 -0.6139
  328MOL0     C44202   6.692   9.096   0.907 -0.0211 -0.1915 -0.0787
  328MOL0     O44203   6.558   9.065   0.937 -0.2720  0.2501  0.7435
  328MOL0     C44204   6.451   9.109   0.857  0.1105  0.3017 -0.1821
  328MOL0     C44205   6.406   9.251   0.907  0.6401 -0.5341 -0.0069
  328MOL0     C44206   6.270   9.283   0.840 -0.3726 -0.2276  0.1801
  328MOL0     C44207   6.165   9.238   0.946  0.0206  0.2415 -0.3247
  328MOL0     C44208   6.026   9.252   0.897 -0.9889  0.2210  1.0431
  328MOL0     C44209   5.908   9.257   0.861 -0.4107  0.5086  0.1869
  328MOL0     C44210   6.730   9.164   0.793 -0.8142 -1.3084  0.1621
  328MOL0     C44211   6.869   9.175   0.759  0.2230 -0.5267 -1.0550
  328MOL0     C44212   6.910   9.256   0.630 -0.0369  0.2214 -0.5189
  328MOL0     H44213   7.386   8.938   0.749 -1.8052 -2.5707  1.4432
  328MOL0     H44214   7.645   8.987   0.828 -0.2061 -0.6098 -0.6411
  328MOL0     H44215   7.703   9.244   1.178  1.5510  1.7863 -1.3823
  328MOL0     H44216   7.689   9.073   1.226  1.2053  0.8904  0.2528
  328MOL0     H44217   7.935   9.234   1.119 -3.3959  1.3707 -0.8297
  328MOL0     H44218   7.945   9.064   1.167  0.3825  0.1824 -0.7530
  328MOL0     H44219   7.844   9.155   1.397  0.0121  1.3889  3.3450
  328MOL0     H44220   7.882   9.320   1.317 -0.6771 -0.6638  0.0580
  328MOL0     H44221   8.050   9.235   1.494  1.3403  0.3133 -0.3058
  328MOL0     H44222   8.074   9.097   1.378 -1.2378  0.3569 -1.1249
  328MOL0     H44223   8.164   9.288   1.225  3.3112  4.2637  0.3499
  328MOL0     H44224   8.128   9.394   1.360  0.9325 -0.1891  0.4059
  328MOL0     H44225   8.279   9.200   1.489  5.3482  1.0116  2.6051
  328MOL0     H44226   8.357   9.189   1.342  0.2694  0.7557 -0.3387
  328MOL0     H44227   8.347   9.452   1.500 -0.6383 -2.0201  1.6111
  328MOL0     H44228   8.400   9.426   1.333 -0.0331 -0.4057 -0.1786
  328MOL0     H44229   8.492   9.283   1.587  0.0159 -0.3536  0.5298
  328MOL0     H44230   8.565   9.263   1.420 -0.8492 -0.1386  0.5552
  328MOL0     H44231   8.753   9.375   1.670  0.7162  0.6359 -0.7754
  328MOL0     H44232   8.925   9.578   1.713  1.3481 -0.5375 -1.2429
  328MOL0     H44233   8.992   9.552   1.543  1.9774  1.7288 -1.7319
  328MOL0     H44234   8.946   9.797   1.505 -0.1275  0.3813  0.5173
  328MOL0     H44235   8.830   9.801   1.637  0.8520 -0.4789  2.3367
  328MOL0     H44236   9.036   9.776   1.797  0.4995 -0.7575 -0.6987
  328MOL0     H44237   9.038   9.929   1.725  0.0630 -0.8178  1.1338
  328MOL0     H44238   9.261   9.823   1.738  0.2063  2.3036 -0.9293
  328MOL0     H44239   9.222   9.869   1.570 -1.7254 -0.1744  0.1533
  328MOL0     H44240   9.243   9.469   1.440 -1.3010  2.8995 -3.5304
  328MOL0     H44241   9.451   9.386   1.353 -0.9286  0.2049  0.4430
  328MOL0     H44242  10.057   9.621   1.512 -0.6206  6.0714 -1.5860
  328MOL0     H44243  10.276   9.569   1.410  1.5767  2.3155 -1.6257
  328MOL0     H44244  10.441   9.625   1.288  0.1127  0.9079 -0.5646
  328MOL0     H44245  10.465   9.446   1.277 -0.0508  0.3719  1.7485
  328MOL0     H44246  10.514   9.648   1.047  0.0085 -0.4156  0.1773
  328MOL0     H44247  10.627   9.623   1.173 -0.1909  2.0276 -0.4944
  328MOL0     H44248  10.601   9.357   1.106 -2.7666 -1.5284 -2.6954
  328MOL0     H44249  10.545   9.438   0.957  1.4976 -1.6065 -0.6987
  328MOL0     H44250  10.773   9.581   1.017  0.5663 -0.3401  0.7193
  328MOL0     H44251  10.744   9.476   0.880 -3.5288  1.3182 -0.5293
  328MOL0     H44252  10.846   9.287   0.985  1.7953 -1.4078  2.0296
  328MOL0     H44253  10.848   9.345   1.148 -0.1582 -1.9433 -0.8493
  328MOL0     H44254  10.978   9.461   0.913 -1.8272 -2.4116  0.1087
  328MOL0     H44255  10.998   9.533   1.077  0.9826  0.1460 -0.4766
  328MOL0     H44256  11.080   9.250   1.003 -0.2949 -0.3132  0.5873
  328MOL0     H44257  11.118   9.341   1.146 -2.4536 -2.3057  0.0261
  328MOL0     H44258  11.219   9.376   0.858  1.1707  0.1694 -1.0038
  328MOL0     H44259  11.230   9.516   0.964  0.4218 -0.3997 -3.8288
  328MOL0     H44260  10.082   9.485   1.043  2.1974 -3.6943  0.6825
  328MOL0     H44261   9.856   9.532   1.147 -0.6695 -0.1808  1.5039
  328MOL0     H44262   9.658   9.747   1.511  1.0490 -1.6513  3.8606
  328MOL0     H44263   9.455   9.794   1.622 -4.7140 -0.0255 -0.0873
  328MOL0     H44264   7.473   9.176   1.175  0.9807  2.9638 -1.4070
  328MOL0     H44265   7.247   9.133   1.076 -0.4343 -0.2940 -0.7914
  328MOL0     H44266   6.987   8.995   1.033  2.1176  2.6597  1.1347
  328MOL0     H44267   6.752   8.989   1.085  0.0318  0.2730 -0.7757
  328MOL0     H44268   6.365   9.044   0.868 -1.5137  2.4892  0.8637
  328MOL0     H44269   6.479   9.103   0.751 -0.9671  0.2890 -0.4758
  328MOL0     H44270   6.477   9.327   0.872 -1.5587  0.7102 -2.0554
  328MOL0     H44271   6.401   9.254   1.016 -1.7308 -1.2181 -0.0445
  328MOL0     H44272   6.259   9.232   0.744 -2.2944  0.8504 -0.2306
  328MOL0     H44273   6.240   9.387   0.828 -0.0392 -0.2582 -1.0314
  328MOL0     H44274   6.173   9.132   0.971 -0.9895  0.1486 -0.3388
  328MOL0     H44275   6.166   9.295   1.039 -1.8637 -0.3521  0.1085
  328MOL0     H44276   5.806   9.269   0.828 -0.5138  1.1726  0.7268
  328MOL0     H44277   6.652   9.206   0.730  0.6276  1.8114  0.2374
  328MOL0     H44278   6.981   9.203   0.565  2.0272  0.4415  1.4424
  328MOL0     H44279   6.816   9.291   0.586 -0.3849  1.4918  1.1265
  328MOL0     H44280   6.959   9.347   0.664  2.5027 -1.4422  0.5659
  329MOL0     O44281   3.600   8.426  10.181  0.3331  0.5488 -0.4864
  329MOL0     C44282   3.684   8.367  10.110 -0.9265  0.3820  0.9251
  329MOL0     O44283   3.681   8.246  10.057  0.3463  0.1193 -0.2747
  329MOL0     C44284   3.569   8.165  10.062  0.3623 -0.4905  0.0841
  329MOL0     C44285   3.578   8.041  10.008 -0.0861 -0.5263 -0.3402
  329MOL0     C44286   3.476   7.947   9.994  0.1913 -0.4845  0.2478
  329MOL0     C44287   3.346   7.990  10.025  0.0301 -0.1689  0.2604
  329MOL0     O44288   3.254   7.891  10.019 -0.2434  0.1541 -0.9970
  329MOL0     C44289   3.123   7.910  10.072 -0.2099  0.0706 -0.0665
  329MOL0     C44290   3.036   7.792  10.040  0.2503  0.1756  0.3524
  329MOL0     C44291   2.892   7.822  10.071 -0.5109  0.1606  0.1780
  329MOL0     C44292   2.790   7.708  10.014 -0.1902  0.1059  1.0277
  329MOL0     C44293   2.643   7.748  10.060  0.0148  0.8839 -0.1560
  329MOL0     C44294   2.539   7.661   9.988 -0.1533 -1.1778 -0.9007
  329MOL0     C44295   2.402   7.719  10.023 -0.6043 -0.4600  0.4017
  329MOL0     C44296   2.289   7.628   9.976 -0.1697  0.2605 -0.5349
  329MOL0     N44297   2.289   7.597   9.830 -0.5444 -0.4783  0.3816
  329MOL0     C44298   2.332   7.481   9.769 -0.0626 -0.1496 -0.0298
  329MOL0     C44299   2.344   7.517   9.636  0.3388  0.4251  0.0988
  329MOL0     C44300   2.385   7.425   9.525  0.5510  0.3326 -0.3175
  329MOL0     C44301   2.461   7.495   9.420 -0.1781 -0.0603  0.5653
  329MOL0     C44302   2.492   7.397   9.303  0.3430 -0.3282  0.9418
  329MOL0     C44303   2.616   7.442   9.224 -0.0216 -0.1808  0.2360
  329MOL0     O44304   2.731   7.418   9.304 -0.5387 -0.0198  0.2966
  329MOL0     C44305   2.858   7.449   9.258  0.7884  0.3094  0.7649
  329MOL0     C44306   2.871   7.483   9.126 -0.3790  0.0380  0.2635
  329MOL0     C44307   3.006   7.506   9.069  0.2659 -0.0046 -0.8768
  329MOL0     C44308   3.117   7.470   9.153 -0.4948  0.1315 -0.7238
  329MOL0     C44309   3.252   7.463   9.099  0.3804 -0.6545 -0.4617
  329MOL0     O44310   3.358   7.417   9.175  1.0606 -0.0196  0.8416
  329MOL0     C44311   3.477   7.430   9.111  0.2318  0.2602 -0.1220
  329MOL0     C44312   3.526   7.318   9.043 -0.2251 -0.3261  0.1787
  329MOL0     C44313   3.646   7.331   8.976 -0.2812  0.0008  0.2990
  329MOL0     C44314   3.720   7.446   8.966  0.3285  0.1730 -0.1767
  329MOL0     O44315   3.847   7.468   8.910  0.2261  0.8217  0.7528
  329MOL0     C44316   3.929   7.347   8.924  0.2913  0.3865  0.0435
  329MOL0     C44317   4.086   7.376   8.937  0.9129 -0.5230 -0.5092
  329MOL0     C44318   4.083   7.478   9.051  0.2062  1.1954 -0.9243
  329MOL0     C44319   4.236   7.490   9.092 -0.7836  0.4164 -0.3412
  329MOL0     C44320   4.261   7.608   9.195  0.4745  0.1634 -0.1160
  329MOL0     C44321   4.225   7.744   9.141  0.5434 -0.7994  0.3286
  329MOL0     C44322   4.244   7.849   9.255  0.6591  0.2874 -0.5437
  329MOL0     C44323   4.123   7.925   9.298 -0.5815 -0.2713  0.3709
  329MOL0    Cl44324   4.090   8.062   9.183 -0.0369 -0.1624 -0.3664
  329MOL0     C44325   3.669   7.560   9.027  0.1158 -0.2335 -0.2391
  329MOL0     C44326   3.553   7.549   9.107 -0.1030 -0.2347 -0.0141
  329MOL0     O44327   3.263   7.500   8.984  0.0168 -0.5055  0.5028
  329MOL0     C44328   3.097   7.444   9.291 -0.4234 -0.5198 -0.0974
  329MOL0     C44329   2.972   7.435   9.337  0.1471  0.3748 -0.5406
  329MOL0     N44330   2.310   7.648   9.628  0.1290 -0.2064 -0.2882
  329MOL0     N44331   2.270   7.690   9.739 -0.1978 -0.7535  0.8574
  329MOL0     C44332   3.333   8.126  10.066 -0.0809  0.6198  0.2707
  329MOL0     C44333   3.440   8.210  10.077  0.3596  0.5617  0.6119
  329MOL0     C44334   3.817   8.436  10.105  0.2091 -0.1134 -0.1649
  329MOL0     C44335   3.823   8.577  10.097 -0.0429  1.0035  0.2297
  329MOL0     C44336   3.939   8.644  10.104 -0.5813  0.3077 -0.6642
  329MOL0     C44337   4.060   8.577  10.117  0.7227 -0.4529  0.2852
  329MOL0     O44338   4.182   8.637  10.142  0.6065 -0.1197 -0.2420
  329MOL0     C44339   4.186   8.783  10.120  1.6721  0.6289 -0.6293
  329MOL0     C44340   4.306   8.843  10.186 -0.7026 -0.1646 -0.4464
  329MOL0     C44341   4.416   8.743  10.232  0.1158 -0.7559 -0.6962
  329MOL0     C44342   4.526   8.827  10.297 -0.7944  1.0353 -0.3556
  329MOL0     C44343   4.642   8.752  10.352  0.6138  0.4452  0.3487
  329MOL0     C44344   4.740   8.703  10.394 -0.4978  0.4068  0.0486
  329MOL0     C44345   4.058   8.437  10.119  1.2423  0.0515  0.1148
  329MOL0     C44346   3.938   8.363  10.110 -0.2679  0.5207 -0.1541
  329MOL0     C44347   3.948   8.220  10.150  0.4391 -0.1158  0.0782
  329MOL0     H44348   3.678   8.011   9.977  2.2396  3.5726  2.1815
  329MOL0     H44349   3.498   7.844   9.967 -0.6380 -0.1132 -2.0716
  329MOL0     H44350   3.120   7.928  10.180 -2.3810 -0.3311 -0.0091
  329MOL0     H44351   3.081   7.994  10.017 -1.3751 -1.8015 -2.2080
  329MOL0     H44352   3.085   7.703  10.080  3.3335  1.8739  0.6503
  329MOL0     H44353   3.039   7.776   9.932 -0.3187 -1.7743  0.5875
  329MOL0     H44354   2.863   7.920  10.033  4.3121  2.8051  2.4475
  329MOL0     H44355   2.883   7.822  10.180  2.0319 -1.2232  0.4667
  329MOL0     H44356   2.804   7.703   9.905 -0.2114  0.5983  1.0004
  329MOL0     H44357   2.812   7.609  10.054  1.0307  0.5400  1.4836
  329MOL0     H44358   2.639   7.728  10.168  0.7732 -0.9223 -0.4130
  329MOL0     H44359   2.620   7.851  10.032 -3.1655  0.5237  0.7338
  329MOL0     H44360   2.557   7.657   9.880 -1.6717 -1.3549 -1.1670
  329MOL0     H44361   2.532   7.561  10.033 -2.2349 -1.1075 -0.9751
  329MOL0     H44362   2.382   7.811   9.969 -1.3835 -1.8901 -1.9193
  329MOL0     H44363   2.387   7.740  10.129 -1.8191  0.6453  0.0432
  329MOL0     H44364   2.302   7.537  10.036  0.8380  2.1448  2.3119
  329MOL0     H44365   2.194   7.671  10.011  0.3127  0.1080  1.0799
  329MOL0     H44366   2.351   7.385   9.816  0.0052 -0.8381 -1.3996
  329MOL0     H44367   2.450   7.350   9.571  0.2764 -1.8003 -3.1777
  329MOL0     H44368   2.293   7.385   9.482 -1.1917  1.4834  2.1297
  329MOL0     H44369   2.399   7.576   9.382  0.2541 -0.9640 -2.3238
  329MOL0     H44370   2.552   7.546   9.453 -1.3883  0.7114  2.8665
  329MOL0     H44371   2.404   7.389   9.239 -0.1157  0.4047  1.4638
  329MOL0     H44372   2.502   7.296   9.344 -0.0802 -1.3258 -1.3009
  329MOL0     H44373   2.613   7.551   9.213  0.5804 -0.0537  1.2004
  329MOL0     H44374   2.624   7.403   9.122 -1.4256 -0.4232  0.1977
  329MOL0     H44375   2.787   7.511   9.063 -1.0851 -0.4759  0.9531
  329MOL0     H44376   3.017   7.539   8.967 -1.6689  0.0360 -1.1084
  329MOL0     H44377   3.458   7.234   9.042  1.1781 -1.4988 -1.0503
  329MOL0     H44378   3.692   7.245   8.928  0.4053  0.3548  0.3043
  329MOL0     H44379   3.900   7.290   9.013  2.4392 -0.4711  0.2574
  329MOL0     H44380   3.912   7.288   8.833 -0.5134  2.5523 -1.2857
  329MOL0     H44381   4.149   7.290   8.960 -0.3381 -1.2275  0.3865
  329MOL0     H44382   4.128   7.413   8.843  3.8983 -2.4486 -0.0452
  329MOL0     H44383   4.042   7.575   9.020  0.6238  2.2778  1.6502
  329MOL0     H44384   4.027   7.437   9.136  1.4259  0.2176 -0.5713
  329MOL0     H44385   4.301   7.500   9.004 -1.7642 -5.1622 -2.0680
  329MOL0     H44386   4.266   7.392   9.131 -0.5171  0.5318 -0.2521
  329MOL0     H44387   4.367   7.607   9.222  0.6099 -0.6984 -0.6100
  329MOL0     H44388   4.193   7.585   9.278 -0.0277  2.6954  0.2580
  329MOL0     H44389   4.297   7.770   9.062  0.8105  1.7912  1.3358
  329MOL0     H44390   4.123   7.743   9.102 -0.0934  3.3280  1.4287
  329MOL0     H44391   4.323   7.918   9.225  1.3607  0.0482  0.6637
  329MOL0     H44392   4.270   7.802   9.351 -0.7864  3.5040  1.6013
  329MOL0     H44393   4.038   7.861   9.324 -0.2803  0.7061  4.6627
  329MOL0     H44394   4.155   7.969   9.394  0.7278 -0.0725 -0.1448
  329MOL0     H44395   3.734   7.647   9.036 -0.0938 -0.1689  0.8240
  329MOL0     H44396   3.520   7.633   9.167 -0.1960 -1.1137  1.1923
  329MOL0     H44397   3.182   7.436   9.359 -3.0557 -1.3633  3.3485
  329MOL0     H44398   2.960   7.409   9.442  0.6965  3.3525  0.3488
  329MOL0     H44399   3.232   8.164  10.078  0.2925  1.0195  2.6051
  329MOL0     H44400   3.415   8.315  10.092  0.4134  0.7348 -0.3927
  329MOL0     H44401   3.721   8.613  10.080 -1.1651 -1.8404  0.3624
  329MOL0     H44402   3.930   8.752  10.105 -2.1249  0.2149  1.5980
  329MOL0     H44403   4.102   8.831  10.170  0.2471 -0.4600 -1.8621
  329MOL0     H44404   4.184   8.817  10.016  3.6355  0.0710 -0.8914
  329MOL0     H44405   4.281   8.914  10.265  1.3679 -0.9457  0.9917
  329MOL0     H44406   4.347   8.906  10.107 -0.7846  0.6347  0.1411
  329MOL0     H44407   4.458   8.688  10.146 -0.0982 -2.7119  0.3856
  329MOL0     H44408   4.369   8.675  10.303  0.1790 -1.2540 -1.1216
  329MOL0     H44409   4.572   8.887  10.218 -0.7517 -0.0200 -1.1388
  329MOL0     H44410   4.484   8.903  10.364 -0.6968  1.6519 -0.9833
  329MOL0     H44411   4.840   8.679  10.425  0.2038  3.8636  0.8144
  329MOL0     H44412   4.156   8.392  10.131  1.1672 -0.5280 -1.2729
  329MOL0     H44413   4.048   8.181  10.127 -0.5163 -1.8199 -1.4314
  329MOL0     H44414   3.908   8.222  10.252 -0.0749  0.6554 -0.1330
  329MOL0     H44415   3.889   8.157  10.083 -1.8049  1.7004  0.2397
  330MOL0     O44416   7.173   1.115   3.462 -0.6384 -0.5614 -0.0278
  330MOL0     C44417   7.215   1.165   3.565  0.0621 -0.1988  0.2583
  330MOL0     O44418   7.146   1.161   3.685 -0.1316  0.6917 -0.6215
  330MOL0     C44419   7.022   1.098   3.699  0.0631  0.2504 -0.3871
  330MOL0     C44420   6.911   1.162   3.764  0.4018 -0.8159  0.7599
  330MOL0     C44421   6.793   1.106   3.786 -0.1010  0.0042 -0.8206
  330MOL0     C44422   6.776   0.973   3.746  0.5930 -0.1119  0.8648
  330MOL0     O44423   6.657   0.903   3.749 -0.0948  0.2386 -0.3737
  330MOL0     C44424   6.544   0.958   3.825  0.2076 -0.2324 -0.5171
  330MOL0     C44425   6.422   0.861   3.811  0.0039  0.0182 -0.5190
  330MOL0     C44426   6.297   0.931   3.878  0.4948 -0.6414 -0.2821
  330MOL0     C44427   6.177   0.843   3.863 -0.8663  0.2470 -0.0409
  330MOL0     C44428   6.053   0.896   3.934 -0.2145  0.3708  0.1857
  330MOL0     C44429   5.933   0.813   3.900  1.0924  1.2193  0.6573
  330MOL0     C44430   5.821   0.848   4.005 -0.4368  0.5015  0.7616
  330MOL0     C44431   5.794   0.989   4.012 -0.3622 -0.6560  0.1307
  330MOL0     N44432   5.738   1.042   3.880 -0.7268 -0.3617 -0.0890
  330MOL0     C44433   5.809   1.076   3.768  0.5809 -0.8020 -0.7453
  330MOL0     C44434   5.720   1.123   3.679 -0.1360 -0.2010 -0.2339
  330MOL0     C44435   5.740   1.166   3.538  0.6050 -0.6017 -0.0247
  330MOL0     C44436   5.735   1.318   3.524 -0.5835  0.5901  0.1992
  330MOL0     C44437   5.865   1.380   3.574 -0.3780 -0.2520 -0.2121
  330MOL0     C44438   6.003   1.324   3.516 -0.6780  0.3178 -0.1596
  330MOL0     O44439   6.104   1.428   3.518 -0.5312 -0.4229  0.4208
  330MOL0     C44440   6.185   1.448   3.407  0.1459  0.1790 -0.5708
  330MOL0     C44441   6.200   1.359   3.299  0.5249 -0.0294  0.2338
  330MOL0     C44442   6.310   1.369   3.214  0.2294 -1.2841 -0.1168
  330MOL0     C44443   6.405   1.473   3.228 -0.1691  0.1196 -0.0089
  330MOL0     C44444   6.517   1.488   3.132 -0.6174 -0.1946 -0.1408
  330MOL0     O44445   6.519   1.442   3.006  0.2631  0.2260  0.9478
  330MOL0     C44446   6.636   1.434   2.937 -0.1445 -0.4526 -0.8694
  330MOL0     C44447   6.737   1.333   2.936 -0.7115 -0.1736  0.1660
  330MOL0     C44448   6.854   1.354   2.864 -0.5096 -0.4240 -0.2992
  330MOL0     C44449   6.860   1.468   2.776  0.2785  0.3294  0.2114
  330MOL0     O44450   6.968   1.497   2.698 -0.0260  0.6297  0.5826
  330MOL0     C44451   7.079   1.405   2.694 -0.0273  0.3923 -0.6609
  330MOL0     C44452   7.158   1.437   2.568 -0.9538  0.5899  1.0669
  330MOL0     C44453   7.297   1.374   2.564  0.1092 -0.2081 -1.1316
  330MOL0     C44454   7.373   1.429   2.445  0.4197 -0.1214 -0.7228
  330MOL0     C44455   7.527   1.415   2.464 -0.4927 -0.1808  0.0874
  330MOL0     C44456   7.580   1.270   2.456  0.5447  0.4226 -0.2948
  330MOL0     C44457   7.733   1.253   2.478 -0.3762 -1.3796 -0.3264
  330MOL0     C44458   7.777   1.104   2.465  1.2040  0.3511  0.9753
  330MOL0    Cl44459   7.708   1.002   2.579  0.4083 -0.2208  0.3773
  330MOL0     C44460   6.751   1.558   2.762  0.2109 -0.8978 -0.4181
  330MOL0     C44461   6.647   1.535   2.853 -0.4272 -0.1946  0.4241
  330MOL0     O44462   6.613   1.553   3.186  0.0166 -0.3361 -0.1344
  330MOL0     C44463   6.379   1.565   3.328  0.4382 -0.5662 -0.2544
  330MOL0     C44464   6.268   1.559   3.422  0.2659 -0.5775  0.3661
  330MOL0     N44465   5.598   1.118   3.738 -0.3925 -0.3012  0.1685
  330MOL0     N44466   5.606   1.066   3.859 -0.0062  0.5885  0.1814
  330MOL0     C44467   6.888   0.901   3.695  0.6738  0.7855  0.0589
  330MOL0     C44468   7.002   0.959   3.668  0.1767 -0.1402  0.3943
  330MOL0     C44469   7.344   1.239   3.561  0.0987  0.3808 -1.0745
  330MOL0     C44470   7.428   1.230   3.448 -0.3167 -0.3345  0.0727
  330MOL0     C44471   7.556   1.284   3.437  0.2312 -0.3183 -0.4143
  330MOL0     C44472   7.613   1.353   3.546 -0.0594  1.2036 -0.4926
  330MOL0     O44473   7.745   1.404   3.524  0.0148 -0.1483 -1.1398
  330MOL0     C44474   7.812   1.484   3.626 -0.6032  0.8852 -0.1496
  330MOL0     C44475   7.973   1.487   3.598 -0.4890 -0.1741 -1.0255
  330MOL0     C44476   8.051   1.607   3.659  0.2364  0.1881  0.2449
  330MOL0     C44477   8.026   1.633   3.804 -0.0501  0.1113 -0.2647
  330MOL0     C44478   8.045   1.521   3.893  0.4271  0.0103 -0.4358
  330MOL0     C44479   8.073   1.442   3.981 -1.7978 -0.5367 -0.0620
  330MOL0     C44480   7.539   1.363   3.667  0.4044  0.9315  0.4338
  330MOL0     C44481   7.403   1.308   3.679  0.7309 -0.0125 -0.1158
  330MOL0     C44482   7.337   1.342   3.807 -0.3077 -0.5240  0.4628
  330MOL0     H44483   6.938   1.260   3.801 -0.6807  0.5602 -1.8413
  330MOL0     H44484   6.715   1.173   3.822 -1.2449 -0.9174 -1.5422
  330MOL0     H44485   6.565   0.992   3.927 -0.0428  1.2415 -0.9409
  330MOL0     H44486   6.517   1.050   3.773  0.2292  0.0840  0.0284
  330MOL0     H44487   6.440   0.760   3.848  1.4440  0.1381 -0.8312
  330MOL0     H44488   6.388   0.844   3.708 -1.4001 -0.6588  0.0363
  330MOL0     H44489   6.275   1.021   3.819  1.0088 -0.2080  0.1783
  330MOL0     H44490   6.321   0.965   3.979  1.2978  1.2415 -1.0637
  330MOL0     H44491   6.155   0.828   3.757  0.4232 -1.9021 -0.0781
  330MOL0     H44492   6.191   0.738   3.890  0.0163  0.4719  0.4406
  330MOL0     H44493   6.071   0.921   4.039  0.9298  3.6340 -0.6350
  330MOL0     H44494   6.033   0.993   3.887 -2.0579  1.1933  2.4744
  330MOL0     H44495   5.896   0.832   3.799  2.6332  0.2902 -0.1069
  330MOL0     H44496   5.968   0.710   3.895  2.0849  1.6106 -1.6875
  330MOL0     H44497   5.852   0.818   4.106  0.7160  2.0252  0.9064
  330MOL0     H44498   5.733   0.793   3.972  0.8752 -1.9019  1.0581
  330MOL0     H44499   5.714   0.992   4.088  1.1014 -0.5199  1.7306
  330MOL0     H44500   5.880   1.046   4.046  0.0272 -0.7287 -0.7170
  330MOL0     H44501   5.915   1.064   3.749  0.9459  1.1576 -0.1735
  330MOL0     H44502   5.826   1.119   3.491  0.4804  0.6341 -1.5586
  330MOL0     H44503   5.652   1.130   3.485  0.1395 -0.2316  0.4764
  330MOL0     H44504   5.718   1.342   3.419 -0.2230  0.3930  0.0951
  330MOL0     H44505   5.648   1.350   3.582  0.4851 -0.0818  2.2656
  330MOL0     H44506   5.878   1.362   3.681  1.2175  0.4882 -0.2486
  330MOL0     H44507   5.854   1.486   3.551  1.3140 -0.5929 -3.0755
  330MOL0     H44508   5.991   1.272   3.421  2.5967 -0.7450 -0.1246
  330MOL0     H44509   6.035   1.249   3.589 -4.4013 -2.2566 -0.9423
  330MOL0     H44510   6.124   1.283   3.284 -0.7480  0.1015  4.5516
  330MOL0     H44511   6.324   1.296   3.135 -2.8451 -2.0854 -0.0471
  330MOL0     H44512   6.732   1.245   2.999  2.0176 -0.4385  0.1402
  330MOL0     H44513   6.909   1.262   2.852  1.2467  0.6663 -1.0755
  330MOL0     H44514   7.139   1.414   2.786 -1.5029  2.7596  0.1479
  330MOL0     H44515   7.041   1.304   2.679 -0.0023  0.2686  0.0711
  330MOL0     H44516   7.114   1.389   2.481  3.1159  0.1308 -0.9862
  330MOL0     H44517   7.160   1.544   2.543  1.2647  0.3102 -0.2200
  330MOL0     H44518   7.349   1.401   2.656  0.3232 -1.2674 -0.9349
  330MOL0     H44519   7.306   1.265   2.557  0.3887 -0.0657 -4.1834
  330MOL0     H44520   7.347   1.535   2.434  1.0301 -0.0711 -1.7967
  330MOL0     H44521   7.339   1.371   2.359 -3.7721 -0.0345  0.6457
  330MOL0     H44522   7.557   1.460   2.559  1.6715  1.1723 -1.1352
  330MOL0     H44523   7.581   1.469   2.385  0.7329 -1.1240  0.2441
  330MOL0     H44524   7.536   1.203   2.531  1.4117  0.1038 -0.0654
  330MOL0     H44525   7.549   1.232   2.358 -0.2150  1.1537 -0.3546
  330MOL0     H44526   7.763   1.291   2.576  1.7542  0.4750 -1.5885
  330MOL0     H44527   7.792   1.309   2.404 -2.1216  0.3962 -0.4438
  330MOL0     H44528   7.745   1.069   2.366 -2.8488  0.9142  1.9079
  330MOL0     H44529   7.885   1.091   2.469  1.4529  1.5549 -0.6073
  330MOL0     H44530   6.748   1.640   2.691  1.1243 -1.3158 -0.9627
  330MOL0     H44531   6.563   1.604   2.853  0.3626  0.8072 -0.1672
  330MOL0     H44532   6.441   1.652   3.345 -2.0593  1.5378 -1.0997
  330MOL0     H44533   6.262   1.621   3.512 -1.0689  0.6727 -0.5419
  330MOL0     H44534   6.870   0.796   3.674  0.2345  1.0238 -0.7865
  330MOL0     H44535   7.087   0.901   3.632 -0.6121  0.6708 -3.2613
  330MOL0     H44536   7.399   1.186   3.354 -0.3200 -2.4797  1.0274
  330MOL0     H44537   7.605   1.288   3.340 -1.3173  2.3773 -1.2048
  330MOL0     H44538   7.798   1.440   3.725  1.3038 -0.6772 -0.5046
  330MOL0     H44539   7.779   1.587   3.613 -2.6249 -0.1184 -5.0837
  330MOL0     H44540   7.987   1.489   3.490  0.9371  1.9455 -0.8465
  330MOL0     H44541   8.020   1.395   3.636 -2.6442 -1.1640 -0.5774
  330MOL0     H44542   8.025   1.695   3.599  2.8503  2.8978  2.7517
  330MOL0     H44543   8.155   1.588   3.633  0.2419 -0.6549  0.8496
  330MOL0     H44544   8.093   1.709   3.845 -1.1149  1.6347 -1.2446
  330MOL0     H44545   7.925   1.674   3.810  0.4259  1.3534 -0.2476
  330MOL0     H44546   8.127   1.381   4.051 -0.6087  0.0944 -0.4051
  330MOL0     H44547   7.581   1.412   3.755  2.0795 -0.5382  0.5077
  330MOL0     H44548   7.233   1.365   3.783 -0.8353 -4.1316 -1.5489
  330MOL0     H44549   7.336   1.254   3.872 -0.2194 -0.4882  0.5106
  330MOL0     H44550   7.392   1.425   3.851  1.7278 -0.8437 -1.3138
  331MOL0     O44551   4.745   4.029  10.338  0.2921  1.2351  1.3800
  331MOL0     C44552   4.744   4.152  10.326 -0.2286 -0.1941 -0.3259
  331MOL0     O44553   4.630   4.228  10.299 -0.2642  0.4921 -0.9469
  331MOL0     C44554   4.525   4.158  10.250  0.1642  0.3866 -0.1576
  331MOL0     C44555   4.411   4.162  10.328 -0.0175  0.5103 -0.4042
  331MOL0     C44556   4.305   4.086  10.279  0.6871 -0.8149 -0.7172
  331MOL0     C44557   4.304   4.013  10.164 -0.1620 -0.4553  0.0380
  331MOL0     O44558   4.196   3.943  10.125  0.3189  0.6399  0.5782
  331MOL0     C44559   4.058   3.999  10.149  0.3426  0.1233 -0.5903
  331MOL0     C44560   3.956   3.888  10.128 -0.3137  0.2363 -0.2328
  331MOL0     C44561   3.970   3.754  10.197  0.0353 -0.2847  0.1335
  331MOL0     C44562   3.885   3.753  10.333  0.3249 -0.4867  0.9908
  331MOL0     C44563   3.936   3.664  10.438  0.0154 -0.2060  0.3819
  331MOL0     C44564   3.901   3.517  10.410 -0.0266  0.7094 -0.1525
  331MOL0     C44565   3.957   3.430  10.518 -0.2027 -0.0992  0.0910
  331MOL0     C44566   3.961   3.274  10.474 -0.8745 -0.0590 -0.2266
  331MOL0     N44567   4.026   3.180  10.572  0.4835 -0.2887 -0.5210
  331MOL0     C44568   4.155   3.119  10.576  0.2338 -0.2096 -0.8940
  331MOL0     C44569   4.152   3.043  10.688  0.0397  0.8386  0.3709
  331MOL0     C44570   4.253   2.961  10.755  0.2887 -0.0808 -0.7617
  331MOL0     C44571   4.386   2.972  10.699 -0.0887  0.3052 -0.1048
  331MOL0     C44572   4.487   2.882  10.773 -0.9400 -0.0727  0.7306
  331MOL0     C44573   4.619   2.904  10.697 -0.7196 -0.4550 -0.6884
  331MOL0     O44574   4.699   3.007  10.761  0.6023  0.3072 -0.5554
  331MOL0     C44575   4.838   2.976  10.762  0.1086  0.0302 -0.2263
  331MOL0     C44576   4.912   2.958  10.649  0.0647  1.1642  0.2711
  331MOL0     C44577   5.046   2.931  10.643 -0.5417  0.1565 -0.3574
  331MOL0     C44578   5.115   2.908  10.758  0.1354 -0.2457  0.0224
  331MOL0     C44579   5.249   2.865  10.746 -0.2530 -0.6830 -0.7755
  331MOL0     O44580   5.304   2.826  10.627  0.0912  0.3393 -0.2303
  331MOL0     C44581   5.435   2.826  10.593  0.0096 -0.2120 -0.3640
  331MOL0     C44582   5.523   2.921  10.647  0.0745 -0.5336 -0.9284
  331MOL0     C44583   5.655   2.933  10.599 -0.4801  0.1659 -0.1432
  331MOL0     C44584   5.712   2.842  10.516  0.6745  0.5878 -0.5097
  331MOL0     O44585   5.843   2.831  10.480 -0.1052 -0.0850 -0.1019
  331MOL0     C44586   5.926   2.926  10.547 -0.1771  0.1222  1.1429
  331MOL0     C44587   6.063   2.898  10.494 -0.4383  0.3387  0.1875
  331MOL0     C44588   6.123   3.013  10.407  0.8336 -0.8959  0.7415
  331MOL0     C44589   6.262   2.981  10.355  0.1877 -0.3039  0.3826
  331MOL0     C44590   6.304   3.080  10.240  0.4049  0.1065 -0.8023
  331MOL0     C44591   6.440   3.057  10.191  0.6065  0.9246 -0.6007
  331MOL0     C44592   6.554   3.066  10.300  0.2290 -1.0486  0.0346
  331MOL0     C44593   6.683   3.112  10.235 -0.0622  0.9687  0.6093
  331MOL0    Cl44594   6.677   3.285  10.195 -0.6263  0.1374  0.3720
  331MOL0     C44595   5.631   2.743  10.464 -0.5511 -0.3284  0.6143
  331MOL0     C44596   5.491   2.748  10.489  0.1070  0.0353  0.3210
  331MOL0     O44597   5.305   2.851  10.853 -0.4205  0.2443  0.2809
  331MOL0     C44598   5.041   2.912  10.883 -0.1174 -0.8227  0.3192
  331MOL0     C44599   4.904   2.953  10.882 -0.5925  0.5944 -0.9885
  331MOL0     N44600   4.025   3.060  10.747 -0.2014  0.7115 -0.4503
  331MOL0     N44601   3.953   3.139  10.681  0.1936  0.2068 -0.2741
  331MOL0     C44602   4.413   4.011  10.086 -0.0206 -0.5890  0.1581
  331MOL0     C44603   4.528   4.076  10.132 -0.1015  0.9727 -0.7013
  331MOL0     C44604   4.866   4.228  10.367 -0.3569 -0.6485  0.0861
  331MOL0     C44605   4.842   4.365  10.392  0.0506 -0.6382  0.1738
  331MOL0     C44606   4.951   4.445  10.417 -0.4102 -0.3072  0.4476
  331MOL0     C44607   5.084   4.397  10.416 -0.1627  0.6979 -0.3992
  331MOL0     O44608   5.199   4.477  10.434 -0.3712  0.1341  0.6187
  331MOL0     C44609   5.179   4.618  10.454 -0.0456  0.0193 -1.0514
  331MOL0     C44610   5.308   4.703  10.453 -0.5060 -0.0986 -0.0380
  331MOL0     C44611   5.381   4.728  10.313  0.0301  0.1384  0.7672
  331MOL0     C44612   5.302   4.826  10.216  0.1988  1.1386 -1.2063
  331MOL0     C44613   5.376   4.850  10.096 -0.7917  0.1804  0.2822
  331MOL0     C44614   5.450   4.848   9.997 -0.0086 -0.0210 -0.9360
  331MOL0     C44615   5.106   4.264  10.394  0.5909  0.3902  0.2266
  331MOL0     C44616   5.006   4.181  10.360  0.9419 -0.0744 -0.9195
  331MOL0     C44617   5.044   4.045  10.330  0.7668  0.4366 -0.6291
  331MOL0     H44618   4.403   4.206  10.427 -1.1738 -3.7544  1.6297
  331MOL0     H44619   4.214   4.074  10.337  1.1014 -2.4671 -0.3679
  331MOL0     H44620   4.036   4.025  10.253 -3.1236  1.1879 -1.4633
  331MOL0     H44621   4.032   4.084  10.085 -0.4562  0.1351 -0.2645
  331MOL0     H44622   3.959   3.880  10.019  3.6689  2.1801 -0.4339
  331MOL0     H44623   3.857   3.928  10.154 -0.6093 -1.0608  0.7560
  331MOL0     H44624   4.076   3.742  10.224  0.2648 -0.0788 -0.6587
  331MOL0     H44625   3.931   3.672  10.137  0.0643  0.0537 -0.3501
  331MOL0     H44626   3.873   3.851  10.379 -2.2352  0.9369 -2.2370
  331MOL0     H44627   3.785   3.714  10.310  0.0048  0.4213  0.8342
  331MOL0     H44628   4.044   3.682  10.432 -0.0205 -0.3343 -1.2205
  331MOL0     H44629   3.882   3.702  10.525 -0.2970 -0.1153  0.1485
  331MOL0     H44630   3.792   3.510  10.409 -0.4405  4.6703  1.5835
  331MOL0     H44631   3.943   3.494  10.311  4.8198 -0.7842  1.9483
  331MOL0     H44632   3.884   3.438  10.599 -0.1310  1.2504  0.0381
  331MOL0     H44633   4.062   3.457  10.532 -0.4100  0.7823 -0.0338
  331MOL0     H44634   3.862   3.237  10.449 -0.6606  0.0447 -1.2862
  331MOL0     H44635   4.018   3.273  10.380  0.3060  4.1143  0.2349
  331MOL0     H44636   4.235   3.135  10.504  1.3744 -1.5232  0.0099
  331MOL0     H44637   4.263   2.974  10.863  0.0827 -0.6721 -0.6697
  331MOL0     H44638   4.206   2.862  10.750  1.4440 -0.9801  3.2566
  331MOL0     H44639   4.385   2.952  10.592  1.9536  0.5859 -0.2178
  331MOL0     H44640   4.426   3.073  10.713  1.7390 -0.7959  5.0133
  331MOL0     H44641   4.458   2.776  10.774  0.1600 -0.3911  0.9556
  331MOL0     H44642   4.509   2.920  10.873  0.4140  1.5869 -0.1387
  331MOL0     H44643   4.597   2.938  10.595 -2.3356  1.1793  0.1538
  331MOL0     H44644   4.676   2.811  10.692 -0.6239 -0.4018 -0.5659
  331MOL0     H44645   4.848   2.958  10.560  0.1864  1.9198  0.1789
  331MOL0     H44646   5.094   2.923  10.546 -1.2193 -1.6870 -0.5859
  331MOL0     H44647   5.486   2.990  10.722  1.8542 -1.5759  0.9896
  331MOL0     H44648   5.711   3.006  10.657 -0.8065  1.5170 -1.4536
  331MOL0     H44649   5.904   3.033  10.542  2.0719  0.7260  2.5812
  331MOL0     H44650   5.929   2.890  10.651  2.2286 -1.6754  0.5571
  331MOL0     H44651   6.128   2.907  10.582  0.8576  2.5505 -0.9002
  331MOL0     H44652   6.069   2.798  10.450  1.0793  1.2696 -1.8690
  331MOL0     H44653   6.062   3.028  10.318  0.2075 -2.9303  0.7839
  331MOL0     H44654   6.115   3.096  10.478  1.6556 -0.0400 -0.1386
  331MOL0     H44655   6.273   2.876  10.326 -1.3172 -0.2682 -0.3712
  331MOL0     H44656   6.330   2.995  10.440 -0.1266  0.4290  0.5209
  331MOL0     H44657   6.291   3.186  10.264  0.8223  1.0060 -4.0714
  331MOL0     H44658   6.234   3.058  10.158  1.5811 -0.2738 -1.7256
  331MOL0     H44659   6.444   2.954  10.152  0.0113  0.6237  0.1192
  331MOL0     H44660   6.446   3.119  10.101 -3.8479  0.7571 -1.2548
  331MOL0     H44661   6.566   2.973  10.356 -1.0648 -0.3065  1.6473
  331MOL0     H44662   6.520   3.137  10.376  0.1071 -0.6951 -0.3435
  331MOL0     H44663   6.760   3.102  10.312  0.8806 -1.4883 -0.5599
  331MOL0     H44664   6.717   3.053  10.150  0.5298 -1.7907  2.6287
  331MOL0     H44665   5.675   2.668  10.399 -1.7921  0.1071 -0.7660
  331MOL0     H44666   5.427   2.670  10.448 -1.6430  0.7549  1.5665
  331MOL0     H44667   5.092   2.872  10.969  3.7374  1.2063 -0.8089
  331MOL0     H44668   4.853   2.962  10.978 -1.2169 -1.4311 -1.0823
  331MOL0     H44669   4.418   3.956   9.993  1.1760  1.7724 -1.2505
  331MOL0     H44670   4.621   4.048  10.084  1.2316 -0.4640  2.3781
  331MOL0     H44671   4.741   4.407  10.399 -0.4319 -1.8536  0.7266
  331MOL0     H44672   4.938   4.552  10.416  1.5003  0.0750 -3.3415
  331MOL0     H44673   5.129   4.630  10.551 -0.4595  1.9260 -1.4659
  331MOL0     H44674   5.110   4.657  10.379 -1.0336 -1.0619 -0.7332
  331MOL0     H44675   5.371   4.658  10.531 -2.3199  1.6183  2.5868
  331MOL0     H44676   5.287   4.800  10.497  0.0065  0.0679 -0.1619
  331MOL0     H44677   5.389   4.634  10.258 -0.9756  2.0453 -2.9130
  331MOL0     H44678   5.485   4.757  10.331  0.6684 -2.5641  2.0281
  331MOL0     H44679   5.214   4.772  10.180  2.0752 -0.8918 -3.0864
  331MOL0     H44680   5.283   4.922  10.264 -0.0135  0.1517  0.7992
  331MOL0     H44681   5.514   4.841   9.911  1.9944  2.1184  0.2717
  331MOL0     H44682   5.211   4.237  10.404  1.3163  2.2169 -1.5108
  331MOL0     H44683   5.148   4.027  10.355  0.2012  0.9854  2.5923
  331MOL0     H44684   4.973   3.977  10.379 -0.7436  0.3126 -2.8345
  331MOL0     H44685   5.034   4.032  10.222 -0.2613  0.8650 -0.6029
  332MOL0     O44686   1.426   5.963   7.014  0.7675 -0.9943 -0.2713
  332MOL0     C44687   1.386   5.962   7.131  0.2093  0.2344  0.0261
  332MOL0     O44688   1.470   5.980   7.240  0.3704 -0.4863 -0.0757
  332MOL0     C44689   1.603   6.018   7.208 -0.3649  0.6748  0.2271
  332MOL0     C44690   1.655   6.146   7.239 -0.5657  0.3859 -1.0919
  332MOL0     C44691   1.799   6.170   7.211 -1.1061  0.1852  0.0740
  332MOL0     C44692   1.890   6.068   7.184  0.6066 -0.7309 -0.8222
  332MOL0     O44693   2.025   6.076   7.180 -0.6980 -0.7112 -0.2669
  332MOL0     C44694   2.087   6.203   7.211 -0.7641  0.1447  0.3765
  332MOL0     C44695   2.242   6.203   7.191  1.0140  0.0795 -0.4460
  332MOL0     C44696   2.280   6.234   7.050 -0.6942  0.5664 -0.0505
  332MOL0     C44697   2.428   6.230   7.015 -0.0870 -0.2431 -0.6575
  332MOL0     C44698   2.493   6.364   7.051 -0.0531 -0.3536 -0.4748
  332MOL0     C44699   2.636   6.350   6.990  0.7232  0.5186  0.3031
  332MOL0     C44700   2.681   6.492   6.955 -0.8369  0.6584 -0.1173
  332MOL0     C44701   2.845   6.498   6.927  0.7874  0.4356 -0.3293
  332MOL0     N44702   2.907   6.493   7.055 -0.1010  0.0639  0.1461
  332MOL0     C44703   2.901   6.591   7.156 -0.7424  0.6491  0.4986
  332MOL0     C44704   2.998   6.552   7.247  1.1623  0.5352 -0.1804
  332MOL0     C44705   3.022   6.615   7.378  0.5731 -0.7428  0.0751
  332MOL0     C44706   2.886   6.624   7.465 -0.0868 -0.7864  0.0102
  332MOL0     C44707   2.815   6.489   7.452 -0.5090  0.6504  0.0253
  332MOL0     C44708   2.728   6.455   7.580 -0.0271 -0.0251  0.7720
  332MOL0     O44709   2.646   6.571   7.620  0.3329 -0.0584 -0.3834
  332MOL0     C44710   2.514   6.537   7.601  0.3570 -0.4522 -0.3200
  332MOL0     C44711   2.455   6.542   7.470 -0.5331 -1.2207  0.0570
  332MOL0     C44712   2.317   6.521   7.461 -0.5348 -0.3786 -0.4548
  332MOL0     C44713   2.243   6.467   7.565  0.5357  0.5967 -1.7217
  332MOL0     C44714   2.112   6.406   7.537  0.2131 -0.4561  0.4656
  332MOL0     O44715   2.054   6.350   7.646 -0.5828 -0.4794 -0.0454
  332MOL0     C44716   1.938   6.271   7.628 -0.0733 -0.1739 -0.4473
  332MOL0     C44717   1.935   6.150   7.559  0.5273 -0.6612  0.6342
  332MOL0     C44718   1.820   6.072   7.563  0.1240  0.2904  0.5147
  332MOL0     C44719   1.705   6.109   7.628  0.2130 -0.2258 -0.0967
  332MOL0     O44720   1.595   6.027   7.622 -0.0634 -1.0116 -0.0059
  332MOL0     C44721   1.463   6.090   7.627 -0.2417 -0.4209  1.0206
  332MOL0     C44722   1.353   5.987   7.653  0.6449 -0.6247 -0.1525
  332MOL0     C44723   1.372   5.896   7.778  1.6207 -0.5041  0.3111
  332MOL0     C44724   1.238   5.834   7.843 -0.4402  0.1144 -0.4344
  332MOL0     C44725   1.283   5.758   7.962  0.4205 -0.0800  0.0746
  332MOL0     C44726   1.165   5.730   8.053  0.5667  0.0727  1.1917
  332MOL0     C44727   1.094   5.593   8.019  0.2687 -0.0447  0.1737
  332MOL0     C44728   1.000   5.571   8.129  0.5602  0.3170  0.0950
  332MOL0    Cl44729   0.860   5.686   8.096  0.2098 -0.1691 -0.2359
  332MOL0     C44730   1.709   6.231   7.699  0.0498  0.1171  0.1584
  332MOL0     C44731   1.830   6.308   7.707  1.4955  0.3798  0.5151
  332MOL0     O44732   2.063   6.418   7.428  0.2100 -0.2432  0.8412
  332MOL0     C44733   2.303   6.451   7.695 -0.4096 -0.7603 -0.3304
  332MOL0     C44734   2.435   6.494   7.714 -0.5823  0.9646  0.7274
  332MOL0     N44735   3.052   6.430   7.205 -0.6494  0.2077  0.4703
  332MOL0     N44736   3.008   6.400   7.089  0.4201  0.3019 -0.6138
  332MOL0     C44737   1.833   5.945   7.161  0.2271 -0.5307 -0.2750
  332MOL0     C44738   1.694   5.918   7.180 -1.0357 -0.3326  0.2435
  332MOL0     C44739   1.239   5.943   7.169  0.4076 -0.5369 -0.1957
  332MOL0     C44740   1.196   5.965   7.298 -0.0736  0.4631 -0.5874
  332MOL0     C44741   1.056   5.953   7.336  0.1308  0.2548  0.2126
  332MOL0     C44742   0.953   5.928   7.243 -0.1655  0.7470  0.2775
  332MOL0     O44743   0.824   5.921   7.293 -0.1617 -0.2734 -0.4209
  332MOL0     C44744   0.711   5.908   7.200  0.0932  0.4305 -0.3503
  332MOL0     C44745   0.590   5.920   7.283  0.2590 -1.1181 -1.1358
  332MOL0     C44746   0.480   5.858   7.204  0.4048  0.6088  0.3984
  332MOL0     C44747   0.369   5.854   7.301  0.1144 -0.2142  0.4363
  332MOL0     C44748   0.267   5.775   7.241  1.0290  0.4269 -0.5380
  332MOL0     C44749   0.181   5.704   7.199  0.3167  1.2440  0.5719
  332MOL0     C44750   0.999   5.906   7.117  0.5233  0.2631  0.2400
  332MOL0     C44751   1.132   5.906   7.076 -0.3387 -0.5220 -0.6129
  332MOL0     C44752   1.157   5.846   6.940  1.0806  0.8688  0.4692
  332MOL0     H44753   1.598   6.231   7.274  1.5501  0.9798  1.1548
  332MOL0     H44754   1.842   6.269   7.223 -0.8827  0.1773 -0.5835
  332MOL0     H44755   2.049   6.296   7.167  0.6913  1.1038  1.1003
  332MOL0     H44756   2.082   6.210   7.320  3.3944  1.6884  0.6590
  332MOL0     H44757   2.281   6.109   7.232  0.6839  0.3519  0.5139
  332MOL0     H44758   2.281   6.282   7.257 -0.8119 -0.9607  2.0686
  332MOL0     H44759   2.235   6.331   7.025 -0.4320  0.5793 -0.4685
  332MOL0     H44760   2.226   6.161   6.989 -1.2077  1.3720 -0.5682
  332MOL0     H44761   2.486   6.149   7.060 -0.9219  0.1121  1.1512
  332MOL0     H44762   2.438   6.219   6.906  0.1315  0.4583 -0.7123
  332MOL0     H44763   2.442   6.453   7.011  0.0822 -0.2443 -0.4074
  332MOL0     H44764   2.498   6.380   7.159 -2.3373 -2.4135  0.0193
  332MOL0     H44765   2.700   6.290   7.055  0.6100 -0.8163 -0.7800
  332MOL0     H44766   2.627   6.288   6.901 -1.5470 -1.4505  1.7712
  332MOL0     H44767   2.663   6.561   7.037  2.6861  2.4156 -0.6549
  332MOL0     H44768   2.641   6.529   6.860 -0.8328  0.0224 -0.3702
  332MOL0     H44769   2.870   6.410   6.867  2.3840 -0.2155  1.2351
  332MOL0     H44770   2.873   6.595   6.885  1.8938  1.8459  3.2981
  332MOL0     H44771   2.829   6.672   7.152 -0.9745  0.4251  0.0072
  332MOL0     H44772   3.102   6.568   7.436 -0.1491 -0.2800  1.5096
  332MOL0     H44773   3.059   6.714   7.352  0.6187 -0.5240  0.9177
  332MOL0     H44774   2.911   6.634   7.571 -1.6272  0.6922  0.2799
  332MOL0     H44775   2.817   6.705   7.439  0.3625  0.2855  1.9393
  332MOL0     H44776   2.884   6.405   7.445 -2.6634 -1.1015 -2.2466
  332MOL0     H44777   2.749   6.493   7.364  1.2147  0.5589 -1.3134
  332MOL0     H44778   2.788   6.437   7.670 -0.0873  0.1532  0.8481
  332MOL0     H44779   2.673   6.363   7.558 -0.7086 -0.3307  3.4254
  332MOL0     H44780   2.522   6.564   7.387  0.7095 -1.7496  0.8888
  332MOL0     H44781   2.284   6.530   7.358 -0.4422  0.3775 -0.4295
  332MOL0     H44782   2.026   6.135   7.502 -0.4987 -0.1452 -1.2242
  332MOL0     H44783   1.799   5.976   7.518 -4.3593  0.9575  0.7508
  332MOL0     H44784   1.454   6.166   7.704  0.8263 -0.9135  1.6458
  332MOL0     H44785   1.442   6.130   7.527  2.7024 -1.4987 -0.1246
  332MOL0     H44786   1.263   6.040   7.683 -0.2706 -1.7991 -0.7407
  332MOL0     H44787   1.337   5.932   7.559 -2.1520 -2.3231  1.1926
  332MOL0     H44788   1.433   5.812   7.744  1.6986 -0.7471  1.0321
  332MOL0     H44789   1.430   5.952   7.852  1.3273  0.7632 -0.4015
  332MOL0     H44790   1.181   5.765   7.780 -1.4196  0.2898  0.2426
  332MOL0     H44791   1.169   5.914   7.869 -3.3006 -1.5296 -2.3861
  332MOL0     H44792   1.353   5.820   8.021 -1.6449  0.9671  1.5481
  332MOL0     H44793   1.335   5.666   7.935  1.3888  0.3586  0.3743
  332MOL0     H44794   1.189   5.728   8.159  1.7262  1.9259  1.0053
  332MOL0     H44795   1.087   5.807   8.057  1.3624  0.9402  0.4134
  332MOL0     H44796   1.163   5.509   8.008 -0.4328 -0.5374 -0.6681
  332MOL0     H44797   1.027   5.595   7.932  3.3422  4.1651 -2.4445
  332MOL0     H44798   0.964   5.467   8.128  1.8778 -0.2150  1.9204
  332MOL0     H44799   1.051   5.594   8.223  1.7867 -2.0989  0.1207
  332MOL0     H44800   1.624   6.266   7.756 -0.1398  0.2973 -0.2345
  332MOL0     H44801   1.850   6.397   7.767  0.5278 -0.6432  2.4658
  332MOL0     H44802   2.244   6.413   7.778 -3.8715  0.1314 -2.2171
  332MOL0     H44803   2.475   6.487   7.814  0.6833 -1.3822  0.1444
  332MOL0     H44804   1.900   5.862   7.144  0.3296 -0.4667 -0.1869
  332MOL0     H44805   1.666   5.816   7.157  3.3184 -2.0165  1.5450
  332MOL0     H44806   1.263   5.999   7.376 -0.2589  0.1883 -0.3041
  332MOL0     H44807   1.024   5.963   7.439 -0.8328  0.9923 -0.1409
  332MOL0     H44808   0.711   5.817   7.139  1.6488  0.7952 -0.9417
  332MOL0     H44809   0.715   5.988   7.126 -3.9546  1.2493  0.0838
  332MOL0     H44810   0.565   6.024   7.305  0.4975 -1.6733  2.4027
  332MOL0     H44811   0.592   5.863   7.376 -0.2627  0.0436 -0.3997
  332MOL0     H44812   0.514   5.758   7.173  1.3962  0.6614  1.2743
  332MOL0     H44813   0.446   5.909   7.113  0.0480 -1.8068 -0.9166
  332MOL0     H44814   0.394   5.812   7.398 -1.9800 -0.3180  0.9656
  332MOL0     H44815   0.324   5.952   7.320  0.1094  0.1066 -1.0536
  332MOL0     H44816   0.105   5.633   7.174  0.1329  1.5562  0.2315
  332MOL0     H44817   0.925   5.877   7.044  0.0832  3.1265 -0.5853
  332MOL0     H44818   1.170   5.928   6.869  0.9853 -1.2000 -2.0812
  332MOL0     H44819   1.251   5.791   6.932  0.8109  0.5441 -0.5826
  332MOL0     H44820   1.069   5.789   6.909  2.1515 -0.1293 -0.8462
  333MOL0     O44821   0.368   5.422   0.963 -0.7120  0.5446  0.4557
  333MOL0     C44822   0.305   5.320   0.966  0.3990  0.3067 -0.8402
  333MOL0     O44823   0.346   5.213   1.043 -0.0452 -0.4104 -0.9100
  333MOL0     C44824   0.479   5.221   1.097  0.0655 -0.5605  0.4790
  333MOL0     C44825   0.589   5.175   1.018  0.2872 -0.1820  0.3770
  333MOL0     C44826   0.723   5.202   1.058 -0.4583 -0.4187  0.8025
  333MOL0     C44827   0.749   5.268   1.174  0.0151 -1.0734 -0.8671
  333MOL0     O44828   0.876   5.288   1.222 -0.5450 -0.1195  0.5086
  333MOL0     C44829   0.920   5.361   1.335 -0.4549 -0.0175  0.4468
  333MOL0     C44830   1.060   5.319   1.384  0.6916 -0.4773 -0.2953
  333MOL0     C44831   1.115   5.433   1.471 -0.0321 -0.4942  0.4114
  333MOL0     C44832   1.239   5.385   1.549 -0.3108  0.1038 -0.1861
  333MOL0     C44833   1.327   5.495   1.616  0.0210 -0.3071 -0.7376
  333MOL0     C44834   1.466   5.440   1.669 -0.5620 -0.1323 -0.3813
  333MOL0     C44835   1.560   5.559   1.708 -0.6943  0.9173  0.0758
  333MOL0     C44836   1.706   5.517   1.699  0.1483  0.2714  0.5498
  333MOL0     N44837   1.800   5.618   1.750  0.2652 -0.1132  0.3549
  333MOL0     C44838   1.871   5.607   1.866  0.8016 -0.0389 -0.0875
  333MOL0     C44839   1.944   5.719   1.873  0.4025  0.1804 -0.8187
  333MOL0     C44840   2.014   5.771   1.986  0.7875 -0.5733 -0.4161
  333MOL0     C44841   2.163   5.740   1.977 -0.2218  0.6258 -1.5123
  333MOL0     C44842   2.244   5.857   2.024 -0.5586  0.1768  0.3176
  333MOL0     C44843   2.385   5.823   2.047 -0.1391  0.6602 -0.2204
  333MOL0     O44844   2.398   5.696   2.118  0.6839 -0.1376  0.5057
  333MOL0     C44845   2.523   5.659   2.154  0.7444  0.3585 -0.1335
  333MOL0     C44846   2.643   5.692   2.089  1.5621 -0.1488 -0.3363
  333MOL0     C44847   2.766   5.667   2.144 -0.5150  0.1712  0.2468
  333MOL0     C44848   2.771   5.606   2.271 -0.0321 -0.1413 -0.3471
  333MOL0     C44849   2.904   5.588   2.331 -0.7066  1.0353  0.2121
  333MOL0     O44850   2.919   5.509   2.443  0.7208 -0.1084  0.2643
  333MOL0     C44851   3.038   5.501   2.496 -0.6929 -0.0052 -0.8326
  333MOL0     C44852   3.075   5.596   2.586 -0.2493  0.0409  0.0545
  333MOL0     C44853   3.212   5.591   2.626  0.2215  0.0999  0.1447
  333MOL0     C44854   3.301   5.488   2.599 -0.1110 -0.4763  0.8383
  333MOL0     O44855   3.423   5.476   2.655  0.2272 -0.6654 -0.0800
  333MOL0     C44856   3.483   5.586   2.713  0.5680 -0.2382  0.2317
  333MOL0     C44857   3.622   5.574   2.766 -0.4255  0.4201 -0.0655
  333MOL0     C44858   3.727   5.543   2.660  0.6137  0.1305  0.4977
  333MOL0     C44859   3.876   5.545   2.715  0.9598  0.5077 -0.1238
  333MOL0     C44860   3.972   5.519   2.602  0.0548 -0.3508 -0.3985
  333MOL0     C44861   4.119   5.510   2.656  0.4597 -0.3970  0.0269
  333MOL0     C44862   4.195   5.434   2.548  0.6276  0.6684 -0.2747
  333MOL0     C44863   4.344   5.443   2.579  0.1626 -0.2221 -0.6641
  333MOL0    Cl44864   4.375   5.364   2.734  0.1682  0.3302  0.5577
  333MOL0     C44865   3.261   5.400   2.499 -0.8717  0.3810  0.4467
  333MOL0     C44866   3.130   5.402   2.457 -0.5619 -0.1759  0.5751
  333MOL0     O44867   2.999   5.646   2.277  0.0762 -0.7197  0.1953
  333MOL0     C44868   2.658   5.569   2.336 -0.4704 -0.1107 -0.3601
  333MOL0     C44869   2.533   5.588   2.273 -0.0981  1.1638  1.0926
  333MOL0     N44870   1.920   5.801   1.762 -0.0364 -0.1736  0.1764
  333MOL0     N44871   1.827   5.737   1.694 -0.0661  0.7220 -0.7063
  333MOL0     C44872   0.642   5.311   1.259  0.2519 -0.0616  0.3884
  333MOL0     C44873   0.504   5.286   1.222  0.2085  0.3580  0.2605
  333MOL0     C44874   0.170   5.321   0.906 -0.1493  0.0594 -0.2252
  333MOL0     C44875   0.099   5.206   0.913  0.3463 -0.1031 -0.3224
  333MOL0     C44876  -0.034   5.199   0.855 -0.0565 -0.0777  0.4074
  333MOL0     C44877  -0.089   5.312   0.793  0.2931  0.4807  0.0394
  333MOL0     O44878  -0.215   5.287   0.744  0.0154 -0.3687  0.3699
  333MOL0     C44879  -0.300   5.400   0.715  0.5080  0.5390 -0.1937
  333MOL0     C44880  -0.446   5.359   0.722 -0.4881 -0.5196 -0.1990
  333MOL0     C44881  -0.492   5.327   0.869 -0.2148  0.5947 -0.0080
  333MOL0     C44882  -0.639   5.271   0.879 -0.2062 -0.2080  0.4351
  333MOL0     C44883  -0.751   5.366   0.854  0.0959  0.1459 -0.0733
  333MOL0     C44884  -0.834   5.443   0.832  0.0819 -0.1223  0.7081
  333MOL0     C44885  -0.011   5.415   0.775  0.4048  0.1562 -0.0389
  333MOL0     C44886   0.116   5.431   0.829 -0.4435  0.4123 -0.2635
  333MOL0     C44887   0.187   5.573   0.806  0.6537 -0.6137  0.4416
  333MOL0     H44888   0.564   5.117   0.930  1.8554  0.5889 -0.6244
  333MOL0     H44889   0.805   5.184   0.990 -0.4626  0.0539  0.6686
  333MOL0     H44890   0.921   5.465   1.301  0.8233 -0.2575 -0.2835
  333MOL0     H44891   0.846   5.353   1.416  0.1922 -0.3929  1.0038
  333MOL0     H44892   1.133   5.304   1.304  1.3575  0.9203  0.0357
  333MOL0     H44893   1.051   5.227   1.442 -3.2143 -0.4707 -0.5784
  333MOL0     H44894   1.036   5.452   1.543 -2.6243 -0.0567 -2.3439
  333MOL0     H44895   1.143   5.523   1.415  0.7338 -0.5928  0.6277
  333MOL0     H44896   1.206   5.314   1.625  2.5571 -0.6515  0.4560
  333MOL0     H44897   1.301   5.335   1.474  2.0742 -1.0120  2.3439
  333MOL0     H44898   1.348   5.568   1.537 -3.1884  0.2694 -1.2155
  333MOL0     H44899   1.272   5.529   1.704 -3.8308 -2.4404 -2.0811
  333MOL0     H44900   1.452   5.357   1.739 -0.7250  1.4045  1.5225
  333MOL0     H44901   1.508   5.396   1.578 -0.1503 -0.9993  0.2075
  333MOL0     H44902   1.546   5.578   1.814  0.4758 -0.2468  0.4641
  333MOL0     H44903   1.537   5.643   1.641 -1.8237  0.9018  0.4271
  333MOL0     H44904   1.729   5.424   1.754  2.4833 -1.4338 -2.9481
  333MOL0     H44905   1.739   5.497   1.597  4.2357  0.3192  1.6989
  333MOL0     H44906   1.860   5.530   1.941  1.6989  1.4890  1.7208
  333MOL0     H44907   1.990   5.876   2.004 -1.2874 -0.8359 -1.2513
  333MOL0     H44908   1.969   5.709   2.064  1.9046  0.1687  0.8513
  333MOL0     H44909   2.168   5.657   2.047  1.9836  0.4019 -1.8665
  333MOL0     H44910   2.202   5.703   1.882  0.8819  0.1264 -0.8795
  333MOL0     H44911   2.207   5.878   2.125 -0.1262 -2.1565  1.0272
  333MOL0     H44912   2.231   5.941   1.955  0.6690  2.1550  2.3542
  333MOL0     H44913   2.434   5.908   2.095  0.0573  0.3191  0.1924
  333MOL0     H44914   2.422   5.805   1.945  1.0383  1.6822  0.0058
  333MOL0     H44915   2.639   5.740   1.992  2.8063 -1.0354 -0.8625
  333MOL0     H44916   2.856   5.681   2.085 -0.0268 -0.0872  0.9161
  333MOL0     H44917   3.006   5.672   2.622  0.5885 -0.1048  2.0693
  333MOL0     H44918   3.245   5.676   2.685  1.4490  0.1932 -0.6494
  333MOL0     H44919   3.498   5.658   2.632 -1.3854 -1.7092 -1.5571
  333MOL0     H44920   3.426   5.627   2.797 -3.3562 -0.4154 -2.1140
  333MOL0     H44921   3.659   5.667   2.810 -0.1456  1.0955 -1.6665
  333MOL0     H44922   3.621   5.491   2.837  1.5162  1.6856  1.5766
  333MOL0     H44923   3.698   5.447   2.616 -0.9947  1.8367 -2.5166
  333MOL0     H44924   3.732   5.615   2.577  1.0529 -0.4094  0.0460
  333MOL0     H44925   3.893   5.479   2.800  1.7367  0.9652  0.0914
  333MOL0     H44926   3.883   5.648   2.753 -2.4981  0.5484  0.7850
  333MOL0     H44927   3.968   5.595   2.523  1.4323  0.2596  0.0919
  333MOL0     H44928   3.939   5.423   2.562 -0.3376 -0.1762 -0.5008
  333MOL0     H44929   4.161   5.610   2.663 -0.0653 -0.0005 -1.9633
  333MOL0     H44930   4.137   5.458   2.751  4.5590  0.6071 -0.0021
  333MOL0     H44931   4.176   5.472   2.447  0.2815 -0.4196 -0.6304
  333MOL0     H44932   4.156   5.332   2.554 -0.3136  0.9796 -0.8564
  333MOL0     H44933   4.397   5.392   2.497  0.8739 -0.0912 -0.2982
  333MOL0     H44934   4.382   5.544   2.594  2.0007 -1.0078  0.3786
  333MOL0     H44935   3.340   5.331   2.470 -2.8462 -1.8213 -0.0029
  333MOL0     H44936   3.091   5.323   2.394 -0.6461 -0.8148  1.4184
  333MOL0     H44937   2.658   5.516   2.431  0.0582  1.5560  0.6079
  333MOL0     H44938   2.448   5.537   2.317 -1.0748 -0.7005 -2.5512
  333MOL0     H44939   0.657   5.374   1.346 -0.2179  0.4890  0.0731
  333MOL0     H44940   0.420   5.317   1.283 -0.7083 -3.1383  0.9629
  333MOL0     H44941   0.133   5.118   0.967 -1.2497 -0.4785  0.1364
  333MOL0     H44942  -0.083   5.102   0.863  1.2643 -1.0668 -2.3037
  333MOL0     H44943  -0.283   5.440   0.615 -0.3675  2.6514  0.4515
  333MOL0     H44944  -0.292   5.485   0.783 -1.3562  0.3121  0.3743
  333MOL0     H44945  -0.451   5.271   0.657  0.5778  0.9874 -2.4594
  333MOL0     H44946  -0.510   5.436   0.679 -1.0801 -0.9207 -0.0503
  333MOL0     H44947  -0.485   5.430   0.907  1.1761  0.0950  1.1751
  333MOL0     H44948  -0.424   5.251   0.909  1.0007  1.8417  0.4002
  333MOL0     H44949  -0.650   5.195   0.802  0.6376  0.5463 -0.4624
  333MOL0     H44950  -0.655   5.232   0.980 -1.3646  0.1291  0.3912
  333MOL0     H44951  -0.925   5.497   0.816 -0.5287 -0.9919  1.1942
  333MOL0     H44952  -0.047   5.501   0.718 -0.9997 -2.9023 -4.2776
  333MOL0     H44953   0.139   5.635   0.730 -1.2598 -1.7239  0.6718
  333MOL0     H44954   0.197   5.636   0.895  1.6891  1.9738 -1.3811
  333MOL0     H44955   0.286   5.553   0.764  0.1083  0.3545 -1.4133
  334MOL0     O44956  11.167   3.728   8.141 -0.1193  0.0555 -0.5210
  334MOL0     C44957  11.216   3.628   8.197  0.1376 -0.5135  0.3673
  334MOL0     O44958  11.345   3.609   8.231 -0.3587 -0.9616 -0.3345
  334MOL0     C44959  11.447   3.697   8.181 -0.0019 -0.2544  0.1718
  334MOL0     C44960  11.549   3.743   8.264 -0.0475 -0.5556  0.3854
  334MOL0     C44961  11.658   3.810   8.208 -0.6085 -0.5835  0.0540
  334MOL0     C44962  11.672   3.835   8.073 -0.1040  0.4371 -0.4063
  334MOL0     O44963  11.772   3.907   8.016  0.1396 -0.3435 -0.0889
  334MOL0     C44964  11.896   3.834   8.015  0.1934  0.3125 -0.7510
  334MOL0     C44965  11.991   3.876   8.133 -0.8909  0.1483 -0.7173
  334MOL0     C44966  12.139   3.867   8.099 -1.0552  0.3342  0.5372
  334MOL0     C44967  12.222   3.897   8.222  0.1519  0.0846  0.4706
  334MOL0     C44968  12.369   3.862   8.191  0.0366 -0.6896 -0.1135
  334MOL0     C44969  12.452   3.916   8.304  1.2926  0.2761 -0.0042
  334MOL0     C44970  12.593   3.888   8.273 -0.5070  0.2719  0.1403
  334MOL0     C44971  12.680   3.923   8.397  0.1961 -0.4182 -0.0834
  334MOL0     N44972  12.814   3.930   8.363 -0.8432 -0.2096  0.0179
  334MOL0     C44973  12.896   4.031   8.403  0.2535  0.2330 -0.8034
  334MOL0     C44974  13.021   4.000   8.358  0.7448  0.5777 -0.3100
  334MOL0     C44975  13.156   4.072   8.375 -0.8000 -0.2610 -0.1158
  334MOL0     C44976  13.213   4.031   8.512  0.4689 -0.1838  0.3696
  334MOL0     C44977  13.191   3.883   8.550 -0.4395 -0.7543  0.2112
  334MOL0     C44978  13.303   3.829   8.653  0.1500  0.3255  0.3163
  334MOL0     O44979  13.284   3.680   8.670  0.1034 -0.2443 -0.2380
  334MOL0     C44980  13.396   3.608   8.696 -0.0205  0.2079  0.4314
  334MOL0     C44981  13.413   3.495   8.616  0.2473  0.5542  0.1568
  334MOL0     C44982  13.522   3.409   8.638  0.8493  0.6047 -0.1949
  334MOL0     C44983  13.621   3.433   8.733  0.0131 -0.3431  0.2028
  334MOL0     C44984  13.727   3.339   8.759  0.9022 -0.4024 -0.0305
  334MOL0     O44985  13.781   3.340   8.885 -0.5545 -0.3392 -0.5842
  334MOL0     C44986  13.896   3.266   8.928 -0.1219 -0.5424  0.4399
  334MOL0     C44987  13.909   3.235   9.071  0.6788 -1.3272  0.4447
  334MOL0     C44988  14.024   3.166   9.111 -0.7977  0.6031 -0.5207
  334MOL0     C44989  14.124   3.133   9.022 -0.0474  0.1459 -0.3105
  334MOL0     O44990  14.232   3.070   9.078  0.2081  0.3391 -0.5694
  334MOL0     C44991  14.357   3.101   9.020  0.2015  0.5981 -0.3219
  334MOL0     C44992  14.472   3.089   9.118 -0.6278 -0.3263  0.2902
  334MOL0     C44993  14.462   2.963   9.208 -0.7051  0.3271  0.1654
  334MOL0     C44994  14.582   2.945   9.307 -0.6472 -0.2061 -0.3032
  334MOL0     C44995  14.596   2.807   9.379  0.2791  0.1808  0.5554
  334MOL0     C44996  14.483   2.770   9.473  1.0909  1.4613 -0.6219
  334MOL0     C44997  14.445   2.620   9.477  0.5601 -0.6201  0.6128
  334MOL0     C44998  14.560   2.534   9.535  0.1919 -0.4872  0.6802
  334MOL0    Cl44999  14.675   2.506   9.406 -0.2256  0.1672 -0.1717
  334MOL0     C45000  14.112   3.165   8.887 -0.5704  0.5387  0.7428
  334MOL0     C45001  13.999   3.232   8.846  0.0157 -0.0492 -0.7810
  334MOL0     O45002  13.765   3.262   8.673  0.1637  0.0266  0.0285
  334MOL0     C45003  13.607   3.553   8.812  0.0727 -0.6274 -0.1771
  334MOL0     C45004  13.489   3.630   8.796 -0.3580 -0.1989 -0.4572
  334MOL0     N45005  13.014   3.880   8.294 -0.3045  0.5541  0.0235
  334MOL0     N45006  12.890   3.840   8.298 -0.4225  0.3615  0.9345
  334MOL0     C45007  11.568   3.787   7.994 -0.0373 -0.2067  0.5430
  334MOL0     C45008  11.456   3.713   8.044 -0.2607  0.8539  0.1161
  334MOL0     C45009  11.128   3.524   8.232  0.5995  0.2579  0.3220
  334MOL0     C45010  11.175   3.438   8.338 -0.8083  0.7059  0.1421
  334MOL0     C45011  11.092   3.355   8.402 -0.2103 -0.4462 -0.4031
  334MOL0     C45012  10.958   3.345   8.363  0.5308  0.4271  0.4506
  334MOL0     O45013  10.869   3.259   8.434 -0.1985  0.2008 -0.5265
  334MOL0     C45014  10.785   3.336   8.510  0.3867 -0.2371 -0.4290
  334MOL0     C45015  10.840   3.410   8.630  0.7941 -0.3508  0.8659
  334MOL0     C45016  10.913   3.323   8.713 -1.2106  0.0501 -0.7857
  334MOL0     C45017  10.980   3.411   8.824 -0.7699  0.5402  0.4240
  334MOL0     C45018  11.051   3.316   8.916  0.3163  0.2166  0.1938
  334MOL0     C45019  11.127   3.264   8.991  0.8235  0.1680  0.1324
  334MOL0     C45020  10.914   3.419   8.253 -1.0795  0.2436 -0.1842
  334MOL0     C45021  10.994   3.512   8.194 -0.2302 -0.3829 -0.5766
  334MOL0     C45022  10.921   3.603   8.095 -0.0361 -0.6408 -0.5449
  334MOL0     H45023  11.538   3.720   8.370 -3.0208 -1.0696  0.0405
  334MOL0     H45024  11.740   3.826   8.276  0.1954  1.3493 -1.2610
  334MOL0     H45025  11.883   3.726   8.012  1.3991  0.1740 -1.8281
  334MOL0     H45026  11.952   3.857   7.924  1.7289 -2.6352 -0.6435
  334MOL0     H45027  11.973   3.812   8.221  2.7605 -1.5500 -1.0166
  334MOL0     H45028  11.974   3.982   8.156  0.4458  0.8463 -2.7317
  334MOL0     H45029  12.164   3.942   8.024 -1.9360 -1.5009 -1.7080
  334MOL0     H45030  12.151   3.764   8.064 -3.4384 -0.4148  1.6877
  334MOL0     H45031  12.199   3.995   8.265 -1.2615 -0.0330  0.0606
  334MOL0     H45032  12.193   3.822   8.297 -0.3376  0.6012  0.8064
  334MOL0     H45033  12.389   3.756   8.171  0.5726 -0.4799 -0.7056
  334MOL0     H45034  12.391   3.925   8.105 -2.6634  3.8572  2.1510
  334MOL0     H45035  12.432   4.021   8.326  1.2687 -0.3546  3.6640
  334MOL0     H45036  12.430   3.857   8.394  2.4320 -0.3644 -0.1259
  334MOL0     H45037  12.632   3.948   8.191  3.2743 -0.6293  1.1159
  334MOL0     H45038  12.597   3.781   8.250 -2.5268 -0.3245  2.1679
  334MOL0     H45039  12.642   4.016   8.442 -3.2084 -1.3913 -0.6585
  334MOL0     H45040  12.670   3.849   8.477  0.0539  0.0704  0.3618
  334MOL0     H45041  12.870   4.108   8.475  2.4176  1.0500 -0.8384
  334MOL0     H45042  13.230   4.021   8.312 -1.7831 -0.8582 -0.8154
  334MOL0     H45043  13.141   4.177   8.349 -1.0986  0.6397  3.2419
  334MOL0     H45044  13.319   4.057   8.516  0.4160  0.4076 -1.4740
  334MOL0     H45045  13.175   4.094   8.593 -1.2342 -1.1756  0.3953
  334MOL0     H45046  13.200   3.837   8.451  1.6056  1.0957 -0.5450
  334MOL0     H45047  13.094   3.866   8.597 -0.5091 -2.4460 -0.4661
  334MOL0     H45048  13.299   3.882   8.749  0.7384  4.4766 -1.7340
  334MOL0     H45049  13.399   3.852   8.607 -0.4168 -1.7019 -2.0818
  334MOL0     H45050  13.336   3.484   8.541  0.6446 -1.5676 -0.0065
  334MOL0     H45051  13.522   3.322   8.573  0.3745  1.9340 -2.0289
  334MOL0     H45052  13.829   3.273   9.134 -0.2357 -1.6212 -0.5231
  334MOL0     H45053  14.044   3.135   9.213 -2.3268 -0.8610 -0.6302
  334MOL0     H45054  14.384   3.036   8.936 -1.7930 -2.3020  1.1237
  334MOL0     H45055  14.366   3.204   8.986 -0.9349  0.5080 -0.9218
  334MOL0     H45056  14.568   3.096   9.066 -1.4381 -1.5048 -1.4793
  334MOL0     H45057  14.461   3.178   9.181 -1.8743  0.5985 -1.1620
  334MOL0     H45058  14.363   2.959   9.253 -0.3721 -1.4610  0.8280
  334MOL0     H45059  14.469   2.878   9.140  0.7638  0.7308 -0.2393
  334MOL0     H45060  14.582   3.025   9.382 -3.1909 -1.2016  0.8579
  334MOL0     H45061  14.676   2.968   9.254  1.4814  0.8761  3.5609
  334MOL0     H45062  14.690   2.804   9.434 -0.1178  0.9140  1.3009
  334MOL0     H45063  14.601   2.733   9.299 -0.5559  0.0448  0.6104
  334MOL0     H45064  14.510   2.799   9.575 -3.5769  1.2921  0.9086
  334MOL0     H45065  14.393   2.825   9.444 -0.0278  0.5427  0.9544
  334MOL0     H45066  14.406   2.590   9.379  3.7928 -1.6517 -0.4933
  334MOL0     H45067  14.362   2.620   9.548  0.8884 -3.2514  1.1181
  334MOL0     H45068  14.613   2.591   9.612 -1.0865  0.1078  1.1519
  334MOL0     H45069  14.520   2.448   9.589 -0.2876 -1.5014 -1.2161
  334MOL0     H45070  14.184   3.137   8.811 -2.8319  0.2723 -1.4255
  334MOL0     H45071  13.992   3.260   8.742  0.6447  2.2123 -0.2611
  334MOL0     H45072  13.675   3.575   8.893 -0.8361 -1.5118  0.8683
  334MOL0     H45073  13.478   3.714   8.864  0.5518 -0.2936 -0.1739
  334MOL0     H45074  11.572   3.795   7.886 -1.9754 -0.4634  0.4226
  334MOL0     H45075  11.376   3.675   7.981  2.1910 -2.7072 -1.1534
  334MOL0     H45076  11.276   3.450   8.376 -1.7630 -0.1235  3.1856
  334MOL0     H45077  11.126   3.302   8.490 -0.1392 -1.2902 -0.9292
  334MOL0     H45078  10.707   3.267   8.542  0.1358  0.3389  0.2117
  334MOL0     H45079  10.739   3.419   8.456  0.4166  2.8366  3.7646
  334MOL0     H45080  10.759   3.466   8.678  2.3273  2.6202  0.2057
  334MOL0     H45081  10.909   3.480   8.582  0.6424 -1.8566 -1.7377
  334MOL0     H45082  10.995   3.274   8.659  1.0783  0.0175  2.3843
  334MOL0     H45083  10.841   3.251   8.753 -1.7557  1.2149  0.3737
  334MOL0     H45084  11.047   3.486   8.780 -0.5304  0.8601  1.3140
  334MOL0     H45085  10.910   3.471   8.883 -1.8351  0.2014 -0.4776
  334MOL0     H45086  11.199   3.224   9.060  0.7086  0.8114  0.6392
  334MOL0     H45087  10.807   3.426   8.237 -0.9720  1.0951 -0.5663
  334MOL0     H45088  10.833   3.543   8.068 -0.0674 -0.7120 -0.2927
  334MOL0     H45089  10.892   3.700   8.138  1.6522 -0.4646  0.2865
  334MOL0     H45090  10.984   3.608   8.006  0.4235 -0.1249 -0.1976
  335MOL0     O45091   0.912   6.078   5.432 -0.0129  0.1183  0.8321
  335MOL0     C45092   0.957   6.012   5.525 -0.1585 -0.2256 -0.2654
  335MOL0     O45093   0.884   5.936   5.615 -0.8352  0.4643 -0.3118
  335MOL0     C45094   0.753   5.913   5.609  0.5239 -0.4280 -0.3643
  335MOL0     C45095   0.661   5.968   5.516  0.7116 -0.0570  0.1329
  335MOL0     C45096   0.524   5.930   5.535  0.2125  0.0976  0.1718
  335MOL0     C45097   0.480   5.853   5.644  0.2708 -0.6589 -0.7968
  335MOL0     O45098   0.348   5.828   5.646 -0.0233  0.4423 -0.3402
  335MOL0     C45099   0.297   5.773   5.767 -0.3728  0.1652  0.1676
  335MOL0     C45100   0.147   5.793   5.788  0.1071 -0.2046 -0.1648
  335MOL0     C45101   0.096   5.714   5.912 -0.3952  0.4180 -0.0065
  335MOL0     C45102  -0.056   5.735   5.937  0.0165 -0.4870  0.1548
  335MOL0     C45103  -0.138   5.630   5.863  0.8525  0.0568 -0.0936
  335MOL0     C45104  -0.284   5.675   5.855 -1.2407  0.6462  0.0114
  335MOL0     C45105  -0.368   5.667   5.989 -0.3942  0.0061 -0.5006
  335MOL0     C45106  -0.360   5.535   6.067 -0.2140  0.2573  0.4407
  335MOL0     N45107  -0.457   5.508   6.172  0.2926 -0.3408 -0.2872
  335MOL0     C45108  -0.579   5.453   6.155 -0.1779  0.3342  0.3531
  335MOL0     C45109  -0.636   5.453   6.276 -0.0290 -0.2921 -0.2448
  335MOL0     C45110  -0.749   5.376   6.318  0.2738 -0.3768 -0.8246
  335MOL0     C45111  -0.701   5.256   6.402 -0.3390  0.3799  0.8062
  335MOL0     C45112  -0.643   5.149   6.301  0.0764  0.3772 -0.5842
  335MOL0     C45113  -0.588   5.025   6.374  0.3040  0.3111 -0.4694
  335MOL0     O45114  -0.476   5.042   6.470  0.4743  0.1425  0.4174
  335MOL0     C45115  -0.377   5.124   6.426  0.5001  0.5314 -1.0219
  335MOL0     C45116  -0.341   5.236   6.507  0.8342 -1.0104  1.4571
  335MOL0     C45117  -0.241   5.322   6.468  0.1253  0.2343  0.4286
  335MOL0     C45118  -0.160   5.296   6.360  1.2113 -0.2217  0.8367
  335MOL0     C45119  -0.048   5.389   6.324 -0.1479 -0.5631 -0.2071
  335MOL0     O45120   0.015   5.459   6.426 -0.2079 -0.1526 -0.1660
  335MOL0     C45121   0.102   5.561   6.392 -0.2961  0.6391 -0.1957
  335MOL0     C45122   0.065   5.683   6.324  0.4428  0.7584 -0.8155
  335MOL0     C45123   0.158   5.776   6.281 -0.8703 -0.2964 -1.1969
  335MOL0     C45124   0.300   5.749   6.303 -0.0193  0.1011  0.8122
  335MOL0     O45125   0.404   5.836   6.265 -0.0576  0.5711  0.2500
  335MOL0     C45126   0.385   5.938   6.159 -0.4685  0.5405 -0.6642
  335MOL0     C45127   0.513   5.977   6.085  0.4205 -0.5744  0.6868
  335MOL0     C45128   0.485   6.086   5.972  1.0238  0.1443 -0.0365
  335MOL0     C45129   0.625   6.133   5.911  0.0359 -0.5434  0.4654
  335MOL0     C45130   0.670   6.258   5.998 -0.2089 -0.7979 -0.6110
  335MOL0     C45131   0.795   6.323   5.948  0.3024  0.5703 -0.0011
  335MOL0     C45132   0.872   6.418   6.046  0.9372  0.4114 -0.0647
  335MOL0     C45133   0.913   6.542   5.979 -0.0715 -1.1226  0.6242
  335MOL0    Cl45134   1.023   6.509   5.846 -0.0805 -0.3149 -0.3810
  335MOL0     C45135   0.339   5.632   6.368  0.3924  0.3461  0.9608
  335MOL0     C45136   0.242   5.539   6.411 -0.3356 -0.0125  0.2474
  335MOL0     O45137  -0.018   5.396   6.210 -0.1000  0.7643  0.9003
  335MOL0     C45138  -0.175   5.173   6.287  0.7900 -0.2624  0.6695
  335MOL0     C45139  -0.291   5.096   6.317  0.0010 -0.2159 -0.2712
  335MOL0     N45140  -0.550   5.517   6.370 -0.1383 -0.2657 -0.7441
  335MOL0     N45141  -0.442   5.540   6.302 -0.3057 -0.4463  0.7979
  335MOL0     C45142   0.578   5.779   5.713  0.5243 -0.2184  0.2783
  335MOL0     C45143   0.710   5.824   5.703 -0.1394 -0.4537  0.3567
  335MOL0     C45144   1.097   6.026   5.539 -0.3655 -0.4957  1.0438
  335MOL0     C45145   1.140   6.148   5.574 -0.6535 -0.4098 -0.3548
  335MOL0     C45146   1.272   6.156   5.617 -0.4225  0.0810 -0.0520
  335MOL0     C45147   1.362   6.050   5.640 -0.2711  0.0498 -0.4851
  335MOL0     O45148   1.477   6.061   5.704  0.4332  0.4780 -1.0588
  335MOL0     C45149   1.565   6.170   5.667  0.4781  0.1426 -0.5690
  335MOL0     C45150   1.702   6.098   5.631 -0.5752 -1.2985 -0.2403
  335MOL0     C45151   1.756   5.983   5.728 -0.0724 -0.9126  0.8337
  335MOL0     C45152   1.910   5.949   5.718  0.0462 -0.2586  0.6543
  335MOL0     C45153   1.998   6.049   5.783  0.0421  0.2359  0.4573
  335MOL0     C45154   2.066   6.132   5.835  0.2998 -0.5903  1.0677
  335MOL0     C45155   1.316   5.926   5.599 -0.2462  0.2568  0.0056
  335MOL0     C45156   1.186   5.911   5.542  0.6746 -0.8981 -0.3347
  335MOL0     C45157   1.137   5.778   5.494 -0.8869  0.4837  0.3653
  335MOL0     H45158   0.686   6.038   5.438 -1.6702  1.6493  0.7821
  335MOL0     H45159   0.446   5.966   5.468 -0.5469  1.2895  1.6408
  335MOL0     H45160   0.314   5.665   5.774 -2.4097 -0.2235 -0.1450
  335MOL0     H45161   0.345   5.823   5.851 -0.6434 -0.2598  0.5839
  335MOL0     H45162   0.097   5.754   5.699  2.0039  0.4671 -1.5793
  335MOL0     H45163   0.125   5.900   5.796 -0.9121 -0.4966  1.5628
  335MOL0     H45164   0.151   5.756   5.996  1.1272 -1.8961  0.2260
  335MOL0     H45165   0.121   5.609   5.901  2.4899  0.9434  0.7401
  335MOL0     H45166  -0.079   5.722   6.043 -0.0067 -0.6495  0.1302
  335MOL0     H45167  -0.085   5.837   5.911  1.2533 -0.2972 -0.5541
  335MOL0     H45168  -0.099   5.616   5.762 -1.2512  0.7928 -1.0632
  335MOL0     H45169  -0.121   5.532   5.910  0.7260 -0.7102 -1.5982
  335MOL0     H45170  -0.293   5.771   5.802  0.1524 -0.1515 -1.7348
  335MOL0     H45171  -0.315   5.596   5.786  1.6716  0.7682 -1.6170
  335MOL0     H45172  -0.475   5.676   5.971 -0.1647 -0.9020 -2.6838
  335MOL0     H45173  -0.348   5.751   6.056 -2.4945 -0.6993  1.1216
  335MOL0     H45174  -0.348   5.447   6.003 -1.5312  0.5281 -0.2034
  335MOL0     H45175  -0.263   5.537   6.117  1.0614 -0.5908 -1.8191
  335MOL0     H45176  -0.617   5.397   6.070  0.0205 -1.8422  1.6053
  335MOL0     H45177  -0.800   5.447   6.384  0.1670 -2.1163  1.0862
  335MOL0     H45178  -0.814   5.354   6.233 -1.6502  2.0396 -0.1137
  335MOL0     H45179  -0.620   5.288   6.468  0.5269  2.3160 -1.0731
  335MOL0     H45180  -0.783   5.218   6.464  0.3186 -0.7458  1.0146
  335MOL0     H45181  -0.569   5.192   6.233 -0.3245  3.8035  0.9552
  335MOL0     H45182  -0.728   5.117   6.240 -0.5914  1.1984 -0.0937
  335MOL0     H45183  -0.554   4.946   6.306 -1.6538 -1.9916  1.0203
  335MOL0     H45184  -0.666   4.975   6.433  0.9527  0.8074  0.8583
  335MOL0     H45185  -0.400   5.245   6.598 -2.0423 -6.8676  0.6402
  335MOL0     H45186  -0.230   5.418   6.518  1.2571 -0.4739  1.6137
  335MOL0     H45187  -0.042   5.701   6.320 -0.1848 -2.3367 -0.2804
  335MOL0     H45188   0.121   5.863   6.227 -0.0341  1.1341  0.4353
  335MOL0     H45189   0.312   5.905   6.085  0.0319 -1.9680 -0.1028
  335MOL0     H45190   0.350   6.030   6.208  1.1267  0.7129  0.2093
  335MOL0     H45191   0.585   6.012   6.160  2.5387  1.6004 -2.0756
  335MOL0     H45192   0.557   5.886   6.043 -0.1181 -0.7179  0.4246
  335MOL0     H45193   0.423   6.036   5.896  0.2324 -0.5009  0.9976
  335MOL0     H45194   0.423   6.172   5.997  0.3470 -0.5669  0.7807
  335MOL0     H45195   0.608   6.171   5.810  0.8380  2.2809  1.3092
  335MOL0     H45196   0.704   6.057   5.916  3.8176  3.1543  1.9519
  335MOL0     H45197   0.672   6.222   6.101  1.0444  0.5248 -0.1326
  335MOL0     H45198   0.590   6.332   6.002  0.3064 -0.2702  2.0702
  335MOL0     H45199   0.868   6.259   5.897 -0.2003  1.2892 -1.7203
  335MOL0     H45200   0.768   6.393   5.868 -1.4722 -2.0658 -1.9186
  335MOL0     H45201   0.952   6.371   6.104  1.2740  1.1984  0.1286
  335MOL0     H45202   0.802   6.451   6.123  2.1955 -0.7183  1.6337
  335MOL0     H45203   0.832   6.605   5.943  1.9591 -0.5168 -3.3885
  335MOL0     H45204   0.968   6.608   6.048 -1.1081  0.7871 -0.3141
  335MOL0     H45205   0.446   5.621   6.378  0.5936  2.5254  1.7789
  335MOL0     H45206   0.269   5.447   6.461 -1.7285  0.6067  2.2471
  335MOL0     H45207  -0.101   5.149   6.211 -1.5350  1.2122 -2.2607
  335MOL0     H45208  -0.326   5.009   6.262  1.3256 -0.1772 -1.2097
  335MOL0     H45209   0.547   5.704   5.784 -1.9443 -0.0563 -0.5242
  335MOL0     H45210   0.778   5.778   5.774 -2.1085 -1.1629  1.8718
  335MOL0     H45211   1.076   6.235   5.575 -0.7097 -0.4466 -0.6536
  335MOL0     H45212   1.303   6.252   5.656  0.4208 -0.5598  0.9262
  335MOL0     H45213   1.584   6.251   5.740  0.7839  0.3769 -0.9024
  335MOL0     H45214   1.520   6.213   5.577 -0.4483 -0.7209 -0.5308
  335MOL0     H45215   1.773   6.181   5.623 -0.1990 -1.4087  1.5098
  335MOL0     H45216   1.688   6.052   5.533 -1.9084 -0.4960 -0.4447
  335MOL0     H45217   1.703   5.890   5.708  0.8076 -1.1988 -0.2172
  335MOL0     H45218   1.743   6.010   5.834  0.9281 -0.7601  0.9224
  335MOL0     H45219   1.926   5.853   5.767 -0.4934 -1.0218 -0.6075
  335MOL0     H45220   1.925   5.950   5.609 -1.1664 -1.2990  0.4455
  335MOL0     H45221   2.104   6.218   5.886 -2.7809  1.1736  0.6807
  335MOL0     H45222   1.376   5.836   5.602  0.8547  0.9057 -1.1857
  335MOL0     H45223   1.069   5.750   5.575  1.0844 -0.2689  1.8749
  335MOL0     H45224   1.087   5.786   5.398 -0.4302  0.6633  0.1371
  335MOL0     H45225   1.216   5.703   5.480 -0.6833  0.8144 -0.2960
  336MOL0     O45226   6.695   1.575   4.345 -0.2156 -0.5048 -0.3279
  336MOL0     C45227   6.602   1.562   4.264  0.2602  0.6885 -0.2412
  336MOL0     O45228   6.613   1.526   4.130 -0.9545  0.0934 -0.0205
  336MOL0     C45229   6.723   1.566   4.061 -0.5273  0.0257  0.0729
  336MOL0     C45230   6.761   1.493   3.949  0.2821 -0.2470 -0.5928
  336MOL0     C45231   6.869   1.526   3.864  0.4375  0.3005 -0.5247
  336MOL0     C45232   6.952   1.635   3.893  0.1665  0.6892 -0.3225
  336MOL0     O45233   7.054   1.683   3.815  0.2111 -0.2518 -0.4825
  336MOL0     C45234   7.068   1.632   3.683  0.1218 -0.0289 -0.5642
  336MOL0     C45235   7.200   1.698   3.617  0.2128  0.2297  0.6538
  336MOL0     C45236   7.243   1.617   3.502 -0.2806  0.0202  0.4945
  336MOL0     C45237   7.385   1.664   3.467 -0.1073  0.8098 -0.6065
  336MOL0     C45238   7.406   1.623   3.323 -0.3922 -0.7500 -0.4638
  336MOL0     C45239   7.512   1.706   3.244  0.5025  0.1989 -0.4072
  336MOL0     C45240   7.652   1.689   3.298  0.1021 -0.6319 -0.3046
  336MOL0     C45241   7.748   1.791   3.236  0.5669 -0.5088  0.4993
  336MOL0     N45242   7.887   1.763   3.269  0.4073 -1.0842 -0.9285
  336MOL0     C45243   7.952   1.653   3.227  0.2875  0.4370  0.2043
  336MOL0     C45244   8.074   1.670   3.276 -0.6850 -0.9216  0.0204
  336MOL0     C45245   8.193   1.586   3.230 -0.3323 -0.4933 -0.1058
  336MOL0     C45246   8.197   1.592   3.072  0.1283  0.0300 -0.4085
  336MOL0     C45247   8.259   1.465   3.007  1.1956  0.4683  0.3533
  336MOL0     C45248   8.326   1.494   2.878 -0.4979  0.3113 -0.4308
  336MOL0     O45249   8.464   1.533   2.894  0.5566  0.3383 -0.1965
  336MOL0     C45250   8.545   1.516   2.782 -0.3661  1.2788  0.1394
  336MOL0     C45251   8.684   1.524   2.797  0.4866 -0.0813  0.4400
  336MOL0     C45252   8.768   1.488   2.697 -0.1530  0.0454  1.2962
  336MOL0     C45253   8.716   1.463   2.564  0.3379 -0.3486 -0.2449
  336MOL0     C45254   8.809   1.409   2.457 -0.2802  0.4046  0.5389
  336MOL0     O45255   8.944   1.406   2.483  0.4332  0.2679 -0.4298
  336MOL0     C45256   9.032   1.371   2.384 -0.3017  0.3325 -0.0273
  336MOL0     C45257   9.158   1.323   2.434  0.2305  0.4393  0.1139
  336MOL0     C45258   9.263   1.271   2.354 -1.3077 -1.0991 -0.1313
  336MOL0     C45259   9.242   1.264   2.221 -0.4088 -0.7506  0.8611
  336MOL0     O45260   9.343   1.224   2.141  0.2113 -0.2147  0.1571
  336MOL0     C45261   9.428   1.325   2.085  0.1157  0.1168 -0.3178
  336MOL0     C45262   9.541   1.251   2.014 -0.1424 -0.1661  0.0095
  336MOL0     C45263   9.649   1.356   1.980 -0.9343 -0.3945  0.5421
  336MOL0     C45264   9.790   1.295   1.969 -0.6695 -0.1751  0.5929
  336MOL0     C45265   9.896   1.390   1.913 -1.0492 -0.2135 -0.0606
  336MOL0     C45266   9.881   1.403   1.753 -1.1691 -0.4169 -0.1044
  336MOL0     C45267  10.005   1.469   1.693  0.9748  0.1323 -0.1767
  336MOL0     C45268  10.004   1.455   1.537  1.0019  0.3698  0.3737
  336MOL0    Cl45269  10.164   1.525   1.480  0.1738  0.2777 -0.0658
  336MOL0     C45270   9.119   1.300   2.169  0.0147  0.2216  0.0073
  336MOL0     C45271   9.014   1.353   2.248  0.1044  0.7457  0.3719
  336MOL0     O45272   8.755   1.385   2.349 -0.5920  0.4744 -0.1099
  336MOL0     C45273   8.579   1.463   2.546 -0.2628  0.0590 -0.0016
  336MOL0     C45274   8.497   1.482   2.656  0.2602 -0.9255  0.2431
  336MOL0     N45275   8.085   1.787   3.350  0.0036  0.5421  0.3522
  336MOL0     N45276   7.968   1.839   3.350  0.3527 -0.7008  0.1441
  336MOL0     C45277   6.923   1.709   4.006  0.2472  0.1110  0.2028
  336MOL0     C45278   6.809   1.672   4.090 -1.2101  0.0852  0.0851
  336MOL0     C45279   6.466   1.563   4.318 -0.6180 -0.5166  0.0447
  336MOL0     C45280   6.362   1.515   4.240 -0.3548 -1.1243 -0.3481
  336MOL0     C45281   6.232   1.510   4.283  0.2689 -0.1677  0.2343
  336MOL0     C45282   6.189   1.550   4.407  0.0385  0.4071  0.6783
  336MOL0     O45283   6.057   1.572   4.435  0.9114  0.0312 -0.1231
  336MOL0     C45284   5.943   1.484   4.411  0.3508  0.2118 -0.8759
  336MOL0     C45285   5.954   1.342   4.463 -0.5163 -0.2452 -0.6466
  336MOL0     C45286   5.972   1.339   4.622  1.3819 -0.4897 -0.4918
  336MOL0     C45287   5.849   1.392   4.693  0.5179  0.2493  0.6471
  336MOL0     C45288   5.714   1.359   4.645  0.2080 -0.2556 -0.0172
  336MOL0     C45289   5.610   1.319   4.599 -0.2004  0.3739  0.7103
  336MOL0     C45290   6.292   1.589   4.493 -0.3472  0.0184 -0.0874
  336MOL0     C45291   6.426   1.603   4.450  0.2104 -0.4020 -0.6906
  336MOL0     C45292   6.518   1.660   4.555  0.3014  0.0387  0.4019
  336MOL0     H45293   6.716   1.395   3.939  0.5093 -0.5565  1.0786
  336MOL0     H45294   6.889   1.460   3.780 -2.2033 -1.0131 -0.2172
  336MOL0     H45295   7.083   1.523   3.679  0.7175  0.0897 -2.7153
  336MOL0     H45296   6.975   1.648   3.628 -0.0857  1.4461  0.1640
  336MOL0     H45297   7.277   1.706   3.693  0.6714  2.9300  0.0033
  336MOL0     H45298   7.171   1.803   3.603 -1.8868 -0.5210 -1.3121
  336MOL0     H45299   7.171   1.633   3.422 -1.7637 -0.7732  1.6259
  336MOL0     H45300   7.263   1.512   3.525  2.3833  0.3213 -0.0650
  336MOL0     H45301   7.384   1.773   3.478  2.2955  0.7291  1.2113
  336MOL0     H45302   7.457   1.620   3.537  0.7758  1.3654 -1.1468
  336MOL0     H45303   7.432   1.517   3.314  0.1566 -0.7921  1.1701
  336MOL0     H45304   7.315   1.633   3.263 -0.7066 -0.3432  0.0649
  336MOL0     H45305   7.514   1.668   3.142  0.4263 -0.3073 -0.2183
  336MOL0     H45306   7.473   1.807   3.224 -0.8991  0.1073  1.6201
  336MOL0     H45307   7.695   1.593   3.268  0.0000 -0.2163 -1.8812
  336MOL0     H45308   7.651   1.685   3.407 -1.2458  2.5759 -0.0878
  336MOL0     H45309   7.747   1.778   3.127 -0.8815 -0.1738  0.4536
  336MOL0     H45310   7.712   1.893   3.248 -0.5367 -0.4795 -2.1932
  336MOL0     H45311   7.912   1.578   3.160  1.7492 -0.4323  0.2589
  336MOL0     H45312   8.281   1.624   3.283 -0.0876  1.6501 -1.9381
  336MOL0     H45313   8.174   1.481   3.255 -0.2431 -0.8493 -1.4467
  336MOL0     H45314   8.096   1.611   3.034 -0.2518 -1.1134 -0.0308
  336MOL0     H45315   8.264   1.675   3.050 -1.0861  2.0452  2.7837
  336MOL0     H45316   8.181   1.391   2.989  0.4361  1.5834 -1.2287
  336MOL0     H45317   8.327   1.417   3.078  1.8825  1.4642  0.3936
  336MOL0     H45318   8.275   1.573   2.822  1.9370 -0.5341 -4.1772
  336MOL0     H45319   8.320   1.399   2.824  1.9024 -0.8458  1.1395
  336MOL0     H45320   8.735   1.549   2.890  2.6828  2.5094 -1.2974
  336MOL0     H45321   8.875   1.492   2.712  0.0082  3.8208  0.1610
  336MOL0     H45322   9.154   1.321   2.543 -2.2199 -0.9987  0.0719
  336MOL0     H45323   9.350   1.232   2.405 -1.0954 -0.2856  0.1401
  336MOL0     H45324   9.370   1.383   2.013  1.0306 -2.2704 -3.1740
  336MOL0     H45325   9.459   1.385   2.171 -1.5715 -3.3062  2.9987
  336MOL0     H45326   9.585   1.176   2.080  2.0926  1.5996  0.6633
  336MOL0     H45327   9.510   1.194   1.926 -0.3861 -0.1595  0.0913
  336MOL0     H45328   9.631   1.395   1.880  3.6728  1.3847  0.1546
  336MOL0     H45329   9.654   1.437   2.053  3.0661 -0.2661  0.3255
  336MOL0     H45330   9.783   1.208   1.903  0.0414 -1.0327  1.6167
  336MOL0     H45331   9.812   1.264   2.072 -1.1379  1.6009  1.2615
  336MOL0     H45332   9.993   1.348   1.940 -0.9927  0.2529  0.4911
  336MOL0     H45333   9.875   1.492   1.947 -1.9294  0.0709 -1.3652
  336MOL0     H45334   9.880   1.304   1.709 -0.6420  0.3760 -2.0078
  336MOL0     H45335   9.786   1.453   1.734 -1.5818 -0.0895  2.4280
  336MOL0     H45336  10.091   1.413   1.731  1.7192  1.5034  0.2042
  336MOL0     H45337  10.003   1.576   1.716 -4.4027  0.3801 -0.3816
  336MOL0     H45338  10.000   1.349   1.510  0.9047  0.6013 -0.5546
  336MOL0     H45339   9.928   1.508   1.479  2.3212  0.1378 -1.6867
  336MOL0     H45340   9.102   1.282   2.064  1.4610 -2.4032  0.1365
  336MOL0     H45341   8.923   1.389   2.200 -2.1575 -2.4149  1.8850
  336MOL0     H45342   8.539   1.446   2.446  2.7589  2.3486 -1.7926
  336MOL0     H45343   8.390   1.487   2.636  0.3193 -0.6772 -0.0167
  336MOL0     H45344   6.988   1.792   4.029  0.8774 -0.6344  1.1877
  336MOL0     H45345   6.798   1.746   4.168  0.5638  0.2883  0.1972
  336MOL0     H45346   6.393   1.489   4.139  1.2554 -0.1016 -0.1537
  336MOL0     H45347   6.153   1.493   4.211  0.0540  2.9869 -0.4111
  336MOL0     H45348   5.938   1.477   4.302  0.1545  3.8393 -1.1926
  336MOL0     H45349   5.846   1.527   4.439  0.0223 -1.3675  0.6394
  336MOL0     H45350   6.048   1.298   4.429 -0.7219 -0.9075 -0.3897
  336MOL0     H45351   5.871   1.275   4.440 -3.8128  3.2637  0.0695
  336MOL0     H45352   6.056   1.400   4.655  1.2695 -0.6883  0.1834
  336MOL0     H45353   5.988   1.233   4.644 -0.9092 -0.5752  1.1632
  336MOL0     H45354   5.860   1.347   4.792  2.5192 -0.1715  0.2788
  336MOL0     H45355   5.850   1.500   4.707 -1.5357  0.3988  0.0613
  336MOL0     H45356   5.525   1.279   4.549  0.3786  0.1804 -0.1288
  336MOL0     H45357   6.263   1.628   4.591  1.4151  1.4533 -0.0812
  336MOL0     H45358   6.585   1.737   4.515  2.5697 -0.7947  2.3561
  336MOL0     H45359   6.477   1.688   4.652  0.5131 -1.0781  0.8294
  336MOL0     H45360   6.595   1.587   4.582  2.9439  1.8248 -1.7859
  337MOL0     O45361   6.050   9.721   6.073 -0.2534 -0.8517 -0.0679
  337MOL0     C45362   6.079   9.782   5.969  0.7152  0.2461 -0.3031
  337MOL0     O45363   6.192   9.771   5.894 -0.0803 -0.4729 -0.0922
  337MOL0     C45364   6.283   9.708   5.966  0.0015 -0.3267 -0.1529
  337MOL0     C45365   6.368   9.783   6.055  0.5389 -0.2379 -0.0396
  337MOL0     C45366   6.469   9.725   6.128 -0.6265  0.5658  0.7907
  337MOL0     C45367   6.495   9.588   6.102  0.3593 -0.1122  0.6836
  337MOL0     O45368   6.601   9.522   6.156 -0.0794  0.5901 -0.0319
  337MOL0     C45369   6.607   9.488   6.294  0.1644 -0.0912 -0.2662
  337MOL0     C45370   6.689   9.356   6.312  0.3405 -1.2500 -0.0803
  337MOL0     C45371   6.837   9.383   6.270 -0.2879 -0.2265 -0.3042
  337MOL0     C45372   6.928   9.261   6.322 -0.2179  0.0532 -0.0484
  337MOL0     C45373   7.059   9.262   6.250 -0.2701  0.0001  0.6082
  337MOL0     C45374   7.153   9.155   6.300  0.8257 -0.0007 -0.4498
  337MOL0     C45375   7.123   9.021   6.240 -0.9485  0.4746  0.9437
  337MOL0     C45376   7.202   8.902   6.295 -0.7920 -0.2585  0.3846
  337MOL0     N45377   7.345   8.909   6.278 -0.9013 -0.2888 -0.6202
  337MOL0     C45378   7.423   8.881   6.169 -0.0512  0.3882  0.0353
  337MOL0     C45379   7.550   8.912   6.208  0.1111  0.0477 -0.5319
  337MOL0     C45380   7.671   8.889   6.121 -0.1575  0.2648  0.5779
  337MOL0     C45381   7.784   8.816   6.192 -0.8125  0.3214 -0.3375
  337MOL0     C45382   7.753   8.682   6.254  0.2349 -0.3278  0.3158
  337MOL0     C45383   7.876   8.636   6.325  0.0887 -0.1415 -0.4687
  337MOL0     O45384   7.964   8.557   6.241 -0.3206  0.2517  0.4189
  337MOL0     C45385   8.095   8.554   6.269 -0.4829 -0.5317 -0.2099
  337MOL0     C45386   8.150   8.571   6.396  1.0639  0.1481  0.0592
  337MOL0     C45387   8.291   8.573   6.409  0.1632  0.4653 -0.1576
  337MOL0     C45388   8.373   8.541   6.295 -0.2004  0.3024 -0.9608
  337MOL0     C45389   8.512   8.534   6.307  0.0357  0.4483 -0.3407
  337MOL0     O45390   8.564   8.572   6.421  1.0532 -0.1926 -0.5479
  337MOL0     C45391   8.702   8.588   6.437 -0.0924 -0.5937 -0.1491
  337MOL0     C45392   8.782   8.482   6.461  0.0037 -0.0443 -0.0292
  337MOL0     C45393   8.920   8.499   6.482 -0.7838 -0.0384  0.4521
  337MOL0     C45394   8.980   8.622   6.469  1.0589 -0.7809  0.5313
  337MOL0     O45395   9.114   8.643   6.494  0.3705  0.0326 -0.7618
  337MOL0     C45396   9.210   8.576   6.422 -0.6290 -0.2549 -0.1233
  337MOL0     C45397   9.340   8.654   6.433 -0.4446  0.0678 -0.1743
  337MOL0     C45398   9.446   8.582   6.351 -0.4769  0.8422 -0.0424
  337MOL0     C45399   9.586   8.642   6.385  0.1122 -1.0052  0.1713
  337MOL0     C45400   9.688   8.564   6.306 -0.2469  0.4441 -0.5978
  337MOL0     C45401   9.833   8.620   6.339  0.3138 -0.0423 -0.2633
  337MOL0     C45402   9.921   8.536   6.244  0.1073  0.0904 -0.1072
  337MOL0     C45403  10.073   8.555   6.251  0.0125  0.1029 -0.4983
  337MOL0    Cl45404  10.112   8.722   6.318  0.2342 -0.2115  0.3979
  337MOL0     C45405   8.897   8.739   6.453  0.5458  0.2658 -0.4336
  337MOL0     C45406   8.755   8.716   6.444  0.6252  0.3797  0.2990
  337MOL0     O45407   8.571   8.490   6.207  0.1799  0.6699 -0.0674
  337MOL0     C45408   8.310   8.523   6.168 -0.1259  0.6705  0.6324
  337MOL0     C45409   8.177   8.542   6.153 -0.2286  0.1565 -0.0185
  337MOL0     N45410   7.544   8.960   6.342 -0.7106  0.2367 -0.0238
  337MOL0     N45411   7.424   8.951   6.375 -0.3723  0.0895 -0.4614
  337MOL0     C45412   6.414   9.513   6.015  0.6077  0.2369  1.0930
  337MOL0     C45413   6.307   9.575   5.949 -0.1719  0.3773  0.0322
  337MOL0     C45414   5.973   9.872   5.907  0.1906 -0.7525  0.2654
  337MOL0     C45415   6.009   9.936   5.785  0.6227 -0.6248  0.2172
  337MOL0     C45416   5.916  10.018   5.721 -0.4534  0.3079  0.4194
  337MOL0     C45417   5.794  10.044   5.775 -0.8594 -0.4003  0.7187
  337MOL0     O45418   5.714  10.121   5.701  0.2448 -0.4750  0.2830
  337MOL0     C45419   5.664  10.238   5.759  0.8361  0.0387 -0.2435
  337MOL0     C45420   5.615  10.322   5.639 -0.0768 -0.2394 -0.4822
  337MOL0     C45421   5.550  10.450   5.693  0.2311  0.4970 -0.0730
  337MOL0     C45422   5.398  10.449   5.653  0.3639 -0.3307 -0.4511
  337MOL0     C45423   5.381  10.458   5.515 -0.2322  0.3620  0.2316
  337MOL0     C45424   5.332  10.461   5.400 -0.6479  0.1493 -0.0468
  337MOL0     C45425   5.756   9.988   5.893  0.0219 -0.6095  0.9459
  337MOL0     C45426   5.839   9.899   5.963  0.3603 -0.9438  0.2920
  337MOL0     C45427   5.773   9.835   6.088 -0.3983  0.7352  1.2471
  337MOL0     H45428   6.363   9.890   6.068 -0.0702 -0.3798  1.0425
  337MOL0     H45429   6.527   9.782   6.199 -1.9921  2.6386  0.3294
  337MOL0     H45430   6.649   9.579   6.338  0.9792 -1.2341  1.4340
  337MOL0     H45431   6.508   9.473   6.339 -0.4042  1.8256 -0.7684
  337MOL0     H45432   6.640   9.272   6.263 -3.0172  0.5713 -0.1197
  337MOL0     H45433   6.709   9.333   6.417  1.5194  0.0183  0.0118
  337MOL0     H45434   6.869   9.481   6.306  0.1655  0.0191 -1.3400
  337MOL0     H45435   6.840   9.385   6.161  1.5641  1.1867 -0.2816
  337MOL0     H45436   6.938   9.270   6.431 -1.4244 -0.2129  0.0989
  337MOL0     H45437   6.880   9.167   6.293  0.7043  0.5130 -3.5742
  337MOL0     H45438   7.034   9.249   6.144  1.0768 -0.7980  0.3612
  337MOL0     H45439   7.102   9.362   6.258 -0.8500  0.3807 -0.6683
  337MOL0     H45440   7.256   9.174   6.269  0.3640 -0.5924 -2.5039
  337MOL0     H45441   7.155   9.154   6.410  2.7617 -0.2442 -0.4526
  337MOL0     H45442   7.134   9.020   6.131 -3.2637 -0.3020  0.6565
  337MOL0     H45443   7.014   9.013   6.242 -0.9013 -0.1663  1.1452
  337MOL0     H45444   7.181   8.896   6.402 -0.2840 -0.8117  0.4566
  337MOL0     H45445   7.157   8.809   6.257 -2.9400 -0.6122  3.4433
  337MOL0     H45446   7.383   8.835   6.079 -2.7422 -0.9858  1.7885
  337MOL0     H45447   7.659   8.823   6.035  2.0280 -3.8629  3.1172
  337MOL0     H45448   7.703   8.988   6.090 -0.5349  0.6510  1.3868
  337MOL0     H45449   7.860   8.797   6.116 -0.5594  1.5016 -0.3987
  337MOL0     H45450   7.833   8.881   6.266 -2.4059  1.7311 -0.4633
  337MOL0     H45451   7.729   8.610   6.175 -0.1415 -1.8175  1.7274
  337MOL0     H45452   7.667   8.697   6.318 -1.2533  1.3338 -1.9184
  337MOL0     H45453   7.851   8.580   6.416 -3.7550  2.1093  0.1255
  337MOL0     H45454   7.937   8.722   6.354  1.1030 -1.0768  0.2432
  337MOL0     H45455   8.082   8.600   6.476 -0.0978  0.0098 -0.8580
  337MOL0     H45456   8.337   8.597   6.504 -1.7946  1.5436  0.5962
  337MOL0     H45457   8.732   8.386   6.475 -0.2473  0.1998  0.8173
  337MOL0     H45458   8.976   8.411   6.513  1.7003  1.6686  1.0663
  337MOL0     H45459   9.235   8.473   6.451  1.5638  0.3346  0.3035
  337MOL0     H45460   9.187   8.561   6.316  0.3369 -0.2863 -0.3383
  337MOL0     H45461   9.329   8.756   6.395  1.6800  0.3102 -0.2579
  337MOL0     H45462   9.376   8.648   6.536  0.1621 -0.7991 -0.4328
  337MOL0     H45463   9.446   8.476   6.378  0.0156  0.9297  0.3157
  337MOL0     H45464   9.421   8.592   6.245  0.7205  4.1575 -0.1089
  337MOL0     H45465   9.603   8.645   6.494  1.1018  3.3536  0.0916
  337MOL0     H45466   9.596   8.746   6.352  2.2984 -1.4871 -0.9170
  337MOL0     H45467   9.666   8.581   6.201 -1.0243 -0.1707 -0.5422
  337MOL0     H45468   9.680   8.459   6.336  0.4806  0.4880 -0.2080
  337MOL0     H45469   9.835   8.726   6.311  2.2656 -0.2608 -1.1362
  337MOL0     H45470   9.850   8.619   6.447 -2.3712 -1.2803  0.2148
  337MOL0     H45471   9.882   8.542   6.142 -1.0283 -4.2910 -0.1197
  337MOL0     H45472   9.903   8.435   6.280  0.9067  1.0422  3.3750
  337MOL0     H45473  10.099   8.474   6.320  1.1883  0.2872 -0.7093
  337MOL0     H45474  10.129   8.533   6.160  0.8316  1.0698 -0.2554
  337MOL0     H45475   8.928   8.843   6.458  0.6891  0.1926  0.5508
  337MOL0     H45476   8.689   8.801   6.435  1.0320  0.7504  0.7604
  337MOL0     H45477   8.365   8.510   6.075 -0.0148  0.4690  0.7262
  337MOL0     H45478   8.121   8.543   6.059 -0.0972  0.0495 -0.0992
  337MOL0     H45479   6.434   9.406   6.012  4.2407  0.7181  2.9504
  337MOL0     H45480   6.248   9.516   5.880 -1.8678 -0.0421  1.7196
  337MOL0     H45481   6.107   9.940   5.739 -0.3033 -0.0004 -1.7840
  337MOL0     H45482   5.953  10.076   5.637  1.6558 -1.6018 -0.0942
  337MOL0     H45483   5.732  10.274   5.837 -0.5280 -2.3178  2.1918
  337MOL0     H45484   5.577  10.202   5.815  1.3740 -0.9167 -0.0105
  337MOL0     H45485   5.543  10.268   5.578 -1.8555  1.4415  0.0405
  337MOL0     H45486   5.695  10.347   5.568 -0.4521  0.1526 -0.7704
  337MOL0     H45487   5.611  10.534   5.658 -2.1374  2.0296 -0.7526
  337MOL0     H45488   5.555  10.461   5.802  1.9177 -0.9491  0.0361
  337MOL0     H45489   5.351  10.362   5.700  0.4541  0.3777  1.0014
  337MOL0     H45490   5.343  10.533   5.696  0.0137 -0.4514 -0.6586
  337MOL0     H45491   5.276  10.458   5.309  0.8004 -0.0013 -0.9716
  337MOL0     H45492   5.658  10.013   5.932  0.3803  0.3059  1.2979
  337MOL0     H45493   5.798   9.887   6.181  1.7363  1.6144  0.2369
  337MOL0     H45494   5.664   9.837   6.072 -0.0613  1.9908 -1.3068
  337MOL0     H45495   5.794   9.728   6.097 -0.8643  0.5201 -0.0107
  338MOL0     O45496  10.985   4.499   2.932 -0.7019  0.4626 -0.0571
  338MOL0     C45497  10.876   4.529   2.975  0.2126  0.1661 -0.0548
  338MOL0     O45498  10.852   4.606   3.083 -0.5834 -0.8291  0.6031
  338MOL0     C45499  10.960   4.663   3.153 -0.2046  0.0515 -0.1050
  338MOL0     C45500  11.082   4.598   3.173 -1.4523 -0.3422  0.1077
  338MOL0     C45501  11.179   4.671   3.243  0.3694 -0.6061  0.0845
  338MOL0     C45502  11.166   4.805   3.279  0.4092 -0.2032  0.7661
  338MOL0     O45503  11.258   4.890   3.331 -0.0999  0.3796 -0.2397
  338MOL0     C45504  11.396   4.848   3.320 -0.2523  0.1846  1.0466
  338MOL0     C45505  11.481   4.978   3.338  0.1698 -1.0573 -0.5931
  338MOL0     C45506  11.623   4.974   3.296  0.4036 -0.2966  0.3780
  338MOL0     C45507  11.695   5.096   3.360  0.2283 -0.4208 -0.5918
  338MOL0     C45508  11.838   5.109   3.304 -0.0367 -0.0955 -0.2932
  338MOL0     C45509  11.905   5.239   3.328 -0.3312  0.1459 -0.0376
  338MOL0     C45510  11.899   5.284   3.481 -0.0828 -0.7982 -0.0244
  338MOL0     C45511  11.995   5.404   3.496 -0.3497 -0.8760  0.3165
  338MOL0     N45512  12.130   5.360   3.513  0.5340  0.1984  0.3164
  338MOL0     C45513  12.190   5.300   3.620  0.1079 -1.0204 -0.0866
  338MOL0     C45514  12.317   5.284   3.597  0.1503 -0.1924  0.1054
  338MOL0     C45515  12.411   5.235   3.700 -0.4719  0.1280  0.3389
  338MOL0     C45516  12.429   5.085   3.693  0.4425 -0.1347 -0.7363
  338MOL0     C45517  12.481   5.037   3.831  0.0975 -0.3532  0.8954
  338MOL0     C45518  12.453   4.890   3.861  0.8963 -0.6095 -0.3591
  338MOL0     O45519  12.517   4.795   3.768 -0.0919 -0.3673 -0.1317
  338MOL0     C45520  12.651   4.770   3.769 -0.0377  0.1468  0.1567
  338MOL0     C45521  12.704   4.732   3.644 -0.1364 -0.2799 -0.5725
  338MOL0     C45522  12.843   4.680   3.642 -0.0845 -0.4057 -0.8813
  338MOL0     C45523  12.921   4.675   3.758 -0.9398  0.3209 -0.0566
  338MOL0     C45524  13.063   4.622   3.752  0.0217  0.0521  0.3668
  338MOL0     O45525  13.123   4.624   3.623 -0.0018  0.0808  0.3504
  338MOL0     C45526  13.247   4.567   3.621 -0.7548  0.1448 -0.8397
  338MOL0     C45527  13.260   4.426   3.589 -0.5498 -0.1914 -0.3844
  338MOL0     C45528  13.387   4.361   3.585  0.5065 -0.1110  0.3485
  338MOL0     C45529  13.508   4.442   3.595 -0.4130  0.2485 -0.6958
  338MOL0     O45530  13.630   4.372   3.593  0.0056  0.5393  0.3063
  338MOL0     C45531  13.725   4.433   3.678 -0.2236 -0.0394 -0.3544
  338MOL0     C45532  13.855   4.354   3.666  0.8139  0.4947 -0.6126
  338MOL0     C45533  13.984   4.430   3.728  0.9030  0.4783  0.3528
  338MOL0     C45534  14.103   4.337   3.728 -1.1467  0.8489  1.0378
  338MOL0     C45535  14.231   4.417   3.765  0.0589 -0.4991  0.3119
  338MOL0     C45536  14.350   4.323   3.772 -0.2586 -0.1595  0.3927
  338MOL0     C45537  14.478   4.409   3.784  0.3625 -0.4265  0.5892
  338MOL0     C45538  14.596   4.338   3.862 -0.3455  0.5140  0.0373
  338MOL0    Cl45539  14.646   4.188   3.783  0.0485  0.5006 -0.3575
  338MOL0     C45540  13.490   4.581   3.618  0.1314  0.0918 -0.1569
  338MOL0     C45541  13.368   4.634   3.640 -0.2573 -0.6183 -0.2613
  338MOL0     O45542  13.119   4.595   3.856  0.3415  0.3087  0.3240
  338MOL0     C45543  12.866   4.725   3.882  0.1695 -0.0099  1.0472
  338MOL0     C45544  12.732   4.781   3.875  0.0903 -0.1793 -0.3464
  338MOL0     N45545  12.349   5.336   3.476 -0.4106  0.6226 -0.0054
  338MOL0     N45546  12.234   5.374   3.424 -0.0271  0.3007  0.2526
  338MOL0     C45547  11.040   4.867   3.254 -0.0080  0.0514 -0.2434
  338MOL0     C45548  10.938   4.799   3.188 -0.3879  0.6021  0.1261
  338MOL0     C45549  10.761   4.490   2.893  0.7096  0.1891 -0.5802
  338MOL0     C45550  10.778   4.387   2.796 -0.8105  0.3864 -0.3314
  338MOL0     C45551  10.682   4.339   2.717 -0.2774 -0.0842  0.4446
  338MOL0     C45552  10.556   4.402   2.717  0.2247  0.4159 -0.3204
  338MOL0     O45553  10.456   4.344   2.638 -0.5116 -0.5207  0.6888
  338MOL0     C45554  10.325   4.409   2.640 -0.1950 -0.4682  0.1600
  338MOL0     C45555  10.231   4.322   2.568 -0.1903  0.2782  0.3001
  338MOL0     C45556  10.247   4.332   2.410  0.1357 -0.5871  0.0610
  338MOL0     C45557  10.166   4.445   2.351 -0.6236 -0.6844  0.2356
  338MOL0     C45558  10.026   4.402   2.341 -0.2842  0.7642  0.5361
  338MOL0     C45559   9.905   4.373   2.340  0.6153  0.6785  0.2850
  338MOL0     C45560  10.529   4.501   2.816  0.0311 -0.4560 -0.3608
  338MOL0     C45561  10.632   4.548   2.897  0.1115 -0.7694  0.4166
  338MOL0     C45562  10.594   4.643   3.007  0.1236 -0.8602 -0.4714
  338MOL0     H45563  11.093   4.492   3.154 -0.2506 -0.6568  2.2340
  338MOL0     H45564  11.273   4.624   3.272  0.6909 -0.3525 -0.5091
  338MOL0     H45565  11.414   4.776   3.400 -3.8868  0.1988  2.0765
  338MOL0     H45566  11.422   4.801   3.225  0.5722  1.6220  0.5293
  338MOL0     H45567  11.470   5.003   3.444 -0.4074  1.8194 -1.2487
  338MOL0     H45568  11.430   5.051   3.274  1.0228  0.6396  0.5649
  338MOL0     H45569  11.634   4.982   3.188 -0.0025 -1.6447  0.2225
  338MOL0     H45570  11.656   4.874   3.325 -3.6761 -1.8160  0.4693
  338MOL0     H45571  11.643   5.190   3.338  0.7208 -0.4788 -2.0777
  338MOL0     H45572  11.679   5.080   3.467 -0.6567 -3.3604 -1.0904
  338MOL0     H45573  11.896   5.029   3.352 -0.8089 -0.9942 -0.8205
  338MOL0     H45574  11.830   5.087   3.197 -0.9662 -0.1152 -0.2272
  338MOL0     H45575  12.010   5.236   3.296  0.2099 -2.7200  1.5903
  338MOL0     H45576  11.847   5.304   3.263 -4.0762 -3.4713 -0.7045
  338MOL0     H45577  11.931   5.213   3.558 -0.8579 -1.3197 -0.1646
  338MOL0     H45578  11.794   5.315   3.491 -0.2251 -0.4672 -2.1354
  338MOL0     H45579  12.008   5.465   3.406 -0.2203  1.7111  1.9980
  338MOL0     H45580  11.967   5.467   3.581 -0.2940  0.1420 -0.4081
  338MOL0     H45581  12.146   5.271   3.715  0.1004  0.2727  0.3170
  338MOL0     H45582  12.505   5.288   3.683 -1.0162  1.9800  2.5341
  338MOL0     H45583  12.373   5.263   3.799 -0.5778  0.3480  0.2374
  338MOL0     H45584  12.327   5.046   3.694  0.0380  0.5278  3.4516
  338MOL0     H45585  12.483   5.042   3.608  0.2061 -3.0761  0.4786
  338MOL0     H45586  12.419   5.085   3.907 -4.5060  0.0228 -2.6002
  338MOL0     H45587  12.582   5.074   3.849  0.9892 -1.4426 -1.4203
  338MOL0     H45588  12.345   4.875   3.867  0.5905  0.5307 -2.2500
  338MOL0     H45589  12.480   4.870   3.965 -2.0538  1.0078  0.8566
  338MOL0     H45590  12.646   4.709   3.555  1.0593 -3.8336 -0.5771
  338MOL0     H45591  12.891   4.645   3.551 -1.5292 -1.1323 -1.4029
  338MOL0     H45592  13.165   4.374   3.595  0.0353 -1.1128  2.7807
  338MOL0     H45593  13.388   4.255   3.562 -0.1914  0.0037 -0.2500
  338MOL0     H45594  13.734   4.537   3.646  1.2596 -0.0140  0.0557
  338MOL0     H45595  13.682   4.437   3.779  3.8320  0.3002  1.5661
  338MOL0     H45596  13.845   4.250   3.699  2.4594  0.2927 -0.6288
  338MOL0     H45597  13.881   4.330   3.562 -0.1438  0.0300 -0.7574
  338MOL0     H45598  13.993   4.529   3.682 -0.3491  0.6839  0.5321
  338MOL0     H45599  13.977   4.455   3.834 -1.1090 -1.8301  0.8607
  338MOL0     H45600  14.113   4.295   3.627  2.8529  1.5678  0.9885
  338MOL0     H45601  14.091   4.248   3.790  3.7392 -4.0975 -3.9457
  338MOL0     H45602  14.217   4.481   3.853  1.0789  0.4590 -0.1953
  338MOL0     H45603  14.250   4.495   3.691  0.2943  0.6216  1.5096
  338MOL0     H45604  14.340   4.267   3.866  0.2336  0.0207  0.5572
  338MOL0     H45605  14.354   4.248   3.692  0.4029 -2.0592  2.1090
  338MOL0     H45606  14.449   4.503   3.831 -1.6469 -1.6614  1.9953
  338MOL0     H45607  14.523   4.437   3.688  1.1180 -0.2404  0.9941
  338MOL0     H45608  14.680   4.406   3.872 -0.6231  0.8699 -0.0261
  338MOL0     H45609  14.578   4.315   3.967  4.6516  1.6003  1.3771
  338MOL0     H45610  13.570   4.654   3.617  3.3951 -3.1841 -1.7234
  338MOL0     H45611  13.373   4.740   3.664  3.3315 -1.1150  1.9418
  338MOL0     H45612  12.927   4.725   3.972 -0.3003  1.7280  1.3960
  338MOL0     H45613  12.682   4.813   3.966 -0.0705 -0.4819 -0.3269
  338MOL0     H45614  11.013   4.972   3.265 -1.9010 -0.2378 -1.5565
  338MOL0     H45615  10.852   4.854   3.152  0.4928  1.6533 -0.4564
  338MOL0     H45616  10.875   4.337   2.790 -1.9738 -1.9659 -0.7183
  338MOL0     H45617  10.684   4.247   2.659  1.2714  0.4372 -0.3665
  338MOL0     H45618  10.332   4.514   2.611  3.2719 -0.6246 -0.0279
  338MOL0     H45619  10.290   4.419   2.743  0.4940 -4.2652  0.9039
  338MOL0     H45620  10.127   4.355   2.584 -0.6053 -0.4063 -0.8726
  338MOL0     H45621  10.229   4.218   2.602 -1.2021  0.3437  0.4842
  338MOL0     H45622  10.212   4.237   2.370  1.3339 -0.7903 -0.5406
  338MOL0     H45623  10.353   4.345   2.385  0.7467 -0.2402  2.5623
  338MOL0     H45624  10.171   4.538   2.407  0.6102 -0.9510  0.5874
  338MOL0     H45625  10.213   4.473   2.256  1.4080 -3.0558  0.4455
  338MOL0     H45626   9.798   4.368   2.345  0.6949 -3.3414  3.9719
  338MOL0     H45627  10.431   4.545   2.830 -0.2294 -0.7351 -1.2413
  338MOL0     H45628  10.666   4.725   3.016  1.4377 -1.9013 -1.2750
  338MOL0     H45629  10.498   4.695   2.997  0.4651 -0.3815 -1.4129
  338MOL0     H45630  10.585   4.587   3.100 -4.2873  0.2361 -0.0184
  339MOL0     O45631   3.275   5.613   3.317 -0.4138 -0.1836  0.1731
  339MOL0     C45632   3.243   5.598   3.196 -0.1259  0.0633 -0.0028
  339MOL0     O45633   3.330   5.594   3.087 -0.3125 -0.0446 -0.4236
  339MOL0     C45634   3.462   5.628   3.130 -0.1167  0.8176  0.2664
  339MOL0     C45635   3.523   5.732   3.074  0.6233  0.5078 -0.6484
  339MOL0     C45636   3.652   5.769   3.104  0.0143 -0.3950  0.2906
  339MOL0     C45637   3.724   5.688   3.188  0.1274  0.6960 -0.2238
  339MOL0     O45638   3.847   5.734   3.214  0.1282  0.2590  0.5944
  339MOL0     C45639   3.955   5.683   3.137  0.1165 -0.2685 -0.7430
  339MOL0     C45640   4.063   5.637   3.227 -0.3413  0.0121 -0.2521
  339MOL0     C45641   4.180   5.579   3.152 -1.4083  0.2397  1.3327
  339MOL0     C45642   4.258   5.691   3.069  0.2979  0.5023  0.1374
  339MOL0     C45643   4.374   5.605   3.002  0.3176  0.1031 -0.0314
  339MOL0     C45644   4.449   5.695   2.888  0.0642 -0.4117  0.0593
  339MOL0     C45645   4.509   5.827   2.947 -0.1730 -0.0069  0.2430
  339MOL0     C45646   4.597   5.815   3.061 -0.3354  0.5714 -0.5860
  339MOL0     N45647   4.727   5.751   3.032 -0.0796  0.0596  0.6983
  339MOL0     C45648   4.757   5.621   3.053 -0.1621  0.0246  0.8678
  339MOL0     C45649   4.892   5.622   3.040 -0.5480  0.5003  0.7735
  339MOL0     C45650   4.956   5.486   3.027  0.2106  0.6501  0.5137
  339MOL0     C45651   5.090   5.499   2.962  0.1440  0.1317 -0.0960
  339MOL0     C45652   5.142   5.359   2.919 -0.0008  0.6304  0.3618
  339MOL0     C45653   5.297   5.364   2.891  0.0584  0.8462  0.1801
  339MOL0     O45654   5.369   5.376   3.015  0.0656  0.0866 -0.3335
  339MOL0     C45655   5.509   5.402   2.997  0.3977 -0.6505 -0.2952
  339MOL0     C45656   5.577   5.437   2.881 -0.2920 -0.0553  1.2606
  339MOL0     C45657   5.708   5.478   2.893 -0.6907 -0.5877 -0.3512
  339MOL0     C45658   5.782   5.462   3.012 -0.8064  0.2249 -0.6060
  339MOL0     C45659   5.927   5.486   3.016  0.3607  0.2212 -0.0428
  339MOL0     O45660   5.985   5.492   2.892 -0.2199  0.2856 -0.0278
  339MOL0     C45661   6.124   5.487   2.877 -0.0335  0.8685 -0.1513
  339MOL0     C45662   6.173   5.416   2.774  0.4503 -0.3907  0.0257
  339MOL0     C45663   6.311   5.412   2.741  0.7231  0.1323 -0.3787
  339MOL0     C45664   6.401   5.490   2.814  0.2142 -0.0933  0.1103
  339MOL0     O45665   6.540   5.494   2.794 -0.4076  0.3760  0.5405
  339MOL0     C45666   6.595   5.423   2.675 -0.4931  0.1390 -0.1782
  339MOL0     C45667   6.740   5.493   2.642 -0.4038 -0.4760 -0.2443
  339MOL0     C45668   6.834   5.463   2.757 -0.8031  0.6595  0.7122
  339MOL0     C45669   6.979   5.461   2.709 -0.1040 -0.6044  0.0213
  339MOL0     C45670   7.014   5.609   2.681 -0.6254 -0.4627  0.3314
  339MOL0     C45671   7.172   5.607   2.662  0.8795 -0.0758 -0.3945
  339MOL0     C45672   7.223   5.739   2.717  0.6851 -0.9261  0.3950
  339MOL0     C45673   7.374   5.707   2.714  0.3038 -0.3119  0.6014
  339MOL0    Cl45674   7.473   5.862   2.758  0.5728 -0.3025 -0.2799
  339MOL0     C45675   6.354   5.557   2.919  0.4125 -0.7758  0.9384
  339MOL0     C45676   6.216   5.561   2.945 -0.1441 -0.4743 -0.1511
  339MOL0     O45677   5.989   5.474   3.119  0.1467 -0.3356 -0.2428
  339MOL0     C45678   5.715   5.424   3.128  0.2752  0.1517  0.9341
  339MOL0     C45679   5.579   5.400   3.117  0.3106 -0.0873  0.0476
  339MOL0     N45680   4.949   5.747   3.021  0.4764 -0.5241 -0.3106
  339MOL0     N45681   4.839   5.827   3.032 -0.2944  0.5061 -0.2256
  339MOL0     C45682   3.667   5.572   3.243 -0.9788 -0.7995  0.2815
  339MOL0     C45683   3.538   5.537   3.212 -0.4449 -1.3395 -0.0409
  339MOL0     C45684   3.099   5.588   3.183  0.0798  0.0439  0.7659
  339MOL0     C45685   3.012   5.532   3.287  0.3126 -0.5139  0.4566
  339MOL0     C45686   2.874   5.536   3.277 -0.2115  0.2953  0.4123
  339MOL0     C45687   2.811   5.598   3.165 -0.4873  0.0547 -0.2035
  339MOL0     O45688   2.680   5.605   3.128  0.6209 -0.0586 -0.2152
  339MOL0     C45689   2.590   5.616   3.240 -0.4147  0.0881 -0.5440
  339MOL0     C45690   2.541   5.467   3.285 -0.0591 -0.2710  0.4404
  339MOL0     C45691   2.495   5.369   3.176  0.1265 -0.2307  1.1137
  339MOL0     C45692   2.374   5.434   3.103 -0.6925 -0.1667 -0.4583
  339MOL0     C45693   2.318   5.356   2.990 -0.7098  0.1958  1.3384
  339MOL0     C45694   2.275   5.289   2.898 -0.1155  0.1484 -0.1502
  339MOL0     C45695   2.891   5.629   3.060 -0.7227  0.0595 -0.3419
  339MOL0     C45696   3.033   5.623   3.064 -0.1768 -0.5864  0.1706
  339MOL0     C45697   3.100   5.674   2.938 -0.1225  0.9442  0.3644
  339MOL0     H45698   3.462   5.789   3.005  2.6302  4.1048  0.2339
  339MOL0     H45699   3.689   5.863   3.066 -2.4485  1.7530  2.7414
  339MOL0     H45700   3.927   5.615   3.055 -1.3418 -0.4222 -0.1470
  339MOL0     H45701   3.997   5.773   3.091 -0.5200  0.9590  0.9601
  339MOL0     H45702   4.031   5.564   3.302  1.4516  0.0806  0.6379
  339MOL0     H45703   4.087   5.725   3.286 -2.0259 -0.9489  2.0228
  339MOL0     H45704   4.140   5.503   3.086  1.9448 -0.2939 -0.2624
  339MOL0     H45705   4.251   5.534   3.222 -1.2917 -1.0084  0.4323
  339MOL0     H45706   4.198   5.745   2.995 -0.7634 -0.2392  0.4387
  339MOL0     H45707   4.311   5.757   3.139 -0.2970 -0.8311  1.9061
  339MOL0     H45708   4.450   5.561   3.067  2.3775  0.5817 -1.9973
  339MOL0     H45709   4.328   5.520   2.952 -3.2054  2.0025 -0.4006
  339MOL0     H45710   4.534   5.645   2.842  1.0464  1.5050 -0.3162
  339MOL0     H45711   4.382   5.715   2.804  0.4002 -1.3580 -0.4483
  339MOL0     H45712   4.429   5.899   2.970  1.7051  1.7769  1.5291
  339MOL0     H45713   4.574   5.881   2.878  0.8070 -0.5277  0.7420
  339MOL0     H45714   4.618   5.913   3.106  4.6997 -0.6659  0.2756
  339MOL0     H45715   4.548   5.752   3.136  0.3797 -1.9992 -2.1718
  339MOL0     H45716   4.685   5.541   3.066  0.1261 -0.7196 -1.6867
  339MOL0     H45717   4.970   5.446   3.128  1.6582 -0.9840 -0.2920
  339MOL0     H45718   4.894   5.419   2.967  1.3366  0.7416 -0.7956
  339MOL0     H45719   5.085   5.565   2.875  0.8385 -1.0979 -1.1014
  339MOL0     H45720   5.166   5.546   3.025  0.2857  0.3294 -0.4086
  339MOL0     H45721   5.080   5.319   2.838 -1.6221  0.0943  1.8290
  339MOL0     H45722   5.111   5.285   2.993 -0.1957 -2.3091 -2.4500
  339MOL0     H45723   5.310   5.451   2.826 -0.2413  0.0926 -0.9212
  339MOL0     H45724   5.330   5.276   2.836 -1.8316  0.1830  0.0285
  339MOL0     H45725   5.538   5.446   2.780  1.6710 -0.0503  0.4562
  339MOL0     H45726   5.759   5.516   2.805  2.6886 -0.6959  1.3997
  339MOL0     H45727   6.106   5.347   2.724  1.2214 -2.5050  1.7731
  339MOL0     H45728   6.355   5.345   2.667  0.0478 -0.3361 -0.3589
  339MOL0     H45729   6.607   5.315   2.685 -0.9505  0.2109  1.4045
  339MOL0     H45730   6.527   5.427   2.590 -1.2225 -0.2510  0.3696
  339MOL0     H45731   6.779   5.457   2.546 -0.4392  0.8383 -0.7649
  339MOL0     H45732   6.733   5.602   2.637  0.6164 -0.4229 -0.9560
  339MOL0     H45733   6.822   5.540   2.834  1.5624  1.5984  0.2220
  339MOL0     H45734   6.805   5.365   2.797 -0.7250  0.2604 -0.1821
  339MOL0     H45735   6.985   5.400   2.619 -4.9796  0.2749 -1.1675
  339MOL0     H45736   7.036   5.430   2.797  1.6162  1.1380 -0.4055
  339MOL0     H45737   6.983   5.673   2.764  0.4765  1.8636 -0.9556
  339MOL0     H45738   6.968   5.654   2.592 -0.5801 -2.2872 -0.6573
  339MOL0     H45739   7.210   5.518   2.714 -0.9986  0.2809  1.7595
  339MOL0     H45740   7.192   5.597   2.555  1.6936 -0.0025 -0.2531
  339MOL0     H45741   7.193   5.755   2.821 -2.8937  0.5698 -0.7405
  339MOL0     H45742   7.203   5.821   2.648 -2.1633 -1.7532  0.1379
  339MOL0     H45743   7.401   5.628   2.784 -1.2236  0.2648  1.8969
  339MOL0     H45744   7.390   5.681   2.609 -1.0184  0.5066  0.1718
  339MOL0     H45745   6.419   5.630   2.966  0.0821 -0.6182  1.1541
  339MOL0     H45746   6.177   5.634   3.015  2.5679  0.9278  0.0390
  339MOL0     H45747   5.766   5.411   3.223  0.1301 -1.2269  0.8352
  339MOL0     H45748   5.520   5.370   3.203  0.2572 -2.4098 -0.7198
  339MOL0     H45749   3.720   5.508   3.312 -0.1337 -1.6347 -1.1092
  339MOL0     H45750   3.492   5.453   3.264 -1.0267 -0.7406  0.4321
  339MOL0     H45751   3.061   5.494   3.376 -0.0785  1.6610  1.6684
  339MOL0     H45752   2.824   5.472   3.348  0.1363 -0.2614  0.1587
  339MOL0     H45753   2.496   5.663   3.209 -1.1422 -1.4572 -0.7973
  339MOL0     H45754   2.630   5.668   3.328  0.1039 -2.5700  0.9020
  339MOL0     H45755   2.465   5.481   3.363  0.6676 -0.6327  1.2346
  339MOL0     H45756   2.618   5.420   3.347  0.4879 -0.8321 -0.6430
  339MOL0     H45757   2.461   5.281   3.232 -0.3611 -1.3063 -0.7754
  339MOL0     H45758   2.568   5.324   3.108 -1.0311 -0.5774  0.0571
  339MOL0     H45759   2.292   5.442   3.175 -1.0075  0.9052 -0.9142
  339MOL0     H45760   2.386   5.537   3.068 -1.1859  0.3177  0.7381
  339MOL0     H45761   2.229   5.220   2.830  1.1840 -0.4977 -0.4145
  339MOL0     H45762   2.842   5.668   2.972 -1.8731  1.4270  0.8675
  339MOL0     H45763   3.033   5.707   2.857 -0.6259  2.0103  1.1907
  339MOL0     H45764   3.167   5.759   2.951  1.1310  0.2106 -1.0052
  339MOL0     H45765   3.167   5.595   2.904  1.7013  2.6273 -0.1020
  340MOL0     O45766  10.409   0.832   1.394 -0.0128 -0.0317 -0.1865
  340MOL0     C45767  10.489   0.860   1.308 -0.0997 -0.1100  0.9220
  340MOL0     O45768  10.487   0.959   1.225  0.3769 -0.3365  0.2692
  340MOL0     C45769  10.377   1.040   1.231 -0.6613 -0.0078 -0.5470
  340MOL0     C45770  10.383   1.168   1.292  0.1505 -0.6266  0.5821
  340MOL0     C45771  10.276   1.254   1.281  0.8999  0.5333 -0.6605
  340MOL0     C45772  10.163   1.222   1.208 -0.6642  0.0457  1.1350
  340MOL0     O45773  10.057   1.308   1.226 -0.0265  0.5421  0.2206
  340MOL0     C45774   9.927   1.259   1.212  0.5813  0.7277  0.3289
  340MOL0     C45775   9.838   1.373   1.252  0.2459  0.7514  0.1805
  340MOL0     C45776   9.699   1.373   1.203  0.0432 -1.1450 -1.1402
  340MOL0     C45777   9.606   1.482   1.257 -0.0412  0.2757  0.4730
  340MOL0     C45778   9.459   1.468   1.214 -0.1647  0.1524 -0.4475
  340MOL0     C45779   9.358   1.577   1.271  0.8479 -0.1718 -0.3704
  340MOL0     C45780   9.272   1.620   1.153  0.1235  0.0420  0.9277
  340MOL0     C45781   9.164   1.523   1.104 -0.1205  0.5392  0.3798
  340MOL0     N45782   9.036   1.555   1.170  0.0029 -0.0869 -0.5097
  340MOL0     C45783   8.918   1.573   1.109 -0.1340  0.4154  0.5462
  340MOL0     C45784   8.824   1.564   1.206  0.2726 -1.1303 -1.0584
  340MOL0     C45785   8.672   1.591   1.194  0.3076 -0.2658 -0.3617
  340MOL0     C45786   8.620   1.700   1.285 -0.6373  0.8359  0.8452
  340MOL0     C45787   8.696   1.830   1.268 -0.5574  0.2347  0.2370
  340MOL0     C45788   8.689   1.921   1.392 -0.0733 -0.8182 -0.2790
  340MOL0     O45789   8.780   2.033   1.388 -0.1919 -0.2820 -0.0416
  340MOL0     C45790   8.917   2.022   1.388 -0.1860 -0.8959  0.1913
  340MOL0     C45791   9.015   2.120   1.347  0.4247  0.0417 -0.2339
  340MOL0     C45792   9.148   2.102   1.353 -0.0603 -0.4073 -0.0355
  340MOL0     C45793   9.199   1.987   1.404  0.6401 -0.0691 -0.9739
  340MOL0     C45794   9.353   1.958   1.417 -0.2018 -0.1300 -0.3363
  340MOL0     O45795   9.437   2.032   1.352 -0.5834  0.3022  0.1260
  340MOL0     C45796   9.572   2.010   1.356 -0.8821 -0.1713 -0.9500
  340MOL0     C45797   9.656   2.109   1.406  0.8692 -0.6017  0.2927
  340MOL0     C45798   9.790   2.093   1.415  0.4357  0.4094 -0.3258
  340MOL0     C45799   9.849   1.978   1.367  0.4609  0.0995  0.0853
  340MOL0     O45800   9.988   1.953   1.366  0.6774  0.7888  0.2016
  340MOL0     C45801  10.064   2.076   1.385  0.0530  0.2311  0.2040
  340MOL0     C45802  10.211   2.038   1.383 -0.6864  0.6424  0.5655
  340MOL0     C45803  10.282   2.170   1.363 -0.3853  0.5462  0.0908
  340MOL0     C45804  10.431   2.154   1.397 -0.5569  0.0110 -0.3036
  340MOL0     C45805  10.519   2.117   1.270 -0.4302  0.4796 -0.2229
  340MOL0     C45806  10.669   2.093   1.311  0.7762 -0.0987 -0.3713
  340MOL0     C45807  10.751   2.041   1.190  0.2300 -0.8149  0.1855
  340MOL0     C45808  10.807   2.153   1.095  1.1968  0.6812 -0.5906
  340MOL0    Cl45809  10.950   2.211   1.185  0.1557  0.1858  0.1808
  340MOL0     C45810   9.772   1.881   1.318 -0.8021 -0.1298  0.3962
  340MOL0     C45811   9.629   1.884   1.320 -0.3044 -0.8842  0.3684
  340MOL0     O45812   9.385   1.867   1.490  0.4532 -0.4603 -0.1602
  340MOL0     C45813   9.106   1.886   1.445  1.2254 -0.2220  1.8987
  340MOL0     C45814   8.967   1.906   1.442  0.4856 -0.4659  0.2700
  340MOL0     N45815   8.889   1.545   1.323  0.2511 -0.0171 -0.1487
  340MOL0     N45816   9.018   1.544   1.304  0.0607  0.5851  0.4961
  340MOL0     C45817  10.156   1.097   1.142 -0.2066 -0.2675  0.3977
  340MOL0     C45818  10.265   1.004   1.150  0.1129 -0.1690 -0.2367
  340MOL0     C45819  10.619   0.785   1.319 -0.5134  0.1175 -0.2655
  340MOL0     C45820  10.672   0.752   1.448 -0.1823  1.1502  0.6979
  340MOL0     C45821  10.806   0.716   1.473  0.2965 -0.0860  0.4469
  340MOL0     C45822  10.896   0.706   1.367 -0.1879  0.1760  0.1256
  340MOL0     O45823  11.039   0.683   1.369  0.9061 -0.0539 -0.1316
  340MOL0     C45824  11.100   0.632   1.484 -0.3501 -0.2216 -0.6360
  340MOL0     C45825  11.206   0.735   1.539 -0.3409 -0.3910  0.6828
  340MOL0     C45826  11.316   0.755   1.441  0.0066 -0.5917  0.1867
  340MOL0     C45827  11.437   0.826   1.495  0.0218 -0.0419 -0.3957
  340MOL0     C45828  11.427   0.967   1.480  0.4378 -0.8291  0.2891
  340MOL0     C45829  11.421   1.087   1.466  0.1268  0.0906  0.3244
  340MOL0     C45830  10.845   0.723   1.241 -0.1824  0.2738 -1.0804
  340MOL0     C45831  10.710   0.760   1.215  1.1250 -0.2731  0.4401
  340MOL0     C45832  10.657   0.764   1.076  0.3364 -0.5312  0.9204
  340MOL0     H45833  10.465   1.202   1.355 -1.6919  0.8336  2.3094
  340MOL0     H45834  10.270   1.352   1.326 -1.0492  0.6238 -1.0275
  340MOL0     H45835   9.908   1.241   1.106  2.9684 -0.6061  0.0401
  340MOL0     H45836   9.899   1.170   1.270  0.8442  1.7046  2.0333
  340MOL0     H45837   9.885   1.466   1.217  2.2051 -0.4655 -0.6178
  340MOL0     H45838   9.843   1.371   1.361 -0.7110 -2.1059  0.2459
  340MOL0     H45839   9.664   1.270   1.218 -3.1313  0.1020  1.0559
  340MOL0     H45840   9.699   1.389   1.094  0.6842 -0.5701 -1.0641
  340MOL0     H45841   9.607   1.494   1.366  0.9024 -1.0057  0.6300
  340MOL0     H45842   9.632   1.579   1.214 -2.4835  0.1643 -1.4553
  340MOL0     H45843   9.444   1.458   1.106 -1.3194  2.3272 -0.5451
  340MOL0     H45844   9.431   1.377   1.268  0.8607  0.6006  0.8994
  340MOL0     H45845   9.294   1.544   1.353  1.9103  0.1501  0.6210
  340MOL0     H45846   9.404   1.663   1.321  0.7390 -1.1295  1.4704
  340MOL0     H45847   9.336   1.634   1.066  0.8502  1.0654  1.6013
  340MOL0     H45848   9.232   1.720   1.174 -1.0408 -0.0773 -0.5159
  340MOL0     H45849   9.145   1.520   0.996 -0.3291  1.6541  0.3675
  340MOL0     H45850   9.197   1.422   1.128  0.8014  1.1383  1.7876
  340MOL0     H45851   8.908   1.596   1.003  0.5389  4.4068  1.1956
  340MOL0     H45852   8.655   1.606   1.087  1.2198  1.3212 -0.3160
  340MOL0     H45853   8.628   1.494   1.217 -1.0870 -0.3912 -3.1445
  340MOL0     H45854   8.513   1.703   1.263 -0.1088  3.1254 -2.1129
  340MOL0     H45855   8.632   1.663   1.387 -2.3057 -0.2882  0.6713
  340MOL0     H45856   8.665   1.889   1.181 -2.4155 -2.0115 -0.7208
  340MOL0     H45857   8.801   1.800   1.256 -0.0579  2.4208 -1.4961
  340MOL0     H45858   8.690   1.879   1.492 -0.8660 -3.0779 -1.1569
  340MOL0     H45859   8.591   1.969   1.390  0.4727  0.3406 -1.7530
  340MOL0     H45860   8.972   2.217   1.322  0.7725 -0.5107 -3.4469
  340MOL0     H45861   9.226   2.171   1.322 -1.9409  1.5035 -0.7670
  340MOL0     H45862   9.605   2.201   1.433  2.1484 -0.3267  1.9307
  340MOL0     H45863   9.847   2.182   1.441 -1.3942  1.3650  0.5899
  340MOL0     H45864  10.053   2.133   1.292 -0.7286  1.9291  1.2993
  340MOL0     H45865  10.043   2.138   1.473  0.8365  1.5012 -0.4659
  340MOL0     H45866  10.247   1.989   1.474  0.0860  1.6204  0.8050
  340MOL0     H45867  10.223   1.974   1.296 -0.8847 -0.5501  1.3946
  340MOL0     H45868  10.275   2.201   1.259 -0.4078  1.4710  0.3556
  340MOL0     H45869  10.235   2.245   1.428  0.4912  1.1526  0.0322
  340MOL0     H45870  10.455   2.088   1.481  1.2121  1.4355  0.3951
  340MOL0     H45871  10.468   2.252   1.430  0.5727 -0.0992 -1.1819
  340MOL0     H45872  10.521   2.201   1.200 -2.8466  2.7182  2.1553
  340MOL0     H45873  10.467   2.027   1.238 -0.5936 -1.3221  4.3055
  340MOL0     H45874  10.698   2.188   1.358 -2.6456  1.0803 -0.3102
  340MOL0     H45875  10.670   2.013   1.386 -2.1661  0.1399  0.0672
  340MOL0     H45876  10.679   1.978   1.137 -0.9753  1.4566 -1.0234
  340MOL0     H45877  10.834   1.986   1.235  0.5996  0.0435  0.5854
  340MOL0     H45878  10.818   2.097   1.001  0.2457 -1.5108  0.5299
  340MOL0     H45879  10.738   2.238   1.088  1.0192  1.0832  3.5668
  340MOL0     H45880   9.811   1.793   1.268 -2.5844  1.3639 -4.1754
  340MOL0     H45881   9.571   1.807   1.271 -1.4569  0.2806 -0.1506
  340MOL0     H45882   9.147   1.788   1.469 -0.5393 -0.7817  2.7810
  340MOL0     H45883   8.898   1.830   1.475 -2.2562  1.5426 -0.5153
  340MOL0     H45884  10.076   1.063   1.077 -1.3747  1.2197  1.0205
  340MOL0     H45885  10.256   0.911   1.094 -2.7290  0.4397 -0.9852
  340MOL0     H45886  10.613   0.783   1.534 -0.4724  1.3484  0.4323
  340MOL0     H45887  10.842   0.719   1.575 -0.4074 -2.0048  0.7909
  340MOL0     H45888  11.150   0.542   1.447  0.8753  1.9837 -5.0471
  340MOL0     H45889  11.030   0.604   1.563 -0.7229 -0.3744 -1.0180
  340MOL0     H45890  11.247   0.705   1.635  2.7379 -0.2801 -0.5018
  340MOL0     H45891  11.151   0.830   1.547  0.8821  0.2921  1.1433
  340MOL0     H45892  11.267   0.804   1.356  1.2205 -0.5359 -0.5035
  340MOL0     H45893  11.341   0.654   1.408 -0.0105 -1.3476  2.3034
  340MOL0     H45894  11.444   0.804   1.601  0.8984 -0.0363 -0.4464
  340MOL0     H45895  11.529   0.787   1.449  0.6509  1.2693 -0.3009
  340MOL0     H45896  11.419   1.194   1.462  2.7324  0.2265  0.9708
  340MOL0     H45897  10.906   0.718   1.152 -0.7197 -0.1772 -1.4251
  340MOL0     H45898  10.665   0.865   1.034  0.4431 -1.0825 -0.4203
  340MOL0     H45899  10.706   0.701   1.002 -1.1196 -0.6530  0.0321
  340MOL0     H45900  10.555   0.727   1.067  1.0401 -1.9625 -3.7679
  341MOL0     O45901   8.058   8.744   9.548 -0.0599 -0.2440  0.3298
  341MOL0     C45902   8.012   8.857   9.534 -0.7259 -0.0119  0.0242
  341MOL0     O45903   8.067   8.953   9.464 -0.3904 -0.1234 -0.5016
  341MOL0     C45904   8.171   8.925   9.374  0.4305 -0.0511 -0.3206
  341MOL0     C45905   8.302   8.982   9.399 -0.2810 -0.9066  0.5453
  341MOL0     C45906   8.413   8.947   9.317  0.6712  0.7855  0.0519
  341MOL0     C45907   8.394   8.863   9.207  0.5995  0.0773  0.6551
  341MOL0     O45908   8.501   8.842   9.121 -0.1968 -0.5397  0.1431
  341MOL0     C45909   8.558   8.717   9.134  0.4493  0.5814  0.6979
  341MOL0     C45910   8.706   8.741   9.157 -0.0820  0.1802  1.0862
  341MOL0     C45911   8.787   8.777   9.036 -0.2723 -0.1347 -0.2662
  341MOL0     C45912   8.939   8.760   9.066  0.1679 -0.7409  0.3742
  341MOL0     C45913   9.019   8.784   8.936 -0.3953 -0.5037  0.7774
  341MOL0     C45914   9.174   8.800   8.950  0.6032 -0.1814  0.3789
  341MOL0     C45915   9.241   8.662   8.964  1.0233  0.0705  0.1781
  341MOL0     C45916   9.387   8.678   9.001 -0.6078  0.5275  0.6876
  341MOL0     N45917   9.448   8.739   8.887  0.3775 -0.2072  1.0555
  341MOL0     C45918   9.520   8.671   8.792 -0.0035 -0.6539  0.3109
  341MOL0     C45919   9.602   8.765   8.741  0.3185  0.3819 -0.4586
  341MOL0     C45920   9.713   8.749   8.635  1.0293 -0.7068 -0.3693
  341MOL0     C45921   9.838   8.829   8.677  0.1534 -0.9017 -0.3443
  341MOL0     C45922   9.943   8.798   8.570 -0.1406 -0.1424 -0.2060
  341MOL0     C45923  10.068   8.881   8.606  0.4055  0.1215 -0.4291
  341MOL0     O45924  10.168   8.832   8.517 -0.7179  0.7374 -0.0465
  341MOL0     C45925  10.293   8.880   8.540 -0.2196  0.0073 -0.6282
  341MOL0     C45926  10.397   8.835   8.454 -0.0564  0.9551 -0.4133
  341MOL0     C45927  10.526   8.886   8.461 -0.0312 -0.7509  0.8352
  341MOL0     C45928  10.570   8.974   8.571  0.5422  0.0969  0.8337
  341MOL0     C45929  10.716   8.998   8.583  0.7330  0.2681  0.5502
  341MOL0     O45930  10.788   8.975   8.476 -0.4433  0.0961 -0.0073
  341MOL0     C45931  10.923   8.986   8.487  0.2082  0.1649  0.0764
  341MOL0     C45932  11.000   8.941   8.592  0.4745  1.0368 -0.3749
  341MOL0     C45933  11.142   8.958   8.595  0.5930  0.3115  0.1002
  341MOL0     C45934  11.199   9.020   8.481 -0.4793 -0.3960  0.3147
  341MOL0     O45935  11.330   9.040   8.474 -0.1493  0.5317  0.1490
  341MOL0     C45936  11.412   8.977   8.566 -0.3970 -0.2741  0.0341
  341MOL0     C45937  11.554   9.015   8.535 -0.0903  0.9022  0.3247
  341MOL0     C45938  11.645   8.943   8.637 -0.1747 -0.4552 -0.2186
  341MOL0     C45939  11.786   8.976   8.599 -0.3975  0.4323 -0.9669
  341MOL0     C45940  11.887   8.895   8.690 -1.2557  0.3275  0.4708
  341MOL0     C45941  12.032   8.894   8.630  0.0378  0.1025 -0.7257
  341MOL0     C45942  12.125   8.787   8.702  0.3136 -0.5025  0.2688
  341MOL0     C45943  12.258   8.793   8.628  0.0529 -0.2107 -0.2034
  341MOL0    Cl45944  12.388   8.713   8.724 -0.1372  0.1815 -0.5279
  341MOL0     C45945  11.123   9.054   8.378 -1.0904 -0.8638  0.8567
  341MOL0     C45946  10.985   9.049   8.379  0.7718  0.5607 -1.0433
  341MOL0     O45947  10.755   9.037   8.692  0.7367  0.9994  0.2845
  341MOL0     C45948  10.471   9.015   8.667  0.2612  0.3423 -0.0786
  341MOL0     C45949  10.333   8.969   8.651 -1.4226 -0.2043  0.0905
  341MOL0     N45950   9.574   8.886   8.799 -0.6329  0.2934  0.6722
  341MOL0     N45951   9.476   8.870   8.877  0.0523 -0.3789 -0.0822
  341MOL0     C45952   8.262   8.822   9.176  0.2840  0.2870 -0.5040
  341MOL0     C45953   8.155   8.846   9.258 -0.0054  0.4093  0.0923
  341MOL0     C45954   7.885   8.891   9.607 -0.4086  0.5038  0.1255
  341MOL0     C45955   7.837   9.024   9.584 -0.4905  0.0934  0.5159
  341MOL0     C45956   7.716   9.072   9.644  0.3962  0.7150  0.0750
  341MOL0     C45957   7.641   8.973   9.716  0.1518  0.1674 -0.1123
  341MOL0     O45958   7.513   8.992   9.767  1.2397  0.3285  0.1340
  341MOL0     C45959   7.441   9.112   9.748  0.9609 -0.4514  0.4966
  341MOL0     C45960   7.452   9.207   9.868 -0.1731  0.0633  0.2305
  341MOL0     C45961   7.411   9.168  10.003 -0.8757 -0.3389  0.0971
  341MOL0     C45962   7.478   9.052  10.059 -0.1330  0.1140  0.0279
  341MOL0     C45963   7.626   9.036  10.053 -0.3909  0.2694  0.8995
  341MOL0     C45964   7.744   9.021  10.057 -0.3331  0.4241 -1.1370
  341MOL0     C45965   7.687   8.844   9.737 -0.6919 -0.2214  0.7063
  341MOL0     C45966   7.806   8.801   9.686 -0.7269  0.0080 -1.0113
  341MOL0     C45967   7.854   8.656   9.717 -0.0327 -0.7159  0.5660
  341MOL0     H45968   8.325   9.052   9.479  4.6118 -1.2406 -0.2627
  341MOL0     H45969   8.515   8.982   9.328  0.8083  0.6306 -0.6795
  341MOL0     H45970   8.518   8.662   9.220  1.2119 -0.6155  0.3037
  341MOL0     H45971   8.543   8.660   9.042 -0.7605  2.1498 -0.1327
  341MOL0     H45972   8.739   8.647   9.204 -1.9327 -0.8756  0.4185
  341MOL0     H45973   8.713   8.817   9.234 -2.3312 -0.0563  1.5967
  341MOL0     H45974   8.757   8.877   9.002 -0.7585  0.6951  2.3778
  341MOL0     H45975   8.755   8.700   8.964  0.7953  1.4814 -2.5725
  341MOL0     H45976   8.972   8.840   9.134  1.3232 -0.1536 -0.8317
  341MOL0     H45977   8.961   8.656   9.092 -0.7757 -2.2177 -3.9094
  341MOL0     H45978   8.994   8.701   8.869  0.4514 -0.5401  0.4930
  341MOL0     H45979   8.974   8.875   8.896  0.6446 -0.5781 -0.6840
  341MOL0     H45980   9.212   8.865   8.871 -0.7594 -1.1940 -1.1784
  341MOL0     H45981   9.196   8.850   9.045 -1.3512 -2.8394  2.4067
  341MOL0     H45982   9.230   8.615   8.865 -1.8446 -2.0146  1.3601
  341MOL0     H45983   9.195   8.602   9.042 -0.1682 -0.4938 -0.9235
  341MOL0     H45984   9.396   8.740   9.090  0.0209 -1.4842  2.1050
  341MOL0     H45985   9.434   8.584   9.034 -0.9797  0.2491  0.4295
  341MOL0     H45986   9.527   8.563   8.784  1.3707 -0.6367  1.0811
  341MOL0     H45987   9.744   8.645   8.631 -0.5076 -1.3160  1.7979
  341MOL0     H45988   9.684   8.784   8.535  3.0583 -1.4796 -1.2730
  341MOL0     H45989   9.820   8.937   8.676 -0.6339 -1.0227 -1.4675
  341MOL0     H45990   9.878   8.786   8.769  3.1886 -0.2231 -1.2601
  341MOL0     H45991   9.923   8.822   8.466  3.1228  0.1112 -0.8873
  341MOL0     H45992   9.957   8.689   8.567  0.0148 -0.1270 -0.0666
  341MOL0     H45993  10.086   8.866   8.713  0.2971 -0.1641 -0.4497
  341MOL0     H45994  10.064   8.990   8.603  1.7855  0.1895 -0.2035
  341MOL0     H45995  10.364   8.761   8.382 -0.0813 -0.5333  1.0777
  341MOL0     H45996  10.597   8.861   8.383 -0.8833  1.7465 -0.8650
  341MOL0     H45997  10.952   8.897   8.679  0.3238 -0.6192 -1.2509
  341MOL0     H45998  11.184   8.940   8.693 -0.1223  0.1101  0.3794
  341MOL0     H45999  11.389   9.013   8.667 -2.4314 -2.3725  0.3921
  341MOL0     H46000  11.396   8.869   8.572 -1.9641 -0.0627 -0.0248
  341MOL0     H46001  11.573   8.975   8.435 -1.4805  0.2960  0.2814
  341MOL0     H46002  11.561   9.122   8.514  0.7678  0.7486 -0.2174
  341MOL0     H46003  11.628   8.978   8.739 -0.3283  2.4616 -1.1462
  341MOL0     H46004  11.633   8.835   8.635  1.8375 -0.7637  1.6992
  341MOL0     H46005  11.796   9.078   8.635  1.9118  0.0064 -0.2607
  341MOL0     H46006  11.808   8.974   8.491  2.3770  2.1680 -0.5166
  341MOL0     H46007  11.852   8.793   8.702 -1.6488  0.2414 -1.0942
  341MOL0     H46008  11.901   8.940   8.789 -0.6548  1.2661 -0.0191
  341MOL0     H46009  12.030   8.875   8.523 -3.1661  0.0081 -0.7477
  341MOL0     H46010  12.075   8.992   8.651  2.6474 -1.2894  1.2490
  341MOL0     H46011  12.082   8.687   8.689  2.3867 -1.2792 -1.3141
  341MOL0     H46012  12.140   8.811   8.808 -1.0933 -1.4866  0.7223
  341MOL0     H46013  12.252   8.738   8.533  0.4862 -1.0368  0.2301
  341MOL0     H46014  12.288   8.896   8.611 -2.9493  0.5256 -1.7714
  341MOL0     H46015  11.170   9.096   8.290  1.3220 -2.4432  1.2886
  341MOL0     H46016  10.914   9.089   8.308 -2.1638 -0.6334  1.0068
  341MOL0     H46017  10.499   9.079   8.749  1.2021  0.8962 -0.8056
  341MOL0     H46018  10.270   9.001   8.733  0.4233  0.8014  1.1828
  341MOL0     H46019   8.231   8.776   9.083 -0.9380 -0.8122  0.4026
  341MOL0     H46020   8.057   8.808   9.231  0.4884 -0.3881 -0.6049
  341MOL0     H46021   7.899   9.092   9.527 -2.3844  0.9161 -0.6788
  341MOL0     H46022   7.683   9.174   9.626  2.1090  1.5391  1.3333
  341MOL0     H46023   7.336   9.083   9.743  0.6884  0.6680 -1.5328
  341MOL0     H46024   7.462   9.161   9.652 -2.2172 -2.0243 -1.1306
  341MOL0     H46025   7.374   9.280   9.842 -1.5268 -0.9809  1.2448
  341MOL0     H46026   7.552   9.252   9.866 -1.1175  2.3091  0.4793
  341MOL0     H46027   7.304   9.146   9.995 -0.6247 -1.3472 -0.6250
  341MOL0     H46028   7.430   9.247  10.076  3.1194 -1.8678  0.9466
  341MOL0     H46029   7.445   9.045  10.163 -0.3374  1.1887  0.0477
  341MOL0     H46030   7.447   8.964  10.001  1.2985  0.8082 -1.9132
  341MOL0     H46031   7.847   8.995  10.047 -0.3791  0.1786 -0.9920
  341MOL0     H46032   7.620   8.772   9.781 -5.2036  1.4892 -2.5739
  341MOL0     H46033   7.952   8.661   9.766 -0.1233 -0.8782  0.7629
  341MOL0     H46034   7.783   8.597   9.777  0.2698  1.1348  2.9010
  341MOL0     H46035   7.889   8.599   9.631  1.2730  2.4906 -1.2068
  342MOL0     O46036   6.871   3.238   6.311  0.5080  0.6379 -0.4664
  342MOL0     C46037   6.823   3.358   6.309  0.2037  0.1482 -0.2071
  342MOL0     O46038   6.888   3.471   6.267  0.1046 -0.8798  0.0914
  342MOL0     C46039   7.013   3.463   6.219  0.4902  0.6772  0.3183
  342MOL0     C46040   7.048   3.394   6.106 -0.0273 -0.2185  0.1076
  342MOL0     C46041   7.177   3.415   6.054 -0.0784 -0.1322  0.1974
  342MOL0     C46042   7.264   3.507   6.110 -0.4227 -0.2968  0.1216
  342MOL0     O46043   7.388   3.542   6.044  0.4426  0.0766 -0.1812
  342MOL0     C46044   7.458   3.662   6.085  0.5630  0.5938  0.3071
  342MOL0     C46045   7.574   3.691   5.989 -0.6401 -0.7705 -0.8658
  342MOL0     C46046   7.692   3.603   6.027 -0.3471  0.2921  0.2036
  342MOL0     C46047   7.818   3.668   5.963  0.1816  0.3701 -0.7010
  342MOL0     C46048   7.954   3.615   6.009  0.5509  0.0633 -0.1531
  342MOL0     C46049   8.065   3.681   5.932 -0.1399 -0.0875 -0.4214
  342MOL0     C46050   8.207   3.638   5.973  0.2450 -0.8003 -1.0400
  342MOL0     C46051   8.246   3.513   5.899  0.4014 -1.0351 -0.6458
  342MOL0     N46052   8.384   3.478   5.946 -0.4816  0.5524  0.5182
  342MOL0     C46053   8.425   3.355   6.007  0.2529 -1.1086 -0.6411
  342MOL0     C46054   8.555   3.361   6.004 -0.8976 -0.1953 -0.1702
  342MOL0     C46055   8.649   3.253   6.041 -0.4699  0.0340  1.5973
  342MOL0     C46056   8.718   3.288   6.172 -0.6587  0.7245 -0.6690
  342MOL0     C46057   8.839   3.210   6.210  0.4727  0.6077 -0.5994
  342MOL0     C46058   8.880   3.236   6.361 -0.0621 -0.3825  0.2954
  342MOL0     O46059   9.008   3.170   6.378 -0.3072  0.8855  0.2645
  342MOL0     C46060   9.086   3.203   6.489  0.5826 -0.2242 -0.0375
  342MOL0     C46061   9.040   3.277   6.603  0.1614  0.5932  0.0100
  342MOL0     C46062   9.127   3.309   6.705 -0.1956 -0.2159  0.3261
  342MOL0     C46063   9.261   3.269   6.701  0.3592 -0.0052  0.0022
  342MOL0     C46064   9.353   3.304   6.817  0.5837  0.0731  0.7277
  342MOL0     O46065   9.302   3.359   6.929 -0.2158 -0.5516  0.1740
  342MOL0     C46066   9.379   3.352   7.041 -0.3863 -0.8993 -0.1836
  342MOL0     C46067   9.437   3.467   7.093  0.2536 -0.3103  0.5661
  342MOL0     C46068   9.530   3.462   7.199  0.2687  0.2496 -0.0236
  342MOL0     C46069   9.558   3.337   7.249 -0.2451  0.7554  0.5657
  342MOL0     O46070   9.648   3.339   7.355 -0.2177  0.4339 -0.2380
  342MOL0     C46071   9.748   3.231   7.368  0.4597 -0.6333 -0.0686
  342MOL0     C46072   9.879   3.271   7.427  0.5851 -0.5335 -0.1561
  342MOL0     C46073   9.977   3.162   7.466  1.2842  0.2234  0.3866
  342MOL0     C46074  10.100   3.238   7.526  0.1436  0.5418 -0.0746
  342MOL0     C46075  10.199   3.139   7.590 -0.8023  0.4211 -0.4638
  342MOL0     C46076  10.318   3.216   7.658 -0.7007  0.1978 -0.1905
  342MOL0     C46077  10.417   3.125   7.731 -0.4700  0.7101  0.2204
  342MOL0     C46078  10.525   3.210   7.792 -0.5269  0.0711 -0.9160
  342MOL0    Cl46079  10.633   3.123   7.899 -0.0496 -0.1444  0.5514
  342MOL0     C46080   9.487   3.224   7.210 -0.8822  0.4174  0.0373
  342MOL0     C46081   9.409   3.228   7.104 -0.0152 -0.4247  0.6349
  342MOL0     O46082   9.471   3.288   6.789 -0.2356 -0.1554 -0.5632
  342MOL0     C46083   9.302   3.194   6.593  0.9129  0.7937 -1.0398
  342MOL0     C46084   9.219   3.162   6.483 -0.2002  0.6713 -0.5959
  342MOL0     N46085   8.594   3.484   5.952  0.1905 -0.6128  0.4699
  342MOL0     N46086   8.495   3.552   5.920 -0.0569 -0.8463 -0.3977
  342MOL0     C46087   7.225   3.575   6.230  0.5077  0.0428  0.1780
  342MOL0     C46088   7.097   3.551   6.278  0.0383  0.1975 -0.6885
  342MOL0     C46089   6.682   3.387   6.354  0.4338 -0.4583  0.2012
  342MOL0     C46090   6.623   3.516   6.328 -0.3176  0.0557  0.3084
  342MOL0     C46091   6.492   3.552   6.364  0.3076  0.0880  0.2810
  342MOL0     C46092   6.417   3.464   6.432  0.4661 -0.1251 -0.3491
  342MOL0     O46093   6.287   3.503   6.457 -0.0870 -0.2080 -0.3712
  342MOL0     C46094   6.251   3.522   6.592  0.2312  0.0176 -1.0146
  342MOL0     C46095   6.161   3.647   6.613  0.5053  0.2492 -0.0673
  342MOL0     C46096   6.029   3.654   6.538  0.1144  0.2999  0.1654
  342MOL0     C46097   5.936   3.755   6.601  0.7186 -0.1789  0.4411
  342MOL0     C46098   5.817   3.785   6.518  0.1895 -0.7174 -0.4281
  342MOL0     C46099   5.737   3.819   6.437  0.2081  0.7017  0.0599
  342MOL0     C46100   6.481   3.342   6.480  0.6885 -0.1004 -0.0290
  342MOL0     C46101   6.603   3.305   6.439 -0.3600 -0.5168 -0.4911
  342MOL0     C46102   6.663   3.172   6.487  0.0545  0.6313  0.4908
  342MOL0     H46103   6.984   3.321   6.057  0.4240 -1.6233  1.5368
  342MOL0     H46104   7.208   3.358   5.967 -1.2936 -1.2035  0.4360
  342MOL0     H46105   7.392   3.749   6.074  1.6173  1.2424 -1.1697
  342MOL0     H46106   7.494   3.666   6.188 -0.7857 -0.8510  0.8786
  342MOL0     H46107   7.610   3.794   5.983  1.2205 -1.4239 -1.5749
  342MOL0     H46108   7.542   3.666   5.887  2.0147  0.3039 -2.0366
  342MOL0     H46109   7.674   3.500   5.994 -5.7752  0.6063  1.3561
  342MOL0     H46110   7.712   3.590   6.134  1.2718  0.3701 -0.0649
  342MOL0     H46111   7.798   3.657   5.856 -0.8531 -1.0323 -0.3904
  342MOL0     H46112   7.829   3.775   5.983  0.6482 -0.2615  3.0193
  342MOL0     H46113   7.963   3.633   6.116  0.6802 -3.0020  0.4569
  342MOL0     H46114   7.966   3.506   6.000 -0.2503 -0.3432  2.6244
  342MOL0     H46115   8.042   3.653   5.829 -0.4715 -0.4732 -0.2430
  342MOL0     H46116   8.057   3.789   5.945  1.7939 -0.0775  1.1491
  342MOL0     H46117   8.205   3.620   6.081  0.0202  3.6024 -0.0919
  342MOL0     H46118   8.273   3.723   5.955 -0.9974  0.5540  0.4756
  342MOL0     H46119   8.173   3.432   5.905 -1.6736  0.6685 -1.6088
  342MOL0     H46120   8.232   3.540   5.794 -0.1801  2.4556  0.1920
  342MOL0     H46121   8.356   3.276   6.034  0.0024 -0.8880 -0.6320
  342MOL0     H46122   8.600   3.156   6.051  0.5856 -0.8335 -0.9259
  342MOL0     H46123   8.712   3.244   5.952 -2.7761  1.2806 -0.2654
  342MOL0     H46124   8.742   3.392   6.198  0.9503  0.1211  0.3535
  342MOL0     H46125   8.632   3.261   6.234  0.3618 -2.1752 -0.3930
  342MOL0     H46126   8.922   3.229   6.142  0.6743 -1.4013 -0.9649
  342MOL0     H46127   8.832   3.103   6.187  2.9080  0.5406 -1.2743
  342MOL0     H46128   8.806   3.197   6.430 -1.1882  0.9208 -0.1264
  342MOL0     H46129   8.894   3.344   6.377 -1.1510  0.1207 -1.7267
  342MOL0     H46130   8.935   3.300   6.612 -0.3393 -1.8074  1.0703
  342MOL0     H46131   9.086   3.346   6.798 -1.7018 -0.5050 -0.1970
  342MOL0     H46132   9.408   3.560   7.046 -1.6177 -0.0141  2.1753
  342MOL0     H46133   9.588   3.545   7.238  0.9371  0.5206 -1.5317
  342MOL0     H46134   9.701   3.154   7.429  0.7929 -0.8989 -0.1458
  342MOL0     H46135   9.765   3.181   7.272 -0.0674 -2.2184  0.6408
  342MOL0     H46136   9.929   3.348   7.367 -2.6156  2.4770  0.7103
  342MOL0     H46137   9.859   3.321   7.522 -1.1637 -2.7063  0.6838
  342MOL0     H46138   9.930   3.097   7.541  0.6954 -2.5255 -2.1899
  342MOL0     H46139  10.018   3.105   7.383 -0.5159 -1.3549  0.5155
  342MOL0     H46140  10.064   3.307   7.603 -3.8097 -1.9147  0.5866
  342MOL0     H46141  10.147   3.291   7.442 -0.8063  1.4534 -0.0596
  342MOL0     H46142  10.231   3.069   7.512  2.0976  2.1093 -0.9121
  342MOL0     H46143  10.144   3.078   7.662  0.2460  1.0492  0.9068
  342MOL0     H46144  10.373   3.283   7.590  1.2602  0.2209  1.3419
  342MOL0     H46145  10.275   3.281   7.733  0.3939 -1.2779  1.8117
  342MOL0     H46146  10.460   3.051   7.664  0.0424 -1.4899  2.8150
  342MOL0     H46147  10.364   3.075   7.813  0.6122  0.9520  1.0830
  342MOL0     H46148  10.589   3.242   7.709  0.1958  0.7127 -0.1435
  342MOL0     H46149  10.482   3.300   7.837  1.5621  1.0945 -0.8115
  342MOL0     H46150   9.510   3.134   7.266  3.7460  0.1510 -1.8502
  342MOL0     H46151   9.353   3.138   7.080 -0.8650  0.4500 -0.7765
  342MOL0     H46152   9.406   3.167   6.584  1.6976  2.2671  2.0597
  342MOL0     H46153   9.255   3.105   6.398 -0.2722  0.2713 -0.3607
  342MOL0     H46154   7.301   3.640   6.271  2.7531 -1.4477 -1.3937
  342MOL0     H46155   7.066   3.592   6.374 -1.8113 -3.2967  0.3767
  342MOL0     H46156   6.683   3.578   6.262  1.5010 -3.6925 -1.9117
  342MOL0     H46157   6.449   3.649   6.345 -0.6385 -0.4487 -0.4080
  342MOL0     H46158   6.347   3.544   6.641  0.3452  0.5313 -1.4521
  342MOL0     H46159   6.212   3.430   6.637  0.5626  0.8851  1.2038
  342MOL0     H46160   6.221   3.733   6.581  0.4164 -0.1318 -1.3179
  342MOL0     H46161   6.143   3.648   6.721 -1.7717 -0.8608 -0.3840
  342MOL0     H46162   5.973   3.560   6.532 -2.0614  1.2204  3.2200
  342MOL0     H46163   6.058   3.677   6.436  2.4346 -1.1957  0.4178
  342MOL0     H46164   5.899   3.702   6.689  0.3916 -1.8785 -0.6799
  342MOL0     H46165   5.989   3.848   6.625 -0.3624  0.7287 -0.5808
  342MOL0     H46166   5.676   3.850   6.354 -0.8998  0.5696  0.7943
  342MOL0     H46167   6.422   3.279   6.546  1.0367  0.5740  0.9394
  342MOL0     H46168   6.654   3.095   6.410 -1.0415  0.7947  0.4302
  342MOL0     H46169   6.769   3.176   6.513  0.7302 -3.5187 -0.8599
  342MOL0     H46170   6.611   3.125   6.571  1.6064 -2.7711 -0.3054
  343MOL0     O46171  10.512   2.466   2.273  0.2671  0.1730 -0.5493
  343MOL0     C46172  10.519   2.350   2.306  0.1970 -0.2338 -0.7494
  343MOL0     O46173  10.628   2.272   2.313 -0.8655  0.0805  0.1130
  343MOL0     C46174  10.755   2.334   2.286  0.7781  0.4801 -1.6909
  343MOL0     C46175  10.777   2.403   2.172 -0.7699 -0.4911  0.5885
  343MOL0     C46176  10.895   2.469   2.148 -0.2028 -0.1094 -0.5443
  343MOL0     C46177  11.000   2.461   2.243  0.6618 -0.3456 -0.0305
  343MOL0     O46178  11.111   2.545   2.229  0.8621 -0.4980  0.7937
  343MOL0     C46179  11.204   2.587   2.332  0.2220 -0.2876 -0.5314
  343MOL0     C46180  11.339   2.510   2.346  0.9491  0.3230 -0.2228
  343MOL0     C46181  11.328   2.378   2.428 -0.4182 -0.2150  0.1357
  343MOL0     C46182  11.467   2.326   2.460 -0.9311  1.0253 -0.1948
  343MOL0     C46183  11.476   2.174   2.489  0.1007  1.2263 -0.3089
  343MOL0     C46184  11.624   2.149   2.486 -0.1667  0.0466 -0.3956
  343MOL0     C46185  11.646   1.998   2.507 -0.0826 -0.3340  0.0549
  343MOL0     C46186  11.778   1.954   2.448 -0.4276 -0.3598 -0.0891
  343MOL0     N46187  11.824   2.009   2.314  0.0962 -0.0213  0.5314
  343MOL0     C46188  11.910   2.109   2.302 -0.3618  0.4115  0.3670
  343MOL0     C46189  11.970   2.103   2.179  1.1453 -0.0940  0.7800
  343MOL0     C46190  12.090   2.177   2.133  0.2731 -0.2597 -0.5430
  343MOL0     C46191  12.067   2.265   2.009  0.3406  1.0087  0.3340
  343MOL0     C46192  12.210   2.306   1.951  0.7674 -0.2346  0.1494
  343MOL0     C46193  12.306   2.374   2.048  0.5852  0.3255 -0.2418
  343MOL0     O46194  12.390   2.279   2.112  0.5061  0.2318  0.1122
  343MOL0     C46195  12.516   2.257   2.076 -0.1125 -0.1243  0.5090
  343MOL0     C46196  12.576   2.290   1.958  0.3306  0.0744  0.8126
  343MOL0     C46197  12.705   2.250   1.917  0.7005 -0.4431  0.1554
  343MOL0     C46198  12.780   2.168   2.000 -0.0605  0.0295  0.3019
  343MOL0     C46199  12.912   2.122   1.950  0.5012  0.0839  0.7192
  343MOL0     O46200  12.947   2.124   1.819  0.4438  0.2384 -0.3628
  343MOL0     C46201  13.077   2.111   1.782 -1.1261  0.9131  0.0303
  343MOL0     C46202  13.135   1.985   1.770 -0.1864 -0.3473  0.6363
  343MOL0     C46203  13.265   1.963   1.729 -0.0474 -0.5285  0.7296
  343MOL0     C46204  13.343   2.075   1.687 -0.4099 -0.0000 -0.2244
  343MOL0     O46205  13.464   2.042   1.637 -0.0383  0.0812  0.3869
  343MOL0     C46206  13.506   2.107   1.518 -0.2617 -0.1335  0.1025
  343MOL0     C46207  13.597   2.017   1.441 -0.8009 -0.5313 -0.4178
  343MOL0     C46208  13.577   2.046   1.297 -0.7413 -0.1706 -0.0008
  343MOL0     C46209  13.682   1.974   1.219  0.5267 -0.5555  0.2152
  343MOL0     C46210  13.645   1.951   1.072 -0.3178 -0.2228  0.3984
  343MOL0     C46211  13.741   1.851   1.001 -0.9921  1.2467 -0.4617
  343MOL0     C46212  13.675   1.787   0.884  0.0889 -0.4186 -0.6779
  343MOL0     C46213  13.765   1.692   0.805 -0.3399 -0.0907 -0.5084
  343MOL0    Cl46214  13.920   1.767   0.756  0.2002  0.5710 -0.2474
  343MOL0     C46215  13.287   2.209   1.683  0.3661 -0.3423 -1.3955
  343MOL0     C46216  13.154   2.219   1.735 -0.3499 -0.5213 -0.2064
  343MOL0     O46217  12.983   2.076   2.033  0.1352  0.5940  0.4172
  343MOL0     C46218  12.726   2.127   2.120 -0.0329  0.7869  0.2386
  343MOL0     C46219  12.594   2.165   2.153 -0.4817  0.7673 -0.1621
  343MOL0     N46220  11.881   2.013   2.109 -0.5883 -0.4477  0.0964
  343MOL0     N46221  11.796   1.959   2.195 -0.4759 -0.3089  0.2340
  343MOL0     C46222  10.975   2.383   2.361  0.7738 -1.4068 -0.7911
  343MOL0     C46223  10.851   2.319   2.385 -0.0406 -0.8576 -0.6431
  343MOL0     C46224  10.388   2.287   2.324  0.2316 -0.7066  0.1470
  343MOL0     C46225  10.362   2.166   2.261 -0.0144 -0.1689 -0.1774
  343MOL0     C46226  10.235   2.111   2.247 -0.0167  0.4769 -0.8843
  343MOL0     C46227  10.130   2.179   2.310  0.4806  0.6758  0.4023
  343MOL0     O46228  10.004   2.123   2.294 -0.5030 -0.1069  0.1640
  343MOL0     C46229   9.988   1.998   2.355  0.4960  0.4294 -0.0758
  343MOL0     C46230   9.955   1.889   2.257  0.2874 -0.0999 -0.5126
  343MOL0     C46231   9.840   1.919   2.170 -0.3297 -0.9498  0.2114
  343MOL0     C46232   9.709   1.984   2.217 -0.2466  0.4854 -1.2222
  343MOL0     C46233   9.636   1.909   2.326  0.0325  0.5479 -0.1811
  343MOL0     C46234   9.551   1.860   2.402 -0.2936 -0.0072  0.6678
  343MOL0     C46235  10.144   2.295   2.383 -0.9219 -0.2911 -0.6021
  343MOL0     C46236  10.275   2.355   2.383 -0.3473 -0.6235  0.0957
  343MOL0     C46237  10.279   2.497   2.441 -0.2650  0.0838 -0.6414
  343MOL0     H46238  10.692   2.431   2.111 -0.1128 -0.6024 -0.4061
  343MOL0     H46239  10.909   2.533   2.062 -1.0729  0.8305 -0.0119
  343MOL0     H46240  11.235   2.687   2.302  0.0061 -0.3320 -0.9152
  343MOL0     H46241  11.140   2.602   2.420 -1.0255  0.6541 -1.5541
  343MOL0     H46242  11.407   2.585   2.388  0.8022  0.1688  0.3060
  343MOL0     H46243  11.376   2.493   2.245 -0.9985  1.6380 -1.2205
  343MOL0     H46244  11.276   2.302   2.370 -0.0591 -0.2308 -0.1625
  343MOL0     H46245  11.282   2.399   2.526 -2.2482  0.5275 -0.8320
  343MOL0     H46246  11.528   2.339   2.370 -0.5309  1.1553  0.0909
  343MOL0     H46247  11.520   2.386   2.535 -1.8066 -0.0887  1.3754
  343MOL0     H46248  11.441   2.143   2.588  0.5302 -0.7458 -0.7297
  343MOL0     H46249  11.417   2.116   2.418 -0.6290  0.5374  0.8296
  343MOL0     H46250  11.663   2.197   2.396 -0.1763  1.6896  0.4403
  343MOL0     H46251  11.665   2.206   2.570 -1.2459 -2.9456  2.4059
  343MOL0     H46252  11.577   1.929   2.457 -1.1984 -0.4419  1.6792
  343MOL0     H46253  11.631   1.972   2.612  0.1365  1.2940  0.5220
  343MOL0     H46254  11.853   1.989   2.519  0.0379 -0.7794 -0.3665
  343MOL0     H46255  11.775   1.845   2.445 -2.5071 -0.3451 -0.4526
  343MOL0     H46256  11.948   2.163   2.388  0.2701 -2.0199  1.7233
  343MOL0     H46257  12.119   2.250   2.209  1.7341 -2.9408  1.6610
  343MOL0     H46258  12.170   2.105   2.114 -0.7761 -2.5434  2.7449
  343MOL0     H46259  12.007   2.207   1.938  0.2094 -0.8223  1.8498
  343MOL0     H46260  12.009   2.353   2.037  0.0527  0.1066  2.7617
  343MOL0     H46261  12.195   2.375   1.868  2.6552  2.0585  1.5793
  343MOL0     H46262  12.257   2.224   1.896 -0.8536 -1.0592 -0.0681
  343MOL0     H46263  12.242   2.420   2.123  0.4931  0.0436 -0.1440
  343MOL0     H46264  12.363   2.458   2.007  1.9403 -1.1142 -1.4318
  343MOL0     H46265  12.534   2.345   1.874  0.0299 -2.4588 -0.8085
  343MOL0     H46266  12.738   2.290   1.822 -0.7378  1.2632  0.3345
  343MOL0     H46267  13.070   1.901   1.792 -1.0675  1.0661  3.9151
  343MOL0     H46268  13.306   1.863   1.718 -0.0210 -0.6795  2.0354
  343MOL0     H46269  13.422   2.128   1.450 -0.2913 -0.3663  0.0678
  343MOL0     H46270  13.550   2.203   1.547 -0.1728 -1.4584  5.2856
  343MOL0     H46271  13.703   2.032   1.462 -0.7595  0.5814 -1.3081
  343MOL0     H46272  13.562   1.915   1.459 -1.9828  0.1919  1.7249
  343MOL0     H46273  13.479   2.002   1.273 -1.2126 -2.1245  4.4419
  343MOL0     H46274  13.570   2.153   1.275 -2.6478 -0.4166 -0.8820
  343MOL0     H46275  13.701   1.876   1.264 -1.3527 -2.0831 -2.0255
  343MOL0     H46276  13.769   2.040   1.213  0.6669 -0.8845 -3.8775
  343MOL0     H46277  13.650   2.054   1.034  0.4875 -0.0648  0.9058
  343MOL0     H46278  13.544   1.910   1.066 -0.4632 -0.1968  2.2648
  343MOL0     H46279  13.824   1.914   0.967 -0.4116  0.2385 -0.9642
  343MOL0     H46280  13.777   1.771   1.066 -0.7920  1.9306  0.2975
  343MOL0     H46281  13.651   1.863   0.809 -2.5725  0.7681  1.2475
  343MOL0     H46282  13.587   1.735   0.922  0.7337 -0.1438  1.2821
  343MOL0     H46283  13.796   1.600   0.857  4.5810  1.5363 -0.0260
  343MOL0     H46284  13.714   1.672   0.711 -2.8762  2.3924  0.2018
  343MOL0     H46285  13.341   2.292   1.638  0.2483 -1.7345 -4.3525
  343MOL0     H46286  13.112   2.320   1.739  0.9793  0.0405  0.3883
  343MOL0     H46287  12.765   2.047   2.182 -3.3516  0.5250  2.2624
  343MOL0     H46288  12.560   2.128   2.249 -1.6399 -1.0405 -1.1818
  343MOL0     H46289  11.060   2.377   2.429 -0.9932 -1.2266  1.5354
  343MOL0     H46290  10.843   2.258   2.475 -0.8472  0.2356  0.0559
  343MOL0     H46291  10.446   2.101   2.238 -2.4834 -3.2462 -1.1680
  343MOL0     H46292  10.227   2.011   2.204 -0.1347 -0.1186  0.4492
  343MOL0     H46293   9.903   1.997   2.424 -1.0153  2.6521 -1.7526
  343MOL0     H46294  10.082   1.970   2.402 -0.2731  0.4258  1.5352
  343MOL0     H46295   9.929   1.805   2.322  1.3744  0.1272  0.2314
  343MOL0     H46296  10.039   1.862   2.192  0.5865 -0.1267 -0.1179
  343MOL0     H46297   9.811   1.830   2.112  1.6447  0.6274 -3.5166
  343MOL0     H46298   9.875   1.983   2.089  1.1732 -1.2752  0.5845
  343MOL0     H46299   9.729   2.088   2.244  1.7789  0.2403 -1.6645
  343MOL0     H46300   9.630   1.995   2.141 -2.2205  2.9790  0.9828
  343MOL0     H46301   9.484   1.821   2.475  0.7353 -3.4153 -0.0204
  343MOL0     H46302  10.056   2.342   2.424 -0.1227  0.3045  0.4714
  343MOL0     H46303  10.347   2.500   2.528 -1.5670  1.7228  0.3715
  343MOL0     H46304  10.306   2.577   2.372  0.7064  2.0001  1.8005
  343MOL0     H46305  10.180   2.524   2.479 -0.3271  0.1866 -0.8768
  344MOL0     O46306   3.520   4.106   8.057 -0.1997  0.0034 -0.2906
  344MOL0     C46307   3.400   4.082   8.052 -0.6349 -0.2086 -1.1873
  344MOL0     O46308   3.344   3.954   8.065 -0.0956  0.5667 -0.3916
  344MOL0     C46309   3.428   3.858   8.095 -0.2299 -0.0256 -0.7577
  344MOL0     C46310   3.482   3.775   7.999 -0.4163 -0.3544 -0.6361
  344MOL0     C46311   3.574   3.675   8.026 -0.3986 -0.1425  0.0110
  344MOL0     C46312   3.618   3.645   8.156 -0.2071 -0.2498  0.4042
  344MOL0     O46313   3.715   3.552   8.180 -0.1709  0.3539 -0.1809
  344MOL0     C46314   3.829   3.542   8.099  0.8059 -0.1552  0.6302
  344MOL0     C46315   3.944   3.467   8.170 -0.5378 -0.2691  0.3373
  344MOL0     C46316   3.904   3.317   8.192  1.0268  0.0611 -0.0153
  344MOL0     C46317   4.016   3.229   8.244 -1.0634  1.1117 -0.0300
  344MOL0     C46318   4.134   3.199   8.147 -0.2781 -0.3471 -0.3525
  344MOL0     C46319   4.102   3.158   8.007  1.7710  0.3376 -0.1552
  344MOL0     C46320   4.219   3.097   7.929 -0.1982  0.3907 -0.1930
  344MOL0     C46321   4.331   3.203   7.908 -0.9537 -0.6028 -0.0892
  344MOL0     N46322   4.443   3.134   7.855  0.7128 -0.6333  0.1226
  344MOL0     C46323   4.567   3.193   7.844 -0.2747 -0.0843  0.3612
  344MOL0     C46324   4.650   3.094   7.802 -0.6255  0.3544  0.4510
  344MOL0     C46325   4.796   3.089   7.774 -0.2025 -0.0354 -0.5172
  344MOL0     C46326   4.883   3.108   7.904 -0.1545 -0.3409 -0.7421
  344MOL0     C46327   4.920   3.247   7.943 -0.4423  0.5064  0.3356
  344MOL0     C46328   5.040   3.307   7.860  0.7280 -0.7561  0.1477
  344MOL0     O46329   5.160   3.232   7.895 -0.6669 -0.0037 -0.3168
  344MOL0     C46330   5.241   3.216   7.795  0.2189  1.1625  0.0727
  344MOL0     C46331   5.214   3.107   7.709 -0.5066 -0.4157 -0.2623
  344MOL0     C46332   5.294   3.086   7.599  0.9414 -0.2089 -0.1548
  344MOL0     C46333   5.401   3.169   7.567  0.4892 -0.7577  1.0590
  344MOL0     C46334   5.481   3.155   7.447 -0.9107  0.9892 -0.8021
  344MOL0     O46335   5.579   3.248   7.435 -0.4805  0.4092  0.5638
  344MOL0     C46336   5.670   3.227   7.334  0.1484 -0.6695  0.1873
  344MOL0     C46337   5.688   3.316   7.228  0.2606 -0.1747 -0.7366
  344MOL0     C46338   5.775   3.287   7.115 -0.0040 -0.7895  0.1470
  344MOL0     C46339   5.845   3.165   7.112 -0.8026  0.5373  0.6722
  344MOL0     O46340   5.942   3.139   7.016  0.2381  0.2788  0.2577
  344MOL0     C46341   5.890   3.162   6.883 -0.5546  0.4518 -0.0206
  344MOL0     C46342   5.931   3.060   6.779 -0.7892 -0.2005 -1.1248
  344MOL0     C46343   5.964   3.118   6.637  0.1120  0.0004  0.1910
  344MOL0     C46344   6.020   3.004   6.549 -0.1918 -0.3861 -0.0480
  344MOL0     C46345   6.075   3.026   6.414 -0.8646  0.1778 -0.2603
  344MOL0     C46346   6.217   3.089   6.412 -0.3094  0.1187 -0.3755
  344MOL0     C46347   6.294   3.066   6.285 -0.0449 -0.0945  0.6186
  344MOL0     C46348   6.344   2.920   6.266  0.2483 -0.1661 -0.1672
  344MOL0    Cl46349   6.436   2.861   6.403  0.1282  0.2820  0.0648
  344MOL0     C46350   5.838   3.079   7.221  0.2662 -0.3807 -0.5948
  344MOL0     C46351   5.744   3.107   7.323 -0.5893  0.5620 -0.4930
  344MOL0     O46352   5.459   3.064   7.375  0.3705  0.0899 -0.2001
  344MOL0     C46353   5.424   3.277   7.657  0.5543 -0.2016 -0.1550
  344MOL0     C46354   5.345   3.301   7.768  0.1710 -0.2906  0.0548
  344MOL0     N46355   4.575   2.976   7.774  0.4934 -0.3961 -0.6495
  344MOL0     N46356   4.453   3.008   7.803 -0.4592  0.5333  0.1495
  344MOL0     C46357   3.554   3.718   8.254  0.3326 -0.5218 -0.6910
  344MOL0     C46358   3.467   3.826   8.232 -0.4253  0.4675  0.1193
  344MOL0     C46359   3.302   4.189   8.069  0.3381 -0.4516  0.2046
  344MOL0     C46360   3.171   4.158   8.118 -1.3773  0.5167  0.7629
  344MOL0     C46361   3.070   4.249   8.132 -0.1843  0.7269 -0.2413
  344MOL0     C46362   3.093   4.380   8.094 -0.8693 -0.2046  0.4297
  344MOL0     O46363   2.994   4.478   8.096 -0.6491  0.2688 -0.6614
  344MOL0     C46364   2.968   4.530   7.967 -0.1783  0.1006  0.1589
  344MOL0     C46365   2.851   4.462   7.896  0.7668  0.1656 -0.8869
  344MOL0     C46366   2.724   4.462   7.973  0.0533  0.6806 -0.6811
  344MOL0     C46367   2.663   4.604   7.974  1.2130  0.6016 -0.0474
  344MOL0     C46368   2.593   4.633   7.848  0.3981  0.6958  0.7441
  344MOL0     C46369   2.545   4.682   7.747  0.0899 -0.7592 -0.7888
  344MOL0     C46370   3.219   4.408   8.035  0.4154  0.4354  0.4113
  344MOL0     C46371   3.325   4.324   8.026 -0.0709 -0.0793 -0.5151
  344MOL0     C46372   3.459   4.364   7.959  0.1498  0.3613 -0.2859
  344MOL0     H46373   3.460   3.793   7.894  2.6810  2.0163 -1.0349
  344MOL0     H46374   3.622   3.620   7.946 -3.5529  0.2293 -2.2881
  344MOL0     H46375   3.801   3.487   8.009  1.8866 -0.7375  0.6290
  344MOL0     H46376   3.861   3.643   8.069 -2.0787  0.3172 -1.2616
  344MOL0     H46377   3.960   3.508   8.270 -0.5575  0.7624 -0.0693
  344MOL0     H46378   4.033   3.480   8.109  0.8842 -2.1113  1.8884
  344MOL0     H46379   3.860   3.281   8.099 -0.9637  1.0646  0.4845
  344MOL0     H46380   3.824   3.321   8.266  1.6124  1.4961  0.5634
  344MOL0     H46381   4.048   3.264   8.343 -1.0130  0.4890  0.1788
  344MOL0     H46382   3.965   3.133   8.259  1.5474 -0.9594 -3.1020
  344MOL0     H46383   4.192   3.291   8.134 -3.0720  1.3886 -1.6999
  344MOL0     H46384   4.194   3.116   8.184  0.5239  0.1328 -0.5602
  344MOL0     H46385   4.014   3.093   8.015 -0.0305  2.7284  0.6515
  344MOL0     H46386   4.054   3.240   7.953 -1.8729 -0.6256  1.2742
  344MOL0     H46387   4.185   3.070   7.829  1.3095  0.6856 -0.8244
  344MOL0     H46388   4.263   3.010   7.977  0.4990 -0.9595 -3.0165
  344MOL0     H46389   4.318   3.292   7.845  3.8251 -0.1313 -0.7658
  344MOL0     H46390   4.366   3.251   8.000  0.7789 -0.5168 -0.7506
  344MOL0     H46391   4.597   3.296   7.861  0.3473 -0.0013 -1.1549
  344MOL0     H46392   4.817   2.992   7.728 -1.1903 -0.6754  0.3224
  344MOL0     H46393   4.824   3.165   7.702 -1.9581 -0.1184 -1.3575
  344MOL0     H46394   4.842   3.055   7.991  1.2966 -0.9607 -0.4037
  344MOL0     H46395   4.973   3.049   7.887 -1.1875 -2.0336 -0.6671
  344MOL0     H46396   4.951   3.243   8.048 -1.6580  2.2851  0.8147
  344MOL0     H46397   4.831   3.311   7.937 -2.3052 -1.6159  2.9020
  344MOL0     H46398   5.042   3.415   7.875  0.0494 -1.0420  2.6692
  344MOL0     H46399   5.022   3.317   7.753  0.7948  0.7670  0.2485
  344MOL0     H46400   5.127   3.045   7.725 -1.0886  0.3219 -0.5215
  344MOL0     H46401   5.270   3.005   7.531 -1.2735  1.8998 -2.0314
  344MOL0     H46402   5.629   3.406   7.238  0.4426 -0.2444  1.2875
  344MOL0     H46403   5.785   3.370   7.046 -2.5264  2.4009  3.2439
  344MOL0     H46404   5.781   3.168   6.886 -1.1355 -5.0605  0.3884
  344MOL0     H46405   5.943   3.254   6.857  1.1665 -1.3053 -3.6057
  344MOL0     H46406   6.021   3.012   6.820 -1.4618 -1.6028 -1.2176
  344MOL0     H46407   5.853   2.983   6.769 -0.4210 -0.7400 -0.0134
  344MOL0     H46408   5.883   3.181   6.599 -0.6937 -0.5529  0.9329
  344MOL0     H46409   6.043   3.192   6.643 -0.7584  1.0105 -0.4331
  344MOL0     H46410   5.937   2.933   6.537  0.5170 -1.0457 -1.3200
  344MOL0     H46411   6.088   2.945   6.611 -0.6742 -4.5103 -3.0026
  344MOL0     H46412   6.005   3.088   6.357  0.0717  1.6198  0.1087
  344MOL0     H46413   6.081   2.930   6.363  2.2392  0.8541 -1.4221
  344MOL0     H46414   6.212   3.197   6.430 -0.7644  0.0073  0.1913
  344MOL0     H46415   6.279   3.056   6.495  0.0167  3.1200  0.6957
  344MOL0     H46416   6.379   3.135   6.280  0.1005 -0.2961  0.1980
  344MOL0     H46417   6.239   3.095   6.195 -0.5230  2.7732  1.7387
  344MOL0     H46418   6.246   2.873   6.259  0.3909 -0.5106  0.0891
  344MOL0     H46419   6.402   2.905   6.175 -0.7542 -1.8892 -0.5618
  344MOL0     H46420   5.893   2.986   7.214 -1.1795 -1.3570  0.5522
  344MOL0     H46421   5.748   3.035   7.404  2.5944  1.8649  0.6515
  344MOL0     H46422   5.503   3.350   7.645 -1.6580  2.2433 -0.7938
  344MOL0     H46423   5.372   3.382   7.835 -1.0023 -1.4949  2.0757
  344MOL0     H46424   3.589   3.706   8.357 -1.1231  1.9371  0.1710
  344MOL0     H46425   3.416   3.877   8.313 -0.6503 -1.2508  1.1161
  344MOL0     H46426   3.146   4.054   8.138  0.8111 -1.2434 -4.1166
  344MOL0     H46427   2.973   4.208   8.158  1.0070 -1.1238  1.5659
  344MOL0     H46428   3.050   4.526   7.894  0.9189  2.4158  1.1613
  344MOL0     H46429   2.940   4.634   7.987 -2.3068 -0.1631 -1.1004
  344MOL0     H46430   2.879   4.356   7.887 -2.0554 -0.7914  0.3354
  344MOL0     H46431   2.834   4.497   7.794 -1.0610 -1.0194 -1.0344
  344MOL0     H46432   2.750   4.439   8.077  1.0172  3.9896 -0.0673
  344MOL0     H46433   2.658   4.385   7.933  0.3469 -0.4423  0.9147
  344MOL0     H46434   2.583   4.615   8.048  1.5444 -1.1080  0.6107
  344MOL0     H46435   2.727   4.682   8.016 -1.1235  2.0613  1.0375
  344MOL0     H46436   2.504   4.733   7.662 -0.5976  1.4416  0.7797
  344MOL0     H46437   3.239   4.503   7.986  0.2665  0.0069 -0.4945
  344MOL0     H46438   3.448   4.461   7.910 -0.1584 -1.0379 -3.1645
  344MOL0     H46439   3.535   4.370   8.038  1.1282  1.0347 -1.2555
  344MOL0     H46440   3.493   4.298   7.878  0.0521 -1.1151  0.8258
  345MOL0     O46441   9.338   2.861   9.156 -0.2107  0.4229  0.6474
  345MOL0     C46442   9.375   2.876   9.271  0.4797 -0.1910  0.1546
  345MOL0     O46443   9.500   2.839   9.324  0.1868 -0.1041 -0.4612
  345MOL0     C46444   9.580   2.772   9.239  0.2124 -0.5782  0.8564
  345MOL0     C46445   9.554   2.640   9.207  0.5781  0.0830 -0.1294
  345MOL0     C46446   9.654   2.567   9.143  0.9399  0.1664  0.5680
  345MOL0     C46447   9.767   2.627   9.100 -0.8309 -0.2453  0.8235
  345MOL0     O46448   9.851   2.542   9.036  0.2907 -0.3068  0.7090
  345MOL0     C46449   9.999   2.562   9.023 -0.5056 -0.1352  0.1103
  345MOL0     C46450  10.060   2.637   8.896 -0.3349  0.6373 -0.5678
  345MOL0     C46451  10.001   2.583   8.766  0.1389 -0.3615 -0.1356
  345MOL0     C46452  10.045   2.435   8.736 -0.4988 -0.4526  0.2063
  345MOL0     C46453  10.038   2.392   8.595  0.0631  0.3605 -0.8222
  345MOL0     C46454  10.115   2.264   8.565 -0.2341  0.6261 -0.2807
  345MOL0     C46455  10.256   2.265   8.611 -2.0292 -0.5163 -0.7988
  345MOL0     C46456  10.333   2.158   8.542 -0.6356  0.1233  0.3300
  345MOL0     N46457  10.461   2.129   8.606  0.1161  0.4075 -0.5322
  345MOL0     C46458  10.479   2.033   8.702  0.0763  0.1505  0.1995
  345MOL0     C46459  10.615   2.041   8.746  0.3552 -0.4768 -0.6330
  345MOL0     C46460  10.672   1.952   8.858  0.6366  0.3732 -0.2701
  345MOL0     C46461  10.822   1.944   8.847  0.0786 -0.8080  0.2216
  345MOL0     C46462  10.882   1.837   8.951  0.4092  0.2968 -0.0451
  345MOL0     C46463  11.029   1.829   8.937 -0.4568  0.6451  0.2007
  345MOL0     O46464  11.087   1.944   9.000  0.1985  0.3236 -0.9935
  345MOL0     C46465  11.129   2.064   8.939  0.3687 -0.7088  0.1582
  345MOL0     C46466  11.101   2.186   8.997 -0.2530  0.5112 -0.0530
  345MOL0     C46467  11.144   2.302   8.935  0.4696  0.1735  0.3796
  345MOL0     C46468  11.219   2.297   8.814 -0.0025 -0.1269  0.4507
  345MOL0     C46469  11.271   2.426   8.763  0.1549  0.3933 -0.8107
  345MOL0     O46470  11.319   2.429   8.639  0.5559  0.1549 -0.0481
  345MOL0     C46471  11.420   2.519   8.609  0.5387  0.0953  0.6506
  345MOL0     C46472  11.542   2.522   8.695  0.0775  0.6686 -0.2903
  345MOL0     C46473  11.641   2.613   8.672 -0.4680  1.2173  0.4752
  345MOL0     C46474  11.641   2.690   8.549  1.1061  0.5838 -1.1132
  345MOL0     O46475  11.748   2.762   8.508 -0.7873  0.2917 -0.0122
  345MOL0     C46476  11.804   2.841   8.603  0.0640 -0.6315 -0.8359
  345MOL0     C46477  11.931   2.794   8.671 -0.8667 -0.7970  0.6996
  345MOL0     C46478  12.016   2.915   8.744 -0.3292  0.7394 -0.6611
  345MOL0     C46479  12.112   2.996   8.645 -0.0698 -0.1102  0.2691
  345MOL0     C46480  12.186   3.106   8.726  0.5889  0.2412 -0.4665
  345MOL0     C46481  12.301   3.172   8.652  1.0947  0.4810 -0.0312
  345MOL0     C46482  12.355   3.284   8.743 -0.1995 -0.0647 -0.0220
  345MOL0     C46483  12.494   3.349   8.706 -1.0143  0.1406  0.0001
  345MOL0    Cl46484  12.619   3.217   8.690  0.2517 -0.2382 -0.2221
  345MOL0     C46485  11.534   2.664   8.455 -1.0072 -0.0261 -0.2153
  345MOL0     C46486  11.418   2.591   8.489 -0.0907  0.9781  0.7487
  345MOL0     O46487  11.286   2.514   8.846  0.0741  0.1597  0.3108
  345MOL0     C46488  11.258   2.174   8.764 -0.2462 -0.7763  0.1441
  345MOL0     C46489  11.215   2.060   8.823 -0.0880 -0.3046 -0.3576
  345MOL0     N46490  10.676   2.137   8.661 -0.2496 -0.5776  0.3889
  345MOL0     N46491  10.581   2.183   8.582 -0.3778  0.4003  0.2085
  345MOL0     C46492   9.794   2.764   9.123 -0.2365  0.3899 -0.1645
  345MOL0     C46493   9.695   2.837   9.193 -0.5440  0.2870  0.4313
  345MOL0     C46494   9.272   2.935   9.362  0.2320  0.0146  0.1035
  345MOL0     C46495   9.301   2.919   9.498  0.6361 -0.5090  0.7181
  345MOL0     C46496   9.206   2.957   9.595  0.2479 -0.4173  0.0912
  345MOL0     C46497   9.089   3.025   9.564 -0.0150  0.0155 -0.1226
  345MOL0     O46498   8.998   3.056   9.665 -0.0552  0.1029 -0.2081
  345MOL0     C46499   8.867   3.087   9.643  0.7821 -0.1615  0.6705
  345MOL0     C46500   8.795   3.080   9.781 -0.4868  0.2034  0.5852
  345MOL0     C46501   8.644   3.062   9.761 -0.4961  0.5142  0.5508
  345MOL0     C46502   8.594   2.999   9.886  0.1625 -0.5723  0.5415
  345MOL0     C46503   8.455   2.980   9.859 -0.8328 -0.5413 -0.3024
  345MOL0     C46504   8.342   2.987   9.823  0.4526 -0.4630 -0.0400
  345MOL0     C46505   9.062   3.058   9.429 -0.5312  0.5170 -0.7547
  345MOL0     C46506   9.163   3.019   9.332  0.1263  0.3475 -0.5319
  345MOL0     C46507   9.164   3.085   9.192  0.4788 -0.0814 -0.7234
  345MOL0     H46508   9.469   2.589   9.251  1.0554  0.5466  1.3850
  345MOL0     H46509   9.642   2.459   9.135  0.1317  0.3045 -0.2685
  345MOL0     H46510  10.051   2.603   9.110 -0.7313  0.3485  0.0223
  345MOL0     H46511  10.031   2.458   9.020  0.7786  0.2457 -2.4927
  345MOL0     H46512  10.168   2.620   8.898 -0.1762  1.4306  2.5827
  345MOL0     H46513  10.049   2.743   8.919  0.1332  0.3631  1.0417
  345MOL0     H46514  10.030   2.640   8.677 -0.6736 -2.1114 -1.6002
  345MOL0     H46515   9.891   2.580   8.773  0.2313  0.3088  2.5416
  345MOL0     H46516  10.150   2.424   8.765 -0.0819 -1.7869 -1.6530
  345MOL0     H46517   9.989   2.361   8.793  0.0389 -2.9364 -2.2700
  345MOL0     H46518   9.934   2.375   8.566 -2.1414  0.0487  5.6205
  345MOL0     H46519  10.083   2.470   8.532 -0.8639  0.2726 -1.6194
  345MOL0     H46520  10.064   2.179   8.611 -0.9875 -0.2961 -2.6481
  345MOL0     H46521  10.112   2.249   8.457  1.9823  0.3272 -0.3391
  345MOL0     H46522  10.267   2.241   8.717  2.3509  1.5558 -0.5535
  345MOL0     H46523  10.300   2.365   8.603 -0.3163 -1.0604  1.1229
  345MOL0     H46524  10.275   2.065   8.545  1.0507 -1.0415 -1.3384
  345MOL0     H46525  10.352   2.186   8.438 -0.8351  1.5864  0.6601
  345MOL0     H46526  10.404   1.964   8.738  0.2932 -0.3731 -0.3486
  345MOL0     H46527  10.644   1.988   8.958 -0.1373  2.3155 -1.1226
  345MOL0     H46528  10.641   1.848   8.850  1.1002  0.3271 -1.7660
  345MOL0     H46529  10.845   1.918   8.743 -1.8727  0.2440 -0.5430
  345MOL0     H46530  10.853   2.047   8.867 -2.0968 -0.7060  4.0878
  345MOL0     H46531  10.838   1.741   8.924  0.3598  1.1669 -3.4892
  345MOL0     H46532  10.855   1.866   9.053 -0.8818  2.2096 -0.8624
  345MOL0     H46533  11.062   1.826   8.833  0.2482  0.8026  0.4162
  345MOL0     H46534  11.073   1.740   8.984  1.7837  1.6232  0.0505
  345MOL0     H46535  11.033   2.188   9.082 -1.1971 -1.3825 -0.6971
  345MOL0     H46536  11.127   2.398   8.983  0.9072  0.4176  0.0524
  345MOL0     H46537  11.542   2.459   8.784  1.1555  1.4191  0.2560
  345MOL0     H46538  11.715   2.617   8.751  0.0061 -0.1094  0.1316
  345MOL0     H46539  11.827   2.930   8.543  1.1877 -1.8799 -2.3330
  345MOL0     H46540  11.724   2.880   8.667 -1.1482  0.9763 -3.1993
  345MOL0     H46541  11.900   2.720   8.745 -0.6874 -0.7895  0.7822
  345MOL0     H46542  11.999   2.744   8.602 -0.1980 -1.3791  1.7483
  345MOL0     H46543  11.936   2.977   8.786 -0.0390  1.4544 -1.1458
  345MOL0     H46544  12.069   2.882   8.834 -0.8448  0.6835 -0.3731
  345MOL0     H46545  12.063   3.056   8.569  2.2938  0.7715 -0.6505
  345MOL0     H46546  12.188   2.935   8.596 -1.7697  1.2326 -4.5264
  345MOL0     H46547  12.225   3.061   8.818  1.7613 -0.5527 -1.3225
  345MOL0     H46548  12.122   3.191   8.751 -0.1695  0.5638 -3.1680
  345MOL0     H46549  12.370   3.091   8.626 -3.2659 -2.6571 -3.2683
  345MOL0     H46550  12.259   3.218   8.562  0.1475  0.8172  0.5688
  345MOL0     H46551  12.360   3.252   8.847  0.1042  1.3204  0.4086
  345MOL0     H46552  12.279   3.362   8.742  0.1832  0.3327  0.7714
  345MOL0     H46553  12.481   3.413   8.618 -3.7317  1.5226  1.2713
  345MOL0     H46554  12.536   3.407   8.788  1.8015 -1.3184 -0.2800
  345MOL0     H46555  11.536   2.704   8.353 -1.8458  1.2694  0.2477
  345MOL0     H46556  11.335   2.589   8.419 -0.7317 -0.2245  1.5068
  345MOL0     H46557  11.308   2.161   8.668  1.3822 -0.2408  0.8940
  345MOL0     H46558  11.236   1.964   8.776  3.5962  0.3428 -0.3300
  345MOL0     H46559   9.885   2.815   9.091 -0.9082  1.1117 -0.9754
  345MOL0     H46560   9.717   2.943   9.208 -1.8916  0.5225  0.9120
  345MOL0     H46561   9.382   2.850   9.518  0.7043 -0.5145  0.4314
  345MOL0     H46562   9.214   2.927   9.699 -0.2689  1.8621  0.8522
  345MOL0     H46563   8.827   3.020   9.567 -0.8738  3.4658 -1.9734
  345MOL0     H46564   8.855   3.188   9.603  1.5897  0.2448  1.4094
  345MOL0     H46565   8.825   3.170   9.836  2.7667 -0.2041 -0.3509
  345MOL0     H46566   8.832   2.992   9.835 -0.2667 -0.8777 -1.2545
  345MOL0     H46567   8.628   2.989   9.681  1.5044 -0.6753  1.1423
  345MOL0     H46568   8.588   3.150   9.730 -1.4573 -0.6304 -1.1313
  345MOL0     H46569   8.645   2.907   9.915 -1.4579 -1.9527 -0.7871
  345MOL0     H46570   8.613   3.077   9.961  0.9701  2.7354 -2.8227
  345MOL0     H46571   8.238   3.003   9.804  0.6268 -0.2790 -0.8829
  345MOL0     H46572   8.987   3.126   9.389  0.5497  2.5584  0.5037
  345MOL0     H46573   9.265   3.118   9.168  1.3260  0.2114  2.6918
  345MOL0     H46574   9.119   3.013   9.124  0.5713 -1.2591  0.4166
  345MOL0     H46575   9.100   3.173   9.188  0.2259 -0.3033 -1.6078
  346MOL0     O46576   4.414  10.872   1.195  0.1726  0.2992 -0.1566
  346MOL0     C46577   4.359  10.880   1.084 -0.3880  0.2758 -0.2918
  346MOL0     O46578   4.422  10.873   0.966 -0.6272  0.4537  0.0662
  346MOL0     C46579   4.556  10.852   0.960  0.5419  0.4829 -0.6368
  346MOL0     C46580   4.647  10.948   0.998  0.0512  0.6413  0.7368
  346MOL0     C46581   4.787  10.930   0.992  0.3684  0.7576  0.5640
  346MOL0     C46582   4.842  10.818   0.937  1.0867 -1.2087  0.1823
  346MOL0     O46583   4.980  10.806   0.927 -0.1208 -1.3105 -0.6398
  346MOL0     C46584   5.039  10.706   0.847  0.4457  0.7916 -0.4880
  346MOL0     C46585   5.182  10.698   0.901 -0.5449 -0.0884  0.5309
  346MOL0     C46586   5.286  10.801   0.836  0.1255 -0.4346 -0.2370
  346MOL0     C46587   5.432  10.771   0.892  0.1315  0.6111  0.4252
  346MOL0     C46588   5.542  10.843   0.824  0.4330 -0.5345  0.3039
  346MOL0     C46589   5.575  10.789   0.681  0.0055 -0.3111  0.0452
  346MOL0     C46590   5.691  10.852   0.618 -0.3329 -0.0092  0.7577
  346MOL0     C46591   5.716  10.787   0.475  0.0347  0.4003 -0.3206
  346MOL0     N46592   5.840  10.828   0.419  0.1053 -0.8971 -0.1162
  346MOL0     C46593   5.969  10.774   0.429 -0.8720  0.7380  0.7657
  346MOL0     C46594   6.056  10.853   0.358  0.1861  0.0253  0.3160
  346MOL0     C46595   6.198  10.818   0.336 -0.1811 -0.3096 -0.7515
  346MOL0     C46596   6.207  10.732   0.207  0.4557 -0.2941  0.2002
  346MOL0     C46597   6.352  10.708   0.174 -0.2117 -0.5336  0.4227
  346MOL0     C46598   6.367  10.623   0.050 -0.2256 -0.6162  0.5300
  346MOL0     O46599   6.500  10.580   0.018  0.5395 -1.0098  0.0987
  346MOL0     C46600   6.596  10.663  -0.028  0.4963  0.4123 -0.8136
  346MOL0     C46601   6.732  10.615  -0.045 -0.7922 -0.2365  0.5651
  346MOL0     C46602   6.831  10.704  -0.091 -0.3413  1.9049  0.0602
  346MOL0     C46603   6.812  10.837  -0.116 -0.2821  0.4328  0.4264
  346MOL0     C46604   6.930  10.919  -0.138 -0.1226 -0.3259  0.2840
  346MOL0     O46605   6.918  11.056  -0.112  0.0842 -0.5793  0.6661
  346MOL0     C46606   7.028  11.137  -0.080 -0.4913 -0.3412 -0.7089
  346MOL0     C46607   7.153  11.085  -0.041 -0.1551 -0.1808  0.4134
  346MOL0     C46608   7.254  11.173  -0.005 -0.9754 -0.3135  0.2893
  346MOL0     C46609   7.231  11.312   0.004  0.7936 -0.1093  0.7217
  346MOL0     O46610   7.336  11.397   0.058  1.0918  0.1231  0.2565
  346MOL0     C46611   7.297  11.537   0.094 -0.1268  0.3580  0.2749
  346MOL0     C46612   7.400  11.589   0.186  0.7659  0.6297  0.0555
  346MOL0     C46613   7.532  11.610   0.114  0.8670 -0.5818 -0.4092
  346MOL0     C46614   7.647  11.651   0.211 -0.5388 -0.8730 -0.3062
  346MOL0     C46615   7.765  11.700   0.132 -0.0100  0.0383 -0.4624
  346MOL0     C46616   7.853  11.791   0.221  0.0061 -0.3415 -0.4892
  346MOL0     C46617   7.963  11.877   0.158  0.2359 -0.9141 -0.2485
  346MOL0     C46618   8.077  11.802   0.093 -0.3433  0.5221  0.2856
  346MOL0    Cl46619   8.135  11.677   0.215 -0.3479 -0.4154 -0.1305
  346MOL0     C46620   7.113  11.365  -0.045  0.1867  0.6872 -0.7622
  346MOL0     C46621   7.012  11.279  -0.076  0.0658  1.1491  0.1746
  346MOL0     O46622   7.026  10.852  -0.181 -0.7436  0.2301  0.1897
  346MOL0     C46623   6.676  10.884  -0.100  0.1251  0.5554  0.1014
  346MOL0     C46624   6.572  10.799  -0.052  0.3249  0.3786  0.2682
  346MOL0     N46625   5.977  10.956   0.309  0.0394  0.4570 -0.2903
  346MOL0     N46626   5.855  10.950   0.353 -0.8691  1.1955 -0.2064
  346MOL0     C46627   4.755  10.715   0.908  0.4487 -0.4698 -0.2215
  346MOL0     C46628   4.616  10.737   0.917 -1.0080 -0.6674 -0.1145
  346MOL0     C46629   4.206  10.901   1.088 -0.4887 -0.6442  0.4277
  346MOL0     C46630   4.147  10.936   1.210  0.8762 -0.7296 -0.4193
  346MOL0     C46631   4.001  10.955   1.226  0.6568  0.4700 -0.0914
  346MOL0     C46632   3.918  10.951   1.117  0.6478 -0.4591 -0.2816
  346MOL0     O46633   3.784  10.991   1.134  0.3867 -0.3202  0.2122
  346MOL0     C46634   3.696  10.939   1.031  0.6455  0.0037  0.4352
  346MOL0     C46635   3.549  10.946   1.065  0.3364  0.3075  0.3204
  346MOL0     C46636   3.517  11.094   1.101 -0.2707 -0.6354  0.3658
  346MOL0     C46637   3.378  11.119   1.147  0.9256  0.0390 -0.1033
  346MOL0     C46638   3.344  11.262   1.159  0.2726 -0.3014  0.6646
  346MOL0     C46639   3.311  11.380   1.167 -0.0906  0.8096 -0.1490
  346MOL0     C46640   3.983  10.909   0.996 -0.6076 -0.0302 -0.0777
  346MOL0     C46641   4.124  10.895   0.976 -0.5747  0.1495  0.2914
  346MOL0     C46642   4.180  10.871   0.839 -0.3276 -0.4859 -0.1348
  346MOL0     H46643   4.619  11.042   1.044 -1.0282 -0.0479  1.5610
  346MOL0     H46644   4.855  11.000   1.039  0.3477  1.7745 -0.8460
  346MOL0     H46645   4.989  10.608   0.846 -0.5065  1.2588 -1.6892
  346MOL0     H46646   5.032  10.742   0.744 -1.6075  2.7168  0.2562
  346MOL0     H46647   5.221  10.596   0.896  3.0285  1.2122 -1.3174
  346MOL0     H46648   5.178  10.723   1.008  0.6464 -0.8117  0.7587
  346MOL0     H46649   5.264  10.906   0.857 -1.8712 -0.8187 -0.2254
  346MOL0     H46650   5.290  10.792   0.727  2.7592  0.5238 -0.2990
  346MOL0     H46651   5.428  10.803   0.997 -1.5346  0.8757  0.3171
  346MOL0     H46652   5.456  10.665   0.907 -1.1785  0.4952  1.9940
  346MOL0     H46653   5.515  10.949   0.821 -0.2494 -0.7295 -0.9253
  346MOL0     H46654   5.628  10.832   0.890 -0.2873  0.1187  1.3812
  346MOL0     H46655   5.578  10.680   0.689  0.4164 -0.3391 -0.4424
  346MOL0     H46656   5.499  10.814   0.607 -1.4628  0.3204  1.6946
  346MOL0     H46657   5.771  10.819   0.686 -0.4375 -0.7252  0.5466
  346MOL0     H46658   5.685  10.961   0.610  0.6445 -0.0966 -2.5402
  346MOL0     H46659   5.706  10.679   0.480 -1.4692  0.5442  0.3980
  346MOL0     H46660   5.635  10.826   0.412  0.1612  2.2790  0.6152
  346MOL0     H46661   5.991  10.676   0.469 -0.3537 -0.0336 -1.2701
  346MOL0     H46662   6.265  10.903   0.319  0.8314 -1.3292 -2.0698
  346MOL0     H46663   6.231  10.767   0.427 -0.4271  1.4583  0.3846
  346MOL0     H46664   6.161  10.636   0.231  2.3632 -1.6414 -1.2672
  346MOL0     H46665   6.145  10.767   0.125 -0.1579 -0.6180  0.5195
  346MOL0     H46666   6.396  10.661   0.262  2.9769  1.5874  0.1559
  346MOL0     H46667   6.400  10.805   0.156  0.1728 -1.0184 -1.3118
  346MOL0     H46668   6.326  10.674  -0.037 -0.3778 -1.2022  0.2522
  346MOL0     H46669   6.302  10.536   0.062 -1.6269  0.2890 -0.2149
  346MOL0     H46670   6.774  10.519  -0.019 -1.6846 -2.0575 -3.8351
  346MOL0     H46671   6.930  10.660  -0.103 -0.9130  0.8570 -1.0528
  346MOL0     H46672   7.162  10.978  -0.028  0.5967 -0.2741 -0.7550
  346MOL0     H46673   7.347  11.135   0.036 -2.4037 -0.6463  3.5381
  346MOL0     H46674   7.289  11.605   0.009 -0.1946  2.7388  2.0797
  346MOL0     H46675   7.204  11.540   0.151 -1.1345  0.0662 -1.3078
  346MOL0     H46676   7.364  11.682   0.230 -0.1491 -0.3761  1.5094
  346MOL0     H46677   7.407  11.516   0.268 -3.6867 -0.2852 -0.1484
  346MOL0     H46678   7.560  11.520   0.058 -1.5994 -0.9785 -1.1386
  346MOL0     H46679   7.512  11.696   0.048 -2.4277 -0.0460  1.0578
  346MOL0     H46680   7.675  11.567   0.275 -2.3181 -0.1387  1.5287
  346MOL0     H46681   7.622  11.721   0.292  1.1040  1.2069 -1.4717
  346MOL0     H46682   7.736  11.755   0.042  0.0264 -0.0776 -0.5454
  346MOL0     H46683   7.822  11.611   0.104  2.5702  1.5718 -0.4509
  346MOL0     H46684   7.790  11.858   0.281  1.6157  0.4309  0.4099
  346MOL0     H46685   7.900  11.729   0.299 -0.4477 -0.4048 -0.2581
  346MOL0     H46686   8.005  11.929   0.245  0.7823 -1.4391 -0.1885
  346MOL0     H46687   7.929  11.951   0.085  0.0391  0.8775  1.5682
  346MOL0     H46688   8.040  11.762  -0.002  0.0751 -1.7075  1.0076
  346MOL0     H46689   8.160  11.867   0.062  0.5338 -1.3785 -1.5449
  346MOL0     H46690   7.101  11.472  -0.054  2.0259  0.8249 -2.1068
  346MOL0     H46691   6.919  11.334  -0.088 -0.7472  0.5177  2.9020
  346MOL0     H46692   6.653  10.988  -0.119 -0.9808  0.1142 -1.1392
  346MOL0     H46693   6.473  10.843  -0.047  0.8345  1.4803  1.0548
  346MOL0     H46694   4.793  10.624   0.864 -0.0314 -0.6786 -0.2056
  346MOL0     H46695   4.551  10.656   0.885  1.0089 -1.9195 -1.3034
  346MOL0     H46696   4.219  10.958   1.288 -0.7144  0.8183  0.7033
  346MOL0     H46697   3.956  10.978   1.322  1.0213 -0.7726  0.4092
  346MOL0     H46698   3.716  10.833   1.010 -0.3815  0.1000 -1.2520
  346MOL0     H46699   3.711  10.990   0.935  1.2159 -0.0818  0.4781
  346MOL0     H46700   3.524  10.876   1.146 -0.5370 -0.6887 -0.7732
  346MOL0     H46701   3.478  10.920   0.986 -2.2327  3.0936  1.5114
  346MOL0     H46702   3.523  11.147   1.006  2.2064 -2.0117 -0.3205
  346MOL0     H46703   3.585  11.135   1.177  0.2503 -0.8162  0.0005
  346MOL0     H46704   3.313  11.060   1.081  0.3519 -0.1215  0.5786
  346MOL0     H46705   3.364  11.073   1.246 -1.5595  1.2423  0.1953
  346MOL0     H46706   3.270  11.476   1.190 -3.9913 -1.1447  2.0440
  346MOL0     H46707   3.921  10.908   0.907 -1.3488 -0.8905  0.4281
  346MOL0     H46708   4.095  10.882   0.770 -0.6610  0.0464  0.3445
  346MOL0     H46709   4.256  10.942   0.804  2.0980 -2.0887  1.5786
  346MOL0     H46710   4.222  10.771   0.831  4.6960  1.3359 -0.1883
  347MOL0     O46711   8.531   2.288   5.416  0.2867  0.1696 -0.2524
  347MOL0     C46712   8.491   2.263   5.305  0.4421 -0.0139 -0.2224
  347MOL0     O46713   8.565   2.277   5.186 -0.4471 -0.0107 -0.1671
  347MOL0     C46714   8.694   2.319   5.187  0.1852  0.2046 -0.1304
  347MOL0     C46715   8.740   2.406   5.085  0.0930 -0.1272 -0.7854
  347MOL0     C46716   8.874   2.452   5.080 -0.4532  0.7748 -0.1714
  347MOL0     C46717   8.964   2.398   5.171  0.6189 -0.6881  0.6180
  347MOL0     O46718   9.086   2.454   5.152  0.4444 -0.0098 -0.4413
  347MOL0     C46719   9.177   2.459   5.258 -0.1975 -0.7139 -0.2456
  347MOL0     C46720   9.305   2.528   5.208  0.6441 -0.0534 -0.7033
  347MOL0     C46721   9.281   2.678   5.188 -0.3294  0.8772 -0.2958
  347MOL0     C46722   9.413   2.752   5.163  1.3258  0.2005 -0.4993
  347MOL0     C46723   9.388   2.894   5.105  1.0287 -0.0236  0.3767
  347MOL0     C46724   9.527   2.946   5.069 -1.2298 -0.3267 -0.0578
  347MOL0     C46725   9.516   3.085   5.010  0.1283 -1.4252  0.3623
  347MOL0     C46726   9.456   3.198   5.111  0.4467  0.2435  1.0610
  347MOL0     N46727   9.502   3.330   5.068  0.2145  0.7959  1.0972
  347MOL0     C46728   9.608   3.400   5.114 -0.7529  0.3371  0.0731
  347MOL0     C46729   9.611   3.509   5.041  0.2328  0.2984 -0.2923
  347MOL0     C46730   9.721   3.609   5.030 -0.3197  0.6754  0.3128
  347MOL0     C46731   9.660   3.749   5.015 -0.3998 -0.7909  0.0955
  347MOL0     C46732   9.775   3.853   4.997 -0.2613 -0.0107  0.1032
  347MOL0     C46733   9.857   3.881   5.123 -0.7303  0.5214  0.0529
  347MOL0     O46734   9.782   3.978   5.210 -0.5132  0.1978  0.2649
  347MOL0     C46735   9.870   4.073   5.258 -0.5519 -0.9601 -0.1920
  347MOL0     C46736   9.825   4.203   5.252 -1.2183 -0.4452 -0.4060
  347MOL0     C46737   9.903   4.309   5.302  0.0491 -1.0735 -0.3408
  347MOL0     C46738  10.034   4.282   5.358 -0.6539 -0.5764  0.0078
  347MOL0     C46739  10.127   4.394   5.393  0.9485 -0.4885 -0.9751
  347MOL0     O46740  10.244   4.359   5.440 -0.4925  0.0460 -0.7376
  347MOL0     C46741  10.308   4.422   5.541 -0.6037  0.3398 -0.1161
  347MOL0     C46742  10.437   4.381   5.572  0.3327  0.2641 -0.4759
  347MOL0     C46743  10.513   4.429   5.675 -0.3482 -0.2719 -0.7778
  347MOL0     C46744  10.459   4.546   5.743 -0.3979  0.4341 -0.2923
  347MOL0     O46745  10.525   4.621   5.839 -0.7168  0.6608  0.4610
  347MOL0     C46746  10.654   4.577   5.876 -0.2239 -0.1225 -1.4438
  347MOL0     C46747  10.740   4.684   5.946 -0.1715 -0.9412  1.0618
  347MOL0     C46748  10.875   4.621   5.996  0.0182  0.6805 -0.0005
  347MOL0     C46749  10.975   4.734   6.019  0.0628 -0.5632 -0.1605
  347MOL0     C46750  11.110   4.683   6.068 -0.6616  0.5532 -0.4670
  347MOL0     C46751  11.184   4.798   6.130  0.2893 -0.1428  0.6946
  347MOL0     C46752  11.330   4.763   6.155 -0.0700  0.0326 -0.4204
  347MOL0     C46753  11.403   4.866   6.234 -0.3600  0.0740  0.9172
  347MOL0    Cl46754  11.579   4.815   6.262 -0.3015 -0.4105 -0.1317
  347MOL0     C46755  10.333   4.596   5.710  0.1216  0.7573 -0.0707
  347MOL0     C46756  10.257   4.530   5.617  0.6464 -0.2846  0.0599
  347MOL0     O46757  10.096   4.510   5.364  0.1312 -0.0262  0.4227
  347MOL0     C46758  10.082   4.152   5.340  0.0066 -0.5245  0.2160
  347MOL0     C46759  10.001   4.053   5.290 -0.9469  0.1393 -0.2928
  347MOL0     N46760   9.513   3.498   4.943  0.0030 -0.3469  0.4674
  347MOL0     N46761   9.444   3.394   4.965  0.6588  0.6187 -0.2339
  347MOL0     C46762   8.923   2.308   5.274  0.9411 -0.2642  0.2348
  347MOL0     C46763   8.786   2.265   5.279 -0.5044 -0.1666  0.1488
  347MOL0     C46764   8.352   2.216   5.301  0.1237  0.5519  0.1632
  347MOL0     C46765   8.292   2.150   5.418 -0.0312  0.2973 -0.1956
  347MOL0     C46766   8.163   2.108   5.418 -0.1104  0.3571  0.0438
  347MOL0     C46767   8.080   2.140   5.316 -0.3476 -0.4035  0.7714
  347MOL0     O46768   7.954   2.098   5.324 -0.5853 -0.6329  0.7539
  347MOL0     C46769   7.859   2.100   5.217 -0.3113 -1.0232  0.1349
  347MOL0     C46770   7.800   2.241   5.208  0.8054 -0.5371  0.5052
  347MOL0     C46771   7.732   2.285   5.332 -0.0685 -0.6758 -0.7265
  347MOL0     C46772   7.591   2.240   5.331  0.6801  0.5238  0.1925
  347MOL0     C46773   7.518   2.318   5.428  0.3464  0.1224  0.3524
  347MOL0     C46774   7.462   2.395   5.507 -0.9332 -0.2584 -0.7099
  347MOL0     C46775   8.133   2.210   5.205  0.9293  1.2037 -0.0890
  347MOL0     C46776   8.258   2.241   5.192  0.2622  0.4294 -0.3171
  347MOL0     C46777   8.294   2.325   5.073  1.1246  0.3320  0.6557
  347MOL0     H46778   8.667   2.456   5.022  1.3868  1.3925 -1.1285
  347MOL0     H46779   8.903   2.535   5.016 -0.1664  0.2703 -0.7094
  347MOL0     H46780   9.145   2.513   5.347  0.8636  0.3930 -0.5049
  347MOL0     H46781   9.194   2.356   5.291  1.2482 -1.0918 -2.0267
  347MOL0     H46782   9.338   2.478   5.116 -0.4388  0.7317 -1.5441
  347MOL0     H46783   9.381   2.503   5.283 -2.3479 -1.3383  2.1430
  347MOL0     H46784   9.227   2.716   5.275  0.0435 -0.6048  0.6147
  347MOL0     H46785   9.226   2.694   5.095 -1.1930 -0.1219  0.0125
  347MOL0     H46786   9.464   2.759   5.260 -1.0467 -2.1582  1.0948
  347MOL0     H46787   9.471   2.686   5.098 -1.8633 -0.8256 -2.5953
  347MOL0     H46788   9.333   2.887   5.011  0.2087  0.6490  0.7992
  347MOL0     H46789   9.325   2.951   5.174 -0.7658 -0.6336 -0.6910
  347MOL0     H46790   9.576   2.959   5.167 -2.2351  1.0221  0.3050
  347MOL0     H46791   9.593   2.877   5.016  1.3433  1.6660  0.3132
  347MOL0     H46792   9.470   3.072   4.912  3.1770 -0.0006 -1.3992
  347MOL0     H46793   9.608   3.135   4.978 -0.6459 -0.2051 -0.0436
  347MOL0     H46794   9.347   3.196   5.109  0.4436  0.4887 -0.9042
  347MOL0     H46795   9.485   3.185   5.216  1.0288  0.2603  0.9100
  347MOL0     H46796   9.679   3.363   5.188  2.1728  0.2038 -2.6153
  347MOL0     H46797   9.785   3.609   5.118  0.7511  1.6968 -0.4342
  347MOL0     H46798   9.771   3.580   4.937 -1.7729  2.6271 -1.1792
  347MOL0     H46799   9.599   3.754   4.925 -2.7955 -3.0419  1.4542
  347MOL0     H46800   9.600   3.776   5.103  1.9335  0.8951  1.2829
  347MOL0     H46801   9.741   3.954   4.970 -2.9590  0.8415  5.3760
  347MOL0     H46802   9.838   3.805   4.922  0.5302  0.2467  0.5780
  347MOL0     H46803   9.954   3.912   5.083  1.3681 -3.6179  1.2753
  347MOL0     H46804   9.879   3.787   5.175 -3.7498  0.2250  0.9649
  347MOL0     H46805   9.726   4.226   5.212  0.0393  1.1598 -2.8258
  347MOL0     H46806   9.855   4.406   5.305  1.6292 -0.2776  0.6449
  347MOL0     H46807  10.480   4.292   5.527  0.0170 -0.1725  0.0767
  347MOL0     H46808  10.605   4.379   5.706 -0.8205 -0.6676  0.0299
  347MOL0     H46809  10.639   4.491   5.942 -2.1371 -0.1907 -1.9125
  347MOL0     H46810  10.717   4.538   5.795 -0.2994 -2.5099 -0.4386
  347MOL0     H46811  10.761   4.763   5.873  1.2836  0.3973  2.8396
  347MOL0     H46812  10.688   4.738   6.025  1.6581  1.1727  0.9233
  347MOL0     H46813  10.855   4.574   6.092  0.9344  0.2468 -0.0115
  347MOL0     H46814  10.924   4.547   5.932  0.9728 -0.3395  1.8446
  347MOL0     H46815  10.941   4.815   6.084 -1.5705 -2.8667  2.0592
  347MOL0     H46816  11.008   4.779   5.925 -0.3608  1.5919  0.6561
  347MOL0     H46817  11.177   4.636   5.995  0.1750  0.3287  0.4231
  347MOL0     H46818  11.099   4.608   6.147 -0.2820  0.5267 -0.4395
  347MOL0     H46819  11.175   4.887   6.068 -2.4316 -0.0994  1.0062
  347MOL0     H46820  11.136   4.825   6.225  0.0433  0.0397  0.5189
  347MOL0     H46821  11.377   4.750   6.057 -0.4690 -0.5622 -0.5351
  347MOL0     H46822  11.344   4.672   6.214 -0.6640  0.7122  0.8040
  347MOL0     H46823  11.404   4.959   6.177  0.9688  0.4085  1.4391
  347MOL0     H46824  11.348   4.888   6.326 -0.5354 -0.8097  1.0268
  347MOL0     H46825  10.297   4.685   5.760  1.2405  1.2155 -0.0342
  347MOL0     H46826  10.157   4.569   5.604  1.0557  0.1973 -1.9551
  347MOL0     H46827  10.178   4.117   5.377 -0.8757 -1.6921  1.4277
  347MOL0     H46828  10.045   3.954   5.281  1.5282  1.3148 -2.4494
  347MOL0     H46829   8.986   2.278   5.358 -1.2261 -1.2219  1.6246
  347MOL0     H46830   8.747   2.211   5.364  0.5909 -1.8224 -0.3563
  347MOL0     H46831   8.349   2.124   5.507 -1.0355 -2.4022 -0.2632
  347MOL0     H46832   8.139   2.038   5.498  3.6723  1.1132  2.1174
  347MOL0     H46833   7.785   2.022   5.234 -1.1874  0.1572  2.0328
  347MOL0     H46834   7.901   2.064   5.123  0.0737 -1.5521  0.5043
  347MOL0     H46835   7.724   2.246   5.129 -0.6052  0.4675  1.8602
  347MOL0     H46836   7.882   2.311   5.187  1.8107 -1.3445  1.6233
  347MOL0     H46837   7.739   2.391   5.356  2.8566 -0.6503 -1.3119
  347MOL0     H46838   7.768   2.230   5.420 -0.3650 -0.4463 -0.4653
  347MOL0     H46839   7.546   2.255   5.233  0.5612  1.3694  0.3726
  347MOL0     H46840   7.581   2.136   5.365 -2.6219  1.6419  3.3435
  347MOL0     H46841   7.397   2.471   5.544 -0.6069  0.3987 -1.4507
  347MOL0     H46842   8.058   2.233   5.130 -3.1241 -1.5387  2.6914
  347MOL0     H46843   8.201   2.366   5.035  1.6761  1.7598  0.7638
  347MOL0     H46844   8.358   2.411   5.096  0.5643  0.6649  0.9840
  347MOL0     H46845   8.341   2.266   4.994 -0.0769  1.9936 -1.4001
  348MOL0     O46846   3.386   3.256   4.296 -0.1478 -0.2810  0.3265
  348MOL0     C46847   3.408   3.161   4.225  0.0849  0.5270 -0.4423
  348MOL0     O46848   3.531   3.100   4.211 -0.4870  0.4364  0.8664
  348MOL0     C46849   3.638   3.156   4.281 -1.0090 -0.0383 -0.0518
  348MOL0     C46850   3.672   3.298   4.293  0.0382  0.0287  0.3068
  348MOL0     C46851   3.791   3.331   4.363 -0.7153 -0.1994 -0.8007
  348MOL0     C46852   3.867   3.230   4.423  0.2101  0.4764  0.3393
  348MOL0     O46853   3.985   3.270   4.481 -0.4678  0.1162 -0.1236
  348MOL0     C46854   4.070   3.163   4.536  0.8718  0.5487 -0.6167
  348MOL0     C46855   4.199   3.226   4.585 -0.9179  0.4651 -0.0908
  348MOL0     C46856   4.266   3.301   4.480  0.5050 -0.6708  0.8593
  348MOL0     C46857   4.406   3.355   4.518  0.4308  0.0992 -0.1512
  348MOL0     C46858   4.470   3.430   4.410 -0.9216 -0.5099 -0.0980
  348MOL0     C46859   4.622   3.457   4.433 -0.4528  0.6151 -0.5550
  348MOL0     C46860   4.681   3.528   4.315  0.4880 -0.4697  1.1125
  348MOL0     C46861   4.830   3.543   4.333  0.1697 -0.7005  0.5880
  348MOL0     N46862   4.899   3.417   4.322 -0.5332 -0.4341 -0.1237
  348MOL0     C46863   5.006   3.386   4.404 -0.3932 -0.3604  0.4299
  348MOL0     C46864   5.015   3.243   4.404 -0.6134  0.0990  0.2131
  348MOL0     C46865   5.120   3.158   4.480  0.4394  0.3047  0.1710
  348MOL0     C46866   5.236   3.123   4.383  0.1742 -0.9930 -0.0740
  348MOL0     C46867   5.313   3.254   4.348 -0.8665  0.6155 -0.3002
  348MOL0     C46868   5.445   3.219   4.281 -0.5833 -0.6268 -0.1066
  348MOL0     O46869   5.527   3.334   4.272 -0.2658 -0.1521 -0.3098
  348MOL0     C46870   5.668   3.328   4.281 -0.1484 -0.3492 -0.0098
  348MOL0     C46871   5.731   3.455   4.251 -0.0346  0.9133  0.0673
  348MOL0     C46872   5.868   3.460   4.222 -0.1698 -0.1988  0.1356
  348MOL0     C46873   5.943   3.339   4.223 -0.2288  0.9297 -0.8568
  348MOL0     C46874   6.094   3.331   4.191  0.0468 -0.1719 -0.3094
  348MOL0     O46875   6.154   3.204   4.181 -0.5162  0.3278  0.0438
  348MOL0     C46876   6.290   3.187   4.152  0.3979 -1.1518 -0.3008
  348MOL0     C46877   6.347   3.268   4.061  0.0098 -0.2786 -0.0196
  348MOL0     C46878   6.478   3.247   4.022 -0.2027  1.3834  0.5049
  348MOL0     C46879   6.543   3.121   4.060  0.7540 -0.1133  0.1294
  348MOL0     O46880   6.668   3.089   3.999 -0.1777  0.1240 -0.2184
  348MOL0     C46881   6.730   2.974   4.069 -0.5330 -0.5195  1.0145
  348MOL0     C46882   6.872   2.955   4.005  0.5084  0.2531  0.0764
  348MOL0     C46883   6.952   3.083   4.011 -0.3111  0.9424 -0.3302
  348MOL0     C46884   7.083   3.052   3.937  0.3187 -0.1202  0.2740
  348MOL0     C46885   7.166   3.176   3.913 -0.7501 -0.6481 -0.2128
  348MOL0     C46886   7.273   3.146   3.808 -0.9874 -0.4302 -0.0400
  348MOL0     C46887   7.398   3.237   3.833  0.3209  0.0850  1.0227
  348MOL0     C46888   7.475   3.253   3.701 -0.3483  0.2977  0.1263
  348MOL0    Cl46889   7.567   3.107   3.662  0.1487  0.6328  0.2183
  348MOL0     C46890   6.483   3.045   4.164 -0.0888 -0.7053  0.2072
  348MOL0     C46891   6.355   3.076   4.210  0.8256 -1.0986 -0.2485
  348MOL0     O46892   6.146   3.441   4.203 -0.2199 -0.2725  0.0753
  348MOL0     C46893   5.887   3.215   4.263  0.8391 -0.4668 -0.4906
  348MOL0     C46894   5.747   3.210   4.286  0.3658  0.3407  0.2772
  348MOL0     N46895   4.926   3.204   4.309  0.3158  0.0396  0.5437
  348MOL0     N46896   4.865   3.308   4.249 -0.5367 -0.8460 -0.0134
  348MOL0     C46897   3.822   3.101   4.433  0.4371 -0.4202  0.3622
  348MOL0     C46898   3.712   3.064   4.355  0.4256 -0.7035  0.2089
  348MOL0     C46899   3.298   3.086   4.166 -0.6299  0.2048  0.1363
  348MOL0     C46900   3.318   2.971   4.086  0.1621  0.3283  0.1963
  348MOL0     C46901   3.213   2.900   4.025 -0.2850  0.0242 -0.2260
  348MOL0     C46902   3.086   2.932   4.056  0.0883  0.0751  0.3684
  348MOL0     O46903   2.989   2.853   4.006  0.0858  0.1724  0.2798
  348MOL0     C46904   2.848   2.859   4.053  0.7284 -0.2165  0.0738
  348MOL0     C46905   2.769   2.965   3.979 -0.1372  0.3102  0.3499
  348MOL0     C46906   2.632   2.980   4.031 -1.4420  0.4803  0.6879
  348MOL0     C46907   2.561   3.088   3.944  0.1059 -0.0921 -0.3595
  348MOL0     C46908   2.420   3.052   3.923  0.2623  0.6220 -0.3605
  348MOL0     C46909   2.301   3.033   3.902  0.3406  0.2166 -0.2720
  348MOL0     C46910   3.059   3.031   4.147 -0.5477 -0.5120 -0.4341
  348MOL0     C46911   3.157   3.117   4.197  0.3699 -0.4166  0.3650
  348MOL0     C46912   3.102   3.233   4.276  0.3392 -0.2925 -0.7985
  348MOL0     H46913   3.603   3.360   4.238 -0.5130 -0.5894  0.2875
  348MOL0     H46914   3.817   3.435   4.382 -0.4804 -0.9389  4.5059
  348MOL0     H46915   4.024   3.120   4.625 -0.4597 -0.7130 -1.8571
  348MOL0     H46916   4.080   3.078   4.467 -2.2553 -0.9536  0.5588
  348MOL0     H46917   4.260   3.149   4.632 -2.9302  0.5386  2.9383
  348MOL0     H46918   4.176   3.295   4.667 -1.1809 -0.0372  0.2637
  348MOL0     H46919   4.207   3.389   4.453  0.4992 -0.9146  0.0628
  348MOL0     H46920   4.272   3.249   4.384  0.7929 -1.3994  1.2612
  348MOL0     H46921   4.406   3.422   4.605  3.7229 -0.4067  0.3391
  348MOL0     H46922   4.468   3.269   4.544 -0.3374 -0.7662 -1.1044
  348MOL0     H46923   4.455   3.359   4.328 -0.1377 -2.4867  1.4122
  348MOL0     H46924   4.417   3.522   4.382 -0.6348  0.1107  1.2970
  348MOL0     H46925   4.627   3.516   4.526 -0.7673 -2.1497  1.3312
  348MOL0     H46926   4.668   3.360   4.449 -0.5398  0.9121  1.9057
  348MOL0     H46927   4.639   3.628   4.305 -0.7905 -0.9633  1.3365
  348MOL0     H46928   4.670   3.478   4.219  1.4818  1.1044  0.1413
  348MOL0     H46929   4.855   3.598   4.242  1.6502 -3.2859 -0.6801
  348MOL0     H46930   4.857   3.587   4.430 -1.4867 -2.7317  2.0608
  348MOL0     H46931   5.077   3.450   4.454  1.0917 -2.4525  1.1257
  348MOL0     H46932   5.158   3.214   4.566 -1.3191  1.6371  0.1429
  348MOL0     H46933   5.075   3.066   4.520  2.2790 -1.7263 -2.1222
  348MOL0     H46934   5.297   3.053   4.441  0.9123  1.8093  2.8245
  348MOL0     H46935   5.200   3.078   4.290 -1.0018  0.5868 -0.4305
  348MOL0     H46936   5.326   3.314   4.439 -0.8799 -1.6597  1.2989
  348MOL0     H46937   5.268   3.319   4.273 -0.6324 -0.2445 -1.2181
  348MOL0     H46938   5.422   3.180   4.182  2.2036 -1.5339 -0.4633
  348MOL0     H46939   5.491   3.139   4.340 -3.0261 -1.5336  0.7065
  348MOL0     H46940   5.671   3.546   4.252 -1.6529 -0.0966  2.4045
  348MOL0     H46941   5.906   3.557   4.193 -0.3691 -0.5210 -1.2871
  348MOL0     H46942   6.294   3.351   4.014  1.4510  0.5900 -0.1666
  348MOL0     H46943   6.524   3.320   3.957 -2.6881  2.5899 -0.0351
  348MOL0     H46944   6.747   2.988   4.176 -1.4660 -1.6660  1.3369
  348MOL0     H46945   6.674   2.880   4.065 -0.8612 -0.3700  1.8808
  348MOL0     H46946   6.932   2.876   4.052  1.5696  0.3833 -1.0015
  348MOL0     H46947   6.849   2.917   3.905 -1.2862  0.4056  0.3893
  348MOL0     H46948   6.907   3.165   3.954 -0.4750  0.7690 -0.4512
  348MOL0     H46949   6.979   3.116   4.112  0.6105 -0.5006 -0.0691
  348MOL0     H46950   7.057   2.995   3.847 -2.2137 -2.1885  2.1522
  348MOL0     H46951   7.153   2.988   3.992  1.6626  1.0920  0.0148
  348MOL0     H46952   7.221   3.196   4.005  0.6667 -0.4607 -1.0648
  348MOL0     H46953   7.111   3.262   3.873 -0.5248 -1.6263 -2.8061
  348MOL0     H46954   7.300   3.040   3.809 -0.2548 -0.2987  2.9383
  348MOL0     H46955   7.235   3.178   3.710  1.7082 -0.6830 -1.2636
  348MOL0     H46956   7.463   3.185   3.905 -0.1241 -3.1661 -0.7356
  348MOL0     H46957   7.372   3.334   3.875  0.8757  0.8055 -0.2466
  348MOL0     H46958   7.415   3.262   3.610  1.2810  0.7681 -0.9598
  348MOL0     H46959   7.543   3.339   3.709  2.0249 -0.8619 -4.3364
  348MOL0     H46960   6.534   2.960   4.208  0.8194  0.3281  1.2319
  348MOL0     H46961   6.308   3.015   4.287  0.0470 -2.9251 -2.0724
  348MOL0     H46962   5.939   3.122   4.285  0.8840 -0.5969 -1.1280
  348MOL0     H46963   5.706   3.115   4.318 -0.3765  0.2822 -0.7777
  348MOL0     H46964   3.864   3.019   4.491 -0.0575 -1.0480 -0.1424
  348MOL0     H46965   3.682   2.960   4.345  2.1854 -1.1899 -0.4265
  348MOL0     H46966   3.417   2.935   4.062  0.9038  1.1185  1.9051
  348MOL0     H46967   3.229   2.812   3.963  0.4132  0.1926 -0.2903
  348MOL0     H46968   2.844   2.888   4.159  2.8541 -1.0119  0.4189
  348MOL0     H46969   2.799   2.763   4.037 -1.0375  1.0067 -2.5929
  348MOL0     H46970   2.760   2.937   3.873 -0.1674  0.1187  0.4031
  348MOL0     H46971   2.825   3.058   3.996 -0.7671  0.7821 -0.0965
  348MOL0     H46972   2.636   3.009   4.136  3.8070  0.1819  0.8600
  348MOL0     H46973   2.591   2.879   4.035 -0.0019 -0.2156 -0.8165
  348MOL0     H46974   2.558   3.184   3.997  0.0793 -0.9720  1.2963
  348MOL0     H46975   2.606   3.102   3.845 -1.4616 -2.3545 -1.4578
  348MOL0     H46976   2.198   3.028   3.871  0.3506  2.9235 -1.0017
  348MOL0     H46977   2.955   3.045   4.174 -1.3635 -0.3918 -3.3074
  348MOL0     H46978   3.132   3.236   4.382  0.9091 -1.5881 -0.9013
  348MOL0     H46979   3.137   3.324   4.227 -1.8325  0.2787 -1.3701
  348MOL0     H46980   2.994   3.230   4.264  0.5337 -2.2388 -2.6773
  349MOL0     O46981   7.978   2.553   7.981  0.2866 -0.5189  0.0141
  349MOL0     C46982   8.080   2.618   8.011 -0.6632  0.0075 -0.1751
  349MOL0     O46983   8.083   2.735   8.083  0.0110 -0.0214 -0.3871
  349MOL0     C46984   7.964   2.780   8.138 -0.2506  0.0132 -0.5147
  349MOL0     C46985   7.854   2.801   8.054  0.6454 -0.3343 -0.1084
  349MOL0     C46986   7.740   2.849   8.113  0.4869 -0.1007  0.0425
  349MOL0     C46987   7.728   2.874   8.250 -0.4575 -0.4730 -0.3417
  349MOL0     O46988   7.612   2.904   8.318  0.1579  0.6485  0.3665
  349MOL0     C46989   7.504   2.806   8.297 -0.1150 -0.5527 -0.2471
  349MOL0     C46990   7.374   2.853   8.354 -0.2246  0.2251 -0.8647
  349MOL0     C46991   7.323   2.975   8.281 -0.2651 -0.5606 -0.5003
  349MOL0     C46992   7.204   3.032   8.351  0.3773 -0.4093  0.9227
  349MOL0     C46993   7.127   3.124   8.252  0.3726 -0.4858  0.6303
  349MOL0     C46994   7.000   3.178   8.313  0.6383  0.1681 -0.4059
  349MOL0     C46995   6.919   3.254   8.211 -1.1347  0.1165 -0.4509
  349MOL0     C46996   6.796   3.323   8.262  0.4566  0.2697  0.8467
  349MOL0     N46997   6.735   3.382   8.143  0.1197 -0.3107 -0.7119
  349MOL0     C46998   6.757   3.502   8.094 -0.6044 -0.8215 -0.1667
  349MOL0     C46999   6.663   3.521   8.001 -0.1000 -0.1777 -0.3786
  349MOL0     C47000   6.655   3.635   7.894  0.5888 -0.5010 -0.5524
  349MOL0     C47001   6.776   3.640   7.802 -0.1746  0.0123 -0.5007
  349MOL0     C47002   6.784   3.759   7.707  0.9980 -0.3918 -0.5585
  349MOL0     C47003   6.916   3.767   7.640 -0.6163  0.1589  0.9974
  349MOL0     O47004   6.948   3.641   7.584 -0.0472 -0.8101  0.0394
  349MOL0     C47005   7.078   3.597   7.554 -0.8377  0.0626  0.2524
  349MOL0     C47006   7.189   3.683   7.557 -0.4153 -0.8937  0.4579
  349MOL0     C47007   7.309   3.642   7.509  0.0168 -0.1316  0.8171
  349MOL0     C47008   7.327   3.508   7.474 -0.2027  0.2282  0.7130
  349MOL0     C47009   7.460   3.454   7.443  0.4458 -0.4810  0.1550
  349MOL0     O47010   7.487   3.330   7.473  0.2278  0.2901 -0.2468
  349MOL0     C47011   7.621   3.291   7.452 -0.7093  0.1894  0.8425
  349MOL0     C47012   7.656   3.231   7.335  0.3720  0.1878  0.6349
  349MOL0     C47013   7.787   3.195   7.310  0.0091 -0.0665  0.2281
  349MOL0     C47014   7.893   3.233   7.394 -0.8451 -0.5680  0.4482
  349MOL0     O47015   8.027   3.194   7.385 -0.0306  0.5230 -0.2794
  349MOL0     C47016   8.084   3.128   7.498  0.1490  0.2745 -0.6042
  349MOL0     C47017   8.208   3.196   7.547  0.1026 -0.3703 -0.2108
  349MOL0     C47018   8.292   3.118   7.647  0.2782 -0.1547  0.3142
  349MOL0     C47019   8.250   3.132   7.799  0.0313  0.0312  0.1941
  349MOL0     C47020   8.365   3.090   7.886 -0.2194 -0.6597  0.0091
  349MOL0     C47021   8.338   3.081   8.031  0.0489  0.1230  0.0427
  349MOL0     C47022   8.463   3.020   8.108 -0.5199 -0.5211  1.0600
  349MOL0     C47023   8.444   3.030   8.258 -0.0950  0.3012 -0.1851
  349MOL0    Cl47024   8.465   3.208   8.314 -0.1912 -0.1265  0.1502
  349MOL0     C47025   7.856   3.294   7.513 -0.0513 -1.0676 -0.4920
  349MOL0     C47026   7.723   3.328   7.539 -0.6165  0.3073  0.5583
  349MOL0     O47027   7.539   3.540   7.400  0.2077 -0.2380 -0.3182
  349MOL0     C47028   7.224   3.421   7.477  0.6831  0.3614  0.3328
  349MOL0     C47029   7.097   3.465   7.509 -0.1638 -0.0372 -0.2866
  349MOL0     N47030   6.588   3.408   7.994 -0.2014 -0.2416 -0.1627
  349MOL0     N47031   6.645   3.321   8.072  1.3412  0.6514  0.1703
  349MOL0     C47032   7.843   2.861   8.329  0.7072  0.6263 -0.6306
  349MOL0     C47033   7.959   2.816   8.274 -1.1040 -0.1785  0.0207
  349MOL0     C47034   8.210   2.576   7.962  0.4311  0.7463 -0.1676
  349MOL0     C47035   8.211   2.494   7.853 -0.5276  0.9302 -0.3105
  349MOL0     C47036   8.335   2.436   7.805  1.1559  0.9766  0.4717
  349MOL0     C47037   8.459   2.473   7.861  0.4450  0.0362 -0.0138
  349MOL0     O47038   8.572   2.416   7.809 -0.2206  0.5956  0.3915
  349MOL0     C47039   8.703   2.455   7.853  0.1721 -0.1553 -0.5805
  349MOL0     C47040   8.746   2.589   7.774  0.7299  0.6870  0.6298
  349MOL0     C47041   8.894   2.621   7.786  0.5327  2.0428 -0.5241
  349MOL0     C47042   8.920   2.761   7.728 -0.5841  0.2239  0.6059
  349MOL0     C47043   8.892   2.785   7.588 -0.4749  0.1958 -0.0985
  349MOL0     C47044   8.877   2.796   7.471 -0.1040 -0.3511  0.6703
  349MOL0     C47045   8.453   2.559   7.975 -0.2471  1.2197 -0.4356
  349MOL0     C47046   8.331   2.602   8.026  0.1444 -0.4489  0.0824
  349MOL0     C47047   8.339   2.677   8.153  0.6578 -0.4873 -0.0765
  349MOL0     H47048   7.857   2.769   7.951 -0.8192  1.0308 -0.6046
  349MOL0     H47049   7.644   2.850   8.062  1.8502 -1.4883 -2.8494
  349MOL0     H47050   7.496   2.784   8.190  3.3489 -0.7222 -0.5952
  349MOL0     H47051   7.529   2.715   8.352  0.9310 -0.2831 -0.2402
  349MOL0     H47052   7.382   2.876   8.461  1.6106  1.4086 -1.1980
  349MOL0     H47053   7.309   2.766   8.338  0.9345 -0.5187 -1.7051
  349MOL0     H47054   7.294   2.947   8.179 -0.2268 -2.5163 -0.0156
  349MOL0     H47055   7.405   3.047   8.270 -0.1226 -0.8687 -1.6306
  349MOL0     H47056   7.138   2.950   8.379  0.3918 -1.3375 -1.4698
  349MOL0     H47057   7.241   3.096   8.432 -0.5552  1.0324  0.2604
  349MOL0     H47058   7.189   3.211   8.230  0.1490 -0.0774  1.5594
  349MOL0     H47059   7.107   3.070   8.159 -0.6679  0.5096  0.2436
  349MOL0     H47060   6.932   3.103   8.355  1.4697 -0.5142 -0.2479
  349MOL0     H47061   7.019   3.252   8.392 -0.4346  2.1030 -1.8781
  349MOL0     H47062   6.902   3.177   8.135  2.6160 -0.6536 -0.6807
  349MOL0     H47063   6.979   3.334   8.165 -0.5741 -0.0950 -0.0916
  349MOL0     H47064   6.734   3.241   8.300  1.3621 -0.3017  1.1542
  349MOL0     H47065   6.823   3.401   8.334  0.6270  2.4183 -1.4371
  349MOL0     H47066   6.827   3.577   8.127 -2.1389  1.0379 -0.9454
  349MOL0     H47067   6.567   3.633   7.830  0.4937  0.3837 -0.4627
  349MOL0     H47068   6.635   3.726   7.951 -0.6905  0.0857 -1.8808
  349MOL0     H47069   6.860   3.640   7.872  0.6689 -1.2331 -1.4714
  349MOL0     H47070   6.793   3.544   7.754  1.7084 -0.6159  1.2964
  349MOL0     H47071   6.768   3.846   7.771 -3.9558 -0.4434 -1.3114
  349MOL0     H47072   6.700   3.762   7.637  1.1230  1.3999 -0.6897
  349MOL0     H47073   6.995   3.802   7.707  1.9385  0.3789 -1.9264
  349MOL0     H47074   6.901   3.839   7.560 -0.3981  1.9737  2.5192
  349MOL0     H47075   7.185   3.788   7.585 -1.3896 -1.6211  3.4773
  349MOL0     H47076   7.392   3.713   7.505  0.6128 -0.6895  2.3969
  349MOL0     H47077   7.580   3.200   7.264  0.8722 -1.3587  0.7498
  349MOL0     H47078   7.805   3.134   7.223 -2.9430 -2.2168  0.9647
  349MOL0     H47079   8.017   3.101   7.580 -0.1292 -0.6100 -1.1044
  349MOL0     H47080   8.120   3.032   7.457  4.0663  1.8426 -1.2740
  349MOL0     H47081   8.270   3.224   7.461  1.0626 -1.0547  0.2401
  349MOL0     H47082   8.178   3.289   7.596  0.1926  0.0451 -0.9340
  349MOL0     H47083   8.305   3.010   7.632 -0.0584 -0.5555  2.5095
  349MOL0     H47084   8.390   3.164   7.637 -0.7034  1.9241 -0.2352
  349MOL0     H47085   8.156   3.076   7.812 -0.5141 -0.5197 -4.3253
  349MOL0     H47086   8.231   3.238   7.815  2.0042  0.2591  1.3308
  349MOL0     H47087   8.452   3.152   7.864 -1.4025  0.7297 -0.9591
  349MOL0     H47088   8.380   2.987   7.852 -1.2881 -0.4066 -1.3480
  349MOL0     H47089   8.311   3.182   8.063  1.2905  0.1224  1.1723
  349MOL0     H47090   8.250   3.023   8.062 -2.5201  3.6168 -0.0719
  349MOL0     H47091   8.553   3.075   8.081 -3.0776  2.3991 -2.3853
  349MOL0     H47092   8.473   2.915   8.080 -1.9635 -0.8747  1.7453
  349MOL0     H47093   8.342   2.995   8.277 -0.5225  1.4792 -0.2548
  349MOL0     H47094   8.524   2.973   8.305 -0.2008 -1.2760 -1.7876
  349MOL0     H47095   7.924   3.325   7.592 -0.4363  3.8613 -1.7792
  349MOL0     H47096   7.698   3.380   7.631 -0.7850  0.0220  0.6786
  349MOL0     H47097   7.232   3.316   7.452 -1.4541  0.3994 -0.7866
  349MOL0     H47098   7.012   3.399   7.491  0.8993 -1.1191 -1.4986
  349MOL0     H47099   7.833   2.885   8.435  2.0693 -0.1394 -0.3048
  349MOL0     H47100   8.051   2.804   8.331 -0.3762  1.5895 -0.7029
  349MOL0     H47101   8.122   2.463   7.800  0.2499 -0.1503 -1.0329
  349MOL0     H47102   8.337   2.350   7.738  0.3797  1.0515  0.3356
  349MOL0     H47103   8.763   2.370   7.820  1.1979  1.0143 -1.8324
  349MOL0     H47104   8.708   2.473   7.960 -1.3006 -1.8210 -0.1768
  349MOL0     H47105   8.687   2.673   7.812  0.5744 -0.0922  2.2072
  349MOL0     H47106   8.733   2.572   7.666 -0.5895  1.5006  0.6428
  349MOL0     H47107   8.962   2.541   7.753 -0.3621  0.4703  1.2495
  349MOL0     H47108   8.915   2.625   7.893 -0.0284 -4.1612  0.2249
  349MOL0     H47109   8.853   2.830   7.780  0.8830  2.0388  0.1977
  349MOL0     H47110   9.021   2.793   7.755 -0.4403  1.0187 -0.8055
  349MOL0     H47111   8.886   2.816   7.366  0.2745  1.6482  1.0504
  349MOL0     H47112   8.545   2.588   8.025 -1.1473  2.9550  0.2698
  349MOL0     H47113   8.278   2.627   8.229  1.6743  2.6658  3.0687
  349MOL0     H47114   8.440   2.686   8.194  1.3564  0.0502 -1.8271
  349MOL0     H47115   8.307   2.779   8.132  0.6589 -0.9744 -2.8555
  350MOL0     O47116   6.595   6.857   0.877 -0.0868 -0.7293 -0.6261
  350MOL0     C47117   6.543   6.758   0.820  0.0432 -0.6083  0.1433
  350MOL0     O47118   6.603   6.679   0.725  0.1479  0.0255  0.3334
  350MOL0     C47119   6.739   6.709   0.706 -0.4216 -0.5764  0.2396
  350MOL0     C47120   6.833   6.697   0.805  0.4849 -0.4116 -0.3596
  350MOL0     C47121   6.970   6.713   0.778 -1.3961 -0.3756 -0.0606
  350MOL0     C47122   7.017   6.754   0.652  0.3171  0.2695  0.5050
  350MOL0     O47123   7.148   6.758   0.614 -0.2423 -0.0732 -0.8674
  350MOL0     C47124   7.259   6.725   0.712 -0.6658  1.0904 -0.2623
  350MOL0     C47125   7.394   6.756   0.644  0.4972  0.6782  0.1354
  350MOL0     C47126   7.402   6.901   0.646 -0.2138 -0.3534 -0.0073
  350MOL0     C47127   7.529   6.941   0.563 -0.1610  0.2970 -0.9067
  350MOL0     C47128   7.594   7.073   0.567 -0.5277 -0.1585  0.5937
  350MOL0     C47129   7.715   7.077   0.468  0.5839  0.4217 -0.7547
  350MOL0     C47130   7.795   7.198   0.502  0.1363 -0.2905  0.5337
  350MOL0     C47131   7.733   7.331   0.471  0.9492  0.5704  1.1393
  350MOL0     N47132   7.816   7.447   0.478 -0.5755  0.2486  0.8462
  350MOL0     C47133   7.923   7.465   0.385  0.1568 -0.9905  0.8313
  350MOL0     C47134   7.949   7.601   0.394  0.7780  0.5018 -0.1455
  350MOL0     C47135   8.070   7.655   0.330 -0.7167  0.3517 -0.0563
  350MOL0     C47136   8.182   7.717   0.418  0.2916  0.0178  0.1261
  350MOL0     C47137   8.292   7.729   0.327 -0.4091 -0.4101 -0.5370
  350MOL0     C47138   8.411   7.772   0.413 -0.8791  0.4260 -0.4219
  350MOL0     O47139   8.528   7.764   0.324 -0.3434  0.4475 -0.2686
  350MOL0     C47140   8.647   7.797   0.382  0.1185  0.6915 -0.6068
  350MOL0     C47141   8.762   7.790   0.297 -0.0495 -0.5692 -0.5334
  350MOL0     C47142   8.883   7.846   0.338  0.3755 -0.2697 -0.3969
  350MOL0     C47143   8.896   7.901   0.461 -0.0279 -0.0438  0.0982
  350MOL0     C47144   9.021   7.973   0.501 -0.4258  0.0847  0.8988
  350MOL0     O47145   9.107   7.987   0.404  0.3562 -0.1623 -0.3124
  350MOL0     C47146   9.218   8.066   0.422 -0.0180 -0.8269 -0.3712
  350MOL0     C47147   9.345   8.013   0.397  1.0030 -0.0381  0.4315
  350MOL0     C47148   9.467   8.088   0.406  0.3044 -0.2408  0.4497
  350MOL0     C47149   9.454   8.223   0.441  0.1497  0.3033 -0.2822
  350MOL0     O47150   9.560   8.307   0.443 -0.5342  1.0005 -0.3538
  350MOL0     C47151   9.554   8.416   0.538 -0.4769  0.4388  0.2606
  350MOL0     C47152   9.692   8.440   0.594  0.3389  0.7794  0.9693
  350MOL0     C47153   9.785   8.470   0.479 -0.4073  0.2171 -0.4662
  350MOL0     C47154   9.918   8.552   0.524 -0.0176  1.1048 -0.0908
  350MOL0     C47155  10.026   8.591   0.408  0.4252  0.6147 -0.9836
  350MOL0     C47156  10.061   8.464   0.331 -0.2038  0.7094 -0.2387
  350MOL0     C47157  10.179   8.482   0.232 -0.4751  0.6332  0.5568
  350MOL0     C47158  10.194   8.382   0.119 -0.9488 -0.2589 -0.5762
  350MOL0    Cl47159  10.365   8.380   0.048 -0.1238 -0.1074  0.0602
  350MOL0     C47160   9.326   8.279   0.470 -0.5083  0.3525  0.1244
  350MOL0     C47161   9.213   8.196   0.467 -0.4911 -0.0832  0.5132
  350MOL0     O47162   9.038   8.010   0.618 -0.0460  0.4121 -0.5838
  350MOL0     C47163   8.789   7.893   0.551 -0.7026 -0.6153  0.0099
  350MOL0     C47164   8.666   7.843   0.511  0.5560 -0.8614 -0.9147
  350MOL0     N47165   7.853   7.662   0.476  0.4410 -0.4794  0.0214
  350MOL0     N47166   7.783   7.567   0.530 -0.0143  0.4569  0.2152
  350MOL0     C47167   6.921   6.764   0.549  0.4579 -0.5604 -0.3549
  350MOL0     C47168   6.785   6.734   0.577 -1.3928  0.2255  0.5608
  350MOL0     C47169   6.411   6.724   0.865  0.0614  0.7309  0.6338
  350MOL0     C47170   6.395   6.690   0.999 -0.0797  0.3371  0.9455
  350MOL0     C47171   6.267   6.663   1.043  0.2169  0.6027 -0.0992
  350MOL0     C47172   6.153   6.663   0.959  0.2940  0.3109 -1.1518
  350MOL0     O47173   6.033   6.646   1.025  0.8145  0.1685 -0.3978
  350MOL0     C47174   5.911   6.646   0.940 -0.7512 -0.6136  0.5268
  350MOL0     C47175   5.780   6.614   1.012 -0.0691  0.5688 -0.9071
  350MOL0     C47176   5.769   6.670   1.154  0.1468 -0.0095 -0.3224
  350MOL0     C47177   5.621   6.656   1.208 -0.5010  0.3399 -0.0951
  350MOL0     C47178   5.581   6.765   1.296  0.7252 -0.4527 -0.0917
  350MOL0     C47179   5.551   6.864   1.365 -0.3736  0.2670  0.5662
  350MOL0     C47180   6.169   6.689   0.820  0.0429 -0.1757  0.9339
  350MOL0     C47181   6.297   6.738   0.779  0.5770 -0.0556  0.4842
  350MOL0     C47182   6.316   6.772   0.627 -0.3221  0.3602 -0.8968
  350MOL0     H47183   6.797   6.673   0.904 -1.4030  0.3425 -0.8224
  350MOL0     H47184   7.035   6.710   0.865  0.9574 -0.1688 -1.7171
  350MOL0     H47185   7.256   6.771   0.811 -2.1026  2.4953 -0.9249
  350MOL0     H47186   7.258   6.617   0.732 -1.5358  1.6447  3.3452
  350MOL0     H47187   7.399   6.715   0.543 -0.6757  1.9452 -0.4815
  350MOL0     H47188   7.463   6.701   0.709  2.8994  1.4844 -1.6130
  350MOL0     H47189   7.415   6.939   0.748  0.8133  1.4873 -0.7762
  350MOL0     H47190   7.321   6.961   0.605  1.3259  0.2735 -2.2889
  350MOL0     H47191   7.601   6.861   0.583 -0.0243  0.0012 -2.4740
  350MOL0     H47192   7.494   6.925   0.461 -1.3358  2.1220 -0.8260
  350MOL0     H47193   7.517   7.149   0.548 -1.7926 -0.7491  2.9861
  350MOL0     H47194   7.630   7.102   0.666 -0.2791 -1.6982  0.9694
  350MOL0     H47195   7.776   6.988   0.484 -1.3371 -0.6030  1.5004
  350MOL0     H47196   7.691   7.077   0.361 -0.0459 -0.3388 -0.6235
  350MOL0     H47197   7.880   7.188   0.434 -0.4509 -0.2438 -0.2219
  350MOL0     H47198   7.823   7.207   0.607 -1.3700  0.4092  0.9103
  350MOL0     H47199   7.688   7.337   0.372  1.9335 -3.3781  0.3003
  350MOL0     H47200   7.644   7.338   0.534 -0.6602  0.1279 -0.9718
  350MOL0     H47201   7.955   7.388   0.315 -0.2384 -1.9999  1.7352
  350MOL0     H47202   8.119   7.580   0.267 -1.1831 -0.7164  0.8286
  350MOL0     H47203   8.042   7.728   0.254 -1.1832  0.7433  0.4796
  350MOL0     H47204   8.142   7.815   0.445 -1.3512 -0.4014 -0.6150
  350MOL0     H47205   8.206   7.654   0.504 -0.1450  1.3431  1.2541
  350MOL0     H47206   8.274   7.816   0.262  0.2263 -0.3915 -0.6895
  350MOL0     H47207   8.316   7.634   0.279  2.8088 -0.3278  0.6979
  350MOL0     H47208   8.419   7.704   0.498  0.6193 -1.3688 -1.9182
  350MOL0     H47209   8.391   7.876   0.439 -0.7848  0.7141 -1.4771
  350MOL0     H47210   8.751   7.735   0.204 -1.0704  0.1272 -0.8391
  350MOL0     H47211   8.961   7.848   0.263  1.0699 -0.3255  0.3231
  350MOL0     H47212   9.351   7.910   0.363 -0.7557 -1.1536  3.1821
  350MOL0     H47213   9.565   8.048   0.384  0.4661  0.2751  0.2212
  350MOL0     H47214   9.521   8.503   0.482  1.5166  1.7389  0.9764
  350MOL0     H47215   9.484   8.390   0.618 -2.4013  1.5016 -1.0310
  350MOL0     H47216   9.683   8.517   0.671 -1.9420 -0.6479  2.2379
  350MOL0     H47217   9.724   8.350   0.647 -2.3908 -1.4211 -0.7955
  350MOL0     H47218   9.811   8.381   0.420  0.7486  0.3056 -0.1210
  350MOL0     H47219   9.721   8.538   0.422 -0.5210 -0.4372 -1.1306
  350MOL0     H47220   9.976   8.490   0.593  2.7210  1.5104 -1.8497
  350MOL0     H47221   9.904   8.636   0.592  1.7051 -0.4008  2.2835
  350MOL0     H47222  10.114   8.623   0.464  0.3552  0.6893 -0.9149
  350MOL0     H47223   9.987   8.674   0.349  0.4328  0.8718 -0.6295
  350MOL0     H47224  10.080   8.376   0.394 -1.3287  0.4434 -0.2497
  350MOL0     H47225   9.974   8.431   0.273 -0.2632 -0.8458  0.6813
  350MOL0     H47226  10.274   8.477   0.286  0.9578 -1.4444 -1.9485
  350MOL0     H47227  10.174   8.582   0.189  2.2048  1.3206  1.6554
  350MOL0     H47228  10.170   8.281   0.152 -1.8914  0.0597 -0.2394
  350MOL0     H47229  10.127   8.413   0.038 -2.7751  1.8309  1.5539
  350MOL0     H47230   9.309   8.383   0.496 -1.9281 -0.0512  0.9318
  350MOL0     H47231   9.114   8.235   0.490 -0.8662  1.0569 -2.6381
  350MOL0     H47232   8.806   7.946   0.644 -4.2001 -0.5481  0.7438
  350MOL0     H47233   8.585   7.844   0.583 -1.5717  1.2131 -3.1286
  350MOL0     H47234   6.966   6.791   0.454  3.0224  1.7724  1.3418
  350MOL0     H47235   6.714   6.726   0.496 -1.1114 -2.1525  0.4644
  350MOL0     H47236   6.473   6.689   1.075 -1.3866  1.0040  2.3518
  350MOL0     H47237   6.235   6.662   1.147 -1.3055  0.1036 -0.5448
  350MOL0     H47238   5.928   6.581   0.854 -2.3247  2.1028 -1.9930
  350MOL0     H47239   5.911   6.746   0.897 -0.6351 -1.3973 -1.3824
  350MOL0     H47240   5.765   6.506   1.022 -1.5584  0.7402 -1.0536
  350MOL0     H47241   5.691   6.641   0.955  2.2019  0.7387 -4.7148
  350MOL0     H47242   5.795   6.777   1.157  2.7287 -0.5024 -1.9178
  350MOL0     H47243   5.840   6.621   1.220 -1.6639 -1.1465  0.8659
  350MOL0     H47244   5.554   6.659   1.122 -2.3205  2.9297  1.2755
  350MOL0     H47245   5.609   6.560   1.259 -1.9726  2.2906  3.5565
  350MOL0     H47246   5.524   6.950   1.422 -0.8308  1.0867 -0.8461
  350MOL0     H47247   6.088   6.681   0.748  0.9352  0.1394 -0.1416
  350MOL0     H47248   6.377   6.696   0.577  0.6474  1.1356 -0.9241
  350MOL0     H47249   6.219   6.781   0.578 -1.3936 -1.7758  0.6490
  350MOL0     H47250   6.357   6.870   0.602 -1.1361  0.4745 -1.8532
  351MOL0     O47251   3.952   0.367   1.925 -0.6490 -0.2716 -0.4826
  351MOL0     C47252   4.025   0.300   1.854 -0.1385 -0.7265  0.5350
  351MOL0     O47253   4.155   0.277   1.879  0.1174 -0.0033  0.1559
  351MOL0     C47254   4.216   0.302   1.998  0.1596 -0.8175  0.8822
  351MOL0     C47255   4.208   0.427   2.056  0.8034 -0.2431  0.8515
  351MOL0     C47256   4.273   0.463   2.181  0.4167 -0.2696  0.5282
  351MOL0     C47257   4.354   0.365   2.240  0.7571  1.2006  0.1730
  351MOL0     O47258   4.431   0.390   2.354 -0.3584  0.2814  0.1977
  351MOL0     C47259   4.450   0.516   2.415  0.9152 -0.5069 -0.6008
  351MOL0     C47260   4.564   0.518   2.511 -0.1567 -0.6163 -0.2953
  351MOL0     C47261   4.686   0.499   2.423 -0.3252 -0.0370 -0.9710
  351MOL0     C47262   4.814   0.460   2.508 -0.8404  0.2059 -0.0975
  351MOL0     C47263   4.792   0.337   2.599  0.0392 -0.4872 -0.1350
  351MOL0     C47264   4.917   0.303   2.692 -0.2100 -0.6030  0.4970
  351MOL0     C47265   4.890   0.188   2.787 -0.2550  0.2256 -0.2761
  351MOL0     C47266   4.961   0.193   2.922 -0.6681 -0.0760  0.5730
  351MOL0     N47267   4.942   0.323   2.984 -0.5033  0.1738 -0.0870
  351MOL0     C47268   4.824   0.367   3.036  0.0787 -0.8451 -0.1875
  351MOL0     C47269   4.858   0.492   3.071  1.0329 -0.0625  0.3449
  351MOL0     C47270   4.764   0.593   3.130 -0.2847  0.3768  0.0529
  351MOL0     C47271   4.678   0.664   3.031 -0.0608 -0.5180  0.4029
  351MOL0     C47272   4.752   0.763   2.931 -0.2949 -0.3398  0.4207
  351MOL0     C47273   4.663   0.779   2.812 -1.4541  0.9406  0.5581
  351MOL0     O47274   4.722   0.884   2.736  0.4078 -0.1404 -0.9284
  351MOL0     C47275   4.664   0.892   2.613 -0.1184  0.7153  0.4386
  351MOL0     C47276   4.742   0.920   2.499  0.3220 -0.0253 -0.1442
  351MOL0     C47277   4.693   0.924   2.377  0.1061  0.0759 -0.1486
  351MOL0     C47278   4.552   0.905   2.360 -0.2686 -0.3038  0.1073
  351MOL0     C47279   4.494   0.887   2.228  0.7342 -0.0235  0.3340
  351MOL0     O47280   4.361   0.861   2.213  0.1675 -0.1252 -0.2085
  351MOL0     C47281   4.310   0.831   2.086  0.0202  0.9311  0.3746
  351MOL0     C47282   4.177   0.872   2.057 -0.4063 -0.0100  0.7371
  351MOL0     C47283   4.121   0.847   1.928  0.9672  0.4674 -0.8169
  351MOL0     C47284   4.186   0.776   1.830  0.1586 -0.2080 -0.7845
  351MOL0     O47285   4.100   0.732   1.728 -0.3984 -0.6688  0.0055
  351MOL0     C47286   4.121   0.606   1.666  0.5496 -0.1640  0.1122
  351MOL0     C47287   4.197   0.649   1.542 -0.0618  1.0740  0.1816
  351MOL0     C47288   4.100   0.705   1.433  0.5183  0.3725  0.1178
  351MOL0     C47289   4.176   0.718   1.295 -0.5140  0.6304 -0.6141
  351MOL0     C47290   4.081   0.766   1.183 -0.9539  0.3000  0.6788
  351MOL0     C47291   3.960   0.854   1.219 -0.8757 -0.8708 -0.4242
  351MOL0     C47292   3.918   0.934   1.094  0.3588 -0.4172 -0.4716
  351MOL0     C47293   3.780   1.005   1.107 -0.3653 -0.0071 -1.6002
  351MOL0    Cl47294   3.758   1.090   0.959 -0.1827 -0.1109  0.6864
  351MOL0     C47295   4.321   0.744   1.854  0.2928  0.1694 -0.5397
  351MOL0     C47296   4.378   0.763   1.982  0.4282 -1.0884  0.4803
  351MOL0     O47297   4.575   0.897   2.135  0.8906 -0.4935  0.1203
  351MOL0     C47298   4.467   0.886   2.473 -0.3042 -1.1259 -0.2092
  351MOL0     C47299   4.526   0.887   2.594  0.6098 -0.4130  0.0050
  351MOL0     N47300   4.989   0.519   3.050  0.4505  0.2856 -0.1282
  351MOL0     N47301   5.042   0.418   3.000  0.1931  0.4584 -0.0801
  351MOL0     C47302   4.365   0.243   2.180 -0.1965 -0.0703 -0.4409
  351MOL0     C47303   4.293   0.205   2.063  0.5267 -0.0117  0.1423
  351MOL0     C47304   3.972   0.272   1.718 -0.2832 -0.1647 -0.0777
  351MOL0     C47305   4.059   0.233   1.618  0.8185  0.6216 -0.0556
  351MOL0     C47306   4.005   0.209   1.485  0.3015 -0.7480  0.8464
  351MOL0     C47307   3.874   0.228   1.455 -0.3486 -0.2798 -0.5247
  351MOL0     O47308   3.837   0.201   1.323  1.0007  0.0927 -0.1711
  351MOL0     C47309   3.707   0.244   1.288  0.2102 -0.1856  0.4162
  351MOL0     C47310   3.698   0.394   1.289 -0.3421 -0.0166 -0.1341
  351MOL0     C47311   3.556   0.434   1.247  0.2800 -0.0389  0.3862
  351MOL0     C47312   3.551   0.589   1.242 -0.3096  0.0040  0.0554
  351MOL0     C47313   3.622   0.629   1.121 -0.5694  0.6881 -0.8288
  351MOL0     C47314   3.681   0.662   1.025 -0.9597 -0.5306 -0.6127
  351MOL0     C47315   3.789   0.264   1.560  0.2059  0.3715  0.2643
  351MOL0     C47316   3.837   0.299   1.686 -0.0445  0.4592  0.4385
  351MOL0     C47317   3.724   0.341   1.779 -0.0344 -0.1355 -0.6509
  351MOL0     H47318   4.160   0.513   2.011  1.0982  0.2739  1.5057
  351MOL0     H47319   4.258   0.566   2.211  1.0415 -0.4410  1.4879
  351MOL0     H47320   4.458   0.590   2.336 -1.2427  2.7348  1.9372
  351MOL0     H47321   4.361   0.537   2.477  3.0617  0.3436  2.4475
  351MOL0     H47322   4.551   0.449   2.595 -2.4846  0.4533  0.2968
  351MOL0     H47323   4.580   0.620   2.550  1.6107 -0.4318 -1.3682
  351MOL0     H47324   4.707   0.582   2.353 -0.9545  0.4226 -0.6205
  351MOL0     H47325   4.665   0.415   2.356  0.6834 -1.7161  0.7491
  351MOL0     H47326   4.903   0.440   2.447  2.1592  2.1787  3.2194
  351MOL0     H47327   4.838   0.543   2.575 -0.6648 -0.7042  0.9968
  351MOL0     H47328   4.716   0.353   2.676  2.2229 -0.9660  2.2457
  351MOL0     H47329   4.780   0.241   2.547  0.5963  0.2624 -1.7142
  351MOL0     H47330   5.000   0.268   2.630 -0.5255 -0.7200  0.1311
  351MOL0     H47331   4.939   0.392   2.751 -0.1862 -1.4314  1.7717
  351MOL0     H47332   4.906   0.096   2.730 -0.1813 -0.3861  0.7165
  351MOL0     H47333   4.783   0.192   2.809 -0.1622  2.0583  0.0383
  351MOL0     H47334   4.926   0.115   2.990  1.9695  1.1351  3.5444
  351MOL0     H47335   5.068   0.181   2.902 -0.6318  0.3357  0.4979
  351MOL0     H47336   4.723   0.327   3.040 -0.4310  0.3222 -0.7453
  351MOL0     H47337   4.701   0.536   3.198 -0.6516 -1.2255 -1.5424
  351MOL0     H47338   4.825   0.665   3.185  1.5345  1.0149 -2.5912
  351MOL0     H47339   4.616   0.593   2.976 -1.1660  0.8883 -0.2321
  351MOL0     H47340   4.599   0.709   3.092 -0.7950 -1.3736  0.1006
  351MOL0     H47341   4.839   0.704   2.901 -1.8856 -3.1902  1.0052
  351MOL0     H47342   4.780   0.859   2.974  0.7867 -0.0896 -0.7591
  351MOL0     H47343   4.567   0.816   2.849  0.2218  4.9628  1.3887
  351MOL0     H47344   4.661   0.683   2.759  1.1230  0.3475  1.3877
  351MOL0     H47345   4.845   0.950   2.511 -0.8821  4.4949  0.6664
  351MOL0     H47346   4.749   0.947   2.287 -1.3922 -0.0306 -1.1559
  351MOL0     H47347   4.122   0.939   2.123 -0.2326 -0.4844  1.3707
  351MOL0     H47348   4.016   0.865   1.909  0.0308 -3.4382 -0.1069
  351MOL0     H47349   4.170   0.538   1.736 -0.9951  0.3039  1.7075
  351MOL0     H47350   4.027   0.557   1.641  0.2320 -0.4491  1.7537
  351MOL0     H47351   4.271   0.726   1.563  1.8226  0.1229 -2.4547
  351MOL0     H47352   4.246   0.563   1.495  0.4496  1.6763 -0.4110
  351MOL0     H47353   4.009   0.647   1.418 -0.7832  2.7118 -1.6811
  351MOL0     H47354   4.068   0.801   1.473 -1.1703 -0.9277  2.0974
  351MOL0     H47355   4.232   0.628   1.266 -1.9769 -0.6582  0.4082
  351MOL0     H47356   4.253   0.795   1.311 -0.7998  0.6069  0.9969
  351MOL0     H47357   4.045   0.684   1.120 -1.4411  0.9985  0.0213
  351MOL0     H47358   4.147   0.823   1.118  0.7072 -2.0763  0.1478
  351MOL0     H47359   3.872   0.798   1.254 -0.6298 -0.7508  0.4103
  351MOL0     H47360   3.985   0.930   1.294 -1.5320 -2.5611  1.6199
  351MOL0     H47361   3.909   0.865   1.009 -1.3009  0.4658 -1.0550
  351MOL0     H47362   4.002   0.997   1.066  1.4146 -2.5713 -2.4977
  351MOL0     H47363   3.705   0.930   1.134  1.0499 -0.5746  1.2046
  351MOL0     H47364   3.764   1.073   1.191  1.3991 -1.2416 -0.1739
  351MOL0     H47365   4.378   0.681   1.786 -0.5394 -1.1902 -0.0108
  351MOL0     H47366   4.481   0.737   2.006  0.4324  0.6622  2.7714
  351MOL0     H47367   4.359   0.878   2.468 -0.1647 -3.4847 -0.4356
  351MOL0     H47368   4.457   0.885   2.678  2.1065 -0.1076  1.2917
  351MOL0     H47369   4.427   0.165   2.223  1.2711 -0.3465 -2.8519
  351MOL0     H47370   4.294   0.099   2.038  2.2692  0.1942 -0.8497
  351MOL0     H47371   4.163   0.201   1.623  0.6013 -0.1377 -0.1942
  351MOL0     H47372   4.064   0.169   1.402 -1.1644  1.5533 -1.4401
  351MOL0     H47373   3.625   0.199   1.345 -0.5649  1.3812  0.5829
  351MOL0     H47374   3.689   0.207   1.186  0.1244  2.7864 -0.7544
  351MOL0     H47375   3.776   0.431   1.221  1.0566 -1.3071  0.6984
  351MOL0     H47376   3.718   0.434   1.389 -3.2565 -2.4043  1.5508
  351MOL0     H47377   3.481   0.392   1.315 -1.8348 -2.5494 -3.1632
  351MOL0     H47378   3.527   0.391   1.151 -1.9745 -1.7316  1.7024
  351MOL0     H47379   3.448   0.625   1.236 -0.8064 -1.2644  0.6254
  351MOL0     H47380   3.606   0.631   1.327  2.6966 -1.5483 -0.9603
  351MOL0     H47381   3.735   0.695   0.939  0.3752  0.0479  0.4162
  351MOL0     H47382   3.682   0.268   1.540  0.3678  1.0735 -0.5556
  351MOL0     H47383   3.735   0.448   1.798  0.5512 -0.0889 -1.2224
  351MOL0     H47384   3.624   0.330   1.738  0.0099 -0.3242 -0.7084
  351MOL0     H47385   3.714   0.280   1.870 -1.9117  1.8399  0.5553
  352MOL0     O47386   2.970   2.338   0.644 -0.4732 -0.1618  0.6485
  352MOL0     C47387   2.879   2.292   0.568 -0.5373  0.0566 -0.1210
  352MOL0     O47388   2.871   2.170   0.504 -0.7532  0.8050  0.1789
  352MOL0     C47389   2.980   2.084   0.496  0.3119  0.0402 -0.0251
  352MOL0     C47390   3.119   2.114   0.505 -0.4141  0.1722 -0.7859
  352MOL0     C47391   3.223   2.015   0.505  0.4756 -0.1124 -0.3876
  352MOL0     C47392   3.189   1.880   0.478  0.4029 -0.0104 -0.6081
  352MOL0     O47393   3.279   1.769   0.470 -0.0710  0.4680  0.9272
  352MOL0     C47394   3.415   1.808   0.446 -0.1440 -0.1931  0.2561
  352MOL0     C47395   3.495   1.686   0.460 -0.1028  0.9571 -0.2947
  352MOL0     C47396   3.632   1.690   0.386  0.1351  0.1608  0.6005
  352MOL0     C47397   3.733   1.746   0.474 -0.0557 -1.2509  0.1708
  352MOL0     C47398   3.873   1.756   0.420  0.4114 -0.5585 -0.3986
  352MOL0     C47399   3.941   1.624   0.447 -0.6555 -0.2639 -0.5279
  352MOL0     C47400   3.981   1.546   0.318 -0.2763  0.4583  0.6612
  352MOL0     C47401   4.099   1.599   0.242  0.3592 -0.2489 -0.3770
  352MOL0     N47402   4.219   1.554   0.316 -0.3799 -0.6454  0.0358
  352MOL0     C47403   4.285   1.449   0.270 -0.6155 -0.2170 -0.1074
  352MOL0     C47404   4.396   1.442   0.351  0.2918  0.0958 -0.1390
  352MOL0     C47405   4.520   1.359   0.343  0.0119 -0.4894  0.0472
  352MOL0     C47406   4.657   1.423   0.354  0.8442  0.9001 -0.9345
  352MOL0     C47407   4.778   1.323   0.316  0.9596  0.3334 -0.4206
  352MOL0     C47408   4.905   1.353   0.383  0.4462  0.6743  0.2744
  352MOL0     O47409   4.980   1.452   0.314 -0.5773  0.7671 -0.2144
  352MOL0     C47410   5.107   1.473   0.370 -0.0282  0.1779 -0.9022
  352MOL0     C47411   5.189   1.570   0.316  0.2433 -0.5893  0.1098
  352MOL0     C47412   5.315   1.601   0.361  0.3514  0.0571  0.0474
  352MOL0     C47413   5.373   1.527   0.468  0.6709  0.3854 -0.2678
  352MOL0     C47414   5.504   1.562   0.513 -1.0063  0.6246 -0.5739
  352MOL0     O47415   5.591   1.617   0.419 -0.5334  0.0428 -0.0951
  352MOL0     C47416   5.714   1.654   0.465  0.5475 -0.5330 -0.1611
  352MOL0     C47417   5.815   1.559   0.466 -0.3243 -0.4413 -0.2520
  352MOL0     C47418   5.936   1.596   0.529 -0.7190  0.0341  0.3990
  352MOL0     C47419   5.965   1.725   0.575  0.0297  0.2201  0.8100
  352MOL0     O47420   6.068   1.764   0.652 -0.9360  0.1434  0.2225
  352MOL0     C47421   6.173   1.667   0.670  0.8254  0.3375  0.0003
  352MOL0     C47422   6.281   1.742   0.744  0.0660 -0.5271  1.2302
  352MOL0     C47423   6.411   1.672   0.727 -0.5149  0.8395  0.5995
  352MOL0     C47424   6.524   1.745   0.796  0.1920 -0.5863 -0.0544
  352MOL0     C47425   6.670   1.693   0.771 -0.4765  0.5737  0.0397
  352MOL0     C47426   6.776   1.789   0.842 -0.2400 -0.2835  0.2158
  352MOL0     C47427   6.921   1.747   0.798 -0.2661  0.5635  0.0950
  352MOL0     C47428   7.026   1.828   0.877 -0.1148  0.1198 -0.2874
  352MOL0    Cl47429   7.043   2.000   0.840 -0.2473 -0.6248 -0.3329
  352MOL0     C47430   5.865   1.820   0.551  1.0242  0.0259 -0.1653
  352MOL0     C47431   5.741   1.785   0.502 -0.0969  0.0625 -0.4394
  352MOL0     O47432   5.535   1.524   0.628 -0.0796  0.0610 -0.4627
  352MOL0     C47433   5.291   1.434   0.531 -0.0958  1.1289  0.3599
  352MOL0     C47434   5.164   1.408   0.474 -0.0899  0.2220 -0.6424
  352MOL0     N47435   4.381   1.546   0.445 -0.0998 -0.3542  0.5085
  352MOL0     N47436   4.274   1.611   0.423 -0.2847 -0.6659 -0.1417
  352MOL0     C47437   3.057   1.857   0.453  0.8121 -0.5184  0.0974
  352MOL0     C47438   2.953   1.949   0.466 -0.5550 -0.7100 -1.0469
  352MOL0     C47439   2.762   2.376   0.561 -0.2614  0.3005 -1.1145
  352MOL0     C47440   2.783   2.514   0.601 -0.4049  0.3431  0.3930
  352MOL0     C47441   2.684   2.602   0.621  0.6053 -0.8017 -0.2086
  352MOL0     C47442   2.551   2.550   0.602  0.1865 -0.9380  0.1245
  352MOL0     O47443   2.441   2.629   0.628  0.0197  0.8411 -0.5085
  352MOL0     C47444   2.454   2.773   0.642  0.3094  0.2230 -0.1332
  352MOL0     C47445   2.306   2.830   0.640 -1.2445 -0.5277 -0.3405
  352MOL0     C47446   2.256   2.830   0.492 -0.3300  0.3129  0.1559
  352MOL0     C47447   2.235   2.970   0.434 -0.8002 -0.0339  0.3994
  352MOL0     C47448   2.358   3.041   0.405  0.6102 -0.1948 -1.6861
  352MOL0     C47449   2.450   3.109   0.374 -0.2242  0.7147  0.2707
  352MOL0     C47450   2.528   2.416   0.571  0.1651  0.2199 -0.0508
  352MOL0     C47451   2.635   2.326   0.542  0.6090 -0.5086  0.7136
  352MOL0     C47452   2.590   2.192   0.486 -0.5740  0.3955 -0.9134
  352MOL0     H47453   3.135   2.220   0.520  0.9826 -0.1426  0.2371
  352MOL0     H47454   3.318   2.063   0.527  0.0491  1.5847 -2.0163
  352MOL0     H47455   3.436   1.851   0.347  0.0386 -0.4608  0.1766
  352MOL0     H47456   3.438   1.879   0.525 -2.5376  1.0265 -0.0382
  352MOL0     H47457   3.442   1.601   0.415 -0.4053  0.3761  1.1050
  352MOL0     H47458   3.503   1.660   0.566 -2.4216 -2.0042 -0.6959
  352MOL0     H47459   3.641   1.751   0.295  2.6337  0.0905  0.7189
  352MOL0     H47460   3.654   1.588   0.353  1.7225  0.5875  0.2192
  352MOL0     H47461   3.700   1.846   0.505 -0.0623 -0.7580 -1.3466
  352MOL0     H47462   3.734   1.694   0.571 -1.2312  0.0662  0.9233
  352MOL0     H47463   3.876   1.782   0.314  1.1394  3.5324  0.4499
  352MOL0     H47464   3.926   1.835   0.473 -2.1049  1.3532 -0.5303
  352MOL0     H47465   4.035   1.652   0.495  0.0249 -1.2305 -1.2446
  352MOL0     H47466   3.895   1.547   0.510  1.7384 -1.9982 -0.7451
  352MOL0     H47467   3.893   1.551   0.253  0.7319 -0.4878 -0.8183
  352MOL0     H47468   4.012   1.446   0.350  4.4960  1.9726  1.5896
  352MOL0     H47469   4.096   1.564   0.138  1.2110 -1.4872 -0.0122
  352MOL0     H47470   4.087   1.707   0.228 -1.6966 -0.6102 -1.7879
  352MOL0     H47471   4.275   1.393   0.178  1.6548 -0.9969  0.0618
  352MOL0     H47472   4.513   1.280   0.419  2.8153 -1.1577 -0.2758
  352MOL0     H47473   4.513   1.313   0.244 -1.4894  0.5518 -0.3644
  352MOL0     H47474   4.664   1.506   0.284 -1.1874 -0.4979 -2.9147
  352MOL0     H47475   4.680   1.463   0.453  2.0493  0.4951 -1.0281
  352MOL0     H47476   4.779   1.306   0.208  0.1064 -3.8903  0.0708
  352MOL0     H47477   4.745   1.221   0.338 -1.0392  1.1049  0.4833
  352MOL0     H47478   4.959   1.259   0.390  3.0456  2.0026 -0.7797
  352MOL0     H47479   4.881   1.380   0.487 -0.4981  1.8437 -0.2273
  352MOL0     H47480   5.155   1.620   0.226 -0.9729 -1.7767 -0.1279
  352MOL0     H47481   5.364   1.683   0.310 -0.4645  0.0170 -0.8397
  352MOL0     H47482   5.794   1.466   0.416  1.8340 -0.3512 -1.4392
  352MOL0     H47483   6.012   1.523   0.552  0.7110  1.3843  0.1752
  352MOL0     H47484   6.137   1.583   0.731 -0.2409  0.2086 -0.7696
  352MOL0     H47485   6.210   1.628   0.575 -1.0120 -1.0092 -0.2307
  352MOL0     H47486   6.296   1.844   0.708  3.6120 -1.5659 -0.7322
  352MOL0     H47487   6.240   1.750   0.845 -2.6059  0.8169  0.1229
  352MOL0     H47488   6.402   1.573   0.774 -0.8441  1.8480  2.8251
  352MOL0     H47489   6.441   1.663   0.623  0.5946  0.4969  0.9311
  352MOL0     H47490   6.503   1.744   0.903  1.3280 -2.4277  0.1945
  352MOL0     H47491   6.520   1.850   0.767  0.7357 -1.1547 -2.4595
  352MOL0     H47492   6.688   1.700   0.664 -0.5396 -0.1216 -0.0191
  352MOL0     H47493   6.679   1.587   0.799 -0.0118 -0.3771 -3.2758
  352MOL0     H47494   6.750   1.889   0.806 -3.0076 -1.4819 -1.4667
  352MOL0     H47495   6.750   1.782   0.948 -1.7957 -0.5024 -0.1612
  352MOL0     H47496   6.937   1.756   0.691 -2.5162 -2.2918 -0.6061
  352MOL0     H47497   6.922   1.640   0.819 -2.2474  0.3745 -0.5925
  352MOL0     H47498   7.005   1.822   0.984  0.7889  2.6338  0.0857
  352MOL0     H47499   7.126   1.786   0.862  0.2612 -0.1227  2.3859
  352MOL0     H47500   5.881   1.923   0.581 -1.2607  0.9749 -1.9723
  352MOL0     H47501   5.657   1.853   0.498 -2.8428 -2.6039  3.8242
  352MOL0     H47502   5.333   1.372   0.609 -1.1398  0.4889  0.4284
  352MOL0     H47503   5.103   1.328   0.514 -0.2473  0.0663 -1.2004
  352MOL0     H47504   3.032   1.758   0.417  0.5816 -1.0300  1.6011
  352MOL0     H47505   2.848   1.933   0.444 -0.8745  1.1117 -1.0330
  352MOL0     H47506   2.876   2.558   0.637 -0.3337  0.0007  0.6412
  352MOL0     H47507   2.705   2.707   0.639 -0.9892  0.2457 -3.5997
  352MOL0     H47508   2.506   2.815   0.556 -3.3121  2.2977 -1.5523
  352MOL0     H47509   2.505   2.796   0.736  2.2536  0.3642 -1.1801
  352MOL0     H47510   2.310   2.930   0.683  0.3483 -0.7349  0.0768
  352MOL0     H47511   2.238   2.772   0.703 -1.9999 -1.7383 -2.1704
  352MOL0     H47512   2.160   2.776   0.496  0.7206 -1.5998  2.3336
  352MOL0     H47513   2.321   2.774   0.424 -1.1746  0.3269 -0.6894
  352MOL0     H47514   2.184   2.966   0.337 -0.0841 -0.5041  0.0311
  352MOL0     H47515   2.175   3.031   0.502  0.2907 -0.4802  1.7912
  352MOL0     H47516   2.531   3.153   0.320 -0.2425 -0.2481 -0.5670
  352MOL0     H47517   2.424   2.388   0.564  0.4013 -0.7956  0.2853
  352MOL0     H47518   2.653   2.176   0.398 -1.1378  0.5501 -1.3516
  352MOL0     H47519   2.595   2.106   0.553 -2.0058 -0.0634 -1.3560
  352MOL0     H47520   2.486   2.195   0.453 -0.9878  1.5735  0.4051
  353MOL0     O47521   6.403   7.395   3.663  0.3765  0.3877 -0.3697
  353MOL0     C47522   6.383   7.276   3.699 -0.0438 -0.0223  0.6736
  353MOL0     O47523   6.477   7.182   3.705  0.3627  0.3240 -0.7818
  353MOL0     C47524   6.604   7.226   3.675  0.1794 -0.2476 -0.6945
  353MOL0     C47525   6.693   7.250   3.785  0.6121  0.0203 -0.4911
  353MOL0     C47526   6.829   7.283   3.760 -0.5700 -0.4496  0.9238
  353MOL0     C47527   6.872   7.289   3.630  0.4111  0.2059 -0.5300
  353MOL0     O47528   6.999   7.327   3.611 -0.6421 -0.4365  0.2076
  353MOL0     C47529   7.083   7.251   3.515  0.1709  0.1227 -1.0762
  353MOL0     C47530   7.216   7.324   3.468  1.1765 -0.1795 -0.6812
  353MOL0     C47531   7.288   7.254   3.346  0.6921 -0.4713  0.6331
  353MOL0     C47532   7.388   7.340   3.251 -0.2468  0.0938 -0.8105
  353MOL0     C47533   7.461   7.255   3.143 -1.3906  0.1222  0.1692
  353MOL0     C47534   7.586   7.192   3.204  0.3100 -0.5255  0.5220
  353MOL0     C47535   7.682   7.126   3.099  0.0502  0.7344 -0.1646
  353MOL0     C47536   7.755   7.231   3.011  0.0205  0.1472 -0.4316
  353MOL0     N47537   7.862   7.179   2.928  0.1642 -0.5659  0.0463
  353MOL0     C47538   7.849   7.092   2.817 -0.1626 -0.1813  0.5512
  353MOL0     C47539   7.981   7.080   2.772  0.3697  0.3606  0.0748
  353MOL0     C47540   8.022   6.994   2.659  0.1348 -0.5270 -0.7165
  353MOL0     C47541   8.126   7.053   2.569  0.5707 -0.4510  0.4300
  353MOL0     C47542   8.207   6.945   2.494 -0.7544 -0.0150  0.5856
  353MOL0     C47543   8.307   7.009   2.398  0.2614 -0.0181  0.4289
  353MOL0     O47544   8.415   7.077   2.462  0.6047 -0.4041  0.5582
  353MOL0     C47545   8.516   7.137   2.393  1.3060 -0.8032  0.1136
  353MOL0     C47546   8.538   7.145   2.252 -0.9802 -0.2349 -0.8175
  353MOL0     C47547   8.645   7.221   2.200  0.0556  0.0366  0.3979
  353MOL0     C47548   8.739   7.274   2.287 -0.1091 -0.3996 -0.0648
  353MOL0     C47549   8.857   7.359   2.239  0.4593  0.3904 -0.9821
  353MOL0     O47550   8.948   7.401   2.336  1.1750  0.4337 -0.1350
  353MOL0     C47551   9.046   7.491   2.310  0.7316 -0.1170 -0.3096
  353MOL0     C47552   9.104   7.521   2.187  0.2832  0.5281 -0.2162
  353MOL0     C47553   9.206   7.611   2.169 -0.1548 -0.3177  0.0108
  353MOL0     C47554   9.252   7.687   2.276 -0.3502  0.3917 -0.4388
  353MOL0     O47555   9.362   7.774   2.279  0.6087 -0.0123 -0.0370
  353MOL0     C47556   9.417   7.800   2.149  0.6642 -0.1159 -0.9401
  353MOL0     C47557   9.543   7.890   2.169 -0.3004 -0.3670 -0.3956
  353MOL0     C47558   9.643   7.824   2.257  0.0794  0.5277 -0.5668
  353MOL0     C47559   9.766   7.906   2.249 -0.0929  0.5834  0.2952
  353MOL0     C47560   9.869   7.844   2.340  0.1995  0.1933 -0.6943
  353MOL0     C47561   9.999   7.808   2.262 -0.1875  0.4119  0.0680
  353MOL0     C47562  10.122   7.792   2.347 -0.2363 -0.1771 -0.2213
  353MOL0     C47563  10.233   7.764   2.240  0.9489  0.7083 -0.0670
  353MOL0    Cl47564  10.273   7.905   2.142  0.2336  0.6270 -0.2434
  353MOL0     C47565   9.195   7.658   2.405  0.0514  1.0257  0.3320
  353MOL0     C47566   9.093   7.564   2.414  0.3729  0.5304 -0.3074
  353MOL0     O47567   8.865   7.373   2.122  0.1692 -0.4457 -0.1077
  353MOL0     C47568   8.717   7.263   2.426  0.5134  0.9197  0.4514
  353MOL0     C47569   8.601   7.202   2.478  0.0292  0.3570  0.2285
  353MOL0     N47570   8.069   7.160   2.853  0.2987  0.4250 -1.0160
  353MOL0     N47571   7.994   7.232   2.932  0.6906 -0.2269  1.0017
  353MOL0     C47572   6.782   7.268   3.521 -0.0313  0.3371  0.2599
  353MOL0     C47573   6.645   7.238   3.543  0.8142  0.0811  0.0774
  353MOL0     C47574   6.247   7.225   3.727  0.5777 -0.3541 -0.1381
  353MOL0     C47575   6.136   7.305   3.685  0.4911 -1.0976 -0.4479
  353MOL0     C47576   6.009   7.263   3.716 -0.1553 -0.4225 -0.1978
  353MOL0     C47577   5.980   7.142   3.770  0.1164 -0.0958 -0.8542
  353MOL0     O47578   5.847   7.101   3.786 -0.0375 -0.5057  0.2111
  353MOL0     C47579   5.740   7.185   3.727 -0.3558 -0.3404  0.2206
  353MOL0     C47580   5.601   7.122   3.751  0.8061  0.4376  0.5054
  353MOL0     C47581   5.494   7.221   3.706  0.5276 -0.1063 -0.2833
  353MOL0     C47582   5.357   7.190   3.765  0.5339 -0.3748 -0.6793
  353MOL0     C47583   5.253   7.251   3.691  0.5123  0.3567  0.5549
  353MOL0     C47584   5.159   7.301   3.637  0.6130 -0.7709  1.2267
  353MOL0     C47585   6.084   7.055   3.802  0.7335  0.1765 -0.2679
  353MOL0     C47586   6.214   7.094   3.777 -1.1625 -0.2209 -0.4639
  353MOL0     C47587   6.323   6.995   3.813 -1.1058  0.0428  0.0223
  353MOL0     H47588   6.657   7.253   3.887  4.0896  2.3714  0.8366
  353MOL0     H47589   6.901   7.302   3.839  0.3068  0.4361 -0.0497
  353MOL0     H47590   7.108   7.151   3.552  3.0142  0.6718 -1.3076
  353MOL0     H47591   7.028   7.239   3.421  0.0727  0.3967 -1.0554
  353MOL0     H47592   7.283   7.341   3.553  0.8967  0.6821 -0.6206
  353MOL0     H47593   7.181   7.422   3.434 -2.7060 -0.7512  1.0743
  353MOL0     H47594   7.216   7.209   3.277 -0.2117  0.4625  0.9433
  353MOL0     H47595   7.345   7.167   3.380 -0.0534 -2.2219 -2.2226
  353MOL0     H47596   7.325   7.422   3.215  1.0564  1.5608  0.1185
  353MOL0     H47597   7.463   7.391   3.312  1.7595 -0.7442 -2.4747
  353MOL0     H47598   7.392   7.190   3.089  0.5772 -1.6826 -0.2987
  353MOL0     H47599   7.494   7.329   3.070 -0.2030 -0.1435  0.4236
  353MOL0     H47600   7.641   7.273   3.254 -0.3180  0.1915  0.0852
  353MOL0     H47601   7.561   7.114   3.275  1.5486 -0.6662  0.8278
  353MOL0     H47602   7.632   7.058   3.030  3.6262 -1.7583 -0.5318
  353MOL0     H47603   7.754   7.057   3.145 -1.3575 -1.0766 -0.5572
  353MOL0     H47604   7.686   7.273   2.937  0.3818 -0.1875 -0.9613
  353MOL0     H47605   7.795   7.302   3.084 -0.3064  0.1861 -0.2858
  353MOL0     H47606   7.755   7.054   2.780  0.0463 -4.0569  3.4104
  353MOL0     H47607   8.069   6.907   2.706 -2.0197 -1.1948  0.3438
  353MOL0     H47608   7.934   6.953   2.608 -0.2106 -0.8386  0.1038
  353MOL0     H47609   8.066   7.114   2.501  0.6834 -0.8596 -0.0397
  353MOL0     H47610   8.193   7.118   2.627  0.4495 -0.4806  0.6045
  353MOL0     H47611   8.144   6.872   2.440  1.6267 -1.8511  0.1283
  353MOL0     H47612   8.265   6.880   2.559  1.3955  0.2386 -0.9772
  353MOL0     H47613   8.263   7.065   2.316 -2.1834 -3.3221 -0.7494
  353MOL0     H47614   8.355   6.926   2.344  0.5990  1.3075 -1.3823
  353MOL0     H47615   8.474   7.095   2.180 -2.8727  0.2555  0.4190
  353MOL0     H47616   8.660   7.243   2.094 -0.4210  1.7520  0.6438
  353MOL0     H47617   9.092   7.468   2.093  1.4017  0.6010 -0.4084
  353MOL0     H47618   9.242   7.628   2.068 -2.3158  0.7213 -0.6524
  353MOL0     H47619   9.436   7.708   2.093 -1.9998 -1.2647 -0.1374
  353MOL0     H47620   9.340   7.855   2.094  1.5284  1.0910 -0.9985
  353MOL0     H47621   9.585   7.920   2.073  0.4450  1.4615  0.4481
  353MOL0     H47622   9.509   7.977   2.226 -0.1774 -0.6240  0.0724
  353MOL0     H47623   9.596   7.816   2.355 -1.2743 -2.8435 -1.3490
  353MOL0     H47624   9.655   7.722   2.219 -0.2235  0.5570 -0.7489
  353MOL0     H47625   9.752   8.012   2.271 -3.5735  0.2024  0.4995
  353MOL0     H47626   9.796   7.908   2.144  0.0949  1.5882  0.3530
  353MOL0     H47627   9.823   7.759   2.391 -1.2328  1.3743  0.0502
  353MOL0     H47628   9.907   7.912   2.417  2.5122 -0.8418 -0.8276
  353MOL0     H47629   9.972   7.713   2.214 -0.3945  1.4297 -1.9350
  353MOL0     H47630  10.012   7.884   2.185 -1.9514 -2.7126 -3.6483
  353MOL0     H47631  10.101   7.710   2.415 -1.0845 -0.3457 -0.6804
  353MOL0     H47632  10.139   7.880   2.410 -1.1386 -2.2426  3.1573
  353MOL0     H47633  10.328   7.747   2.291  0.6690  2.2160  1.0309
  353MOL0     H47634  10.209   7.672   2.185  1.9990 -0.6879  1.6680
  353MOL0     H47635   9.224   7.706   2.498  1.4565 -0.5004  0.7299
  353MOL0     H47636   9.046   7.541   2.510 -1.8865 -0.0820 -1.4818
  353MOL0     H47637   8.788   7.299   2.500  1.7675 -0.1004 -0.2345
  353MOL0     H47638   8.590   7.170   2.581  1.4931 -4.2632 -0.8322
  353MOL0     H47639   6.830   7.264   3.423  3.0203 -3.7671  1.6331
  353MOL0     H47640   6.569   7.217   3.468 -1.0174  0.8035  1.6671
  353MOL0     H47641   6.155   7.405   3.648 -1.3693  0.0888  1.6023
  353MOL0     H47642   5.934   7.327   3.671  2.6183  2.3865 -1.2085
  353MOL0     H47643   5.753   7.196   3.619 -1.5541  0.5047  0.1439
  353MOL0     H47644   5.736   7.283   3.777 -2.2008  0.2345 -0.9626
  353MOL0     H47645   5.597   7.103   3.859 -2.2843 -1.2411  0.2273
  353MOL0     H47646   5.595   7.023   3.705 -1.3828  1.0289 -0.6357
  353MOL0     H47647   5.488   7.227   3.597 -2.5982 -3.4542 -0.4570
  353MOL0     H47648   5.537   7.316   3.741  2.1823 -1.6958  2.3379
  353MOL0     H47649   5.349   7.081   3.770  2.2177 -0.4740  1.3740
  353MOL0     H47650   5.351   7.224   3.869  0.5871 -0.8662 -0.5156
  353MOL0     H47651   5.070   7.351   3.606  1.3847  0.6300  1.1903
  353MOL0     H47652   6.054   6.963   3.851 -0.4079  0.1619 -0.9605
  353MOL0     H47653   6.392   7.051   3.877 -2.5714  0.6428  1.1377
  353MOL0     H47654   6.277   6.908   3.860 -1.4214 -0.0853 -0.5130
  353MOL0     H47655   6.378   6.963   3.724 -1.4211  2.5603 -1.1736
  354MOL0     O47656   5.599   9.267  10.825  0.4917  0.3543  0.6451
  354MOL0     C47657   5.640   9.191  10.740  0.5601  0.5214  0.1123
  354MOL0     O47658   5.561   9.121  10.653  0.1604 -0.4165 -0.3502
  354MOL0     C47659   5.431   9.162  10.634 -0.5209  0.4455 -0.4946
  354MOL0     C47660   5.403   9.253  10.535 -0.3509 -0.3554  0.8578
  354MOL0     C47661   5.271   9.281  10.504  1.2204 -0.1677 -0.4460
  354MOL0     C47662   5.163   9.218  10.574 -0.2166 -0.0523  0.1329
  354MOL0     O47663   5.042   9.257  10.527 -0.0817  0.4221 -0.3562
  354MOL0     C47664   4.932   9.170  10.567 -0.1205 -0.2200 -0.3868
  354MOL0     C47665   4.818   9.158  10.467  0.1494  0.6460 -0.3414
  354MOL0     C47666   4.855   9.155  10.318  0.4637  0.2913  0.2331
  354MOL0     C47667   4.948   9.044  10.278 -0.3296 -0.4946  0.6202
  354MOL0     C47668   4.990   9.054  10.127 -0.1106  0.7052  0.8076
  354MOL0     C47669   5.099   8.953  10.091 -0.4416 -0.9953  0.0762
  354MOL0     C47670   5.125   8.938   9.944 -0.5632 -0.4818  0.3326
  354MOL0     C47671   5.211   9.049   9.892  0.0900  0.5295 -0.5230
  354MOL0     N47672   5.352   9.036   9.955 -0.1992  0.6122 -0.7935
  354MOL0     C47673   5.402   9.121  10.049  0.4002  0.3636 -0.1015
  354MOL0     C47674   5.533   9.081  10.064  0.0995 -0.0631  0.0455
  354MOL0     C47675   5.627   9.129  10.160  0.1633  0.2542  0.6088
  354MOL0     C47676   5.769   9.062  10.163  0.6893 -0.2686 -1.0282
  354MOL0     C47677   5.843   9.145  10.272 -0.1647 -0.0869 -1.3099
  354MOL0     C47678   5.987   9.101  10.280  0.7772  0.1177  0.5612
  354MOL0     O47679   6.053   9.135  10.158  0.9758 -0.2659 -0.4049
  354MOL0     C47680   6.175   9.075  10.122  0.9735 -0.3960 -0.8642
  354MOL0     C47681   6.249   9.137  10.021 -0.3931 -0.1277 -0.1650
  354MOL0     C47682   6.363   9.088   9.963 -0.1207  0.5951 -0.4553
  354MOL0     C47683   6.405   8.959  10.001 -0.0703  0.6365 -0.6398
  354MOL0     C47684   6.522   8.903   9.929  0.1230 -0.3310 -0.6328
  354MOL0     O47685   6.618   8.995   9.899 -0.3922  0.6545  0.1006
  354MOL0     C47686   6.745   8.945   9.867  0.3831 -0.2745 -0.6144
  354MOL0     C47687   6.830   8.926   9.972  0.4952 -0.5983 -0.3113
  354MOL0     C47688   6.953   8.875   9.935  0.1059  1.1014 -1.3943
  354MOL0     C47689   7.004   8.856   9.801 -0.9670  0.0764 -0.2155
  354MOL0     O47690   7.130   8.834   9.750 -0.0783  0.6248 -0.0033
  354MOL0     C47691   7.237   8.791   9.832 -0.4057 -0.6156 -0.0531
  354MOL0     C47692   7.326   8.711   9.747  0.4645 -0.1624 -0.1789
  354MOL0     C47693   7.267   8.590   9.669 -0.5992  0.5886  0.5051
  354MOL0     C47694   7.371   8.498   9.605  0.1222 -0.0378  0.1697
  354MOL0     C47695   7.311   8.380   9.522 -0.3091  0.6757  0.7682
  354MOL0     C47696   7.396   8.250   9.505 -0.2981 -0.5384 -0.5335
  354MOL0     C47697   7.520   8.294   9.412 -0.9246  0.2708 -0.1115
  354MOL0     C47698   7.609   8.174   9.378 -1.1183  0.9041  0.4725
  354MOL0    Cl47699   7.702   8.105   9.503  0.3922 -0.1450 -0.2493
  354MOL0     C47700   6.906   8.880   9.701  0.0998  0.7601 -0.5475
  354MOL0     C47701   6.774   8.918   9.736 -0.6417  0.0327  0.4602
  354MOL0     O47702   6.537   8.779   9.923  0.4282  0.6106  0.3181
  354MOL0     C47703   6.333   8.889  10.102  1.1000 -1.3448  0.9760
  354MOL0     C47704   6.214   8.948  10.159 -0.0271 -0.5371 -0.4048
  354MOL0     N47705   5.569   8.988   9.972  0.2185  0.6079 -0.1701
  354MOL0     N47706   5.450   8.953   9.920  0.4663  0.3828  0.2475
  354MOL0     C47707   5.192   9.140  10.679 -0.1954 -1.0319 -0.4740
  354MOL0     C47708   5.322   9.104  10.701 -0.1214  0.6323  0.7723
  354MOL0     C47709   5.787   9.170  10.732  0.2615  0.1060  0.6363
  354MOL0     C47710   5.840   9.053  10.661 -0.7833 -0.0208 -0.6402
  354MOL0     C47711   5.980   9.032  10.650  0.1900  0.7793 -0.1769
  354MOL0     C47712   6.071   9.104  10.721 -0.3712  0.3103  0.1083
  354MOL0     O47713   6.210   9.091  10.731 -0.5313 -0.0541 -0.4037
  354MOL0     C47714   6.277   8.992  10.656 -0.2910  0.1758 -0.7404
  354MOL0     C47715   6.418   9.047  10.627 -0.6205  0.4308 -0.9207
  354MOL0     C47716   6.431   9.147  10.523  0.5358  0.6040 -0.2993
  354MOL0     C47717   6.458   9.081  10.386 -0.4785 -0.3015 -0.2032
  354MOL0     C47718   6.597   9.027  10.385 -1.1916 -0.3555  0.3271
  354MOL0     C47719   6.706   8.973  10.382 -0.0211  0.4108  0.2180
  354MOL0     C47720   6.029   9.217  10.787 -0.2468 -0.1519  0.5739
  354MOL0     C47721   5.892   9.251  10.791  0.7941 -0.5936 -0.2746
  354MOL0     C47722   5.864   9.366  10.885 -0.0306 -0.1967 -0.5592
  354MOL0     H47723   5.490   9.273  10.473  0.4575  0.7699  2.2865
  354MOL0     H47724   5.237   9.357  10.434 -1.9443  0.3451  1.4643
  354MOL0     H47725   4.969   9.069  10.584  1.5348  0.7376  2.2816
  354MOL0     H47726   4.895   9.201  10.665  1.3305  1.3649 -0.2860
  354MOL0     H47727   4.758   9.248  10.482  1.7140  1.4111  2.0414
  354MOL0     H47728   4.758   9.072  10.497 -0.6060  1.7398  1.4000
  354MOL0     H47729   4.894   9.254  10.292  0.1474 -0.3454 -3.0671
  354MOL0     H47730   4.753   9.135  10.284 -0.7901  2.5362  2.3240
  354MOL0     H47731   5.044   9.056  10.328  1.6594  0.5372 -3.0515
  354MOL0     H47732   4.904   8.945  10.297 -0.1389 -0.4686  1.2068
  354MOL0     H47733   4.904   9.031  10.063  0.3536 -1.9710  1.0185
  354MOL0     H47734   5.034   9.151  10.106 -2.3965  1.7411  0.5268
  354MOL0     H47735   5.194   8.982  10.138 -1.0762 -0.9199  1.3354
  354MOL0     H47736   5.077   8.855  10.134  2.3225 -0.7408  2.4499
  354MOL0     H47737   5.034   8.932   9.883  0.2201  2.1823 -1.2796
  354MOL0     H47738   5.179   8.845   9.926  3.5357  1.4342  1.5797
  354MOL0     H47739   5.218   9.048   9.783 -0.7083  2.4856 -0.6412
  354MOL0     H47740   5.167   9.143   9.928  0.2697 -0.0748  1.3988
  354MOL0     H47741   5.347   9.209  10.081 -1.6971 -1.1182  0.6272
  354MOL0     H47742   5.643   9.236  10.144  0.8787 -0.0847 -1.2566
  354MOL0     H47743   5.588   9.110  10.260 -0.1581 -0.0964  0.4177
  354MOL0     H47744   5.746   8.959  10.192 -1.4854  0.4763  0.0870
  354MOL0     H47745   5.823   9.062  10.067 -0.1823 -0.6432 -1.5353
  354MOL0     H47746   5.788   9.137  10.366 -0.8728  0.2055 -1.6870
  354MOL0     H47747   5.851   9.249  10.239  0.2015  1.1619  2.3249
  354MOL0     H47748   5.986   8.992  10.288 -0.1471  0.0920  0.1784
  354MOL0     H47749   6.026   9.146  10.372 -0.4082 -0.2795  1.2734
  354MOL0     H47750   6.219   9.234   9.982  0.1857  0.3173  0.4644
  354MOL0     H47751   6.415   9.145   9.886  0.6047 -1.9477 -1.9432
  354MOL0     H47752   6.807   8.943  10.077  1.2754  1.1635 -0.3810
  354MOL0     H47753   7.030   8.850  10.007 -0.8934  1.0191 -0.3279
  354MOL0     H47754   7.282   8.876   9.883 -2.8900  0.7580  0.0001
  354MOL0     H47755   7.200   8.729   9.915 -2.5499  1.7270  0.8705
  354MOL0     H47756   7.379   8.775   9.676  2.3555 -0.7136  0.6564
  354MOL0     H47757   7.408   8.670   9.807  2.2183  0.3633 -2.1119
  354MOL0     H47758   7.210   8.524   9.736 -1.2366  1.0150  0.3935
  354MOL0     H47759   7.190   8.614   9.595  1.4360  0.5336 -1.7472
  354MOL0     H47760   7.440   8.459   9.680  1.2601  0.0704 -0.7880
  354MOL0     H47761   7.421   8.561   9.531 -0.0999  0.9337  0.8275
  354MOL0     H47762   7.285   8.410   9.420 -0.5360 -3.5664 -0.6353
  354MOL0     H47763   7.212   8.354   9.560  0.2829  0.1345  1.9797
  354MOL0     H47764   7.430   8.215   9.603  0.2809  0.2186 -0.4515
  354MOL0     H47765   7.342   8.166   9.462  0.8080 -2.2764  1.2764
  354MOL0     H47766   7.579   8.376   9.454  0.5612  0.5656 -2.6211
  354MOL0     H47767   7.487   8.328   9.314  1.3560 -0.4876 -1.1875
  354MOL0     H47768   7.555   8.088   9.338  0.2055  0.4297 -0.3877
  354MOL0     H47769   7.672   8.208   9.295 -2.1917 -2.2901 -1.8700
  354MOL0     H47770   6.938   8.859   9.599  1.0442 -1.1579  0.0863
  354MOL0     H47771   6.703   8.938   9.656  0.4322  2.3388  0.0115
  354MOL0     H47772   6.361   8.791  10.141  0.6381 -1.1085  1.9123
  354MOL0     H47773   6.164   8.887  10.233 -0.1609 -0.9624 -0.8370
  354MOL0     H47774   5.113   9.104  10.743 -0.3195 -1.7542 -1.0228
  354MOL0     H47775   5.340   9.038  10.786  0.6025  1.1883  1.0576
  354MOL0     H47776   5.769   8.985  10.616 -0.3196  1.0357 -3.1274
  354MOL0     H47777   6.008   8.946  10.590 -0.3361  0.8394 -0.5180
  354MOL0     H47778   6.228   8.966  10.562  0.7775 -2.3183 -0.6687
  354MOL0     H47779   6.286   8.900  10.716 -1.0809  0.3045 -0.4053
  354MOL0     H47780   6.485   8.965  10.602 -0.7752  0.3224 -0.9765
  354MOL0     H47781   6.441   9.093  10.723 -1.7872  1.8117 -1.2673
  354MOL0     H47782   6.519   9.208  10.547  0.5341  0.2638  0.6236
  354MOL0     H47783   6.332   9.193  10.535 -0.0893 -1.0769  1.5349
  354MOL0     H47784   6.386   9.001  10.367 -2.7719  1.4684  0.5691
  354MOL0     H47785   6.446   9.158  10.309 -0.1738  1.9049  1.8303
  354MOL0     H47786   6.803   8.928  10.389 -0.7130 -1.3116 -0.6701
  354MOL0     H47787   6.104   9.279  10.835 -1.4226  2.0739 -0.3380
  354MOL0     H47788   5.957   9.400  10.932 -1.6093  3.3391  0.3766
  354MOL0     H47789   5.820   9.456  10.840 -0.2665  1.0745  1.9723
  354MOL0     H47790   5.800   9.343  10.971 -0.4811 -1.7602 -1.2982
  355MOL0     O47791   8.226   5.751   6.390 -0.0767 -0.2728  0.6025
  355MOL0     C47792   8.163   5.861   6.415  0.3471 -0.1388 -0.0278
  355MOL0     O47793   8.227   5.979   6.436  0.9831 -0.1458 -0.4483
  355MOL0     C47794   8.362   5.994   6.434 -1.0114 -0.0488 -0.3302
  355MOL0     C47795   8.434   6.030   6.546 -0.6157  0.3395 -0.6510
  355MOL0     C47796   8.573   6.055   6.534 -0.0796  0.5246  0.0843
  355MOL0     C47797   8.639   6.044   6.412  0.3449  0.3560 -0.8849
  355MOL0     O47798   8.776   6.060   6.404 -0.1384  0.0039  0.0186
  355MOL0     C47799   8.839   6.051   6.271 -0.3875 -0.5395 -0.1881
  355MOL0     C47800   8.987   6.064   6.284  0.0861 -0.1826  0.4970
  355MOL0     C47801   9.052   5.955   6.382  0.1841 -0.9904 -0.1685
  355MOL0     C47802   9.206   5.950   6.356 -0.0954  0.1343 -0.5536
  355MOL0     C47803   9.280   6.064   6.437  0.3814 -1.0317 -0.2571
  355MOL0     C47804   9.423   6.065   6.416 -0.4268  0.2526 -0.0816
  355MOL0     C47805   9.497   6.137   6.527  0.2713 -0.0839 -0.6080
  355MOL0     C47806   9.638   6.168   6.488 -1.0923  0.3331 -0.8014
  355MOL0     N47807   9.713   6.240   6.591  0.0780  0.1225 -0.1952
  355MOL0     C47808   9.733   6.193   6.719 -0.2568 -0.1406  0.5820
  355MOL0     C47809   9.811   6.285   6.782 -0.1822  0.4218  0.0934
  355MOL0     C47810   9.872   6.274   6.916 -0.3371 -0.1560  0.5913
  355MOL0     C47811   9.963   6.143   6.941 -0.9148  0.3104 -0.1836
  355MOL0     C47812  10.057   6.117   6.825  0.1361 -0.0208 -0.2082
  355MOL0     C47813  10.182   6.203   6.823  1.1159 -0.0205 -1.0231
  355MOL0     O47814  10.278   6.150   6.912 -0.4094  0.1180 -0.2469
  355MOL0     C47815  10.403   6.206   6.907  0.5948  0.3865 -0.4642
  355MOL0     C47816  10.443   6.317   6.835 -0.3037 -0.0966 -0.3330
  355MOL0     C47817  10.578   6.357   6.845  0.4278 -0.3040  0.0713
  355MOL0     C47818  10.659   6.301   6.940 -0.3431  0.2780  0.1774
  355MOL0     C47819  10.798   6.342   6.953  0.1771  0.0023  0.1041
  355MOL0     O47820  10.835   6.453   6.880  0.1889 -0.3273  0.4061
  355MOL0     C47821  10.954   6.509   6.913 -0.9366 -0.4680  0.4994
  355MOL0     C47822  11.001   6.555   7.035 -0.3260  0.5324 -0.0245
  355MOL0     C47823  11.139   6.583   7.049  0.1513  0.2234  0.7909
  355MOL0     C47824  11.226   6.587   6.938  0.0678  0.2755  0.0925
  355MOL0     O47825  11.348   6.641   6.967  0.3071 -0.0259  0.0201
  355MOL0     C47826  11.447   6.665   6.857  0.3486  0.3494 -0.1072
  355MOL0     C47827  11.580   6.721   6.912 -0.6726 -1.2716  0.5711
  355MOL0     C47828  11.690   6.711   6.809 -0.2270  0.2987  0.7806
  355MOL0     C47829  11.817   6.778   6.862 -0.1231 -0.1242  0.5950
  355MOL0     C47830  11.907   6.822   6.746 -0.6055  0.2028  0.0962
  355MOL0     C47831  12.055   6.837   6.778 -0.0653 -0.4657 -0.1106
  355MOL0     C47832  12.122   6.934   6.682 -0.0890  0.1254  0.0832
  355MOL0     C47833  12.272   6.958   6.704 -0.1649 -0.1401  0.1916
  355MOL0    Cl47834  12.330   7.099   6.611  0.0560  0.0923  0.0789
  355MOL0     C47835  11.175   6.532   6.817  0.1188 -0.3093  0.1700
  355MOL0     C47836  11.044   6.490   6.804 -0.6200 -0.0080 -0.1628
  355MOL0     O47837  10.869   6.276   7.028 -0.2925  0.9782  0.5976
  355MOL0     C47838  10.610   6.206   7.032  0.3609 -0.1841 -0.6206
  355MOL0     C47839  10.485   6.152   7.011  0.1482 -0.2378  0.4064
  355MOL0     N47840   9.829   6.393   6.703  0.4771  0.3864 -0.6872
  355MOL0     N47841   9.764   6.363   6.582 -0.3321 -0.4872 -1.2638
  355MOL0     C47842   8.561   5.996   6.306 -0.1140 -0.8248  0.2384
  355MOL0     C47843   8.430   5.965   6.315 -0.9669  0.1281 -0.3709
  355MOL0     C47844   8.018   5.868   6.388 -0.3494  0.4482 -0.0244
  355MOL0     C47845   7.959   5.991   6.373  0.2654 -0.1956  0.5475
  355MOL0     C47846   7.818   5.996   6.367  0.2122 -1.0356 -0.1112
  355MOL0     C47847   7.735   5.892   6.371 -0.0769  0.0741 -0.4748
  355MOL0     O47848   7.601   5.912   6.394 -0.1366  1.1365 -0.3362
  355MOL0     C47849   7.532   5.831   6.489 -0.7356  0.0878  0.3641
  355MOL0     C47850   7.400   5.890   6.529 -0.2755  0.2622 -0.1312
  355MOL0     C47851   7.301   5.907   6.414  0.1516  0.4147 -0.0103
  355MOL0     C47852   7.273   5.779   6.333 -0.2303 -0.2217  0.2462
  355MOL0     C47853   7.209   5.676   6.418 -0.4574  0.1472 -1.0160
  355MOL0     C47854   7.153   5.598   6.493  0.4806 -0.7031 -0.0529
  355MOL0     C47855   7.791   5.766   6.373  0.0469  0.1034 -0.0627
  355MOL0     C47856   7.930   5.747   6.384 -0.8131 -0.7403 -0.2277
  355MOL0     C47857   7.979   5.608   6.415 -0.3438  0.0150  0.7839
  355MOL0     H47858   8.384   6.042   6.642  1.9045  2.9526  0.5137
  355MOL0     H47859   8.624   6.079   6.627  0.1367  1.9239 -0.3573
  355MOL0     H47860   8.811   5.955   6.226 -0.2043 -0.6491 -0.0679
  355MOL0     H47861   8.808   6.131   6.203 -1.1633  1.7162  2.6204
  355MOL0     H47862   9.012   6.162   6.326  2.0825 -0.6192  0.3907
  355MOL0     H47863   9.036   6.040   6.189 -2.1352 -0.6110 -0.6077
  355MOL0     H47864   9.026   5.852   6.356  0.3292 -0.3721 -3.2082
  355MOL0     H47865   9.032   5.964   6.489 -1.7644 -2.4532 -0.3534
  355MOL0     H47866   9.237   5.854   6.399 -0.0051  0.5288  0.2819
  355MOL0     H47867   9.231   5.949   6.250  0.1253  2.8408 -0.5820
  355MOL0     H47868   9.235   6.158   6.405 -1.6931 -0.3085  4.0813
  355MOL0     H47869   9.258   6.050   6.543 -1.9256  0.7864 -0.4273
  355MOL0     H47870   9.462   5.963   6.408  0.7470  0.7861 -1.8563
  355MOL0     H47871   9.451   6.101   6.317  0.2213 -2.1807 -0.8532
  355MOL0     H47872   9.493   6.078   6.619 -3.8303  2.5493  1.1966
  355MOL0     H47873   9.440   6.222   6.565 -3.1076 -4.1632  4.9892
  355MOL0     H47874   9.692   6.073   6.475 -0.7330  0.5139 -0.6551
  355MOL0     H47875   9.634   6.209   6.387 -1.2351  2.0915 -0.1135
  355MOL0     H47876   9.720   6.094   6.763  0.5775 -1.2877 -1.5871
  355MOL0     H47877   9.936   6.362   6.929 -0.2170  0.3047 -2.3619
  355MOL0     H47878   9.792   6.278   6.990 -0.8846  1.0323 -0.0352
  355MOL0     H47879  10.027   6.151   7.030 -0.5426  0.4708 -0.4618
  355MOL0     H47880   9.899   6.055   6.952 -1.3399  0.6536  0.0958
  355MOL0     H47881  10.006   6.126   6.728  1.8016  1.4975 -0.9930
  355MOL0     H47882  10.085   6.012   6.840 -2.8013 -1.3765 -2.9262
  355MOL0     H47883  10.158   6.303   6.860  1.6903  0.2512 -1.3792
  355MOL0     H47884  10.216   6.215   6.720 -0.3679  0.5269 -1.4776
  355MOL0     H47885  10.375   6.372   6.772 -0.2316  1.3989  0.8262
  355MOL0     H47886  10.595   6.436   6.772 -3.6592  0.1892 -0.5408
  355MOL0     H47887  10.939   6.582   7.120 -2.6170  1.1125 -1.7699
  355MOL0     H47888  11.184   6.636   7.133  0.7486  0.8794  0.0757
  355MOL0     H47889  11.469   6.571   6.807  1.1548 -0.1951  1.2310
  355MOL0     H47890  11.398   6.723   6.778 -1.7433 -2.1637 -0.7857
  355MOL0     H47891  11.555   6.820   6.953  1.3275 -0.0319 -1.0021
  355MOL0     H47892  11.608   6.663   7.001  0.8380  2.2770  2.6263
  355MOL0     H47893  11.710   6.605   6.789  0.0216  0.5226 -0.2271
  355MOL0     H47894  11.666   6.756   6.713  3.2664 -1.1695 -0.9835
  355MOL0     H47895  11.865   6.693   6.912  1.2876 -0.7156 -1.5864
  355MOL0     H47896  11.781   6.865   6.915 -3.5621 -1.0430 -0.0215
  355MOL0     H47897  11.878   6.924   6.721  0.6872  0.2366 -1.4278
  355MOL0     H47898  11.891   6.759   6.657  1.3376  2.0683 -1.6929
  355MOL0     H47899  12.050   6.884   6.877 -5.5463 -3.1694  1.2749
  355MOL0     H47900  12.109   6.742   6.784  1.6124  0.4837  0.7315
  355MOL0     H47901  12.074   7.033   6.679  1.1183  0.7182 -1.2338
  355MOL0     H47902  12.116   6.883   6.585 -0.1973 -1.5315  0.9331
  355MOL0     H47903  12.295   6.995   6.805 -1.5639  0.0948  0.4509
  355MOL0     H47904  12.339   6.882   6.664  1.6876  2.4208 -1.9154
  355MOL0     H47905  11.221   6.526   6.719 -0.6026 -0.1170 -0.1864
  355MOL0     H47906  11.010   6.437   6.715 -1.6816  0.5921 -0.1317
  355MOL0     H47907  10.679   6.163   7.104  0.4882  0.6829 -0.2074
  355MOL0     H47908  10.461   6.064   7.069  4.1636 -1.4982  0.4543
  355MOL0     H47909   8.613   5.987   6.211  1.2657 -0.7776  0.9576
  355MOL0     H47910   8.392   5.923   6.222  2.9586 -1.8021 -1.3307
  355MOL0     H47911   8.007   6.088   6.374 -0.5725  0.3314 -2.0610
  355MOL0     H47912   7.759   6.087   6.365  0.4358 -0.8790  0.2526
  355MOL0     H47913   7.590   5.823   6.581  0.2672 -0.6403 -0.3088
  355MOL0     H47914   7.523   5.730   6.447 -3.0558  1.4960 -2.9314
  355MOL0     H47915   7.404   5.990   6.573 -0.4252  0.1020  0.2449
  355MOL0     H47916   7.355   5.820   6.599  0.2687  0.7900  0.7602
  355MOL0     H47917   7.344   5.986   6.351  0.7803  1.3356  1.5067
  355MOL0     H47918   7.212   5.952   6.457 -0.2344  0.3046 -0.6780
  355MOL0     H47919   7.209   5.804   6.248 -0.2365  1.7290  0.7903
  355MOL0     H47920   7.364   5.729   6.298 -0.6467 -1.3955  0.7914
  355MOL0     H47921   7.101   5.537   6.564 -1.4329 -0.7175 -1.3898
  355MOL0     H47922   7.721   5.687   6.350 -0.0561  0.1058  0.2488
  355MOL0     H47923   8.051   5.567   6.344  2.0053  3.5698  0.9054
  355MOL0     H47924   8.041   5.607   6.505  0.2000 -2.1878  0.4600
  355MOL0     H47925   7.889   5.546   6.423 -1.9659  1.4554 -3.4516
  356MOL0     O47926   5.323   5.787   4.338 -0.2401 -0.8659  0.9171
  356MOL0     C47927   5.292   5.783   4.457  0.7131  0.6659 -0.9458
  356MOL0     O47928   5.376   5.739   4.553  0.7636  0.5030  1.0550
  356MOL0     C47929   5.497   5.691   4.522 -0.2359  0.3408  0.1388
  356MOL0     C47930   5.605   5.745   4.585 -1.0336 -1.1558  0.3708
  356MOL0     C47931   5.737   5.711   4.561 -0.9845  0.1550 -0.5392
  356MOL0     C47932   5.764   5.605   4.468  0.2113  0.5493  0.4893
  356MOL0     O47933   5.893   5.571   4.448 -0.0092 -0.3696 -0.2251
  356MOL0     C47934   5.926   5.440   4.414 -0.2360  0.4536  0.2646
  356MOL0     C47935   6.080   5.443   4.384  0.0590 -0.0701  0.0558
  356MOL0     C47936   6.162   5.517   4.480 -0.4325 -0.5257  0.5410
  356MOL0     C47937   6.306   5.497   4.448  0.4838 -0.3270  0.1062
  356MOL0     C47938   6.400   5.586   4.530  0.3059 -0.2720  0.0205
  356MOL0     C47939   6.543   5.591   4.483  0.1943  0.2044  0.3582
  356MOL0     C47940   6.625   5.693   4.560  0.7810  0.0707  0.3870
  356MOL0     C47941   6.679   5.635   4.691  0.1234 -0.8126  0.2411
  356MOL0     N47942   6.758   5.736   4.761  0.0438 -0.2283  0.2365
  356MOL0     C47943   6.890   5.749   4.775 -0.1860 -0.5027  0.6362
  356MOL0     C47944   6.921   5.856   4.852  0.8337  0.5170 -0.2618
  356MOL0     C47945   7.048   5.923   4.894 -0.7562 -1.5098 -0.0510
  356MOL0     C47946   7.143   5.903   4.774 -0.2791 -0.2154  0.2745
  356MOL0     C47947   7.280   5.962   4.806  0.1308  0.3325 -0.5982
  356MOL0     C47948   7.380   5.879   4.895  0.0661  0.2643 -0.6968
  356MOL0     O47949   7.493   5.943   4.950  0.3017  0.0327  1.4325
  356MOL0     C47950   7.614   5.931   4.890 -0.0321  0.0515 -0.1038
  356MOL0     C47951   7.630   5.885   4.761 -0.6443 -0.7757 -0.2383
  356MOL0     C47952   7.751   5.895   4.696 -0.3520  0.0468 -0.9514
  356MOL0     C47953   7.870   5.913   4.771 -0.0435 -0.8047  0.2030
  356MOL0     C47954   8.003   5.913   4.708  0.3798 -0.2564 -0.4923
  356MOL0     O47955   8.117   5.927   4.793  0.3283 -0.0967  0.2404
  356MOL0     C47956   8.249   5.939   4.753  0.1131 -0.0648  0.2138
  356MOL0     C47957   8.343   5.926   4.862  0.8829 -0.6699  0.0996
  356MOL0     C47958   8.478   5.938   4.833  0.1604  0.5579  0.3093
  356MOL0     C47959   8.536   5.944   4.708 -0.1231  0.4299  0.5168
  356MOL0     O47960   8.670   5.939   4.689 -0.3923 -0.5718 -0.6643
  356MOL0     C47961   8.721   5.947   4.557 -0.3401  0.7454  0.2816
  356MOL0     C47962   8.874   5.918   4.537  0.6524  0.8993 -0.1868
  356MOL0     C47963   8.921   5.792   4.604 -0.1785  0.5310  0.0787
  356MOL0     C47964   8.840   5.664   4.578  0.4659  0.4600 -0.0328
  356MOL0     C47965   8.855   5.547   4.673 -0.3153 -0.2756 -0.2711
  356MOL0     C47966   8.823   5.568   4.821 -0.7112 -0.4126 -1.0497
  356MOL0     C47967   8.676   5.605   4.842  0.0452  0.1990  0.1551
  356MOL0     C47968   8.611   5.517   4.949  0.4582 -0.3581  0.1972
  356MOL0    Cl47969   8.444   5.585   4.974 -0.1465  0.4258 -0.4037
  356MOL0     C47970   8.436   5.954   4.603  0.6372  0.1922 -0.0969
  356MOL0     C47971   8.298   5.944   4.626  0.6749 -0.5160  0.3773
  356MOL0     O47972   8.002   5.915   4.586 -0.8144  0.1186  0.3554
  356MOL0     C47973   7.864   5.937   4.907  0.3190 -0.6124 -0.2688
  356MOL0     C47974   7.737   5.959   4.965 -0.3197  0.0713  0.0511
  356MOL0     N47975   6.794   5.902   4.897 -0.2178  0.2095  0.3190
  356MOL0     N47976   6.706   5.840   4.829 -0.0299  0.1773 -0.2266
  356MOL0     C47977   5.652   5.553   4.394 -1.0651  0.1626 -0.4582
  356MOL0     C47978   5.523   5.589   4.419  0.2829  0.2759  0.1434
  356MOL0     C47979   5.148   5.816   4.497 -0.2347  1.0142 -0.1960
  356MOL0     C47980   5.050   5.807   4.397  0.4499  0.2625  0.4108
  356MOL0     C47981   4.917   5.850   4.426 -0.1764  0.2744  0.5635
  356MOL0     C47982   4.874   5.889   4.552 -0.0416 -0.1969 -0.1458
  356MOL0     O47983   4.749   5.938   4.560  0.0179 -0.1487 -0.2428
  356MOL0     C47984   4.711   6.006   4.684 -0.6957 -0.5283  0.4652
  356MOL0     C47985   4.556   6.000   4.705 -0.0885  0.8125  0.3763
  356MOL0     C47986   4.496   6.117   4.788 -0.0699 -0.2523  0.4712
  356MOL0     C47987   4.346   6.096   4.818  0.2711 -0.6540 -0.4404
  356MOL0     C47988   4.266   6.088   4.695 -0.6249 -0.0062  0.0926
  356MOL0     C47989   4.185   6.097   4.609  0.3610  0.3871  0.3923
  356MOL0     C47990   4.975   5.887   4.647  0.1003  0.1244 -0.0577
  356MOL0     C47991   5.107   5.844   4.633 -0.1944  0.1448  0.0079
  356MOL0     C47992   5.200   5.846   4.759  0.1690 -0.1453  0.5514
  356MOL0     H47993   5.581   5.827   4.653  0.4306 -0.5436  0.1986
  356MOL0     H47994   5.819   5.751   4.620 -0.5730 -1.0924 -0.2379
  356MOL0     H47995   5.911   5.369   4.496  0.4759 -2.2969 -1.8197
  356MOL0     H47996   5.867   5.403   4.329  1.2969 -0.1775 -0.5671
  356MOL0     H47997   6.088   5.499   4.291 -1.3273  0.6344  0.3301
  356MOL0     H47998   6.119   5.341   4.373 -0.8428 -0.5542  1.1105
  356MOL0     H47999   6.147   5.486   4.584 -0.0933 -3.1021 -0.1121
  356MOL0     H48000   6.139   5.624   4.470  1.8535 -0.1247 -1.5302
  356MOL0     H48001   6.336   5.392   4.456 -2.2641 -1.0554  2.8023
  356MOL0     H48002   6.313   5.532   4.345  1.9143  2.3107  1.0063
  356MOL0     H48003   6.368   5.690   4.533  3.2874  0.7290  1.3941
  356MOL0     H48004   6.401   5.547   4.632  4.3917 -1.5678 -0.2957
  356MOL0     H48005   6.596   5.495   4.484  1.9018  0.9236  5.1119
  356MOL0     H48006   6.539   5.611   4.375  0.3686 -3.3513 -0.4308
  356MOL0     H48007   6.560   5.778   4.583 -0.7244 -0.4879 -1.5773
  356MOL0     H48008   6.710   5.730   4.501 -1.3711  0.9224 -2.3732
  356MOL0     H48009   6.592   5.617   4.755 -2.0516  1.8201 -1.7699
  356MOL0     H48010   6.735   5.544   4.665  0.4284 -0.6903  0.4649
  356MOL0     H48011   6.968   5.687   4.731  0.7515  0.7735  0.4131
  356MOL0     H48012   7.037   6.029   4.918 -2.1415 -1.6063 -0.1557
  356MOL0     H48013   7.094   5.870   4.978 -1.0923 -0.6037  0.7209
  356MOL0     H48014   7.157   5.796   4.754 -1.4348 -0.0962 -1.3337
  356MOL0     H48015   7.097   5.961   4.694  2.8189  0.4399 -1.1608
  356MOL0     H48016   7.272   6.064   4.846  2.4709  0.4010 -0.1173
  356MOL0     H48017   7.326   5.977   4.707  0.0164 -1.7578 -0.9975
  356MOL0     H48018   7.405   5.799   4.824  3.9117 -0.0900  0.8157
  356MOL0     H48019   7.334   5.829   4.981 -2.3879  0.5783 -1.7453
  356MOL0     H48020   7.546   5.860   4.697 -1.5153  3.5150 -1.0711
  356MOL0     H48021   7.754   5.881   4.589  2.3119 -3.6263 -0.5809
  356MOL0     H48022   8.308   5.911   4.964 -0.8410  1.3688 -0.1313
  356MOL0     H48023   8.552   5.937   4.912 -0.1476  0.4875  0.5981
  356MOL0     H48024   8.673   5.870   4.496  2.2935 -0.1257 -0.8494
  356MOL0     H48025   8.702   6.048   4.519  1.8443  0.5616 -1.4772
  356MOL0     H48026   8.903   5.920   4.432 -0.8530 -3.6999 -0.9216
  356MOL0     H48027   8.928   6.000   4.585  1.2547  1.5236 -1.8605
  356MOL0     H48028   9.025   5.773   4.574 -0.7330 -1.0563 -1.0034
  356MOL0     H48029   8.915   5.816   4.710  0.3376  0.3187  0.1594
  356MOL0     H48030   8.865   5.628   4.478  0.4746  1.2318 -0.3122
  356MOL0     H48031   8.736   5.696   4.583  0.3743  0.0847  0.6606
  356MOL0     H48032   8.956   5.507   4.661 -0.0147  0.6816 -1.0782
  356MOL0     H48033   8.797   5.463   4.634  0.0606 -1.1607  0.9877
  356MOL0     H48034   8.846   5.477   4.877  1.2214  0.9175  0.5083
  356MOL0     H48035   8.894   5.642   4.859  1.6050 -3.5105  1.1930
  356MOL0     H48036   8.622   5.589   4.749  2.8891  2.7401 -2.1490
  356MOL0     H48037   8.679   5.707   4.882  2.4468 -0.7459  2.7642
  356MOL0     H48038   8.605   5.412   4.920 -1.6951 -0.5189  1.0207
  356MOL0     H48039   8.653   5.530   5.049 -1.1410 -1.5217  1.0750
  356MOL0     H48040   8.471   5.940   4.501  1.3811 -4.6279  0.5978
  356MOL0     H48041   8.234   5.940   4.538 -0.4353 -0.1388  1.1502
  356MOL0     H48042   7.953   5.955   4.967  1.1186 -0.7729 -1.3888
  356MOL0     H48043   7.732   5.978   5.071 -1.1037 -2.6741  0.5776
  356MOL0     H48044   5.667   5.488   4.308  0.7690  2.1833 -1.7587
  356MOL0     H48045   5.430   5.558   4.373 -0.5064  4.5649 -1.6597
  356MOL0     H48046   5.087   5.783   4.298 -1.2102 -1.1576  0.0874
  356MOL0     H48047   4.844   5.854   4.346 -0.5684 -0.9372  0.8436
  356MOL0     H48048   4.732   6.113   4.669  0.8193 -0.8882 -0.0830
  356MOL0     H48049   4.770   5.968   4.768  1.7032  0.4174 -0.7105
  356MOL0     H48050   4.524   5.906   4.750  1.8918 -0.4324 -0.6650
  356MOL0     H48051   4.517   6.012   4.603 -0.9946  1.5627  0.8005
  356MOL0     H48052   4.511   6.213   4.739  1.3462  0.0025  1.3398
  356MOL0     H48053   4.542   6.120   4.887  1.2759 -0.9720 -0.1124
  356MOL0     H48054   4.335   6.001   4.872 -1.0682  0.1391  0.7175
  356MOL0     H48055   4.299   6.177   4.873 -2.4852 -1.1159 -1.9317
  356MOL0     H48056   4.117   6.118   4.529  0.2936 -0.5522  0.1963
  356MOL0     H48057   4.947   5.910   4.750  0.2242  4.5734 -0.8525
  356MOL0     H48058   5.283   5.916   4.749 -0.9750  1.0093 -1.8922
  356MOL0     H48059   5.135   5.866   4.844  1.3478  2.9333  0.8587
  356MOL0     H48060   5.239   5.744   4.770 -1.4251 -1.1205 -1.8365
  357MOL0     O48061   2.923   8.437   9.206  0.7636  0.4313  0.0897
  357MOL0     C48062   2.848   8.527   9.241  0.2418  0.6337  0.0418
  357MOL0     O48063   2.875   8.620   9.341  0.1058 -0.4674 -0.0778
  357MOL0     C48064   2.998   8.647   9.394 -0.8224  0.6377  0.0005
  357MOL0     C48065   3.038   8.594   9.520 -0.0137  0.1203 -0.2783
  357MOL0     C48066   3.155   8.629   9.579  0.4982  0.5900  0.0945
  357MOL0     C48067   3.251   8.704   9.514 -0.1625  0.2200 -0.8626
  357MOL0     O48068   3.371   8.743   9.572  0.2034  0.0103  0.0522
  357MOL0     C48069   3.433   8.865   9.534 -0.1245  0.8891  0.5886
  357MOL0     C48070   3.546   8.831   9.429  0.4098 -0.6427  0.9205
  357MOL0     C48071   3.648   8.943   9.405  0.7687 -0.3006  0.7620
  357MOL0     C48072   3.764   8.899   9.320  0.8323  0.2671 -0.2113
  357MOL0     C48073   3.888   8.993   9.326 -0.2102  0.0638 -1.0699
  357MOL0     C48074   3.977   8.949   9.452 -0.4543 -0.4330 -0.0898
  357MOL0     C48075   4.125   8.997   9.442 -0.9423  0.2177 -0.6267
  357MOL0     C48076   4.151   9.148   9.417 -0.2388  0.3454 -0.3472
  357MOL0     N48077   4.292   9.189   9.436 -0.0247 -0.2915 -0.5621
  357MOL0     C48078   4.347   9.305   9.398 -0.4489  0.6297  0.3447
  357MOL0     C48079   4.476   9.303   9.440 -0.6249  0.2691  0.1139
  357MOL0     C48080   4.568   9.415   9.427 -0.1073  0.4472 -1.8142
  357MOL0     C48081   4.641   9.420   9.294 -0.5821  0.5684 -0.1093
  357MOL0     C48082   4.764   9.324   9.311  0.2843 -0.9583 -0.5352
  357MOL0     C48083   4.829   9.304   9.164  0.2466  0.1843  0.3347
  357MOL0     O48084   4.913   9.187   9.150  0.4124 -0.2343  0.4278
  357MOL0     C48085   5.046   9.207   9.122  0.4118 -0.0648 -0.1908
  357MOL0     C48086   5.114   9.330   9.121 -0.1931  1.1469  0.1895
  357MOL0     C48087   5.249   9.325   9.084 -0.7192 -0.1222  0.0995
  357MOL0     C48088   5.320   9.206   9.053 -0.1113 -0.2043 -0.1078
  357MOL0     C48089   5.467   9.202   9.028 -0.7744 -0.9080 -0.8421
  357MOL0     O48090   5.529   9.084   9.057  0.1023 -0.7281 -0.9139
  357MOL0     C48091   5.665   9.075   9.038 -0.2924 -0.5134  0.0325
  357MOL0     C48092   5.753   9.162   9.112  0.8529  0.1735 -0.3058
  357MOL0     C48093   5.892   9.161   9.088  0.2311 -0.7421  0.0977
  357MOL0     C48094   5.945   9.078   8.988  0.2610 -0.8759  0.6979
  357MOL0     O48095   6.086   9.084   8.982 -0.3259 -0.0278  0.3922
  357MOL0     C48096   6.154   8.965   9.019 -0.2983  0.8344 -0.4877
  357MOL0     C48097   6.299   8.991   9.039  0.1051  0.7339 -0.7490
  357MOL0     C48098   6.369   8.862   9.081  0.6868  0.5799  0.7743
  357MOL0     C48099   6.396   8.781   8.958  0.4853 -0.8171 -0.1139
  357MOL0     C48100   6.447   8.633   8.981 -0.3252 -0.3792 -0.1143
  357MOL0     C48101   6.575   8.635   9.067 -0.7788  0.1128 -0.4702
  357MOL0     C48102   6.669   8.512   9.059  0.2863  0.4365 -0.0366
  357MOL0     C48103   6.611   8.366   9.066 -0.7440  0.5883  0.1964
  357MOL0    Cl48104   6.747   8.246   9.035  0.1184  0.2089  0.2428
  357MOL0     C48105   5.858   8.987   8.919 -0.1325  0.3261  0.1930
  357MOL0     C48106   5.720   8.987   8.942  0.3573 -0.8286 -0.0157
  357MOL0     O48107   5.516   9.307   8.991 -1.1185  0.4635  0.2154
  357MOL0     C48108   5.242   9.086   9.048  0.5249  0.2801  0.0352
  357MOL0     C48109   5.105   9.095   9.075 -0.1493 -0.3260  0.0648
  357MOL0     N48110   4.502   9.185   9.513  0.5343  0.5295 -0.9048
  357MOL0     N48111   4.391   9.117   9.512 -0.0120  0.0232 -0.3781
  357MOL0     C48112   3.219   8.745   9.381 -0.2774 -0.0507 -0.1184
  357MOL0     C48113   3.094   8.718   9.319 -0.2076  0.0741  0.5799
  357MOL0     C48114   2.711   8.516   9.184  0.0141  0.5541  0.5649
  357MOL0     C48115   2.603   8.504   9.272 -0.1207  0.0246  0.0438
  357MOL0     C48116   2.471   8.496   9.227 -0.1403 -0.6070  0.5431
  357MOL0     C48117   2.447   8.498   9.086  0.7083 -0.2829 -0.2288
  357MOL0     O48118   2.314   8.506   9.048 -0.8805  0.4992  0.5830
  357MOL0     C48119   2.283   8.458   8.923  0.9633  0.3492  0.2300
  357MOL0     C48120   2.133   8.408   8.917  0.0548 -0.1084 -0.3523
  357MOL0     C48121   2.042   8.530   8.959 -0.8586  0.1208  1.0607
  357MOL0     C48122   1.890   8.491   8.932 -0.1762  0.0789  0.7686
  357MOL0     C48123   1.807   8.604   8.978 -0.3718 -0.1632  0.9729
  357MOL0     C48124   1.735   8.689   9.016  0.0444  0.0092 -0.4488
  357MOL0     C48125   2.555   8.519   8.997  0.5951  0.3928 -0.2574
  357MOL0     C48126   2.684   8.523   9.043  0.3729 -0.7106 -0.3274
  357MOL0     C48127   2.800   8.538   8.939  0.1828  0.1015  0.0240
  357MOL0     H48128   2.963   8.547   9.582  2.1878 -1.7095  1.1833
  357MOL0     H48129   3.163   8.606   9.685 -2.7209  0.8443  0.4869
  357MOL0     H48130   3.353   8.935   9.507 -0.4308  0.0727 -0.7340
  357MOL0     H48131   3.477   8.901   9.627  0.9794  2.2943 -0.4330
  357MOL0     H48132   3.511   8.790   9.334 -1.9858  0.5640  1.2001
  357MOL0     H48133   3.608   8.754   9.475  1.5458  0.2727  0.9696
  357MOL0     H48134   3.680   8.980   9.503 -0.0899  0.2109  0.8585
  357MOL0     H48135   3.596   9.025   9.354  0.5728 -0.5544  0.5517
  357MOL0     H48136   3.796   8.800   9.352  2.7359  1.7713  3.0966
  357MOL0     H48137   3.720   8.877   9.223  0.6796 -3.8973  0.6294
  357MOL0     H48138   3.937   8.983   9.228  0.5875  1.4147 -0.8324
  357MOL0     H48139   3.869   9.100   9.338 -0.9181  0.0438 -1.8796
  357MOL0     H48140   3.930   8.971   9.548  1.6989 -1.2028  1.2201
  357MOL0     H48141   3.977   8.840   9.439 -0.8399 -0.3696 -0.6266
  357MOL0     H48142   4.179   8.946   9.361  1.3271  4.1105 -1.8159
  357MOL0     H48143   4.177   8.967   9.533  0.3930  0.3907 -1.3083
  357MOL0     H48144   4.133   9.180   9.314  2.1125  0.4077 -0.7956
  357MOL0     H48145   4.085   9.200   9.488 -0.2843 -0.0758 -0.0753
  357MOL0     H48146   4.289   9.391   9.365  0.5709  0.8212 -1.0690
  357MOL0     H48147   4.515   9.508   9.448 -2.1190 -1.1663  0.9675
  357MOL0     H48148   4.644   9.402   9.504 -1.6612  1.8777  0.0521
  357MOL0     H48149   4.584   9.381   9.208 -0.4621  0.5515 -0.1819
  357MOL0     H48150   4.679   9.516   9.259  0.9946 -0.0347 -0.1164
  357MOL0     H48151   4.734   9.223   9.340  1.4852 -1.5175 -1.1822
  357MOL0     H48152   4.833   9.359   9.389  0.0628 -3.3596  0.8666
  357MOL0     H48153   4.883   9.398   9.144 -0.8084  0.6908 -0.1624
  357MOL0     H48154   4.749   9.299   9.090  2.2140 -0.4801 -1.8592
  357MOL0     H48155   5.093   9.433   9.151  2.9421  1.8296  0.4417
  357MOL0     H48156   5.302   9.419   9.097  0.0479 -0.6729  1.0876
  357MOL0     H48157   5.706   9.216   9.194 -1.4249 -2.2192  0.0809
  357MOL0     H48158   5.961   9.223   9.146  2.3647 -1.8459 -1.1334
  357MOL0     H48159   6.118   8.943   9.120  1.4465  0.0136 -0.0156
  357MOL0     H48160   6.150   8.892   8.937  1.2671  4.0361 -3.6741
  357MOL0     H48161   6.346   9.032   8.949  1.9669  0.0003 -0.1596
  357MOL0     H48162   6.311   9.079   9.102  0.3394  0.8509 -0.9535
  357MOL0     H48163   6.465   8.886   9.127  1.3745 -0.5992  0.0020
  357MOL0     H48164   6.307   8.800   9.146 -0.4784  3.6236  2.8192
  357MOL0     H48165   6.472   8.840   8.905  1.7570 -1.9822  0.3536
  357MOL0     H48166   6.304   8.770   8.901 -0.3016 -0.0579  0.9592
  357MOL0     H48167   6.452   8.580   8.885 -1.5806 -0.3986 -0.1875
  357MOL0     H48168   6.375   8.571   9.036 -1.5801  0.4837 -0.7274
  357MOL0     H48169   6.644   8.720   9.065  2.2573 -1.9321  3.1974
  357MOL0     H48170   6.553   8.637   9.174  2.6588  1.8863  0.3731
  357MOL0     H48171   6.744   8.517   9.139 -0.2681  1.2747  0.4479
  357MOL0     H48172   6.723   8.520   8.964  0.8945  3.0284  0.4502
  357MOL0     H48173   6.568   8.357   9.166 -0.1064 -1.2213  0.3489
  357MOL0     H48174   6.526   8.358   8.998 -1.4531 -2.1519  1.2584
  357MOL0     H48175   5.897   8.929   8.836 -1.2717  1.1578 -0.9578
  357MOL0     H48176   5.657   8.911   8.898 -1.1394 -0.2664  1.0717
  357MOL0     H48177   5.293   8.998   9.011  1.2289  1.6518 -2.4737
  357MOL0     H48178   5.047   9.004   9.067  2.4426 -2.1402  0.7597
  357MOL0     H48179   3.293   8.805   9.330  0.0239  0.2298  0.6272
  357MOL0     H48180   3.079   8.745   9.215  1.3178  2.6664  0.9616
  357MOL0     H48181   2.609   8.508   9.381 -2.4701  2.7093  0.2034
  357MOL0     H48182   2.388   8.504   9.296  1.1290  0.5051  2.0211
  357MOL0     H48183   2.347   8.374   8.892 -0.2027  0.2792 -2.2482
  357MOL0     H48184   2.295   8.533   8.845  1.3384 -2.4522 -2.6119
  357MOL0     H48185   2.122   8.323   8.985 -1.3098 -0.5826 -1.1195
  357MOL0     H48186   2.098   8.366   8.822 -0.0436 -0.6174 -0.0982
  357MOL0     H48187   2.056   8.616   8.893 -1.2583  0.9596  2.0397
  357MOL0     H48188   2.057   8.553   9.065  0.9106  0.2427  0.8073
  357MOL0     H48189   1.870   8.459   8.830 -0.7834 -1.5750  1.3823
  357MOL0     H48190   1.874   8.403   8.994 -3.3689 -0.7308 -0.9468
  357MOL0     H48191   1.680   8.776   9.045 -0.5627 -0.5714  0.1788
  357MOL0     H48192   2.531   8.543   8.894  1.1538  2.1927  0.0030
  357MOL0     H48193   2.893   8.573   8.985  1.8935 -2.9695 -0.7903
  357MOL0     H48194   2.830   8.441   8.898  0.4124  0.2831 -0.2377
  357MOL0     H48195   2.786   8.609   8.856 -0.3610  0.5065  0.4551
  358MOL0     O48196   7.607  10.388   1.669  0.4763 -0.1573  0.1332
  358MOL0     C48197   7.505  10.438   1.719 -0.2071  0.2210  0.0407
  358MOL0     O48198   7.478  10.570   1.713 -0.3139 -0.1767 -0.0018
  358MOL0     C48199   7.573  10.648   1.652 -0.2880 -0.8873  0.0915
  358MOL0     C48200   7.688  10.693   1.718 -0.6684  0.3478  0.2309
  358MOL0     C48201   7.790  10.764   1.658  0.4498 -0.5071  0.4996
  358MOL0     C48202   7.768  10.826   1.525 -0.3962  0.5075 -1.3295
  358MOL0     O48203   7.858  10.905   1.461  0.2190 -0.1514  0.1714
  358MOL0     C48204   7.940  10.987   1.537  0.4577 -1.1841 -0.6224
  358MOL0     C48205   8.084  10.948   1.531 -0.0142 -0.0055 -0.8532
  358MOL0     C48206   8.165  11.074   1.567  0.0962  1.0076  0.3331
  358MOL0     C48207   8.322  11.038   1.564  0.3397 -0.0450  0.5818
  358MOL0     C48208   8.359  10.923   1.660  0.8892  0.3348  0.7655
  358MOL0     C48209   8.335  10.961   1.803 -0.1012 -0.4890  0.2738
  358MOL0     C48210   8.404  10.857   1.892  0.2011 -0.1426  0.1183
  358MOL0     C48211   8.352  10.856   2.040  0.2439  0.0034 -0.4252
  358MOL0     N48212   8.466  10.828   2.125  0.0681  1.1002 -0.0597
  358MOL0     C48213   8.550  10.933   2.167  0.3865 -0.1576  0.2001
  358MOL0     C48214   8.631  10.863   2.262 -0.0398  0.5132  0.4843
  358MOL0     C48215   8.761  10.916   2.303  1.0265  0.1921  0.3197
  358MOL0     C48216   8.821  10.858   2.436 -0.0311 -0.2886  0.6226
  358MOL0     C48217   8.975  10.897   2.437  0.1177 -0.7532  0.4511
  358MOL0     C48218   9.056  10.847   2.557  0.9264  0.4062 -0.9590
  358MOL0     O48219   9.183  10.907   2.554 -0.3470  1.1443  0.2157
  358MOL0     C48220   9.256  10.884   2.665  0.3898 -0.5881  0.2943
  358MOL0     C48221   9.243  10.776   2.754  0.1293 -1.0039 -0.4994
  358MOL0     C48222   9.320  10.767   2.869 -0.3617  0.1343 -0.0852
  358MOL0     C48223   9.424  10.852   2.897  0.5499 -0.1440  0.6813
  358MOL0     C48224   9.494  10.854   3.023 -0.9450 -0.2818  0.1926
  358MOL0     O48225   9.602  10.940   3.038 -0.0247 -0.0756 -0.0534
  358MOL0     C48226   9.697  10.947   3.134 -0.1513 -0.4801 -0.4089
  358MOL0     C48227   9.693  10.890   3.264  0.6299  0.0134  0.1881
  358MOL0     C48228   9.797  10.918   3.355 -0.4205  0.6597  0.1733
  358MOL0     C48229   9.907  10.988   3.323 -0.5425 -0.5764 -0.0575
  358MOL0     O48230  10.006  11.023   3.412 -0.8849  0.3193 -0.0162
  358MOL0     C48231  10.068  10.914   3.489  0.6166  0.0788 -0.3399
  358MOL0     C48232  10.215  10.932   3.514 -0.3528 -0.4694 -0.2048
  358MOL0     C48233  10.232  11.028   3.641  0.3502  0.3747 -0.0564
  358MOL0     C48234  10.377  11.069   3.660  0.1111  0.0688  0.5427
  358MOL0     C48235  10.384  11.213   3.716 -0.0494  1.0757  0.5116
  358MOL0     C48236  10.337  11.217   3.861  0.8235 -0.7593  0.9034
  358MOL0     C48237  10.359  11.356   3.927  0.4551  0.7739 -0.2607
  358MOL0     C48238  10.307  11.362   4.075 -0.1996  0.3313 -0.3074
  358MOL0    Cl48239  10.390  11.242   4.180  0.0797  0.0681 -0.2057
  358MOL0     C48240   9.915  11.046   3.199 -0.3732  0.4145  0.0736
  358MOL0     C48241   9.816  11.023   3.105 -0.1257  0.5423 -0.2340
  358MOL0     O48242   9.463  10.772   3.109 -0.0134 -0.5429  0.5052
  358MOL0     C48243   9.454  10.954   2.800 -0.1933 -0.2266  0.3647
  358MOL0     C48244   9.363  10.973   2.685 -0.1386 -0.0705  0.6572
  358MOL0     N48245   8.601  10.726   2.265 -0.0161  0.4475  0.1750
  358MOL0     N48246   8.502  10.704   2.181 -0.0510  0.1288 -0.2059
  358MOL0     C48247   7.650  10.782   1.464  0.1568 -0.1610  0.0213
  358MOL0     C48248   7.557  10.697   1.523 -0.0640 -0.0465  0.8022
  358MOL0     C48249   7.387  10.347   1.759 -1.6239 -0.2389  0.3731
  358MOL0     C48250   7.417  10.232   1.841  0.5748 -0.3829  0.3893
  358MOL0     C48251   7.315  10.144   1.892  0.6129  0.1917  0.1483
  358MOL0     C48252   7.185  10.177   1.862 -0.2565  0.1522  0.3806
  358MOL0     O48253   7.079  10.096   1.888  0.1014 -0.4595  0.0853
  358MOL0     C48254   7.093   9.983   1.980  1.1693 -0.2639 -0.5081
  358MOL0     C48255   6.956   9.916   1.997  0.2335  0.1351  0.1196
  358MOL0     C48256   6.895   9.859   1.871 -0.8552 -0.2687 -0.1154
  358MOL0     C48257   6.746   9.838   1.899 -0.8536 -0.8325  0.3622
  358MOL0     C48258   6.679   9.966   1.874 -0.4793  0.0050 -0.3300
  358MOL0     C48259   6.617  10.071   1.846  0.3519  0.4093 -0.5214
  358MOL0     C48260   7.157  10.289   1.784 -0.3988  0.3932 -0.6243
  358MOL0     C48261   7.252  10.375   1.726 -0.3424  0.1281 -0.9623
  358MOL0     C48262   7.200  10.489   1.648  0.4612 -1.0411 -0.5328
  358MOL0     H48263   7.685  10.657   1.821  1.4916 -0.7690 -0.0315
  358MOL0     H48264   7.882  10.789   1.710  0.9738 -1.5637  0.1246
  358MOL0     H48265   7.932  11.090   1.502 -1.7281 -0.9666  0.3429
  358MOL0     H48266   7.905  10.988   1.641  2.0663 -2.1081 -0.0238
  358MOL0     H48267   8.112  10.915   1.430  0.5403  1.9047 -1.3713
  358MOL0     H48268   8.098  10.868   1.604  0.6156  1.8312  1.1521
  358MOL0     H48269   8.128  11.115   1.661 -2.4394 -1.2641  0.4569
  358MOL0     H48270   8.136  11.155   1.499  1.0000  1.5085  0.5314
  358MOL0     H48271   8.366  11.032   1.464 -1.3095  1.3267 -0.2669
  358MOL0     H48272   8.374  11.125   1.606  1.9688 -0.4853 -0.4128
  358MOL0     H48273   8.305  10.831   1.634  3.6801 -1.1372 -0.1708
  358MOL0     H48274   8.464  10.903   1.639  0.6864  0.5762 -0.5813
  358MOL0     H48275   8.381  11.059   1.818  0.4767  0.2704 -4.6043
  358MOL0     H48276   8.229  10.973   1.827  0.7298  0.5075  4.0637
  358MOL0     H48277   8.513  10.855   1.884  0.2543 -3.4527  0.3356
  358MOL0     H48278   8.376  10.763   1.844 -4.8349  0.5640  1.1726
  358MOL0     H48279   8.300  10.951   2.054 -2.0855 -1.0890 -1.1529
  358MOL0     H48280   8.275  10.779   2.051 -3.7463  3.6809 -0.0274
  358MOL0     H48281   8.567  11.028   2.118 -0.2179 -0.6814 -1.0849
  358MOL0     H48282   8.830  10.885   2.224  0.0779 -1.3701  0.0783
  358MOL0     H48283   8.760  11.025   2.306  2.5326  0.2816 -0.9694
  358MOL0     H48284   8.772  10.905   2.522  0.4293  0.7595  0.3326
  358MOL0     H48285   8.816  10.749   2.434  0.5016 -0.3123  0.6819
  358MOL0     H48286   8.987  11.005   2.450 -1.5708 -0.4462 -0.2303
  358MOL0     H48287   9.028  10.874   2.345  1.6413 -3.9177  1.9829
  358MOL0     H48288   9.057  10.737   2.561  0.1916  0.4076 -0.5347
  358MOL0     H48289   8.992  10.871   2.643  0.5416 -1.4213 -0.6725
  358MOL0     H48290   9.165  10.702   2.739  0.7405 -1.4969 -1.2909
  358MOL0     H48291   9.310  10.683   2.938  3.3032 -0.6540 -0.3205
  358MOL0     H48292   9.613  10.824   3.296 -0.6820  1.4518  0.0673
  358MOL0     H48293   9.786  10.888   3.459 -2.6345 -0.6235 -0.3584
  358MOL0     H48294  10.026  10.920   3.589  3.4928 -1.1611  1.0722
  358MOL0     H48295  10.042  10.818   3.443 -0.8714  0.6364 -0.7108
  358MOL0     H48296  10.276  10.845   3.536  0.0869  0.0206  0.5515
  358MOL0     H48297  10.258  10.983   3.427 -1.6681 -1.4056 -1.4528
  358MOL0     H48298  10.170  11.117   3.627  1.9263  1.1855 -2.2605
  358MOL0     H48299  10.198  10.976   3.732 -0.4501  0.1548 -0.4621
  358MOL0     H48300  10.441  11.071   3.572 -0.8690  1.5536 -0.1948
  358MOL0     H48301  10.429  10.999   3.725 -0.1323  0.6572  1.3932
  358MOL0     H48302  10.330  11.293   3.665  0.2548  1.9970  1.5938
  358MOL0     H48303  10.492  11.234   3.717  1.4055 -4.1609 -3.2425
  358MOL0     H48304  10.231  11.189   3.849  0.3125  1.0905  0.7623
  358MOL0     H48305  10.392  11.144   3.921  1.5175 -1.5318 -0.6171
  358MOL0     H48306  10.314  11.434   3.865  0.5002  1.5523  0.6577
  358MOL0     H48307  10.465  11.379   3.935  1.4338 -2.3227 -2.4516
  358MOL0     H48308  10.318  11.463   4.116 -1.2516 -0.0436  0.9757
  358MOL0     H48309  10.201  11.335   4.071  0.1741 -1.8837  1.7457
  358MOL0     H48310  10.012  11.088   3.175  0.1297  0.1855  1.6426
  358MOL0     H48311   9.825  11.077   3.012  1.1897  1.5896  0.4695
  358MOL0     H48312   9.542  11.015   2.818  0.6722 -1.3279 -0.0202
  358MOL0     H48313   9.382  11.059   2.621  1.2364 -1.8769 -1.5636
  358MOL0     H48314   7.626  10.808   1.362 -2.9446  0.3828  0.7810
  358MOL0     H48315   7.467  10.670   1.468  2.0509 -1.0824 -2.4237
  358MOL0     H48316   7.518  10.200   1.862  0.0423 -2.0662  0.5225
  358MOL0     H48317   7.340  10.051   1.941 -1.4483 -0.9614 -0.8601
  358MOL0     H48318   7.124  10.026   2.075 -0.1584  3.0562 -1.4402
  358MOL0     H48319   7.158   9.899   1.955  0.4690 -1.7810  2.3091
  358MOL0     H48320   6.895   9.984   2.058  0.8392  1.0472 -0.2841
  358MOL0     H48321   6.946   9.830   2.065 -2.2576  1.0650  1.0664
  358MOL0     H48322   6.940   9.761   1.855 -0.6830  0.1679 -2.6539
  358MOL0     H48323   6.912   9.921   1.782  0.3053 -0.0522  0.2382
  358MOL0     H48324   6.712   9.767   1.823 -1.4364  1.0125 -1.1745
  358MOL0     H48325   6.710   9.791   1.991 -2.6749  3.4674  2.1354
  358MOL0     H48326   6.566  10.164   1.831  1.7225  1.5918  1.6960
  358MOL0     H48327   7.053  10.300   1.756 -0.0683 -1.0823 -2.7436
  358MOL0     H48328   7.199  10.582   1.705 -0.9932 -0.4010 -1.5591
  358MOL0     H48329   7.266  10.510   1.562 -1.4986 -0.3610 -1.9487
  358MOL0     H48330   7.098  10.468   1.617  0.2887 -1.2227  0.1518
  359MOL0     O48331   3.977   9.381   6.335 -0.4933 -0.7399  0.1377
  359MOL0     C48332   3.952   9.362   6.456 -0.7685 -0.3302  0.0054
  359MOL0     O48333   4.017   9.268   6.539 -0.3031 -0.2417 -0.0972
  359MOL0     C48334   4.143   9.223   6.506 -0.3164  0.3336 -0.5102
  359MOL0     C48335   4.162   9.127   6.413 -0.4085 -0.4063  0.3844
  359MOL0     C48336   4.294   9.058   6.411  0.8492  0.2963  0.4229
  359MOL0     C48337   4.397   9.105   6.493 -0.0675  0.8470 -0.8516
  359MOL0     O48338   4.522   9.040   6.487  0.3285  0.2496  0.1467
  359MOL0     C48339   4.524   8.900   6.524  1.0139  0.4146  0.5243
  359MOL0     C48340   4.656   8.830   6.499 -0.2049 -0.5224 -0.6233
  359MOL0     C48341   4.669   8.687   6.557 -1.0076 -0.6886 -0.2360
  359MOL0     C48342   4.821   8.653   6.561  0.6875 -0.1039 -0.1377
  359MOL0     C48343   4.841   8.503   6.576 -0.0640  0.5497 -0.1036
  359MOL0     C48344   4.991   8.459   6.562 -0.0959 -0.1483 -0.6005
  359MOL0     C48345   5.052   8.481   6.425 -0.3966 -0.2859  0.3537
  359MOL0     C48346   5.185   8.406   6.399  0.0402  0.3089  0.4109
  359MOL0     N48347   5.289   8.455   6.497  0.0156 -0.2902 -0.7612
  359MOL0     C48348   5.338   8.585   6.502 -0.4921 -0.3912 -0.1725
  359MOL0     C48349   5.403   8.582   6.619 -0.0975 -0.0800 -0.1795
  359MOL0     C48350   5.468   8.709   6.661 -0.0474  0.1545  0.3846
  359MOL0     C48351   5.624   8.690   6.634 -0.2139 -0.6824  0.4470
  359MOL0     C48352   5.691   8.639   6.757  0.6926 -1.1028 -0.0369
  359MOL0     C48353   5.841   8.640   6.750  0.7083  0.7477  1.0815
  359MOL0     O48354   5.904   8.767   6.772 -0.4371  0.6228 -0.2220
  359MOL0     C48355   6.032   8.777   6.784 -0.2625  1.0226  0.2456
  359MOL0     C48356   6.113   8.659   6.771  0.7441 -0.0741  0.4344
  359MOL0     C48357   6.246   8.654   6.785  0.4969 -0.5579  0.2332
  359MOL0     C48358   6.303   8.782   6.820  0.0978 -0.3352 -0.2812
  359MOL0     C48359   6.448   8.795   6.859 -0.1210 -0.1989 -0.6298
  359MOL0     O48360   6.480   8.909   6.928 -0.1312  0.6078 -0.0291
  359MOL0     C48361   6.604   8.929   6.993 -0.5701 -0.4229 -0.8611
  359MOL0     C48362   6.673   8.824   7.058 -0.4892  0.0345  0.0651
  359MOL0     C48363   6.799   8.857   7.118 -0.4144  0.2817  0.7107
  359MOL0     C48364   6.858   8.982   7.099 -0.2115  0.3181  0.5290
  359MOL0     O48365   6.989   9.007   7.135 -0.3541 -0.7323 -0.0018
  359MOL0     C48366   7.071   8.895   7.148 -0.1779  0.3655 -0.8616
  359MOL0     C48367   7.193   8.934   7.223 -0.5383  0.8739 -0.4501
  359MOL0     C48368   7.295   9.011   7.134  0.5688  0.0102 -0.0053
  359MOL0     C48369   7.394   9.088   7.216  0.3200 -0.1631  0.1065
  359MOL0     C48370   7.508   9.142   7.127  0.7511 -0.4337  0.5214
  359MOL0     C48371   7.628   9.201   7.203  0.1333 -0.3236  0.4705
  359MOL0     C48372   7.725   9.267   7.096 -0.3793  0.2315 -0.4176
  359MOL0     C48373   7.832   9.356   7.168  0.6714  0.2751  0.9349
  359MOL0    Cl48374   7.951   9.255   7.236  0.2088  0.2711 -0.2871
  359MOL0     C48375   6.785   9.092   7.036  0.1593  0.4139 -0.1471
  359MOL0     C48376   6.656   9.055   6.987 -1.0083 -0.4123  0.5096
  359MOL0     O48377   6.521   8.698   6.832 -0.4271 -0.6796 -0.2915
  359MOL0     C48378   6.224   8.890   6.845 -0.0128 -0.4355  0.2882
  359MOL0     C48379   6.090   8.899   6.817  1.0826  0.1710  0.2726
  359MOL0     N48380   5.396   8.463   6.683  0.2483 -0.0189  0.3269
  359MOL0     N48381   5.320   8.386   6.613 -0.1155  0.3765 -0.2211
  359MOL0     C48382   4.371   9.208   6.589  0.1317  1.0602 -0.2051
  359MOL0     C48383   4.237   9.259   6.605 -0.5175  0.0625  0.7836
  359MOL0     C48384   3.884   9.472   6.534 -0.0511  0.7516 -0.6689
  359MOL0     C48385   3.919   9.503   6.669  0.3431  0.5460  0.7301
  359MOL0     C48386   3.848   9.595   6.747 -1.0335  0.8663  0.9330
  359MOL0     C48387   3.734   9.658   6.700 -0.1315 -0.8247 -0.1305
  359MOL0     O48388   3.660   9.722   6.796 -0.0407 -0.0522 -0.0487
  359MOL0     C48389   3.531   9.774   6.769  0.8808 -0.1254 -0.5365
  359MOL0     C48390   3.537   9.904   6.682  0.0593 -0.4558 -0.2693
  359MOL0     C48391   3.417   9.998   6.705 -0.5490  0.7505  0.1152
  359MOL0     C48392   3.390  10.077   6.579  0.0976  0.0285  0.8235
  359MOL0     C48393   3.260  10.143   6.588 -0.4746  0.3925  0.0540
  359MOL0     C48394   3.151  10.186   6.613 -0.4359 -0.3092 -0.2663
  359MOL0     C48395   3.704   9.644   6.563  0.6773  0.3784 -0.1591
  359MOL0     C48396   3.761   9.540   6.484 -0.6022 -1.1527  0.2588
  359MOL0     C48397   3.704   9.509   6.352 -0.4800  0.0417  0.6972
  359MOL0     H48398   4.085   9.090   6.346 -0.1467  1.3369 -0.9310
  359MOL0     H48399   4.316   8.988   6.330 -1.7202 -0.6156  0.4018
  359MOL0     H48400   4.499   8.898   6.631  1.3895  0.7035  0.6209
  359MOL0     H48401   4.447   8.844   6.470  1.2800  1.3507 -0.8673
  359MOL0     H48402   4.734   8.896   6.537  0.0843 -1.7940  1.1107
  359MOL0     H48403   4.685   8.829   6.393  1.5746  2.1949 -0.2522
  359MOL0     H48404   4.608   8.611   6.506 -1.0558 -0.4066 -0.6048
  359MOL0     H48405   4.639   8.701   6.661  0.2462 -0.3743  0.0944
  359MOL0     H48406   4.870   8.695   6.473  1.3850  0.2332  0.4018
  359MOL0     H48407   4.859   8.696   6.653 -1.6164  1.4205  0.1830
  359MOL0     H48408   4.796   8.467   6.669  1.0709 -0.0680  0.2256
  359MOL0     H48409   4.794   8.458   6.489 -0.3705  1.3145 -0.3470
  359MOL0     H48410   5.045   8.509   6.643 -2.5060 -0.5739  1.3990
  359MOL0     H48411   4.999   8.350   6.577  2.2810  0.3880  3.9152
  359MOL0     H48412   5.075   8.588   6.416 -2.1503  0.2640  1.8164
  359MOL0     H48413   4.978   8.458   6.349 -1.4501  1.5005  0.7869
  359MOL0     H48414   5.169   8.298   6.402  1.5668  0.0095 -0.7521
  359MOL0     H48415   5.217   8.428   6.296  2.1090 -2.4295  0.3678
  359MOL0     H48416   5.323   8.665   6.431  1.2727  1.5017  1.4709
  359MOL0     H48417   5.431   8.790   6.598  0.1505 -0.2485 -0.2644
  359MOL0     H48418   5.448   8.728   6.767 -1.7389  0.6771  0.0057
  359MOL0     H48419   5.648   8.623   6.551 -0.0211 -1.3582  1.0434
  359MOL0     H48420   5.667   8.790   6.623 -0.2774 -0.6756  0.2531
  359MOL0     H48421   5.655   8.536   6.766  0.9538 -1.4344 -2.1345
  359MOL0     H48422   5.663   8.705   6.839  0.7291  1.9493 -2.2860
  359MOL0     H48423   5.862   8.594   6.653 -0.7522 -1.3687  1.7117
  359MOL0     H48424   5.873   8.570   6.828  0.0842  1.6479  2.1694
  359MOL0     H48425   6.072   8.559   6.767  3.3047 -1.1922  0.1668
  359MOL0     H48426   6.305   8.564   6.773  1.2083  0.1832 -2.6896
  359MOL0     H48427   6.632   8.724   7.056 -0.4236  0.0144 -1.6411
  359MOL0     H48428   6.847   8.777   7.173  0.3787 -1.0289 -1.7285
  359MOL0     H48429   7.021   8.823   7.213  1.0448  0.1619 -0.1288
  359MOL0     H48430   7.089   8.858   7.046  1.0059  1.4981 -1.0828
  359MOL0     H48431   7.167   8.997   7.308  0.7337  2.4706 -1.2081
  359MOL0     H48432   7.246   8.844   7.257  1.0635  0.8032 -2.8756
  359MOL0     H48433   7.348   8.934   7.078  0.6199 -0.0126  0.0736
  359MOL0     H48434   7.246   9.084   7.069 -0.5511 -0.5868  0.1297
  359MOL0     H48435   7.438   9.020   7.290  2.6118  1.8555  0.7444
  359MOL0     H48436   7.341   9.169   7.267  2.9173  1.8561 -0.1554
  359MOL0     H48437   7.458   9.223   7.073 -0.9081  0.6079  3.3811
  359MOL0     H48438   7.549   9.065   7.061  3.3244 -0.5350  2.0985
  359MOL0     H48439   7.596   9.282   7.269 -2.7696 -0.0942 -1.0191
  359MOL0     H48440   7.670   9.124   7.268 -0.7129 -1.9725 -0.8502
  359MOL0     H48441   7.671   9.336   7.031  1.2204  0.3697 -1.6684
  359MOL0     H48442   7.771   9.196   7.028 -1.1663  0.2476 -0.9794
  359MOL0     H48443   7.869   9.429   7.095 -2.7359 -0.0901 -1.3786
  359MOL0     H48444   7.780   9.416   7.243 -2.7885 -1.0309 -0.2159
  359MOL0     H48445   6.839   9.185   7.023  1.3974 -0.2543  0.1523
  359MOL0     H48446   6.596   9.131   6.938  1.0440 -0.2131 -1.8744
  359MOL0     H48447   6.261   8.981   6.891  0.9610 -0.4197 -0.5084
  359MOL0     H48448   6.027   8.983   6.841  0.6758 -0.2792  0.8148
  359MOL0     H48449   4.436   9.221   6.674 -1.2610 -2.5404  1.6246
  359MOL0     H48450   4.224   9.327   6.688  0.0104  2.3305 -0.9095
  359MOL0     H48451   4.004   9.442   6.700 -1.8010 -3.6985 -0.9167
  359MOL0     H48452   3.897   9.604   6.843  1.5193  0.0778 -0.2085
  359MOL0     H48453   3.501   9.806   6.869  0.4013 -0.7832 -0.4663
  359MOL0     H48454   3.455   9.707   6.728 -0.4604 -0.0416  1.6274
  359MOL0     H48455   3.540   9.866   6.579  3.2084  1.0391 -0.8338
  359MOL0     H48456   3.627   9.957   6.713 -1.4695  1.7573  0.6453
  359MOL0     H48457   3.457  10.056   6.788  3.5004 -0.6581 -0.6385
  359MOL0     H48458   3.324   9.946   6.730 -1.0620  1.3418 -0.5015
  359MOL0     H48459   3.473  10.148   6.587 -0.7963  1.1628  0.2714
  359MOL0     H48460   3.402  10.009   6.495  1.5665  1.8144 -0.4973
  359MOL0     H48461   3.064  10.244   6.633  0.6040  1.3545 -0.3362
  359MOL0     H48462   3.609   9.677   6.522  0.9933 -0.2334 -1.4250
  359MOL0     H48463   3.720   9.406   6.319  2.0715  0.3882  0.6736
  359MOL0     H48464   3.596   9.523   6.340 -0.2537  0.4431 -1.2400
  359MOL0     H48465   3.755   9.577   6.282  2.0245 -0.5158  1.8606
  360MOL0     O48466   3.381   1.317   1.849 -0.2937  0.4790 -0.5124
  360MOL0     C48467   3.351   1.298   1.731  0.3987 -1.0248  0.5405
  360MOL0     O48468   3.362   1.395   1.636  0.0322 -0.0099 -0.5049
  360MOL0     C48469   3.439   1.499   1.671 -0.3606 -0.9110 -0.1663
  360MOL0     C48470   3.573   1.496   1.706 -0.1522  0.4194  1.2504
  360MOL0     C48471   3.642   1.614   1.746  0.8047  0.5690 -0.3841
  360MOL0     C48472   3.576   1.736   1.767  0.2362 -0.2951  0.7088
  360MOL0     O48473   3.643   1.852   1.794  0.1471 -0.1529  0.8757
  360MOL0     C48474   3.730   1.846   1.908  0.0595 -0.3783  0.4376
  360MOL0     C48475   3.835   1.949   1.886 -0.5848 -0.5077  0.6204
  360MOL0     C48476   3.902   1.983   2.020 -0.0796 -0.3086  0.3255
  360MOL0     C48477   3.984   2.115   2.000 -0.5028 -0.7393 -0.3856
  360MOL0     C48478   4.095   2.143   2.111  0.2067 -0.1200  0.0160
  360MOL0     C48479   4.036   2.155   2.256 -0.1893  0.3764  0.4879
  360MOL0     C48480   3.918   2.245   2.280 -0.2356 -0.0199  0.3842
  360MOL0     C48481   3.929   2.396   2.248  0.5100 -0.2303  0.4194
  360MOL0     N48482   4.043   2.462   2.313  0.7489  0.1983 -0.3262
  360MOL0     C48483   4.067   2.449   2.445  0.3694 -0.7448  0.9283
  360MOL0     C48484   4.194   2.462   2.466 -0.4599 -0.3054  0.1174
  360MOL0     C48485   4.256   2.462   2.599  0.5531 -0.5550  0.4975
  360MOL0     C48486   4.278   2.316   2.654 -0.1207  0.0347  0.3833
  360MOL0     C48487   4.392   2.232   2.584  0.0572 -0.5582 -0.2578
  360MOL0     C48488   4.535   2.299   2.580  0.0610  0.2833  0.7680
  360MOL0     O48489   4.584   2.317   2.710  0.3299 -0.3248 -0.2854
  360MOL0     C48490   4.717   2.357   2.720  0.1290  0.6193 -0.2039
  360MOL0     C48491   4.817   2.262   2.730 -0.4941  0.2052 -0.5721
  360MOL0     C48492   4.948   2.300   2.725  0.0295 -0.3830 -0.0349
  360MOL0     C48493   4.992   2.436   2.718  1.0269 -0.5642  0.8530
  360MOL0     C48494   5.130   2.482   2.701 -0.7840  0.0123 -0.3888
  360MOL0     O48495   5.222   2.381   2.668 -0.1128  0.6278 -1.1733
  360MOL0     C48496   5.348   2.422   2.671  0.0937 -0.3126  0.3073
  360MOL0     C48497   5.447   2.381   2.759  0.1611  0.5119 -0.0404
  360MOL0     C48498   5.582   2.424   2.738 -1.4163  0.1323 -0.0895
  360MOL0     C48499   5.613   2.499   2.632 -0.2289 -0.5974  0.9380
  360MOL0     O48500   5.746   2.527   2.598  0.6601 -0.2016 -0.4034
  360MOL0     C48501   5.795   2.648   2.527 -0.7175 -0.9511 -0.5359
  360MOL0     C48502   5.931   2.698   2.594  0.0204 -0.4751 -0.5398
  360MOL0     C48503   5.962   2.840   2.561 -0.3173 -0.7107  0.2340
  360MOL0     C48504   6.077   2.902   2.647 -0.6887  0.1909  0.7146
  360MOL0     C48505   6.212   2.827   2.630 -0.9929 -0.3448 -0.1944
  360MOL0     C48506   6.269   2.815   2.492 -0.0762 -0.2088  0.1166
  360MOL0     C48507   6.420   2.780   2.468 -0.0051 -0.6667  0.6492
  360MOL0     C48508   6.446   2.735   2.329  0.6264 -0.1428  0.6783
  360MOL0    Cl48509   6.619   2.705   2.315 -0.1061  0.3559  0.2788
  360MOL0     C48510   5.514   2.551   2.548  1.3484  0.3004  0.2145
  360MOL0     C48511   5.382   2.512   2.570 -0.5314  0.1552 -0.2114
  360MOL0     O48512   5.155   2.600   2.715 -0.2648  0.3071 -0.5961
  360MOL0     C48513   4.892   2.539   2.732  0.0327 -0.1779 -0.3606
  360MOL0     C48514   4.752   2.495   2.737  0.1451  0.5021 -0.7816
  360MOL0     N48515   4.257   2.470   2.336  0.2375  0.3580  0.8028
  360MOL0     N48516   4.159   2.465   2.247 -1.0672  1.1051 -0.1685
  360MOL0     C48517   3.435   1.736   1.740 -0.3049 -0.7232  0.2914
  360MOL0     C48518   3.367   1.624   1.695  0.4022  0.1759 -0.0496
  360MOL0     C48519   3.309   1.161   1.701  0.7225  0.3988 -0.2793
  360MOL0     C48520   3.361   1.109   1.575 -0.3659  0.1518  0.0262
  360MOL0     C48521   3.323   0.983   1.522  0.5850  0.0111 -0.6786
  360MOL0     C48522   3.208   0.921   1.567 -0.4644  0.3907 -0.5352
  360MOL0     O48523   3.164   0.804   1.512  0.0034 -0.3358  0.1564
  360MOL0     C48524   3.254   0.721   1.439 -0.5126 -0.9307  0.3187
  360MOL0     C48525   3.194   0.610   1.349  0.2711 -0.3790  0.2009
  360MOL0     C48526   3.119   0.670   1.243 -0.0082 -0.3813  0.0435
  360MOL0     C48527   3.076   0.560   1.153  1.4166  0.1198 -0.1037
  360MOL0     C48528   2.981   0.608   1.045  0.2844  0.6720  0.3595
  360MOL0     C48529   2.907   0.636   0.950  0.5329 -0.1832 -0.4760
  360MOL0     C48530   3.156   0.970   1.692 -0.6964  0.6672  0.5797
  360MOL0     C48531   3.196   1.090   1.752 -0.3327  0.0814  0.3621
  360MOL0     C48532   3.122   1.138   1.871 -0.1046 -0.7570 -0.2446
  360MOL0     H48533   3.628   1.402   1.702  2.1859  1.7380 -2.2229
  360MOL0     H48534   3.748   1.601   1.765  0.3334  0.9173  2.9677
  360MOL0     H48535   3.665   1.874   1.992 -1.2165  0.1063 -0.6805
  360MOL0     H48536   3.784   1.751   1.918  0.0552 -1.1009 -4.2856
  360MOL0     H48537   3.794   2.044   1.849  2.5121 -0.0539 -2.1447
  360MOL0     H48538   3.914   1.921   1.816  0.1496  1.4068  0.6168
  360MOL0     H48539   3.954   1.897   2.062 -1.1328 -2.3086 -2.1752
  360MOL0     H48540   3.822   2.011   2.089 -0.7972 -0.9843 -0.2149
  360MOL0     H48541   4.045   2.110   1.909 -1.0971  2.8084 -1.1422
  360MOL0     H48542   3.912   2.196   1.984 -1.0652 -1.1106  0.2071
  360MOL0     H48543   4.166   2.061   2.110 -0.7045 -1.0100  1.9071
  360MOL0     H48544   4.140   2.239   2.085 -0.6027  0.3370  0.2386
  360MOL0     H48545   4.001   2.056   2.288  0.1813 -0.9466 -2.8603
  360MOL0     H48546   4.111   2.195   2.326 -0.0519  2.2603 -0.6715
  360MOL0     H48547   3.890   2.238   2.386  0.8466 -0.4143  0.6587
  360MOL0     H48548   3.841   2.211   2.210  2.3194 -1.1082 -2.0984
  360MOL0     H48549   3.948   2.397   2.140 -2.3864 -2.4859 -0.2290
  360MOL0     H48550   3.841   2.452   2.280  0.2626 -0.0035 -0.6156
  360MOL0     H48551   3.998   2.403   2.515  0.1397 -4.5438 -1.4889
  360MOL0     H48552   4.346   2.523   2.585  0.2726 -0.9892 -6.7074
  360MOL0     H48553   4.182   2.516   2.658  2.4098  1.9005  0.7126
  360MOL0     H48554   4.302   2.318   2.761  1.5421  0.2764  0.0349
  360MOL0     H48555   4.188   2.254   2.644 -1.0547  1.5214 -0.7372
  360MOL0     H48556   4.355   2.214   2.482  0.8745  0.9275 -0.8527
  360MOL0     H48557   4.404   2.136   2.633 -1.0861 -0.4782  0.1993
  360MOL0     H48558   4.528   2.389   2.520  1.1098  0.9855  1.6512
  360MOL0     H48559   4.604   2.239   2.519 -2.2545  0.2028 -1.9986
  360MOL0     H48560   4.804   2.155   2.740 -0.9260  0.2691 -0.4213
  360MOL0     H48561   5.013   2.213   2.723 -1.6389 -1.7153  0.9512
  360MOL0     H48562   5.411   2.308   2.831 -0.7884 -1.1468 -2.0677
  360MOL0     H48563   5.653   2.379   2.807 -3.8041 -2.8788  0.6068
  360MOL0     H48564   5.814   2.636   2.420  0.8335  0.6551 -0.4843
  360MOL0     H48565   5.716   2.723   2.539  0.3473  0.0145  0.9116
  360MOL0     H48566   5.914   2.687   2.701  1.2150  1.0175 -0.1694
  360MOL0     H48567   6.011   2.625   2.573  1.8814 -0.0636  4.0466
  360MOL0     H48568   5.996   2.854   2.457 -2.5736  1.5765 -0.2943
  360MOL0     H48569   5.872   2.898   2.578 -0.9436 -0.1426 -3.9625
  360MOL0     H48570   6.052   2.906   2.754 -2.3057 -2.9896  0.5622
  360MOL0     H48571   6.083   3.005   2.610 -0.3282 -0.8862 -2.5208
  360MOL0     H48572   6.200   2.724   2.666 -0.2622 -1.0270 -1.8294
  360MOL0     H48573   6.283   2.880   2.694 -1.9966 -1.4496  1.9587
  360MOL0     H48574   6.210   2.731   2.453 -0.6465 -0.5018  1.5468
  360MOL0     H48575   6.252   2.913   2.446  2.3488 -0.4786 -1.5465
  360MOL0     H48576   6.453   2.708   2.544  2.8493  1.0109  1.1411
  360MOL0     H48577   6.469   2.875   2.490 -3.0936  1.5953 -1.3788
  360MOL0     H48578   6.396   2.639   2.311  0.7902  0.0152 -0.7377
  360MOL0     H48579   6.411   2.811   2.258 -1.1118 -0.3393  1.2756
  360MOL0     H48580   5.536   2.627   2.474 -1.1186  1.4717  0.5825
  360MOL0     H48581   5.301   2.545   2.505 -2.5885 -2.8713  0.6302
  360MOL0     H48582   4.914   2.645   2.734 -0.5459  0.0671 -3.3303
  360MOL0     H48583   4.676   2.571   2.752  0.5851  1.4886 -3.1229
  360MOL0     H48584   3.399   1.835   1.766  1.0306  0.1918 -1.1699
  360MOL0     H48585   3.260   1.615   1.685  0.4154 -1.3365  0.8002
  360MOL0     H48586   3.431   1.169   1.519 -0.4818  0.1324 -0.1390
  360MOL0     H48587   3.379   0.945   1.438  4.1344  0.0509  1.4849
  360MOL0     H48588   3.328   0.679   1.508  1.2278 -0.4357 -1.1484
  360MOL0     H48589   3.309   0.784   1.368 -0.1480 -1.8709 -0.2504
  360MOL0     H48590   3.133   0.554   1.421  1.2637  0.7820  2.0536
  360MOL0     H48591   3.274   0.546   1.312  0.1827 -0.9869  1.0357
  360MOL0     H48592   3.167   0.755   1.196  1.2150  0.8878  3.2864
  360MOL0     H48593   3.029   0.714   1.287 -0.0730  0.4598 -0.9185
  360MOL0     H48594   3.162   0.531   1.093 -1.6270  1.4691 -5.8108
  360MOL0     H48595   3.052   0.469   1.209  4.1212 -1.4619 -1.3270
  360MOL0     H48596   2.855   0.672   0.863 -0.6140 -2.7269 -0.9592
  360MOL0     H48597   3.071   0.914   1.732 -0.5991 -1.6602 -2.1662
  360MOL0     H48598   3.094   1.243   1.856  0.3435 -0.0921  2.7725
  360MOL0     H48599   3.031   1.082   1.892 -0.5265 -0.7350 -1.9247
  360MOL0     H48600   3.183   1.128   1.962 -0.4326 -0.0171  0.0677
  361MOL0     O48601   8.843   0.272   4.667 -0.4984 -1.6006  0.3444
  361MOL0     C48602   8.796   0.381   4.711  0.6018 -0.3273 -0.1613
  361MOL0     O48603   8.868   0.483   4.766  0.0473 -0.1364  0.4005
  361MOL0     C48604   9.003   0.469   4.781 -0.5333 -0.7444  0.0608
  361MOL0     C48605   9.087   0.466   4.669  0.4630 -0.0623  0.4069
  361MOL0     C48606   9.228   0.451   4.688  0.0603 -0.0800 -0.4524
  361MOL0     C48607   9.288   0.462   4.813  0.3783 -0.1680 -0.7735
  361MOL0     O48608   9.426   0.475   4.829  0.8559 -0.0201  0.2639
  361MOL0     C48609   9.475   0.603   4.873 -0.0483 -0.6868  0.3089
  361MOL0     C48610   9.624   0.623   4.833 -1.0324 -0.4469 -0.1836
  361MOL0     C48611   9.655   0.570   4.687  0.4539  0.3070  0.0005
  361MOL0     C48612   9.697   0.420   4.686  0.5134  0.8914 -0.1317
  361MOL0     C48613   9.814   0.386   4.782 -1.3172 -0.4929  0.1906
  361MOL0     C48614   9.900   0.262   4.729  0.1426 -0.6797 -0.1491
  361MOL0     C48615  10.013   0.257   4.823 -0.0848  0.0669 -0.0401
  361MOL0     C48616  10.093   0.136   4.778  0.0032 -0.0205  0.6163
  361MOL0     N48617  10.228   0.139   4.838  0.2082  0.0820  0.1775
  361MOL0     C48618  10.249   0.115   4.975  0.0376 -0.5212 -0.3756
  361MOL0     C48619  10.382   0.118   4.999  0.6634 -0.3547 -0.4332
  361MOL0     C48620  10.462   0.107   5.120  0.2711  1.1875  0.0126
  361MOL0     C48621  10.579   0.005   5.110 -0.0749 -0.1991 -0.3825
  361MOL0     C48622  10.622  -0.029   5.250  0.0349 -0.8852 -0.3568
  361MOL0     C48623  10.728  -0.135   5.247 -0.5586  0.3162  0.0344
  361MOL0     O48624  10.839  -0.087   5.162  0.0266 -0.6489 -0.2216
  361MOL0     C48625  10.959  -0.047   5.212  0.2874  0.1590 -0.0991
  361MOL0     C48626  11.059  -0.020   5.122  0.1472  0.4257  0.4274
  361MOL0     C48627  11.185   0.039   5.161  0.1484  0.2096  0.5211
  361MOL0     C48628  11.203   0.071   5.293  0.5312  0.5029 -1.2019
  361MOL0     C48629  11.325   0.138   5.341 -0.3578  1.1631  0.1261
  361MOL0     O48630  11.356   0.115   5.472 -0.3075 -0.0601  0.9160
  361MOL0     C48631  11.455   0.177   5.545 -0.1506  0.2284 -0.4155
  361MOL0     C48632  11.484   0.118   5.674  0.9387  0.6100 -0.0805
  361MOL0     C48633  11.586   0.169   5.760 -0.2453 -0.1783  0.4813
  361MOL0     C48634  11.677   0.267   5.718  0.6599 -0.0028  0.9606
  361MOL0     O48635  11.801   0.301   5.763 -0.2061  0.0722  0.2094
  361MOL0     C48636  11.820   0.262   5.898  0.1590 -0.3763  0.4935
  361MOL0     C48637  11.959   0.323   5.941  0.3708 -0.0538 -0.4881
  361MOL0     C48638  12.079   0.268   5.865  0.7473 -0.2372  0.5945
  361MOL0     C48639  12.215   0.274   5.934 -0.3366 -0.3206 -0.3759
  361MOL0     C48640  12.225   0.169   6.041 -0.1192 -0.2241  0.2904
  361MOL0     C48641  12.375   0.146   6.088  0.2670 -0.4050 -0.0588
  361MOL0     C48642  12.463   0.083   5.988  0.4678 -0.4513 -0.0106
  361MOL0     C48643  12.600   0.073   6.048 -0.2507  0.0670 -0.3293
  361MOL0    Cl48644  12.661   0.236   6.108  0.0716 -0.2087 -0.5284
  361MOL0     C48645  11.653   0.322   5.591  0.5095 -0.2408  0.7144
  361MOL0     C48646  11.537   0.283   5.508 -0.4140 -0.4470  0.4351
  361MOL0     O48647  11.398   0.193   5.260  0.3424  0.2527 -0.0027
  361MOL0     C48648  11.102   0.043   5.387  0.4050  0.5951  0.4380
  361MOL0     C48649  10.992  -0.022   5.349  0.0593  0.3638  0.2462
  361MOL0     N48650  10.440   0.130   4.876 -0.0282 -1.1481 -0.2353
  361MOL0     N48651  10.350   0.149   4.777 -0.4735 -0.5460  0.7691
  361MOL0     C48652   9.200   0.470   4.922 -0.3312 -0.6489  0.2016
  361MOL0     C48653   9.062   0.474   4.907  0.5639 -0.0206  1.1419
  361MOL0     C48654   8.645   0.391   4.711  0.7740  0.5039 -0.1930
  361MOL0     C48655   8.586   0.519   4.740  0.1074  0.4146  0.6033
  361MOL0     C48656   8.452   0.553   4.747 -0.4795 -0.3027  0.1900
  361MOL0     C48657   8.369   0.442   4.734  0.1215  0.0204  0.8274
  361MOL0     O48658   8.228   0.481   4.715  0.1145  0.1714 -0.2164
  361MOL0     C48659   8.129   0.372   4.719 -0.8825 -0.3998  0.1359
  361MOL0     C48660   7.991   0.434   4.695  0.2298 -0.3264 -1.0316
  361MOL0     C48661   7.933   0.494   4.820  0.3466 -0.0930 -0.2602
  361MOL0     C48662   7.788   0.550   4.787 -0.3660 -0.5164  0.2623
  361MOL0     C48663   7.725   0.592   4.912  0.5476  0.0748  0.0970
  361MOL0     C48664   7.682   0.620   5.025  0.6335 -0.5140 -0.1499
  361MOL0     C48665   8.413   0.310   4.723 -0.4708 -0.7278 -0.2177
  361MOL0     C48666   8.559   0.279   4.713  0.2531 -0.7171  0.2141
  361MOL0     C48667   8.597   0.138   4.678  0.3264 -0.7343  0.2046
  361MOL0     H48668   9.040   0.462   4.572 -0.1078  3.0827  0.4676
  361MOL0     H48669   9.287   0.456   4.597  0.4175 -3.6999 -0.5633
  361MOL0     H48670   9.427   0.678   4.809  0.1383 -3.0524 -2.8151
  361MOL0     H48671   9.463   0.621   4.980  2.6441  1.2641  0.4023
  361MOL0     H48672   9.676   0.568   4.912 -0.3483  1.2081  0.5689
  361MOL0     H48673   9.651   0.728   4.848  1.8870 -1.5336  3.8192
  361MOL0     H48674   9.746   0.626   4.660  1.2991 -1.0803 -0.1129
  361MOL0     H48675   9.573   0.595   4.619  0.4629  1.0702  0.2602
  361MOL0     H48676   9.612   0.361   4.721  0.7680  1.2409  1.1278
  361MOL0     H48677   9.725   0.388   4.585 -1.2780  4.3863 -1.9053
  361MOL0     H48678   9.880   0.471   4.802 -1.3004 -1.0036  2.7100
  361MOL0     H48679   9.771   0.369   4.881 -2.6160  2.1615  0.1884
  361MOL0     H48680   9.823   0.184   4.738 -0.5104  0.1904  3.2764
  361MOL0     H48681   9.930   0.275   4.625 -0.2895 -1.1055 -0.3352
  361MOL0     H48682   9.972   0.255   4.924 -1.9742  0.2473 -0.7642
  361MOL0     H48683  10.086   0.338   4.817 -0.1508  0.0605 -1.0714
  361MOL0     H48684  10.035   0.047   4.807 -0.9096  0.4395  0.2404
  361MOL0     H48685  10.110   0.135   4.670 -0.1516  1.9095  0.5498
  361MOL0     H48686  10.169   0.095   5.045 -1.3274  0.4488 -1.5892
  361MOL0     H48687  10.487   0.210   5.148  3.3922  0.5345 -0.0877
  361MOL0     H48688  10.385   0.076   5.192 -0.7663  1.2777 -1.0380
  361MOL0     H48689  10.546  -0.084   5.055  3.2728 -0.7991 -1.6625
  361MOL0     H48690  10.662   0.053   5.056  0.5314 -2.5668 -1.6689
  361MOL0     H48691  10.528  -0.067   5.292 -0.7179  0.0375 -1.1495
  361MOL0     H48692  10.654   0.064   5.296  0.8285 -0.9403 -0.7773
  361MOL0     H48693  10.682  -0.222   5.200  1.2878  1.1015 -3.5446
  361MOL0     H48694  10.751  -0.155   5.352 -0.5293  2.2549  0.4351
  361MOL0     H48695  11.035  -0.041   5.018 -1.3422 -3.7499  1.4293
  361MOL0     H48696  11.262   0.072   5.092 -0.9478  1.6571 -0.0626
  361MOL0     H48697  11.436   0.025   5.702  2.6447 -1.0955 -2.4540
  361MOL0     H48698  11.598   0.126   5.859  0.1117 -2.7531 -0.5975
  361MOL0     H48699  11.749   0.316   5.963  0.4596  1.7560 -0.8630
  361MOL0     H48700  11.809   0.156   5.919  0.1884  0.0121  2.7891
  361MOL0     H48701  11.956   0.431   5.927  0.0451 -0.2346 -1.9780
  361MOL0     H48702  11.980   0.311   6.048  0.1478  2.6044 -0.0880
  361MOL0     H48703  12.051   0.166   5.838 -0.1396 -0.0656  0.8283
  361MOL0     H48704  12.082   0.322   5.770 -1.5862  0.9181  1.0992
  361MOL0     H48705  12.224   0.375   5.976 -2.7373 -0.1779 -0.0863
  361MOL0     H48706  12.296   0.259   5.862  4.4858  3.3794  3.5273
  361MOL0     H48707  12.183   0.072   6.013  0.1935 -1.2121  2.9963
  361MOL0     H48708  12.167   0.198   6.128 -1.2037 -1.1009 -0.1197
  361MOL0     H48709  12.414   0.245   6.117  0.7926 -0.9282  1.1104
  361MOL0     H48710  12.368   0.090   6.182  0.0036 -1.1039 -0.4948
  361MOL0     H48711  12.483   0.150   5.903 -0.4725  0.4934  0.4862
  361MOL0     H48712  12.424  -0.011   5.948  1.5602  0.0807 -2.5478
  361MOL0     H48713  12.611  -0.008   6.119 -0.3613  0.0178 -0.3672
  361MOL0     H48714  12.669   0.043   5.969  1.4441 -1.1839  1.5448
  361MOL0     H48715  11.717   0.400   5.551  0.7789 -0.2546  1.1142
  361MOL0     H48716  11.535   0.336   5.413  0.3890 -2.4197 -0.7637
  361MOL0     H48717  11.122   0.065   5.492 -0.0044  1.7191  0.2950
  361MOL0     H48718  10.930  -0.050   5.433  0.5683 -0.8093  0.2462
  361MOL0     H48719   9.246   0.491   5.018  0.0701  0.7136 -0.2650
  361MOL0     H48720   8.995   0.494   4.990 -3.2086  0.0929 -1.6540
  361MOL0     H48721   8.661   0.597   4.753 -1.3201  1.7216  1.3305
  361MOL0     H48722   8.416   0.654   4.758 -0.0760 -0.0281 -0.8910
  361MOL0     H48723   8.130   0.333   4.821  1.2011 -1.7721 -0.3506
  361MOL0     H48724   8.149   0.288   4.653 -5.7442 -1.5835 -0.2142
  361MOL0     H48725   7.923   0.357   4.656 -1.0599  0.3373 -0.1763
  361MOL0     H48726   7.994   0.506   4.613  0.3129  3.0123  1.6877
  361MOL0     H48727   8.003   0.572   4.849  1.3596 -2.0589  3.0921
  361MOL0     H48728   7.937   0.425   4.905  3.9027 -0.1675 -0.3712
  361MOL0     H48729   7.803   0.631   4.716  3.1328 -0.1806  1.2018
  361MOL0     H48730   7.729   0.478   4.729 -1.1191  1.6921 -1.8800
  361MOL0     H48731   7.637   0.632   5.122 -0.0515  0.7222 -0.5963
  361MOL0     H48732   8.346   0.226   4.719 -0.1698 -0.9551 -0.5722
  361MOL0     H48733   8.660   0.093   4.755 -1.1321 -2.8355  0.2616
  361MOL0     H48734   8.508   0.074   4.673 -0.1908 -0.4639  3.5565
  361MOL0     H48735   8.641   0.143   4.578  2.3171  0.9379  1.0877
  362MOL0     O48736   4.018   0.785  10.345 -0.3723 -0.0982  0.6590
  362MOL0     C48737   3.965   0.845  10.248  0.1258 -0.4793 -0.1422
  362MOL0     O48738   4.029   0.940  10.174 -0.2782 -0.1329  0.2613
  362MOL0     C48739   4.141   1.003  10.235  0.5641 -0.2041  0.3428
  362MOL0     C48740   4.154   1.052  10.368 -0.5257 -0.1010 -0.0961
  362MOL0     C48741   4.278   1.091  10.424  0.2054 -0.8993  0.4660
  362MOL0     C48742   4.393   1.089  10.343 -0.2726 -0.4460 -0.3401
  362MOL0     O48743   4.502   1.157  10.397  0.5778  0.0361 -0.7595
  362MOL0     C48744   4.621   1.069  10.439 -0.3210 -0.2004 -0.5136
  362MOL0     C48745   4.684   1.001  10.313  0.5447 -0.1097  0.6193
  362MOL0     C48746   4.805   0.907  10.330  0.0091  0.6714 -0.3732
  362MOL0     C48747   4.850   0.850  10.191  0.2437  0.2682  0.0838
  362MOL0     C48748   4.970   0.750  10.213 -1.4181  0.5713  0.3888
  362MOL0     C48749   5.010   0.663  10.097 -0.0095  0.2469  0.2868
  362MOL0     C48750   5.112   0.567  10.154  0.4573  0.5149 -0.0904
  362MOL0     C48751   5.159   0.477  10.035 -0.4231  1.0617 -0.1625
  362MOL0     N48752   5.262   0.377  10.092  0.6200  0.8419 -0.7363
  362MOL0     C48753   5.394   0.396  10.135 -0.0488 -1.2088 -1.6448
  362MOL0     C48754   5.451   0.268  10.149 -1.2563  0.4103 -0.2110
  362MOL0     C48755   5.586   0.226  10.199 -0.1003  0.0475 -0.3655
  362MOL0     C48756   5.698   0.202  10.090  0.5711  0.1295  0.6784
  362MOL0     C48757   5.777   0.326  10.036 -0.4149  0.7839  0.1239
  362MOL0     C48758   5.829   0.409  10.157  0.2123 -0.6182 -0.1352
  362MOL0     O48759   5.918   0.517  10.114  0.3197 -0.4366  0.2436
  362MOL0     C48760   6.050   0.492  10.086  0.5440  0.3797 -0.7517
  362MOL0     C48761   6.109   0.363  10.104 -0.2612 -0.0884  0.0957
  362MOL0     C48762   6.252   0.349  10.092  0.3696 -0.9792  0.2236
  362MOL0     C48763   6.328   0.462  10.056  1.0169 -0.4619 -0.4532
  362MOL0     C48764   6.471   0.461  10.056 -0.4687  0.2797 -0.1768
  362MOL0     O48765   6.541   0.573  10.024 -0.4412 -0.6883 -0.4508
  362MOL0     C48766   6.673   0.579  10.051  0.1644  0.5529  0.0573
  362MOL0     C48767   6.758   0.626   9.946 -0.2556  0.8414  0.3961
  362MOL0     C48768   6.895   0.642   9.957 -0.2457 -0.0156  0.8202
  362MOL0     C48769   6.956   0.595  10.075  0.4920  0.4046 -1.0447
  362MOL0     O48770   7.091   0.592  10.086  0.6002 -0.1485  0.2718
  362MOL0     C48771   7.151   0.662  10.195  0.5150 -0.0437 -0.4188
  362MOL0     C48772   7.127   0.813  10.203  0.4068 -0.2287 -0.3456
  362MOL0     C48773   7.156   0.877  10.069 -0.5997 -0.5548  0.0343
  362MOL0     C48774   7.305   0.873  10.034 -0.2183 -1.5167 -0.1958
  362MOL0     C48775   7.347   0.972   9.923  0.1132  0.0630  0.2367
  362MOL0     C48776   7.499   0.991   9.904 -0.5683  0.9110 -0.2391
  362MOL0     C48777   7.527   1.072   9.786  0.0636  0.0711  0.6437
  362MOL0     C48778   7.680   1.077   9.770 -0.1581 -0.7945 -0.1185
  362MOL0    Cl48779   7.729   1.133   9.612 -0.0718  0.2828 -0.2266
  362MOL0     C48780   6.875   0.554  10.184 -0.3422 -0.4155  0.4022
  362MOL0     C48781   6.734   0.543  10.172 -0.3765 -0.3108  0.7419
  362MOL0     O48782   6.527   0.357  10.094 -0.5293  0.4858  0.4908
  362MOL0     C48783   6.273   0.588  10.046 -0.2777 -0.0634 -0.1882
  362MOL0     C48784   6.133   0.600  10.065  0.2432 -0.6264 -0.8739
  362MOL0     N48785   5.348   0.179  10.113 -1.0185 -1.1228 -0.6410
  362MOL0     N48786   5.238   0.243  10.076 -0.3697  0.8536 -0.2209
  362MOL0     C48787   4.380   1.059  10.211  0.5227  0.2935  0.1983
  362MOL0     C48788   4.253   1.018  10.153  0.5275  0.7580  0.2976
  362MOL0     C48789   3.827   0.815  10.212 -0.1541  0.4339  0.0904
  362MOL0     C48790   3.732   0.919  10.200 -0.0378  0.4371 -0.4468
  362MOL0     C48791   3.596   0.892  10.159 -1.3028  0.2949 -0.8151
  362MOL0     C48792   3.559   0.759  10.149 -0.1387  0.2250  0.1908
  362MOL0     O48793   3.435   0.718  10.118  0.2902 -0.1103 -0.2679
  362MOL0     C48794   3.331   0.819  10.115 -0.3776  0.2315  0.0654
  362MOL0     C48795   3.199   0.749  10.094  0.1839 -0.5361  1.0167
  362MOL0     C48796   3.194   0.656   9.968  0.0630  0.6615 -0.1955
  362MOL0     C48797   3.047   0.597   9.950 -0.6125  0.7963 -0.0897
  362MOL0     C48798   2.970   0.692   9.867  0.1359  0.6542 -0.3931
  362MOL0     C48799   2.917   0.767   9.785  0.4265 -0.2089 -0.0808
  362MOL0     C48800   3.657   0.655  10.150 -0.6181 -0.2824 -0.5044
  362MOL0     C48801   3.786   0.678  10.188 -1.0122 -0.5712  0.0757
  362MOL0     C48802   3.878   0.561  10.205  0.6461  0.2256 -0.7321
  362MOL0     H48803   4.070   1.057  10.437 -0.8355  1.7772 -0.5642
  362MOL0     H48804   4.291   1.122  10.527  2.8467 -0.5711  0.1018
  362MOL0     H48805   4.693   1.140  10.480  0.3460 -1.2571  0.1886
  362MOL0     H48806   4.594   0.992  10.513  0.3172 -0.0783 -0.1471
  362MOL0     H48807   4.700   1.077  10.236 -1.5882  1.3189  1.4645
  362MOL0     H48808   4.605   0.936  10.275  1.6370 -0.4791 -1.1530
  362MOL0     H48809   4.775   0.823  10.393  0.0777  1.1310  0.2931
  362MOL0     H48810   4.884   0.966  10.378  0.6491 -0.5088  0.0665
  362MOL0     H48811   4.768   0.799  10.140 -0.1581 -1.6550  2.4956
  362MOL0     H48812   4.897   0.932  10.135  0.2695  1.8053  2.2512
  362MOL0     H48813   5.054   0.810  10.249 -0.1486 -0.3344 -0.9346
  362MOL0     H48814   4.946   0.684  10.298  1.4552 -0.3311  0.6153
  362MOL0     H48815   4.925   0.609  10.054  0.7329 -1.2980  0.6576
  362MOL0     H48816   5.052   0.728  10.020  1.1672  0.7814  1.3452
  362MOL0     H48817   5.080   0.498  10.233  3.6675 -0.2095  0.7110
  362MOL0     H48818   5.196   0.627  10.190  1.3594 -0.3020 -0.7884
  362MOL0     H48819   5.069   0.424  10.001 -0.5777 -0.4454  2.3257
  362MOL0     H48820   5.199   0.534   9.951 -1.2081  2.3272  0.3027
  362MOL0     H48821   5.459   0.482  10.144  1.6838 -2.6119  0.5865
  362MOL0     H48822   5.629   0.296  10.273 -3.2842  1.6330  0.1485
  362MOL0     H48823   5.577   0.130  10.251  2.0022  0.3924  0.7800
  362MOL0     H48824   5.770   0.132  10.134  0.6733 -0.3284 -0.1921
  362MOL0     H48825   5.660   0.161   9.997  2.9449 -2.1016  0.5840
  362MOL0     H48826   5.712   0.390   9.975 -0.6655  0.0479 -0.4013
  362MOL0     H48827   5.855   0.282   9.973 -0.0184 -0.1620  1.2460
  362MOL0     H48828   5.874   0.341  10.230 -1.6819 -2.3986 -0.5442
  362MOL0     H48829   5.752   0.465  10.213  0.5457  1.7316 -1.8487
  362MOL0     H48830   6.047   0.274  10.113 -1.5327  0.5496 -1.8158
  362MOL0     H48831   6.298   0.252  10.108  1.3350 -1.0087 -2.2233
  362MOL0     H48832   6.718   0.645   9.847  3.3888  0.6641 -1.2460
  362MOL0     H48833   6.958   0.662   9.871 -0.9053  2.3218  0.8033
  362MOL0     H48834   7.121   0.622  10.292  1.2100  0.2451 -0.0700
  362MOL0     H48835   7.258   0.639  10.192  0.4715 -0.3944  0.4937
  362MOL0     H48836   7.022   0.838  10.220  0.8588  1.6957 -0.1899
  362MOL0     H48837   7.187   0.859  10.282 -1.9029 -1.7494  2.4760
  362MOL0     H48838   7.090   0.852   9.985  0.0187 -2.0910 -0.0211
  362MOL0     H48839   7.135   0.985  10.076 -0.2518 -0.5440  1.0749
  362MOL0     H48840   7.324   0.773   9.995 -1.4549 -2.2228  0.9126
  362MOL0     H48841   7.365   0.896  10.122  2.3761 -0.3471 -2.1591
  362MOL0     H48842   7.303   1.069   9.949 -1.3144 -0.4004 -0.3311
  362MOL0     H48843   7.298   0.939   9.831  0.9706  2.1175 -1.0176
  362MOL0     H48844   7.542   1.028   9.998  1.4592  0.0895 -0.7948
  362MOL0     H48845   7.547   0.895   9.884 -3.4921 -0.5152 -0.9368
  362MOL0     H48846   7.483   1.170   9.804 -3.5744 -1.5295  1.3539
  362MOL0     H48847   7.482   1.027   9.697  1.7043 -0.4533  0.0427
  362MOL0     H48848   7.712   1.149   9.846  3.1445 -0.0824 -1.9872
  362MOL0     H48849   7.730   0.981   9.787  0.0655 -0.6784 -0.1143
  362MOL0     H48850   6.921   0.518  10.275  0.9406  3.5890  1.5465
  362MOL0     H48851   6.664   0.497  10.241  1.5142 -1.7013  1.8392
  362MOL0     H48852   6.325   0.677  10.013 -1.2492  0.9476  0.9061
  362MOL0     H48853   6.091   0.700  10.057 -1.3325 -1.0060  1.4759
  362MOL0     H48854   4.470   1.058  10.151 -1.8494 -0.6933 -3.6537
  362MOL0     H48855   4.253   0.985  10.049  1.3599  0.2161  0.4526
  362MOL0     H48856   3.763   1.019  10.230 -0.8339  1.0888 -1.6752
  362MOL0     H48857   3.539   0.981  10.138 -2.6026 -1.0123 -3.3796
  362MOL0     H48858   3.346   0.878  10.024 -2.0593  1.8181  0.7717
  362MOL0     H48859   3.335   0.870  10.211  2.5456  2.8671 -1.2582
  362MOL0     H48860   3.127   0.831  10.088  1.5631  0.6971  0.5295
  362MOL0     H48861   3.175   0.688  10.181  0.3028  1.3955  2.4810
  362MOL0     H48862   3.258   0.569   9.984 -0.5451 -0.2721 -2.4606
  362MOL0     H48863   3.226   0.703   9.874 -1.0573 -1.0109 -1.4700
  362MOL0     H48864   3.035   0.500   9.899 -1.6471  0.9927 -0.2378
  362MOL0     H48865   2.998   0.581  10.046 -3.3373 -2.6878 -1.8258
  362MOL0     H48866   2.873   0.832   9.712 -1.4106 -1.2997 -0.0040
  362MOL0     H48867   3.634   0.551  10.134  2.5256 -1.0511 -0.7590
  362MOL0     H48868   3.838   0.478  10.147 -1.9076  0.3209  0.7412
  362MOL0     H48869   3.973   0.598  10.164  0.5828  0.9356 -0.2647
  362MOL0     H48870   3.893   0.531  10.309 -0.1880 -0.3068 -0.7567
  363MOL0     O48871   5.593   4.597   1.743  0.0260  0.2835 -0.2395
  363MOL0     C48872   5.521   4.573   1.652 -0.3297 -0.1804 -0.0811
  363MOL0     O48873   5.569   4.530   1.530  0.1065 -0.3964  0.3099
  363MOL0     C48874   5.702   4.533   1.493  0.5942 -0.4692  0.2373
  363MOL0     C48875   5.788   4.637   1.536  0.1285 -0.6682 -0.0508
  363MOL0     C48876   5.920   4.639   1.498 -0.1218 -0.0503 -0.2462
  363MOL0     C48877   5.977   4.532   1.433  0.0775  1.3313  0.0954
  363MOL0     O48878   6.112   4.520   1.409  0.0408  0.0869 -0.5651
  363MOL0     C48879   6.179   4.634   1.350 -0.3112  0.0253  0.1621
  363MOL0     C48880   6.267   4.680   1.459  0.2904 -0.2405 -0.7626
  363MOL0     C48881   6.365   4.788   1.413 -0.4096  0.7076 -0.3384
  363MOL0     C48882   6.486   4.798   1.515 -0.0169  0.6825 -0.8483
  363MOL0     C48883   6.553   4.937   1.529 -0.0125 -0.2299  0.3807
  363MOL0     C48884   6.569   5.018   1.400  0.6142  0.5001  0.6812
  363MOL0     C48885   6.655   5.145   1.425 -0.7948  0.6321  0.4981
  363MOL0     C48886   6.804   5.103   1.434  0.6467  0.6895  0.2600
  363MOL0     N48887   6.879   5.073   1.312  0.8473 -0.1189 -0.1133
  363MOL0     C48888   6.919   4.953   1.266  0.8234  0.3587  0.1359
  363MOL0     C48889   6.977   4.976   1.145 -0.2645  0.8311  0.3399
  363MOL0     C48890   7.020   4.863   1.061  0.1257  0.4987 -0.3572
  363MOL0     C48891   7.104   4.749   1.139 -0.2426 -0.8155  0.5709
  363MOL0     C48892   7.115   4.614   1.059  0.7392  0.0037  0.9966
  363MOL0     C48893   7.162   4.629   0.916 -0.2047 -0.1602  0.0277
  363MOL0     O48894   7.257   4.735   0.905  0.6044 -0.0416  1.1502
  363MOL0     C48895   7.388   4.720   0.942 -0.0204 -0.3548  0.3277
  363MOL0     C48896   7.455   4.605   0.990 -0.2561  0.0313 -0.1519
  363MOL0     C48897   7.591   4.610   1.014  0.7038  1.2103 -0.2778
  363MOL0     C48898   7.663   4.728   0.987  0.4447  1.0202  0.0893
  363MOL0     C48899   7.805   4.730   0.997 -0.1402 -0.2779 -0.3459
  363MOL0     O48900   7.862   4.602   0.992  0.1195  0.2248 -0.8274
  363MOL0     C48901   7.998   4.597   1.009 -0.7424  0.6628  0.6018
  363MOL0     C48902   8.062   4.625   1.119 -0.4537 -0.8421 -0.0847
  363MOL0     C48903   8.199   4.599   1.143  0.2388 -0.1276  0.6950
  363MOL0     C48904   8.274   4.541   1.037  0.0286 -0.4113 -0.3574
  363MOL0     O48905   8.410   4.530   1.048 -0.0369  0.3993 -0.3360
  363MOL0     C48906   8.443   4.425   1.137 -0.0001  0.1350 -0.3279
  363MOL0     C48907   8.468   4.291   1.065  0.2493  0.9362 -0.2545
  363MOL0     C48908   8.575   4.295   0.954 -0.2081  0.3645  0.0187
  363MOL0     C48909   8.602   4.161   0.884  0.5560  0.6562  1.0591
  363MOL0     C48910   8.707   4.182   0.770  0.2130 -0.1944 -0.7695
  363MOL0     C48911   8.687   4.073   0.663  0.3057 -0.6055 -0.8098
  363MOL0     C48912   8.736   3.944   0.708 -0.1269 -0.1931 -0.3545
  363MOL0     C48913   8.881   3.918   0.665  0.0671  0.1052  0.1363
  363MOL0    Cl48914   8.899   3.899   0.479 -0.2697 -0.5772 -0.4563
  363MOL0     C48915   8.213   4.511   0.915  0.1356  0.4266  0.7085
  363MOL0     C48916   8.077   4.537   0.905  0.4099 -0.6930  0.1144
  363MOL0     O48917   7.869   4.839   1.010 -0.7319  0.4390  0.0233
  363MOL0     C48918   7.594   4.845   0.940 -0.0275  0.4347  0.6460
  363MOL0     C48919   7.456   4.838   0.929 -0.3527  0.5372  0.8269
  363MOL0     N48920   6.982   5.107   1.126 -0.1870 -0.7522  0.5256
  363MOL0     N48921   6.917   5.172   1.225 -0.6425 -0.4014 -0.0929
  363MOL0     C48922   5.892   4.420   1.388 -0.8000 -0.7107  0.2726
  363MOL0     C48923   5.752   4.421   1.431 -0.1748  0.3817  0.2813
  363MOL0     C48924   5.372   4.557   1.662 -0.3069  0.1994 -0.3035
  363MOL0     C48925   5.313   4.470   1.573 -0.8090  0.2758  0.4494
  363MOL0     C48926   5.175   4.436   1.586 -0.5260 -0.6814 -0.1139
  363MOL0     C48927   5.094   4.501   1.679 -0.2979  0.1060 -0.2505
  363MOL0     O48928   4.958   4.473   1.685 -0.5080 -0.1482 -0.0260
  363MOL0     C48929   4.873   4.481   1.809 -0.0539  0.2172 -0.0840
  363MOL0     C48930   4.737   4.437   1.775  0.3967 -0.4395 -0.4306
  363MOL0     C48931   4.666   4.524   1.671  0.1219  0.2657 -0.0382
  363MOL0     C48932   4.528   4.474   1.656  0.3933  0.3911 -0.6798
  363MOL0     C48933   4.461   4.546   1.552  0.4619  0.3042  0.5061
  363MOL0     C48934   4.416   4.618   1.459 -0.1645 -0.3915 -0.6747
  363MOL0     C48935   5.161   4.598   1.765 -0.4761 -0.6068 -0.1155
  363MOL0     C48936   5.293   4.627   1.755 -0.6528 -0.2481 -0.4097
  363MOL0     C48937   5.357   4.719   1.856 -0.4827 -0.1931  0.2312
  363MOL0     H48938   5.758   4.725   1.592  1.8850 -1.1498  1.7682
  363MOL0     H48939   5.979   4.725   1.529 -2.7145  2.2599 -1.2941
  363MOL0     H48940   6.236   4.589   1.268  0.2139 -3.6960  2.3532
  363MOL0     H48941   6.115   4.717   1.318 -1.5098 -0.9869 -0.1492
  363MOL0     H48942   6.323   4.595   1.497  1.9724 -0.0296 -2.5886
  363MOL0     H48943   6.206   4.720   1.540 -0.3376 -0.8861 -0.9121
  363MOL0     H48944   6.319   4.887   1.414  0.1762  0.9876 -0.7362
  363MOL0     H48945   6.402   4.764   1.313  1.1909 -0.6373  0.5160
  363MOL0     H48946   6.473   4.755   1.615 -0.8855  1.5499 -0.5764
  363MOL0     H48947   6.563   4.733   1.472  0.2796  0.8525 -0.5717
  363MOL0     H48948   6.500   5.005   1.597 -0.9306  0.0259 -0.5661
  363MOL0     H48949   6.656   4.919   1.563 -0.0886 -1.2250  0.1013
  363MOL0     H48950   6.608   4.953   1.321 -3.4127 -1.8389  0.3295
  363MOL0     H48951   6.469   5.055   1.376  0.5287 -0.5979 -0.8598
  363MOL0     H48952   6.628   5.170   1.528 -0.6665 -1.7573  1.1922
  363MOL0     H48953   6.651   5.224   1.351  3.4673  0.6491  0.0040
  363MOL0     H48954   6.846   5.192   1.481  0.9325  0.7092 -0.0267
  363MOL0     H48955   6.818   5.024   1.509  1.8425 -2.5677 -3.0735
  363MOL0     H48956   6.901   4.858   1.316 -0.2492  1.5256  2.1012
  363MOL0     H48957   6.928   4.816   1.025  0.1452  0.9512 -1.0107
  363MOL0     H48958   7.070   4.899   0.971 -0.7915 -1.5036 -1.7591
  363MOL0     H48959   7.205   4.790   1.154  0.1772 -0.1291 -3.0623
  363MOL0     H48960   7.061   4.728   1.237 -0.2572 -0.3492  0.6664
  363MOL0     H48961   7.011   4.578   1.059  0.3035  1.2349  1.3719
  363MOL0     H48962   7.184   4.542   1.104  3.6460 -0.0192 -2.9382
  363MOL0     H48963   7.072   4.666   0.865 -1.8897 -0.7618  2.3996
  363MOL0     H48964   7.202   4.533   0.880  1.2837 -0.3197  1.9570
  363MOL0     H48965   7.390   4.518   1.000  1.0655 -0.9231  0.3705
  363MOL0     H48966   7.640   4.519   1.046 -1.3277  0.7064  1.6309
  363MOL0     H48967   8.021   4.668   1.210  0.7589 -3.2514  1.7171
  363MOL0     H48968   8.250   4.626   1.236  0.1875  1.3399  0.3316
  363MOL0     H48969   8.532   4.459   1.190  1.3113  2.8871 -3.8411
  363MOL0     H48970   8.366   4.412   1.214  1.0225  0.0915  0.7025
  363MOL0     H48971   8.490   4.217   1.143 -1.1681  1.5397  0.7589
  363MOL0     H48972   8.379   4.255   1.013 -0.6413 -2.0556  3.0072
  363MOL0     H48973   8.556   4.370   0.876  1.3831  1.0406  0.2341
  363MOL0     H48974   8.666   4.314   1.011 -1.5298 -2.2106  3.3094
  363MOL0     H48975   8.521   4.109   0.831  2.2661 -0.2665 -0.7722
  363MOL0     H48976   8.635   4.082   0.952 -0.6145 -0.5967  0.2373
  363MOL0     H48977   8.808   4.174   0.811 -0.5971 -1.8213  1.0252
  363MOL0     H48978   8.693   4.275   0.714 -1.1580  0.6611  0.8916
  363MOL0     H48979   8.581   4.070   0.636 -0.5369 -1.3403  2.1935
  363MOL0     H48980   8.741   4.100   0.572  2.3343  1.4365  0.8768
  363MOL0     H48981   8.673   3.860   0.678 -0.4327  0.5358 -1.8430
  363MOL0     H48982   8.733   3.931   0.816 -0.6737 -1.7512 -0.5370
  363MOL0     H48983   8.935   4.002   0.710  0.1246 -0.4099  1.0556
  363MOL0     H48984   8.917   3.828   0.716 -0.1609  1.0635  2.0764
  363MOL0     H48985   8.271   4.463   0.837 -2.2922  0.3731 -1.1791
  363MOL0     H48986   8.025   4.514   0.812  0.5031 -2.5768  0.4945
  363MOL0     H48987   7.648   4.934   0.908 -0.2057  0.2766 -0.1092
  363MOL0     H48988   7.397   4.917   0.883 -0.2781  0.3727  0.4519
  363MOL0     H48989   5.938   4.335   1.340 -0.0791  0.1439 -0.6004
  363MOL0     H48990   5.681   4.342   1.411 -1.0206  1.2753 -0.3116
  363MOL0     H48991   5.367   4.403   1.508 -1.4828  1.4174 -1.3517
  363MOL0     H48992   5.134   4.348   1.538 -0.5036 -2.9863  3.6774
  363MOL0     H48993   4.849   4.579   1.852 -1.4693 -0.7173  1.3661
  363MOL0     H48994   4.922   4.434   1.895  0.3516  0.9489  0.1010
  363MOL0     H48995   4.682   4.447   1.869 -1.5899 -0.0915 -1.5860
  363MOL0     H48996   4.751   4.330   1.753  1.1696 -0.9620  2.2363
  363MOL0     H48997   4.719   4.536   1.576  1.8331  1.8102  1.0461
  363MOL0     H48998   4.658   4.626   1.709  4.7746 -0.5185  4.0514
  363MOL0     H48999   4.528   4.368   1.630 -0.1282 -0.2746  1.7719
  363MOL0     H49000   4.463   4.494   1.742  2.8941  2.9737  0.8268
  363MOL0     H49001   4.383   4.689   1.386 -0.1610  1.6923  1.2294
  363MOL0     H49002   5.107   4.643   1.848  0.9307  0.8307  0.0615
  363MOL0     H49003   5.430   4.787   1.811 -1.7515  1.3320  0.3685
  363MOL0     H49004   5.278   4.771   1.912 -2.6275 -2.9365  0.0011
  363MOL0     H49005   5.421   4.662   1.924  0.3472  2.1633  1.5727
  364MOL0     O49006  10.734   6.194   0.445  0.2240 -0.4713 -0.4859
  364MOL0     C49007  10.704   6.259   0.550  0.3284 -0.0735 -0.1407
  364MOL0     O49008  10.795   6.323   0.628 -0.1700 -0.0751 -0.8870
  364MOL0     C49009  10.927   6.291   0.624 -0.3774 -0.2895 -0.5369
  364MOL0     C49010  10.971   6.160   0.617  1.1179 -0.1777  0.3052
  364MOL0     C49011  11.113   6.128   0.619  0.0834  0.6422 -0.4912
  364MOL0     C49012  11.204   6.233   0.642 -0.6645 -0.4059  0.8370
  364MOL0     O49013  11.337   6.204   0.679 -0.0229 -0.0539  0.1660
  364MOL0     C49014  11.430   6.316   0.669 -0.9119  0.5799  0.8445
  364MOL0     C49015  11.572   6.267   0.694 -0.7836  0.5105 -0.0926
  364MOL0     C49016  11.676   6.375   0.667 -0.3198  0.2081  0.3154
  364MOL0     C49017  11.814   6.308   0.660 -0.5422  0.3908  0.2387
  364MOL0     C49018  11.936   6.396   0.617 -0.8917  0.6296  0.2799
  364MOL0     C49019  12.060   6.327   0.688 -0.1126  0.5584  0.4122
  364MOL0     C49020  12.185   6.417   0.690 -0.3561 -0.0537 -0.2547
  364MOL0     C49021  12.308   6.355   0.758  0.7208  0.8826  0.2037
  364MOL0     N49022  12.422   6.452   0.748 -0.1821 -0.3460  0.8638
  364MOL0     C49023  12.528   6.428   0.662 -0.1497  0.1955  0.1494
  364MOL0     C49024  12.603   6.540   0.675 -0.9929  0.2798  0.1682
  364MOL0     C49025  12.750   6.549   0.619 -0.2036 -0.2657  0.0304
  364MOL0     C49026  12.836   6.603   0.730  0.3403  1.1965 -0.3236
  364MOL0     C49027  12.985   6.624   0.691  0.4107 -0.2385  0.6774
  364MOL0     C49028  13.066   6.498   0.696 -0.3849  0.2102  0.4493
  364MOL0     O49029  13.202   6.529   0.740  0.2983 -0.0793  0.4853
  364MOL0     C49030  13.274   6.615   0.659 -0.5455 -0.0758  0.1901
  364MOL0     C49031  13.265   6.616   0.522 -0.1039  0.1344  0.0603
  364MOL0     C49032  13.349   6.701   0.450  0.0427  0.0487  0.9331
  364MOL0     C49033  13.441   6.791   0.502 -0.4683 -0.0866  0.6087
  364MOL0     C49034  13.521   6.880   0.422 -0.0484  0.5324  0.6152
  364MOL0     O49035  13.642   6.929   0.472  0.0727  0.1815 -0.2887
  364MOL0     C49036  13.716   7.026   0.422 -0.3342 -0.1414  0.4349
  364MOL0     C49037  13.833   7.059   0.498  0.3793  0.8029  0.5744
  364MOL0     C49038  13.925   7.148   0.458 -0.3622 -0.5610  0.2245
  364MOL0     C49039  13.904   7.230   0.348  0.0784  0.8832  0.1816
  364MOL0     O49040  13.999   7.326   0.318  0.3510  0.4742 -0.0732
  364MOL0     C49041  13.981   7.400   0.196  1.2571  0.1102 -0.3773
  364MOL0     C49042  14.108   7.486   0.193 -0.0085 -0.8287 -0.5635
  364MOL0     C49043  14.138   7.549   0.056 -0.0799 -0.4486 -0.5430
  364MOL0     C49044  14.289   7.586   0.041 -0.0452  0.4650 -0.0814
  364MOL0     C49045  14.344   7.636  -0.093  0.3107 -0.1921  0.1241
  364MOL0     C49046  14.496   7.652  -0.096  0.0727 -1.3280 -0.6436
  364MOL0     C49047  14.541   7.675  -0.237  0.0988 -0.2590  0.3250
  364MOL0     C49048  14.683   7.618  -0.252  0.2632 -0.2449 -0.5919
  364MOL0    Cl49049  14.782   7.729  -0.148  0.6053 -0.0094 -0.2592
  364MOL0     C49050  13.786   7.204   0.274  0.9084  0.1170 -0.2164
  364MOL0     C49051  13.696   7.098   0.306  0.0400  0.0651  0.0688
  364MOL0     O49052  13.469   6.918   0.320 -0.4406 -0.2703 -0.3057
  364MOL0     C49053  13.449   6.794   0.644  0.3649  0.3726  0.3408
  364MOL0     C49054  13.372   6.689   0.715 -0.1520 -0.4706 -0.1904
  364MOL0     N49055  12.545   6.623   0.767  0.3331 -0.3243 -0.0925
  364MOL0     N49056  12.430   6.578   0.804 -0.7069 -0.3675 -0.2758
  364MOL0     C49057  11.152   6.369   0.632 -0.4897 -0.0097  0.5071
  364MOL0     C49058  11.011   6.401   0.620 -0.3828 -0.1738 -0.0663
  364MOL0     C49059  10.558   6.268   0.585  0.2518  0.3066  0.5131
  364MOL0     C49060  10.518   6.354   0.694 -0.3352 -0.4381  0.1191
  364MOL0     C49061  10.392   6.391   0.728  0.4946  0.3483  0.5602
  364MOL0     C49062  10.282   6.323   0.674 -0.5250  0.2466 -0.0025
  364MOL0     O49063  10.152   6.340   0.711 -0.1500 -0.4095  0.1206
  364MOL0     C49064  10.131   6.366   0.847 -0.3455  0.0144 -0.5600
  364MOL0     C49065   9.991   6.346   0.884  0.0438 -0.0044 -0.3602
  364MOL0     C49066   9.965   6.380   1.031  0.3798  0.0971  0.6446
  364MOL0     C49067   9.936   6.257   1.120 -0.1469 -0.4694  0.5622
  364MOL0     C49068  10.069   6.200   1.136 -0.4656  0.3662 -0.2308
  364MOL0     C49069  10.187   6.177   1.167  0.1999 -0.6602  0.2585
  364MOL0     C49070  10.319   6.224   0.583  0.0405  0.4207 -0.0011
  364MOL0     C49071  10.453   6.194   0.539 -0.3218 -0.1432  0.2255
  364MOL0     C49072  10.472   6.066   0.449  0.3801  0.1044  0.6888
  364MOL0     H49073  10.893   6.085   0.602  0.9689 -0.4416  2.0996
  364MOL0     H49074  11.148   6.026   0.614 -2.0695 -0.4640  3.0295
  364MOL0     H49075  11.428   6.358   0.568  1.0110 -2.1208 -0.4303
  364MOL0     H49076  11.406   6.399   0.736  2.0486  0.6730  1.9088
  364MOL0     H49077  11.604   6.180   0.636 -0.0323  0.4616  0.3862
  364MOL0     H49078  11.577   6.232   0.798 -0.0404  3.1812  0.8669
  364MOL0     H49079  11.681   6.450   0.747 -1.4995  1.0435 -0.3673
  364MOL0     H49080  11.660   6.436   0.578 -2.4337  1.8987  1.7605
  364MOL0     H49081  11.823   6.265   0.761  0.0847 -4.5798 -1.6418
  364MOL0     H49082  11.818   6.229   0.585  1.7174  0.8669 -0.2188
  364MOL0     H49083  11.955   6.393   0.509  1.8552 -0.7871  0.7015
  364MOL0     H49084  11.904   6.495   0.652 -4.4186 -0.4827  0.6339
  364MOL0     H49085  12.030   6.293   0.788 -1.4619  2.0284  0.5475
  364MOL0     H49086  12.085   6.245   0.621  0.9151  2.9183 -2.2878
  364MOL0     H49087  12.163   6.508   0.747 -2.0242  0.1434 -1.1494
  364MOL0     H49088  12.211   6.450   0.589 -0.0156  4.7787  1.1685
  364MOL0     H49089  12.278   6.348   0.863  2.9342  1.4389  0.9224
  364MOL0     H49090  12.331   6.253   0.730 -0.3873  0.9959 -1.2254
  364MOL0     H49091  12.548   6.337   0.607  2.2615 -0.2415  1.6242
  364MOL0     H49092  12.787   6.449   0.593  0.3037  0.0102 -0.3231
  364MOL0     H49093  12.745   6.618   0.534 -2.8274 -0.2321  0.1339
  364MOL0     H49094  12.788   6.694   0.768 -1.2438 -0.0041  0.6801
  364MOL0     H49095  12.838   6.535   0.815 -1.8371  0.9540 -0.4065
  364MOL0     H49096  13.032   6.693   0.761  1.3263  2.2607 -2.1951
  364MOL0     H49097  12.996   6.667   0.591  0.2782  0.4324  0.9425
  364MOL0     H49098  13.062   6.447   0.599  0.5972  1.2526 -0.1574
  364MOL0     H49099  13.022   6.427   0.768 -0.4535  1.6673  1.9044
  364MOL0     H49100  13.203   6.549   0.465  2.0530 -3.5220  1.6899
  364MOL0     H49101  13.324   6.691   0.345 -1.3980 -1.3197  1.3718
  364MOL0     H49102  13.852   6.998   0.586  0.5289 -0.4263 -0.2757
  364MOL0     H49103  14.015   7.147   0.518 -1.0014  1.2369  1.2851
  364MOL0     H49104  13.987   7.336   0.108 -1.1442 -0.5512 -0.1187
  364MOL0     H49105  13.889   7.459   0.190  0.9534 -0.2508  0.6513
  364MOL0     H49106  14.085   7.560   0.271 -1.0107 -2.1622  0.4571
  364MOL0     H49107  14.198   7.427   0.213  0.0948 -1.2243 -2.1163
  364MOL0     H49108  14.116   7.472  -0.019  0.4403 -0.0724 -1.0931
  364MOL0     H49109  14.077   7.639   0.042  0.2692 -0.2123 -0.5583
  364MOL0     H49110  14.342   7.494   0.067 -1.8053 -0.2261  1.2081
  364MOL0     H49111  14.323   7.662   0.113 -2.6058  2.4876 -0.8665
  364MOL0     H49112  14.306   7.737  -0.112 -0.5529 -1.0065 -3.0163
  364MOL0     H49113  14.320   7.561  -0.169 -0.0299 -3.4619  3.1452
  364MOL0     H49114  14.527   7.732  -0.028  1.0040 -1.9694 -0.2879
  364MOL0     H49115  14.539   7.558  -0.062 -1.1182 -2.3975 -1.9786
  364MOL0     H49116  14.547   7.783  -0.254  0.1411 -0.0105  1.7825
  364MOL0     H49117  14.477   7.632  -0.315 -2.0030  0.1454  1.7296
  364MOL0     H49118  14.700   7.516  -0.216  1.2820 -0.1526 -0.7678
  364MOL0     H49119  14.718   7.624  -0.356  0.2390  0.2371 -0.5718
  364MOL0     H49120  13.764   7.259   0.183  0.7693 -1.6770 -1.3076
  364MOL0     H49121  13.612   7.090   0.238 -0.2395  1.8832  0.1628
  364MOL0     H49122  13.519   6.866   0.687  0.2685  0.0595  1.0431
  364MOL0     H49123  13.386   6.682   0.822  1.0478  0.2798 -0.2775
  364MOL0     H49124  11.216   6.453   0.657  0.2507 -0.9044  1.6733
  364MOL0     H49125  10.975   6.502   0.634  2.1913  0.5649  1.8099
  364MOL0     H49126  10.595   6.400   0.754  0.4966 -2.5856  0.7831
  364MOL0     H49127  10.395   6.477   0.794 -0.5663  1.0216 -0.2336
  364MOL0     H49128  10.154   6.469   0.878 -2.3588 -0.0470  1.3827
  364MOL0     H49129  10.189   6.290   0.901  1.4169 -0.3144 -2.7684
  364MOL0     H49130   9.963   6.242   0.866 -0.5222  0.3628 -1.6879
  364MOL0     H49131   9.929   6.421   0.833 -3.2616 -1.1408  1.6278
  364MOL0     H49132   9.871   6.436   1.032 -0.2972 -0.8587 -1.8159
  364MOL0     H49133  10.044   6.448   1.063  0.8578  0.2290 -0.7719
  364MOL0     H49134   9.894   6.289   1.215  2.8629 -0.0622  1.8508
  364MOL0     H49135   9.858   6.195   1.074  0.6939 -2.0513  1.1943
  364MOL0     H49136  10.286   6.159   1.205  0.2850  1.9634  1.5634
  364MOL0     H49137  10.240   6.164   0.539  0.3290 -1.0087  1.3328
  364MOL0     H49138  10.560   6.015   0.489  2.4326  2.7202 -0.2104
  364MOL0     H49139  10.385   6.000   0.454 -0.3933  0.9492 -0.8703
  364MOL0     H49140  10.494   6.098   0.347 -2.0306 -1.5114 -0.4089
  365MOL0     O49141   7.652   9.797   6.277 -1.1153  0.4177 -0.3002
  365MOL0     C49142   7.617   9.814   6.394 -0.9898 -0.7238 -0.1276
  365MOL0     O49143   7.649   9.929   6.463  0.0149 -0.5132  0.3067
  365MOL0     C49144   7.755  10.002   6.415  0.4770 -0.4617  0.2864
  365MOL0     C49145   7.735  10.102   6.324 -0.5422  0.3391 -0.1935
  365MOL0     C49146   7.839  10.192   6.282  0.7215 -0.2941 -0.0298
  365MOL0     C49147   7.960  10.167   6.348 -0.6414 -0.7882  0.4693
  365MOL0     O49148   8.062  10.250   6.299  0.3425  0.1112 -0.4166
  365MOL0     C49149   8.205  10.206   6.303  0.2386  0.1233 -0.7950
  365MOL0     C49150   8.283  10.267   6.192 -0.6165  0.0196  0.1128
  365MOL0     C49151   8.335  10.401   6.214  0.4636 -0.1770 -0.8753
  365MOL0     C49152   8.443  10.413   6.326  0.3100  0.5251 -0.4043
  365MOL0     C49153   8.578  10.381   6.276 -0.4620  0.0591 -0.4648
  365MOL0     C49154   8.680  10.412   6.386  0.5998 -0.6140 -0.1492
  365MOL0     C49155   8.822  10.384   6.345  0.2522 -0.4250 -0.6069
  365MOL0     C49156   8.872  10.455   6.219  0.3936 -0.3879  0.2370
  365MOL0     N49157   9.011  10.464   6.212 -0.1336 -0.1231 -0.4734
  365MOL0     C49158   9.102  10.368   6.190  0.0316  0.9647 -0.3245
  365MOL0     C49159   9.219  10.431   6.194  0.0691 -0.4332  0.2163
  365MOL0     C49160   9.353  10.372   6.169 -0.0645  0.8814 -0.6616
  365MOL0     C49161   9.465  10.391   6.277 -0.6111  0.0633  0.7472
  365MOL0     C49162   9.582  10.289   6.257 -0.5013 -0.6848  0.7306
  365MOL0     C49163   9.638  10.264   6.115  0.5236 -0.6181  0.3806
  365MOL0     O49164   9.676  10.390   6.045 -0.2460  0.0394 -0.9346
  365MOL0     C49165   9.780  10.380   5.957  0.2000 -0.8747  0.0686
  365MOL0     C49166   9.856  10.497   5.940  0.4048  0.1642  0.0366
  365MOL0     C49167   9.974  10.493   5.864 -0.4121  0.0139 -0.5535
  365MOL0     C49168  10.016  10.373   5.809  0.4103 -0.8362 -0.3580
  365MOL0     C49169  10.136  10.373   5.716  0.1615 -0.1477  0.5445
  365MOL0     O49170  10.145  10.478   5.633 -0.0928 -0.7933  0.0896
  365MOL0     C49171  10.258  10.480   5.547 -0.1607 -0.5035 -0.7350
  365MOL0     C49172  10.389  10.497   5.598  0.4046 -0.0445  0.2415
  365MOL0     C49173  10.494  10.501   5.516 -0.4389  0.8836  0.8220
  365MOL0     C49174  10.476  10.467   5.375 -0.0712  0.9804 -0.3629
  365MOL0     O49175  10.578  10.472   5.287  0.0924  0.1033 -0.0913
  365MOL0     C49176  10.599  10.345   5.213  1.1002 -0.2740 -0.5339
  365MOL0     C49177  10.737  10.347   5.178  0.9682  0.4934 -0.1687
  365MOL0     C49178  10.831  10.310   5.288  0.1716  0.1685 -0.4127
  365MOL0     C49179  10.974  10.366   5.258  0.2333  0.0178  0.3164
  365MOL0     C49180  11.079  10.317   5.359  0.2499 -0.7338 -0.4761
  365MOL0     C49181  11.211  10.388   5.345 -0.5043 -0.1118 -0.3298
  365MOL0     C49182  11.305  10.359   5.459  0.3331  0.7054 -0.2978
  365MOL0     C49183  11.432  10.433   5.443  0.1897  0.3889  0.0193
  365MOL0    Cl49184  11.535  10.377   5.581  0.0046  0.1682 -0.0180
  365MOL0     C49185  10.346  10.431   5.328 -0.2151  0.2626 -0.2592
  365MOL0     C49186  10.238  10.446   5.413  1.0853 -0.5207 -0.6193
  365MOL0     O49187  10.200  10.270   5.705  0.0772 -0.4943  0.5300
  365MOL0     C49188   9.938  10.263   5.825 -0.3363  0.3014  0.0446
  365MOL0     C49189   9.822  10.265   5.891  0.7909  0.8474 -0.5004
  365MOL0     N49190   9.200  10.560   6.248  0.5344  0.0200  0.4654
  365MOL0     N49191   9.076  10.581   6.248  0.3169 -0.2877  0.3440
  365MOL0     C49192   7.979  10.073   6.443 -0.7218 -0.3728  0.5741
  365MOL0     C49193   7.876   9.990   6.484  0.4981  0.5889 -0.0960
  365MOL0     C49194   7.520   9.727   6.456  0.2609  0.2788 -0.3251
  365MOL0     C49195   7.483   9.753   6.586  0.3631 -0.3533  0.2669
  365MOL0     C49196   7.382   9.682   6.652  1.0039 -0.6120 -0.0361
  365MOL0     C49197   7.300   9.582   6.588 -1.0794 -0.6901  0.0657
  365MOL0     O49198   7.184   9.521   6.637 -0.0217 -0.1591 -0.1980
  365MOL0     C49199   7.144   9.546   6.772 -0.2133 -0.1978  0.2584
  365MOL0     C49200   7.032   9.453   6.815  0.2433 -0.1650 -0.2904
  365MOL0     C49201   6.897   9.502   6.759  0.3249  0.6325  0.4120
  365MOL0     C49202   6.781   9.408   6.799 -0.8629 -0.2818 -0.8468
  365MOL0     C49203   6.654   9.429   6.733 -0.4049  0.2201  1.1748
  365MOL0     C49204   6.553   9.438   6.671  0.1510 -0.0294  0.7688
  365MOL0     C49205   7.346   9.551   6.459  0.5816 -0.3295 -0.6172
  365MOL0     C49206   7.449   9.620   6.393 -0.3057  0.4608  0.3931
  365MOL0     C49207   7.465   9.568   6.243  0.1391  0.1194 -0.4169
  365MOL0     H49208   7.637  10.098   6.278 -0.2590 -1.1735 -0.7196
  365MOL0     H49209   7.826  10.263   6.202 -2.6671  0.9201  1.4040
  365MOL0     H49210   8.252  10.227   6.399  0.0299 -1.3782 -0.3513
  365MOL0     H49211   8.211  10.098   6.291  4.1267  0.1298 -0.3512
  365MOL0     H49212   8.207  10.268   6.113  0.9197  1.9647 -1.4679
  365MOL0     H49213   8.363  10.211   6.142  0.7690  3.1289 -1.4391
  365MOL0     H49214   8.253  10.468   6.245 -1.3086 -2.5020 -0.2035
  365MOL0     H49215   8.387  10.436   6.125  3.1544  2.5185  1.5432
  365MOL0     H49216   8.434  10.519   6.354  1.1381 -0.0596  2.3375
  365MOL0     H49217   8.423  10.353   6.414  0.1332 -1.0208 -1.4617
  365MOL0     H49218   8.586  10.280   6.237 -2.3269 -1.1176  1.9729
  365MOL0     H49219   8.602  10.439   6.186  0.2166  0.8117  0.1805
  365MOL0     H49220   8.674  10.517   6.415 -2.8803 -1.0763  1.3200
  365MOL0     H49221   8.658  10.353   6.476 -0.2379 -1.6618 -1.0053
  365MOL0     H49222   8.845  10.277   6.339  3.0499  0.1571 -2.5997
  365MOL0     H49223   8.884  10.430   6.423 -0.6655  0.1000 -0.1671
  365MOL0     H49224   8.838  10.400   6.131 -2.8008  0.2374  0.9529
  365MOL0     H49225   8.825  10.554   6.214 -0.1609 -0.5924  1.1068
  365MOL0     H49226   9.092  10.262   6.168  2.4868  0.2761  1.4144
  365MOL0     H49227   9.337  10.264   6.165 -0.2728  0.8845 -0.0053
  365MOL0     H49228   9.394  10.404   6.073 -0.4412 -1.6410 -1.7293
  365MOL0     H49229   9.508  10.489   6.255 -0.7180  0.0222  0.3300
  365MOL0     H49230   9.427  10.388   6.379 -0.2857  0.8819  0.8971
  365MOL0     H49231   9.551  10.193   6.298  1.3953 -1.9268 -0.5705
  365MOL0     H49232   9.668  10.327   6.314  0.5737 -0.3067 -1.0325
  365MOL0     H49233   9.552  10.223   6.062 -0.6825  0.3288  1.5302
  365MOL0     H49234   9.721  10.194   6.131  2.1472  1.4428  1.4834
  365MOL0     H49235   9.829  10.583   6.001  3.2722 -0.7565  2.9131
  365MOL0     H49236  10.039  10.577   5.840  1.0775 -0.0602  2.6864
  365MOL0     H49237  10.402  10.520   5.703  0.0685  1.6702 -0.0707
  365MOL0     H49238  10.595  10.515   5.552  0.0605  1.6698 -0.8056
  365MOL0     H49239  10.572  10.249   5.259  1.9593 -0.7796 -1.0510
  365MOL0     H49240  10.548  10.342   5.116 -2.8240 -0.2739  1.3437
  365MOL0     H49241  10.749  10.273   5.098  3.1541 -0.0338  0.5941
  365MOL0     H49242  10.761  10.446   5.138  2.8291 -0.1544 -0.7685
  365MOL0     H49243  10.784  10.352   5.378 -1.6258 -2.5885  0.0747
  365MOL0     H49244  10.841  10.201   5.298  2.4081  0.3886  0.4000
  365MOL0     H49245  10.968  10.475   5.263 -0.5963 -0.0362  0.6653
  365MOL0     H49246  11.011  10.337   5.159  1.9450 -0.2411  0.9857
  365MOL0     H49247  11.087  10.208   5.350  0.8678 -0.6712 -0.6731
  365MOL0     H49248  11.041  10.333   5.461 -1.9840  0.4320 -1.4330
  365MOL0     H49249  11.269  10.371   5.254  0.9535 -0.5866  0.6627
  365MOL0     H49250  11.198  10.497   5.351  1.4071  0.0777  2.9779
  365MOL0     H49251  11.324  10.254   5.481 -1.6546  0.5442  0.8809
  365MOL0     H49252  11.260  10.402   5.548  1.0120  0.8458 -0.0130
  365MOL0     H49253  11.490  10.410   5.353  1.9383  0.0123  1.1952
  365MOL0     H49254  11.415  10.541   5.443  2.5031  0.8256 -1.2897
  365MOL0     H49255  10.321  10.394   5.229 -3.3002 -0.8462  0.8064
  365MOL0     H49256  10.138  10.420   5.379  0.1886  0.5258  1.1453
  365MOL0     H49257   9.976  10.168   5.789 -1.3055  0.5681 -1.7978
  365MOL0     H49258   9.751  10.183   5.898  1.6140  0.1122 -0.5713
  365MOL0     H49259   8.072  10.069   6.499 -0.1061 -0.0269 -0.3965
  365MOL0     H49260   7.897   9.925   6.568 -2.7363  2.3496  2.2896
  365MOL0     H49261   7.534   9.829   6.645 -1.0128 -0.5937  1.8365
  365MOL0     H49262   7.363   9.710   6.755  0.3096  3.9700 -1.1682
  365MOL0     H49263   7.108   9.650   6.771 -0.2218 -0.1898 -1.6583
  365MOL0     H49264   7.221   9.532   6.849 -1.7244  1.3451  2.1740
  365MOL0     H49265   7.037   9.455   6.924  1.8424  1.9940 -0.3233
  365MOL0     H49266   7.041   9.351   6.778 -0.8395  0.0904 -1.3646
  365MOL0     H49267   6.905   9.491   6.650  0.2456 -1.5013  0.5748
  365MOL0     H49268   6.882   9.605   6.790  0.6501  1.1867 -1.1646
  365MOL0     H49269   6.816   9.305   6.788 -3.1842 -1.2514  0.0536
  365MOL0     H49270   6.759   9.418   6.906 -1.9271  0.1578 -1.0896
  365MOL0     H49271   6.460   9.448   6.618 -0.7543  2.0108  2.5778
  365MOL0     H49272   7.286   9.478   6.405 -1.4798  0.7615  0.1197
  365MOL0     H49273   7.426   9.467   6.226  2.4241 -0.8263 -0.3987
  365MOL0     H49274   7.404   9.633   6.180  1.4755  0.4163 -1.4511
  365MOL0     H49275   7.569   9.561   6.208  0.2189 -0.8317 -0.0010
  366MOL0     O49276   0.698   1.906   8.757 -0.0377  0.2820  0.5418
  366MOL0     C49277   0.700   1.785   8.724 -0.7471 -0.1992  0.0423
  366MOL0     O49278   0.753   1.740   8.604 -0.1273  0.2889 -0.2739
  366MOL0     C49279   0.858   1.814   8.548 -0.5239  0.0002 -0.1507
  366MOL0     C49280   0.983   1.836   8.620 -0.6751 -0.2189  0.3014
  366MOL0     C49281   1.079   1.912   8.557 -0.8810  0.3712 -0.8793
  366MOL0     C49282   1.060   1.959   8.432 -0.3198 -0.4867  0.7230
  366MOL0     O49283   1.159   2.049   8.383  0.4400  0.0596 -1.2236
  366MOL0     C49284   1.298   2.018   8.404  0.8634 -0.3114  0.3882
  366MOL0     C49285   1.387   2.027   8.278 -0.1487 -1.1159  0.5061
  366MOL0     C49286   1.539   2.011   8.303 -0.4076  0.6665  0.1095
  366MOL0     C49287   1.580   1.868   8.357  0.2394  0.0435  0.0287
  366MOL0     C49288   1.735   1.861   8.378  0.8592 -0.5373  0.6784
  366MOL0     C49289   1.793   1.724   8.402 -0.1704  0.5013 -0.0756
  366MOL0     C49290   1.945   1.716   8.409 -0.1252  0.7090  0.9144
  366MOL0     C49291   2.022   1.829   8.479  0.3890  0.6124 -0.0711
  366MOL0     N49292   2.153   1.784   8.530 -0.7176 -0.0236  0.8463
  366MOL0     C49293   2.177   1.720   8.651 -0.3788  0.8744  0.0885
  366MOL0     C49294   2.308   1.688   8.639 -0.0004 -0.0144  0.5736
  366MOL0     C49295   2.383   1.619   8.750 -0.6779  0.4279  0.2022
  366MOL0     C49296   2.399   1.469   8.729 -0.0430  0.3121  0.4611
  366MOL0     C49297   2.269   1.383   8.735  0.1911  0.1005  0.1484
  366MOL0     C49298   2.294   1.224   8.744 -0.2795 -0.8049  0.6668
  366MOL0     O49299   2.401   1.189   8.833 -0.2931  0.5937 -0.4868
  366MOL0     C49300   2.528   1.166   8.789  0.0721  0.5206 -0.7528
  366MOL0     C49301   2.563   1.154   8.655 -0.1521 -0.1441  0.6720
  366MOL0     C49302   2.692   1.114   8.604 -0.5325 -0.0696 -0.0533
  366MOL0     C49303   2.790   1.076   8.702  0.2132  1.0055 -0.6599
  366MOL0     C49304   2.925   1.059   8.659  0.2075  0.8278  0.0191
  366MOL0     O49305   2.950   1.018   8.535  0.0282  0.0917 -0.8091
  366MOL0     C49306   3.081   0.979   8.510  0.3826  0.1852 -0.1593
  366MOL0     C49307   3.183   1.053   8.450  0.0830  0.0545  0.4583
  366MOL0     C49308   3.318   0.999   8.438  0.7535  0.0025  0.5179
  366MOL0     C49309   3.342   0.870   8.475  0.2197 -0.5955 -0.7071
  366MOL0     O49310   3.452   0.812   8.437 -0.6542  0.0836 -0.4757
  366MOL0     C49311   3.517   0.739   8.540  0.5548  0.0915 -0.3484
  366MOL0     C49312   3.673   0.752   8.536  0.2745 -0.7715  0.2190
  366MOL0     C49313   3.715   0.907   8.542 -0.2903  0.4030  0.0662
  366MOL0     C49314   3.863   0.909   8.502 -0.0549 -0.0693  0.3287
  366MOL0     C49315   3.923   1.041   8.533  0.3133 -0.2908 -0.1273
  366MOL0     C49316   4.076   1.035   8.546 -0.8068 -0.1276  0.1448
  366MOL0     C49317   4.124   1.176   8.525  0.5315  1.0212  0.1216
  366MOL0     C49318   4.277   1.175   8.496  0.0216 -0.1647  0.4890
  366MOL0    Cl49319   4.379   1.140   8.637  0.3211  0.3886  0.4166
  366MOL0     C49320   3.244   0.798   8.533  0.5353  0.2283  0.3351
  366MOL0     C49321   3.114   0.842   8.544  0.0104  0.5006 -0.5781
  366MOL0     O49322   3.006   1.062   8.748  0.8547  0.7777  0.1058
  366MOL0     C49323   2.746   1.081   8.839  0.2057 -0.4198 -0.3049
  366MOL0     C49324   2.618   1.114   8.882  0.4196 -0.6078  0.1324
  366MOL0     N49325   2.364   1.739   8.527 -0.0923  0.4445  1.0453
  366MOL0     N49326   2.268   1.787   8.456  0.5895 -0.6133  0.3366
  366MOL0     C49327   0.940   1.948   8.364  0.4264  0.1107 -0.0394
  366MOL0     C49328   0.840   1.875   8.417 -0.2901  0.0462 -0.6201
  366MOL0     C49329   0.635   1.689   8.808 -0.8771 -0.1468 -0.7247
  366MOL0     C49330   0.600   1.566   8.749 -0.4215 -0.7406 -0.3013
  366MOL0     C49331   0.516   1.476   8.818 -0.3035  0.5580  0.1604
  366MOL0     C49332   0.473   1.499   8.945  0.5067 -0.8672 -0.6891
  366MOL0     O49333   0.376   1.432   9.024 -0.2394 -0.4166 -0.2971
  366MOL0     C49334   0.323   1.306   8.997 -0.0750 -0.4133  0.5596
  366MOL0     C49335   0.175   1.302   9.007  0.5173 -0.7277  0.0917
  366MOL0     C49336   0.120   1.189   8.922 -0.5458  0.6030 -0.7441
  366MOL0     C49337  -0.032   1.187   8.912  0.3239  0.1504 -0.3225
  366MOL0     C49338  -0.057   1.295   8.806  0.3107  0.1163 -0.2667
  366MOL0     C49339  -0.053   1.392   8.726 -0.5783  0.1574  0.0137
  366MOL0     C49340   0.506   1.615   9.002 -0.5278  0.0607  0.1935
  366MOL0     C49341   0.595   1.709   8.944  0.4884  0.4059 -0.5796
  366MOL0     C49342   0.617   1.833   9.019 -0.3683  0.3954  0.6344
  366MOL0     H49343   1.011   1.777   8.706 -0.7020  2.0720  1.9842
  366MOL0     H49344   1.173   1.926   8.608 -0.3711 -0.7818 -1.4828
  366MOL0     H49345   1.331   2.082   8.486 -1.2493 -0.5778  1.5216
  366MOL0     H49346   1.305   1.915   8.441  0.9690 -0.3465  0.2707
  366MOL0     H49347   1.369   2.123   8.229 -1.2588 -0.2465  2.4650
  366MOL0     H49348   1.353   1.948   8.210 -0.2582  0.4170 -1.2935
  366MOL0     H49349   1.570   2.086   8.376  0.3245 -1.6336  2.2921
  366MOL0     H49350   1.594   2.032   8.211  1.1322 -2.2255  0.2610
  366MOL0     H49351   1.513   1.847   8.441 -2.3647  0.2922 -1.8604
  366MOL0     H49352   1.555   1.792   8.283  1.0523  1.3712 -1.6843
  366MOL0     H49353   1.776   1.890   8.281  0.9802 -0.4393  0.7575
  366MOL0     H49354   1.765   1.933   8.455 -1.3284  0.1027  1.0147
  366MOL0     H49355   1.752   1.693   8.499  1.1653  2.7278  1.2994
  366MOL0     H49356   1.756   1.648   8.333  0.7332 -0.3426  0.3519
  366MOL0     H49357   1.979   1.709   8.306 -2.9279 -2.8922 -0.0001
  366MOL0     H49358   1.959   1.625   8.469  0.0028  2.2006  3.2867
  366MOL0     H49359   2.033   1.914   8.411 -1.1063  0.5117 -0.4642
  366MOL0     H49360   1.974   1.862   8.572  1.3645  0.8997  0.3442
  366MOL0     H49361   2.107   1.691   8.729  1.1363 -1.8633  0.5722
  366MOL0     H49362   2.483   1.662   8.754 -0.2845 -0.5089  0.7643
  366MOL0     H49363   2.338   1.640   8.848  1.1905  1.3211  0.9154
  366MOL0     H49364   2.459   1.462   8.638  0.9086  2.4489  0.8712
  366MOL0     H49365   2.463   1.428   8.807 -1.3084 -1.1796  0.7854
  366MOL0     H49366   2.203   1.405   8.651 -2.0358 -1.0993  1.4968
  366MOL0     H49367   2.210   1.421   8.819  0.5390  0.2225  0.3403
  366MOL0     H49368   2.305   1.185   8.642 -3.7609 -4.1176  1.3188
  366MOL0     H49369   2.204   1.178   8.786 -1.6777  0.5240 -0.7362
  366MOL0     H49370   2.494   1.178   8.574 -0.3127  0.3826  0.9586
  366MOL0     H49371   2.719   1.108   8.499 -0.0654 -0.3690  0.0783
  366MOL0     H49372   3.162   1.152   8.413 -0.5772 -0.6191 -1.0740
  366MOL0     H49373   3.387   1.062   8.383 -2.8883  3.1001 -0.9005
  366MOL0     H49374   3.493   0.785   8.637 -0.9967  3.0927 -1.9968
  366MOL0     H49375   3.485   0.634   8.542  2.0875 -0.4032 -0.5879
  366MOL0     H49376   3.715   0.700   8.622  1.3465  1.7054  1.2903
  366MOL0     H49377   3.699   0.700   8.443  1.6493 -3.4896  1.9947
  366MOL0     H49378   3.649   0.968   8.480  2.2449  2.6121 -0.6378
  366MOL0     H49379   3.704   0.937   8.647 -0.2832 -0.2815  0.2673
  366MOL0     H49380   3.876   0.878   8.398 -2.3791 -2.9345  0.7613
  366MOL0     H49381   3.910   0.835   8.567 -0.7369 -3.1535 -2.4663
  366MOL0     H49382   3.879   1.066   8.630  0.8989 -2.0403  0.6377
  366MOL0     H49383   3.892   1.119   8.462  0.1437  1.2002  1.5208
  366MOL0     H49384   4.096   0.993   8.645 -0.3262 -0.3880 -0.0556
  366MOL0     H49385   4.133   0.961   8.489  3.2740 -0.2406  3.7722
  366MOL0     H49386   4.094   1.233   8.614  0.1084 -0.1506  0.7520
  366MOL0     H49387   4.078   1.229   8.441 -0.7978  0.4201  0.4397
  366MOL0     H49388   4.310   1.093   8.433 -0.4421 -0.9719  1.2767
  366MOL0     H49389   4.304   1.277   8.464  0.1744 -0.9379 -2.0567
  366MOL0     H49390   3.260   0.695   8.562 -1.5766 -0.3816 -0.4801
  366MOL0     H49391   3.044   0.768   8.580  3.0625 -1.9160  0.8597
  366MOL0     H49392   2.815   1.064   8.921 -0.7082  0.7247  0.7497
  366MOL0     H49393   2.598   1.109   8.988 -1.0357  0.0818 -0.0910
  366MOL0     H49394   0.946   1.994   8.266  1.5983  2.4577  1.0658
  366MOL0     H49395   0.745   1.862   8.366 -0.9396 -2.5884  1.0240
  366MOL0     H49396   0.616   1.555   8.642 -5.1194  1.2306 -1.4458
  366MOL0     H49397   0.477   1.388   8.767  0.1653  1.1157 -1.2369
  366MOL0     H49398   0.368   1.247   9.077  2.5658  0.6794 -0.0187
  366MOL0     H49399   0.357   1.264   8.902 -3.6538  0.9771 -1.5509
  366MOL0     H49400   0.139   1.394   8.961 -1.3744 -1.0309  0.8791
  366MOL0     H49401   0.139   1.290   9.110 -0.1363 -0.8805 -0.1530
  366MOL0     H49402   0.158   1.096   8.965  3.0730  2.2157 -0.0685
  366MOL0     H49403   0.172   1.189   8.825  1.0355  0.5259  0.0750
  366MOL0     H49404  -0.061   1.090   8.872 -2.2814  0.8277 -0.2656
  366MOL0     H49405  -0.090   1.212   9.002  0.0858 -4.0741  0.9009
  366MOL0     H49406  -0.049   1.475   8.658  1.1545 -2.2413 -3.0626
  366MOL0     H49407   0.471   1.628   9.104  0.6592  0.4817  0.5723
  366MOL0     H49408   0.572   1.919   8.969  1.4272  2.8054  2.8320
  366MOL0     H49409   0.573   1.843   9.119 -3.6596  2.0219 -0.8277
  366MOL0     H49410   0.724   1.853   9.029 -0.0920  0.0420 -1.2852
  367MOL0     O49411   2.487   5.715   6.354  0.4320 -0.1973  0.6015
  367MOL0     C49412   2.472   5.814   6.283  0.0813  0.0311  0.0212
  367MOL0     O49413   2.572   5.892   6.229  0.0065 -0.8532  0.4327
  367MOL0     C49414   2.697   5.875   6.272  0.3588  0.3689 -0.2230
  367MOL0     C49415   2.764   5.760   6.233  0.1833 -0.4012 -0.6416
  367MOL0     C49416   2.904   5.762   6.255 -0.0134  0.6112 -0.9882
  367MOL0     C49417   2.973   5.868   6.317  0.2821 -0.2179 -0.0994
  367MOL0     O49418   3.111   5.844   6.337  0.8459 -0.2903  0.2323
  367MOL0     C49419   3.174   5.942   6.421  0.0189  0.3576 -0.0865
  367MOL0     C49420   3.320   5.895   6.429  1.0659 -0.0770 -0.1871
  367MOL0     C49421   3.418   6.002   6.489  0.3173  0.5643 -0.5772
  367MOL0     C49422   3.556   5.947   6.502 -0.2121 -0.2273 -0.5201
  367MOL0     C49423   3.630   5.998   6.632  0.2635  0.5691  0.0628
  367MOL0     C49424   3.683   6.138   6.614  0.1474 -0.3046  0.0260
  367MOL0     C49425   3.756   6.176   6.745  0.3193 -0.6931  0.0962
  367MOL0     C49426   3.800   6.326   6.738 -0.0058  0.8108  0.0502
  367MOL0     N49427   3.933   6.336   6.681  0.3699  0.7519 -0.1232
  367MOL0     C49428   4.043   6.327   6.757  0.0900 -0.4431  0.4184
  367MOL0     C49429   4.142   6.352   6.666 -0.4720  0.3265 -0.6442
  367MOL0     C49430   4.284   6.377   6.711 -0.4776  0.0342  0.1239
  367MOL0     C49431   4.320   6.518   6.672 -0.9485 -0.1212 -0.5981
  367MOL0     C49432   4.456   6.526   6.610  0.7825  1.0958  0.4156
  367MOL0     C49433   4.577   6.454   6.678 -0.5918  0.6285 -0.4884
  367MOL0     O49434   4.689   6.515   6.616 -0.4373 -0.1298 -0.3041
  367MOL0     C49435   4.806   6.525   6.697  0.8420  0.0197 -0.1892
  367MOL0     C49436   4.868   6.652   6.709 -0.3137  0.2910  0.0989
  367MOL0     C49437   4.996   6.671   6.758  0.5389  0.2244 -0.9933
  367MOL0     C49438   5.057   6.565   6.818 -1.2808 -0.7044 -0.1471
  367MOL0     C49439   5.187   6.595   6.877 -0.0844  0.9873 -0.1300
  367MOL0     O49440   5.233   6.724   6.889  0.4559 -0.2103 -0.6512
  367MOL0     C49441   5.361   6.748   6.947  0.4709  0.3425 -0.4985
  367MOL0     C49442   5.418   6.687   7.060  0.3282 -0.0417 -0.2658
  367MOL0     C49443   5.547   6.710   7.104 -0.3040 -0.1592 -0.6055
  367MOL0     C49444   5.629   6.800   7.024  0.4208  1.0070  0.0931
  367MOL0     O49445   5.751   6.834   7.065  0.9015  0.5711  0.9147
  367MOL0     C49446   5.758   6.862   7.206  0.7133 -0.0746  0.1764
  367MOL0     C49447   5.872   6.966   7.232  0.2774  0.2876  0.9599
  367MOL0     C49448   6.013   6.899   7.214  0.5519 -0.4287 -0.5171
  367MOL0     C49449   6.116   7.016   7.229 -0.1645  0.7877  0.3946
  367MOL0     C49450   6.263   6.971   7.201  0.2332  0.3821  0.0576
  367MOL0     C49451   6.357   7.087   7.219  0.2987  0.3612  0.2026
  367MOL0     C49452   6.493   7.040   7.180  0.4347 -0.5578 -0.1610
  367MOL0     C49453   6.597   7.151   7.206  0.3580 -0.3264  0.6736
  367MOL0    Cl49454   6.751   7.072   7.169 -0.4635 -0.3843  0.5596
  367MOL0     C49455   5.575   6.862   6.915  0.4896 -0.0651  0.2969
  367MOL0     C49456   5.442   6.845   6.877  0.0048  0.2059 -0.1070
  367MOL0     O49457   5.251   6.495   6.913  0.8754 -0.6319  0.2455
  367MOL0     C49458   4.990   6.437   6.826  0.0035 -0.7569  1.0461
  367MOL0     C49459   4.861   6.424   6.770 -0.5092  0.8363  0.0174
  367MOL0     N49460   4.094   6.361   6.535  0.7240 -0.4784  0.1777
  367MOL0     N49461   3.966   6.359   6.548  0.2031 -0.5689  0.6396
  367MOL0     C49462   2.904   5.979   6.361  0.1487  0.3999  0.0674
  367MOL0     C49463   2.760   5.985   6.341  0.0295 -0.3516 -0.1655
  367MOL0     C49464   2.332   5.817   6.222  0.3044 -0.1242 -0.1932
  367MOL0     C49465   2.224   5.779   6.294  0.3437 -0.2961 -0.4245
  367MOL0     C49466   2.093   5.796   6.245  0.4543  0.6013  0.1491
  367MOL0     C49467   2.067   5.822   6.105 -0.4346 -0.2467  0.9153
  367MOL0     O49468   1.946   5.851   6.048  0.0456  0.0597  0.5659
  367MOL0     C49469   1.831   5.804   6.122 -0.2428  0.7265 -0.2996
  367MOL0     C49470   1.711   5.761   6.028  0.2381  0.8657  0.0913
  367MOL0     C49471   1.629   5.657   6.100 -0.0630 -0.1467 -0.4379
  367MOL0     C49472   1.536   5.584   6.005 -1.3636  0.3613  0.2841
  367MOL0     C49473   1.433   5.677   5.945 -0.2596 -0.3708  0.6770
  367MOL0     C49474   1.354   5.755   5.889  0.2840  0.2094 -0.1934
  367MOL0     C49475   2.182   5.851   6.029  0.6444  0.0168  0.1798
  367MOL0     C49476   2.307   5.860   6.087 -0.5948 -0.3470  0.1912
  367MOL0     C49477   2.430   5.873   6.000  0.1973 -0.0065 -0.7445
  367MOL0     H49478   2.716   5.679   6.178 -0.3264  0.8868 -2.1831
  367MOL0     H49479   2.962   5.675   6.226 -0.1353  0.2813 -0.2582
  367MOL0     H49480   3.168   6.039   6.371 -1.0141 -0.3740 -1.4672
  367MOL0     H49481   3.132   5.936   6.521  0.6431  1.3693  0.2530
  367MOL0     H49482   3.361   5.865   6.333  1.6491  4.8192 -1.7063
  367MOL0     H49483   3.322   5.813   6.503  0.8567  0.5942  0.5811
  367MOL0     H49484   3.381   6.034   6.587  0.1983  2.0211 -1.0745
  367MOL0     H49485   3.433   6.093   6.431  1.6559 -1.2642 -3.2914
  367MOL0     H49486   3.544   5.839   6.514 -2.8681  0.2232  2.1540
  367MOL0     H49487   3.612   5.964   6.410 -0.1741 -0.9675 -0.6361
  367MOL0     H49488   3.561   6.004   6.717  0.6238  1.0628  0.3225
  367MOL0     H49489   3.705   5.921   6.650  0.1625  0.6610  0.9480
  367MOL0     H49490   3.747   6.147   6.525 -1.3009  0.1917 -1.0204
  367MOL0     H49491   3.608   6.211   6.579  1.7744  1.5637  0.2400
  367MOL0     H49492   3.848   6.116   6.738 -0.0781 -1.4048  0.8779
  367MOL0     H49493   3.695   6.160   6.834 -1.8470  1.1695 -0.9679
  367MOL0     H49494   3.737   6.378   6.665  0.1071  0.5722 -0.2174
  367MOL0     H49495   3.806   6.367   6.839  1.5048  0.3438  0.1648
  367MOL0     H49496   4.045   6.324   6.866  2.1072 -0.4905  0.4191
  367MOL0     H49497   4.289   6.364   6.820  0.9276  1.2436  0.2463
  367MOL0     H49498   4.354   6.307   6.666 -2.9105 -2.1470 -0.4939
  367MOL0     H49499   4.244   6.555   6.603 -2.7750 -0.5607  1.0622
  367MOL0     H49500   4.316   6.583   6.760  0.2784 -1.1858  0.2925
  367MOL0     H49501   4.460   6.633   6.592  2.2826  0.7096 -2.0388
  367MOL0     H49502   4.437   6.487   6.509 -2.0680  0.5764  1.0592
  367MOL0     H49503   4.575   6.345   6.667  3.6860  0.0300  2.2259
  367MOL0     H49504   4.579   6.461   6.787 -2.0411 -0.7826 -0.3281
  367MOL0     H49505   4.810   6.733   6.665 -0.3860  0.5396  0.6437
  367MOL0     H49506   5.032   6.773   6.758  2.3283 -0.2868  2.0917
  367MOL0     H49507   5.364   6.616   7.121  0.5613 -0.9112 -1.0457
  367MOL0     H49508   5.588   6.659   7.191  1.9480  0.7498 -1.0683
  367MOL0     H49509   5.662   6.906   7.231 -0.1200 -1.9174  0.3503
  367MOL0     H49510   5.774   6.779   7.275 -0.4061 -1.1003 -0.7482
  367MOL0     H49511   5.860   7.051   7.164  1.6192 -0.8512 -0.8121
  367MOL0     H49512   5.856   6.986   7.338  1.0928 -0.1521  1.1740
  367MOL0     H49513   6.016   6.831   7.299 -1.7862  0.7214  0.5617
  367MOL0     H49514   6.019   6.840   7.122 -0.5821 -0.1496 -0.7883
  367MOL0     H49515   6.103   7.063   7.327 -0.6940  1.3249  0.0701
  367MOL0     H49516   6.091   7.083   7.147 -0.7003 -2.5330 -2.3980
  367MOL0     H49517   6.282   6.939   7.098 -0.9352  0.2809 -0.1431
  367MOL0     H49518   6.281   6.884   7.265 -1.8990  0.3389  0.6797
  367MOL0     H49519   6.316   7.162   7.151 -1.8831  1.0561  2.1438
  367MOL0     H49520   6.361   7.119   7.323  3.6890 -0.1562  0.3343
  367MOL0     H49521   6.496   7.009   7.075  2.9861 -6.2389  1.2202
  367MOL0     H49522   6.516   6.957   7.247 -2.7808  0.0723  1.9429
  367MOL0     H49523   6.577   7.227   7.130  0.0088  0.4707  1.5435
  367MOL0     H49524   6.604   7.192   7.307  0.6772 -3.9493  2.2771
  367MOL0     H49525   5.631   6.938   6.861 -0.9309 -0.7364 -2.3380
  367MOL0     H49526   5.410   6.908   6.795  0.8491  1.0519  0.1965
  367MOL0     H49527   5.029   6.360   6.892 -2.6350 -1.7417  1.5651
  367MOL0     H49528   4.828   6.321   6.767  0.1397  0.5793  1.0241
  367MOL0     H49529   2.934   6.063   6.422  1.5240 -0.7326  1.0235
  367MOL0     H49530   2.699   6.069   6.370  1.0468  0.6216 -0.7662
  367MOL0     H49531   2.242   5.754   6.398 -2.1419  1.0180  0.3899
  367MOL0     H49532   2.014   5.791   6.320  0.5349  2.7840  0.4292
  367MOL0     H49533   1.791   5.890   6.176  1.9517  0.0838  2.6200
  367MOL0     H49534   1.856   5.718   6.184  0.1858 -1.0171 -2.7518
  367MOL0     H49535   1.737   5.723   5.929  1.4913 -1.0885  1.1220
  367MOL0     H49536   1.643   5.843   6.004  0.7355  0.3301 -3.8467
  367MOL0     H49537   1.571   5.703   6.181  1.8106  0.1505  0.7940
  367MOL0     H49538   1.694   5.577   6.137 -0.0499 -2.0824 -4.1583
  367MOL0     H49539   1.586   5.555   5.912 -2.0648  1.4160 -0.4507
  367MOL0     H49540   1.487   5.502   6.057 -1.7330  0.3174 -0.1234
  367MOL0     H49541   1.276   5.807   5.837  0.5024 -0.0468 -0.7833
  367MOL0     H49542   2.159   5.886   5.928 -2.3834 -2.6737 -0.2524
  367MOL0     H49543   2.489   5.785   6.029 -2.3049 -2.3021 -2.0981
  367MOL0     H49544   2.411   5.869   5.893  2.5473  1.1591 -1.2689
  367MOL0     H49545   2.479   5.968   6.020 -0.3378  0.2224 -0.4873
  368MOL0     O49546   4.870  10.124   2.826 -0.5208  0.0450 -0.7483
  368MOL0     C49547   4.829  10.238   2.817  0.0700 -0.7468  0.6978
  368MOL0     O49548   4.894  10.343   2.764  0.2693 -0.3101  0.0180
  368MOL0     C49549   5.027  10.326   2.725 -0.6606 -0.0663 -0.1624
  368MOL0     C49550   5.129  10.329   2.825 -0.0657 -0.3422  0.5924
  368MOL0     C49551   5.266  10.318   2.782  0.6639 -0.5438 -0.8033
  368MOL0     C49552   5.309  10.311   2.647 -0.0354 -0.0161  0.7332
  368MOL0     O49553   5.438  10.312   2.589  0.1232 -0.8087 -0.2484
  368MOL0     C49554   5.552  10.293   2.679  1.1272  0.1611  0.0077
  368MOL0     C49555   5.678  10.252   2.606  0.4182  0.0441  0.4141
  368MOL0     C49556   5.746  10.365   2.521  0.2970 -0.6152  0.0265
  368MOL0     C49557   5.879  10.306   2.461  0.8568  0.7803 -0.1191
  368MOL0     C49558   5.968  10.429   2.420  0.8310 -0.5446  0.8999
  368MOL0     C49559   6.102  10.380   2.361 -0.4054 -0.1564  0.2231
  368MOL0     C49560   6.182  10.255   2.408  0.0650 -0.3789  0.2107
  368MOL0     C49561   6.219  10.254   2.565 -0.1711 -0.2350 -0.0870
  368MOL0     N49562   6.287  10.374   2.607 -0.3372  0.1440  0.2789
  368MOL0     C49563   6.410  10.425   2.567 -0.1824 -0.3464 -1.0537
  368MOL0     C49564   6.447  10.504   2.670 -0.0138  0.2134  0.0444
  368MOL0     C49565   6.579  10.588   2.675  0.5626 -0.8632 -0.1881
  368MOL0     C49566   6.682  10.498   2.739 -0.5710 -0.6195  0.1063
  368MOL0     C49567   6.730  10.384   2.651 -0.3344 -0.0893 -0.0427
  368MOL0     C49568   6.781  10.419   2.514  1.1140 -0.1103 -0.2228
  368MOL0     O49569   6.869  10.534   2.507  0.6308 -0.2875  0.3886
  368MOL0     C49570   7.002  10.511   2.532 -0.4187  0.3536 -0.4993
  368MOL0     C49571   7.071  10.393   2.546 -0.4915 -0.0853 -0.3930
  368MOL0     C49572   7.209  10.387   2.574 -0.2870  0.1220  0.5167
  368MOL0     C49573   7.278  10.507   2.595 -0.0808 -0.6270 -0.2956
  368MOL0     C49574   7.422  10.505   2.618  0.0025  0.1527 -0.8200
  368MOL0     O49575   7.490  10.377   2.620 -0.0373 -0.3403 -0.1368
  368MOL0     C49576   7.629  10.372   2.595  0.1964 -0.7031  0.2182
  368MOL0     C49577   7.703  10.281   2.669  0.7609 -0.4607 -0.3037
  368MOL0     C49578   7.845  10.277   2.645  1.1621 -0.2433  0.1210
  368MOL0     C49579   7.899  10.361   2.551 -0.3566 -0.4126 -1.4160
  368MOL0     O49580   8.030  10.332   2.504 -0.1054  0.2436  0.5864
  368MOL0     C49581   8.134  10.326   2.599  0.5483  0.6187  0.4331
  368MOL0     C49582   8.245  10.427   2.555 -0.2444 -0.5387  0.1085
  368MOL0     C49583   8.189  10.565   2.580  0.5794  0.2913  0.9147
  368MOL0     C49584   8.249  10.662   2.474 -0.1160 -0.2345  0.8216
  368MOL0     C49585   8.201  10.804   2.507  0.0884  0.6325 -0.0060
  368MOL0     C49586   8.245  10.898   2.391 -0.4542 -0.0742 -0.3629
  368MOL0     C49587   8.195  11.040   2.423 -0.2131 -0.2673  0.2705
  368MOL0     C49588   8.056  11.078   2.356 -0.3756  0.8834  0.0677
  368MOL0    Cl49589   8.090  11.153   2.197  0.1209  0.3849  0.3318
  368MOL0     C49590   7.821  10.452   2.486 -0.4352  0.3634 -0.0553
  368MOL0     C49591   7.683  10.458   2.503 -0.5398  0.2658 -0.1783
  368MOL0     O49592   7.484  10.610   2.631  0.6673  0.2166 -0.0096
  368MOL0     C49593   7.208  10.628   2.577 -0.2010  0.7053  0.3979
  368MOL0     C49594   7.077  10.629   2.552  0.9821  0.8327  0.4925
  368MOL0     N49595   6.336  10.518   2.755  0.2974 -0.0187  0.3834
  368MOL0     N49596   6.244  10.437   2.727 -0.0952  0.9513  0.9507
  368MOL0     C49597   5.196  10.323   2.554 -0.1193  0.9813  0.2240
  368MOL0     C49598   5.058  10.311   2.589  0.0214  0.1276  0.6219
  368MOL0     C49599   4.692  10.255   2.855  0.3093  0.5022  0.4736
  368MOL0     C49600   4.595  10.142   2.862 -1.3034 -0.5177 -0.0684
  368MOL0     C49601   4.469  10.161   2.894 -0.3991 -0.3163  0.4378
  368MOL0     C49602   4.415  10.288   2.937 -0.0569  0.2495 -0.7381
  368MOL0     O49603   4.286  10.274   2.975 -0.1543  0.3482  0.4987
  368MOL0     C49604   4.214  10.400   2.998  0.4000 -0.6659 -0.1058
  368MOL0     C49605   4.101  10.375   3.101  0.0877  0.1446 -0.0659
  368MOL0     C49606   4.012  10.245   3.081 -0.4170  0.1522 -0.1002
  368MOL0     C49607   3.889  10.250   3.179 -0.3387  0.2380  0.1456
  368MOL0     C49608   3.931  10.222   3.319 -0.2243  0.0716  0.7127
  368MOL0     C49609   3.986  10.205   3.420 -0.5014 -0.2612 -0.3430
  368MOL0     C49610   4.502  10.402   2.929  0.1162 -0.3242  0.1022
  368MOL0     C49611   4.638  10.388   2.885  0.3841 -0.4054 -0.3600
  368MOL0     C49612   4.711  10.512   2.879 -0.3294  0.8791 -0.9189
  368MOL0     H49613   5.106  10.336   2.931 -4.0189 -0.8204 -0.0855
  368MOL0     H49614   5.337  10.294   2.860 -1.8004  1.7435  2.4790
  368MOL0     H49615   5.564  10.387   2.735 -0.6572  0.5829 -0.2780
  368MOL0     H49616   5.526  10.214   2.749  0.8075  0.7367  0.5433
  368MOL0     H49617   5.651  10.166   2.544  1.7299  1.6959 -2.6777
  368MOL0     H49618   5.761  10.229   2.672  2.8690 -0.2945 -2.5735
  368MOL0     H49619   5.761  10.454   2.583 -1.7473  1.2972 -2.0245
  368MOL0     H49620   5.677  10.398   2.443  1.1364  0.8844 -0.1228
  368MOL0     H49621   5.933  10.239   2.528 -1.0668  1.6181  2.4449
  368MOL0     H49622   5.853  10.249   2.372  1.5126  0.0540  0.1489
  368MOL0     H49623   5.915  10.494   2.350 -0.8490 -1.8345  0.8821
  368MOL0     H49624   5.993  10.477   2.515 -1.2361  0.3920  1.0432
  368MOL0     H49625   6.071  10.357   2.259  2.8708 -0.2395 -0.8695
  368MOL0     H49626   6.169  10.466   2.367 -0.6935  0.0448  0.5477
  368MOL0     H49627   6.276  10.263   2.352  0.7365 -1.8187  1.0802
  368MOL0     H49628   6.146  10.159   2.372  0.7255 -0.2212 -0.9200
  368MOL0     H49629   6.123  10.244   2.616  0.2980 -1.0250  0.6755
  368MOL0     H49630   6.276  10.168   2.602  1.4685  0.9345  0.2180
  368MOL0     H49631   6.452  10.395   2.471 -0.1931  1.9924 -1.8508
  368MOL0     H49632   6.600  10.620   2.572  0.7798  0.0929  0.1430
  368MOL0     H49633   6.584  10.678   2.737  1.0754 -1.5558  0.8037
  368MOL0     H49634   6.768  10.561   2.764 -2.3075  2.7227 -1.6100
  368MOL0     H49635   6.651  10.448   2.832 -0.2433  1.3171  1.3260
  368MOL0     H49636   6.654  10.306   2.645  1.0379 -1.4077 -3.0418
  368MOL0     H49637   6.819  10.339   2.696  0.3933  0.5731 -0.7775
  368MOL0     H49638   6.696  10.448   2.452 -1.4971 -3.6175  1.4218
  368MOL0     H49639   6.824  10.329   2.469 -0.9920 -1.8993  1.1539
  368MOL0     H49640   7.019  10.301   2.522  0.4481 -0.6750 -0.2074
  368MOL0     H49641   7.261  10.292   2.577 -1.1113 -0.4063 -0.7199
  368MOL0     H49642   7.656  10.229   2.751 -1.8968  1.2680 -0.5866
  368MOL0     H49643   7.907  10.211   2.705  1.3584  0.6041  0.8760
  368MOL0     H49644   8.102  10.342   2.702  0.3870 -1.0975  0.6800
  368MOL0     H49645   8.184  10.228   2.593  1.2301  0.9681  0.3282
  368MOL0     H49646   8.344  10.428   2.601  0.6724  1.5083 -1.7300
  368MOL0     H49647   8.259  10.417   2.447  0.3427 -1.6134  0.2692
  368MOL0     H49648   8.083  10.553   2.557  0.2355 -3.5603  3.5768
  368MOL0     H49649   8.192  10.607   2.681 -2.9930  0.2053  1.1926
  368MOL0     H49650   8.203  10.632   2.379 -0.2355  2.0887  0.0972
  368MOL0     H49651   8.358  10.665   2.476  0.1025 -2.4536 -1.7635
  368MOL0     H49652   8.255  10.838   2.596  0.4606 -1.0212  0.4274
  368MOL0     H49653   8.095  10.804   2.533 -0.5202  0.0553 -2.2197
  368MOL0     H49654   8.354  10.901   2.393 -0.4784  0.4846  1.5520
  368MOL0     H49655   8.206  10.858   2.297 -1.0398  0.2192 -0.2549
  368MOL0     H49656   8.267  11.108   2.377 -0.0381 -2.3121 -2.8673
  368MOL0     H49657   8.191  11.048   2.532 -1.3934 -0.4800  0.2543
  368MOL0     H49658   8.002  10.984   2.342  1.1104 -0.5672  3.2609
  368MOL0     H49659   8.014  11.146   2.431 -1.0039  1.1133 -0.4761
  368MOL0     H49660   7.864  10.518   2.411 -1.3672 -0.4394 -1.3313
  368MOL0     H49661   7.628  10.527   2.441  0.3071 -0.0950 -1.3656
  368MOL0     H49662   7.245  10.730   2.582 -0.9226  0.9606  0.6611
  368MOL0     H49663   7.026  10.725   2.559  1.8854  1.2470  1.7307
  368MOL0     H49664   5.218  10.321   2.448  3.2520 -1.4243  0.7769
  368MOL0     H49665   4.973  10.314   2.522  1.5232  1.5149 -1.3333
  368MOL0     H49666   4.638  10.047   2.833  2.4304  1.0227 -0.1570
  368MOL0     H49667   4.400  10.077   2.895 -0.4712 -0.2820 -0.7393
  368MOL0     H49668   4.164  10.425   2.904 -1.6849 -1.0169  0.8515
  368MOL0     H49669   4.277  10.486   3.020  0.5626 -0.7471 -0.2497
  368MOL0     H49670   4.038  10.464   3.089 -0.3002 -0.2212 -0.8019
  368MOL0     H49671   4.131  10.368   3.206  1.8557 -2.7902 -0.6705
  368MOL0     H49672   4.066  10.153   3.107 -2.8176 -0.8682  1.6581
  368MOL0     H49673   3.975  10.237   2.979  2.0841  3.3879 -1.4174
  368MOL0     H49674   3.851  10.352   3.163  0.9367  1.0751  2.0880
  368MOL0     H49675   3.821  10.169   3.154 -1.3993  0.7021  1.4272
  368MOL0     H49676   4.049  10.195   3.506 -0.0903  3.1150 -0.1345
  368MOL0     H49677   4.480  10.503   2.960 -0.3116  0.5188 -2.7059
  368MOL0     H49678   4.665  10.594   2.935 -0.8706  0.4588 -0.7336
  368MOL0     H49679   4.817  10.504   2.906  0.4192 -2.5163 -4.1371
  368MOL0     H49680   4.700  10.535   2.773  1.0949  0.1406 -1.2587
  369MOL0     O49681   4.927  11.239   9.467 -0.7121  0.5357  0.4352
  369MOL0     C49682   4.883  11.250   9.581 -0.1939  0.3374 -0.4964
  369MOL0     O49683   4.954  11.253   9.699 -0.6937 -0.0320  0.2740
  369MOL0     C49684   5.089  11.258   9.720 -0.5232  0.4601 -0.5273
  369MOL0     C49685   5.188  11.228   9.620  1.7243  0.3118 -0.5143
  369MOL0     C49686   5.324  11.234   9.650 -0.7775  0.1537  0.0744
  369MOL0     C49687   5.356  11.266   9.780 -0.2428  0.1549 -0.2107
  369MOL0     O49688   5.485  11.274   9.831  0.1581 -0.0526 -0.6663
  369MOL0     C49689   5.592  11.236   9.750 -0.4504 -0.4868  1.2373
  369MOL0     C49690   5.704  11.173   9.837  0.3016  0.1184  0.0966
  369MOL0     C49691   5.658  11.095   9.964 -0.2453  0.4207  0.3337
  369MOL0     C49692   5.614  10.962   9.920  0.1313  0.2570  0.1432
  369MOL0     C49693   5.518  10.902  10.026 -0.6246 -0.3332  0.1669
  369MOL0     C49694   5.462  10.758   9.995 -0.4867 -0.5891 -0.7580
  369MOL0     C49695   5.569  10.654   9.958 -0.0761  0.7727  0.2710
  369MOL0     C49696   5.519  10.513   9.946 -0.1110 -0.0490  0.5121
  369MOL0     N49697   5.629  10.427   9.942  0.1502 -0.0287 -0.1666
  369MOL0     C49698   5.698  10.388  10.054 -0.2636 -0.1052 -0.6511
  369MOL0     C49699   5.801  10.311  10.006 -0.0025 -0.4826  0.6023
  369MOL0     C49700   5.914  10.255  10.076 -0.9458 -0.4617 -0.1678
  369MOL0     C49701   6.032  10.219   9.981 -0.2799  0.1920 -0.4857
  369MOL0     C49702   6.137  10.139  10.061 -0.2680 -0.3644  0.0623
  369MOL0     C49703   6.263  10.105   9.983  0.3796 -0.1207  0.4765
  369MOL0     O49704   6.385  10.138  10.049  0.5815  0.1580  0.1851
  369MOL0     C49705   6.462  10.039  10.107  0.4752 -0.0753 -0.7672
  369MOL0     C49706   6.400   9.932  10.178 -0.0331 -0.9467  0.6340
  369MOL0     C49707   6.482   9.841  10.247 -0.4037 -0.2462 -0.0081
  369MOL0     C49708   6.620   9.863  10.259  0.3015  0.6787  0.5662
  369MOL0     C49709   6.700   9.772  10.342 -0.5356  0.2401 -0.4293
  369MOL0     O49710   6.828   9.808  10.367 -0.2571  0.0421  0.4485
  369MOL0     C49711   6.904   9.752  10.468 -0.5445 -0.6422 -0.2915
  369MOL0     C49712   6.981   9.833  10.557 -0.4171 -0.3963  0.2827
  369MOL0     C49713   7.077   9.780  10.648  0.0501 -0.3657 -0.5788
  369MOL0     C49714   7.088   9.638  10.645 -0.6028 -0.6128 -0.4366
  369MOL0     O49715   7.173   9.572  10.729  0.3651  0.1882 -1.1008
  369MOL0     C49716   7.285   9.640  10.796  0.2992  0.1976 -0.2156
  369MOL0     C49717   7.396   9.536  10.823  0.3260  0.1162 -0.1740
  369MOL0     C49718   7.517   9.588  10.893 -0.1288 -0.9448  0.2509
  369MOL0     C49719   7.494   9.701  10.997  0.1170 -0.1294  0.5846
  369MOL0     C49720   7.633   9.729  11.061  0.4858  0.7300 -0.2566
  369MOL0     C49721   7.602   9.819  11.179 -0.0600 -0.2075  1.1286
  369MOL0     C49722   7.730   9.884  11.235 -0.4574 -0.6619  0.1483
  369MOL0     C49723   7.804   9.989  11.152  0.6263 -0.0569  0.7542
  369MOL0    Cl49724   7.709  10.145  11.142  0.0147  0.0689 -0.2983
  369MOL0     C49725   7.005   9.564  10.568 -0.3003 -0.7632  0.0426
  369MOL0     C49726   6.918   9.617  10.476 -0.1183 -0.5108  0.5583
  369MOL0     O49727   6.647   9.674  10.401 -0.1278  0.1961 -0.4821
  369MOL0     C49728   6.679   9.962  10.186 -0.4953  0.0179 -1.6586
  369MOL0     C49729   6.598  10.052  10.118 -0.7085  1.1897  0.8363
  369MOL0     N49730   5.787  10.296   9.873  0.3629 -0.4970 -0.4730
  369MOL0     N49731   5.682  10.359   9.835  0.5925  0.2306  0.7551
  369MOL0     C49732   5.254  11.285   9.880 -0.2258 -0.2180  0.8892
  369MOL0     C49733   5.123  11.283   9.851  0.4163 -0.3000  1.4369
  369MOL0     C49734   4.737  11.246   9.599  0.9891 -1.2037 -0.3021
  369MOL0     C49735   4.691  11.234   9.729  0.4463  0.0228 -0.8164
  369MOL0     C49736   4.556  11.242   9.766  0.4115 -0.0478  0.2753
  369MOL0     C49737   4.462  11.253   9.663 -0.3054  0.2263  0.2218
  369MOL0     O49738   4.327  11.277   9.700 -0.0486  0.5199  0.5169
  369MOL0     C49739   4.220  11.296   9.608  0.0801  0.2250  0.1668
  369MOL0     C49740   4.111  11.201   9.665  0.0960 -0.1763  0.3844
  369MOL0     C49741   3.980  11.208   9.585 -0.4618  0.2201 -0.3202
  369MOL0     C49742   3.980  11.127   9.454  0.1412 -0.8418 -0.0254
  369MOL0     C49743   4.038  11.185   9.338 -0.3368  0.0791  0.6546
  369MOL0     C49744   4.091  11.254   9.246  0.5360  0.2085 -0.3919
  369MOL0     C49745   4.506  11.268   9.531  0.0047  0.3519  0.0608
  369MOL0     C49746   4.641  11.257   9.499  0.7360  0.2513  0.1608
  369MOL0     C49747   4.675  11.230   9.348  0.4774 -0.0198 -0.0031
  369MOL0     H49748   5.146  11.216   9.520 -0.2497  0.3063  0.2751
  369MOL0     H49749   5.400  11.232   9.573 -1.5582  4.0637 -1.0282
  369MOL0     H49750   5.565  11.153   9.684 -0.5141 -0.5025  1.2829
  369MOL0     H49751   5.626  11.315   9.683  0.3240 -2.3408 -0.6707
  369MOL0     H49752   5.767  11.261   9.857  0.0789  0.6161 -1.2769
  369MOL0     H49753   5.766  11.107   9.776  3.2339  1.2605  1.5731
  369MOL0     H49754   5.576  11.150  10.011 -0.5473  0.8602 -0.6677
  369MOL0     H49755   5.746  11.088  10.029  0.6920 -1.9747 -1.0598
  369MOL0     H49756   5.566  10.957   9.822  0.6250 -0.9977 -0.0587
  369MOL0     H49757   5.701  10.896   9.913  0.1349  0.2074  0.5817
  369MOL0     H49758   5.567  10.904  10.124  0.8673 -1.0349 -0.5198
  369MOL0     H49759   5.430  10.965  10.037 -0.8684 -0.6547  0.0585
  369MOL0     H49760   5.406  10.730  10.085  2.2169  1.1427  1.6603
  369MOL0     H49761   5.402  10.764   9.904 -0.0943  3.4245 -0.9345
  369MOL0     H49762   5.640  10.656  10.041 -0.7821 -0.4343  0.9284
  369MOL0     H49763   5.608  10.690   9.862 -1.6830  3.8827  0.6494
  369MOL0     H49764   5.450  10.495  10.029 -1.1654 -1.2377 -0.5764
  369MOL0     H49765   5.448  10.507   9.863  1.1183  0.0386 -0.5942
  369MOL0     H49766   5.679  10.391  10.161 -0.5926 -0.6716 -0.6903
  369MOL0     H49767   5.955  10.330  10.145  1.1496  0.6231 -2.4274
  369MOL0     H49768   5.883  10.175  10.143  0.7573  0.5779  1.9985
  369MOL0     H49769   5.998  10.158   9.897 -0.0518 -2.7110  1.3768
  369MOL0     H49770   6.078  10.308   9.936  3.6255 -1.1746  0.4469
  369MOL0     H49771   6.091  10.049  10.103 -1.1214  0.4202  0.8488
  369MOL0     H49772   6.154  10.191  10.156 -1.2149  0.8901 -0.4237
  369MOL0     H49773   6.256  10.151   9.884  1.0604  3.4353  1.9283
  369MOL0     H49774   6.256   9.996   9.971 -0.4030 -0.4309  3.0345
  369MOL0     H49775   6.292   9.921  10.174 -0.2241  0.6337  0.6501
  369MOL0     H49776   6.431   9.758  10.294  1.6708 -2.0866 -0.7946
  369MOL0     H49777   6.968   9.941  10.556 -1.2056 -0.4670  1.2972
  369MOL0     H49778   7.127   9.844  10.719  0.0535  0.9097 -1.6879
  369MOL0     H49779   7.329   9.715  10.729  1.1029 -1.6131 -1.8101
  369MOL0     H49780   7.252   9.693  10.886 -0.3427  0.4667 -0.6007
  369MOL0     H49781   7.368   9.448  10.881  0.8915 -2.6606 -3.7013
  369MOL0     H49782   7.422   9.496  10.724 -0.3048  0.4142 -0.4708
  369MOL0     H49783   7.579   9.518  10.950  3.6072  4.0873  3.3189
  369MOL0     H49784   7.570   9.637  10.811  1.4643 -2.0955  0.5506
  369MOL0     H49785   7.419   9.669  11.070 -1.0267 -1.5602 -1.1328
  369MOL0     H49786   7.452   9.793  10.955 -1.1708  0.6440  3.3520
  369MOL0     H49787   7.702   9.771  10.988 -0.6842 -0.2405 -1.9733
  369MOL0     H49788   7.680   9.640  11.104 -1.9376  0.1025  1.2751
  369MOL0     H49789   7.534   9.900  11.151  1.6677  0.7045 -0.7402
  369MOL0     H49790   7.545   9.766  11.256 -1.3849  2.3562  2.0304
  369MOL0     H49791   7.801   9.806  11.267 -1.7093 -1.7697  0.3065
  369MOL0     H49792   7.708   9.938  11.327 -2.0493  0.7979 -1.0444
  369MOL0     H49793   7.899  10.005  11.204  0.6486  1.5916  0.2495
  369MOL0     H49794   7.818   9.959  11.047 -0.6471 -0.7646  0.7616
  369MOL0     H49795   6.998   9.457  10.582  0.1709 -0.8820 -0.6182
  369MOL0     H49796   6.873   9.550  10.403  0.8662  0.3873 -0.9288
  369MOL0     H49797   6.786   9.977  10.188 -0.0542 -2.4333 -2.8347
  369MOL0     H49798   6.639  10.127  10.052  3.2940 -0.8241  0.7089
  369MOL0     H49799   5.271  11.307   9.985 -0.3356 -0.5953  0.9872
  369MOL0     H49800   5.036  11.298   9.915 -1.2733  1.7461 -1.1002
  369MOL0     H49801   4.750  11.231   9.820  0.8293  0.2212 -1.0571
  369MOL0     H49802   4.529  11.245   9.871 -1.8784  3.3560 -0.2698
  369MOL0     H49803   4.242  11.278   9.502  0.2068  1.6819 -0.0846
  369MOL0     H49804   4.175  11.396   9.615 -0.4121  0.0977 -0.9243
  369MOL0     H49805   4.079  11.250   9.758 -0.8082  3.5745 -1.6798
  369MOL0     H49806   4.157  11.103   9.678  1.5998  0.4149 -0.3628
  369MOL0     H49807   3.945  11.309   9.563  0.8211  0.7584  0.0561
  369MOL0     H49808   3.897  11.163   9.641 -2.1103  1.4169 -1.6942
  369MOL0     H49809   4.019  11.026   9.472 -0.0562 -1.5014 -2.8457
  369MOL0     H49810   3.873  11.125   9.432  0.0432  2.6398 -0.4319
  369MOL0     H49811   4.137  11.317   9.172 -2.2857  1.2922 -1.3454
  369MOL0     H49812   4.435  11.288   9.451  1.3358 -0.0335 -1.2664
  369MOL0     H49813   4.580  11.262   9.304 -0.1046  1.3413  2.1254
  369MOL0     H49814   4.753  11.292   9.303 -0.7177  1.4481 -0.1354
  369MOL0     H49815   4.686  11.122   9.334 -1.6168 -0.3709  0.7437
  370MOL0     O49816   8.255   8.882   4.863  0.5717  0.1062 -0.2725
  370MOL0     C49817   8.172   8.836   4.937  0.3161 -0.3995 -0.0439
  370MOL0     O49818   8.202   8.755   5.042  0.4301  0.3533  0.0790
  370MOL0     C49819   8.327   8.706   5.046  0.0727 -0.2180  0.5355
  370MOL0     C49820   8.341   8.573   5.027 -0.2856 -0.2720 -0.5346
  370MOL0     C49821   8.468   8.511   5.030  0.4431 -0.7727 -0.0386
  370MOL0     C49822   8.571   8.590   5.061  0.3379 -0.3689  0.4504
  370MOL0     O49823   8.703   8.542   5.079 -0.1691 -0.0682 -0.2076
  370MOL0     C49824   8.745   8.406   5.061  0.0544 -0.0641 -0.0467
  370MOL0     C49825   8.894   8.380   5.089 -0.2106 -0.0776 -0.0412
  370MOL0     C49826   8.945   8.239   5.056  0.1375 -0.6212 -0.4642
  370MOL0     C49827   9.094   8.246   5.040 -0.1124  0.2364  0.8087
  370MOL0     C49828   9.147   8.110   5.002  0.3145  0.4571  0.1038
  370MOL0     C49829   9.305   8.108   4.990  1.1372 -0.3901  0.6622
  370MOL0     C49830   9.369   7.962   4.985 -0.8884  0.2566  0.8496
  370MOL0     C49831   9.324   7.873   4.860  0.3757 -0.1064 -0.7210
  370MOL0     N49832   9.392   7.742   4.856  0.3089 -0.2921  0.6389
  370MOL0     C49833   9.512   7.720   4.805  0.0518 -0.5994  0.0330
  370MOL0     C49834   9.526   7.586   4.811  0.1847 -0.0192  0.3150
  370MOL0     C49835   9.644   7.517   4.757  0.0038 -0.1653 -0.1132
  370MOL0     C49836   9.677   7.376   4.828  0.1235 -0.5648 -0.5322
  370MOL0     C49837   9.717   7.395   4.982  0.6209  0.7440 -0.4761
  370MOL0     C49838   9.731   7.258   5.058 -0.1431  0.6958  0.7562
  370MOL0     O49839   9.788   7.152   4.972  0.2619 -0.0188 -0.2645
  370MOL0     C49840   9.915   7.162   4.931 -0.8902  0.4562 -1.6373
  370MOL0     C49841   9.940   7.112   4.804 -0.4811 -0.2797 -0.3619
  370MOL0     C49842  10.068   7.120   4.747  1.0011  0.3437  0.4114
  370MOL0     C49843  10.177   7.169   4.824  0.2379 -0.2185 -0.2725
  370MOL0     C49844  10.317   7.170   4.770  0.1473  0.7094  1.2161
  370MOL0     O49845  10.407   7.204   4.862  0.3084 -0.1631 -0.3119
  370MOL0     C49846  10.528   7.247   4.831 -0.1455 -0.2718  0.0768
  370MOL0     C49847  10.626   7.216   4.921  0.9958  0.0058  0.0695
  370MOL0     C49848  10.757   7.263   4.902 -0.2877 -0.5052 -0.9933
  370MOL0     C49849  10.788   7.366   4.814 -0.1539 -0.5217 -0.8121
  370MOL0     O49850  10.908   7.432   4.788 -0.2030  0.0747 -0.2516
  370MOL0     C49851  11.022   7.376   4.852  0.3225 -0.3846  0.0128
  370MOL0     C49852  11.140   7.463   4.823 -0.8134 -0.7817  0.0821
  370MOL0     C49853  11.270   7.407   4.867 -0.5711 -0.5942 -0.4019
  370MOL0     C49854  11.380   7.517   4.855 -1.2866 -0.0052 -0.4649
  370MOL0     C49855  11.515   7.466   4.920 -0.1703 -0.4305  0.2894
  370MOL0     C49856  11.606   7.590   4.942 -1.0762 -0.4932 -0.2304
  370MOL0     C49857  11.750   7.549   4.996  0.3594 -0.7734 -0.6444
  370MOL0     C49858  11.836   7.666   5.025  0.4018 -0.1793  0.3062
  370MOL0    Cl49859  11.866   7.768   4.882 -0.2519  0.1431  0.0678
  370MOL0     C49860  10.692   7.398   4.719 -0.4469 -0.1813  0.3768
  370MOL0     C49861  10.560   7.338   4.726  0.3873  0.7175  0.6445
  370MOL0     O49862  10.337   7.172   4.646  0.3844 -0.2935 -0.4503
  370MOL0     C49863  10.148   7.223   4.953 -1.4288 -0.9774 -0.3687
  370MOL0     C49864  10.017   7.230   5.005  0.0035  0.5737  0.1396
  370MOL0     N49865   9.409   7.529   4.866 -0.7437 -0.2778  0.5947
  370MOL0     N49866   9.328   7.627   4.888  0.0018 -0.6914 -0.1335
  370MOL0     C49867   8.554   8.730   5.096 -0.3420 -0.4452 -0.4020
  370MOL0     C49868   8.432   8.791   5.086  0.4120  0.5016  0.1804
  370MOL0     C49869   8.032   8.864   4.897  0.0744  0.0941 -0.1375
  370MOL0     C49870   7.991   8.986   4.835  0.1125 -0.0510 -1.4790
  370MOL0     C49871   7.856   9.028   4.825  0.1268  0.5781 -0.2879
  370MOL0     C49872   7.758   8.939   4.861  0.5713 -0.4817  0.4139
  370MOL0     O49873   7.625   8.978   4.839 -0.2355  0.1344 -0.4452
  370MOL0     C49874   7.581   8.919   4.715  0.7316  0.4455  0.2098
  370MOL0     C49875   7.439   8.965   4.684  0.1361 -0.2400 -0.6133
  370MOL0     C49876   7.433   9.112   4.640  0.3696 -0.1293 -0.6369
  370MOL0     C49877   7.466   9.151   4.491  0.3050 -0.2010 -0.0645
  370MOL0     C49878   7.359   9.119   4.393 -0.0634  0.0658  1.0657
  370MOL0     C49879   7.270   9.087   4.325  0.8043 -0.5954 -0.1252
  370MOL0     C49880   7.789   8.818   4.918  0.5721 -0.5628  0.1049
  370MOL0     C49881   7.920   8.778   4.942 -0.3560  0.4789  0.2948
  370MOL0     C49882   7.938   8.652   5.002 -0.2683  0.3926  0.3020
  370MOL0     H49883   8.260   8.511   4.991 -0.2988 -1.8186  1.9108
  370MOL0     H49884   8.471   8.407   5.001 -0.0758 -0.6263 -0.6393
  370MOL0     H49885   8.685   8.327   5.108  1.4311 -0.2347  1.5141
  370MOL0     H49886   8.742   8.391   4.953 -1.5805 -0.2189 -0.0111
  370MOL0     H49887   8.905   8.399   5.196 -1.6272 -0.1016  0.1341
  370MOL0     H49888   8.946   8.457   5.032  0.0274 -1.0831 -1.2328
  370MOL0     H49889   8.905   8.202   4.961 -0.3668 -1.5156  0.0934
  370MOL0     H49890   8.915   8.165   5.131  1.2394 -1.1880 -0.5688
  370MOL0     H49891   9.125   8.312   4.959  1.1849 -2.0861 -0.7132
  370MOL0     H49892   9.140   8.277   5.134 -0.7873 -0.4710  1.3792
  370MOL0     H49893   9.122   8.041   5.082 -0.4944 -0.7022 -1.1214
  370MOL0     H49894   9.092   8.065   4.920 -0.7811  1.0092  0.5133
  370MOL0     H49895   9.318   8.161   4.896  0.6069  0.6453  1.1484
  370MOL0     H49896   9.357   8.146   5.078 -1.5163 -0.1319  2.2464
  370MOL0     H49897   9.358   7.904   5.076  0.1234 -1.1494  0.1156
  370MOL0     H49898   9.475   7.986   4.975 -1.0119 -0.0048 -2.4162
  370MOL0     H49899   9.219   7.845   4.876 -0.0468  2.3641  1.5868
  370MOL0     H49900   9.336   7.932   4.769 -1.9412 -0.2293 -1.1796
  370MOL0     H49901   9.583   7.798   4.778  1.3208 -1.9117 -0.5802
  370MOL0     H49902   9.626   7.503   4.650 -0.0800  1.9860 -0.4100
  370MOL0     H49903   9.735   7.577   4.764 -0.4114  0.5281 -0.6179
  370MOL0     H49904   9.579   7.328   4.817  0.0472 -0.7448  0.7359
  370MOL0     H49905   9.748   7.324   4.764  1.4961  0.1873  0.3324
  370MOL0     H49906   9.638   7.463   5.016 -0.8515 -0.5617 -1.1455
  370MOL0     H49907   9.814   7.445   4.983  0.3168  1.3455 -0.0844
  370MOL0     H49908   9.636   7.216   5.094 -0.1961 -0.1577 -0.3558
  370MOL0     H49909   9.783   7.263   5.155  2.3001 -1.2274 -0.3507
  370MOL0     H49910   9.850   7.074   4.758 -0.6553 -1.6426  1.0042
  370MOL0     H49911  10.079   7.089   4.643 -0.6688  0.9428  0.0186
  370MOL0     H49912  10.606   7.150   5.005  0.9947 -0.4236 -0.2661
  370MOL0     H49913  10.833   7.223   4.969 -1.4946  1.4969  1.7591
  370MOL0     H49914  11.006   7.372   4.960  0.1971 -2.8415 -0.0403
  370MOL0     H49915  11.030   7.272   4.820 -1.8021 -0.2198 -1.1720
  370MOL0     H49916  11.149   7.475   4.714  2.5171  2.1267  0.5009
  370MOL0     H49917  11.120   7.562   4.864 -1.7644 -0.2533 -1.5440
  370MOL0     H49918  11.259   7.376   4.971 -2.3481 -1.2831 -0.7694
  370MOL0     H49919  11.298   7.316   4.814 -3.0490 -2.0128  0.5500
  370MOL0     H49920  11.345   7.612   4.898 -1.8411 -1.3254  2.2183
  370MOL0     H49921  11.403   7.530   4.749 -1.1494 -3.2157 -0.9261
  370MOL0     H49922  11.573   7.396   4.859  1.6122  1.1093  0.1174
  370MOL0     H49923  11.508   7.425   5.022  4.7381  1.2290  1.5844
  370MOL0     H49924  11.617   7.642   4.846 -3.9124  2.0874  0.6742
  370MOL0     H49925  11.559   7.648   5.023 -0.4208 -0.3376  0.0419
  370MOL0     H49926  11.805   7.474   4.938  1.5652  0.5090 -1.2505
  370MOL0     H49927  11.732   7.504   5.093 -0.7376  1.6030  0.3321
  370MOL0     H49928  11.788   7.733   5.097  0.5749 -1.7268  1.9367
  370MOL0     H49929  11.928   7.628   5.071  0.0190  1.4066  2.5110
  370MOL0     H49930  10.716   7.469   4.640 -3.5472 -0.5248 -1.0126
  370MOL0     H49931  10.487   7.371   4.653  0.2767 -2.1204 -0.6514
  370MOL0     H49932  10.231   7.263   5.010 -0.7631  0.2723 -2.1148
  370MOL0     H49933  10.007   7.278   5.101  0.8686 -1.2916  1.2009
  370MOL0     H49934   8.644   8.772   5.138  0.0128 -1.8889  0.3587
  370MOL0     H49935   8.406   8.892   5.116 -4.2579 -0.9797  2.1304
  370MOL0     H49936   8.064   9.063   4.811 -1.4675  1.5185 -1.4827
  370MOL0     H49937   7.825   9.121   4.777  3.6902  0.8005 -2.5117
  370MOL0     H49938   7.571   8.811   4.725  2.5034 -0.1865 -3.4502
  370MOL0     H49939   7.656   8.931   4.637  1.2184 -2.5099  0.1183
  370MOL0     H49940   7.374   8.945   4.770  0.4181 -2.2123 -0.8017
  370MOL0     H49941   7.395   8.899   4.608 -1.1584  1.2341 -1.1988
  370MOL0     H49942   7.506   9.174   4.695 -1.1387  0.8861  0.3074
  370MOL0     H49943   7.335   9.150   4.671 -0.5345 -2.2542 -0.7176
  370MOL0     H49944   7.491   9.258   4.498 -1.7909  0.2566  1.2137
  370MOL0     H49945   7.557   9.099   4.461  0.6936  0.6498 -0.4084
  370MOL0     H49946   7.181   9.051   4.277  0.0301  0.4785  0.4703
  370MOL0     H49947   7.713   8.746   4.949 -0.2141  0.1513 -0.1149
  370MOL0     H49948   7.867   8.576   4.969 -2.1194  0.2791  4.0749
  370MOL0     H49949   8.039   8.611   4.988 -1.0653 -1.9636  0.8714
  370MOL0     H49950   7.918   8.668   5.108 -0.7246 -0.4624  0.3540
  371MOL0     O49951  10.487  10.195   6.294 -0.3165  0.0466  0.0957
  371MOL0     C49952  10.393  10.259   6.251  0.2997  0.2752  0.4819
  371MOL0     O49953  10.402  10.353   6.150  0.2216 -0.2270 -1.2214
  371MOL0     C49954  10.528  10.397   6.113  0.2038  0.1814  0.7742
  371MOL0     C49955  10.570  10.358   5.982 -0.0972 -1.0218  0.4530
  371MOL0     C49956  10.683  10.415   5.938  0.3833  0.4008 -0.3421
  371MOL0     C49957  10.762  10.500   6.016 -0.6955  0.4831  0.0388
  371MOL0     O49958  10.875  10.557   5.960  0.6366  0.3397 -0.1845
  371MOL0     C49959  10.928  10.516   5.835  0.0759 -0.0052  0.3024
  371MOL0     C49960  11.056  10.604   5.807  1.0968  0.0159 -0.2967
  371MOL0     C49961  11.144  10.645   5.927 -0.8896 -0.4332  0.4486
  371MOL0     C49962  11.254  10.739   5.882 -0.8079 -0.0111  0.0325
  371MOL0     C49963  11.341  10.791   5.994  1.2922 -0.6151  0.3598
  371MOL0     C49964  11.410  10.686   6.074  0.0800 -0.5186 -0.2013
  371MOL0     C49965  11.503  10.730   6.194 -0.7091  0.8136  1.1576
  371MOL0     C49966  11.429  10.809   6.305  0.1909 -0.5598  0.3994
  371MOL0     N49967  11.495  10.827   6.432  0.5974 -0.5146  0.0426
  371MOL0     C49968  11.598  10.914   6.453  1.3495 -0.1305 -0.1191
  371MOL0     C49969  11.615  10.916   6.591  0.2237  0.2802 -0.1849
  371MOL0     C49970  11.700  11.011   6.673 -0.7102  0.0757 -0.3179
  371MOL0     C49971  11.838  10.972   6.636  0.1707 -0.0292 -0.3315
  371MOL0     C49972  11.938  11.069   6.696  0.6984 -0.4267 -0.6631
  371MOL0     C49973  12.085  11.045   6.665  0.0047  0.5426 -0.2024
  371MOL0     O49974  12.162  11.138   6.751 -0.3504  0.4242  0.7713
  371MOL0     C49975  12.297  11.115   6.744  0.6955 -0.2636  0.0020
  371MOL0     C49976  12.357  11.035   6.642 -0.9660  0.2486 -1.5770
  371MOL0     C49977  12.497  11.010   6.656  0.5873  0.4952  0.2123
  371MOL0     C49978  12.583  11.058   6.757 -0.3636 -0.9762  0.1717
  371MOL0     C49979  12.730  11.029   6.757  0.2548  0.9184  0.2310
  371MOL0     O49980  12.768  10.930   6.673 -0.5237 -0.0911  0.4513
  371MOL0     C49981  12.879  10.867   6.709 -0.5449 -0.1131  0.0913
  371MOL0     C49982  13.007  10.907   6.653  0.1590  0.1588 -0.1380
  371MOL0     C49983  13.125  10.836   6.687  0.2169 -0.7261  0.6609
  371MOL0     C49984  13.117  10.726   6.771  0.6028  0.0268  0.2533
  371MOL0     O49985  13.226  10.650   6.799 -1.0160  0.7925  0.1634
  371MOL0     C49986  13.300  10.589   6.688  0.0602  0.3849 -0.4897
  371MOL0     C49987  13.447  10.603   6.703 -1.1086 -0.0330  0.2324
  371MOL0     C49988  13.504  10.535   6.824 -0.5724  0.4489 -0.3531
  371MOL0     C49989  13.657  10.525   6.803  0.8804 -0.0957  0.8620
  371MOL0     C49990  13.744  10.436   6.899 -0.2874 -0.0516 -0.2885
  371MOL0     C49991  13.882  10.424   6.864 -0.2030  0.0312  0.5262
  371MOL0     C49992  13.919  10.303   6.773 -0.2289  0.4596 -0.1541
  371MOL0     C49993  14.056  10.319   6.698  1.1960 -0.4740 -0.5061
  371MOL0    Cl49994  14.086  10.177   6.601 -0.1499  0.3891 -0.3290
  371MOL0     C49995  12.990  10.696   6.829 -0.5152 -0.0003  0.2394
  371MOL0     C49996  12.875  10.759   6.794  0.0206  0.1843  0.7732
  371MOL0     O49997  12.806  11.097   6.832  0.4216  0.1465  0.9561
  371MOL0     C49998  12.518  11.134   6.863  0.2546  0.2111 -0.4535
  371MOL0     C49999  12.378  11.162   6.859  0.3841  0.0481 -0.3676
  371MOL0     N50000  11.526  10.829   6.651 -0.1325 -0.0751  0.4204
  371MOL0     N50001  11.449  10.774   6.559  0.5011 -0.4198  1.2882
  371MOL0     C50002  10.722  10.515   6.152 -1.4009  0.5735  0.7300
  371MOL0     C50003  10.600  10.475   6.204  0.3570 -0.1853  0.1915
  371MOL0     C50004  10.265  10.247   6.320 -0.2790 -0.7203 -0.2412
  371MOL0     C50005  10.246  10.234   6.462  0.1278 -0.8121 -0.7628
  371MOL0     C50006  10.125  10.258   6.522 -0.4138  0.0873 -0.0307
  371MOL0     C50007  10.010  10.265   6.442 -0.2353 -1.0360 -0.8446
  371MOL0     O50008   9.876  10.249   6.483  0.0015  0.1386  0.1762
  371MOL0     C50009   9.843  10.282   6.614 -0.7465 -0.2889 -1.0583
  371MOL0     C50010   9.699  10.232   6.646 -0.7967 -0.3522  0.3815
  371MOL0     C50011   9.691  10.077   6.668  0.9592  0.0479  1.0169
  371MOL0     C50012   9.551  10.053   6.716 -0.1450 -0.2358 -0.3003
  371MOL0     C50013   9.514   9.907   6.718 -0.1575  0.4143  0.1462
  371MOL0     C50014   9.470   9.792   6.712  0.4998 -0.3913  0.5112
  371MOL0     C50015  10.027  10.277   6.306  1.1227 -0.0822 -0.4395
  371MOL0     C50016  10.148  10.275   6.244  0.4542  0.6254 -0.1280
  371MOL0     C50017  10.141  10.288   6.092  0.0777 -0.2352 -0.3475
  371MOL0     H50018  10.512  10.286   5.926 -3.2117  0.3503  1.7018
  371MOL0     H50019  10.711  10.388   5.836 -1.2919 -0.0824 -0.7147
  371MOL0     H50020  10.960  10.412   5.849  0.8330  0.4329  2.1055
  371MOL0     H50021  10.851  10.536   5.760 -3.0079 -2.3443  2.5914
  371MOL0     H50022  11.016  10.700   5.775  2.3839  0.9779  0.8436
  371MOL0     H50023  11.122  10.557   5.733  3.8252  3.7824 -0.5148
  371MOL0     H50024  11.183  10.550   5.965 -2.2737 -0.5247  1.7361
  371MOL0     H50025  11.078  10.689   6.002 -1.8596  2.6981 -2.0452
  371MOL0     H50026  11.317  10.682   5.814 -0.3064  0.4757  0.0878
  371MOL0     H50027  11.204  10.825   5.836 -0.1215 -1.1460 -3.0621
  371MOL0     H50028  11.414  10.858   5.947 -1.0744  1.2545 -0.9206
  371MOL0     H50029  11.282  10.855   6.061 -2.2778 -1.3639 -1.8067
  371MOL0     H50030  11.341  10.608   6.108 -0.3322 -1.9216 -3.8185
  371MOL0     H50031  11.464  10.629   5.998  0.1209 -1.2947  0.3879
  371MOL0     H50032  11.579  10.792   6.146 -2.6881  1.6826 -1.0446
  371MOL0     H50033  11.548  10.636   6.227 -0.0236  0.6722 -0.1480
  371MOL0     H50034  11.405  10.909   6.268  0.7162 -0.7573 -0.5070
  371MOL0     H50035  11.335  10.755   6.320 -1.4029  1.4037 -1.8730
  371MOL0     H50036  11.642  10.974   6.375  0.2252  0.4755 -0.3070
  371MOL0     H50037  11.686  11.115   6.644  1.5818  0.2002 -1.1958
  371MOL0     H50038  11.682  10.982   6.777  1.2906  1.1524  0.3804
  371MOL0     H50039  11.855  10.868   6.666  1.3859 -0.4017 -2.1652
  371MOL0     H50040  11.860  10.978   6.529 -0.9109 -1.2549 -0.6488
  371MOL0     H50041  11.933  11.081   6.804  1.7366  1.3754 -0.7779
  371MOL0     H50042  11.916  11.165   6.648 -1.4109 -0.8427 -0.6320
  371MOL0     H50043  12.099  11.071   6.559  0.6149 -1.3603 -0.6312
  371MOL0     H50044  12.118  10.943   6.685  1.1748  0.4016 -2.4943
  371MOL0     H50045  12.308  11.006   6.549 -0.2933 -0.6582 -1.6597
  371MOL0     H50046  12.550  10.957   6.577  0.6991 -2.8875  2.4020
  371MOL0     H50047  13.013  11.001   6.599  0.5895  1.2743  1.7451
  371MOL0     H50048  13.220  10.867   6.645 -0.3713  1.4252  0.8051
  371MOL0     H50049  13.279  10.481   6.686  3.3090 -0.3765 -3.3253
  371MOL0     H50050  13.269  10.624   6.589  0.4654 -2.0501 -1.5428
  371MOL0     H50051  13.490  10.557   6.613  2.6884  2.6571  0.4256
  371MOL0     H50052  13.474  10.709   6.695 -0.2593 -0.3559 -1.7644
  371MOL0     H50053  13.477  10.587   6.916 -2.0239  0.8975 -1.0107
  371MOL0     H50054  13.482  10.428   6.821 -2.6859  0.8254  0.1076
  371MOL0     H50055  13.690  10.629   6.809  1.0562 -0.0660 -0.4127
  371MOL0     H50056  13.671  10.492   6.700 -1.3463 -1.5228  0.9434
  371MOL0     H50057  13.703  10.334   6.898  1.0538 -0.6196 -0.7332
  371MOL0     H50058  13.734  10.483   6.997 -1.7599 -0.3720 -0.2659
  371MOL0     H50059  13.910  10.516   6.812 -0.7453 -0.8293 -1.3536
  371MOL0     H50060  13.940  10.416   6.957 -1.1856  0.5896  1.2035
  371MOL0     H50061  13.839  10.293   6.698 -0.8603 -0.4318  0.6131
  371MOL0     H50062  13.915  10.207   6.825 -4.4535 -0.1035 -1.1542
  371MOL0     H50063  14.041  10.410   6.639  0.8793 -0.9447 -1.1672
  371MOL0     H50064  14.139  10.330   6.768  2.6229 -1.7167 -1.8983
  371MOL0     H50065  12.991  10.616   6.901  1.3949 -1.7794 -1.6077
  371MOL0     H50066  12.788  10.725   6.849  0.5718 -0.6472  1.1555
  371MOL0     H50067  12.579  11.151   6.951  2.0071 -1.1618 -1.3317
  371MOL0     H50068  12.321  11.211   6.938 -0.2674  1.0661 -1.4299
  371MOL0     H50069  10.793  10.569   6.214 -1.7775  1.8076  0.1081
  371MOL0     H50070  10.569  10.486   6.308  1.0113  1.5301  0.2468
  371MOL0     H50071  10.336  10.228   6.523  0.4867 -2.1623 -1.3822
  371MOL0     H50072  10.118  10.270   6.630  2.2083  1.4329  0.0520
  371MOL0     H50073   9.843  10.389   6.636  3.3137 -0.5702  1.2689
  371MOL0     H50074   9.912  10.234   6.683 -0.0970 -1.5043 -2.4969
  371MOL0     H50075   9.646  10.258   6.554 -0.4637  0.6862  0.4714
  371MOL0     H50076   9.650  10.284   6.729  0.8070  0.0847  1.0915
  371MOL0     H50077   9.768  10.045   6.739  1.0895 -1.4684  0.2300
  371MOL0     H50078   9.709  10.020   6.577 -1.5923 -0.1964  0.5906
  371MOL0     H50079   9.537  10.072   6.822 -1.7554 -1.3691 -0.2698
  371MOL0     H50080   9.481  10.108   6.652 -1.5869 -1.6044  0.0281
  371MOL0     H50081   9.446   9.688   6.720  0.9496 -0.3490  3.3895
  371MOL0     H50082   9.936  10.298   6.250  0.6769  0.2790  0.4037
  371MOL0     H50083  10.165  10.394   6.080  2.0948 -0.6141 -0.1370
  371MOL0     H50084  10.208  10.226   6.032  0.6299  0.3064 -0.3007
  371MOL0     H50085  10.040  10.255   6.066 -0.1400 -2.7713  3.0349
  372MOL0     O50086   1.460   6.209   0.882  0.7183 -0.0963 -0.2736
  372MOL0     C50087   1.405   6.130   0.805  0.0995 -0.4618  1.2830
  372MOL0     O50088   1.464   6.072   0.691  0.2332 -0.2018  0.3987
  372MOL0     C50089   1.589   6.114   0.652 -0.3069  1.5244 -0.1460
  372MOL0     C50090   1.707   6.108   0.732 -0.3536  0.1989  0.2121
  372MOL0     C50091   1.831   6.159   0.688 -0.3248 -0.3209  0.7143
  372MOL0     C50092   1.845   6.201   0.559 -0.7690  0.7524 -0.3704
  372MOL0     O50093   1.970   6.233   0.508  0.2934 -0.8879  0.1283
  372MOL0     C50094   2.092   6.202   0.573  0.4080  0.0197  0.6995
  372MOL0     C50095   2.222   6.213   0.491 -0.1960 -0.9132 -0.7071
  372MOL0     C50096   2.262   6.358   0.488 -0.1017 -0.5691 -0.0430
  372MOL0     C50097   2.402   6.361   0.420 -0.1817 -1.2087 -0.1830
  372MOL0     C50098   2.440   6.513   0.416  0.6893  0.3011 -0.0519
  372MOL0     C50099   2.590   6.540   0.404 -0.6704 -0.1726  0.7199
  372MOL0     C50100   2.619   6.691   0.393 -0.2596  0.0671  0.5484
  372MOL0     C50101   2.769   6.736   0.435 -0.4108 -0.1290 -0.5630
  372MOL0     N50102   2.866   6.667   0.352 -0.2301  0.7627  0.8889
  372MOL0     C50103   2.978   6.602   0.402  0.6388  0.1379 -0.2453
  372MOL0     C50104   3.036   6.549   0.288  0.1644  0.4351  0.3673
  372MOL0     C50105   3.154   6.453   0.304 -0.1501  0.4091 -0.0935
  372MOL0     C50106   3.273   6.537   0.263 -0.5616  0.5054  0.6649
  372MOL0     C50107   3.408   6.458   0.272  0.4345 -0.1817  0.0445
  372MOL0     C50108   3.526   6.527   0.218  0.6344 -0.6230  0.4369
  372MOL0     O50109   3.612   6.418   0.174  0.7447 -0.3638  0.4787
  372MOL0     C50110   3.739   6.462   0.134  0.3505 -1.0562  1.1903
  372MOL0     C50111   3.793   6.595   0.111 -0.4265  0.2569  0.9572
  372MOL0     C50112   3.926   6.621   0.066 -0.2739  0.6384  0.1282
  372MOL0     C50113   4.018   6.515   0.049  0.8145  1.0375  0.1706
  372MOL0     C50114   4.159   6.532   0.032 -0.4178 -0.0064  0.1786
  372MOL0     O50115   4.237   6.417   0.024 -0.6857  0.4174  0.6436
  372MOL0     C50116   4.374   6.439  -0.002  0.1337  0.1469  0.3263
  372MOL0     C50117   4.428   6.421  -0.135 -0.3250  0.6740  0.1048
  372MOL0     C50118   4.564   6.445  -0.158  0.0048  0.5851 -0.3326
  372MOL0     C50119   4.643   6.474  -0.045  0.1938  0.2233 -0.7224
  372MOL0     O50120   4.778   6.503  -0.063 -0.1319  0.1551  0.0195
  372MOL0     C50121   4.868   6.408  -0.000  0.2912  0.0379  0.4880
  372MOL0     C50122   4.920   6.324  -0.111 -0.0587 -0.5879 -0.0640
  372MOL0     C50123   5.062   6.349  -0.157 -0.2780  0.5249 -0.0067
  372MOL0     C50124   5.160   6.308  -0.047 -0.8335 -0.3609 -0.7123
  372MOL0     C50125   5.308   6.289  -0.090 -0.3142  0.7753 -0.0383
  372MOL0     C50126   5.366   6.403  -0.178 -0.8645 -0.5419  1.0118
  372MOL0     C50127   5.526   6.402  -0.175  0.4567 -0.8081  0.1774
  372MOL0     C50128   5.593   6.264  -0.191 -0.3095 -0.2825 -0.3928
  372MOL0    Cl50129   5.545   6.184  -0.356 -0.6240  0.0279  0.2131
  372MOL0     C50130   4.588   6.484   0.086 -0.4265  0.0976 -0.0183
  372MOL0     C50131   4.455   6.472   0.114  0.6534 -0.0850  0.3525
  372MOL0     O50132   4.203   6.652   0.031 -0.0567  0.3780 -0.6410
  372MOL0     C50133   3.960   6.383   0.062  1.0139 -0.1337  0.2212
  372MOL0     C50134   3.826   6.358   0.101  0.1820  0.6117 -0.6650
  372MOL0     N50135   2.964   6.594   0.175  0.3308  0.5074 -0.0605
  372MOL0     N50136   2.862   6.654   0.221 -0.5732 -0.0969  0.2411
  372MOL0     C50137   1.732   6.196   0.480 -0.0764 -0.0934  0.0912
  372MOL0     C50138   1.601   6.157   0.522 -0.4150  0.2313  0.5267
  372MOL0     C50139   1.265   6.081   0.832 -0.3499  0.1585 -0.7461
  372MOL0     C50140   1.192   6.126   0.949  0.5768 -0.2264  0.3147
  372MOL0     C50141   1.061   6.086   0.985 -1.6268 -0.3755  0.5120
  372MOL0     C50142   0.986   6.010   0.889 -0.7229 -0.5563 -0.8172
  372MOL0     O50143   0.853   5.988   0.925 -0.4033  0.6156 -0.1817
  372MOL0     C50144   0.815   5.846   0.907  0.1626  0.2782 -0.3460
  372MOL0     C50145   0.713   5.820   0.798 -0.9849  0.3795 -0.0703
  372MOL0     C50146   0.576   5.864   0.835 -0.5166 -0.6867  0.1986
  372MOL0     C50147   0.484   5.860   0.709  0.2379 -0.2015 -0.3889
  372MOL0     C50148   0.337   5.880   0.738  0.6981  0.4131 -0.4669
  372MOL0     C50149   0.227   5.909   0.779 -0.9042  0.2442 -0.4928
  372MOL0     C50150   1.049   5.967   0.774 -0.0435 -0.0685  0.1283
  372MOL0     C50151   1.184   5.993   0.745  0.1321  0.5626  0.4832
  372MOL0     C50152   1.237   5.929   0.618  0.2866  0.3634 -0.0756
  372MOL0     H50153   1.705   6.073   0.835  0.7623  1.3544  0.6652
  372MOL0     H50154   1.907   6.176   0.763 -0.2582  0.4900  0.4725
  372MOL0     H50155   2.106   6.239   0.675  2.6633  0.6537  0.2031
  372MOL0     H50156   2.083   6.094   0.590 -2.9902 -0.0531 -0.7620
  372MOL0     H50157   2.194   6.182   0.390  1.6483 -1.8468 -0.9630
  372MOL0     H50158   2.298   6.145   0.531  1.2330  0.3373 -1.2503
  372MOL0     H50159   2.259   6.390   0.592 -2.4001 -3.3145  0.8643
  372MOL0     H50160   2.198   6.425   0.429 -1.1095  1.5814  3.2060
  372MOL0     H50161   2.474   6.310   0.484  1.0737  0.3500 -0.2883
  372MOL0     H50162   2.385   6.318   0.321 -6.0995 -3.5977  1.4293
  372MOL0     H50163   2.382   6.564   0.339  1.5338  2.7866  0.8354
  372MOL0     H50164   2.414   6.556   0.513  1.3684 -0.8989  0.6942
  372MOL0     H50165   2.644   6.494   0.487  0.8138 -1.7247 -0.9905
  372MOL0     H50166   2.628   6.487   0.316 -1.9492 -0.0400  0.0610
  372MOL0     H50167   2.544   6.749   0.448 -1.4471  1.8946 -2.6942
  372MOL0     H50168   2.610   6.730   0.291 -0.6878  0.5274  0.7536
  372MOL0     H50169   2.787   6.843   0.423  3.2523 -0.5300  0.2967
  372MOL0     H50170   2.788   6.703   0.537 -0.1060 -3.0094 -1.4503
  372MOL0     H50171   2.997   6.609   0.509 -1.3181  1.0160  0.0936
  372MOL0     H50172   3.168   6.408   0.403  1.3843 -2.2650 -1.3899
  372MOL0     H50173   3.145   6.367   0.236 -0.2885 -0.4722  0.9992
  372MOL0     H50174   3.257   6.567   0.159  1.3249  2.2087  0.7899
  372MOL0     H50175   3.273   6.624   0.329 -0.4272  0.4820  0.6960
  372MOL0     H50176   3.402   6.367   0.213  0.2888  0.9483 -1.7563
  372MOL0     H50177   3.431   6.440   0.378  1.2451  1.4844  0.1865
  372MOL0     H50178   3.582   6.578   0.297 -0.0472  3.0225 -1.2340
  372MOL0     H50179   3.511   6.592   0.131  0.6348 -0.2610  0.7075
  372MOL0     H50180   3.727   6.681   0.118  1.4922  2.2520 -2.6242
  372MOL0     H50181   3.960   6.724   0.060 -0.5704  0.6962 -0.7642
  372MOL0     H50182   4.362   6.380  -0.211 -1.2772 -1.8084  2.1098
  372MOL0     H50183   4.602   6.430  -0.258 -1.5160 -1.5604 -0.6806
  372MOL0     H50184   4.942   6.464   0.058  2.0793 -0.8393 -0.8641
  372MOL0     H50185   4.818   6.337   0.066 -0.6337 -0.5595 -0.7992
  372MOL0     H50186   4.902   6.222  -0.077 -0.4163 -1.0266 -1.4953
  372MOL0     H50187   4.856   6.328  -0.200  0.4148 -2.7411 -0.5509
  372MOL0     H50188   5.088   6.288  -0.245  1.2061 -0.0087  0.7649
  372MOL0     H50189   5.092   6.451  -0.182 -0.5066  0.7638  0.6723
  372MOL0     H50190   5.129   6.219   0.010  2.8834 -0.9306  0.7507
  372MOL0     H50191   5.163   6.392   0.023  0.6913 -0.6195 -0.4261
  372MOL0     H50192   5.317   6.200  -0.153 -0.4423  0.3791  0.4982
  372MOL0     H50193   5.382   6.287  -0.009  0.7981 -1.8862 -1.0023
  372MOL0     H50194   5.327   6.393  -0.280  0.0156 -1.4248  0.7366
  372MOL0     H50195   5.330   6.502  -0.149 -0.5358  0.3888 -1.4953
  372MOL0     H50196   5.558   6.452  -0.084 -0.3301  0.6856 -0.3349
  372MOL0     H50197   5.559   6.468  -0.256 -2.9003  0.5615 -0.2500
  372MOL0     H50198   5.702   6.267  -0.180 -0.1849 -1.9161 -0.8570
  372MOL0     H50199   5.553   6.201  -0.112  1.8668 -0.6025  0.5304
  372MOL0     H50200   4.651   6.508   0.171 -0.9915  1.0569  0.1405
  372MOL0     H50201   4.418   6.482   0.215 -3.8870  0.5666 -1.1006
  372MOL0     H50202   4.022   6.298   0.034  1.4247  0.8875 -2.2905
  372MOL0     H50203   3.797   6.254   0.110  0.9896  0.4736  0.6210
  372MOL0     H50204   1.746   6.231   0.378  1.3343 -2.6373 -0.6524
  372MOL0     H50205   1.521   6.158   0.449  0.0306 -1.4964 -0.0217
  372MOL0     H50206   1.241   6.193   1.018 -0.0561  0.7494 -0.1537
  372MOL0     H50207   1.011   6.115   1.077 -0.4729 -0.7950  1.2934
  372MOL0     H50208   0.773   5.796   0.995 -1.9886  1.9613 -0.3371
  372MOL0     H50209   0.899   5.781   0.879 -0.1058 -0.8963  1.4350
  372MOL0     H50210   0.721   5.712   0.783 -2.4575  0.3301 -0.7016
  372MOL0     H50211   0.746   5.865   0.704  2.6274 -0.7110  0.5366
  372MOL0     H50212   0.588   5.965   0.874  3.4978 -0.4584 -1.1394
  372MOL0     H50213   0.541   5.798   0.914  1.8161  1.3334  3.1551
  372MOL0     H50214   0.517   5.939   0.640  1.4795  0.0557  0.4555
  372MOL0     H50215   0.488   5.762   0.661  1.2685 -1.1527  1.5516
  372MOL0     H50216   0.129   5.942   0.803 -1.4255 -1.5075 -0.0995
  372MOL0     H50217   0.987   5.915   0.701 -0.5457  2.3083 -1.2314
  372MOL0     H50218   1.319   5.864   0.648  1.5866  1.0475 -1.9842
  372MOL0     H50219   1.158   5.868   0.572  1.2797 -3.2349  2.5307
  372MOL0     H50220   1.269   6.003   0.545 -2.7213  0.3326 -1.5648
  373MOL0     O50221   0.122   5.913   1.141 -0.0175  0.4381 -0.1270
  373MOL0     C50222   0.103   5.791   1.144  0.1518 -0.4709 -0.1239
  373MOL0     O50223   0.176   5.711   1.224  0.3729  0.9779  0.0396
  373MOL0     C50224   0.299   5.750   1.269  0.7970 -0.9816 -0.2238
  373MOL0     C50225   0.411   5.742   1.180 -0.0078 -0.6577  1.1646
  373MOL0     C50226   0.538   5.773   1.224  0.4519 -0.0646  0.2653
  373MOL0     C50227   0.571   5.798   1.355 -0.0715 -0.4110  0.2430
  373MOL0     O50228   0.692   5.802   1.413 -0.4849 -0.4324  0.0614
  373MOL0     C50229   0.800   5.761   1.327 -0.3234  0.0031  0.2858
  373MOL0     C50230   0.925   5.750   1.407 -0.1788 -0.3744 -0.7314
  373MOL0     C50231   0.991   5.880   1.470 -0.0885 -0.3553 -1.0814
  373MOL0     C50232   1.113   5.837   1.550  0.2317 -0.3800  0.0347
  373MOL0     C50233   1.155   5.939   1.663 -0.7319  0.3499 -0.6330
  373MOL0     C50234   1.301   5.934   1.711  0.1666  0.1553  0.3355
  373MOL0     C50235   1.334   6.027   1.837 -0.2965 -0.2029  0.0932
  373MOL0     C50236   1.492   6.018   1.876  0.0999 -0.4271 -0.5795
  373MOL0     N50237   1.576   6.095   1.784  0.4005  0.2523 -0.5466
  373MOL0     C50238   1.694   6.045   1.741 -0.0150  0.0634  0.4555
  373MOL0     C50239   1.753   6.151   1.685 -0.5880  0.3072 -0.5720
  373MOL0     C50240   1.887   6.152   1.613 -0.2924  0.0463 -0.5032
  373MOL0     C50241   1.892   6.065   1.493  0.0192  0.3658  0.8752
  373MOL0     C50242   2.029   6.025   1.430  0.0510  0.0555  0.5176
  373MOL0     C50243   2.110   5.915   1.508 -0.3386 -0.1517 -0.0318
  373MOL0     O50244   2.231   5.885   1.429  0.3934 -0.3436  0.2722
  373MOL0     C50245   2.340   5.815   1.484 -0.3151  0.1542 -0.0104
  373MOL0     C50246   2.348   5.767   1.614  0.3309  0.2797  0.0131
  373MOL0     C50247   2.465   5.712   1.663  0.0211 -0.4748  0.3190
  373MOL0     C50248   2.582   5.706   1.591  0.8881 -1.4859 -0.3114
  373MOL0     C50249   2.698   5.640   1.658 -0.5663 -0.9007  0.4957
  373MOL0     O50250   2.770   5.577   1.564 -0.1853  0.3854  0.3434
  373MOL0     C50251   2.897   5.540   1.585  0.1315 -0.5231 -0.6236
  373MOL0     C50252   2.939   5.423   1.524  0.4040 -0.4938 -0.0814
  373MOL0     C50253   3.069   5.374   1.529 -0.2752 -0.0749  0.6187
  373MOL0     C50254   3.169   5.444   1.601 -0.0121  0.0392  0.6791
  373MOL0     O50255   3.290   5.394   1.629  0.3254  0.2470 -0.2982
  373MOL0     C50256   3.324   5.261   1.577 -0.1263 -0.0550  0.4114
  373MOL0     C50257   3.463   5.212   1.586 -0.0334 -1.2946  0.1051
  373MOL0     C50258   3.561   5.293   1.498  0.5141 -0.3009 -1.2032
  373MOL0     C50259   3.691   5.226   1.516 -0.4252 -0.1225  0.2340
  373MOL0     C50260   3.807   5.308   1.463  0.4721 -0.1053 -0.4572
  373MOL0     C50261   3.789   5.318   1.317 -0.3112  0.3696 -0.5451
  373MOL0     C50262   3.915   5.384   1.249  0.8825  0.5626 -0.2181
  373MOL0     C50263   4.030   5.285   1.237 -1.0061 -0.2529  0.4244
  373MOL0    Cl50264   4.147   5.348   1.113 -0.4672  0.0851 -0.2687
  373MOL0     C50265   3.135   5.567   1.667  0.5210  0.9375  0.0845
  373MOL0     C50266   2.995   5.611   1.662 -1.3073 -0.4174 -0.4923
  373MOL0     O50267   2.717   5.648   1.783  0.0136  0.9129  0.0992
  373MOL0     C50268   2.577   5.760   1.458  0.4130  1.2417 -0.1314
  373MOL0     C50269   2.456   5.808   1.401 -0.2792 -0.6023  0.4912
  373MOL0     N50270   1.657   6.249   1.675  0.3111  0.0725 -0.2261
  373MOL0     N50271   1.553   6.224   1.751  0.0889  0.0544  0.4360
  373MOL0     C50272   0.459   5.806   1.447 -0.0860  0.2565 -0.4901
  373MOL0     C50273   0.326   5.780   1.406  0.3321 -0.4709  0.9117
  373MOL0     C50274  -0.033   5.749   1.084 -0.1822 -0.1752  0.1112
  373MOL0     C50275  -0.092   5.854   1.005  0.3832 -0.0194 -0.7194
  373MOL0     C50276  -0.219   5.841   0.948  0.4934 -0.3105  0.6122
  373MOL0     C50277  -0.283   5.715   0.961 -0.2511 -1.2917  0.2116
  373MOL0     O50278  -0.410   5.692   0.922 -0.4461  0.3220 -0.3411
  373MOL0     C50279  -0.497   5.797   0.892  0.2007  0.0402  0.1517
  373MOL0     C50280  -0.614   5.731   0.827  1.0741  0.6990 -0.9943
  373MOL0     C50281  -0.711   5.826   0.749  0.9894  0.1004  0.1285
  373MOL0     C50282  -0.749   5.954   0.827 -0.2463 -0.0670 -0.5485
  373MOL0     C50283  -0.795   5.919   0.956  0.2538  0.1654 -0.3768
  373MOL0     C50284  -0.846   5.897   1.063 -0.7140 -0.2347 -0.2880
  373MOL0     C50285  -0.218   5.613   1.023 -0.1273 -0.3951  0.2250
  373MOL0     C50286  -0.094   5.622   1.085 -0.2517 -0.3571  0.0875
  373MOL0     C50287  -0.045   5.509   1.171 -0.1044 -0.0366 -0.1337
  373MOL0     H50288   0.397   5.732   1.073  0.9193 -0.3387  1.0076
  373MOL0     H50289   0.617   5.763   1.149  3.1902 -1.6748  3.0974
  373MOL0     H50290   0.783   5.672   1.267  1.2823  0.1448 -0.4081
  373MOL0     H50291   0.818   5.836   1.250  0.2966 -2.3797 -2.0337
  373MOL0     H50292   0.998   5.705   1.339 -0.8741 -3.6752  0.4949
  373MOL0     H50293   0.901   5.674   1.482  2.0151 -0.6445 -0.2136
  373MOL0     H50294   0.916   5.928   1.533  0.7725 -0.3731 -0.0228
  373MOL0     H50295   1.024   5.954   1.397 -0.5814 -0.0328 -0.9816
  373MOL0     H50296   1.082   5.746   1.603 -0.1794 -0.3850 -0.2120
  373MOL0     H50297   1.207   5.809   1.500  1.3639  2.1858  0.5495
  373MOL0     H50298   1.138   6.039   1.621 -0.8579 -0.9343 -3.9151
  373MOL0     H50299   1.101   5.922   1.757  2.4045  2.7447  1.8532
  373MOL0     H50300   1.323   5.832   1.744 -0.5731 -0.2292 -0.3317
  373MOL0     H50301   1.354   5.964   1.620 -0.9722 -2.8534 -1.4763
  373MOL0     H50302   1.276   5.988   1.921 -1.2555  1.7340  0.3702
  373MOL0     H50303   1.306   6.132   1.825 -2.4193 -0.8238 -1.0533
  373MOL0     H50304   1.512   6.046   1.979 -0.3856  3.3790 -1.3861
  373MOL0     H50305   1.524   5.914   1.864  3.9706  0.5698  0.0015
  373MOL0     H50306   1.734   5.945   1.751 -0.4185 -0.2148 -0.5092
  373MOL0     H50307   1.902   6.257   1.586 -0.7031  0.2264 -0.0473
  373MOL0     H50308   1.970   6.125   1.679  0.9518 -1.7123 -2.6565
  373MOL0     H50309   1.839   5.971   1.514 -3.5883  1.9431 -0.2155
  373MOL0     H50310   1.832   6.116   1.417  3.2226  3.6283  0.2741
  373MOL0     H50311   2.083   6.118   1.413 -1.7693  1.0627 -0.0199
  373MOL0     H50312   2.016   5.977   1.333  0.5322  0.3408  0.3111
  373MOL0     H50313   2.047   5.826   1.518  0.7397 -1.2033 -2.0588
  373MOL0     H50314   2.150   5.958   1.601 -2.9096  1.2514  0.5096
  373MOL0     H50315   2.267   5.764   1.686  1.2443  0.9461  1.1063
  373MOL0     H50316   2.464   5.666   1.761  1.9555 -0.7527  0.2513
  373MOL0     H50317   2.868   5.381   1.454 -0.5057  1.6996 -0.5536
  373MOL0     H50318   3.097   5.281   1.480  3.3183 -0.0062  2.2072
  373MOL0     H50319   3.262   5.192   1.636  1.2874 -0.4410  1.5249
  373MOL0     H50320   3.296   5.252   1.472 -1.1559  0.7366  0.6024
  373MOL0     H50321   3.494   5.225   1.690  0.0572 -0.0166 -0.0584
  373MOL0     H50322   3.464   5.111   1.545 -0.2614 -0.5235 -1.9151
  373MOL0     H50323   3.523   5.306   1.397  0.0374  2.5494 -0.7466
  373MOL0     H50324   3.571   5.389   1.549 -0.7119 -0.3514 -0.8348
  373MOL0     H50325   3.685   5.126   1.472  0.2409 -0.1701  0.2386
  373MOL0     H50326   3.713   5.213   1.622 -0.9343  1.0533  0.4969
  373MOL0     H50327   3.903   5.261   1.489  0.8123 -0.1872 -1.7749
  373MOL0     H50328   3.799   5.406   1.509 -1.3260 -1.6127  2.7694
  373MOL0     H50329   3.774   5.213   1.292 -0.9369  0.2831  0.1510
  373MOL0     H50330   3.699   5.373   1.287  0.4470  1.7911 -0.3133
  373MOL0     H50331   3.943   5.467   1.313 -0.6304  0.7915  0.1976
  373MOL0     H50332   3.888   5.420   1.149 -0.7653  0.8808  0.3163
  373MOL0     H50333   4.078   5.285   1.335 -0.9151  1.9857  0.4359
  373MOL0     H50334   3.996   5.183   1.215  1.6540 -0.8044 -1.7454
  373MOL0     H50335   3.208   5.607   1.736 -0.8847  0.8855  1.6648
  373MOL0     H50336   2.975   5.704   1.714  2.0536 -0.7542  1.7207
  373MOL0     H50337   2.667   5.771   1.398 -0.6675  1.6019 -1.7619
  373MOL0     H50338   2.461   5.854   1.303 -1.5117 -1.8802 -0.1940
  373MOL0     H50339   0.459   5.840   1.550 -3.0869 -1.4380  0.1735
  373MOL0     H50340   0.249   5.770   1.483 -0.1236  0.2897  0.5709
  373MOL0     H50341  -0.054   5.955   0.997  3.4705 -1.1403 -1.7448
  373MOL0     H50342  -0.265   5.922   0.892  0.9335 -1.1177 -0.9512
  373MOL0     H50343  -0.465   5.876   0.823 -1.5367  0.3393 -0.3846
  373MOL0     H50344  -0.526   5.846   0.986  0.3248 -2.5298  1.6032
  373MOL0     H50345  -0.674   5.681   0.904  3.5051  0.6999  1.0404
  373MOL0     H50346  -0.576   5.650   0.763 -0.0461 -0.5875 -0.0925
  373MOL0     H50347  -0.793   5.764   0.714 -1.8259  2.9529  1.1941
  373MOL0     H50348  -0.657   5.858   0.660  2.2596  1.2874  1.2767
  373MOL0     H50349  -0.656   6.013   0.828 -1.0923  1.3184 -1.1016
  373MOL0     H50350  -0.835   6.002   0.780 -1.1719 -0.4833  0.6856
  373MOL0     H50351  -0.881   5.855   1.155 -0.4683 -0.9124 -0.4987
  373MOL0     H50352  -0.263   5.517   1.046 -0.4887 -0.8264 -1.9837
  373MOL0     H50353   0.058   5.479   1.147 -0.3666  0.1984 -1.6743
  373MOL0     H50354  -0.050   5.546   1.273  2.3844  0.7852 -0.2318
  373MOL0     H50355  -0.095   5.412   1.157 -1.1592  0.4839 -0.0329
  374MOL0     O50356   6.126   0.837   7.517 -0.0880  0.0527  0.1757
  374MOL0     C50357   6.140   0.949   7.473 -0.9402  0.0603 -0.1740
  374MOL0     O50358   6.258   1.000   7.419  0.0041  0.4531 -0.3192
  374MOL0     C50359   6.381   0.961   7.466  0.2012  0.1728  0.3240
  374MOL0     C50360   6.402   0.900   7.588 -0.0446 -0.3223  0.0721
  374MOL0     C50361   6.520   0.839   7.618 -0.5731  0.1278  0.9905
  374MOL0     C50362   6.629   0.856   7.535  0.4834 -0.6913  0.1712
  374MOL0     O50363   6.749   0.807   7.586 -0.4305 -0.3697  1.0336
  374MOL0     C50364   6.839   0.751   7.488  0.6305  0.0434 -0.8923
  374MOL0     C50365   6.955   0.682   7.563  0.3213  0.0802 -0.1847
  374MOL0     C50366   7.057   0.600   7.485 -0.7082  1.3495 -0.1792
  374MOL0     C50367   7.075   0.453   7.544 -0.6702 -0.9045 -0.0127
  374MOL0     C50368   7.164   0.380   7.445 -0.6983 -0.8817  0.2166
  374MOL0     C50369   7.181   0.221   7.448  0.9690 -0.3410  0.0559
  374MOL0     C50370   7.269   0.158   7.333 -0.0697 -0.3831  1.0034
  374MOL0     C50371   7.258   0.015   7.332  0.0097 -0.1060 -0.1012
  374MOL0     N50372   7.347  -0.056   7.241 -0.6867  0.1444  0.3883
  374MOL0     C50373   7.423  -0.156   7.281 -0.9277  0.4481 -0.4746
  374MOL0     C50374   7.476  -0.224   7.172  0.0515  0.0019 -0.7074
  374MOL0     C50375   7.576  -0.330   7.174  0.3090  0.7300  0.5391
  374MOL0     C50376   7.632  -0.331   7.033 -1.1722 -0.6236  0.5805
  374MOL0     C50377   7.758  -0.418   7.029  0.4406  0.3209  0.4025
  374MOL0     C50378   7.849  -0.385   6.910  0.6936  0.8799  0.1792
  374MOL0     O50379   7.958  -0.477   6.903 -0.1009  0.0250 -0.8230
  374MOL0     C50380   8.081  -0.454   6.952 -0.3112  0.5421  0.3245
  374MOL0     C50381   8.152  -0.567   6.981  0.0091 -0.1518  0.1072
  374MOL0     C50382   8.284  -0.562   7.030  0.2877  0.1031 -0.3548
  374MOL0     C50383   8.336  -0.444   7.066 -0.3767  0.3577 -0.6151
  374MOL0     C50384   8.472  -0.446   7.127 -0.3354  0.7343  0.2686
  374MOL0     O50385   8.535  -0.565   7.126  0.1483  0.3885  0.3846
  374MOL0     C50386   8.669  -0.571   7.167  0.3464  0.8663  0.2366
  374MOL0     C50387   8.696  -0.624   7.292 -0.0051 -0.0036 -0.4616
  374MOL0     C50388   8.830  -0.631   7.334  0.0662 -0.2011 -0.5344
  374MOL0     C50389   8.937  -0.579   7.260 -0.4487 -0.5710 -0.3955
  374MOL0     O50390   9.061  -0.574   7.322 -0.3727 -0.1317  0.0370
  374MOL0     C50391   9.159  -0.489   7.271 -0.1874 -0.2578 -0.2461
  374MOL0     C50392   9.293  -0.501   7.329 -1.0934  0.7530 -0.2452
  374MOL0     C50393   9.315  -0.472   7.482  0.6185  0.2545  0.5316
  374MOL0     C50394   9.458  -0.484   7.530  0.3376 -0.1141 -0.4526
  374MOL0     C50395   9.465  -0.443   7.681 -0.6680  0.6156 -0.3250
  374MOL0     C50396   9.361  -0.506   7.779  0.3875  0.5669 -0.1583
  374MOL0     C50397   9.378  -0.466   7.924  0.2629  0.8514  0.1702
  374MOL0     C50398   9.329  -0.324   7.952  0.7308 -0.4092  0.1679
  374MOL0    Cl50399   9.333  -0.277   8.125  0.1844  0.0459  0.4295
  374MOL0     C50400   8.901  -0.525   7.135  0.3059 -0.6054 -0.2672
  374MOL0     C50401   8.769  -0.526   7.085 -0.0786  0.8814 -0.3955
  374MOL0     O50402   8.524  -0.343   7.159  0.3719  0.1423 -0.1490
  374MOL0     C50403   8.259  -0.328   7.043  0.0625 -0.2772 -0.3883
  374MOL0     C50404   8.140  -0.327   6.973 -0.0599 -0.4431  0.5753
  374MOL0     N50405   7.409  -0.160   7.071 -0.1136  0.0248 -0.1646
  374MOL0     N50406   7.336  -0.053   7.106 -0.4011  0.0265 -0.1553
  374MOL0     C50407   6.615   0.922   7.417 -0.4996  0.4868 -0.1807
  374MOL0     C50408   6.493   0.976   7.380  0.2910  0.3493 -0.4488
  374MOL0     C50409   6.025   1.030   7.456  0.0009  1.1415 -0.1774
  374MOL0     C50410   5.918   0.969   7.372 -1.0511 -0.8358 -0.5389
  374MOL0     C50411   5.810   1.051   7.336  0.3290 -0.1207 -0.4082
  374MOL0     C50412   5.787   1.176   7.393 -0.4053  0.2019  0.3801
  374MOL0     O50413   5.680   1.259   7.373  0.5304 -0.5134 -0.6616
  374MOL0     C50414   5.588   1.219   7.267  0.7537 -0.3556 -0.7711
  374MOL0     C50415   5.464   1.303   7.282 -0.5264 -0.5842  0.5391
  374MOL0     C50416   5.475   1.455   7.257 -0.2426 -0.9103  0.4990
  374MOL0     C50417   5.339   1.522   7.242 -0.1386 -0.5413 -0.0106
  374MOL0     C50418   5.243   1.491   7.350  0.0429 -0.8034  0.9281
  374MOL0     C50419   5.178   1.455   7.445 -0.1802 -0.4767 -0.4637
  374MOL0     C50420   5.879   1.220   7.487 -0.1184 -0.1246  0.1532
  374MOL0     C50421   5.994   1.151   7.521 -0.2540 -0.2813  0.5882
  374MOL0     C50422   6.079   1.210   7.625  0.5812 -0.1397  0.4810
  374MOL0     H50423   6.322   0.906   7.661 -0.6638  1.2478 -0.6889
  374MOL0     H50424   6.541   0.787   7.711  0.9014 -1.6736 -0.2704
  374MOL0     H50425   6.785   0.678   7.428  0.1778 -1.1174  0.8284
  374MOL0     H50426   6.889   0.827   7.429  2.7799 -2.3177 -2.3284
  374MOL0     H50427   6.909   0.621   7.641  2.8854 -0.5537  0.9237
  374MOL0     H50428   7.001   0.757   7.629  0.3355 -0.8596  0.8962
  374MOL0     H50429   7.156   0.645   7.477  0.2581 -0.4269  1.1709
  374MOL0     H50430   7.022   0.580   7.383 -2.4243  2.8626  0.0500
  374MOL0     H50431   7.126   0.456   7.640 -2.2264  1.5838  0.8067
  374MOL0     H50432   6.983   0.395   7.556 -1.1377 -0.0022  0.9315
  374MOL0     H50433   7.110   0.399   7.352  0.6699  0.1473 -0.4080
  374MOL0     H50434   7.260   0.432   7.450 -0.5606 -1.1540  0.4264
  374MOL0     H50435   7.224   0.187   7.542  1.4565  0.6265  0.1920
  374MOL0     H50436   7.077   0.186   7.449  0.4332  1.0408  3.2371
  374MOL0     H50437   7.373   0.185   7.355  0.9826 -2.9531 -0.3833
  374MOL0     H50438   7.253   0.209   7.238 -1.1215 -1.0773  0.7934
  374MOL0     H50439   7.277  -0.017   7.435 -1.4863  1.0089  0.5670
  374MOL0     H50440   7.157  -0.020   7.308 -0.7616 -0.4709  3.1969
  374MOL0     H50441   7.451  -0.181   7.383 -2.9499  0.3025  0.0870
  374MOL0     H50442   7.656  -0.318   7.248  2.9698 -1.4288 -1.7654
  374MOL0     H50443   7.526  -0.426   7.194 -2.5087  2.2978  1.6185
  374MOL0     H50444   7.555  -0.360   6.961 -1.1139 -0.0955  0.3051
  374MOL0     H50445   7.665  -0.228   7.016  1.7231 -1.9034 -2.6831
  374MOL0     H50446   7.718  -0.520   7.028 -0.4095  0.6119 -1.8424
  374MOL0     H50447   7.825  -0.391   7.112  2.3630  1.4636 -1.4201
  374MOL0     H50448   7.882  -0.283   6.934 -1.0155  1.1452  1.5955
  374MOL0     H50449   7.790  -0.384   6.818  2.9378  2.7533 -1.3503
  374MOL0     H50450   8.115  -0.665   6.952  0.5591 -0.4492  0.4137
  374MOL0     H50451   8.336  -0.657   7.029 -2.0207 -1.2511  0.3526
  374MOL0     H50452   8.621  -0.646   7.367  0.1093 -0.3622 -0.4542
  374MOL0     H50453   8.844  -0.670   7.435  0.8100  1.9613  0.2465
  374MOL0     H50454   9.168  -0.504   7.163 -2.6088 -0.6168 -0.4559
  374MOL0     H50455   9.129  -0.384   7.283  3.0476  1.0585 -2.3233
  374MOL0     H50456   9.320  -0.605   7.307  0.2655  1.2473 -0.9917
  374MOL0     H50457   9.355  -0.437   7.267  0.8359 -2.0555 -1.4420
  374MOL0     H50458   9.271  -0.374   7.503 -1.3681 -0.2937 -0.7335
  374MOL0     H50459   9.261  -0.549   7.538 -0.0172  0.6488  0.4647
  374MOL0     H50460   9.526  -0.425   7.469  0.4402  0.0488 -0.1827
  374MOL0     H50461   9.498  -0.586   7.523 -0.3281 -0.8044  3.3124
  374MOL0     H50462   9.458  -0.334   7.690 -1.8377  0.5112  0.2398
  374MOL0     H50463   9.566  -0.470   7.715 -1.0302 -1.3187 -0.6721
  374MOL0     H50464   9.260  -0.476   7.750  0.7226  3.2530  1.1407
  374MOL0     H50465   9.363  -0.616   7.776 -0.6935  0.3962  2.6591
  374MOL0     H50466   9.485  -0.464   7.947 -0.1601  2.9227  2.3832
  374MOL0     H50467   9.326  -0.529   7.996  0.2111 -1.5391 -1.8232
  374MOL0     H50468   9.393  -0.255   7.897 -2.0922  1.2849 -1.2029
  374MOL0     H50469   9.228  -0.308   7.912  1.6648  2.3403 -1.3056
  374MOL0     H50470   8.962  -0.457   7.078 -2.4647  2.8134  0.4896
  374MOL0     H50471   8.741  -0.482   6.990  1.2733  1.6363 -0.4724
  374MOL0     H50472   8.299  -0.234   7.080 -2.1765 -1.3499  5.9530
  374MOL0     H50473   8.090  -0.231   6.959  1.7191  0.4340 -0.1173
  374MOL0     H50474   6.694   0.921   7.342 -1.1854 -2.8825 -1.0212
  374MOL0     H50475   6.480   1.006   7.277  1.9453 -3.0577 -1.7953
  374MOL0     H50476   5.935   0.867   7.340  0.9606 -0.6108 -0.3471
  374MOL0     H50477   5.739   1.008   7.266  0.5432  0.0310 -0.7208
  374MOL0     H50478   5.556   1.115   7.282  0.3155  0.1230  2.3073
  374MOL0     H50479   5.634   1.235   7.169  1.5567  0.8771 -0.2221
  374MOL0     H50480   5.410   1.289   7.376  0.0035  0.0500  0.9505
  374MOL0     H50481   5.404   1.269   7.197 -0.2961  0.6453 -0.1513
  374MOL0     H50482   5.538   1.482   7.172  0.4392 -0.8443  1.0157
  374MOL0     H50483   5.516   1.482   7.355  0.2175  2.2475 -0.4577
  374MOL0     H50484   5.360   1.628   7.256  0.6245 -0.6983  0.0308
  374MOL0     H50485   5.306   1.527   7.137 -2.6298  1.1680  0.7661
  374MOL0     H50486   5.140   1.410   7.535  2.0221 -1.9268 -0.1843
  374MOL0     H50487   5.854   1.321   7.521 -0.8155 -0.4031  0.4833
  374MOL0     H50488   6.122   1.308   7.599  2.8720 -0.9073  1.0943
  374MOL0     H50489   6.028   1.239   7.718  0.3763  0.9490  0.0480
  374MOL0     H50490   6.154   1.138   7.660 -1.8346 -3.0200  0.0983
  375MOL0     O50491   9.428   4.494  11.103 -0.0360 -0.6602  0.7130
  375MOL0     C50492   9.446   4.616  11.114 -0.8754 -0.8500  0.7329
  375MOL0     O50493   9.572   4.674  11.126  0.4124 -0.2642 -0.2206
  375MOL0     C50494   9.697   4.612  11.107 -0.1469  0.8561 -0.3350
  375MOL0     C50495   9.806   4.697  11.115  0.1215 -0.1429  0.1424
  375MOL0     C50496   9.936   4.647  11.106  0.0401  0.1643  0.0782
  375MOL0     C50497   9.953   4.508  11.096 -0.4397  0.7824 -0.4136
  375MOL0     O50498  10.076   4.453  11.089  0.0483 -0.7161  0.4042
  375MOL0     C50499  10.172   4.519  11.009 -0.0710  0.0539 -0.3040
  375MOL0     C50500  10.277   4.417  10.968  0.9614 -0.1040 -0.1574
  375MOL0     C50501  10.391   4.419  11.076  0.0403 -0.1036  0.1996
  375MOL0     C50502  10.498   4.330  11.033  0.7481 -0.2837 -0.5150
  375MOL0     C50503  10.604   4.338  11.142  1.0169  0.4256 -0.0869
  375MOL0     C50504  10.732   4.285  11.104 -0.8723  0.3520 -0.5656
  375MOL0     C50505  10.727   4.125  11.077 -0.0321 -0.9266  0.3534
  375MOL0     C50506  10.773   4.039  11.197 -0.7095  1.0361  0.2233
  375MOL0     N50507  10.916   4.029  11.213 -0.1761 -0.5075 -0.4091
  375MOL0     C50508  10.987   4.062  11.332 -0.1939  0.1139 -0.3736
  375MOL0     C50509  11.119   4.041  11.306  0.5119  0.8483  0.7477
  375MOL0     C50510  11.234   4.061  11.404 -0.5128  1.3784  0.0327
  375MOL0     C50511  11.229   3.963  11.519  0.1554 -0.8161 -0.6955
  375MOL0     C50512  11.337   3.996  11.619  0.4360  0.5995  0.0833
  375MOL0     C50513  11.481   3.981  11.581  0.9207  0.2720  1.0154
  375MOL0     O50514  11.569   4.046  11.678 -0.0126  0.4619  0.2728
  375MOL0     C50515  11.699   4.023  11.653 -0.3589 -0.5354  0.5139
  375MOL0     C50516  11.773   3.970  11.755  0.2009  0.1270  0.5033
  375MOL0     C50517  11.909   3.986  11.754 -1.1363  0.5707 -0.0513
  375MOL0     C50518  11.977   4.016  11.640  0.3290 -0.0861 -0.2985
  375MOL0     C50519  12.118   4.026  11.631  0.3524 -0.2947  0.2908
  375MOL0     O50520  12.185   3.973  11.740  0.0165  0.2817 -0.1948
  375MOL0     C50521  12.311   4.005  11.752 -0.2518 -0.5921 -0.6823
  375MOL0     C50522  12.357   4.090  11.859  0.4202 -0.4234  1.1632
  375MOL0     C50523  12.491   4.125  11.865  0.2002 -0.3174 -0.0269
  375MOL0     C50524  12.581   4.077  11.774 -0.0307  0.1643  0.0379
  375MOL0     O50525  12.718   4.107  11.771  0.0827  0.4915 -0.6437
  375MOL0     C50526  12.785   4.148  11.893  0.7870  0.0214  0.3315
  375MOL0     C50527  12.795   4.025  11.985 -0.4551  0.2379  0.5505
  375MOL0     C50528  12.858   3.898  11.923 -1.6066 -0.4458 -0.1832
  375MOL0     C50529  13.017   3.888  11.948  0.0049 -0.1968 -0.0175
  375MOL0     C50530  13.079   3.753  11.904 -0.7894  0.5902 -0.7236
  375MOL0     C50531  13.235   3.741  11.918 -0.6703  0.7449 -0.1616
  375MOL0     C50532  13.277   3.767  12.063 -0.4512  0.5673 -0.4446
  375MOL0     C50533  13.419   3.760  12.074  0.2748  0.3055 -0.1760
  375MOL0    Cl50534  13.503   3.875  11.971  0.2309  0.1183 -0.0282
  375MOL0     C50535  12.533   3.998  11.669  0.0428  0.0897  0.0905
  375MOL0     C50536  12.403   3.957  11.653  0.3289  0.1192 -0.1742
  375MOL0     O50537  12.169   4.099  11.545 -0.2710  0.2475  0.1983
  375MOL0     C50538  11.903   4.066  11.531 -0.1796 -0.2839  0.8686
  375MOL0     C50539  11.768   4.081  11.543  0.4883  0.4329 -0.1156
  375MOL0     N50540  11.130   3.989  11.181  0.5453  0.0987 -1.3204
  375MOL0     N50541  11.006   3.987  11.123 -1.3103 -0.2563  0.1618
  375MOL0     C50542   9.853   4.423  11.093  0.0467 -0.1348 -0.3514
  375MOL0     C50543   9.718   4.470  11.106 -1.0678  0.6131 -0.9406
  375MOL0     C50544   9.321   4.704  11.135  0.3229 -0.0250  0.5828
  375MOL0     C50545   9.349   4.837  11.166  0.7064 -0.3378 -0.1136
  375MOL0     C50546   9.237   4.922  11.202  0.3212  0.3278  0.5057
  375MOL0     C50547   9.100   4.876  11.202 -0.2608  0.1764  0.1244
  375MOL0     O50548   8.990   4.934  11.256 -0.1125  0.6365 -0.2451
  375MOL0     C50549   8.982   5.073  11.283 -0.2940 -0.0384  0.7720
  375MOL0     C50550   8.991   5.096  11.431 -0.4871 -0.2989  0.4472
  375MOL0     C50551   8.904   5.003  11.514  1.0497 -0.3341  0.1849
  375MOL0     C50552   8.930   5.045  11.666 -0.0761 -0.2391  1.0800
  375MOL0     C50553   8.831   4.980  11.748  0.1159  0.0433 -0.2967
  375MOL0     C50554   8.750   4.929  11.837 -0.4093  0.9128 -0.2751
  375MOL0     C50555   9.079   4.746  11.165 -0.6925 -0.0295 -0.5238
  375MOL0     C50556   9.183   4.655  11.133  0.5293 -0.2787  0.2541
  375MOL0     C50557   9.139   4.515  11.100 -0.3809 -0.1120 -0.4808
  375MOL0     H50558   9.785   4.804  11.110  1.5925  0.1760  0.2193
  375MOL0     H50559  10.019   4.716  11.114  2.2366 -2.5156  2.2894
  375MOL0     H50560  10.130   4.557  10.915  1.4859  1.4719 -0.4716
  375MOL0     H50561  10.213   4.599  11.071  0.9246 -0.5916 -0.1102
  375MOL0     H50562  10.320   4.439  10.870  2.8956 -1.1535  0.3814
  375MOL0     H50563  10.232   4.318  10.955  3.3430 -1.2798 -0.0757
  375MOL0     H50564  10.343   4.379  11.166 -3.0978  1.1239 -0.7981
  375MOL0     H50565  10.429   4.519  11.099 -1.0419  0.1494  0.9447
  375MOL0     H50566  10.453   4.233  11.009 -2.0640  0.5234  1.0171
  375MOL0     H50567  10.539   4.370  10.940 -2.0687  1.5540 -1.1082
  375MOL0     H50568  10.613   4.439  11.183  5.0226  0.1116  0.1425
  375MOL0     H50569  10.558   4.289  11.228  1.1668 -1.4136 -1.0237
  375MOL0     H50570  10.765   4.338  11.014 -0.3725  1.6126  0.3337
  375MOL0     H50571  10.800   4.308  11.186  0.8061  0.9433 -2.0605
  375MOL0     H50572  10.790   4.101  10.990  1.7089  0.8431  1.0651
  375MOL0     H50573  10.629   4.092  11.040  0.1140 -1.0058  0.0282
  375MOL0     H50574  10.718   4.055  11.290  3.3283  0.0755  3.0491
  375MOL0     H50575  10.740   3.937  11.173 -0.3109  0.9458  0.0549
  375MOL0     H50576  10.954   4.118  11.419 -0.4892  0.4101 -0.6735
  375MOL0     H50577  11.330   4.047  11.353 -0.3297 -1.1150  0.8964
  375MOL0     H50578  11.226   4.158  11.453 -1.8207  0.9547  0.7112
  375MOL0     H50579  11.135   3.967  11.575  0.6878 -1.2989  0.2414
  375MOL0     H50580  11.238   3.860  11.482 -0.4116 -0.6068 -1.4393
  375MOL0     H50581  11.322   3.938  11.711 -1.9316  0.1030 -0.5387
  375MOL0     H50582  11.325   4.101  11.647 -2.8054  0.2530  0.4668
  375MOL0     H50583  11.481   4.034  11.486 -1.6610 -1.4890 -0.0541
  375MOL0     H50584  11.510   3.877  11.562  1.5651  1.0896 -3.8027
  375MOL0     H50585  11.733   3.926  11.845 -2.1363  1.3977  0.1537
  375MOL0     H50586  11.969   3.950  11.837  0.7249  0.6264 -1.3097
  375MOL0     H50587  12.287   4.132  11.930 -0.7014 -2.2195  1.1777
  375MOL0     H50588  12.523   4.199  11.936  1.1254  0.1045 -0.8633
  375MOL0     H50589  12.881   4.198  11.877  1.3588 -1.2666 -0.4603
  375MOL0     H50590  12.734   4.227  11.949 -0.8244 -0.1275 -0.8370
  375MOL0     H50591  12.843   4.060  12.077 -1.6776 -0.8669  1.6448
  375MOL0     H50592  12.691   4.003  12.010 -0.7788 -0.9336 -1.5815
  375MOL0     H50593  12.803   3.811  11.959 -0.5220 -1.4077 -0.7863
  375MOL0     H50594  12.829   3.898  11.818 -0.0485 -0.6028 -0.6316
  375MOL0     H50595  13.055   3.905  12.049  0.1012 -2.2533  0.3413
  375MOL0     H50596  13.054   3.970  11.886  1.7269 -0.9911 -0.1065
  375MOL0     H50597  13.053   3.727  11.801  0.8722 -0.5855 -0.8872
  375MOL0     H50598  13.040   3.665  11.956  0.5775  0.8336  0.8198
  375MOL0     H50599  13.264   3.642  11.880 -2.9642 -0.2305  0.4184
  375MOL0     H50600  13.271   3.818  11.850 -0.7969 -0.1593 -1.2967
  375MOL0     H50601  13.229   3.699  12.134 -0.7147  2.2412  1.0621
  375MOL0     H50602  13.246   3.865  12.102 -0.5909 -0.1953  1.4459
  375MOL0     H50603  13.455   3.778  12.176  2.8443 -0.9759 -0.7514
  375MOL0     H50604  13.451   3.658  12.051  0.5639  0.1748  0.7406
  375MOL0     H50605  12.612   3.966  11.601  0.9499  1.5145  0.4267
  375MOL0     H50606  12.378   3.898  11.565 -1.3828 -2.8986  2.1258
  375MOL0     H50607  11.945   4.119  11.446  0.4391 -0.1550  1.2453
  375MOL0     H50608  11.721   4.132  11.459 -1.6014 -2.7122 -1.0338
  375MOL0     H50609   9.870   4.316  11.084 -1.1248 -0.3197 -0.5806
  375MOL0     H50610   9.637   4.397  11.104 -0.8672  0.3984 -2.8895
  375MOL0     H50611   9.454   4.866  11.175  0.2947  1.7470 -1.2516
  375MOL0     H50612   9.256   5.026  11.228  1.1089  0.6239 -1.1720
  375MOL0     H50613   8.883   5.109  11.253 -0.6166 -1.2035  0.3696
  375MOL0     H50614   9.064   5.122  11.230 -1.0944 -0.5977 -1.0491
  375MOL0     H50615   8.955   5.199  11.445  0.4602 -0.1207  1.8526
  375MOL0     H50616   9.098   5.092  11.450 -0.4365 -1.5253 -0.0136
  375MOL0     H50617   8.943   4.903  11.494 -0.4174 -1.0167  0.6610
  375MOL0     H50618   8.798   5.003  11.489  1.2528  0.4026 -0.7604
  375MOL0     H50619   9.033   5.023  11.695  0.3189 -0.2934 -0.2843
  375MOL0     H50620   8.917   5.151  11.687  0.4784  0.7804 -2.8701
  375MOL0     H50621   8.679   4.896  11.910 -1.0421  0.3317 -1.1250
  375MOL0     H50622   8.974   4.719  11.158 -1.0460  1.1846 -0.1399
  375MOL0     H50623   9.166   4.445  11.179 -1.0157  0.9967  0.7591
  375MOL0     H50624   9.031   4.504  11.107 -0.5235  0.6847 -1.3051
  375MOL0     H50625   9.178   4.485  11.002  0.6146 -0.0112 -0.1232
  376MOL0     O50626  10.282  10.194   8.617  0.2106 -0.2881  0.2340
  376MOL0     C50627  10.186  10.265   8.586 -0.5239 -0.1918  0.0414
  376MOL0     O50628  10.202  10.402   8.577 -0.6305 -0.5554 -0.4323
  376MOL0     C50629  10.317  10.470   8.575 -0.4700 -0.3782  0.7770
  376MOL0     C50630  10.447  10.416   8.532  0.5946 -0.0781  0.6086
  376MOL0     C50631  10.556  10.496   8.518 -0.1192  0.9025  0.4831
  376MOL0     C50632  10.559  10.628   8.553 -0.1002 -0.1739  0.0889
  376MOL0     O50633  10.675  10.701   8.528 -0.1850  0.2946  0.1648
  376MOL0     C50634  10.733  10.756   8.649 -0.0748 -0.4887  0.0092
  376MOL0     C50635  10.884  10.801   8.608  0.0851 -0.3517 -0.7154
  376MOL0     C50636  10.985  10.801   8.728  0.6580 -0.2870 -0.1535
  376MOL0     C50637  11.129  10.831   8.684  0.4204  0.4072  0.1719
  376MOL0     C50638  11.223  10.854   8.800  1.1941  1.2573  0.2171
  376MOL0     C50639  11.369  10.876   8.772 -0.4782  0.0530 -0.0765
  376MOL0     C50640  11.439  10.867   8.905  0.1746 -0.0407  0.1023
  376MOL0     C50641  11.591  10.889   8.913  0.0479 -0.5602  0.3317
  376MOL0     N50642  11.611  11.010   8.995 -1.2073  0.7458  0.7177
  376MOL0     C50643  11.660  11.130   8.940  0.1456  1.4661 -0.7704
  376MOL0     C50644  11.714  11.195   9.051 -0.1052 -0.5965  0.8048
  376MOL0     C50645  11.754  11.341   9.059  1.0339  1.1848 -0.9782
  376MOL0     C50646  11.898  11.381   9.012  0.4799  0.7327 -0.0486
  376MOL0     C50647  12.005  11.308   9.108 -0.0358  0.6100 -0.4410
  376MOL0     C50648  12.142  11.386   9.128  0.1037  0.0152  0.1002
  376MOL0     O50649  12.197  11.394   8.999 -0.1362  0.0259 -0.0668
  376MOL0     C50650  12.330  11.430   9.004 -0.3579  0.4610 -0.1519
  376MOL0     C50651  12.368  11.555   8.956 -0.0835  0.1767  0.0563
  376MOL0     C50652  12.503  11.591   8.943 -0.4165 -0.6839  0.7295
  376MOL0     C50653  12.603  11.497   8.975 -0.0657  0.1980 -0.3209
  376MOL0     C50654  12.738  11.533   8.964  0.9123  0.7818  0.5357
  376MOL0     O50655  12.768  11.639   8.893  0.3919  0.3761 -0.2225
  376MOL0     C50656  12.893  11.696   8.881 -0.2393  0.1207  0.3635
  376MOL0     C50657  12.897  11.823   8.820  0.0794  0.1191 -0.6830
  376MOL0     C50658  13.020  11.889   8.804  0.3034  0.6332 -0.2061
  376MOL0     C50659  13.137  11.827   8.823 -0.3138 -0.5421  0.1653
  376MOL0     O50660  13.255  11.894   8.796 -0.9355 -0.2107 -0.5124
  376MOL0     C50661  13.368  11.861   8.879  0.2841 -0.4377  0.9130
  376MOL0     C50662  13.452  11.991   8.880 -0.2708  0.0691  1.3221
  376MOL0     C50663  13.552  11.992   8.762 -0.6424 -0.0567 -0.2615
  376MOL0     C50664  13.663  12.092   8.779 -0.4171 -0.1376 -0.3269
  376MOL0     C50665  13.753  12.100   8.658 -0.7956  0.1505 -0.0188
  376MOL0     C50666  13.692  12.139   8.527 -0.1000  0.4256  0.1670
  376MOL0     C50667  13.804  12.146   8.420 -0.3898  0.5605 -0.0965
  376MOL0     C50668  13.749  12.187   8.289 -0.0370 -0.0554  0.3178
  376MOL0    Cl50669  13.882  12.173   8.171 -0.1039  0.0623 -0.1437
  376MOL0     C50670  13.138  11.700   8.876  0.0685  0.5012  0.2121
  376MOL0     C50671  13.014  11.631   8.906 -0.2731  0.6875  0.6461
  376MOL0     O50672  12.814  11.456   9.025  0.0358  0.1581 -0.2376
  376MOL0     C50673  12.562  11.379   9.036 -0.7184  0.2797 -0.3257
  376MOL0     C50674  12.428  11.339   9.051 -0.1266 -0.1192  0.1201
  376MOL0     N50675  11.713  11.103   9.156 -0.3677  0.5380  0.2492
  376MOL0     N50676  11.647  11.000   9.123  0.0613  0.3061  0.2133
  376MOL0     C50677  10.431  10.688   8.600 -0.2693  0.2888  0.9672
  376MOL0     C50678  10.313  10.608   8.594 -0.3519  0.0578 -0.0286
  376MOL0     C50679  10.053  10.212   8.573 -0.0320 -0.3042 -0.2293
  376MOL0     C50680   9.950  10.299   8.541  0.9596  0.4721  0.2215
  376MOL0     C50681   9.815  10.259   8.556 -0.0449 -0.0443 -0.4041
  376MOL0     C50682   9.782  10.127   8.588  0.7243  0.2765  0.4700
  376MOL0     O50683   9.644  10.097   8.595  0.3017 -0.3210 -0.1905
  376MOL0     C50684   9.600   9.979   8.662  0.3796 -0.5085 -0.2540
  376MOL0     C50685   9.451  10.009   8.688 -0.1604 -0.2111  0.4823
  376MOL0     C50686   9.382   9.874   8.703 -0.0526 -0.6498  0.2203
  376MOL0     C50687   9.271   9.870   8.815  0.5958 -0.0397  0.2408
  376MOL0     C50688   9.157   9.957   8.786  0.0048  0.5173  0.2667
  376MOL0     C50689   9.060  10.025   8.753  0.1071 -0.5077  0.2309
  376MOL0     C50690   9.884  10.038   8.616  0.0473 -0.4851  0.6351
  376MOL0     C50691  10.020  10.076   8.608 -0.2642  0.1554  0.1909
  376MOL0     C50692  10.124   9.969   8.631  0.3043 -0.1167  0.2832
  376MOL0     H50693  10.454  10.316   8.490 -2.9925 -0.5352  0.7802
  376MOL0     H50694  10.646  10.444   8.486 -1.5835 -3.2381  2.2987
  376MOL0     H50695  10.676  10.839   8.692  1.5375 -0.1585  1.6606
  376MOL0     H50696  10.747  10.680   8.726  2.1940  0.0121  0.1799
  376MOL0     H50697  10.881  10.901   8.564  0.8804 -0.3650 -0.8119
  376MOL0     H50698  10.913  10.725   8.536 -1.9348 -1.7160 -0.1796
  376MOL0     H50699  10.983  10.706   8.781 -2.0101 -0.5064 -0.5401
  376MOL0     H50700  10.955  10.887   8.788  0.8010  1.9822 -3.1282
  376MOL0     H50701  11.167  10.744   8.629  0.4856 -0.0869  0.9768
  376MOL0     H50702  11.134  10.924   8.626 -0.5904  1.5516  1.8279
  376MOL0     H50703  11.179  10.939   8.854  1.4602  0.7590  1.2541
  376MOL0     H50704  11.217  10.763   8.862  2.8183  0.2476 -1.0425
  376MOL0     H50705  11.419  10.803   8.707  1.0121  3.0051 -2.5266
  376MOL0     H50706  11.362  10.966   8.710 -3.3017 -0.7396 -1.0713
  376MOL0     H50707  11.419  10.765   8.940 -0.2233  0.1699  0.4935
  376MOL0     H50708  11.392  10.940   8.971 -0.7511 -2.3233  2.1077
  376MOL0     H50709  11.633  10.812   8.979 -3.4573 -0.3603  3.1183
  376MOL0     H50710  11.654  10.896   8.824  1.9037  4.4959  1.6823
  376MOL0     H50711  11.640  11.164   8.839  1.0017  1.9145 -0.7990
  376MOL0     H50712  11.681  11.393   8.996  0.0043 -0.0014 -0.8151
  376MOL0     H50713  11.730  11.378   9.160  0.5341  1.7442 -1.2982
  376MOL0     H50714  11.923  11.340   8.913  0.4046 -1.5303  0.8185
  376MOL0     H50715  11.915  11.489   9.004  2.9365  0.4534  0.4027
  376MOL0     H50716  12.028  11.213   9.060 -2.2784  0.1003 -0.6569
  376MOL0     H50717  11.959  11.289   9.205 -0.9829 -1.3485 -1.2218
  376MOL0     H50718  12.209  11.335   9.198  0.1705  1.2259  0.9447
  376MOL0     H50719  12.125  11.487   9.165 -2.1131 -0.3864  0.2989
  376MOL0     H50720  12.292  11.630   8.935  0.2895  1.4969  2.9694
  376MOL0     H50721  12.536  11.685   8.900  0.6182 -0.6329  1.6072
  376MOL0     H50722  12.802  11.872   8.803 -0.8062 -1.5490 -0.6554
  376MOL0     H50723  13.025  11.990   8.765 -0.6180  0.8790  0.2730
  376MOL0     H50724  13.333  11.842   8.980  0.2906  0.6642  1.1417
  376MOL0     H50725  13.422  11.776   8.838  0.4166 -0.9076  2.0238
  376MOL0     H50726  13.385  12.076   8.864 -2.0965 -1.3552  0.9836
  376MOL0     H50727  13.491  12.004   8.982 -1.8981  1.0178  1.8600
  376MOL0     H50728  13.599  11.893   8.759 -0.3493 -0.0621  2.1286
  376MOL0     H50729  13.508  12.001   8.663  1.8089  1.0260 -1.3482
  376MOL0     H50730  13.727  12.075   8.866 -0.7091  1.5773  0.2597
  376MOL0     H50731  13.627  12.194   8.794 -1.6111 -0.4446 -1.0342
  376MOL0     H50732  13.813  12.009   8.647 -0.4545  0.4281 -0.5275
  376MOL0     H50733  13.829  12.174   8.687 -0.1509 -0.5783  0.1896
  376MOL0     H50734  13.613  12.073   8.492 -2.2259  1.1544  3.2429
  376MOL0     H50735  13.649  12.239   8.530 -1.5245 -0.2049  1.4535
  376MOL0     H50736  13.841  12.044   8.407 -0.3295  0.6294 -0.4579
  376MOL0     H50737  13.877  12.214   8.465 -0.2251 -1.1795  2.5142
  376MOL0     H50738  13.665  12.129   8.250 -0.3813  1.1256 -0.7593
  376MOL0     H50739  13.722  12.293   8.285 -1.9167 -0.5269 -0.2587
  376MOL0     H50740  13.233  11.652   8.894 -0.6208 -0.6209  1.0049
  376MOL0     H50741  13.012  11.526   8.934  0.5086  0.2682 -0.7215
  376MOL0     H50742  12.634  11.313   9.085 -1.2839 -1.1243 -1.3120
  376MOL0     H50743  12.398  11.241   9.087  0.1606  0.0635  0.8650
  376MOL0     H50744  10.423  10.794   8.619  3.2929  1.0345 -0.7683
  376MOL0     H50745  10.220  10.660   8.615  1.7722  5.2323 -1.6732
  376MOL0     H50746   9.976  10.399   8.508  0.7365  0.4590  0.0017
  376MOL0     H50747   9.732  10.323   8.528 -0.4771 -0.6367 -0.5097
  376MOL0     H50748   9.645   9.953   8.758  0.7160 -1.7633 -0.7291
  376MOL0     H50749   9.609   9.904   8.583 -1.5431  0.0834 -1.0926
  376MOL0     H50750   9.392  10.057   8.610 -2.7942 -2.1405  1.1599
  376MOL0     H50751   9.445  10.054   8.788  0.4433 -0.4366  0.6272
  376MOL0     H50752   9.456   9.796   8.724  0.2833 -0.5852 -0.6857
  376MOL0     H50753   9.351   9.843   8.602  0.8148 -0.9370  0.0329
  376MOL0     H50754   9.246   9.764   8.823  1.9067 -0.3280  0.8587
  376MOL0     H50755   9.321   9.895   8.909 -1.2270  2.0269  0.7442
  376MOL0     H50756   8.974  10.084   8.728  1.3654  2.2771  2.0285
  376MOL0     H50757   9.867   9.935   8.646 -2.8018  0.4192  2.5524
  376MOL0     H50758  10.216   9.984   8.574  0.0739  2.9911  0.5873
  376MOL0     H50759  10.147   9.996   8.734 -0.4229  0.3494  0.3237
  376MOL0     H50760  10.088   9.866   8.622 -0.9272  0.1845  1.4553
  377MOL0     O50761   7.390   4.416   6.721 -0.5793 -0.4320 -0.1343
  377MOL0     C50762   7.300   4.360   6.658 -0.5786  0.0414 -0.3771
  377MOL0     O50763   7.286   4.365   6.522 -0.2951  0.2943 -0.2351
  377MOL0     C50764   7.391   4.413   6.443 -0.2238 -0.6651 -0.5502
  377MOL0     C50765   7.407   4.546   6.415  0.0957 -0.3331 -0.2862
  377MOL0     C50766   7.513   4.592   6.336 -0.1265  0.1540 -0.4688
  377MOL0     C50767   7.599   4.505   6.278  0.3490 -0.0917  0.3975
  377MOL0     O50768   7.701   4.557   6.198 -0.0892  0.3622 -0.1834
  377MOL0     C50769   7.830   4.492   6.207  0.2846  0.8094  0.0240
  377MOL0     C50770   7.928   4.561   6.112 -0.8430 -0.4208 -0.6346
  377MOL0     C50771   7.966   4.710   6.148 -0.0961 -0.4070  0.5451
  377MOL0     C50772   8.081   4.776   6.062  0.9703  0.8486  0.9644
  377MOL0     C50773   8.220   4.733   6.108 -0.0337 -0.0744 -0.4091
  377MOL0     C50774   8.324   4.799   6.021 -0.1991 -0.2611 -0.0712
  377MOL0     C50775   8.464   4.771   6.067  0.8799  0.7517 -0.0021
  377MOL0     C50776   8.518   4.644   6.001 -0.3411 -0.2353 -0.0518
  377MOL0     N50777   8.650   4.636   6.057 -0.2690 -0.3791  0.3539
  377MOL0     C50778   8.688   4.520   6.111 -0.2050  0.6347  0.1967
  377MOL0     C50779   8.817   4.524   6.122 -0.8652 -0.3521  0.2226
  377MOL0     C50780   8.906   4.413   6.185 -0.6659  0.2146  0.8624
  377MOL0     C50781   8.985   4.467   6.302 -0.8711 -0.6877  0.3582
  377MOL0     C50782   8.908   4.543   6.415 -0.0543 -0.7772  0.1698
  377MOL0     C50783   8.990   4.627   6.504 -0.6651  0.5875  0.2654
  377MOL0     O50784   8.901   4.651   6.615 -0.2387  0.2709  0.0999
  377MOL0     C50785   8.955   4.682   6.735  0.1198 -1.1340 -0.8934
  377MOL0     C50786   8.864   4.678   6.841  0.3941 -0.0258  0.1664
  377MOL0     C50787   8.901   4.724   6.964 -0.3140  0.4144 -0.2755
  377MOL0     C50788   9.026   4.772   7.000  0.3173  0.2901 -1.1446
  377MOL0     C50789   9.051   4.830   7.137 -0.6555 -0.1668 -0.4897
  377MOL0     O50790   8.950   4.825   7.232 -0.3049  0.9506  0.6569
  377MOL0     C50791   8.956   4.867   7.364  0.4157  0.0164 -0.2265
  377MOL0     C50792   8.839   4.851   7.442 -0.1030 -0.7987  0.7578
  377MOL0     C50793   8.836   4.872   7.576 -0.4033  0.3066  0.6227
  377MOL0     C50794   8.953   4.918   7.643  0.0082 -0.1902 -0.8827
  377MOL0     O50795   8.971   4.929   7.783  0.0233  0.1236  0.0933
  377MOL0     C50796   8.856   4.928   7.873  0.2500 -0.0784  0.1611
  377MOL0     C50797   8.849   4.778   7.921 -0.6026 -0.1046 -0.3750
  377MOL0     C50798   8.727   4.750   8.009  0.5010 -0.5980  0.0992
  377MOL0     C50799   8.602   4.694   7.931  0.5592 -0.1303  0.1633
  377MOL0     C50800   8.489   4.657   8.031 -0.1666 -0.3903  0.4003
  377MOL0     C50801   8.439   4.770   8.119 -0.2148 -0.7590 -0.3612
  377MOL0     C50802   8.318   4.742   8.206 -0.4758 -0.0929 -0.0355
  377MOL0     C50803   8.243   4.855   8.270 -0.0195 -0.3937 -0.1752
  377MOL0    Cl50804   8.341   4.925   8.405  0.2156 -0.2661 -0.2818
  377MOL0     C50805   9.071   4.928   7.571  0.2156 -0.0234  0.5172
  377MOL0     C50806   9.069   4.910   7.433  0.6334 -0.2693 -0.4985
  377MOL0     O50807   9.156   4.891   7.150 -0.0230  0.3338 -0.8105
  377MOL0     C50808   9.126   4.756   6.899 -0.5544  0.4193  0.6150
  377MOL0     C50809   9.092   4.722   6.766  0.5310 -0.9738  0.7411
  377MOL0     N50810   8.861   4.647   6.080 -0.7200 -0.3659  0.7177
  377MOL0     N50811   8.767   4.713   6.031 -0.0220 -0.3089  0.8475
  377MOL0     C50812   7.573   4.365   6.293 -0.6109 -0.1757  0.2625
  377MOL0     C50813   7.471   4.320   6.372  0.6691 -0.5077 -1.1587
  377MOL0     C50814   7.224   4.258   6.740 -0.6573 -0.5192  0.5027
  377MOL0     C50815   7.171   4.156   6.668  0.3438  0.2071 -0.5525
  377MOL0     C50816   7.092   4.055   6.724  0.6905 -0.3958  0.2220
  377MOL0     C50817   7.069   4.049   6.860 -0.1768 -0.7793  0.8659
  377MOL0     O50818   6.997   3.944   6.909 -0.8402  0.0824  0.9111
  377MOL0     C50819   6.903   3.959   7.011 -0.2593  0.4193  0.1962
  377MOL0     C50820   6.789   4.054   6.968  0.8964 -0.0298 -0.2105
  377MOL0     C50821   6.666   4.040   7.059  0.2452 -0.3830 -0.0090
  377MOL0     C50822   6.558   4.147   7.038 -0.2986  0.0163  1.0502
  377MOL0     C50823   6.456   4.145   7.146  0.9047  0.1957 -0.4174
  377MOL0     C50824   6.395   4.146   7.250 -0.8097  0.1248 -1.0061
  377MOL0     C50825   7.143   4.135   6.935 -0.2052 -0.2188 -0.2718
  377MOL0     C50826   7.217   4.238   6.882 -0.3589  0.6091 -0.0270
  377MOL0     C50827   7.313   4.310   6.972 -0.0371  0.6745  0.7949
  377MOL0     H50828   7.358   4.628   6.465  0.9054  0.3822 -0.6351
  377MOL0     H50829   7.506   4.700   6.326 -0.5524  0.2365  0.5789
  377MOL0     H50830   7.881   4.491   6.304  1.5227 -1.0129 -0.5837
  377MOL0     H50831   7.828   4.387   6.176 -0.2037  1.1925 -1.2977
  377MOL0     H50832   7.879   4.556   6.015 -1.0717 -1.2557 -0.4807
  377MOL0     H50833   8.023   4.508   6.109 -0.7737 -0.3085 -0.4819
  377MOL0     H50834   8.001   4.711   6.251  0.5464 -1.1115  0.3466
  377MOL0     H50835   7.872   4.763   6.133  1.5214  1.9027 -2.6068
  377MOL0     H50836   8.078   4.752   5.955  2.0897  1.8367  0.6830
  377MOL0     H50837   8.076   4.885   6.068  2.5013  1.2138 -1.9613
  377MOL0     H50838   8.220   4.761   6.214 -1.5762  0.3955 -0.4998
  377MOL0     H50839   8.224   4.624   6.115 -3.0260 -0.2117  0.7780
  377MOL0     H50840   8.316   4.777   5.914 -0.2404  0.4124 -0.2092
  377MOL0     H50841   8.314   4.908   6.028  2.7390  0.1239 -0.5436
  377MOL0     H50842   8.469   4.762   6.176  0.7125  1.3239  0.0539
  377MOL0     H50843   8.531   4.851   6.032  2.5763 -0.4286  0.3845
  377MOL0     H50844   8.457   4.554   6.011 -0.3927 -0.1623  0.3185
  377MOL0     H50845   8.534   4.659   5.894  1.1573 -0.9183  0.0473
  377MOL0     H50846   8.641   4.427   6.140  2.1503 -0.6382  0.2175
  377MOL0     H50847   8.842   4.334   6.226  1.4671 -0.0214  4.0780
  377MOL0     H50848   8.978   4.386   6.108 -1.2296 -0.4320  0.5511
  377MOL0     H50849   9.034   4.381   6.351  1.6818  1.8328  2.5969
  377MOL0     H50850   9.073   4.526   6.274 -0.3345 -0.6491  1.9819
  377MOL0     H50851   8.853   4.469   6.474 -0.7462 -0.8255 -0.5183
  377MOL0     H50852   8.828   4.604   6.373 -2.0466 -1.6047  2.5163
  377MOL0     H50853   9.019   4.719   6.454  1.9765 -0.3140 -0.0042
  377MOL0     H50854   9.083   4.577   6.530 -0.7559  0.2425 -0.0669
  377MOL0     H50855   8.769   4.631   6.816  1.0198 -1.2791  0.0784
  377MOL0     H50856   8.825   4.709   7.040  0.2498  0.4897  0.3145
  377MOL0     H50857   8.755   4.808   7.389  1.3778 -1.7172 -0.9728
  377MOL0     H50858   8.746   4.852   7.635 -0.4395  2.4895  1.3786
  377MOL0     H50859   8.893   4.983   7.961  3.1937 -1.9128  0.2019
  377MOL0     H50860   8.764   4.968   7.829 -0.1855  0.8402  1.8183
  377MOL0     H50861   8.850   4.711   7.835  0.5762 -1.0113  0.3209
  377MOL0     H50862   8.945   4.760   7.972 -0.0562  0.2852 -1.2430
  377MOL0     H50863   8.762   4.673   8.079  2.4908 -0.1555 -0.3519
  377MOL0     H50864   8.695   4.839   8.063 -0.0593  1.2774 -3.0613
  377MOL0     H50865   8.628   4.610   7.867  0.3048 -0.1079  0.0339
  377MOL0     H50866   8.561   4.773   7.869 -2.7322 -2.4394 -0.8405
  377MOL0     H50867   8.538   4.581   8.093 -0.5455 -0.8438  0.1510
  377MOL0     H50868   8.400   4.614   7.984 -1.9671  2.0109  1.4022
  377MOL0     H50869   8.520   4.809   8.182 -0.3066 -1.5968  0.3027
  377MOL0     H50870   8.416   4.851   8.049 -1.7252 -1.5889 -0.8620
  377MOL0     H50871   8.354   4.675   8.284 -0.8723 -0.9142 -0.5353
  377MOL0     H50872   8.248   4.681   8.146 -0.1841 -2.1694  1.6072
  377MOL0     H50873   8.227   4.929   8.191 -2.6358 -0.8700 -0.1685
  377MOL0     H50874   8.145   4.814   8.297  0.4865 -1.8413 -0.4900
  377MOL0     H50875   9.159   4.961   7.626  1.7849 -1.3584 -1.0356
  377MOL0     H50876   9.168   4.904   7.388  1.1176 -1.7522  0.6798
  377MOL0     H50877   9.228   4.776   6.931  0.1127 -0.5465 -0.8087
  377MOL0     H50878   9.170   4.737   6.692  0.5562 -0.4932  0.8604
  377MOL0     H50879   7.642   4.304   6.236 -0.8985 -0.7607  0.5315
  377MOL0     H50880   7.456   4.214   6.384  0.0896 -0.4495 -1.3243
  377MOL0     H50881   7.191   4.140   6.562  3.7477 -0.5268  0.0879
  377MOL0     H50882   7.053   3.969   6.671 -0.7947 -1.9740  3.5796
  377MOL0     H50883   6.946   4.001   7.103  0.6705  1.0908 -0.5289
  377MOL0     H50884   6.856   3.862   7.030  1.1297 -0.8360 -2.2750
  377MOL0     H50885   6.763   4.027   6.865  0.0520  0.9672 -0.2684
  377MOL0     H50886   6.822   4.158   6.961 -0.8601  0.4991 -1.3629
  377MOL0     H50887   6.708   4.053   7.159  2.5214  1.0118 -1.0491
  377MOL0     H50888   6.622   3.942   7.043 -2.0229  0.6216 -0.3388
  377MOL0     H50889   6.620   4.237   7.046  2.8197 -2.1343  3.2819
  377MOL0     H50890   6.512   4.141   6.938  0.1372 -0.8603  0.8893
  377MOL0     H50891   6.352   4.170   7.345 -1.0428  0.0226 -1.0852
  377MOL0     H50892   7.153   4.106   7.039  3.4227  2.8683  0.4385
  377MOL0     H50893   7.417   4.277   6.965  0.1925  1.3518  0.8844
  377MOL0     H50894   7.310   4.418   6.952  0.8701  0.4122 -0.9260
  377MOL0     H50895   7.272   4.301   7.073 -1.4631 -0.3135  0.1642
  378MOL0     O50896   7.009   4.501   6.753 -0.2223  0.2084 -0.3359
  378MOL0     C50897   6.949   4.604   6.792 -0.0406 -0.4804 -0.3415
  378MOL0     O50898   6.982   4.735   6.758 -0.7200  0.3183 -0.2228
  378MOL0     C50899   7.113   4.763   6.709 -0.1782  0.4756  0.3886
  378MOL0     C50900   7.116   4.861   6.599  0.0618  0.5593  0.4162
  378MOL0     C50901   7.233   4.904   6.550 -0.4234  0.8450  0.3480
  378MOL0     C50902   7.359   4.859   6.598  0.1329 -1.2735  0.3868
  378MOL0     O50903   7.481   4.888   6.545 -0.2509 -0.2221 -0.0669
  378MOL0     C50904   7.492   5.009   6.465  0.0787  0.0098 -0.1218
  378MOL0     C50905   7.632   5.005   6.387  0.4131 -0.4382 -0.3378
  378MOL0     C50906   7.618   5.096   6.259  0.2460  0.6323  0.0975
  378MOL0     C50907   7.667   5.234   6.278  0.5100 -0.0504 -0.2580
  378MOL0     C50908   7.668   5.315   6.153  0.8232 -0.7751  0.0364
  378MOL0     C50909   7.706   5.464   6.164 -0.2881 -0.0786 -0.1052
  378MOL0     C50910   7.696   5.527   6.033  0.0158  0.0753 -0.1495
  378MOL0     C50911   7.688   5.680   6.050  0.1725  0.1741  0.1614
  378MOL0     N50912   7.720   5.745   5.922 -0.6319  0.0311 -0.4235
  378MOL0     C50913   7.843   5.750   5.853 -0.0597  0.5756  0.3826
  378MOL0     C50914   7.809   5.797   5.726  0.7721  0.7834  0.1396
  378MOL0     C50915   7.901   5.807   5.604 -0.0521 -0.2259 -1.0492
  378MOL0     C50916   8.047   5.835   5.633  0.1787 -0.5832  0.0211
  378MOL0     C50917   8.076   5.968   5.697  0.5156  0.4475 -0.1267
  378MOL0     C50918   8.187   5.960   5.790 -0.1175 -0.0431 -0.3338
  378MOL0     O50919   8.297   5.912   5.732 -0.3314 -0.1451 -0.2538
  378MOL0     C50920   8.422   5.946   5.773 -0.3681 -0.2447 -0.3388
  378MOL0     C50921   8.523   5.886   5.694  0.1873  0.0052 -0.5687
  378MOL0     C50922   8.658   5.911   5.728  0.0854  0.2596 -0.7698
  378MOL0     C50923   8.696   6.009   5.826  0.1831 -0.0389  0.6339
  378MOL0     C50924   8.838   6.037   5.858  0.2435 -0.3036 -0.4649
  378MOL0     O50925   8.935   5.973   5.789  0.3078  1.1109 -0.0119
  378MOL0     C50926   9.069   5.977   5.829  1.1289  0.0364  0.1808
  378MOL0     C50927   9.150   5.898   5.757 -0.7046  0.7919  0.0623
  378MOL0     C50928   9.293   5.894   5.777  0.3359  0.9222  0.3510
  378MOL0     C50929   9.350   5.971   5.873 -1.0093  0.1113  0.2136
  378MOL0     O50930   9.480   5.952   5.902 -0.4464  0.1699  0.7568
  378MOL0     C50931   9.534   5.969   6.035 -1.1589  0.1669  0.3800
  378MOL0     C50932   9.689   5.959   6.040  0.1333  0.6446 -0.2725
  378MOL0     C50933   9.748   6.004   6.181  0.4387  0.2388 -0.9678
  378MOL0     C50934   9.892   5.959   6.175  0.0120 -0.2897 -0.7340
  378MOL0     C50935   9.968   5.982   6.300  0.3902 -0.8098  0.0756
  378MOL0     C50936   9.982   6.129   6.349  0.2119  0.3587  0.4861
  378MOL0     C50937  10.054   6.228   6.261 -0.7196  0.4328  0.1395
  378MOL0     C50938  10.079   6.356   6.338 -1.3742  0.2993  0.8336
  378MOL0    Cl50939  10.169   6.346   6.492  0.1054 -0.2683 -0.0984
  378MOL0     C50940   9.270   6.069   5.947  0.0159 -0.5245 -0.2994
  378MOL0     C50941   9.130   6.073   5.914  0.2164 -0.3936  0.8370
  378MOL0     O50942   8.850   6.120   5.952  0.3496 -0.0009  0.2231
  378MOL0     C50943   8.591   6.056   5.909 -0.3260 -0.2507  0.6162
  378MOL0     C50944   8.457   6.031   5.881 -0.3451 -0.7772  0.3667
  378MOL0     N50945   7.675   5.833   5.732  0.0147  0.5283 -0.5952
  378MOL0     N50946   7.623   5.790   5.842  0.4837 -0.1622 -0.1359
  378MOL0     C50947   7.360   4.762   6.694  0.0623 -0.1394  0.1023
  378MOL0     C50948   7.237   4.711   6.748 -0.5518 -0.2529 -0.2118
  378MOL0     C50949   6.826   4.589   6.880 -0.1978  0.7691  0.3824
  378MOL0     C50950   6.709   4.650   6.844 -0.4365  0.0203 -0.3509
  378MOL0     C50951   6.593   4.643   6.917 -0.1885  0.4061 -0.1526
  378MOL0     C50952   6.592   4.564   7.035 -0.2112 -0.1377  0.2355
  378MOL0     O50953   6.497   4.552   7.132  0.4713  0.1570 -0.2059
  378MOL0     C50954   6.368   4.617   7.117 -0.0420  0.1183  0.1698
  378MOL0     C50955   6.262   4.549   7.208  0.6798  0.4188  0.3817
  378MOL0     C50956   6.202   4.428   7.140  0.4220 -0.5538 -0.2660
  378MOL0     C50957   6.116   4.351   7.233  0.7114  0.2833 -0.0505
  378MOL0     C50958   6.006   4.426   7.293  0.1748  0.7282  0.0603
  378MOL0     C50959   5.905   4.481   7.337  0.0676 -0.2493  0.2523
  378MOL0     C50960   6.712   4.502   7.078 -0.0083  0.4310  0.2337
  378MOL0     C50961   6.827   4.518   6.994  0.5762  0.1810 -0.4963
  378MOL0     C50962   6.953   4.457   7.047  0.0530  0.4395 -0.5363
  378MOL0     H50963   7.015   4.894   6.577 -0.7650 -2.5156 -0.7984
  378MOL0     H50964   7.212   4.974   6.470  0.0649 -0.4872 -0.9872
  378MOL0     H50965   7.419   5.008   6.384 -0.4244  1.5087  0.2754
  378MOL0     H50966   7.480   5.104   6.518 -0.0215  0.2165 -0.5172
  378MOL0     H50967   7.657   4.908   6.342  2.2372  0.2685 -0.9533
  378MOL0     H50968   7.717   5.022   6.455 -0.9575 -0.1052  1.3707
  378MOL0     H50969   7.517   5.079   6.220 -0.0650  0.3807  0.9905
  378MOL0     H50970   7.688   5.054   6.185  0.0544  0.8401 -0.2047
  378MOL0     H50971   7.610   5.278   6.360 -1.0756 -0.9673 -0.8119
  378MOL0     H50972   7.771   5.241   6.313  0.2951  1.4817  0.1468
  378MOL0     H50973   7.740   5.263   6.090  2.4327 -0.0043  1.1656
  378MOL0     H50974   7.569   5.307   6.108 -0.1145 -0.3827  1.9065
  378MOL0     H50975   7.633   5.507   6.233  0.1317 -0.2975  0.4751
  378MOL0     H50976   7.803   5.462   6.213 -0.9356 -0.8534  1.1789
  378MOL0     H50977   7.611   5.496   5.973  0.1744 -1.1856  0.2418
  378MOL0     H50978   7.785   5.497   5.977  1.5360 -0.6338  2.4342
  378MOL0     H50979   7.585   5.695   6.082 -0.5872 -1.2614 -1.4396
  378MOL0     H50980   7.770   5.724   6.106  0.3104  1.0162 -0.6754
  378MOL0     H50981   7.940   5.721   5.891  1.0609 -0.2802 -2.8621
  378MOL0     H50982   7.892   5.712   5.551 -0.6450 -0.7180 -0.0854
  378MOL0     H50983   7.857   5.885   5.541 -0.8837  0.3369  0.1718
  378MOL0     H50984   8.071   5.767   5.715 -0.9456 -0.6437  0.3140
  378MOL0     H50985   8.113   5.811   5.548  0.2756 -0.0213 -0.0679
  378MOL0     H50986   7.985   5.994   5.751  1.0621 -1.9121  2.1617
  378MOL0     H50987   8.093   6.040   5.616 -0.3773  0.0515 -0.6771
  378MOL0     H50988   8.160   5.905   5.880 -0.0144  3.5548  2.0787
  378MOL0     H50989   8.209   6.063   5.817 -2.4069 -0.3436  3.3727
  378MOL0     H50990   8.492   5.813   5.620 -1.0734  0.6648 -0.7147
  378MOL0     H50991   8.741   5.865   5.676  0.6653  2.6314 -2.1206
  378MOL0     H50992   9.118   5.827   5.681  0.9943 -1.6607  1.5134
  378MOL0     H50993   9.347   5.810   5.733  2.2992  0.8781  2.6704
  378MOL0     H50994   9.512   6.072   6.065  2.4335  0.3737  2.9572
  378MOL0     H50995   9.477   5.898   6.096 -2.7019 -0.8674 -2.0805
  378MOL0     H50996   9.712   5.859   6.002  1.4454  1.3798 -1.5020
  378MOL0     H50997   9.726   6.019   5.956  1.2093 -0.2684 -0.4627
  378MOL0     H50998   9.745   6.114   6.176 -0.3940  0.3271  0.6471
  378MOL0     H50999   9.694   5.976   6.272 -1.5989  2.0078 -1.5529
  378MOL0     H51000   9.939   6.021   6.098 -1.2223  1.0795 -0.4486
  378MOL0     H51001   9.896   5.852   6.153 -0.0840 -0.2489 -0.9568
  378MOL0     H51002  10.072   5.948   6.290  0.4406 -1.3783  2.0710
  378MOL0     H51003   9.928   5.923   6.382  0.9204 -0.2933  0.7137
  378MOL0     H51004   9.880   6.168   6.348  0.8896  2.3793 -2.1565
  378MOL0     H51005  10.021   6.129   6.451 -2.0913  1.7386  1.4329
  378MOL0     H51006  10.000   6.241   6.167 -2.1092 -1.7735  0.5618
  378MOL0     H51007  10.153   6.191   6.231 -1.6046  0.2234 -2.8846
  378MOL0     H51008  10.117   6.433   6.270 -1.4045 -0.0581  0.4087
  378MOL0     H51009   9.980   6.394   6.366 -2.3539  0.3980 -2.4435
  378MOL0     H51010   9.311   6.133   6.024 -1.1736  1.8022 -1.4851
  378MOL0     H51011   9.070   6.147   5.966 -0.0831  0.5125 -0.7080
  378MOL0     H51012   8.599   6.121   5.996 -2.5543 -0.7597  1.2728
  378MOL0     H51013   8.378   6.068   5.945 -1.8622  0.8987 -2.3007
  378MOL0     H51014   7.460   4.723   6.710 -0.1048 -0.6817 -0.1265
  378MOL0     H51015   7.236   4.640   6.831 -0.7847  0.2707  0.2332
  378MOL0     H51016   6.707   4.716   6.758  0.8669  1.4379  0.6580
  378MOL0     H51017   6.501   4.698   6.900 -0.2227  0.1328 -0.8923
  378MOL0     H51018   6.337   4.610   7.013  3.0894 -4.6597 -0.8168
  378MOL0     H51019   6.375   4.719   7.154 -0.0171  0.7293 -1.4513
  378MOL0     H51020   6.184   4.626   7.219  1.3450  1.1186  0.2511
  378MOL0     H51021   6.305   4.528   7.306 -3.0177  2.7800  2.7868
  378MOL0     H51022   6.291   4.374   7.108  0.0318 -1.4458  0.1187
  378MOL0     H51023   6.146   4.450   7.048 -0.7653  0.6101  0.6812
  378MOL0     H51024   6.074   4.262   7.185 -1.5821  1.5425 -0.4861
  378MOL0     H51025   6.183   4.313   7.311 -1.3234  0.6710  1.9638
  378MOL0     H51026   5.822   4.527   7.384 -0.9946  0.6441 -2.3110
  378MOL0     H51027   6.706   4.453   7.175 -1.2906 -2.9553 -1.4046
  378MOL0     H51028   6.951   4.476   7.155  1.4738 -0.8564 -0.2474
  378MOL0     H51029   6.935   4.351   7.029 -1.2178  0.8560 -1.8630
  378MOL0     H51030   7.041   4.507   7.005 -1.3200  4.0178  0.5177
  379MOL0     O51031   4.768   5.838   6.426  0.2674  0.2266  0.0852
  379MOL0     C51032   4.751   5.808   6.313 -0.2513  0.5794  0.6223
  379MOL0     O51033   4.817   5.711   6.254  0.3534 -0.4405  0.4851
  379MOL0     C51034   4.916   5.642   6.316 -0.7657  0.6243 -0.8006
  379MOL0     C51035   4.899   5.505   6.347 -0.6713  0.0711 -0.4078
  379MOL0     C51036   5.000   5.420   6.397  0.6891 -0.1787  0.4524
  379MOL0     C51037   5.123   5.478   6.424  0.3749 -0.1354 -0.4289
  379MOL0     O51038   5.219   5.394   6.475  0.6650  0.2450 -0.2258
  379MOL0     C51039   5.359   5.420   6.437  0.8408  0.2046 -0.7644
  379MOL0     C51040   5.442   5.297   6.494  0.4734 -0.1006 -0.0013
  379MOL0     C51041   5.591   5.316   6.443  0.2566 -0.6808 -0.0597
  379MOL0     C51042   5.687   5.208   6.488 -1.2424 -0.6935  0.8982
  379MOL0     C51043   5.832   5.215   6.425 -0.7649  0.1702  0.5086
  379MOL0     C51044   5.918   5.344   6.456  0.6809  0.3651  0.5138
  379MOL0     C51045   6.055   5.334   6.388  0.5278 -0.1028 -0.3189
  379MOL0     C51046   6.156   5.251   6.473 -0.6126  0.5260 -1.2882
  379MOL0     N51047   6.211   5.330   6.579  0.1898  0.5119 -0.0108
  379MOL0     C51048   6.320   5.421   6.562  0.3776  0.2998 -0.4715
  379MOL0     C51049   6.335   5.472   6.682  0.7560 -0.4416 -0.1381
  379MOL0     C51050   6.446   5.572   6.711 -1.1234  0.0739 -0.3633
  379MOL0     C51051   6.585   5.508   6.725  1.1766 -0.1106 -0.2493
  379MOL0     C51052   6.611   5.425   6.854 -0.2557 -0.6821 -0.2817
  379MOL0     C51053   6.755   5.432   6.882 -0.1478  0.6935  0.4064
  379MOL0     O51054   6.785   5.328   6.987  0.9686 -1.1306  0.3014
  379MOL0     C51055   6.901   5.348   7.055  0.0955 -0.4791  0.0129
  379MOL0     C51056   6.924   5.251   7.154  0.3116 -0.0700  0.9518
  379MOL0     C51057   7.051   5.238   7.212  0.6505  0.3367 -0.7641
  379MOL0     C51058   7.146   5.336   7.187  0.0240  0.5162 -0.2607
  379MOL0     C51059   7.285   5.319   7.227  0.7124  0.6026 -0.2815
  379MOL0     O51060   7.316   5.255   7.344 -0.1696  0.0778  0.2758
  379MOL0     C51061   7.443   5.211   7.368  0.1136 -0.0625  0.4746
  379MOL0     C51062   7.468   5.072   7.381 -0.7161 -0.1997 -0.9071
  379MOL0     C51063   7.602   5.029   7.403 -0.4791 -0.0803 -0.2320
  379MOL0     C51064   7.708   5.116   7.404 -0.0588  0.8043 -0.1596
  379MOL0     O51065   7.834   5.076   7.421  0.0922  0.2069 -0.3024
  379MOL0     C51066   7.873   4.954   7.349  0.2802  0.2025 -0.2995
  379MOL0     C51067   7.857   4.951   7.197 -0.5680  0.2561  0.4058
  379MOL0     C51068   7.870   4.803   7.163  0.3840  0.2380  0.1443
  379MOL0     C51069   7.896   4.788   7.017  0.2779  0.9686  0.5511
  379MOL0     C51070   7.816   4.670   6.961  0.6329 -0.0223  0.0210
  379MOL0     C51071   7.824   4.681   6.814  0.3239  0.3175 -0.4462
  379MOL0     C51072   7.745   4.574   6.747  0.0945  0.0471 -0.3003
  379MOL0     C51073   7.711   4.613   6.601  0.7009 -0.3412  0.2041
  379MOL0    Cl51074   7.851   4.649   6.498 -0.2011  0.2558 -0.8229
  379MOL0     C51075   7.678   5.253   7.390 -0.0489 -0.5774 -0.1261
  379MOL0     C51076   7.550   5.296   7.364  0.1614 -0.1052 -0.7281
  379MOL0     O51077   7.365   5.355   7.139 -0.1882  0.0749 -0.4018
  379MOL0     C51078   7.121   5.442   7.096  0.1727  0.5031  0.4270
  379MOL0     C51079   7.001   5.442   7.027  0.7819  0.5028  1.0673
  379MOL0     N51080   6.235   5.425   6.766 -0.0815  0.4998  0.0863
  379MOL0     N51081   6.165   5.333   6.702 -0.4153 -0.0124  0.6932
  379MOL0     C51082   5.141   5.614   6.400  0.9978 -0.4127  0.8207
  379MOL0     C51083   5.043   5.694   6.348  0.0124  0.2493 -0.1412
  379MOL0     C51084   4.642   5.867   6.232  0.1346  0.1233  0.2521
  379MOL0     C51085   4.542   5.918   6.307 -0.2470 -0.1501  0.1135
  379MOL0     C51086   4.426   5.964   6.248  0.2745  0.2743  0.8041
  379MOL0     C51087   4.400   5.934   6.112  0.4170 -0.0545  0.0890
  379MOL0     O51088   4.279   5.963   6.051 -0.5930 -0.0708 -0.4368
  379MOL0     C51089   4.176   6.034   6.132 -0.0132 -0.1027 -0.3966
  379MOL0     C51090   4.087   6.096   6.029 -0.2889 -0.0678  0.2949
  379MOL0     C51091   3.981   6.190   6.081 -0.2158 -0.2868  0.4372
  379MOL0     C51092   3.865   6.114   6.150  0.0149 -0.7837  0.3998
  379MOL0     C51093   3.812   6.019   6.057 -0.4000  0.7290  0.4468
  379MOL0     C51094   3.756   5.952   5.967  0.3336 -0.2000 -0.7828
  379MOL0     C51095   4.496   5.874   6.039  0.1198 -0.3340  0.5508
  379MOL0     C51096   4.628   5.847   6.090  0.0350 -0.4983  0.5852
  379MOL0     C51097   4.737   5.789   6.006  0.2128 -0.4719  0.4963
  379MOL0     H51098   4.803   5.463   6.319 -0.6853  0.7242 -1.3802
  379MOL0     H51099   4.984   5.315   6.418  0.8215 -0.8326 -2.3315
  379MOL0     H51100   5.369   5.421   6.328  1.9314  3.0919 -0.7243
  379MOL0     H51101   5.402   5.517   6.463 -0.4608  1.0430 -1.6168
  379MOL0     H51102   5.403   5.202   6.456 -0.9055  0.3633  0.1863
  379MOL0     H51103   5.427   5.303   6.603 -0.6961  2.0705 -0.2246
  379MOL0     H51104   5.626   5.409   6.490  3.0212 -1.7895  0.2247
  379MOL0     H51105   5.588   5.334   6.336 -1.6964 -2.9582 -0.4593
  379MOL0     H51106   5.697   5.233   6.594 -1.0872 -2.0749  1.2147
  379MOL0     H51107   5.641   5.109   6.482  0.9704 -1.8021  1.1773
  379MOL0     H51108   5.890   5.130   6.463  0.3261  1.9384  3.1443
  379MOL0     H51109   5.819   5.198   6.318 -2.3187  1.0730  0.5228
  379MOL0     H51110   5.868   5.424   6.401  2.3712 -0.9067 -3.2771
  379MOL0     H51111   5.929   5.374   6.560  0.5771  2.8607 -0.1378
  379MOL0     H51112   6.102   5.431   6.373  1.3165  0.3897  4.0510
  379MOL0     H51113   6.041   5.291   6.288 -1.1354 -0.0601 -0.1357
  379MOL0     H51114   6.094   5.175   6.522 -3.0094  2.5321 -1.0168
  379MOL0     H51115   6.233   5.207   6.410  1.0189 -0.1068  1.0454
  379MOL0     H51116   6.377   5.444   6.472  0.2978  2.6802  0.0233
  379MOL0     H51117   6.463   5.641   6.628  2.2949  0.2949  0.3812
  379MOL0     H51118   6.424   5.625   6.804 -1.1945 -0.7936  0.1216
  379MOL0     H51119   6.604   5.438   6.644 -0.2361  2.3876 -2.8979
  379MOL0     H51120   6.661   5.586   6.718  0.6352  0.5496  0.8661
  379MOL0     H51121   6.592   5.319   6.837 -3.9851 -0.0306 -0.8556
  379MOL0     H51122   6.539   5.446   6.933 -1.3094 -5.2384  0.2195
  379MOL0     H51123   6.784   5.534   6.908 -0.0115  0.7251  0.1359
  379MOL0     H51124   6.806   5.410   6.787 -2.3230  0.3255 -0.7476
  379MOL0     H51125   6.851   5.170   7.157 -1.3271  1.2646 -0.8059
  379MOL0     H51126   7.080   5.150   7.268  2.1607  1.6615  0.6282
  379MOL0     H51127   7.385   5.003   7.389 -0.5673 -0.1884  3.1550
  379MOL0     H51128   7.613   4.921   7.413 -1.8301 -0.2969 -0.8366
  379MOL0     H51129   7.976   4.923   7.369 -0.2748 -0.8250  1.1108
  379MOL0     H51130   7.808   4.877   7.391 -0.0164 -0.1936 -1.4489
  379MOL0     H51131   7.753   4.981   7.178 -0.9551  1.0039  3.1380
  379MOL0     H51132   7.937   5.002   7.143 -0.0055 -3.0882 -2.1876
  379MOL0     H51133   7.957   4.761   7.214 -0.7037 -1.0605  0.9970
  379MOL0     H51134   7.781   4.757   7.206  0.2874  0.2130 -0.0811
  379MOL0     H51135   8.001   4.761   7.003 -0.6463 -4.6329  1.9997
  379MOL0     H51136   7.869   4.876   6.958 -1.8671 -0.0657 -0.1485
  379MOL0     H51137   7.712   4.682   6.991  1.0484 -0.2427  1.6394
  379MOL0     H51138   7.850   4.573   6.998 -1.2681 -0.1050  1.7082
  379MOL0     H51139   7.791   4.777   6.772  1.7343  0.5446 -1.0943
  379MOL0     H51140   7.929   4.681   6.785  0.9110  1.4676  1.4401
  379MOL0     H51141   7.645   4.576   6.790  0.0367  1.3669 -0.4613
  379MOL0     H51142   7.788   4.474   6.756 -1.1010 -0.5437 -0.9535
  379MOL0     H51143   7.656   4.531   6.554 -3.5195  1.2589  1.8897
  379MOL0     H51144   7.644   4.699   6.608 -0.0708 -0.9642  0.6199
  379MOL0     H51145   7.762   5.320   7.404 -1.0149  0.4048  1.1616
  379MOL0     H51146   7.536   5.402   7.347 -0.1312 -0.5809 -4.1905
  379MOL0     H51147   7.202   5.506   7.063  0.1709  0.2651 -0.0563
  379MOL0     H51148   7.000   5.515   6.947  3.7815 -2.1514 -1.7173
  379MOL0     H51149   5.242   5.650   6.410  1.5299 -0.2709 -3.3601
  379MOL0     H51150   5.068   5.799   6.332  1.9448  0.0366  1.2195
  379MOL0     H51151   4.545   5.922   6.415  0.1475 -2.5828  0.2509
  379MOL0     H51152   4.349   6.001   6.315 -1.5141 -2.3305  0.3268
  379MOL0     H51153   4.213   6.120   6.188 -2.1995  1.3720 -1.0983
  379MOL0     H51154   4.127   5.967   6.203  0.9497 -0.7311 -0.2962
  379MOL0     H51155   4.044   6.014   5.972  0.9667  0.9417 -2.2556
  379MOL0     H51156   4.157   6.164   5.979  0.5551  0.9739  2.7155
  379MOL0     H51157   3.931   6.245   6.001  0.1755 -1.6578 -0.7864
  379MOL0     H51158   4.025   6.250   6.161  0.3013  0.6827 -0.5436
  379MOL0     H51159   3.906   6.057   6.234  2.0239 -1.1750 -0.8000
  379MOL0     H51160   3.785   6.180   6.187 -1.6121 -2.1197 -0.5895
  379MOL0     H51161   3.697   5.894   5.899 -0.2822  0.8713 -1.1825
  379MOL0     H51162   4.488   5.856   5.932  3.1110  1.7937 -0.1753
  379MOL0     H51163   4.722   5.796   5.898  1.0689 -2.9054  0.1551
  379MOL0     H51164   4.833   5.838   6.025 -0.3667  1.9882 -2.1811
  379MOL0     H51165   4.745   5.682   6.027 -2.8726 -1.0070 -0.6222
  380MOL0     O51166   5.503   3.092   9.104  0.2497  0.5201 -1.0490
  380MOL0     C51167   5.463   2.970   9.084 -0.2656 -0.6918 -1.2296
  380MOL0     O51168   5.533   2.872   9.006 -0.1211 -0.1583  0.0166
  380MOL0     C51169   5.636   2.924   8.924 -0.4170 -0.1342 -0.8056
  380MOL0     C51170   5.751   2.850   8.913 -0.7222 -0.2067  0.4596
  380MOL0     C51171   5.866   2.897   8.847 -0.6009  0.1388  0.5587
  380MOL0     C51172   5.871   3.027   8.791 -0.3613 -0.6875 -0.6732
  380MOL0     O51173   5.992   3.072   8.732 -0.1849 -0.0469 -0.4064
  380MOL0     C51174   6.038   3.202   8.773 -0.0793  0.1724  0.1180
  380MOL0     C51175   6.161   3.238   8.690  0.0857 -0.7299 -0.2766
  380MOL0     C51176   6.242   3.366   8.739  0.1198  0.6148  0.2110
  380MOL0     C51177   6.158   3.502   8.764  0.2592 -0.4690  0.3781
  380MOL0     C51178   6.233   3.637   8.782  0.2683  0.0585  0.3970
  380MOL0     C51179   6.357   3.623   8.871  0.4047 -0.1541 -0.5590
  380MOL0     C51180   6.409   3.759   8.910  0.2009 -0.3769  0.1780
  380MOL0     C51181   6.541   3.748   9.000  0.6668  0.3420 -0.0615
  380MOL0     N51182   6.508   3.685   9.133  0.0469  0.3397  0.8460
  380MOL0     C51183   6.544   3.556   9.166  0.1156  0.2385  0.5055
  380MOL0     C51184   6.520   3.550   9.301  0.2028  0.1143  0.2410
  380MOL0     C51185   6.557   3.434   9.403 -1.0164 -0.0206 -0.3558
  380MOL0     C51186   6.710   3.420   9.423 -0.7120 -0.4297  0.9072
  380MOL0     C51187   6.739   3.300   9.508  0.4312 -0.1727 -0.1046
  380MOL0     C51188   6.854   3.210   9.468  0.5643  0.1502  0.1189
  380MOL0     O51189   6.970   3.294   9.461  0.5018  1.0939  0.0080
  380MOL0     C51190   7.091   3.243   9.406 -0.0947 -0.0923 -0.4211
  380MOL0     C51191   7.186   3.319   9.342 -0.1718  0.2671  0.0025
  380MOL0     C51192   7.304   3.277   9.281 -0.2199  0.7835 -0.0342
  380MOL0     C51193   7.348   3.146   9.323 -0.3149  0.0177  0.7979
  380MOL0     C51194   7.475   3.107   9.262  0.6788 -0.4594  0.4728
  380MOL0     O51195   7.507   2.976   9.264  0.4058  0.7179 -0.0127
  380MOL0     C51196   7.639   2.932   9.239 -0.3805 -0.1236  0.3928
  380MOL0     C51197   7.713   2.861   9.334 -0.6371  1.0358 -0.1711
  380MOL0     C51198   7.838   2.821   9.300 -0.0945  0.4270  0.2936
  380MOL0     C51199   7.893   2.850   9.171 -0.2911  0.3008  0.3072
  380MOL0     O51200   8.013   2.802   9.122 -0.1571 -0.3848 -0.4306
  380MOL0     C51201   8.107   2.733   9.207  0.0544  0.6561 -0.7885
  380MOL0     C51202   8.242   2.696   9.138 -0.3091  0.5573  0.1242
  380MOL0     C51203   8.311   2.594   9.239  0.0036  0.7850  0.8786
  380MOL0     C51204   8.442   2.554   9.184  0.2030 -0.7865 -0.5748
  380MOL0     C51205   8.518   2.449   9.275 -0.1632 -0.1243  1.0515
  380MOL0     C51206   8.645   2.397   9.207  0.5242  0.2226  0.2488
  380MOL0     C51207   8.674   2.249   9.219 -0.3817  0.0520 -0.7986
  380MOL0     C51208   8.815   2.222   9.168  0.2911 -1.0137 -0.1037
  380MOL0    Cl51209   8.844   2.046   9.150 -0.9542  0.0039 -0.1276
  380MOL0     C51210   7.817   2.922   9.080 -0.2634  0.4712 -0.4882
  380MOL0     C51211   7.690   2.967   9.118 -0.7532 -0.9833  0.7594
  380MOL0     O51212   7.555   3.198   9.237  0.1114  0.2640 -0.2169
  380MOL0     C51213   7.259   3.071   9.405 -0.3509  0.3287  0.2678
  380MOL0     C51214   7.132   3.116   9.437 -0.5884  0.9357  0.6587
  380MOL0     N51215   6.460   3.666   9.341  0.4065 -0.4449 -0.2085
  380MOL0     N51216   6.458   3.746   9.241  0.4377 -0.0619  0.2078
  380MOL0     C51217   5.752   3.100   8.805  0.0121 -0.7060  0.1479
  380MOL0     C51218   5.636   3.051   8.865 -0.3426  0.2417  0.0054
  380MOL0     C51219   5.344   2.911   9.155 -0.4092  0.5160 -0.3471
  380MOL0     C51220   5.228   2.987   9.147 -0.2554 -0.4765 -0.1711
  380MOL0     C51221   5.097   2.942   9.193  0.6118  0.6239  0.5603
  380MOL0     C51222   5.086   2.824   9.259 -0.6132  0.1904  0.0610
  380MOL0     O51223   4.965   2.781   9.302 -0.5226  0.5202  0.1582
  380MOL0     C51224   4.959   2.653   9.361  0.2499 -0.4254 -0.3151
  380MOL0     C51225   4.817   2.627   9.401  0.0949 -0.4922 -0.2036
  380MOL0     C51226   4.804   2.507   9.491 -0.5601 -0.0458 -0.5416
  380MOL0     C51227   4.669   2.490   9.550  0.1112  0.1792 -0.0012
  380MOL0     C51228   4.652   2.356   9.615 -0.4702 -0.0151  0.7737
  380MOL0     C51229   4.635   2.244   9.661 -0.1350  0.6522 -0.2508
  380MOL0     C51230   5.206   2.746   9.279 -0.0242  0.1072 -0.0823
  380MOL0     C51231   5.330   2.790   9.226 -0.5011 -0.0192  0.3615
  380MOL0     C51232   5.447   2.694   9.244 -0.1904  0.0423 -0.8149
  380MOL0     H51233   5.762   2.748   8.948  0.1674 -1.6321 -3.4415
  380MOL0     H51234   5.953   2.835   8.830  1.5972  2.6681  1.8640
  380MOL0     H51235   5.951   3.265   8.751 -0.9469 -0.3488  1.8710
  380MOL0     H51236   6.063   3.204   8.880  2.2254 -3.3688 -0.1929
  380MOL0     H51237   6.119   3.256   8.591  2.3463 -2.1705 -1.5873
  380MOL0     H51238   6.222   3.149   8.673  1.7017  0.8006 -3.2166
  380MOL0     H51239   6.306   3.382   8.651 -0.4516  2.1421  0.0461
  380MOL0     H51240   6.282   3.327   8.832 -3.0365 -1.7032  0.7713
  380MOL0     H51241   6.094   3.531   8.681  0.0780  0.8527  0.9523
  380MOL0     H51242   6.092   3.495   8.851 -2.4670 -0.6124 -1.5692
  380MOL0     H51243   6.262   3.675   8.684 -0.4604 -0.1687  0.0875
  380MOL0     H51244   6.167   3.715   8.822  2.7678  2.9453 -0.6148
  380MOL0     H51245   6.328   3.574   8.964 -0.0064  1.7814  0.3647
  380MOL0     H51246   6.440   3.567   8.827 -0.4389 -1.6225 -0.3539
  380MOL0     H51247   6.339   3.827   8.959 -0.0100 -0.8853  0.5901
  380MOL0     H51248   6.437   3.805   8.815 -2.1446 -0.9488 -0.8733
  380MOL0     H51249   6.628   3.705   8.950  1.5723  4.4233 -2.4142
  380MOL0     H51250   6.571   3.849   9.026  0.1873 -0.5234  4.6462
  380MOL0     H51251   6.610   3.489   9.111 -1.2378 -0.9304  0.2414
  380MOL0     H51252   6.505   3.454   9.497 -0.5919  0.0409 -0.1298
  380MOL0     H51253   6.528   3.340   9.355  2.1861 -1.1756 -0.3144
  380MOL0     H51254   6.768   3.421   9.331 -0.5523 -0.7220  1.0009
  380MOL0     H51255   6.749   3.514   9.463 -1.5693  0.6475 -0.7142
  380MOL0     H51256   6.648   3.240   9.518  0.5070 -0.3277 -0.3353
  380MOL0     H51257   6.759   3.342   9.607 -0.5108  2.6264 -1.0068
  380MOL0     H51258   6.838   3.159   9.373  3.4378  0.3561 -0.5454
  380MOL0     H51259   6.867   3.133   9.545  0.3275 -0.6820 -0.6600
  380MOL0     H51260   7.158   3.423   9.332 -0.1516  0.1481 -1.7064
  380MOL0     H51261   7.377   3.347   9.243 -0.0079  2.1993  2.7112
  380MOL0     H51262   7.671   2.843   9.433 -0.3350 -1.8876 -0.4723
  380MOL0     H51263   7.898   2.766   9.373  1.4876 -0.3398 -1.4739
  380MOL0     H51264   8.125   2.787   9.301 -1.7472 -0.7013  0.4041
  380MOL0     H51265   8.064   2.641   9.248  1.1432  2.0083  4.1261
  380MOL0     H51266   8.222   2.659   9.037 -1.3475  3.1353 -0.6969
  380MOL0     H51267   8.314   2.776   9.116  2.5883 -2.2685 -1.5863
  380MOL0     H51268   8.321   2.645   9.336 -2.2510  2.3172  0.3715
  380MOL0     H51269   8.257   2.503   9.266  2.6647 -1.0630  0.3805
  380MOL0     H51270   8.503   2.640   9.153  0.9779 -2.2878 -3.5674
  380MOL0     H51271   8.421   2.499   9.092  0.2433 -0.0816 -1.0135
  380MOL0     H51272   8.444   2.368   9.287 -3.3000  1.9967 -2.0537
  380MOL0     H51273   8.537   2.487   9.376  2.6762 -0.1618  0.6002
  380MOL0     H51274   8.641   2.420   9.100  3.6090  0.1904  0.0319
  380MOL0     H51275   8.726   2.451   9.256  2.1994 -3.2861  1.6692
  380MOL0     H51276   8.602   2.195   9.157 -1.1962 -0.5877  0.6521
  380MOL0     H51277   8.659   2.213   9.321 -1.8406 -1.4042 -1.4736
  380MOL0     H51278   8.818   2.280   9.075 -0.7895  0.1948  0.5788
  380MOL0     H51279   8.887   2.259   9.242 -1.2470 -2.6060  2.3549
  380MOL0     H51280   7.856   2.939   8.979  0.1245 -2.4734 -0.9268
  380MOL0     H51281   7.643   3.029   9.042 -0.6611 -1.0438  0.6504
  380MOL0     H51282   7.276   2.968   9.432 -1.1974 -0.9967 -3.6489
  380MOL0     H51283   7.063   3.062   9.502 -2.0191  0.0767 -1.4656
  380MOL0     H51284   5.740   3.201   8.767 -0.0474 -1.2809 -1.4595
  380MOL0     H51285   5.540   3.102   8.867  0.5869  2.0661  1.0732
  380MOL0     H51286   5.224   3.084   9.100 -0.3502  0.0372  0.8672
  380MOL0     H51287   5.013   3.008   9.176  1.1335  0.9460 -0.9676
  380MOL0     H51288   5.018   2.654   9.452 -1.0514  0.2110  0.5608
  380MOL0     H51289   4.994   2.583   9.285  3.5985  1.6297 -0.8442
  380MOL0     H51290   4.757   2.615   9.310 -0.7523 -0.0691  0.2822
  380MOL0     H51291   4.791   2.717   9.457  0.6022 -1.2909  1.3680
  380MOL0     H51292   4.874   2.537   9.570  0.6712  2.6269 -2.5080
  380MOL0     H51293   4.825   2.415   9.436  0.0021 -0.1423 -0.1749
  380MOL0     H51294   4.641   2.572   9.617  1.8624  1.0706 -0.3122
  380MOL0     H51295   4.595   2.497   9.470 -2.8654 -1.9703  2.3307
  380MOL0     H51296   4.633   2.145   9.703  2.2420  0.1793 -1.0691
  380MOL0     H51297   5.207   2.646   9.320  0.2710  0.8047  1.7345
  380MOL0     H51298   5.543   2.724   9.203 -0.0505  0.0133 -0.5084
  380MOL0     H51299   5.460   2.678   9.352  0.2176 -1.0999 -1.0249
  380MOL0     H51300   5.414   2.599   9.200 -2.1611 -0.0739  0.7560
  381MOL0     O51301   8.304  10.018   2.857 -0.0222 -0.0524 -0.4635
  381MOL0     C51302   8.222   9.944   2.906  0.2600 -0.8122  0.1761
  381MOL0     O51303   8.249   9.812   2.937  0.4627 -0.5541  0.1412
  381MOL0     C51304   8.374   9.755   2.920 -0.2451  0.1832 -0.5674
  381MOL0     C51305   8.444   9.749   2.795  0.1895 -0.0551 -0.2871
  381MOL0     C51306   8.569   9.692   2.785  0.1192  0.0026  0.4613
  381MOL0     C51307   8.629   9.647   2.897 -0.1141  0.4024 -0.3896
  381MOL0     O51308   8.756   9.606   2.877  0.4241 -0.6684 -0.3984
  381MOL0     C51309   8.814   9.516   2.971  0.0997 -0.7475  0.1592
  381MOL0     C51310   8.925   9.435   2.909  0.4959 -0.1399  0.0821
  381MOL0     C51311   8.889   9.290   2.877 -0.8402 -0.2158 -1.1888
  381MOL0     C51312   9.012   9.211   2.845  0.0362  0.3516  0.4364
  381MOL0     C51313   8.984   9.063   2.789 -0.2561 -0.3915  0.0026
  381MOL0     C51314   9.094   8.965   2.785  0.1922 -0.6558  0.1828
  381MOL0     C51315   9.134   8.901   2.921 -0.7726  0.6368 -0.2071
  381MOL0     C51316   9.282   8.891   2.936  0.2006  0.1673 -0.1462
  381MOL0     N51317   9.331   9.026   2.965  0.4235  0.6693 -0.6192
  381MOL0     C51318   9.327   9.086   3.083  1.1855  1.1834  0.3147
  381MOL0     C51319   9.356   9.216   3.061 -0.1571 -1.3078  0.0764
  381MOL0     C51320   9.358   9.335   3.145  0.4023  0.4931  0.4301
  381MOL0     C51321   9.493   9.381   3.193 -0.0273  0.3721 -0.6793
  381MOL0     C51322   9.554   9.295   3.305  0.1952  0.5724 -0.0290
  381MOL0     C51323   9.700   9.333   3.327 -0.6042 -0.3804  0.8647
  381MOL0     O51324   9.747   9.311   3.459 -0.4897  0.4570  0.1162
  381MOL0     C51325   9.886   9.321   3.485 -0.2377  0.3989 -0.3442
  381MOL0     C51326   9.967   9.397   3.404 -0.9440 -0.6140  0.6036
  381MOL0     C51327  10.106   9.401   3.421  0.4413  0.0765 -0.0828
  381MOL0     C51328  10.170   9.332   3.529  0.4848 -1.1559 -0.0567
  381MOL0     C51329  10.315   9.333   3.546 -0.7891  0.8421 -0.3270
  381MOL0     O51330  10.381   9.393   3.450  0.4462  0.8777 -0.0499
  381MOL0     C51331  10.512   9.379   3.464  0.8528 -0.6499 -0.5439
  381MOL0     C51332  10.585   9.464   3.550 -0.0527 -0.6078 -0.1854
  381MOL0     C51333  10.723   9.447   3.552 -0.3490  0.0094 -0.0535
  381MOL0     C51334  10.791   9.362   3.468  0.7827 -0.0949  0.1485
  381MOL0     O51335  10.923   9.351   3.487 -0.2155 -0.1190  0.2009
  381MOL0     C51336  10.994   9.253   3.413  0.4467  0.9654  0.3804
  381MOL0     C51337  11.145   9.271   3.409 -0.4536 -0.1724 -0.5928
  381MOL0     C51338  11.178   9.393   3.320 -0.0928 -0.0956  0.2755
  381MOL0     C51339  11.323   9.411   3.275 -1.0730  0.1661  0.2772
  381MOL0     C51340  11.340   9.507   3.145  0.5375 -0.2429  0.6619
  381MOL0     C51341  11.321   9.656   3.177  0.4440  0.4614  0.0521
  381MOL0     C51342  11.363   9.750   3.067 -0.6878 -0.3163  0.6325
  381MOL0     C51343  11.355   9.898   3.105 -0.3797  0.1036  0.0223
  381MOL0    Cl51344  11.188   9.945   3.145 -0.1346  0.5682  0.2949
  381MOL0     C51345  10.713   9.278   3.379  0.8385  0.1746  0.0170
  381MOL0     C51346  10.574   9.283   3.381  0.6402  0.2708  0.0819
  381MOL0     O51347  10.369   9.284   3.648  0.0376  0.1747  0.6003
  381MOL0     C51348  10.086   9.252   3.611 -0.0140  0.4448 -0.0313
  381MOL0     C51349   9.947   9.240   3.585  0.0427  0.9359  0.2090
  381MOL0     N51350   9.392   9.226   2.926 -0.0384 -0.2419 -0.3840
  381MOL0     N51351   9.376   9.109   2.870 -0.3784  0.0556  1.1105
  381MOL0     C51352   8.564   9.656   3.018 -0.1674  0.2098  0.3558
  381MOL0     C51353   8.438   9.699   3.031 -0.0516 -0.5602  0.2018
  381MOL0     C51354   8.094  10.001   2.958 -0.0199 -0.3032  0.8327
  381MOL0     C51355   7.981   9.923   2.942 -0.6838  0.1764  0.3674
  381MOL0     C51356   7.857   9.966   3.000  0.2461 -0.1494  0.3493
  381MOL0     C51357   7.841  10.080   3.075  0.5582 -1.5532  0.7407
  381MOL0     O51358   7.727  10.122   3.141  0.2341 -0.4205  0.1478
  381MOL0     C51359   7.632  10.020   3.183 -0.4466  0.9307  0.4867
  381MOL0     C51360   7.530  10.093   3.284 -0.1960  0.3454 -0.3547
  381MOL0     C51361   7.409  10.009   3.336 -1.2310 -0.1825  0.2271
  381MOL0     C51362   7.301   9.996   3.220  0.3082 -0.1282 -0.1031
  381MOL0     C51363   7.163   9.980   3.269 -0.1028  0.3444  0.9118
  381MOL0     C51364   7.040   9.948   3.298 -0.0195 -0.0813 -0.0459
  381MOL0     C51365   7.958  10.158   3.084 -0.4575 -0.5097 -0.2172
  381MOL0     C51366   8.081  10.120   3.028  0.2991  0.0583 -0.8579
  381MOL0     C51367   8.200  10.206   3.069 -0.9911  0.3537  0.2195
  381MOL0     H51368   8.397   9.793   2.708  0.0061  0.9670  0.3209
  381MOL0     H51369   8.631   9.676   2.697  2.2820  1.7549  1.5488
  381MOL0     H51370   8.867   9.576   3.045  1.2390 -1.2379 -0.2472
  381MOL0     H51371   8.744   9.446   3.016  0.4745 -1.0694  0.2415
  381MOL0     H51372   9.004   9.423   2.983  0.1658 -0.6986  0.3502
  381MOL0     H51373   8.961   9.489   2.821 -0.5116 -0.2481 -0.4184
  381MOL0     H51374   8.821   9.285   2.792  0.9332 -0.9441 -2.6423
  381MOL0     H51375   8.837   9.242   2.960 -0.7534  0.7179 -0.5813
  381MOL0     H51376   9.052   9.268   2.761  0.6217 -2.2872 -1.2143
  381MOL0     H51377   9.078   9.198   2.932  1.6178 -2.1113 -0.9902
  381MOL0     H51378   8.909   9.015   2.854 -0.0025 -0.6290  0.1196
  381MOL0     H51379   8.944   9.070   2.688  0.7184  1.1833 -0.3092
  381MOL0     H51380   9.065   8.889   2.713 -2.0684  0.3154 -0.0134
  381MOL0     H51381   9.188   9.009   2.750 -0.6690  1.0201 -0.1258
  381MOL0     H51382   9.103   8.798   2.938 -0.4974  0.9579  2.6812
  381MOL0     H51383   9.095   8.957   3.006  2.0141  0.6256  1.2179
  381MOL0     H51384   9.314   8.842   3.029 -1.0281 -2.3272 -0.9462
  381MOL0     H51385   9.337   8.849   2.851  2.3468  2.4379 -0.0008
  381MOL0     H51386   9.294   9.040   3.175  2.6340 -0.1779  0.2098
  381MOL0     H51387   9.322   9.418   3.084  0.6415  0.2311 -0.0656
  381MOL0     H51388   9.292   9.326   3.232  0.1777  1.3149  0.3540
  381MOL0     H51389   9.566   9.383   3.112  3.1806  0.8783  1.9819
  381MOL0     H51390   9.486   9.479   3.240  4.0767 -0.7002  2.9255
  381MOL0     H51391   9.547   9.191   3.273 -0.5362  0.6967 -0.2945
  381MOL0     H51392   9.495   9.294   3.398  0.2681 -1.8838  0.0422
  381MOL0     H51393   9.722   9.439   3.308  1.3081 -1.3480 -3.2488
  381MOL0     H51394   9.747   9.275   3.248 -0.9682 -0.7867  0.9420
  381MOL0     H51395   9.926   9.462   3.327  0.8710  1.0175  0.9143
  381MOL0     H51396  10.162   9.468   3.356 -0.8182  1.1770 -0.0874
  381MOL0     H51397  10.538   9.546   3.604 -0.4022 -0.3811 -0.8270
  381MOL0     H51398  10.786   9.505   3.618  1.4495 -1.7287 -0.1417
  381MOL0     H51399  10.985   9.158   3.466 -0.4215  1.1073  0.5072
  381MOL0     H51400  10.956   9.246   3.311 -1.9636  2.2825  1.0851
  381MOL0     H51401  11.181   9.282   3.512 -4.3790 -1.2361  1.0716
  381MOL0     H51402  11.189   9.183   3.360 -1.4118 -0.9376 -0.0982
  381MOL0     H51403  11.104   9.401   3.240 -1.6765  1.0650  1.7741
  381MOL0     H51404  11.150   9.487   3.370 -3.7554  0.0494 -1.6857
  381MOL0     H51405  11.359   9.311   3.249  0.6548  0.8809 -0.2716
  381MOL0     H51406  11.398   9.442   3.348 -1.4184  1.2911  0.1634
  381MOL0     H51407  11.266   9.479   3.070 -0.0104  0.1198  1.0628
  381MOL0     H51408  11.434   9.488   3.091 -1.3567 -1.6466 -2.4037
  381MOL0     H51409  11.213   9.671   3.189  0.3093 -1.1691  1.2189
  381MOL0     H51410  11.366   9.683   3.272 -1.3929  0.0606  1.0936
  381MOL0     H51411  11.309   9.736   2.973  2.0539  0.7353 -1.2416
  381MOL0     H51412  11.470   9.730   3.053 -0.4040 -1.2673  3.5533
  381MOL0     H51413  11.415   9.923   3.193  0.9531 -1.8267 -0.2896
  381MOL0     H51414  11.387   9.970   3.030 -2.0871  1.2072  0.2798
  381MOL0     H51415  10.749   9.206   3.306 -0.1029 -0.4922  0.1768
  381MOL0     H51416  10.513   9.217   3.321  0.6043  1.5151 -1.3268
  381MOL0     H51417  10.136   9.188   3.683 -2.4083 -1.6190 -0.0414
  381MOL0     H51418   9.880   9.176   3.642  0.3272  2.1407  1.9307
  381MOL0     H51419   8.624   9.610   3.096 -0.6287 -2.3767 -0.6884
  381MOL0     H51420   8.389   9.699   3.128  2.5785 -1.9954  1.6371
  381MOL0     H51421   7.982   9.828   2.889  1.3206  0.4514 -0.1529
  381MOL0     H51422   7.771   9.900   2.993  0.5159 -0.5057  0.3427
  381MOL0     H51423   7.673   9.931   3.230 -2.4656 -2.6565 -3.7953
  381MOL0     H51424   7.589   9.991   3.087  1.4291 -0.6041  0.0543
  381MOL0     H51425   7.486  10.180   3.235  1.0251  1.2188  0.0348
  381MOL0     H51426   7.584  10.134   3.370  0.4258 -1.2962  0.0792
  381MOL0     H51427   7.364  10.051   3.426 -1.9409 -0.8975  0.2123
  381MOL0     H51428   7.442   9.908   3.361 -0.6523 -0.0896 -0.1370
  381MOL0     H51429   7.286  10.088   3.164 -1.5836 -1.3832 -1.8335
  381MOL0     H51430   7.329   9.918   3.148 -1.2373  1.5186 -2.6513
  381MOL0     H51431   6.936   9.929   3.315  0.2616 -0.2099  1.6987
  381MOL0     H51432   7.957  10.257   3.129 -0.2589 -0.2600 -0.7541
  381MOL0     H51433   8.282  10.223   2.999 -2.2204  2.3094 -0.8535
  381MOL0     H51434   8.165  10.303   3.106 -1.7679  0.1345  0.0775
  381MOL0     H51435   8.251  10.150   3.148 -2.8934 -0.7519  0.7453
  382MOL0     O51436   0.271   1.686   2.674  0.6784  0.6254 -0.2666
  382MOL0     C51437   0.307   1.569   2.666  0.5425 -0.1455  0.7625
  382MOL0     O51438   0.427   1.523   2.604  1.3405  0.1254  0.0125
  382MOL0     C51439   0.528   1.616   2.589  0.0805 -0.2602  0.7410
  382MOL0     C51440   0.563   1.717   2.686  0.1082 -0.0598  0.6888
  382MOL0     C51441   0.685   1.784   2.661 -0.1191  0.0176  0.3659
  382MOL0     C51442   0.757   1.772   2.546  0.4456  0.3410  0.0948
  382MOL0     O51443   0.864   1.856   2.513  0.2371 -0.1899 -0.2378
  382MOL0     C51444   0.917   1.946   2.607 -0.3203 -0.3939 -0.5110
  382MOL0     C51445   1.053   1.992   2.558  0.5669  0.4576  1.4200
  382MOL0     C51446   1.134   1.867   2.525 -0.2235  0.7288  0.0929
  382MOL0     C51447   1.269   1.912   2.473 -0.5865  0.2236 -0.7094
  382MOL0     C51448   1.346   1.813   2.401  0.3461  0.0582 -0.2058
  382MOL0     C51449   1.505   1.829   2.410  0.0877 -0.9728 -0.2042
  382MOL0     C51450   1.578   1.720   2.339 -0.6618  0.6073 -0.8303
  382MOL0     C51451   1.545   1.711   2.183 -0.1068 -0.8809 -0.5091
  382MOL0     N51452   1.648   1.663   2.099 -0.6062  0.5298  0.1317
  382MOL0     C51453   1.755   1.731   2.043 -0.2253  0.3693  0.0722
  382MOL0     C51454   1.839   1.632   1.996 -0.5906 -0.0253  0.5928
  382MOL0     C51455   1.975   1.648   1.930 -0.2510  0.4734  0.0527
  382MOL0     C51456   1.982   1.594   1.780 -0.4422  0.0598  0.5464
  382MOL0     C51457   2.047   1.461   1.776 -0.8103  0.7186 -0.7282
  382MOL0     C51458   2.045   1.415   1.636 -0.2444 -0.3430 -0.2452
  382MOL0     O51459   2.105   1.507   1.539  0.0338 -0.2337 -0.2930
  382MOL0     C51460   2.214   1.463   1.463  0.4950  0.3673 -0.6746
  382MOL0     C51461   2.295   1.347   1.489 -0.5293 -0.0739 -0.0278
  382MOL0     C51462   2.411   1.321   1.417  0.2225  0.9717  1.7999
  382MOL0     C51463   2.445   1.396   1.308  0.4653  0.5821  0.3329
  382MOL0     C51464   2.560   1.362   1.221 -0.7132  0.6019 -0.8629
  382MOL0     O51465   2.627   1.471   1.167  0.4649 -0.0256 -0.5037
  382MOL0     C51466   2.758   1.471   1.117  0.7423  0.6015  0.0522
  382MOL0     C51467   2.865   1.386   1.145 -0.3828  0.5311 -0.1101
  382MOL0     C51468   2.985   1.413   1.083  0.2571  0.7708  0.9159
  382MOL0     C51469   3.007   1.507   0.979  0.0520  0.2675 -0.0167
  382MOL0     O51470   3.126   1.507   0.920 -0.6127  0.4094 -1.1282
  382MOL0     C51471   3.173   1.628   0.876 -0.0983  0.5122  0.1888
  382MOL0     C51472   3.319   1.610   0.856 -0.6913  0.1967 -0.1690
  382MOL0     C51473   3.359   1.487   0.773  0.2228 -0.1482  0.0098
  382MOL0     C51474   3.512   1.476   0.793  0.6445 -0.1491  0.4759
  382MOL0     C51475   3.580   1.363   0.730 -0.3260 -0.6611  0.7639
  382MOL0     C51476   3.563   1.340   0.577  0.2842  0.4431  0.0091
  382MOL0     C51477   3.696   1.281   0.521  0.7830  0.3931  0.5311
  382MOL0     C51478   3.684   1.247   0.375 -0.3111 -0.2326 -0.1452
  382MOL0    Cl51479   3.846   1.188   0.328  0.1710  0.2130  0.6148
  382MOL0     C51480   2.901   1.593   0.959 -0.3022 -0.1814  0.3313
  382MOL0     C51481   2.777   1.570   1.022 -0.1517 -0.2832 -0.2473
  382MOL0     O51482   2.607   1.252   1.221  0.4791  1.2546 -0.2045
  382MOL0     C51483   2.368   1.511   1.284 -0.4189 -0.2843  0.0309
  382MOL0     C51484   2.260   1.544   1.360 -0.6953  0.5243  0.2722
  382MOL0     N51485   1.782   1.506   2.027  0.4303 -0.2030  0.3377
  382MOL0     N51486   1.665   1.524   2.081  0.0302  0.3130  0.7252
  382MOL0     C51487   0.723   1.667   2.458  0.3366  0.4280  1.0066
  382MOL0     C51488   0.608   1.589   2.477  0.4231  0.0669  0.8535
  382MOL0     C51489   0.214   1.461   2.693 -0.3004  0.2518 -0.5678
  382MOL0     C51490   0.233   1.334   2.627 -0.4822  0.1004  0.1807
  382MOL0     C51491   0.148   1.227   2.642 -0.6942  0.0415  0.1593
  382MOL0     C51492   0.043   1.230   2.732  0.0611 -0.0027 -0.2272
  382MOL0     O51493  -0.027   1.120   2.768  0.7715 -0.3300 -0.7425
  382MOL0     C51494  -0.134   1.097   2.675 -0.1681  0.2742 -0.2450
  382MOL0     C51495  -0.175   0.950   2.695  0.0278  0.5476  0.2527
  382MOL0     C51496  -0.062   0.846   2.667  1.0356 -0.1763  0.5584
  382MOL0     C51497  -0.081   0.710   2.727 -0.8266 -0.3967 -0.3032
  382MOL0     C51498  -0.199   0.650   2.666  0.0862  0.9251 -0.1845
  382MOL0     C51499  -0.304   0.616   2.626  1.0431  0.7888 -0.4099
  382MOL0     C51500   0.020   1.352   2.798  0.4021  0.5511 -0.2843
  382MOL0     C51501   0.104   1.463   2.788  0.5414  0.2591  0.1288
  382MOL0     C51502   0.059   1.584   2.881  0.1438  0.1122  0.6990
  382MOL0     H51503   0.504   1.729   2.776  0.0380  3.2987  0.3223
  382MOL0     H51504   0.717   1.855   2.737  1.1080 -0.4695  0.3285
  382MOL0     H51505   0.854   2.034   2.626 -1.3320 -1.6599  2.5853
  382MOL0     H51506   0.933   1.901   2.705 -0.2176 -0.6030 -0.6226
  382MOL0     H51507   1.097   2.065   2.626 -2.5458  0.8528  3.2411
  382MOL0     H51508   1.035   2.046   2.465  1.5510  0.3885  1.1836
  382MOL0     H51509   1.082   1.806   2.451  0.4050 -0.5372  0.6414
  382MOL0     H51510   1.147   1.797   2.609  2.5950  0.0157 -0.8195
  382MOL0     H51511   1.251   2.008   2.423  0.4140  0.7277 -0.1399
  382MOL0     H51512   1.323   1.943   2.563 -0.0930  0.7253 -1.1645
  382MOL0     H51513   1.323   1.716   2.447  2.0535  0.8855  2.6971
  382MOL0     H51514   1.318   1.811   2.296  2.2694 -0.8302 -0.7548
  382MOL0     H51515   1.522   1.928   2.367 -1.8945 -0.1639  0.7043
  382MOL0     H51516   1.529   1.843   2.516 -0.1933  1.0747 -0.3646
  382MOL0     H51517   1.558   1.626   2.392  0.2678  0.6834 -0.3207
  382MOL0     H51518   1.683   1.749   2.348 -0.7309  1.0668 -1.4226
  382MOL0     H51519   1.451   1.658   2.163 -2.2304  1.5200  2.1522
  382MOL0     H51520   1.529   1.813   2.150 -0.0039  0.1719  2.3866
  382MOL0     H51521   1.768   1.838   2.053 -0.3129  0.5246 -1.3722
  382MOL0     H51522   2.000   1.753   1.943 -0.3118  0.2021  3.1951
  382MOL0     H51523   2.049   1.595   1.990  0.0148 -1.2886 -1.7059
  382MOL0     H51524   1.879   1.576   1.749 -0.0184 -1.5585 -0.0500
  382MOL0     H51525   2.042   1.657   1.715  1.7281  1.8183  3.9297
  382MOL0     H51526   1.998   1.384   1.835  2.5244 -0.6503  0.5108
  382MOL0     H51527   2.151   1.481   1.805 -0.5842  1.0164 -1.7012
  382MOL0     H51528   1.938   1.414   1.615 -0.5798 -4.0402  0.9244
  382MOL0     H51529   2.073   1.310   1.622 -0.5104 -0.5355  0.6178
  382MOL0     H51530   2.274   1.275   1.568 -2.1814 -0.6896 -0.9667
  382MOL0     H51531   2.478   1.240   1.444 -1.1122 -0.0609  2.1219
  382MOL0     H51532   2.855   1.303   1.213  1.3912  0.5098  0.1641
  382MOL0     H51533   3.068   1.345   1.101  0.2814  1.2076  2.6139
  382MOL0     H51534   3.128   1.650   0.778 -0.7867 -1.2509  0.0775
  382MOL0     H51535   3.150   1.712   0.942  2.3932  1.9313 -0.6056
  382MOL0     H51536   3.352   1.704   0.810  0.9777  0.0998  0.7689
  382MOL0     H51537   3.376   1.601   0.949  2.5057  1.8145 -1.8272
  382MOL0     H51538   3.297   1.401   0.799  1.5970 -1.0132  0.4628
  382MOL0     H51539   3.323   1.507   0.671  1.6118 -0.9397 -0.6562
  382MOL0     H51540   3.541   1.470   0.899 -0.6602 -1.7457  0.8003
  382MOL0     H51541   3.562   1.570   0.770  1.5387  0.0105  2.7706
  382MOL0     H51542   3.546   1.273   0.783 -0.1296  1.4666  4.9588
  382MOL0     H51543   3.683   1.377   0.763 -0.5863  3.1880  0.3382
  382MOL0     H51544   3.473   1.279   0.568 -0.9419  2.1056  0.6334
  382MOL0     H51545   3.538   1.432   0.523 -1.5476 -0.3409 -0.5319
  382MOL0     H51546   3.729   1.185   0.563 -0.1030 -1.8500 -3.3844
  382MOL0     H51547   3.772   1.357   0.538  0.0573  1.2292  0.1275
  382MOL0     H51548   3.616   1.162   0.368  0.8454 -1.3324  1.3233
  382MOL0     H51549   3.653   1.335   0.317  1.3411  2.9428  3.3901
  382MOL0     H51550   2.901   1.666   0.879  1.6298  2.4007  2.5118
  382MOL0     H51551   2.696   1.640   1.003  0.4502  1.0026  1.6113
  382MOL0     H51552   2.386   1.572   1.197  1.1780  0.6388  0.9737
  382MOL0     H51553   2.204   1.636   1.345 -0.6976  0.3009 -1.1720
  382MOL0     H51554   0.796   1.641   2.382  2.1247 -1.9576  3.3555
  382MOL0     H51555   0.579   1.510   2.408 -0.2762  2.3808 -1.6724
  382MOL0     H51556   0.312   1.320   2.554 -2.0061  0.1640 -1.5495
  382MOL0     H51557   0.164   1.142   2.576 -0.6802 -0.2826  0.5816
  382MOL0     H51558  -0.110   1.127   2.573 -1.3275  0.0351 -0.6074
  382MOL0     H51559  -0.221   1.157   2.703 -1.0676 -0.5442 -1.1883
  382MOL0     H51560  -0.269   0.927   2.643  0.1029  0.1954  0.2710
  382MOL0     H51561  -0.201   0.932   2.800  0.4247 -2.8778 -0.1065
  382MOL0     H51562   0.033   0.887   2.702  0.2621  1.7646  0.4838
  382MOL0     H51563  -0.054   0.838   2.558  0.0271  1.7890  0.2987
  382MOL0     H51564   0.010   0.650   2.718  0.7843  1.6763  1.0596
  382MOL0     H51565  -0.100   0.725   2.834 -0.3449  4.5774 -0.6901
  382MOL0     H51566  -0.404   0.592   2.595  1.7534 -0.6752 -1.7234
  382MOL0     H51567  -0.066   1.369   2.861  0.4012 -1.6720  0.3938
  382MOL0     H51568  -0.031   1.622   2.832  1.3710 -0.2377 -2.0410
  382MOL0     H51569   0.030   1.547   2.980  0.1672 -0.5888  0.4535
  382MOL0     H51570   0.135   1.662   2.881  0.1227  0.2812 -2.4471
  383MOL0     O51571   7.855   0.813   3.100 -0.1863 -0.4753  0.0965
  383MOL0     C51572   7.834   0.692   3.091  1.1947 -0.0540 -0.2590
  383MOL0     O51573   7.931   0.593   3.121 -0.1270 -0.1215  0.4479
  383MOL0     C51574   8.057   0.626   3.163 -0.9125  0.2593  1.0381
  383MOL0     C51575   8.137   0.715   3.087  0.1641  0.0760  0.0161
  383MOL0     C51576   8.272   0.721   3.111 -0.1788  0.6486 -0.8265
  383MOL0     C51577   8.333   0.664   3.224 -0.0742  0.5204 -0.5227
  383MOL0     O51578   8.470   0.678   3.260 -0.1760  1.0823 -0.3467
  383MOL0     C51579   8.555   0.742   3.168  0.2183  0.6772  0.6091
  383MOL0     C51580   8.699   0.729   3.219 -0.9432 -0.3723 -0.0107
  383MOL0     C51581   8.793   0.786   3.113  0.0359  0.1811 -0.0603
  383MOL0     C51582   8.933   0.779   3.162 -0.4292  0.8260  0.1873
  383MOL0     C51583   9.032   0.855   3.080  0.0919 -0.3760 -0.1661
  383MOL0     C51584   9.177   0.850   3.136 -0.0829 -0.3406 -0.1411
  383MOL0     C51585   9.276   0.905   3.030 -0.8199 -0.2157  0.0326
  383MOL0     C51586   9.423   0.929   3.087 -0.2785 -0.3814  0.4254
  383MOL0     N51587   9.493   0.999   2.984  0.3372 -0.3237 -0.0564
  383MOL0     C51588   9.467   1.126   2.945  0.1735 -0.0433 -0.5673
  383MOL0     C51589   9.576   1.147   2.858 -0.3412 -0.7694  0.7472
  383MOL0     C51590   9.603   1.279   2.778 -0.0939  0.1952 -0.0307
  383MOL0     C51591   9.514   1.290   2.653 -1.0826  0.2400  0.2611
  383MOL0     C51592   9.502   1.438   2.599  0.0743  0.5065 -0.3982
  383MOL0     C51593   9.638   1.484   2.552  0.1151 -0.6821  0.3876
  383MOL0     O51594   9.723   1.393   2.482 -0.0501  0.3744  0.4803
  383MOL0     C51595   9.819   1.448   2.402  0.2877  0.1962 -0.5733
  383MOL0     C51596   9.954   1.420   2.428  0.2471  0.0454  0.4670
  383MOL0     C51597  10.059   1.469   2.358 -0.5936  0.8421  0.3033
  383MOL0     C51598  10.034   1.541   2.239 -0.6055 -1.0871  0.0722
  383MOL0     C51599  10.144   1.593   2.157 -1.3552 -0.5193  0.4621
  383MOL0     O51600  10.111   1.680   2.045  1.0643  0.6430 -0.5409
  383MOL0     C51601  10.203   1.766   1.986 -0.0596 -0.3622  0.1968
  383MOL0     C51602  10.174   1.815   1.858 -0.0690 -0.0540  0.6534
  383MOL0     C51603  10.268   1.898   1.792  0.6618 -0.1931 -0.2921
  383MOL0     C51604  10.379   1.950   1.857 -0.1248 -0.6057  0.3264
  383MOL0     O51605  10.463   2.034   1.780 -0.0246  0.4406 -0.0720
  383MOL0     C51606  10.575   2.086   1.842 -0.2034 -0.5651 -0.6651
  383MOL0     C51607  10.643   2.180   1.750 -0.3656  0.8746  0.2959
  383MOL0     C51608  10.773   2.243   1.813  0.2562 -0.5242 -0.5205
  383MOL0     C51609  10.866   2.291   1.709 -0.1345 -0.6367 -0.6333
  383MOL0     C51610  10.992   2.346   1.785  0.8670  0.4769  0.2096
  383MOL0     C51611  11.095   2.426   1.702  0.2488 -0.0720  0.6047
  383MOL0     C51612  11.216   2.448   1.794  0.6263  0.1340  0.5654
  383MOL0     C51613  11.288   2.584   1.763 -0.4487  0.8554  1.0521
  383MOL0    Cl51614  11.396   2.566   1.614 -0.3337 -0.0073  0.4750
  383MOL0     C51615  10.405   1.907   1.992  1.0781  0.0778  0.1632
  383MOL0     C51616  10.315   1.813   2.052 -0.0395 -0.0997 -0.1733
  383MOL0     O51617  10.258   1.547   2.193  0.8447  0.4963  0.2503
  383MOL0     C51618   9.902   1.564   2.208  0.9461 -0.4886 -0.3009
  383MOL0     C51619   9.792   1.522   2.286 -0.6661 -0.3381 -0.7446
  383MOL0     N51620   9.659   1.040   2.849 -0.4036 -0.4239  0.4360
  383MOL0     N51621   9.603   0.948   2.920  0.9496  0.6675 -0.0121
  383MOL0     C51622   8.252   0.585   3.313 -0.3225 -0.6999 -0.4223
  383MOL0     C51623   8.120   0.562   3.269  0.7801  0.2523  0.0050
  383MOL0     C51624   7.697   0.632   3.071  0.3664 -0.4713  0.4045
  383MOL0     C51625   7.679   0.497   3.113  0.3529 -0.1348 -0.0534
  383MOL0     C51626   7.557   0.427   3.087 -0.4590 -0.2652  0.2864
  383MOL0     C51627   7.453   0.501   3.023 -0.3697  0.1368 -0.1014
  383MOL0     O51628   7.332   0.432   3.025 -0.5822 -0.3201  0.1904
  383MOL0     C51629   7.230   0.475   2.937 -0.6318  0.0438  1.4282
  383MOL0     C51630   7.090   0.410   2.952  0.0951 -0.6389 -0.2004
  383MOL0     C51631   7.047   0.432   3.104  0.1830 -0.8532  0.2549
  383MOL0     C51632   6.936   0.334   3.144  0.0600 -0.2830  0.8334
  383MOL0     C51633   6.807   0.367   3.095  0.6107 -0.7407 -0.4718
  383MOL0     C51634   6.690   0.386   3.057  0.5021 -0.0373  0.2452
  383MOL0     C51635   7.478   0.636   2.992  0.7287 -0.1016  1.1835
  383MOL0     C51636   7.595   0.703   3.011 -0.0344 -0.4411 -0.2837
  383MOL0     C51637   7.603   0.845   2.959 -0.3662 -0.4562  0.0016
  383MOL0     H51638   8.093   0.767   3.003 -1.0452  1.3937  1.3945
  383MOL0     H51639   8.334   0.779   3.044  1.2045 -1.3148 -1.3362
  383MOL0     H51640   8.549   0.692   3.071 -0.9757 -1.3384  1.6624
  383MOL0     H51641   8.529   0.848   3.168  0.0909  0.6609  1.8733
  383MOL0     H51642   8.722   0.623   3.234 -2.0062 -0.4741  1.0693
  383MOL0     H51643   8.705   0.784   3.313  0.0364  0.3320 -0.4696
  383MOL0     H51644   8.766   0.890   3.093 -1.1318 -0.5481 -2.7511
  383MOL0     H51645   8.772   0.733   3.020 -0.8286 -0.8151  0.6778
  383MOL0     H51646   8.933   0.795   3.270 -0.0345 -2.4847  0.7569
  383MOL0     H51647   8.961   0.675   3.143  2.1616  1.5572 -0.3915
  383MOL0     H51648   9.043   0.819   2.977  1.5447 -1.3364  0.3031
  383MOL0     H51649   9.004   0.961   3.080  2.5940  0.3701  1.5892
  383MOL0     H51650   9.167   0.923   3.217 -1.5107 -0.6679 -0.0035
  383MOL0     H51651   9.208   0.761   3.191  0.7828  1.4842  2.5542
  383MOL0     H51652   9.246   1.003   2.993 -1.2394 -0.5460 -0.5168
  383MOL0     H51653   9.270   0.844   2.939 -0.3647 -2.9829  1.7581
  383MOL0     H51654   9.421   0.988   3.179 -1.0379 -0.1919  0.2902
  383MOL0     H51655   9.463   0.830   3.110  0.3171 -0.6517 -1.5828
  383MOL0     H51656   9.393   1.200   2.975 -2.3126 -1.1675 -3.4343
  383MOL0     H51657   9.584   1.365   2.842  1.5589 -0.6523  1.6978
  383MOL0     H51658   9.709   1.280   2.749 -0.0497  1.5056  0.1271
  383MOL0     H51659   9.549   1.210   2.586 -1.5036 -2.4525  3.0273
  383MOL0     H51660   9.410   1.272   2.681 -0.8354 -1.2661  0.3052
  383MOL0     H51661   9.457   1.490   2.683 -1.5020 -1.5321  0.1032
  383MOL0     H51662   9.429   1.442   2.517 -1.6458 -1.1654  0.9463
  383MOL0     H51663   9.695   1.501   2.644 -0.5788  0.8724  0.5657
  383MOL0     H51664   9.639   1.579   2.499  0.6920 -1.4385 -1.0072
  383MOL0     H51665   9.969   1.370   2.523 -0.1774 -1.5358 -0.2562
  383MOL0     H51666  10.158   1.446   2.397 -1.3123  2.1985  3.2191
  383MOL0     H51667  10.083   1.779   1.810 -0.5883  0.8057  0.9854
  383MOL0     H51668  10.259   1.922   1.686  1.3949 -1.3987 -0.6533
  383MOL0     H51669  10.540   2.152   1.922 -3.3096 -1.3236 -1.2657
  383MOL0     H51670  10.651   2.021   1.887 -0.7520 -0.4690  0.4271
  383MOL0     H51671  10.674   2.117   1.666  0.3470 -0.9435  1.8495
  383MOL0     H51672  10.574   2.258   1.715  0.1003  0.9708 -0.4220
  383MOL0     H51673  10.740   2.324   1.880  0.5451 -0.0492 -0.9471
  383MOL0     H51674  10.820   2.165   1.874  0.2488  0.2401  0.4946
  383MOL0     H51675  10.820   2.376   1.658  0.4049  0.6355  0.9616
  383MOL0     H51676  10.874   2.205   1.642 -2.8126  0.0200 -1.9620
  383MOL0     H51677  11.034   2.257   1.833 -3.8546 -1.1605  1.9819
  383MOL0     H51678  10.952   2.401   1.871  1.6102  0.8041  0.3513
  383MOL0     H51679  11.119   2.364   1.615 -0.5021  1.9286 -1.1122
  383MOL0     H51680  11.044   2.519   1.676  0.1908 -0.6172 -1.4012
  383MOL0     H51681  11.289   2.369   1.773  0.1280  0.0532 -1.0163
  383MOL0     H51682  11.196   2.451   1.902  2.4741  0.8382  0.9181
  383MOL0     H51683  11.210   2.660   1.754 -0.3285  0.7609 -1.2245
  383MOL0     H51684  11.351   2.615   1.847  1.7263 -1.6120  0.4719
  383MOL0     H51685  10.486   1.953   2.047 -1.0369  3.0320  1.0720
  383MOL0     H51686  10.345   1.776   2.149 -1.1776  0.7674  0.5369
  383MOL0     H51687   9.877   1.626   2.122  0.0501  0.8306  0.8628
  383MOL0     H51688   9.688   1.534   2.258 -0.5969 -0.7007 -1.1681
  383MOL0     H51689   8.303   0.544   3.399  0.5525  0.1393 -0.5163
  383MOL0     H51690   8.064   0.497   3.335 -0.1439 -0.7765 -1.7265
  383MOL0     H51691   7.760   0.453   3.171 -0.1299 -1.1639 -0.1374
  383MOL0     H51692   7.530   0.329   3.124  0.6891 -0.5271  0.4863
  383MOL0     H51693   7.265   0.467   2.834 -1.6685  3.7193  0.6454
  383MOL0     H51694   7.216   0.583   2.948 -1.4922  0.1165 -0.0750
  383MOL0     H51695   7.110   0.305   2.931 -1.2260 -1.3863  1.9835
  383MOL0     H51696   7.016   0.453   2.884 -2.1432  0.3079  2.6325
  383MOL0     H51697   7.019   0.537   3.115 -1.5275 -1.2324 -0.1548
  383MOL0     H51698   7.130   0.404   3.170  0.4113 -0.1965  0.2546
  383MOL0     H51699   6.959   0.236   3.100 -2.9650 -1.7846  2.2922
  383MOL0     H51700   6.935   0.321   3.252  3.5192  0.6716  1.1002
  383MOL0     H51701   6.587   0.400   3.033  0.3848  3.4652  2.1462
  383MOL0     H51702   7.398   0.684   2.936  0.3509  0.1564  1.9292
  383MOL0     H51703   7.560   0.856   2.859  2.9611  1.3054 -1.4097
  383MOL0     H51704   7.532   0.906   3.016 -1.9287 -3.2238  1.2112
  383MOL0     H51705   7.696   0.899   2.938 -0.9243  0.5500  0.0379
  384MOL0     O51706   7.354   7.381   7.411 -0.2925 -0.3000 -0.0844
  384MOL0     C51707   7.275   7.303   7.363  0.2078  0.7762 -0.0169
  384MOL0     O51708   7.315   7.174   7.323  0.2614 -0.3880 -0.2060
  384MOL0     C51709   7.442   7.139   7.355 -0.1568  0.3740 -0.8876
  384MOL0     C51710   7.544   7.190   7.278 -0.9176  0.1497  0.3433
  384MOL0     C51711   7.675   7.141   7.286 -0.3400 -0.3329 -0.3250
  384MOL0     C51712   7.707   7.043   7.375  0.2297  0.6534 -0.2553
  384MOL0     O51713   7.839   7.004   7.369 -0.2217  0.1911 -1.2269
  384MOL0     C51714   7.878   6.918   7.485  0.4101  0.1241  0.8875
  384MOL0     C51715   8.025   6.918   7.475 -0.5085 -0.3064  0.4095
  384MOL0     C51716   8.090   6.843   7.588  0.9310  0.0325 -0.4646
  384MOL0     C51717   8.235   6.865   7.571 -0.6353  0.7661 -0.4908
  384MOL0     C51718   8.290   7.000   7.619 -0.5677  0.2095 -0.1215
  384MOL0     C51719   8.442   7.017   7.598  0.0816 -0.5856 -0.2105
  384MOL0     C51720   8.478   7.154   7.641  0.1959  0.1693  0.9950
  384MOL0     C51721   8.637   7.190   7.639  1.1030 -0.4065 -0.2270
  384MOL0     N51722   8.670   7.289   7.540  0.4383  0.5330  0.9780
  384MOL0     C51723   8.660   7.265   7.409  0.2555 -0.4752  1.0156
  384MOL0     C51724   8.733   7.358   7.350 -0.7154 -0.2957 -0.0833
  384MOL0     C51725   8.762   7.361   7.197 -0.7144 -0.7424 -0.4436
  384MOL0     C51726   8.891   7.440   7.155  0.4551  1.1996  0.5880
  384MOL0     C51727   8.865   7.586   7.141  0.7332 -0.8390  0.5587
  384MOL0     C51728   8.983   7.661   7.084  0.1145 -0.8603  0.0770
  384MOL0     O51729   9.023   7.621   6.948  0.7700 -0.0606  0.1538
  384MOL0     C51730   9.131   7.536   6.932 -0.3316 -0.1840  0.1556
  384MOL0     C51731   9.204   7.461   7.024  0.8001 -0.3261  0.5930
  384MOL0     C51732   9.298   7.366   6.979  0.3758  0.2805 -0.0960
  384MOL0     C51733   9.342   7.362   6.847 -0.1549 -0.2155 -0.2045
  384MOL0     C51734   9.461   7.275   6.801  0.0988 -0.2510 -1.1627
  384MOL0     O51735   9.489   7.293   6.670  0.1047  0.4110  0.1906
  384MOL0     C51736   9.599   7.242   6.612  0.3799 -0.1397 -0.2600
  384MOL0     C51737   9.585   7.230   6.475 -0.0700  0.0341  0.0705
  384MOL0     C51738   9.698   7.198   6.391  0.2620  0.7191 -0.0989
  384MOL0     C51739   9.825   7.185   6.453 -0.2169 -0.0565  1.0396
  384MOL0     O51740   9.941   7.172   6.392 -0.5600  0.2717  0.0712
  384MOL0     C51741   9.958   7.194   6.253  0.1825 -0.6848 -0.5051
  384MOL0     C51742  10.071   7.105   6.189 -0.1843 -0.3961  0.9543
  384MOL0     C51743  10.210   7.125   6.246  0.5373  0.1516  0.5587
  384MOL0     C51744  10.297   7.016   6.203 -0.1061  0.5321 -0.2355
  384MOL0     C51745  10.444   7.050   6.225 -0.2410  0.0820 -0.5677
  384MOL0     C51746  10.524   6.918   6.186 -0.3442  0.3573 -0.1025
  384MOL0     C51747  10.671   6.954   6.201 -0.1637  0.3013 -0.2594
  384MOL0     C51748  10.730   7.008   6.072 -0.3015 -0.6965 -0.4858
  384MOL0    Cl51749  10.907   7.032   6.093 -0.0500 -0.1919  0.0810
  384MOL0     C51750   9.830   7.194   6.589  0.0476 -0.1375  0.4466
  384MOL0     C51751   9.725   7.219   6.667  0.6714  0.2358  0.1154
  384MOL0     O51752   9.514   7.203   6.883  0.1922  0.7052 -0.2495
  384MOL0     C51753   9.287   7.448   6.757  1.6196 -0.2437  0.0502
  384MOL0     C51754   9.177   7.526   6.804  0.5469  0.0894 -0.0478
  384MOL0     N51755   8.781   7.449   7.440  0.2950 -0.2810 -0.5962
  384MOL0     N51756   8.737   7.401   7.555  0.1449  0.1401 -0.0895
  384MOL0     C51757   7.606   6.996   7.461 -0.5650  0.7207 -0.2596
  384MOL0     C51758   7.474   7.033   7.446  1.0988 -0.2015 -0.6732
  384MOL0     C51759   7.141   7.343   7.323  0.2630  0.4128 -0.3274
  384MOL0     C51760   7.127   7.476   7.272  0.4849  0.2407 -0.0151
  384MOL0     C51761   6.995   7.528   7.254  0.0361  0.4317  0.1195
  384MOL0     C51762   6.877   7.450   7.276 -0.2605  0.4315 -0.0075
  384MOL0     O51763   6.752   7.498   7.274  0.3782 -1.1195 -0.4007
  384MOL0     C51764   6.724   7.622   7.207 -0.4431  0.2731 -0.3195
  384MOL0     C51765   6.569   7.632   7.169  0.5055  0.0045 -0.2916
  384MOL0     C51766   6.526   7.748   7.077 -0.1815  0.4805  0.0800
  384MOL0     C51767   6.383   7.790   7.086 -1.1877  0.3527  0.1492
  384MOL0     C51768   6.346   7.832   7.218  0.8278 -0.2797 -0.7181
  384MOL0     C51769   6.317   7.870   7.327 -0.8080  0.4483  0.1397
  384MOL0     C51770   6.901   7.325   7.334  0.4477  0.1337 -0.6226
  384MOL0     C51771   7.023   7.269   7.351 -1.2390  1.0343  0.2661
  384MOL0     C51772   7.045   7.129   7.412  0.5243 -0.0071 -0.2980
  384MOL0     H51773   7.530   7.267   7.203  0.1969  1.8705  1.8147
  384MOL0     H51774   7.754   7.183   7.224 -1.0231  0.6930 -0.5254
  384MOL0     H51775   7.852   6.961   7.582 -1.0981 -1.7072  1.3601
  384MOL0     H51776   7.847   6.814   7.468 -1.1323  0.6477  0.2433
  384MOL0     H51777   8.056   7.023   7.466 -1.4279  0.0319  1.0573
  384MOL0     H51778   8.049   6.867   7.381  1.8342  0.0433  0.7615
  384MOL0     H51779   8.067   6.736   7.579  3.4613 -1.0636  3.3322
  384MOL0     H51780   8.047   6.881   7.681 -1.6784 -2.8251 -0.3375
  384MOL0     H51781   8.285   6.785   7.626  0.8224  2.7821  1.2567
  384MOL0     H51782   8.263   6.849   7.466  0.5236  0.8115 -0.1986
  384MOL0     H51783   8.233   7.076   7.565  0.7657 -0.2943 -2.3787
  384MOL0     H51784   8.272   7.010   7.726  2.1322  1.3094  0.3384
  384MOL0     H51785   8.484   6.951   7.674  2.8201 -0.2017 -1.2787
  384MOL0     H51786   8.476   6.988   7.498 -1.5632 -1.6226 -0.5232
  384MOL0     H51787   8.467   7.151   7.750 -3.1048 -0.4775  0.7231
  384MOL0     H51788   8.422   7.234   7.593 -0.0078 -0.4614  0.1602
  384MOL0     H51789   8.656   7.236   7.736 -2.8498 -0.4816  0.7750
  384MOL0     H51790   8.702   7.103   7.629  0.4640 -1.1472  1.5850
  384MOL0     H51791   8.616   7.178   7.360  0.5605  0.1078 -0.3672
  384MOL0     H51792   8.788   7.258   7.174  1.6241  0.4132 -3.7437
  384MOL0     H51793   8.680   7.404   7.140  1.2907  1.1117 -2.1343
  384MOL0     H51794   8.964   7.424   7.235  1.3181 -2.8336 -0.7924
  384MOL0     H51795   8.939   7.395   7.068 -0.5887  1.2157 -0.0074
  384MOL0     H51796   8.850   7.635   7.238  2.1883  1.8931 -0.4723
  384MOL0     H51797   8.775   7.605   7.081  1.5076 -1.1592 -0.7238
  384MOL0     H51798   9.071   7.643   7.146 -1.7091 -1.5633  2.6131
  384MOL0     H51799   8.965   7.769   7.082  1.3661 -0.6176  1.0210
  384MOL0     H51800   9.188   7.475   7.130 -2.2959  3.1649 -0.1569
  384MOL0     H51801   9.344   7.302   7.054 -1.3753 -0.7399  0.1545
  384MOL0     H51802   9.497   7.255   6.416 -0.0692  1.6203  0.6696
  384MOL0     H51803   9.672   7.190   6.286  0.4265 -0.6524 -0.0526
  384MOL0     H51804   9.861   7.167   6.209 -0.3759 -2.5985  1.6892
  384MOL0     H51805   9.978   7.300   6.237  0.9265 -0.7425  0.0134
  384MOL0     H51806  10.028   7.007   6.214 -2.7434  0.5789  0.7197
  384MOL0     H51807  10.063   7.103   6.080 -0.6960  2.5336  0.8629
  384MOL0     H51808  10.251   7.213   6.196  2.0499 -0.6051  0.4028
  384MOL0     H51809  10.216   7.148   6.353  2.0545  1.3741  0.2453
  384MOL0     H51810  10.286   7.006   6.094 -1.6193  0.2740 -0.0896
  384MOL0     H51811  10.274   6.919   6.247  2.6332 -0.5129 -0.9006
  384MOL0     H51812  10.464   7.068   6.331 -0.0721 -1.2865 -0.3425
  384MOL0     H51813  10.487   7.136   6.173 -2.2208  1.2863 -0.2849
  384MOL0     H51814  10.511   6.849   6.269  1.6090  0.4097  0.2951
  384MOL0     H51815  10.483   6.870   6.096  0.0280  0.2926 -0.2394
  384MOL0     H51816  10.724   6.862   6.227 -3.4572 -2.1792 -1.6868
  384MOL0     H51817  10.687   7.017   6.289  1.5642  0.0410 -0.3471
  384MOL0     H51818  10.704   6.941   5.989 -1.2599  1.4373 -1.9899
  384MOL0     H51819  10.702   7.112   6.052  2.4888 -0.0025 -1.1639
  384MOL0     H51820   9.927   7.186   6.637  0.2978  1.8263  0.3313
  384MOL0     H51821   9.730   7.218   6.775 -2.8456 -1.2630  0.3746
  384MOL0     H51822   9.308   7.464   6.651 -0.9357 -1.8994 -0.7942
  384MOL0     H51823   9.123   7.591   6.735 -1.8788 -1.7687 -0.0620
  384MOL0     H51824   7.620   6.916   7.533 -1.4600  0.1809 -0.6579
  384MOL0     H51825   7.393   6.987   7.502  1.8349 -2.5122 -1.3998
  384MOL0     H51826   7.209   7.545   7.257 -0.8735  1.1678 -4.9962
  384MOL0     H51827   6.977   7.630   7.222 -2.1012 -0.5571 -2.1229
  384MOL0     H51828   6.787   7.628   7.118  1.2059 -0.7906  0.7318
  384MOL0     H51829   6.742   7.715   7.262  0.5018  1.5087 -2.5889
  384MOL0     H51830   6.511   7.628   7.262  0.9823 -1.0321 -0.0185
  384MOL0     H51831   6.564   7.540   7.110  1.3217 -0.9614  1.0919
  384MOL0     H51832   6.565   7.733   6.976  0.9600  3.8151 -0.0809
  384MOL0     H51833   6.585   7.836   7.104  0.8982 -0.7268  1.9051
  384MOL0     H51834   6.359   7.878   7.026 -1.2761  2.1455  2.6585
  384MOL0     H51835   6.312   7.711   7.061 -1.4286  0.1344  1.4676
  384MOL0     H51836   6.286   7.897   7.426 -1.3365  0.6545 -0.0813
  384MOL0     H51837   6.813   7.273   7.371  0.5749 -0.3255 -0.9487
  384MOL0     H51838   6.946   7.087   7.436 -0.2693  2.6633  1.6501
  384MOL0     H51839   7.090   7.065   7.337 -1.9925  0.3509 -2.2592
  384MOL0     H51840   7.097   7.146   7.507  0.8927 -1.8803 -0.1360
  385MOL0     O51841   0.798   4.126   9.044  0.1771 -0.0097 -0.7502
  385MOL0     C51842   0.812   4.027   9.122  0.4696  0.4797  0.3497
  385MOL0     O51843   0.924   3.988   9.191 -0.7062 -0.1138  0.1864
  385MOL0     C51844   1.038   4.074   9.209 -0.1726  0.1056  0.9080
  385MOL0     C51845   1.061   4.201   9.153 -0.0418 -0.1114 -0.3924
  385MOL0     C51846   1.182   4.270   9.165  0.3663 -0.1241  0.4429
  385MOL0     C51847   1.290   4.205   9.225  0.3632 -0.4383  1.0169
  385MOL0     O51848   1.410   4.266   9.196 -0.3027 -0.4480  0.1755
  385MOL0     C51849   1.533   4.215   9.247  0.1729 -0.6425  0.1905
  385MOL0     C51850   1.660   4.253   9.168  0.4353  0.1066 -0.2384
  385MOL0     C51851   1.776   4.190   9.246 -0.2407  0.2189 -1.1646
  385MOL0     C51852   1.900   4.189   9.152 -1.0302 -0.5501  0.1835
  385MOL0     C51853   2.027   4.124   9.211 -0.0646  0.5056 -0.2283
  385MOL0     C51854   2.156   4.171   9.145 -0.4958  1.0198 -0.4160
  385MOL0     C51855   2.177   4.077   9.015 -0.9887 -0.9435 -0.0254
  385MOL0     C51856   2.291   4.139   8.930  0.2329  0.7299  0.1161
  385MOL0     N51857   2.298   4.058   8.812 -0.1357 -0.3555 -0.5125
  385MOL0     C51858   2.365   3.940   8.809 -0.0397  0.5986  0.1379
  385MOL0     C51859   2.374   3.912   8.681 -0.4638 -0.3917  0.0351
  385MOL0     C51860   2.443   3.789   8.634  0.6160 -0.0483  0.9946
  385MOL0     C51861   2.570   3.753   8.719 -0.8698 -0.5386  0.5577
  385MOL0     C51862   2.630   3.617   8.682 -0.2993 -0.4226  0.7275
  385MOL0     C51863   2.719   3.566   8.789  0.3441  0.2842 -0.1794
  385MOL0     O51864   2.821   3.658   8.824 -0.3241 -0.4274 -1.5641
  385MOL0     C51865   2.927   3.623   8.906 -0.8549  0.0159  0.7491
  385MOL0     C51866   3.037   3.698   8.884 -0.0627 -0.5619 -0.1546
  385MOL0     C51867   3.157   3.685   8.951  0.2515  0.7083  0.0145
  385MOL0     C51868   3.169   3.573   9.040  0.1861  0.8664  0.1364
  385MOL0     C51869   3.292   3.534   9.108 -0.4446  0.2143  0.6276
  385MOL0     O51870   3.285   3.427   9.198  0.5235  0.5631 -0.1338
  385MOL0     C51871   3.386   3.405   9.286 -0.5543  0.0567 -0.3310
  385MOL0     C51872   3.420   3.486   9.397  0.4746  0.9715 -0.5438
  385MOL0     C51873   3.531   3.455   9.472 -0.6099  0.4172  0.0809
  385MOL0     C51874   3.613   3.341   9.442 -0.3984 -0.2677  0.2879
  385MOL0     O51875   3.730   3.298   9.503 -1.0896  0.2283 -0.1179
  385MOL0     C51876   3.793   3.386   9.594  0.8780  1.1698 -0.1647
  385MOL0     C51877   3.944   3.361   9.592 -0.1464  0.3116  0.6215
  385MOL0     C51878   3.992   3.215   9.626 -0.7764 -0.5936  0.6300
  385MOL0     C51879   4.143   3.217   9.634  0.0759  0.3777  0.4921
  385MOL0     C51880   4.189   3.067   9.659 -0.1091 -0.1067  0.5934
  385MOL0     C51881   4.346   3.060   9.650 -0.3336 -0.8995 -0.0669
  385MOL0     C51882   4.413   3.112   9.772  0.3882  0.5972  0.4923
  385MOL0     C51883   4.424   3.009   9.882  0.7000 -0.6649  0.1828
  385MOL0    Cl51884   4.529   2.872   9.839  0.2802 -0.6541  0.3403
  385MOL0     C51885   3.574   3.264   9.334  0.2703 -0.2781 -0.4457
  385MOL0     C51886   3.453   3.286   9.265  0.4056  0.0753  0.6742
  385MOL0     O51887   3.387   3.610   9.094  0.4551 -0.3483  0.4831
  385MOL0     C51888   3.069   3.474   9.046  0.0638  0.1182  0.0417
  385MOL0     C51889   2.945   3.503   8.981  0.0830 -0.5227  0.8913
  385MOL0     N51890   2.319   4.013   8.605  0.3870 -0.1231 -0.2366
  385MOL0     N51891   2.264   4.096   8.686 -0.2062  0.3008 -0.4954
  385MOL0     C51892   1.269   4.078   9.283 -0.4230  0.3388  0.0318
  385MOL0     C51893   1.146   4.020   9.274 -0.8890 -0.1827 -0.1551
  385MOL0     C51894   0.683   3.938   9.143  0.2652  0.7502  0.7163
  385MOL0     C51895   0.648   3.906   9.276  0.4849 -0.5903  0.0593
  385MOL0     C51896   0.526   3.845   9.296  0.0788  0.3021  0.0269
  385MOL0     C51897   0.442   3.805   9.195  0.3625 -0.0512  0.3502
  385MOL0     O51898   0.323   3.763   9.238 -0.0147  0.1176 -0.3353
  385MOL0     C51899   0.238   3.698   9.135  0.4307  0.2031 -0.3126
  385MOL0     C51900   0.109   3.651   9.218  0.1287  0.0701 -0.4530
  385MOL0     C51901   0.154   3.523   9.283  0.2455 -0.0596  0.2691
  385MOL0     C51902   0.169   3.522   9.439  0.2292 -0.0874  0.5418
  385MOL0     C51903   0.285   3.605   9.500  0.6191  0.8245 -0.9236
  385MOL0     C51904   0.378   3.669   9.550  0.4480 -0.3868 -0.1465
  385MOL0     C51905   0.487   3.814   9.062  0.5655  1.3101  0.1247
  385MOL0     C51906   0.604   3.892   9.036  0.7854 -0.6783 -0.0240
  385MOL0     C51907   0.644   3.905   8.896 -0.6341 -0.0762 -0.9382
  385MOL0     H51908   0.986   4.266   9.108 -2.5475 -0.3911  3.0417
  385MOL0     H51909   1.190   4.375   9.138 -1.3878 -0.0207  0.1684
  385MOL0     H51910   1.544   4.250   9.350  0.0184  1.2631 -0.4015
  385MOL0     H51911   1.529   4.106   9.244 -0.5276 -0.6207  0.2364
  385MOL0     H51912   1.673   4.361   9.172  2.9726 -0.1583  3.8523
  385MOL0     H51913   1.645   4.207   9.070 -4.5154 -1.8630  1.1321
  385MOL0     H51914   1.755   4.090   9.284 -0.7699  0.2491 -1.3568
  385MOL0     H51915   1.798   4.263   9.324  1.2776  1.5050 -2.7210
  385MOL0     H51916   1.879   4.133   9.061  1.0092  0.8411 -1.2393
  385MOL0     H51917   1.929   4.292   9.129 -0.2837 -0.9239 -0.5841
  385MOL0     H51918   2.027   4.165   9.313  0.7546 -3.4598  1.5438
  385MOL0     H51919   2.016   4.016   9.223 -3.4145  0.8182  0.5515
  385MOL0     H51920   2.153   4.275   9.114  0.4169  0.9470 -0.7894
  385MOL0     H51921   2.236   4.146   9.216 -1.4622 -0.9176  0.0621
  385MOL0     H51922   2.084   4.074   8.958 -2.8586  0.1320  2.7565
  385MOL0     H51923   2.203   3.977   9.050 -0.2127 -0.6285  0.3160
  385MOL0     H51924   2.274   4.243   8.901  0.7058  0.8889  0.4007
  385MOL0     H51925   2.386   4.144   8.985  2.5799  3.1812 -3.7281
  385MOL0     H51926   2.394   3.875   8.891 -0.0081  0.0513 -0.2992
  385MOL0     H51927   2.384   3.698   8.645 -0.2634  0.2884 -0.6112
  385MOL0     H51928   2.473   3.792   8.529 -2.3895 -3.5252 -0.1690
  385MOL0     H51929   2.649   3.827   8.701 -1.8676  0.6221  0.7951
  385MOL0     H51930   2.544   3.756   8.825  1.5434  2.1327  1.2178
  385MOL0     H51931   2.690   3.616   8.590  0.8654 -0.6492  1.4712
  385MOL0     H51932   2.553   3.541   8.667 -1.0912  0.6939 -1.2596
  385MOL0     H51933   2.762   3.470   8.756  1.6387  0.6547  0.3582
  385MOL0     H51934   2.652   3.543   8.873 -1.6945 -0.3577 -1.9046
  385MOL0     H51935   3.024   3.789   8.826  1.6994  1.4182  2.3334
  385MOL0     H51936   3.232   3.763   8.942 -0.4533  1.2820 -1.0763
  385MOL0     H51937   3.356   3.567   9.431 -0.1550  0.1018  0.4171
  385MOL0     H51938   3.539   3.516   9.562 -1.0898  2.0642 -0.9693
  385MOL0     H51939   3.770   3.489   9.564  0.8749  1.3739  0.5139
  385MOL0     H51940   3.764   3.374   9.698  0.3786  1.4447 -0.2673
  385MOL0     H51941   3.967   3.392   9.489 -2.1992 -1.2338 -0.3878
  385MOL0     H51942   3.995   3.427   9.663  0.6597 -2.0064  2.3020
  385MOL0     H51943   3.943   3.178   9.717  0.2896 -1.1781  0.9738
  385MOL0     H51944   3.954   3.152   9.545 -1.3075 -0.8785  1.0914
  385MOL0     H51945   4.185   3.268   9.722  0.1361 -1.1368  1.3684
  385MOL0     H51946   4.191   3.248   9.541 -0.1731  0.2324  0.3160
  385MOL0     H51947   4.132   3.001   9.593  1.0541  0.5733 -1.1508
  385MOL0     H51948   4.153   3.038   9.758  1.0334 -2.4275  0.3776
  385MOL0     H51949   4.371   2.954   9.640  1.2152 -0.4330 -1.3924
  385MOL0     H51950   4.373   3.124   9.566 -3.5755 -1.7601 -1.9497
  385MOL0     H51951   4.363   3.200   9.814  1.3262  0.0933  2.8082
  385MOL0     H51952   4.516   3.142   9.750  0.4994  0.1586  0.4134
  385MOL0     H51953   4.467   3.058   9.969 -1.3581 -0.5936  1.2094
  385MOL0     H51954   4.325   2.973   9.911 -0.1561  0.5939 -1.0210
  385MOL0     H51955   3.635   3.176   9.318  1.7472  0.7381 -0.5061
  385MOL0     H51956   3.421   3.220   9.185 -1.3896  2.4720 -0.7333
  385MOL0     H51957   3.071   3.377   9.094 -2.3061 -0.9707 -1.8137
  385MOL0     H51958   2.871   3.425   8.990 -1.2315  0.6175  0.3519
  385MOL0     H51959   1.345   4.011   9.323 -1.9770 -0.5895  1.5879
  385MOL0     H51960   1.136   3.922   9.318  0.1929  0.2901  1.2061
  385MOL0     H51961   0.708   3.931   9.363  4.2009 -2.2414 -1.8194
  385MOL0     H51962   0.502   3.824   9.400  2.8995 -1.9796  0.3425
  385MOL0     H51963   0.293   3.626   9.073  0.7964  1.5044 -1.5641
  385MOL0     H51964   0.200   3.776   9.068 -0.8405  0.3862  0.6016
  385MOL0     H51965   0.037   3.628   9.139  1.6940 -1.1803 -1.5796
  385MOL0     H51966   0.070   3.726   9.287 -2.5864  0.8198 -2.5862
  385MOL0     H51967   0.253   3.490   9.251 -0.5102 -2.9256  0.5844
  385MOL0     H51968   0.070   3.457   9.259 -0.9681  1.0199  1.3888
  385MOL0     H51969   0.072   3.541   9.487 -0.9109 -0.8385 -1.3409
  385MOL0     H51970   0.181   3.414   9.452 -2.1385 -0.7432 -1.8217
  385MOL0     H51971   0.450   3.732   9.598  0.3170  0.2509 -0.7758
  385MOL0     H51972   0.437   3.778   8.974  2.8686 -0.8667 -0.4201
  385MOL0     H51973   0.634   4.009   8.863 -1.4843  0.5448  1.1469
  385MOL0     H51974   0.747   3.871   8.885 -0.7519 -0.5568 -0.5762
  385MOL0     H51975   0.577   3.834   8.845 -0.8317 -1.1329  0.7292
  386MOL0     O51976  10.673   0.013   7.429  0.1668  0.2689 -0.0211
  386MOL0     C51977  10.614   0.018   7.324 -0.7386 -0.6375 -0.6333
  386MOL0     O51978  10.670   0.043   7.210 -0.5463 -0.1700  0.2105
  386MOL0     C51979  10.802   0.059   7.204  0.0191  1.0517  0.4368
  386MOL0     C51980  10.858   0.181   7.229  0.3182 -0.9469  0.0142
  386MOL0     C51981  10.999   0.205   7.208  0.3911 -0.2151 -0.6029
  386MOL0     C51982  11.081   0.103   7.153  0.0515 -0.4244 -0.6455
  386MOL0     O51983  11.219   0.128   7.145 -0.4940  1.1565 -0.4703
  386MOL0     C51984  11.306   0.027   7.088 -0.0745 -1.5380 -0.1141
  386MOL0     C51985  11.447   0.089   7.079 -0.6967  0.6937  0.0560
  386MOL0     C51986  11.517   0.075   7.216  1.2085  0.3401 -0.0666
  386MOL0     C51987  11.666   0.120   7.216 -0.1894 -0.1477 -0.4191
  386MOL0     C51988  11.683   0.266   7.170  0.5249 -0.0458 -0.0207
  386MOL0     C51989  11.815   0.325   7.163 -0.0785 -0.0617 -0.2211
  386MOL0     C51990  11.907   0.246   7.069 -0.1229 -0.1014 -0.2011
  386MOL0     C51991  12.048   0.307   7.043 -0.0085  0.8070 -0.1433
  386MOL0     N51992  12.123   0.327   7.166  0.6452  0.1730  0.7598
  386MOL0     C51993  12.190   0.443   7.190 -0.3380 -0.1610 -0.6681
  386MOL0     C51994  12.248   0.422   7.312  1.6497  1.0324  0.3208
  386MOL0     C51995  12.325   0.518   7.392 -0.1192 -0.9347 -0.3542
  386MOL0     C51996  12.455   0.543   7.327  0.3377  0.0147 -0.0176
  386MOL0     C51997  12.534   0.414   7.306 -0.6855  0.5973  0.1780
  386MOL0     C51998  12.664   0.448   7.232  0.2582  0.4481 -0.3089
  386MOL0     O51999  12.739   0.526   7.334  0.5516  0.2236 -0.3319
  386MOL0     C52000  12.871   0.527   7.344  0.0396  0.3264  1.0372
  386MOL0     C52001  12.924   0.634   7.417 -0.2105 -0.6589 -0.4729
  386MOL0     C52002  13.062   0.633   7.435  0.5467  0.2970  0.1104
  386MOL0     C52003  13.157   0.546   7.372 -0.2216  0.2474  0.5779
  386MOL0     C52004  13.301   0.552   7.396 -0.2978 -0.2314  0.6079
  386MOL0     O52005  13.348   0.669   7.457 -0.1056  0.5564 -0.5596
  386MOL0     C52006  13.476   0.660   7.504 -0.2976 -0.5664 -0.2701
  386MOL0     C52007  13.592   0.607   7.435  0.2409  0.1884 -1.0601
  386MOL0     C52008  13.717   0.612   7.491  0.0846  0.3251  0.3313
  386MOL0     C52009  13.729   0.668   7.615  0.3255 -0.0682  0.1048
  386MOL0     O52010  13.852   0.685   7.675  0.2376  0.0766 -0.8581
  386MOL0     C52011  13.944   0.561   7.657 -0.2427 -0.2122 -0.2922
  386MOL0     C52012  14.004   0.533   7.790  0.2466 -0.2965 -0.0372
  386MOL0     C52013  13.914   0.492   7.917 -0.0373 -0.2749  1.2058
  386MOL0     C52014  13.994   0.471   8.042  0.1562  0.8951 -0.6854
  386MOL0     C52015  14.112   0.565   8.072  0.7671  0.5040 -0.0837
  386MOL0     C52016  14.182   0.545   8.206 -0.1193 -0.0153  0.6784
  386MOL0     C52017  14.097   0.548   8.331  0.4179 -0.5412 -0.6068
  386MOL0     C52018  14.164   0.642   8.430  0.4897 -0.4806 -0.7379
  386MOL0    Cl52019  14.082   0.651   8.592 -0.0665  0.1526  0.5035
  386MOL0     C52020  13.622   0.713   7.691  0.1309  0.0302  0.1399
  386MOL0     C52021  13.494   0.710   7.636 -0.0141 -0.6351  0.0483
  386MOL0     O52022  13.360   0.446   7.376 -0.5932 -0.2338  0.5906
  386MOL0     C52023  13.093   0.442   7.299 -0.4603  0.0132 -0.0139
  386MOL0     C52024  12.954   0.433   7.281 -0.7654  0.8949  0.1253
  386MOL0     N52025  12.219   0.289   7.354 -0.2291  0.0834  0.3960
  386MOL0     N52026  12.142   0.239   7.264 -0.3725  0.7919 -0.1489
  386MOL0     C52027  11.019  -0.022   7.129  0.2064 -0.2492 -0.5763
  386MOL0     C52028  10.883  -0.044   7.146  0.2485  0.0771 -0.8973
  386MOL0     C52029  10.463   0.009   7.326  0.1948  0.8934 -0.0236
  386MOL0     C52030  10.406  -0.035   7.204  0.2002  0.2578 -0.2933
  386MOL0     C52031  10.269  -0.057   7.192 -0.0855  0.2000 -0.3843
  386MOL0     C52032  10.184  -0.043   7.293  0.3773 -0.2312  0.4373
  386MOL0     O52033  10.057  -0.082   7.257  1.2147 -0.2137 -0.6805
  386MOL0     C52034   9.964  -0.086   7.369 -0.4935 -1.0888 -0.2444
  386MOL0     C52035   9.815  -0.102   7.336 -0.4032 -0.0206 -0.4414
  386MOL0     C52036   9.734  -0.076   7.465 -0.5516 -0.7023 -0.1632
  386MOL0     C52037   9.581  -0.064   7.434  0.6873 -0.3755  0.8070
  386MOL0     C52038   9.524   0.067   7.411  0.0908  0.5605  0.0100
  386MOL0     C52039   9.483   0.182   7.392 -0.2682  0.1157  0.4402
  386MOL0     C52040  10.241  -0.003   7.419  0.5785 -0.3642  0.0674
  386MOL0     C52041  10.378   0.013   7.433  0.0373 -0.3687  0.4847
  386MOL0     C52042  10.428   0.048   7.571  0.6728  0.8750  0.3880
  386MOL0     H52043  10.797   0.259   7.273 -0.1795 -1.9654  1.1782
  386MOL0     H52044  11.050   0.300   7.220  2.7408 -1.2628 -1.6316
  386MOL0     H52045  11.308  -0.065   7.146  1.3055 -1.8396 -0.6099
  386MOL0     H52046  11.271  -0.002   6.988 -1.6109 -2.5897  0.6761
  386MOL0     H52047  11.430   0.189   7.039 -1.8602  1.4120  2.2128
  386MOL0     H52048  11.500   0.018   7.014  1.7160  1.2917  1.2873
  386MOL0     H52049  11.508  -0.028   7.250  1.4670  0.4953  0.4742
  386MOL0     H52050  11.452   0.134   7.282 -0.0562 -0.5035 -0.5310
  386MOL0     H52051  11.709   0.107   7.316  1.2796 -0.0087 -1.0064
  386MOL0     H52052  11.724   0.055   7.150  1.2670  1.8426 -1.2089
  386MOL0     H52053  11.646   0.270   7.067  0.3970 -0.3049  0.0141
  386MOL0     H52054  11.634   0.337   7.237 -0.2112  1.7581 -2.3415
  386MOL0     H52055  11.809   0.433   7.149 -1.5073  0.3776  2.9803
  386MOL0     H52056  11.856   0.317   7.264  1.5832 -2.1602 -0.9598
  386MOL0     H52057  11.872   0.257   6.966  0.3109 -4.5646 -1.0307
  386MOL0     H52058  11.911   0.141   7.098  3.1083  0.1690  0.6956
  386MOL0     H52059  12.095   0.224   6.990 -1.1727 -0.0944  0.1981
  386MOL0     H52060  12.050   0.390   6.972  0.2036 -0.5778 -1.8067
  386MOL0     H52061  12.180   0.536   7.135 -1.7388  0.1609  0.0825
  386MOL0     H52062  12.279   0.617   7.398  1.2536 -0.3249  0.5373
  386MOL0     H52063  12.334   0.492   7.498  0.4424  1.4209  0.2421
  386MOL0     H52064  12.438   0.585   7.227 -4.7165  0.0261  0.5513
  386MOL0     H52065  12.510   0.613   7.391 -2.3238  2.1023  0.1716
  386MOL0     H52066  12.470   0.343   7.253  0.3995  0.5125 -1.0928
  386MOL0     H52067  12.561   0.370   7.402 -0.0509  1.5998  0.4800
  386MOL0     H52068  12.639   0.509   7.145 -2.3631 -1.2597 -0.8742
  386MOL0     H52069  12.707   0.352   7.200 -0.1893  0.4697 -1.0079
  386MOL0     H52070  12.866   0.713   7.465  2.5057  1.9418 -1.1464
  386MOL0     H52071  13.093   0.723   7.488 -0.8957 -0.1067  1.7076
  386MOL0     H52072  13.589   0.584   7.329  2.8564  0.0271 -1.1736
  386MOL0     H52073  13.809   0.583   7.442 -0.4988 -2.1177  0.5388
  386MOL0     H52074  13.886   0.474   7.624 -1.0285 -0.2569  1.1507
  386MOL0     H52075  14.019   0.585   7.581  3.0658 -3.8037  1.5218
  386MOL0     H52076  14.089   0.465   7.781  1.3442  0.7878  1.6191
  386MOL0     H52077  14.049   0.628   7.820  0.3886 -0.6357  0.8546
  386MOL0     H52078  13.842   0.573   7.933  2.4802  2.1159  1.1359
  386MOL0     H52079  13.866   0.401   7.880  1.1743  0.2570 -2.0349
  386MOL0     H52080  14.036   0.370   8.039  0.1566  0.9040 -1.0422
  386MOL0     H52081  13.917   0.475   8.120 -1.2277  1.3884 -2.0340
  386MOL0     H52082  14.088   0.671   8.058 -0.4845  0.0294 -1.9903
  386MOL0     H52083  14.190   0.540   7.999 -1.0753 -3.6908 -0.8501
  386MOL0     H52084  14.221   0.443   8.201 -3.2774 -1.2721 -2.8043
  386MOL0     H52085  14.264   0.617   8.207 -1.8013  2.0241 -0.3673
  386MOL0     H52086  14.093   0.449   8.378 -1.1231 -0.4589 -0.5270
  386MOL0     H52087  13.993   0.578   8.319  0.4762  0.4925  1.1074
  386MOL0     H52088  14.267   0.609   8.447  0.9108  0.0236 -2.1516
  386MOL0     H52089  14.160   0.743   8.388  2.2944 -1.1959 -2.8706
  386MOL0     H52090  13.645   0.754   7.789 -0.8334 -0.5308  0.6124
  386MOL0     H52091  13.407   0.735   7.696 -0.4529 -2.2894  0.1715
  386MOL0     H52092  13.157   0.370   7.249  0.4118 -1.3912  2.9138
  386MOL0     H52093  12.921   0.352   7.216  0.3443 -0.9281  1.7022
  386MOL0     H52094  11.084  -0.101   7.095  0.0753 -0.2219 -0.9050
  386MOL0     H52095  10.841  -0.138   7.112  2.3443 -1.0260 -0.6053
  386MOL0     H52096  10.470  -0.058   7.119  0.7254 -1.1883  0.4687
  386MOL0     H52097  10.230  -0.097   7.099 -0.0844 -3.3880  1.0042
  386MOL0     H52098   9.983   0.005   7.426 -1.9023  1.3356 -3.3539
  386MOL0     H52099   9.993  -0.170   7.433  2.8178 -1.2462 -1.7110
  386MOL0     H52100   9.784  -0.202   7.305  1.7723 -1.1253  0.7664
  386MOL0     H52101   9.787  -0.033   7.256 -3.9257 -1.5568 -0.7018
  386MOL0     H52102   9.763   0.015   7.519  1.3418 -1.9261  0.9656
  386MOL0     H52103   9.738  -0.163   7.531 -1.2433 -0.9295 -0.4042
  386MOL0     H52104   9.550  -0.138   7.359 -2.1126 -0.7164  2.1954
  386MOL0     H52105   9.533  -0.100   7.525  1.1943  1.1061  1.6899
  386MOL0     H52106   9.436   0.279   7.398  0.8266  0.7126 -0.3244
  386MOL0     H52107  10.186   0.002   7.512 -0.6146 -0.5178 -0.6192
  386MOL0     H52108  10.473  -0.039   7.620 -2.5357  1.5995  5.4344
  386MOL0     H52109  10.509   0.121   7.563  1.9717 -0.6488 -1.0124
  386MOL0     H52110  10.348   0.080   7.638  2.3388  1.7051  2.0928
  387MOL0     O52111   0.052  10.911   0.171 -0.6703  0.1610  0.5486
  387MOL0     C52112   0.026  11.033   0.157  0.1821 -0.1080  0.4791
  387MOL0     O52113   0.118  11.137   0.150 -0.2689 -0.1743  0.2357
  387MOL0     C52114   0.239  11.107   0.193  0.6428 -0.3458 -0.7329
  387MOL0     C52115   0.284  11.166   0.317 -0.3445  0.8649  0.0446
  387MOL0     C52116   0.406  11.137   0.378 -0.6517  0.9228 -0.0110
  387MOL0     C52117   0.482  11.047   0.319  0.2275  0.9812  0.4785
  387MOL0     O52118   0.590  10.999   0.388  0.2474  0.0012  0.2720
  387MOL0     C52119   0.705  11.087   0.405  0.1766  0.7172 -0.3332
  387MOL0     C52120   0.800  11.029   0.512  0.0634  0.5235  0.5706
  387MOL0     C52121   0.928  11.114   0.525 -0.6272  0.3453 -0.1477
  387MOL0     C52122   0.928  11.235   0.611 -0.2412 -0.6740  0.3564
  387MOL0     C52123   1.045  11.230   0.708 -0.1777  0.1872  0.2161
  387MOL0     C52124   1.180  11.258   0.632  0.4559  0.6227  0.8085
  387MOL0     C52125   1.296  11.265   0.730  0.6381  0.0076  0.0628
  387MOL0     C52126   1.430  11.285   0.666 -0.0822  0.1604  0.0248
  387MOL0     N52127   1.540  11.249   0.758 -0.1262 -0.7560  0.7438
  387MOL0     C52128   1.644  11.153   0.733  0.1965 -0.2041 -0.6870
  387MOL0     C52129   1.698  11.141   0.857  0.0805 -0.3936  0.3438
  387MOL0     C52130   1.785  11.028   0.892  0.0263 -0.2488 -0.0927
  387MOL0     C52131   1.900  10.998   0.796  0.0074 -0.1496 -0.7107
  387MOL0     C52132   1.989  10.881   0.856  0.4701 -0.1709 -0.3246
  387MOL0     C52133   2.129  10.871   0.807 -0.3039  0.6403  0.5306
  387MOL0     O52134   2.181  10.736   0.831  0.4684 -0.0878 -0.5733
  387MOL0     C52135   2.312  10.704   0.794  0.1193 -0.4404 -1.3062
  387MOL0     C52136   2.390  10.609   0.875  0.2237 -0.2214  0.6613
  387MOL0     C52137   2.514  10.568   0.839 -0.6991  0.3593  0.3461
  387MOL0     C52138   2.571  10.604   0.717 -0.0912  0.1375 -0.6046
  387MOL0     C52139   2.698  10.551   0.693 -1.5429  0.1385  0.0678
  387MOL0     O52140   2.742  10.546   0.566  0.5468 -0.3622 -0.1911
  387MOL0     C52141   2.865  10.490   0.547 -0.2814 -0.2498  0.4007
  387MOL0     C52142   2.872  10.384   0.449  0.1065 -0.5633 -0.1450
  387MOL0     C52143   3.003  10.325   0.429  0.0139  1.0901 -0.9080
  387MOL0     C52144   3.114  10.363   0.505 -0.5592  0.3997  0.1422
  387MOL0     O52145   3.240  10.324   0.475  0.0222  0.2812  0.5815
  387MOL0     C52146   3.269  10.302   0.333  0.2245 -0.2770 -0.1678
  387MOL0     C52147   3.407  10.246   0.311  0.4996 -0.0017 -0.6214
  387MOL0     C52148   3.520  10.336   0.385  0.3191  0.5117  1.1022
  387MOL0     C52149   3.658  10.303   0.326 -0.0748  0.4728 -0.5192
  387MOL0     C52150   3.770  10.386   0.386 -0.0255 -0.3857  0.6747
  387MOL0     C52151   3.911  10.365   0.310  0.5620 -1.0842  0.3909
  387MOL0     C52152   3.970  10.230   0.348  0.4379 -0.2571  0.1997
  387MOL0     C52153   4.098  10.195   0.283  0.2429  1.3092 -0.0189
  387MOL0    Cl52154   4.239  10.305   0.313 -0.1023 -0.1688  0.2333
  387MOL0     C52155   3.099  10.468   0.597  0.2596  0.3807  0.2558
  387MOL0     C52156   2.979  10.528   0.613  0.4242 -0.0772 -0.2606
  387MOL0     O52157   2.763  10.504   0.789  0.2518  0.1536 -0.0961
  387MOL0     C52158   2.505  10.698   0.640  0.9106 -0.3391  0.0857
  387MOL0     C52159   2.382  10.754   0.681  0.6740  0.5569 -0.3642
  387MOL0     N52160   1.644  11.234   0.948  0.9220  1.1077 -0.3166
  387MOL0     N52161   1.557  11.296   0.881  0.2354 -0.3467 -0.4107
  387MOL0     C52162   0.447  10.984   0.201 -0.4846 -0.1965  0.1885
  387MOL0     C52163   0.328  11.017   0.136 -0.1562 -0.8608  0.6846
  387MOL0     C52164  -0.113  11.065   0.128 -0.5114  0.8899  0.3469
  387MOL0     C52165  -0.204  10.956   0.121 -0.2599 -0.5971 -0.1242
  387MOL0     C52166  -0.339  10.971   0.077 -0.4569 -0.5248 -0.1157
  387MOL0     C52167  -0.387  11.100   0.053  0.2980  0.4492  0.8003
  387MOL0     O52168  -0.516  11.139   0.013 -0.1997 -0.2825  0.0182
  387MOL0     C52169  -0.612  11.027   0.016  0.0578  0.0595 -0.5904
  387MOL0     C52170  -0.742  11.075  -0.046  0.0960  0.8098  0.6476
  387MOL0     C52171  -0.725  11.102  -0.199 -0.1287 -0.8466  0.9035
  387MOL0     C52172  -0.863  11.125  -0.256 -0.1881 -0.2416 -0.3341
  387MOL0     C52173  -0.943  11.222  -0.179 -0.5534 -0.0105 -0.2846
  387MOL0     C52174  -1.009  11.307  -0.115 -0.0737 -1.4285  0.3954
  387MOL0     C52175  -0.287  11.210   0.044  0.2778 -0.0952 -1.0763
  387MOL0     C52176  -0.157  11.187   0.073  1.0375  0.4092 -0.4107
  387MOL0     C52177  -0.077  11.314   0.059 -0.7130 -0.2961 -0.6862
  387MOL0     H52178   0.211  11.239   0.352 -3.2475 -0.1039 -3.2792
  387MOL0     H52179   0.446  11.190   0.463 -0.7894 -1.6279  1.7605
  387MOL0     H52180   0.766  11.103   0.316 -1.4100 -1.6316 -1.9321
  387MOL0     H52181   0.675  11.186   0.443  0.6901  0.9615 -0.5545
  387MOL0     H52182   0.829  10.927   0.486  0.6297  0.3125  1.9464
  387MOL0     H52183   0.745  11.035   0.606 -1.6135 -3.5797  0.0637
  387MOL0     H52184   0.967  11.142   0.426 -1.7584 -1.0891 -1.0214
  387MOL0     H52185   1.000  11.040   0.561  0.1901  1.5901  0.9007
  387MOL0     H52186   0.913  11.332   0.564 -2.4074 -0.7861  0.6990
  387MOL0     H52187   0.845  11.225   0.682  0.3694 -1.7933  0.9406
  387MOL0     H52188   1.028  11.315   0.774 -1.2014  2.5079 -2.8218
  387MOL0     H52189   1.051  11.143   0.775  1.1072  1.8964  2.4398
  387MOL0     H52190   1.192  11.182   0.554 -0.8111  3.2610 -2.1936
  387MOL0     H52191   1.174  11.351   0.574 -1.3000  0.1841  0.2362
  387MOL0     H52192   1.305  11.168   0.781  0.9382 -0.5305 -0.9774
  387MOL0     H52193   1.272  11.348   0.796 -0.0454  0.3936 -0.6547
  387MOL0     H52194   1.440  11.222   0.578  1.7139  1.5375 -0.8290
  387MOL0     H52195   1.450  11.388   0.635 -0.5397  0.2979  0.1637
  387MOL0     H52196   1.674  11.102   0.642  0.7346  0.8834 -1.1426
  387MOL0     H52197   1.845  11.047   0.982 -0.8144 -4.0123  1.4556
  387MOL0     H52198   1.722  10.940   0.907 -1.3176  1.0100  2.1102
  387MOL0     H52199   1.851  10.970   0.703 -2.8525  1.8700  0.0704
  387MOL0     H52200   1.958  11.088   0.774 -1.1041  0.6202 -0.5290
  387MOL0     H52201   1.943  10.784   0.833  0.4439  0.5661 -4.0084
  387MOL0     H52202   1.997  10.894   0.965  3.3127 -0.1491 -0.4561
  387MOL0     H52203   2.186  10.949   0.860 -0.1259 -0.2291  1.6542
  387MOL0     H52204   2.128  10.895   0.701  1.7947  0.1850  0.3689
  387MOL0     H52205   2.340  10.565   0.961 -0.4782  0.1168  0.4343
  387MOL0     H52206   2.564  10.494   0.901 -1.5499 -1.8455 -1.4549
  387MOL0     H52207   2.786  10.358   0.389 -0.2750  0.5355 -0.1001
  387MOL0     H52208   3.009  10.251   0.350  0.0758  2.2097 -1.9664
  387MOL0     H52209   3.202  10.232   0.282 -0.1749 -1.5389  1.9906
  387MOL0     H52210   3.258  10.401   0.288 -2.4821 -0.2109  0.4723
  387MOL0     H52211   3.396  10.145   0.352 -0.4503 -0.0472 -0.9846
  387MOL0     H52212   3.433  10.232   0.206  1.3078 -0.7446 -0.3390
  387MOL0     H52213   3.485  10.440   0.376  0.7800  0.4988 -2.4830
  387MOL0     H52214   3.525  10.302   0.489  1.5580 -2.0137  0.2884
  387MOL0     H52215   3.647  10.317   0.218 -1.1731  0.1523 -0.4574
  387MOL0     H52216   3.688  10.199   0.346 -1.3995  0.0085 -0.8638
  387MOL0     H52217   3.781  10.363   0.492 -1.5092  1.2576  1.2376
  387MOL0     H52218   3.743  10.492   0.384  0.1237 -0.2797  2.5364
  387MOL0     H52219   3.897  10.363   0.202 -0.0648 -1.1204  0.4649
  387MOL0     H52220   3.972  10.451   0.337 -1.2276  1.0594 -1.9303
  387MOL0     H52221   3.893  10.159   0.315  1.3526 -1.0815 -0.1802
  387MOL0     H52222   3.979  10.210   0.455 -3.6234 -0.3890  0.7074
  387MOL0     H52223   4.140  10.097   0.308  1.7130  1.8198 -0.4109
  387MOL0     H52224   4.099  10.197   0.174  1.5565 -0.8448 -0.1154
  387MOL0     H52225   3.183  10.491   0.662  2.1369  0.0672 -1.9183
  387MOL0     H52226   2.968  10.600   0.694 -0.9713 -0.0065 -0.4837
  387MOL0     H52227   2.562  10.738   0.557 -1.0051  1.3620 -0.4900
  387MOL0     H52228   2.336  10.815   0.604 -0.6902 -2.8086 -2.4516
  387MOL0     H52229   0.516  10.908   0.165 -3.2095 -2.6848 -0.0769
  387MOL0     H52230   0.299  10.977   0.039 -0.1302  1.3579 -0.3205
  387MOL0     H52231  -0.169  10.856   0.143 -0.8133 -0.7037  0.2800
  387MOL0     H52232  -0.401  10.884   0.061  0.0404 -0.5132 -2.5045
  387MOL0     H52233  -0.620  10.999   0.121  0.7805 -2.5231 -1.1481
  387MOL0     H52234  -0.572  10.937  -0.031 -0.4792 -0.8728  0.7116
  387MOL0     H52235  -0.788  11.154   0.015 -0.6053 -1.3633  3.1174
  387MOL0     H52236  -0.811  10.991  -0.050  1.6213 -0.4617 -1.8718
  387MOL0     H52237  -0.684  11.013  -0.247 -0.4495  0.2409 -1.5484
  387MOL0     H52238  -0.652  11.180  -0.225  0.7359 -0.7174  3.4208
  387MOL0     H52239  -0.853  11.154  -0.361 -0.2647 -1.4441 -0.6902
  387MOL0     H52240  -0.928  11.038  -0.245 -1.2016  0.8769  6.2009
  387MOL0     H52241  -1.059  11.384  -0.061 -0.4649 -2.0578  0.9454
  387MOL0     H52242  -0.318  11.310   0.017 -0.9744  0.5132  2.1352
  387MOL0     H52243  -0.006  11.298  -0.023  0.8359 -1.7162  0.8504
  387MOL0     H52244  -0.148  11.396   0.049 -2.2247 -1.5385 -0.4867
  387MOL0     H52245  -0.024  11.327   0.154 -1.9204 -3.0331  0.4833
  388MOL0     O52246   0.769   0.074   0.202  0.4242 -0.1009 -0.5511
  388MOL0     C52247   0.806   0.188   0.222  0.1852  0.0596 -0.1032
  388MOL0     O52248   0.730   0.300   0.236  0.4415 -0.4109  0.3177
  388MOL0     C52249   0.593   0.313   0.250 -0.1929  0.6728  0.0949
  388MOL0     C52250   0.533   0.441   0.258 -1.1370  0.1630  0.0212
  388MOL0     C52251   0.391   0.463   0.262 -0.2680 -0.7671  0.6493
  388MOL0     C52252   0.309   0.354   0.268 -0.0390 -1.5121  0.6843
  388MOL0     O52253   0.177   0.374   0.251 -0.0741  0.2603 -0.3771
  388MOL0     C52254   0.102   0.299   0.352  0.0819  0.2075 -0.3311
  388MOL0     C52255  -0.029   0.366   0.386 -0.2665  0.1343  0.0171
  388MOL0     C52256  -0.140   0.309   0.308  0.2742 -0.4338 -0.2794
  388MOL0     C52257  -0.275   0.360   0.340 -0.5591 -0.0459  0.0494
  388MOL0     C52258  -0.323   0.325   0.484  0.5275 -0.0880  0.4323
  388MOL0     C52259  -0.454   0.402   0.524  0.4710 -0.2200 -0.1685
  388MOL0     C52260  -0.571   0.357   0.434  0.9331 -0.3907  0.2842
  388MOL0     C52261  -0.703   0.417   0.471  0.3523 -0.4881  0.8047
  388MOL0     N52262  -0.749   0.541   0.406 -0.0679 -0.7578 -0.1393
  388MOL0     C52263  -0.726   0.581   0.278 -1.0367  0.8268 -0.3584
  388MOL0     C52264  -0.779   0.703   0.267  0.3339  0.0014 -0.1406
  388MOL0     C52265  -0.780   0.801   0.151  0.8029 -0.8275 -0.4614
  388MOL0     C52266  -0.650   0.884   0.157  1.1879  2.0529  0.3343
  388MOL0     C52267  -0.656   1.002   0.063 -0.1249  1.0016  0.4994
  388MOL0     C52268  -0.650   0.959  -0.081 -1.1644  0.6945  0.2205
  388MOL0     O52269  -0.538   0.864  -0.101 -0.8371  0.3170 -0.8602
  388MOL0     C52270  -0.461   0.880  -0.210  0.2587  0.2775 -0.4815
  388MOL0     C52271  -0.338   0.951  -0.194  0.6814 -0.1454 -0.2093
  388MOL0     C52272  -0.254   0.984  -0.299  0.4917  0.7228 -0.2398
  388MOL0     C52273  -0.298   0.959  -0.427  0.6200 -0.6902  0.0892
  388MOL0     C52274  -0.206   0.992  -0.540  0.0180  0.6992  0.1348
  388MOL0     O52275  -0.070   0.976  -0.523  0.0930 -0.6779  0.6195
  388MOL0     C52276   0.014   0.947  -0.636  0.8697 -0.0974 -0.6681
  388MOL0     C52277  -0.032   0.906  -0.757  0.3729 -0.0191 -0.2035
  388MOL0     C52278   0.065   0.864  -0.855  0.2584 -0.7956 -0.4864
  388MOL0     C52279   0.205   0.872  -0.830 -0.2501 -0.5666 -0.7724
  388MOL0     O52280   0.306   0.842  -0.924 -0.4164  0.9124  0.0363
  388MOL0     C52281   0.285   0.723  -0.998  0.6501 -0.8242  0.2147
  388MOL0     C52282   0.425   0.679  -1.052 -0.7710 -0.2793  0.2268
  388MOL0     C52283   0.499   0.771  -1.153  0.1447 -0.6232 -0.2275
  388MOL0     C52284   0.632   0.725  -1.208 -1.0657 -0.6663 -0.2832
  388MOL0     C52285   0.750   0.746  -1.108  0.1136 -0.6683 -0.2938
  388MOL0     C52286   0.883   0.742  -1.167  0.2724  0.0918 -0.0959
  388MOL0     C52287   0.993   0.782  -1.065  0.4998  0.1931  0.0140
  388MOL0     C52288   1.143   0.743  -1.093  0.6090 -0.3921  0.6611
  388MOL0    Cl52289   1.248   0.759  -0.958 -0.1431 -0.1495  0.2984
  388MOL0     C52290   0.242   0.928  -0.706 -0.4966 -0.1778  0.5601
  388MOL0     C52291   0.145   0.965  -0.608  0.1978 -0.8005 -0.5319
  388MOL0     O52292  -0.255   1.040  -0.637 -0.3052 -0.7362 -0.6502
  388MOL0     C52293  -0.422   0.899  -0.444 -0.2142  0.0068  0.7034
  388MOL0     C52294  -0.505   0.862  -0.332  0.0712  0.9913 -0.5930
  388MOL0     N52295  -0.834   0.724   0.385 -0.6042 -0.8841 -0.1459
  388MOL0     N52296  -0.824   0.633   0.468 -0.0243 -0.0107  0.6271
  388MOL0     C52297   0.355   0.224   0.258 -0.4761 -0.4343 -0.6204
  388MOL0     C52298   0.499   0.202   0.251 -0.0773 -1.0722  0.5621
  388MOL0     C52299   0.953   0.206   0.233 -0.3938 -0.5184 -0.3765
  388MOL0     C52300   1.005   0.294   0.331  0.5171  0.2639  0.7595
  388MOL0     C52301   1.136   0.307   0.357  0.2727  0.0215  0.9236
  388MOL0     C52302   1.233   0.234   0.290  0.3989 -0.1035 -0.7422
  388MOL0     O52303   1.363   0.251   0.303 -0.7673 -0.1452  0.0110
  388MOL0     C52304   1.410   0.348   0.399  0.8519  0.1941  0.2283
  388MOL0     C52305   1.559   0.321   0.437  0.1699  0.1577 -0.5583
  388MOL0     C52306   1.654   0.361   0.324 -0.2285  0.5213  0.0118
  388MOL0     C52307   1.787   0.291   0.326  0.0050  0.1300  0.0358
  388MOL0     C52308   1.873   0.338   0.435  0.9557  0.3945  0.1538
  388MOL0     C52309   1.934   0.382   0.528  0.1558  0.4224  0.2538
  388MOL0     C52310   1.183   0.150   0.193  0.3523  0.9391  0.7994
  388MOL0     C52311   1.049   0.138   0.158 -0.1724 -0.0280  0.7555
  388MOL0     C52312   1.021   0.049   0.040 -0.6397 -0.2452  0.5965
  388MOL0     H52313   0.597   0.529   0.248  0.3837 -1.0008 -1.0548
  388MOL0     H52314   0.351   0.563   0.252 -1.1441 -1.2586 -1.2877
  388MOL0     H52315   0.078   0.197   0.321  0.9482 -0.1338  0.0738
  388MOL0     H52316   0.162   0.285   0.443 -0.4298 -4.0747 -0.4307
  388MOL0     H52317  -0.016   0.474   0.374  1.2550  0.1422  1.3059
  388MOL0     H52318  -0.041   0.353   0.494 -0.8920  0.2137 -0.0416
  388MOL0     H52319  -0.150   0.203   0.333 -0.9766  0.3138  2.8957
  388MOL0     H52320  -0.130   0.317   0.199 -3.0698  0.3532 -0.6420
  388MOL0     H52321  -0.279   0.469   0.330 -2.1421 -0.2085 -1.6782
  388MOL0     H52322  -0.343   0.311   0.269 -0.2858  0.2749 -0.4366
  388MOL0     H52323  -0.331   0.216   0.494  2.0826 -0.5339 -2.1924
  388MOL0     H52324  -0.252   0.355   0.562  0.5466  1.6116 -0.2085
  388MOL0     H52325  -0.480   0.388   0.630 -0.1787  1.8364 -0.0116
  388MOL0     H52326  -0.443   0.510   0.515 -0.4384  0.3579  3.8047
  388MOL0     H52327  -0.573   0.250   0.453  3.0395 -0.3769  0.9420
  388MOL0     H52328  -0.562   0.377   0.327 -4.6544  0.0228 -0.3950
  388MOL0     H52329  -0.771   0.336   0.445  1.8059 -2.1835  2.0425
  388MOL0     H52330  -0.705   0.434   0.580  4.2252 -0.1283  0.9621
  388MOL0     H52331  -0.684   0.513   0.204 -1.0615 -1.0356  1.2357
  388MOL0     H52332  -0.787   0.743   0.059  0.5026 -1.6235  0.0451
  388MOL0     H52333  -0.862   0.872   0.163  0.7486 -0.8928 -0.4449
  388MOL0     H52334  -0.637   0.912   0.262  1.2432 -2.7774  1.8754
  388MOL0     H52335  -0.573   0.812   0.128 -1.0147 -0.8013  1.0614
  388MOL0     H52336  -0.571   1.068   0.082 -1.6539  2.6086  2.1721
  388MOL0     H52337  -0.743   1.066   0.082 -0.8925  1.1726 -2.8922
  388MOL0     H52338  -0.635   1.043  -0.150  0.3452  3.2422  3.3921
  388MOL0     H52339  -0.737   0.903  -0.118 -1.6416  0.0189  2.2131
  388MOL0     H52340  -0.319   0.984  -0.093 -1.2123 -1.1336  0.5075
  388MOL0     H52341  -0.156   1.025  -0.277  1.5014 -2.0464  0.7851
  388MOL0     H52342  -0.136   0.892  -0.785  0.9836 -1.9255 -1.7813
  388MOL0     H52343   0.038   0.842  -0.957 -3.0093 -0.5816  0.2475
  388MOL0     H52344   0.237   0.644  -0.939  0.7029 -0.8024  0.2873
  388MOL0     H52345   0.229   0.740  -1.090  1.4793  1.7599  0.0890
  388MOL0     H52346   0.480   0.663  -0.958 -1.7337  0.3357  0.9163
  388MOL0     H52347   0.426   0.582  -1.103  1.0710 -0.9368  1.4092
  388MOL0     H52348   0.438   0.787  -1.242  0.8274 -1.5887 -0.8822
  388MOL0     H52349   0.501   0.868  -1.101  2.2156 -0.5393 -0.4043
  388MOL0     H52350   0.658   0.791  -1.292 -1.2043  0.9551  0.8981
  388MOL0     H52351   0.634   0.621  -1.242 -0.0824  0.0436 -2.6087
  388MOL0     H52352   0.744   0.678  -1.023  1.7928  1.5399  1.6938
  388MOL0     H52353   0.728   0.846  -1.070 -1.6801 -1.3894  0.6737
  388MOL0     H52354   0.905   0.644  -1.210 -1.2169 -0.2162 -0.1809
  388MOL0     H52355   0.888   0.819  -1.244 -0.2577  0.3119  0.0871
  388MOL0     H52356   0.968   0.734  -0.970 -0.0056  0.0713 -0.1756
  388MOL0     H52357   0.982   0.890  -1.056  0.5329  0.2660 -0.6967
  388MOL0     H52358   1.144   0.642  -1.134 -0.7114  0.6615 -2.1978
  388MOL0     H52359   1.173   0.809  -1.174 -1.5366 -0.2156 -0.0588
  388MOL0     H52360   0.342   0.965  -0.687 -0.8965  0.1745  2.1149
  388MOL0     H52361   0.175   1.016  -0.517 -3.2228 -2.5324  1.7534
  388MOL0     H52362  -0.471   0.892  -0.541  0.5136  2.0603  0.1343
  388MOL0     H52363  -0.602   0.819  -0.352  0.1992  0.2932  0.2164
  388MOL0     H52364   0.297   0.133   0.253  1.9985 -2.1152 -0.4323
  388MOL0     H52365   0.526   0.098   0.239 -0.9481 -1.1505 -0.8876
  388MOL0     H52366   0.943   0.371   0.377 -0.6318 -1.6123  2.5633
  388MOL0     H52367   1.169   0.389   0.419 -0.8698  1.0847  0.1772
  388MOL0     H52368   1.363   0.329   0.496  0.5956  0.4820  0.1611
  388MOL0     H52369   1.406   0.453   0.368  2.7661  0.4909  0.8524
  388MOL0     H52370   1.583   0.218   0.464  2.6661  1.0913  1.1385
  388MOL0     H52371   1.588   0.383   0.522  1.8571 -2.4761  0.9257
  388MOL0     H52372   1.678   0.468   0.322  2.3558  0.0584  1.4018
  388MOL0     H52373   1.605   0.346   0.228  1.5917 -1.5313 -0.6814
  388MOL0     H52374   1.770   0.184   0.330  0.9239 -0.0148  0.3650
  388MOL0     H52375   1.835   0.311   0.229  0.7065  2.7126  0.8234
  388MOL0     H52376   1.982   0.421   0.616  0.4720 -0.9776  0.7258
  388MOL0     H52377   1.262   0.095   0.144  0.4950  1.4830  0.4180
  388MOL0     H52378   0.970   0.107  -0.038  2.8939  3.1274  0.4598
  388MOL0     H52379   1.111   0.016  -0.013 -2.9768  1.2820 -5.1168
  388MOL0     H52380   0.960  -0.038   0.065 -1.3143 -0.2875 -1.0819
  389MOL0     O52381   9.502   0.721  10.489  0.0141 -0.6705  0.4414
  389MOL0     C52382   9.517   0.763  10.607  0.0372 -0.3855  0.3262
  389MOL0     O52383   9.425   0.785  10.696 -0.2982 -0.0316  0.4068
  389MOL0     C52384   9.297   0.820  10.645  0.0802 -0.1791  0.2723
  389MOL0     C52385   9.260   0.862  10.517 -0.7198 -0.8553 -0.7976
  389MOL0     C52386   9.123   0.899  10.496 -0.7064  0.7907 -0.4768
  389MOL0     C52387   9.023   0.893  10.599 -0.2913 -0.6235  0.0423
  389MOL0     O52388   8.899   0.915  10.554  0.6373 -0.8517  0.2182
  389MOL0     C52389   8.778   0.868  10.626  0.4287 -0.7248  0.5247
  389MOL0     C52390   8.670   0.870  10.524  0.6500 -0.8020  0.4504
  389MOL0     C52391   8.526   0.879  10.585 -0.8902 -0.1019 -0.2285
  389MOL0     C52392   8.421   0.815  10.485 -0.0832 -0.8418  0.2449
  389MOL0     C52393   8.279   0.793  10.558 -0.0466  0.0222 -0.3129
  389MOL0     C52394   8.266   0.646  10.604  0.0826  0.3413 -0.3749
  389MOL0     C52395   8.132   0.629  10.678 -0.1236  0.9060 -0.0672
  389MOL0     C52396   8.010   0.641  10.578  0.9453  1.0237 -1.1026
  389MOL0     N52397   7.881   0.597  10.643  0.5286 -0.1691 -0.1873
  389MOL0     C52398   7.796   0.675  10.714  0.3074  0.5578 -0.5607
  389MOL0     C52399   7.688   0.598  10.753 -0.1005  0.6116 -0.7192
  389MOL0     C52400   7.577   0.635  10.840  0.6023  0.1353  0.2863
  389MOL0     C52401   7.601   0.663  10.993 -0.0070 -0.4508  0.0193
  389MOL0     C52402   7.659   0.545  11.072  0.1057 -0.2126  0.7420
  389MOL0     C52403   7.807   0.531  11.058 -0.6489 -0.8945 -0.0968
  389MOL0     O52404   7.874   0.655  11.065 -0.5016 -0.0521  0.0989
  389MOL0     C52405   8.009   0.666  11.043 -0.6284 -0.6766  0.1095
  389MOL0     C52406   8.061   0.793  11.048 -0.0305  0.1788 -0.0880
  389MOL0     C52407   8.194   0.805  11.027 -0.8774 -0.1729 -0.2025
  389MOL0     C52408   8.283   0.704  11.007  0.0426 -0.2941 -0.3877
  389MOL0     C52409   8.427   0.721  11.006  0.1798 -0.1400 -0.1290
  389MOL0     O52410   8.494   0.609  11.041  0.1473  0.1899  0.1431
  389MOL0     C52411   8.628   0.599  11.022  0.2320  0.7965  0.1497
  389MOL0     C52412   8.671   0.517  10.917 -0.2096 -0.3837  0.3896
  389MOL0     C52413   8.806   0.504  10.884  0.5855 -0.6426 -0.2449
  389MOL0     C52414   8.903   0.580  10.963  0.4910  0.0295  0.1458
  389MOL0     O52415   9.038   0.577  10.934  0.1497 -0.0266  0.1040
  389MOL0     C52416   9.099   0.450  10.962  0.2636 -0.1873  0.0496
  389MOL0     C52417   9.244   0.456  10.935 -0.7584 -0.0473  0.5062
  389MOL0     C52418   9.322   0.351  11.002  0.3262  0.5567 -0.4856
  389MOL0     C52419   9.469   0.386  11.006  0.3608 -0.3894  0.6525
  389MOL0     C52420   9.556   0.299  11.100  0.0734 -0.0662 -1.3001
  389MOL0     C52421   9.703   0.307  11.072 -0.9718 -0.4162  0.8368
  389MOL0     C52422   9.781   0.222  11.173 -0.2375 -0.3078 -0.2533
  389MOL0     C52423   9.935   0.242  11.158  0.6006  0.3073  0.1608
  389MOL0    Cl52424   9.994   0.177  11.005 -0.1759  0.2937  0.0700
  389MOL0     C52425   8.860   0.665  11.063 -0.1226  0.1418  0.2487
  389MOL0     C52426   8.721   0.678  11.089  0.0515  0.1226 -0.7262
  389MOL0     O52427   8.474   0.823  10.972  0.1689 -0.0723 -0.0033
  389MOL0     C52428   8.222   0.571  11.012 -0.7060  1.0525 -0.7157
  389MOL0     C52429   8.088   0.554  11.022 -0.2762 -0.4839 -0.0688
  389MOL0     N52430   7.716   0.477  10.695 -0.0356 -0.0516 -0.6505
  389MOL0     N52431   7.844   0.471  10.647  0.3593  0.5613 -0.4451
  389MOL0     C52432   9.059   0.855  10.720 -0.0661  1.7500 -0.8081
  389MOL0     C52433   9.194   0.822  10.743  0.2240  0.8606 -1.3282
  389MOL0     C52434   9.648   0.738  10.669  0.7787 -0.0059  0.7132
  389MOL0     C52435   9.656   0.703  10.807 -0.0219  1.3931 -0.4266
  389MOL0     C52436   9.771   0.655  10.873 -0.9795 -0.0508  0.3098
  389MOL0     C52437   9.893   0.660  10.797 -0.1918 -0.1799  0.6157
  389MOL0     O52438  10.002   0.619  10.866 -0.5350  0.5663  0.7426
  389MOL0     C52439  10.138   0.636  10.813  0.3695  1.0211 -0.1010
  389MOL0     C52440  10.193   0.514  10.741  1.0767  0.2246  0.7583
  389MOL0     C52441  10.342   0.518  10.756  0.3798 -0.6258 -0.1980
  389MOL0     C52442  10.386   0.435  10.887  0.4602 -0.1427  0.5635
  389MOL0     C52443  10.506   0.482  10.960  0.8736  0.4870  0.3135
  389MOL0     C52444  10.600   0.536  11.023 -0.1440  0.3291 -0.0351
  389MOL0     C52445   9.898   0.711  10.666  0.8892  0.4242 -0.0488
  389MOL0     C52446   9.775   0.742  10.600  0.0615 -0.8874 -0.3634
  389MOL0     C52447   9.775   0.794  10.462 -0.1736  0.3862  0.3269
  389MOL0     H52448   9.327   0.871  10.432 -1.6490  3.1725 -1.3161
  389MOL0     H52449   9.088   0.930  10.398 -0.8884  2.8927  0.2027
  389MOL0     H52450   8.794   0.768  10.668  0.8410 -0.5834  0.7130
  389MOL0     H52451   8.757   0.941  10.704 -2.5473 -2.5438  1.5600
  389MOL0     H52452   8.695   0.788  10.456  1.9171  0.7832 -1.0907
  389MOL0     H52453   8.683   0.961  10.465  1.3888 -1.3895 -0.3171
  389MOL0     H52454   8.501   0.981  10.615 -0.7304 -0.5460  1.5242
  389MOL0     H52455   8.522   0.816  10.674 -1.5499  1.0752  0.5866
  389MOL0     H52456   8.404   0.881  10.400 -0.7010 -0.0656  0.9510
  389MOL0     H52457   8.458   0.728  10.430  0.6435  0.7141 -1.8778
  389MOL0     H52458   8.263   0.864  10.640 -0.8856  1.2561 -1.5021
  389MOL0     H52459   8.201   0.816  10.485  0.8177 -0.1837 -1.3246
  389MOL0     H52460   8.265   0.587  10.512 -0.5159  1.4352 -1.0983
  389MOL0     H52461   8.347   0.638  10.677  0.2776  1.0150 -0.5092
  389MOL0     H52462   8.122   0.703  10.758 -1.8360  1.1771 -0.4927
  389MOL0     H52463   8.133   0.528  10.719  0.2526  0.7687 -0.4124
  389MOL0     H52464   8.006   0.749  10.557 -0.5852  1.5968  1.5994
  389MOL0     H52465   8.022   0.588  10.484 -1.1459  0.4233 -1.0964
  389MOL0     H52466   7.803   0.778  10.747  2.4066 -0.2723  1.9232
  389MOL0     H52467   7.528   0.727  10.808 -1.2303  0.2923  3.2222
  389MOL0     H52468   7.499   0.558  10.836 -0.7830  1.5457 -0.6709
  389MOL0     H52469   7.667   0.748  11.010 -0.2543  0.0380 -1.3627
  389MOL0     H52470   7.506   0.697  11.034 -1.0479 -3.2012  0.1120
  389MOL0     H52471   7.605   0.456  11.037  1.5085 -1.2395  1.0785
  389MOL0     H52472   7.645   0.561  11.180  0.6356  0.3842  0.7275
  389MOL0     H52473   7.821   0.485  10.960  1.9567 -2.1274  0.7737
  389MOL0     H52474   7.852   0.466  11.133 -0.7002  1.2395  1.9189
  389MOL0     H52475   7.988   0.871  11.071 -0.6422 -0.6227  0.7995
  389MOL0     H52476   8.244   0.901  11.030 -0.7875 -0.1681  3.5230
  389MOL0     H52477   8.594   0.455  10.871 -3.2274  2.5730  1.0746
  389MOL0     H52478   8.842   0.436  10.807 -1.0593 -3.5028  1.3313
  389MOL0     H52479   9.072   0.429  11.066 -2.6306  2.5175  0.0065
  389MOL0     H52480   9.049   0.384  10.891 -2.0425  0.1338  1.3088
  389MOL0     H52481   9.267   0.457  10.828 -0.1823 -0.5050  0.6224
  389MOL0     H52482   9.283   0.550  10.974  1.6796 -1.4108  1.5967
  389MOL0     H52483   9.278   0.342  11.101  1.1354 -0.1351 -0.1799
  389MOL0     H52484   9.311   0.254  10.954 -2.0524 -0.2076  1.4283
  389MOL0     H52485   9.487   0.493  11.016  2.9534 -0.3361 -2.8814
  389MOL0     H52486   9.511   0.362  10.908 -1.4490  0.0519 -0.2793
  389MOL0     H52487   9.531   0.196  11.075  2.4257 -0.6713 -1.3912
  389MOL0     H52488   9.537   0.317  11.206  1.1577 -0.1530 -1.0776
  389MOL0     H52489   9.732   0.280  10.970 -2.9708 -0.8083  0.3307
  389MOL0     H52490   9.741   0.408  11.094  1.8840 -0.0458 -4.2563
  389MOL0     H52491   9.757   0.115  11.171 -1.0049 -0.1499  0.0836
  389MOL0     H52492   9.756   0.267  11.269 -2.0125  0.0404 -0.8455
  389MOL0     H52493   9.962   0.347  11.169  1.3078  0.0712  0.7318
  389MOL0     H52494   9.989   0.190  11.237 -3.8437 -1.1322  2.6069
  389MOL0     H52495   8.924   0.739  11.110 -2.6028  2.4679  0.1731
  389MOL0     H52496   8.675   0.746  11.159  1.4346 -0.1100  0.4699
  389MOL0     H52497   8.298   0.496  10.994  1.0596  2.9399 -1.4876
  389MOL0     H52498   8.050   0.453  11.008 -3.1284  0.2731  1.4591
  389MOL0     H52499   8.986   0.852  10.800  1.3830 -0.3850  0.5592
  389MOL0     H52500   9.211   0.775  10.840  0.1665 -1.2544 -2.2942
  389MOL0     H52501   9.562   0.694  10.860  1.1310 -1.8265  1.3434
  389MOL0     H52502   9.760   0.621  10.975 -3.5047  0.9632  0.4429
  389MOL0     H52503  10.201   0.644  10.902 -1.8344  0.3065  1.6128
  389MOL0     H52504  10.144   0.728  10.754  0.8784  0.8971 -0.2463
  389MOL0     H52505  10.165   0.519  10.635 -0.0339  0.5843  1.0571
  389MOL0     H52506  10.150   0.418  10.771 -4.3305  0.9791 -2.9224
  389MOL0     H52507  10.367   0.622  10.779 -2.9573 -0.0323  1.3815
  389MOL0     H52508  10.392   0.470  10.672  1.1592 -0.2439  0.0381
  389MOL0     H52509  10.297   0.439  10.952 -0.9949 -2.1517 -1.1619
  389MOL0     H52510  10.387   0.327  10.870 -1.1464 -0.8273  3.9067
  389MOL0     H52511  10.684   0.588  11.066 -0.5759  0.7279  0.3290
  389MOL0     H52512   9.983   0.701  10.601  0.6228  2.8604 -0.8780
  389MOL0     H52513   9.719   0.732  10.392  0.8627 -0.6602  0.3973
  389MOL0     H52514   9.711   0.883  10.455 -0.5237  0.0925 -0.3173
  389MOL0     H52515   9.878   0.819  10.436  0.6004 -3.9285 -1.5582
  390MOL0     O52516   4.107   4.661   6.453  0.0177 -0.5622  0.2467
  390MOL0     C52517   4.152   4.769   6.495 -0.1704  0.3478 -0.2065
  390MOL0     O52518   4.271   4.832   6.449  0.2268 -0.3605  0.4392
  390MOL0     C52519   4.353   4.774   6.361 -0.0506  0.0615  1.1199
  390MOL0     C52520   4.436   4.664   6.399 -0.1005  0.3500 -0.2511
  390MOL0     C52521   4.547   4.615   6.319  0.9235 -0.2515  0.5967
  390MOL0     C52522   4.585   4.678   6.196  0.3058  0.0452 -0.1250
  390MOL0     O52523   4.703   4.650   6.144 -0.0539  0.0519  0.1420
  390MOL0     C52524   4.790   4.746   6.097 -0.3302  0.1561  0.2667
  390MOL0     C52525   4.913   4.767   6.177 -0.4938 -0.1984 -0.5881
  390MOL0     C52526   4.902   4.825   6.316  0.1016 -0.0098  0.2224
  390MOL0     C52527   5.039   4.842   6.380  0.7263 -0.2280 -0.3574
  390MOL0     C52528   5.026   4.937   6.494 -0.1915 -0.9516 -0.5966
  390MOL0     C52529   5.169   4.949   6.556 -1.0161  0.4411  0.3932
  390MOL0     C52530   5.172   5.049   6.659 -0.1014 -0.6830  0.6914
  390MOL0     C52531   5.151   4.983   6.801  0.4689 -0.2451  0.4924
  390MOL0     N52532   5.249   4.889   6.831 -0.1845  0.6636  0.2718
  390MOL0     C52533   5.227   4.762   6.872  0.3893  0.4347 -0.5167
  390MOL0     C52534   5.334   4.715   6.939  0.0601  0.2782  0.1857
  390MOL0     C52535   5.344   4.576   6.987 -0.0163  0.1708 -0.1906
  390MOL0     C52536   5.479   4.518   6.958  0.3486 -0.3029  0.3690
  390MOL0     C52537   5.515   4.404   7.053  0.3025  0.2909  0.7157
  390MOL0     C52538   5.642   4.340   7.025  0.2948 -0.8374  0.9338
  390MOL0     O52539   5.645   4.296   6.883  0.0023  0.0981 -0.6126
  390MOL0     C52540   5.765   4.304   6.824  0.4662  0.5737  0.2009
  390MOL0     C52541   5.758   4.373   6.700  0.0214  0.1105 -0.3220
  390MOL0     C52542   5.876   4.383   6.624  0.3764 -0.6842  0.1788
  390MOL0     C52543   5.991   4.337   6.676 -0.6194  0.5715 -0.1224
  390MOL0     C52544   6.121   4.366   6.612 -0.3584 -0.0962 -0.5583
  390MOL0     O52545   6.238   4.313   6.676 -0.1546  0.0192  0.4825
  390MOL0     C52546   6.361   4.326   6.610 -0.2491 -0.9730 -0.6518
  390MOL0     C52547   6.469   4.390   6.667 -0.9485  0.3571 -0.2772
  390MOL0     C52548   6.584   4.427   6.582  0.0813 -0.5994 -0.8129
  390MOL0     C52549   6.591   4.396   6.449  0.6596  0.2946  0.2273
  390MOL0     O52550   6.699   4.430   6.374 -0.4708 -0.0291 -0.3733
  390MOL0     C52551   6.805   4.337   6.381 -0.1972 -0.8597  0.8573
  390MOL0     C52552   6.934   4.414   6.428  0.7786 -0.1246 -0.0819
  390MOL0     C52553   7.012   4.475   6.311  0.4159  0.8413  1.3077
  390MOL0     C52554   6.947   4.605   6.265  0.7145  0.5225  0.1565
  390MOL0     C52555   6.968   4.626   6.114  0.0778 -0.4028 -1.4208
  390MOL0     C52556   7.108   4.669   6.073 -0.9411 -0.5782 -0.0214
  390MOL0     C52557   7.128   4.684   5.922 -0.5674 -0.2962  0.4100
  390MOL0     C52558   7.256   4.760   5.901  0.0569 -0.4425 -0.6433
  390MOL0    Cl52559   7.253   4.782   5.728  0.3899 -0.2073 -0.0459
  390MOL0     C52560   6.484   4.331   6.393 -0.6831  0.1855  0.5652
  390MOL0     C52561   6.367   4.304   6.473 -0.9408  0.8339  0.7932
  390MOL0     O52562   6.126   4.440   6.517 -0.4914 -0.2800  0.4410
  390MOL0     C52563   6.003   4.278   6.805 -0.1146 -0.4540  0.1430
  390MOL0     C52564   5.889   4.256   6.873  0.4783 -0.1061 -0.2759
  390MOL0     N52565   5.435   4.809   6.926 -0.1369  0.3273 -0.2560
  390MOL0     N52566   5.381   4.907   6.855 -0.2493  0.2425  0.0205
  390MOL0     C52567   4.504   4.787   6.147  0.4527  0.3101  0.1214
  390MOL0     C52568   4.389   4.835   6.230  0.3420  0.5745 -0.2256
  390MOL0     C52569   4.081   4.841   6.597  0.4050  1.1577  0.1080
  390MOL0     C52570   4.149   4.948   6.667  0.6790  0.1729 -0.0494
  390MOL0     C52571   4.093   5.017   6.780 -0.7532 -0.0057 -0.0339
  390MOL0     C52572   3.965   4.986   6.821 -0.4259  1.4072  0.7735
  390MOL0     O52573   3.910   5.055   6.921 -0.7649  0.1030  0.2237
  390MOL0     C52574   3.767   5.075   6.915  0.5024  1.1753  0.0971
  390MOL0     C52575   3.748   5.204   6.991  0.3783  0.3530  1.0344
  390MOL0     C52576   3.595   5.229   6.978  0.0926 -0.1536 -1.4225
  390MOL0     C52577   3.542   5.317   7.093 -0.7206 -0.4425  0.1081
  390MOL0     C52578   3.610   5.441   7.096  1.2796  0.0653  0.8319
  390MOL0     C52579   3.664   5.549   7.081 -0.9547 -0.5502 -0.2158
  390MOL0     C52580   3.903   4.874   6.754  0.2568 -0.4050 -0.4843
  390MOL0     C52581   3.955   4.804   6.650 -0.3365  0.4095 -0.2087
  390MOL0     C52582   3.871   4.686   6.597 -0.2880 -0.5628  0.5399
  390MOL0     H52583   4.420   4.613   6.493  2.8400  1.1060  0.7678
  390MOL0     H52584   4.607   4.533   6.358 -0.1943 -1.5451 -0.2806
  390MOL0     H52585   4.825   4.709   6.001  0.3698 -2.0384  1.2960
  390MOL0     H52586   4.755   4.850   6.094  2.3843  1.1135 -1.8614
  390MOL0     H52587   4.978   4.831   6.116 -1.2619  0.4006 -0.7900
  390MOL0     H52588   4.965   4.671   6.184 -1.9099 -0.9727 -0.3373
  390MOL0     H52589   4.837   4.755   6.370 -0.1274  0.3419  0.4103
  390MOL0     H52590   4.840   4.915   6.313 -0.3094 -0.3227 -0.8370
  390MOL0     H52591   5.090   4.750   6.407 -0.8760 -0.5585  1.7212
  390MOL0     H52592   5.100   4.895   6.306  1.6817  1.1147  1.3129
  390MOL0     H52593   4.998   5.035   6.455  1.1416 -0.7060 -0.9941
  390MOL0     H52594   4.959   4.904   6.574  0.8035 -4.0443 -0.9083
  390MOL0     H52595   5.193   4.851   6.597 -2.3970  0.5339  1.4942
  390MOL0     H52596   5.246   4.992   6.491 -1.6477  2.1813  0.7435
  390MOL0     H52597   5.105   5.131   6.632 -0.8163 -1.4954 -0.0454
  390MOL0     H52598   5.265   5.104   6.678 -0.1949 -0.5833  0.8676
  390MOL0     H52599   5.166   5.065   6.873  1.1696 -0.4801  0.6180
  390MOL0     H52600   5.048   4.948   6.815  0.4547  0.1988  1.6637
  390MOL0     H52601   5.132   4.712   6.857 -0.2730  2.1426 -2.5277
  390MOL0     H52602   5.324   4.578   7.095 -2.5221 -0.8251 -0.5746
  390MOL0     H52603   5.270   4.513   6.937  1.9188 -0.9692 -1.7873
  390MOL0     H52604   5.469   4.481   6.855 -1.1126  0.8975  0.0398
  390MOL0     H52605   5.556   4.593   6.977 -0.5256 -0.0528  3.2495
  390MOL0     H52606   5.437   4.331   7.032  1.7762 -0.4964 -2.7363
  390MOL0     H52607   5.516   4.452   7.152  2.6766  1.5211  0.1673
  390MOL0     H52608   5.663   4.251   7.085 -1.7864 -2.0031  0.0557
  390MOL0     H52609   5.723   4.410   7.044 -1.0172  1.3258 -0.9527
  390MOL0     H52610   5.663   4.422   6.681 -0.3808 -0.3110  0.5185
  390MOL0     H52611   5.880   4.434   6.528  0.1256 -1.6703 -0.3733
  390MOL0     H52612   6.476   4.425   6.770  0.0415 -0.5927 -0.0078
  390MOL0     H52613   6.665   4.474   6.637  1.0111 -0.9500 -1.8211
  390MOL0     H52614   6.792   4.256   6.453  3.5747 -0.7402  1.8969
  390MOL0     H52615   6.799   4.285   6.285 -0.4592 -0.1453  0.4762
  390MOL0     H52616   6.894   4.495   6.490 -1.0986 -0.0079 -1.3501
  390MOL0     H52617   7.002   4.341   6.473  1.5224  1.6905  1.8854
  390MOL0     H52618   7.110   4.498   6.355  0.8880 -0.2864  0.9041
  390MOL0     H52619   7.016   4.397   6.234  2.8517 -1.0242  3.1568
  390MOL0     H52620   6.974   4.689   6.330  1.6833  0.3024  0.0477
  390MOL0     H52621   6.838   4.600   6.261  0.6772  1.7738 -0.7770
  390MOL0     H52622   6.904   4.708   6.081 -1.9380 -1.0970  0.4774
  390MOL0     H52623   6.937   4.532   6.066  1.7596 -1.6415 -0.2290
  390MOL0     H52624   7.123   4.762   6.129  1.2008  0.1489 -1.6665
  390MOL0     H52625   7.180   4.596   6.110  1.9201  1.6879 -0.7933
  390MOL0     H52626   7.038   4.735   5.888 -0.7186 -0.9230 -0.1552
  390MOL0     H52627   7.144   4.586   5.876  3.7511  0.6825 -0.6988
  390MOL0     H52628   7.265   4.859   5.946 -0.5997  0.8034 -3.0311
  390MOL0     H52629   7.339   4.697   5.932 -1.3545 -2.9914 -1.7353
  390MOL0     H52630   6.480   4.310   6.287 -1.6073  0.1999  0.5886
  390MOL0     H52631   6.278   4.258   6.429 -2.0539  1.5642  2.1896
  390MOL0     H52632   6.097   4.253   6.854  0.6772  0.0930 -1.0548
  390MOL0     H52633   5.886   4.203   6.968 -0.2314  0.1498 -0.1452
  390MOL0     H52634   4.532   4.839   6.056 -0.0058 -1.3279 -1.0041
  390MOL0     H52635   4.329   4.915   6.189 -1.4618 -1.3624 -1.5404
  390MOL0     H52636   4.250   4.982   6.648  0.1002  2.4829  0.5935
  390MOL0     H52637   4.145   5.094   6.836 -1.5540 -1.3253  2.7290
  390MOL0     H52638   3.723   4.992   6.971  0.7156  2.5640  2.4385
  390MOL0     H52639   3.732   5.079   6.811 -1.5512  2.7424  0.7968
  390MOL0     H52640   3.791   5.292   6.943 -1.7995  0.3225 -1.2010
  390MOL0     H52641   3.780   5.203   7.095  0.1004  0.2919  1.1225
  390MOL0     H52642   3.539   5.136   6.982  0.9538 -0.6649 -1.0594
  390MOL0     H52643   3.565   5.288   6.890 -0.3341 -0.2082 -1.3144
  390MOL0     H52644   3.432   5.323   7.094 -0.6820  1.3575  2.6212
  390MOL0     H52645   3.569   5.264   7.185  1.1087  1.4802  0.7585
  390MOL0     H52646   3.723   5.635   7.059 -1.0451 -0.6966 -1.0517
  390MOL0     H52647   3.810   4.837   6.796  1.0752 -1.8448  0.1241
  390MOL0     H52648   3.930   4.595   6.602  1.2418  0.4016  0.6287
  390MOL0     H52649   3.779   4.677   6.656 -0.3018  2.1272  1.0911
  390MOL0     H52650   3.839   4.703   6.493  2.0231 -2.5705 -0.5859
  391MOL0     O52651   5.773   7.482   2.190 -0.0024  0.5684  0.0451
  391MOL0     C52652   5.714   7.576   2.143  0.5880 -1.2484 -0.6031
  391MOL0     O52653   5.762   7.684   2.081 -0.4591 -0.7298 -0.2069
  391MOL0     C52654   5.887   7.723   2.103  0.3131 -0.3247 -0.3478
  391MOL0     C52655   5.973   7.732   1.996  0.2604  0.8977  0.0976
  391MOL0     C52656   6.115   7.766   2.022  0.8547 -0.7298 -0.9649
  391MOL0     C52657   6.145   7.793   2.159 -0.4766  0.1640 -0.3873
  391MOL0     O52658   6.279   7.832   2.181 -0.3988 -0.4172 -0.0505
  391MOL0     C52659   6.324   7.890   2.306  0.2598  0.1508  0.8337
  391MOL0     C52660   6.450   7.970   2.285 -0.2489 -0.2368  1.0851
  391MOL0     C52661   6.564   7.886   2.238  0.4573  0.5092 -0.6038
  391MOL0     C52662   6.687   7.969   2.241 -0.0334  0.4672 -0.3886
  391MOL0     C52663   6.805   7.887   2.196 -0.0210 -0.5779 -0.7030
  391MOL0     C52664   6.926   7.983   2.216  0.0376 -0.0840 -0.6671
  391MOL0     C52665   7.050   7.925   2.150 -0.1142 -0.2801 -1.1619
  391MOL0     C52666   7.088   7.796   2.228  0.8096  0.3633 -0.3794
  391MOL0     N52667   7.226   7.752   2.202 -0.4306 -0.1984  0.0476
  391MOL0     C52668   7.329   7.790   2.282 -0.3739  0.6579  0.2760
  391MOL0     C52669   7.434   7.758   2.206 -0.5792  0.0392  0.8909
  391MOL0     C52670   7.579   7.796   2.235 -0.1396 -0.5526  0.0073
  391MOL0     C52671   7.688   7.729   2.159 -0.1648  0.1898  0.9866
  391MOL0     C52672   7.817   7.747   2.230  0.1572  0.0537  0.2518
  391MOL0     C52673   7.932   7.656   2.178 -0.8995  0.7960 -0.0512
  391MOL0     O52674   7.999   7.728   2.069 -0.7529 -0.3593  0.3098
  391MOL0     C52675   8.119   7.659   2.032 -0.1091  0.0146  0.3207
  391MOL0     C52676   8.201   7.723   1.944 -0.1585  0.1542 -0.2429
  391MOL0     C52677   8.322   7.668   1.901  0.0135  0.5893  0.0753
  391MOL0     C52678   8.347   7.522   1.928  0.6146  0.1855 -0.1180
  391MOL0     C52679   8.468   7.451   1.883  0.5237  0.5814  0.0968
  391MOL0     O52680   8.469   7.324   1.894  1.0791  0.5544  0.4495
  391MOL0     C52681   8.527   7.264   1.790 -0.3346 -0.2594 -0.1204
  391MOL0     C52682   8.453   7.244   1.666  0.0792  0.5290  0.2316
  391MOL0     C52683   8.503   7.180   1.553  0.1174 -0.1148 -0.2473
  391MOL0     C52684   8.638   7.143   1.553  0.3318 -0.0738 -0.0994
  391MOL0     O52685   8.671   7.086   1.443 -0.2868 -0.5116 -0.4527
  391MOL0     C52686   8.809   7.033   1.437  0.0965 -0.0055  1.0786
  391MOL0     C52687   8.924   7.130   1.411  1.7554  0.0511 -0.3652
  391MOL0     C52688   9.039   7.050   1.348 -0.6636  0.5053 -1.2820
  391MOL0     C52689   9.152   7.151   1.362  0.4307 -1.2572  0.8877
  391MOL0     C52690   9.294   7.117   1.313  0.8699 -0.3325 -0.0727
  391MOL0     C52691   9.405   7.162   1.413 -0.3178  0.5908 -1.8228
  391MOL0     C52692   9.541   7.132   1.362  0.6993  0.0335  0.4131
  391MOL0     C52693   9.653   7.184   1.450  0.2310 -0.1405  0.7719
  391MOL0    Cl52694   9.633   7.351   1.511 -0.2331 -0.1952  0.2865
  391MOL0     C52695   8.711   7.156   1.680  0.1761 -0.0108 -0.6396
  391MOL0     C52696   8.658   7.219   1.788  1.1256  0.1675 -0.5871
  391MOL0     O52697   8.554   7.521   1.832  0.0404 -0.0100 -0.4382
  391MOL0     C52698   8.250   7.451   2.001  0.6448 -0.0862 -0.3131
  391MOL0     C52699   8.141   7.521   2.055 -0.3456  0.0325  0.2148
  391MOL0     N52700   7.395   7.684   2.098 -0.0563  0.2455  0.5715
  391MOL0     N52701   7.267   7.675   2.096  0.0953  0.9551 -0.3792
  391MOL0     C52702   6.048   7.792   2.264 -0.5564  0.6034  0.5961
  391MOL0     C52703   5.920   7.769   2.232  0.9342 -0.0110 -0.0586
  391MOL0     C52704   5.566   7.564   2.149 -0.4917 -0.7060  0.3020
  391MOL0     C52705   5.488   7.674   2.189  0.0007  0.1711  1.0345
  391MOL0     C52706   5.348   7.657   2.207 -0.7087  0.3802 -0.2656
  391MOL0     C52707   5.285   7.537   2.181 -0.7666 -0.1814 -0.2363
  391MOL0     O52708   5.150   7.533   2.183  0.5922  0.1123  0.6073
  391MOL0     C52709   5.082   7.413   2.161 -0.5732 -0.2930 -0.4544
  391MOL0     C52710   4.948   7.465   2.120 -0.1802 -0.1188  0.2093
  391MOL0     C52711   4.857   7.348   2.079  0.1899  0.2958  0.0917
  391MOL0     C52712   4.715   7.392   2.033  0.2873  0.9707 -0.5036
  391MOL0     C52713   4.730   7.470   1.915 -0.1209  0.2543  0.1758
  391MOL0     C52714   4.743   7.532   1.819  0.2135 -0.0972  0.6719
  391MOL0     C52715   5.367   7.426   2.139 -0.0064 -0.6108  0.0251
  391MOL0     C52716   5.506   7.438   2.125 -0.4035  0.0405 -0.0591
  391MOL0     C52717   5.573   7.301   2.096  0.7217  0.5234 -0.2376
  391MOL0     H52718   5.935   7.711   1.897  1.3257  0.7319 -0.2911
  391MOL0     H52719   6.180   7.780   1.936  0.7212  1.4512 -0.7531
  391MOL0     H52720   6.243   7.959   2.330 -1.5864 -1.6892  0.1832
  391MOL0     H52721   6.341   7.812   2.380 -2.6725  0.6748  2.1762
  391MOL0     H52722   6.473   8.025   2.377  1.5348  2.1692 -0.6940
  391MOL0     H52723   6.430   8.056   2.221 -0.1614  0.0695  1.4659
  391MOL0     H52724   6.546   7.839   2.140  0.2113 -1.0577  0.1652
  391MOL0     H52725   6.584   7.803   2.306  1.6897 -0.3138 -1.9037
  391MOL0     H52726   6.674   8.058   2.177  0.7471 -1.6682 -3.7688
  391MOL0     H52727   6.706   7.996   2.345 -0.0861  1.1399 -0.5482
  391MOL0     H52728   6.820   7.801   2.261  0.6703  0.0633  0.0048
  391MOL0     H52729   6.788   7.856   2.092 -0.0610 -2.9717 -0.0365
  391MOL0     H52730   6.909   8.077   2.162 -0.1987  0.9123  1.0656
  391MOL0     H52731   6.958   8.005   2.318  2.7055 -1.9521 -0.9980
  391MOL0     H52732   7.132   7.996   2.160  0.8531 -1.5402  0.4400
  391MOL0     H52733   7.039   7.902   2.043 -2.7745  2.7267 -1.6738
  391MOL0     H52734   7.076   7.801   2.337  0.7320 -0.5853 -0.3389
  391MOL0     H52735   7.018   7.720   2.192  3.0031 -1.3185 -1.3161
  391MOL0     H52736   7.323   7.851   2.371  0.2392 -2.3756  2.5482
  391MOL0     H52737   7.595   7.902   2.210 -2.3616  0.1538  1.2187
  391MOL0     H52738   7.596   7.788   2.343  1.6314 -0.0015 -0.1933
  391MOL0     H52739   7.662   7.623   2.147 -1.3309  0.6730 -1.2693
  391MOL0     H52740   7.692   7.763   2.056 -0.3374  1.6163  1.4327
  391MOL0     H52741   7.811   7.722   2.336 -1.2042 -0.3812  0.0821
  391MOL0     H52742   7.832   7.856   2.238 -0.5911  0.0752  1.8127
  391MOL0     H52743   7.896   7.558   2.144 -1.9712  1.2256 -0.1738
  391MOL0     H52744   8.011   7.643   2.253  1.8044  3.8163 -2.0755
  391MOL0     H52745   8.171   7.826   1.925 -0.3469  0.3277  0.9103
  391MOL0     H52746   8.395   7.731   1.852 -0.0031 -0.7341 -1.7522
  391MOL0     H52747   8.346   7.250   1.651  0.3858  0.2184 -2.4771
  391MOL0     H52748   8.438   7.153   1.471  0.4798 -1.9205  0.0199
  391MOL0     H52749   8.819   6.968   1.524  2.1949 -1.9199 -0.4483
  391MOL0     H52750   8.814   6.965   1.351  2.5986 -0.9163  1.8545
  391MOL0     H52751   8.898   7.219   1.353  0.8615  0.7222  1.0114
  391MOL0     H52752   8.941   7.167   1.513 -0.3109  0.4152 -0.1052
  391MOL0     H52753   9.049   6.957   1.405  1.5102  0.8174 -1.0549
  391MOL0     H52754   9.015   7.022   1.245 -1.6858  1.0922 -1.2121
  391MOL0     H52755   9.157   7.197   1.461 -0.3748  3.3810 -0.9736
  391MOL0     H52756   9.109   7.230   1.300 -3.2174 -3.3537  0.4266
  391MOL0     H52757   9.301   7.170   1.218  0.0827 -0.9807 -0.5055
  391MOL0     H52758   9.302   7.011   1.287 -0.0244 -0.3888 -0.1677
  391MOL0     H52759   9.397   7.269   1.435 -1.5207  0.1707 -0.0289
  391MOL0     H52760   9.395   7.116   1.512 -3.9282  5.4051  0.4137
  391MOL0     H52761   9.547   7.169   1.259 -1.5427  0.4079  0.3846
  391MOL0     H52762   9.552   7.023   1.363 -3.1096 -0.4603  1.1135
  391MOL0     H52763   9.673   7.107   1.526  0.5649 -3.1301 -2.1438
  391MOL0     H52764   9.748   7.185   1.395 -0.5908  0.2328 -0.6721
  391MOL0     H52765   8.813   7.123   1.698 -0.5722 -1.6238  0.9302
  391MOL0     H52766   8.724   7.218   1.874  1.0842  0.2420 -0.5541
  391MOL0     H52767   8.255   7.346   2.029 -2.0740 -0.3803 -0.6567
  391MOL0     H52768   8.073   7.457   2.111 -2.4468  3.3325  1.7657
  391MOL0     H52769   6.062   7.814   2.370 -0.5378 -1.5975  1.1049
  391MOL0     H52770   5.845   7.759   2.310  0.6912 -4.2093 -0.5905
  391MOL0     H52771   5.529   7.774   2.203 -2.2246  1.4185 -0.7553
  391MOL0     H52772   5.286   7.738   2.245 -0.6476 -0.7394  2.4518
  391MOL0     H52773   5.075   7.359   2.256  0.1175  0.7506  0.2104
  391MOL0     H52774   5.122   7.348   2.082  0.5042  1.1005 -1.1073
  391MOL0     H52775   4.951   7.542   2.042 -1.9061  0.1686  0.3926
  391MOL0     H52776   4.898   7.506   2.208 -0.0597 -1.8339  1.0969
  391MOL0     H52777   4.841   7.291   2.171 -2.0215 -1.4024 -1.2415
  391MOL0     H52778   4.909   7.289   2.003 -0.7186  0.2624 -0.5097
  391MOL0     H52779   4.662   7.299   2.010 -0.6691  1.5916 -0.9353
  391MOL0     H52780   4.668   7.457   2.107  1.2216 -0.4846  1.4341
  391MOL0     H52781   4.768   7.576   1.725 -0.0678  0.0091  0.6443
  391MOL0     H52782   5.325   7.331   2.109  0.1732 -0.4566 -0.7609
  391MOL0     H52783   5.516   7.254   2.016  2.0429  0.2599 -1.0392
  391MOL0     H52784   5.675   7.307   2.056 -0.3418  1.0371 -3.1065
  391MOL0     H52785   5.576   7.226   2.176  0.4649 -1.1318 -1.7326
  392MOL0     O52786   0.660   9.661  10.186 -0.0636 -0.6436 -0.9615
  392MOL0     C52787   0.692   9.673  10.307  1.2171  0.8570 -0.1053
  392MOL0     O52788   0.811   9.719  10.356  0.0013  0.2441  0.3851
  392MOL0     C52789   0.911   9.766  10.271 -0.8357 -0.1797 -0.3225
  392MOL0     C52790   0.997   9.868  10.319  0.0502  0.0577  0.2063
  392MOL0     C52791   1.111   9.907  10.247 -0.0200  0.2618 -0.4946
  392MOL0     C52792   1.136   9.861  10.118 -0.5501  0.6266  0.2758
  392MOL0     O52793   1.244   9.912  10.056 -0.0705 -0.0230  1.1243
  392MOL0     C52794   1.320   9.815   9.988 -0.1368 -0.1413 -0.5850
  392MOL0     C52795   1.462   9.878   9.974  0.6039  0.0362  0.5785
  392MOL0     C52796   1.558   9.776   9.917 -0.0510 -0.2123 -0.5540
  392MOL0     C52797   1.679   9.846   9.839 -0.4150 -0.4298  0.3125
  392MOL0     C52798   1.779   9.738   9.794 -0.2177 -0.2544  0.0903
  392MOL0     C52799   1.891   9.792   9.703  0.0162 -0.6883 -0.2264
  392MOL0     C52800   1.949   9.924   9.756  0.3391 -0.1740 -1.0689
  392MOL0     C52801   2.065   9.983   9.682 -0.3415  0.2127  0.1442
  392MOL0     N52802   2.106  10.109   9.747 -0.6854 -0.1275  0.1640
  392MOL0     C52803   2.196  10.128   9.854 -0.3491  0.6119 -0.0575
  392MOL0     C52804   2.220  10.260   9.839  0.0384  0.3814 -0.6507
  392MOL0     C52805   2.300  10.331   9.953  0.1083 -0.1083  0.8498
  392MOL0     C52806   2.448  10.358   9.903 -0.3237  0.8249  0.7619
  392MOL0     C52807   2.536  10.428  10.013  0.1574 -0.0787  0.1591
  392MOL0     C52808   2.688  10.441   9.995 -0.4333 -0.1843  0.9218
  392MOL0     O52809   2.747  10.504  10.110  0.0609  0.3915  0.0384
  392MOL0     C52810   2.877  10.518  10.124 -0.4832 -0.2609 -1.1471
  392MOL0     C52811   2.973  10.472  10.036 -0.1991 -0.2927  0.6647
  392MOL0     C52812   3.103  10.527  10.038 -0.0227 -0.7741  0.2189
  392MOL0     C52813   3.141  10.621  10.140 -0.8847  0.9668  0.4011
  392MOL0     C52814   3.288  10.666  10.143  1.0938  0.0742  0.0419
  392MOL0     O52815   3.334  10.736  10.253  0.3952 -0.5598  0.0406
  392MOL0     C52816   3.446  10.809  10.226  0.2077 -0.2978  0.1496
  392MOL0     C52817   3.568  10.740  10.212  0.0063  0.1245 -0.4042
  392MOL0     C52818   3.691  10.802  10.218  0.6405 -0.2745  0.2960
  392MOL0     C52819   3.698  10.948  10.229  0.6999 -0.7092 -0.0756
  392MOL0     O52820   3.819  11.009  10.227 -0.1568  0.2340  0.6042
  392MOL0     C52821   3.835  11.146  10.184 -0.1767 -0.1986  0.1426
  392MOL0     C52822   3.968  11.157  10.108  0.7318 -0.0144 -0.1434
  392MOL0     C52823   4.093  11.125  10.189  0.9301  0.8940  0.6069
  392MOL0     C52824   4.218  11.152  10.109 -0.2718  0.0621  0.3445
  392MOL0     C52825   4.344  11.174  10.191  0.1271  0.5628 -0.9052
  392MOL0     C52826   4.370  11.045  10.274 -0.1824 -0.3898 -0.3721
  392MOL0     C52827   4.492  11.061  10.364  0.1412 -0.6547  0.1748
  392MOL0     C52828   4.512  10.939  10.445  0.0661 -0.7071 -0.3616
  392MOL0    Cl52829   4.620  10.964  10.594 -0.2325 -0.0242 -0.6890
  392MOL0     C52830   3.571  11.012  10.237 -0.6346 -1.7249  0.6546
  392MOL0     C52831   3.449  10.942  10.234 -0.3575  0.6729  0.4811
  392MOL0     O52832   3.347  10.652  10.036  0.3837  0.5681  0.7789
  392MOL0     C52833   3.052  10.641  10.244 -0.5860  0.2583 -0.3220
  392MOL0     C52834   2.915  10.602  10.230  0.4147  0.4097  0.6374
  392MOL0     N52835   2.155  10.320   9.735 -0.4940 -0.9595 -0.8755
  392MOL0     N52836   2.088  10.226   9.676 -0.3446  0.4099 -0.2984
  392MOL0     C52837   1.052   9.755  10.075  0.8632  0.2234 -0.3466
  392MOL0     C52838   0.945   9.714  10.150  0.1251  0.0555 -0.0082
  392MOL0     C52839   0.598   9.610  10.403 -0.8570  0.1480 -0.3293
  392MOL0     C52840   0.642   9.597  10.539 -0.3117  0.2073 -0.0715
  392MOL0     C52841   0.576   9.515  10.633 -0.0284  0.0182  0.9467
  392MOL0     C52842   0.454   9.446  10.597  0.2611  0.0173  0.2121
  392MOL0     O52843   0.395   9.367  10.699  0.1914 -0.8541 -0.4927
  392MOL0     C52844   0.302   9.272  10.671  1.2423  0.3646  0.1215
  392MOL0     C52845   0.258   9.212  10.799  0.6925  0.2597  0.4121
  392MOL0     C52846   0.151   9.103  10.777  0.1791 -0.5075 -0.0370
  392MOL0     C52847   0.008   9.151  10.736  0.8101  0.3533 -0.2006
  392MOL0     C52848  -0.068   9.228  10.834 -0.7245 -0.9691  0.0179
  392MOL0     C52849  -0.133   9.287  10.916  0.2766 -0.3857 -0.2195
  392MOL0     C52850   0.409   9.463  10.465 -0.3585 -1.0116  0.2888
  392MOL0     C52851   0.477   9.551  10.374  0.3295  0.0080  0.9732
  392MOL0     C52852   0.422   9.553  10.231 -0.4817  0.0540  0.0636
  392MOL0     H52853   0.958   9.908  10.412  2.5651  0.6778  1.0641
  392MOL0     H52854   1.166   9.993  10.284 -0.8888  0.2168  0.9634
  392MOL0     H52855   1.332   9.720  10.040  0.0099  0.2355  0.0772
  392MOL0     H52856   1.278   9.794   9.889 -0.1318 -0.1689 -0.5817
  392MOL0     H52857   1.491   9.919  10.071 -0.9474  3.7203 -0.3405
  392MOL0     H52858   1.474   9.961   9.904  0.2617  0.4547  1.0109
  392MOL0     H52859   1.492   9.723   9.848 -1.7778 -0.4794  1.2142
  392MOL0     H52860   1.600   9.707   9.990  1.5180 -0.2876 -1.4686
  392MOL0     H52861   1.638   9.879   9.743 -2.2490 -2.4057  0.3382
  392MOL0     H52862   1.720   9.931   9.894  1.1818 -0.7716 -0.2791
  392MOL0     H52863   1.823   9.688   9.881  1.7183 -0.2150 -0.8315
  392MOL0     H52864   1.733   9.664   9.728  1.8581 -0.5076 -1.1686
  392MOL0     H52865   1.982   9.734   9.687  0.8910  0.8955 -1.2505
  392MOL0     H52866   1.848   9.808   9.604 -0.1186 -0.5041 -0.1385
  392MOL0     H52867   1.979   9.904   9.859 -0.5059  0.5789 -0.6582
  392MOL0     H52868   1.876  10.005   9.751 -0.9724 -0.8059  3.5215
  392MOL0     H52869   2.145   9.908   9.673  0.0239  0.6949 -0.8512
  392MOL0     H52870   2.036   9.999   9.578  1.7005  0.7821 -0.3923
  392MOL0     H52871   2.239  10.055   9.922 -1.7484 -1.2646 -1.1047
  392MOL0     H52872   2.251  10.428   9.968 -3.7629 -1.8132  0.4260
  392MOL0     H52873   2.303  10.276  10.047  1.6459 -1.2448  0.1856
  392MOL0     H52874   2.496  10.263   9.879 -0.5485  0.2844  2.3631
  392MOL0     H52875   2.459  10.424   9.816  0.7887  2.5661  2.1426
  392MOL0     H52876   2.533  10.354  10.094  3.0533 -2.2040 -1.4874
  392MOL0     H52877   2.489  10.525  10.035 -1.4756 -0.2645 -2.1268
  392MOL0     H52878   2.715  10.499   9.907 -1.1249 -1.0839  0.0891
  392MOL0     H52879   2.724  10.340   9.972 -0.9436  0.2005 -1.9158
  392MOL0     H52880   2.939  10.397   9.965 -4.5980  2.9410 -1.1263
  392MOL0     H52881   3.169  10.496   9.958  0.3458 -5.0557  1.9524
  392MOL0     H52882   3.558  10.633  10.219 -1.2105  0.2664  0.3323
  392MOL0     H52883   3.784  10.747  10.225  0.2587 -0.7215  3.1264
  392MOL0     H52884   3.751  11.186  10.127 -1.8768 -0.2943  2.4761
  392MOL0     H52885   3.846  11.208  10.273 -1.4471 -1.2441  1.0623
  392MOL0     H52886   3.965  11.095  10.018 -0.7258  0.9264 -0.7797
  392MOL0     H52887   3.970  11.264  10.085 -1.1429  0.0500 -0.2086
  392MOL0     H52888   4.086  11.197  10.271 -1.7831 -0.9425  2.1331
  392MOL0     H52889   4.090  11.020  10.217 -1.4884  0.0806 -2.1119
  392MOL0     H52890   4.194  11.239  10.048  1.9626 -0.5336 -1.5165
  392MOL0     H52891   4.245  11.076  10.035 -1.2293  0.9195 -0.9198
  392MOL0     H52892   4.344  11.267  10.247 -3.2338  0.2157 -0.1125
  392MOL0     H52893   4.427  11.182  10.120  0.8856  1.7047  0.0533
  392MOL0     H52894   4.285  11.019  10.338 -1.4051  0.0258 -1.7720
  392MOL0     H52895   4.391  10.968  10.199  2.0068 -1.2989  1.1029
  392MOL0     H52896   4.481  11.140  10.439 -2.0724  0.0424 -0.8166
  392MOL0     H52897   4.581  11.079  10.302  1.9519  1.6439  3.1299
  392MOL0     H52898   4.413  10.911  10.482 -0.9853  1.1802 -1.6045
  392MOL0     H52899   4.553  10.856  10.387 -0.1418 -0.0809 -1.4207
  392MOL0     H52900   3.564  11.119  10.255 -1.9313 -1.9459  1.6750
  392MOL0     H52901   3.362  11.005  10.244  0.9697  3.1406 -2.0170
  392MOL0     H52902   3.079  10.697  10.334  0.1656  0.4203 -0.6422
  392MOL0     H52903   2.841  10.632  10.304  1.1707  1.0059  1.1731
  392MOL0     H52904   1.067   9.713   9.976 -2.9944  2.1900 -1.9586
  392MOL0     H52905   0.892   9.628  10.112 -2.2813  1.4388  0.0095
  392MOL0     H52906   0.729   9.654  10.572 -2.5157  3.6343  0.3075
  392MOL0     H52907   0.630   9.502  10.726  0.7277 -2.7700  0.1952
  392MOL0     H52908   0.345   9.209  10.592  1.5455  0.6333  0.0694
  392MOL0     H52909   0.216   9.320  10.625  0.8224 -1.2247 -0.8390
  392MOL0     H52910   0.212   9.298  10.850 -2.6409 -0.5177 -0.9656
  392MOL0     H52911   0.332   9.183  10.874  1.5248  0.9731 -0.1170
  392MOL0     H52912   0.132   9.045  10.868 -1.2114  0.2106  0.1559
  392MOL0     H52913   0.191   9.030  10.705 -2.5047 -0.7749 -1.3811
  392MOL0     H52914   0.001   9.207  10.642 -1.1396 -0.5457 -0.6447
  392MOL0     H52915  -0.051   9.060  10.719  1.7865  0.0276 -2.1699
  392MOL0     H52916  -0.205   9.326  10.985 -0.0333 -2.4861  0.7238
  392MOL0     H52917   0.318   9.414  10.430 -1.6643  2.1474 -1.1400
  392MOL0     H52918   0.316   9.528  10.225 -1.0838  2.6116 -1.4773
  392MOL0     H52919   0.431   9.649  10.179  1.3048  0.2222  0.5984
  392MOL0     H52920   0.479   9.479  10.173 -1.5116  1.1667 -2.5466
  393MOL0     O52921   8.445   7.391   4.879 -0.1459  0.5431 -0.0885
  393MOL0     C52922   8.355   7.376   4.791 -0.4456  0.1419 -0.3581
  393MOL0     O52923   8.385   7.367   4.653 -0.2443  0.6324  0.0586
  393MOL0     C52924   8.517   7.370   4.608 -0.0163 -0.4349 -0.3407
  393MOL0     C52925   8.576   7.254   4.573  0.2517  0.3581 -0.0634
  393MOL0     C52926   8.699   7.261   4.514  0.3650  1.2954 -0.4484
  393MOL0     C52927   8.766   7.374   4.500  0.2794  0.4300 -0.2696
  393MOL0     O52928   8.895   7.377   4.452 -0.5921 -0.3696  0.5290
  393MOL0     C52929   8.987   7.333   4.559  0.8473 -0.3085  0.3527
  393MOL0     C52930   9.126   7.318   4.497  1.1380  0.5055 -0.3127
  393MOL0     C52931   9.203   7.443   4.506 -0.7746 -0.6663 -1.0705
  393MOL0     C52932   9.347   7.421   4.445 -0.8254  0.8087  1.0749
  393MOL0     C52933   9.411   7.550   4.391 -1.0139 -0.4581 -0.7982
  393MOL0     C52934   9.343   7.591   4.265 -0.2093  0.4050 -0.7682
  393MOL0     C52935   9.432   7.570   4.146 -0.7082  0.1220 -1.1467
  393MOL0     C52936   9.447   7.421   4.108 -0.0232  0.5471 -0.5781
  393MOL0     N52937   9.542   7.410   3.993  0.3423  0.6505  0.4517
  393MOL0     C52938   9.510   7.359   3.866 -0.7419 -0.5967 -0.0454
  393MOL0     C52939   9.625   7.349   3.801  0.0293  0.4649 -0.4029
  393MOL0     C52940   9.657   7.302   3.665  0.4413  0.1474  0.4069
  393MOL0     C52941   9.559   7.187   3.624  0.5458  0.3406 -0.5892
  393MOL0     C52942   9.586   7.117   3.487 -0.4913  0.1744 -0.1088
  393MOL0     C52943   9.726   7.051   3.459 -0.5206 -0.2875 -0.1762
  393MOL0     O52944   9.822   7.161   3.445 -0.3214  0.6469 -0.6888
  393MOL0     C52945   9.945   7.130   3.403  0.2992  0.7424 -1.3167
  393MOL0     C52946   9.991   6.996   3.412  0.2582  0.0191  0.2483
  393MOL0     C52947  10.119   6.971   3.355  0.1531 -0.5871  0.0430
  393MOL0     C52948  10.190   7.076   3.293  0.4539  0.7569 -0.3328
  393MOL0     C52949  10.329   7.050   3.234 -1.2928 -0.9366 -0.2228
  393MOL0     O52950  10.386   7.143   3.149 -0.8176 -0.5241 -0.2358
  393MOL0     C52951  10.522   7.130   3.121 -0.0964 -0.3901 -0.6745
  393MOL0     C52952  10.607   7.176   3.223 -0.4486 -0.6964  0.5181
  393MOL0     C52953  10.746   7.188   3.201  0.6714 -0.3190 -0.1722
  393MOL0     C52954  10.799   7.145   3.079  0.4730 -0.1371 -0.2155
  393MOL0     O52955  10.939   7.162   3.056 -0.0226  0.1807 -0.2301
  393MOL0     C52956  10.997   7.093   2.941 -0.2034 -0.1064 -0.1118
  393MOL0     C52957  11.155   7.107   2.954  0.2874 -0.9792  0.2582
  393MOL0     C52958  11.193   7.027   3.083 -0.7713  0.4600 -0.1196
  393MOL0     C52959  11.346   7.014   3.090 -0.0982  0.5512 -0.0239
  393MOL0     C52960  11.430   7.138   3.127 -0.3901 -0.4643 -0.0902
  393MOL0     C52961  11.578   7.109   3.140  0.7880 -0.6223  0.8123
  393MOL0     C52962  11.614   6.989   3.238 -1.1673  0.5643  0.2493
  393MOL0     C52963  11.758   6.979   3.292 -0.2978  0.1936  0.7455
  393MOL0    Cl52964  11.881   6.942   3.163  0.0794  0.1584  0.0709
  393MOL0     C52965  10.710   7.108   2.971  0.0531  0.1596 -0.3508
  393MOL0     C52966  10.570   7.092   3.000 -0.0416 -1.0594  0.3103
  393MOL0     O52967  10.374   6.950   3.278  0.0930 -0.0767 -0.3376
  393MOL0     C52968  10.145   7.204   3.299  0.2148  0.0608 -0.1182
  393MOL0     C52969  10.018   7.230   3.349  0.3501  1.2317 -0.8694
  393MOL0     N52970   9.730   7.391   3.886  0.2677 -0.0706  0.0539
  393MOL0     N52971   9.672   7.436   4.001 -0.1297  0.3185 -0.7821
  393MOL0     C52972   8.710   7.500   4.528  0.6729 -0.4228 -0.5369
  393MOL0     C52973   8.584   7.490   4.598  0.6517 -0.1495 -0.0574
  393MOL0     C52974   8.223   7.392   4.828  0.1968  0.2892  0.2513
  393MOL0     C52975   8.119   7.375   4.726  0.7931  0.0890 -0.0542
  393MOL0     C52976   7.986   7.369   4.760  0.6565  0.3222 -0.0806
  393MOL0     C52977   7.942   7.407   4.886  0.3881 -0.5231 -0.5689
  393MOL0     O52978   7.805   7.402   4.905  0.0074  1.1253 -0.1464
  393MOL0     C52979   7.744   7.527   4.904 -0.0840  0.3790 -0.1152
  393MOL0     C52980   7.621   7.529   4.992 -0.3796  0.2599  0.1221
  393MOL0     C52981   7.584   7.670   5.024 -0.0856  0.3679  0.4375
  393MOL0     C52982   7.433   7.669   5.068 -0.2074  0.5174 -0.0199
  393MOL0     C52983   7.337   7.630   4.963  0.1357 -0.8868 -0.2726
  393MOL0     C52984   7.257   7.596   4.875  0.2943 -0.2533  0.4409
  393MOL0     C52985   8.036   7.434   4.987  0.4242  0.3336 -0.3926
  393MOL0     C52986   8.172   7.424   4.962 -0.0643 -0.1376 -0.0422
  393MOL0     C52987   8.250   7.450   5.085 -0.3543  0.4616  0.7008
  393MOL0     H52988   8.525   7.160   4.594  0.3246  0.5164  0.8611
  393MOL0     H52989   8.754   7.173   4.481 -0.4089  1.0195 -1.0411
  393MOL0     H52990   8.989   7.404   4.642 -1.2823 -0.6937  0.7813
  393MOL0     H52991   8.958   7.240   4.607  2.2798 -1.6449 -1.2298
  393MOL0     H52992   9.120   7.275   4.396 -0.4977 -2.1741  0.8225
  393MOL0     H52993   9.178   7.236   4.547 -2.4891  0.0984  3.3498
  393MOL0     H52994   9.210   7.458   4.614  1.0408  1.2600 -1.3811
  393MOL0     H52995   9.167   7.531   4.452  2.2820  1.6471  0.3185
  393MOL0     H52996   9.414   7.373   4.517  0.2982 -1.2315 -1.1757
  393MOL0     H52997   9.320   7.346   4.370 -2.1730  1.7391  0.6036
  393MOL0     H52998   9.399   7.627   4.467  0.8551 -1.2219  0.3195
  393MOL0     H52999   9.518   7.531   4.384 -0.5721  0.7437  1.7400
  393MOL0     H53000   9.257   7.528   4.241  0.3523 -1.3703  1.5446
  393MOL0     H53001   9.316   7.697   4.267 -1.7802  0.0654 -2.1322
  393MOL0     H53002   9.529   7.614   4.171 -0.4525 -0.9897 -0.0921
  393MOL0     H53003   9.402   7.627   4.058  0.8711 -0.5162 -2.1313
  393MOL0     H53004   9.485   7.361   4.191  2.4478  1.5579 -0.8944
  393MOL0     H53005   9.350   7.379   4.079 -0.0123  2.0050 -3.0679
  393MOL0     H53006   9.405   7.332   3.862 -0.5483 -1.4289  0.4046
  393MOL0     H53007   9.646   7.393   3.605  2.3467  0.8063  0.9972
  393MOL0     H53008   9.761   7.269   3.657  0.0395 -0.7411 -2.1497
  393MOL0     H53009   9.554   7.103   3.695  0.3066  1.4493  0.7455
  393MOL0     H53010   9.465   7.240   3.612  0.1859 -0.1217  0.0932
  393MOL0     H53011   9.572   7.187   3.404  0.7250  0.8825  0.2564
  393MOL0     H53012   9.517   7.033   3.481  1.8472 -2.0996  2.1571
  393MOL0     H53013   9.714   6.979   3.377 -0.9910  0.4933 -0.8011
  393MOL0     H53014   9.763   6.995   3.546 -0.8114  1.6609  1.2515
  393MOL0     H53015   9.945   6.911   3.461  2.2390 -1.5259 -0.4538
  393MOL0     H53016  10.157   6.870   3.362  1.0807 -0.1894  0.9212
  393MOL0     H53017  10.558   7.209   3.314 -1.6458 -1.5023  0.2049
  393MOL0     H53018  10.812   7.218   3.282 -0.3477  3.2243 -0.4934
  393MOL0     H53019  10.951   6.995   2.931 -2.8573  0.4529  4.0038
  393MOL0     H53020  10.961   7.146   2.852  1.2318 -1.8135 -1.7887
  393MOL0     H53021  11.191   7.075   2.856 -2.1633  2.0047 -1.8454
  393MOL0     H53022  11.186   7.212   2.953  1.3766 -1.2759  1.0574
  393MOL0     H53023  11.147   7.087   3.163 -1.5050 -0.4580  0.1770
  393MOL0     H53024  11.148   6.928   3.070 -2.0530  1.1199 -0.8863
  393MOL0     H53025  11.387   6.974   2.996  0.0413 -2.1511  1.0923
  393MOL0     H53026  11.365   6.933   3.162 -0.7644 -0.4341 -0.9146
  393MOL0     H53027  11.397   7.164   3.228 -3.0295 -0.5902 -0.8532
  393MOL0     H53028  11.402   7.223   3.063  0.1334 -1.4203 -1.6582
  393MOL0     H53029  11.625   7.094   3.042  0.4257  1.6752  0.2150
  393MOL0     H53030  11.633   7.196   3.177  1.9836 -1.3774  0.8604
  393MOL0     H53031  11.593   6.899   3.180  3.8890  0.2521 -1.5715
  393MOL0     H53032  11.557   6.994   3.332 -0.0881 -1.9827  1.1420
  393MOL0     H53033  11.782   7.070   3.347  2.9308 -0.0433 -0.0868
  393MOL0     H53034  11.773   6.903   3.369 -0.0488 -0.8886 -0.3378
  393MOL0     H53035  10.750   7.060   2.883  0.2018  1.6590 -1.1299
  393MOL0     H53036  10.495   7.061   2.927  0.2104 -0.4114 -0.2301
  393MOL0     H53037  10.203   7.288   3.261 -3.8877  1.5091 -4.1557
  393MOL0     H53038   9.975   7.330   3.353 -3.8472 -0.4061  1.2566
  393MOL0     H53039   8.766   7.593   4.522 -0.2854  0.4513  2.4658
  393MOL0     H53040   8.528   7.577   4.631  1.1195 -1.2143  4.0695
  393MOL0     H53041   8.147   7.353   4.624  0.1991 -0.0360 -0.1932
  393MOL0     H53042   7.914   7.356   4.680  1.6968 -0.3859 -0.9228
  393MOL0     H53043   7.708   7.560   4.806 -2.0582 -0.7327  0.1986
  393MOL0     H53044   7.815   7.609   4.925 -1.3245  1.0473  1.6538
  393MOL0     H53045   7.630   7.483   5.091 -0.3987 -0.7821 -0.3482
  393MOL0     H53046   7.546   7.474   4.935 -3.6277 -1.3769  5.2504
  393MOL0     H53047   7.607   7.729   4.935  0.7693  0.5381  0.7575
  393MOL0     H53048   7.648   7.700   5.107 -0.1040 -1.1950  1.0499
  393MOL0     H53049   7.430   7.600   5.152  1.0286 -0.5178 -0.7862
  393MOL0     H53050   7.409   7.771   5.101  1.3910  1.3708 -1.3292
  393MOL0     H53051   7.175   7.563   4.815  1.4395 -2.3319 -0.0404
  393MOL0     H53052   8.004   7.452   5.089  0.6368 -1.8728  0.1066
  393MOL0     H53053   8.300   7.366   5.134  2.2153  3.0343  2.8507
  393MOL0     H53054   8.327   7.521   5.055  0.0951 -0.6874 -1.0089
  393MOL0     H53055   8.189   7.501   5.161  0.2276  1.7915  0.3030
  394MOL0     O53056   5.172   1.079   6.198  0.7566 -0.4311 -0.0317
  394MOL0     C53057   5.118   1.110   6.304 -0.9331  0.1763  0.3505
  394MOL0     O53058   5.179   1.120   6.426 -0.3541 -0.2246 -0.2170
  394MOL0     C53059   5.306   1.076   6.426  0.1793  0.3737  0.6401
  394MOL0     C53060   5.410   1.143   6.353  0.5289 -0.7629  0.0570
  394MOL0     C53061   5.544   1.097   6.369 -0.5487  0.1926  0.5341
  394MOL0     C53062   5.565   0.976   6.430 -1.0636  0.9943 -0.0211
  394MOL0     O53063   5.688   0.919   6.414 -0.0207  0.1902  0.7533
  394MOL0     C53064   5.732   0.822   6.503 -0.2931  0.7016  0.2807
  394MOL0     C53065   5.886   0.793   6.498 -0.3830 -0.2051  0.4096
  394MOL0     C53066   5.967   0.921   6.518  0.1309 -0.1569  0.1340
  394MOL0     C53067   6.127   0.893   6.526  0.5350 -0.2274  1.4159
  394MOL0     C53068   6.198   1.019   6.515  0.2787  0.1921 -0.1649
  394MOL0     C53069   6.146   1.136   6.605  0.4368  0.0627  0.6073
  394MOL0     C53070   6.150   1.128   6.760 -0.1544 -0.1554  0.7535
  394MOL0     C53071   6.125   1.254   6.830 -0.3045  0.5892  0.0357
  394MOL0     N53072   6.221   1.356   6.789  0.0547  0.4624 -0.4811
  394MOL0     C53073   6.355   1.347   6.823 -0.1954 -0.1238  0.1218
  394MOL0     C53074   6.403   1.467   6.784 -0.4044 -0.4240 -0.6930
  394MOL0     C53075   6.544   1.503   6.804 -0.6528  0.2910  1.0090
  394MOL0     C53076   6.648   1.396   6.760  0.3763  0.2951 -0.5667
  394MOL0     C53077   6.631   1.345   6.618 -0.3373  0.1505 -0.1740
  394MOL0     C53078   6.730   1.245   6.588  0.2538 -0.0649  0.1695
  394MOL0     O53079   6.859   1.273   6.648 -0.1791 -0.8140 -0.1919
  394MOL0     C53080   6.966   1.221   6.583  0.4212 -0.7822  1.4773
  394MOL0     C53081   6.960   1.112   6.504 -0.1947 -0.0829  0.3633
  394MOL0     C53082   7.090   1.066   6.454 -0.0443 -0.2669 -0.0668
  394MOL0     C53083   7.210   1.136   6.470 -0.7168  0.2466  0.7462
  394MOL0     C53084   7.331   1.106   6.386  0.6166  0.2975  0.5306
  394MOL0     O53085   7.451   1.171   6.409  1.2176  0.8740 -0.4706
  394MOL0     C53086   7.549   1.159   6.321 -0.9869 -0.6235  1.2609
  394MOL0     C53087   7.664   1.087   6.346 -0.1025  0.1444 -0.1202
  394MOL0     C53088   7.773   1.090   6.253  0.2269 -0.1559  0.6318
  394MOL0     C53089   7.772   1.162   6.132 -0.6273  0.2126  0.5710
  394MOL0     O53090   7.876   1.166   6.042  0.6172 -0.3286  0.0805
  394MOL0     C53091   8.007   1.150   6.080 -0.7157 -0.1363  0.0847
  394MOL0     C53092   8.048   1.013   6.039 -0.0582 -0.1967 -0.3161
  394MOL0     C53093   8.197   0.974   6.074 -0.5025 -0.6950 -0.1571
  394MOL0     C53094   8.298   1.086   6.027  0.2649  0.8541 -0.6910
  394MOL0     C53095   8.429   1.039   6.085 -0.9333 -0.2164  0.5334
  394MOL0     C53096   8.547   1.130   6.028  0.6812 -0.2235 -0.0235
  394MOL0     C53097   8.669   1.115   6.114 -0.5238  0.0621 -0.1218
  394MOL0     C53098   8.793   1.182   6.051  0.4603  0.2671 -0.0397
  394MOL0    Cl53099   8.830   1.090   5.895 -0.4215  0.4645  0.4619
  394MOL0     C53100   7.652   1.238   6.110 -0.1818  0.0796 -0.1876
  394MOL0     C53101   7.551   1.238   6.201  0.2626 -0.2072 -0.3997
  394MOL0     O53102   7.310   1.030   6.294  0.7801  0.1682  0.6699
  394MOL0     C53103   7.210   1.250   6.553 -0.5216  0.0520  0.4273
  394MOL0     C53104   7.085   1.290   6.602  0.9512 -0.1551  0.4124
  394MOL0     N53105   6.307   1.551   6.744 -0.1334 -0.0323 -0.2899
  394MOL0     N53106   6.196   1.478   6.739  0.6677  0.2000  0.1850
  394MOL0     C53107   5.465   0.903   6.490 -0.0374  0.0157  0.2708
  394MOL0     C53108   5.341   0.957   6.493  0.1032 -0.0571  0.5622
  394MOL0     C53109   4.967   1.149   6.291 -0.1556 -0.4218  0.1662
  394MOL0     C53110   4.906   1.114   6.165  0.8770 -0.2648  0.7798
  394MOL0     C53111   4.760   1.140   6.150 -0.1436  0.0757 -0.4169
  394MOL0     C53112   4.688   1.188   6.257  0.4452 -0.6624 -0.4713
  394MOL0     O53113   4.550   1.204   6.264 -0.7475  0.3330 -0.1481
  394MOL0     C53114   4.458   1.122   6.185 -0.4166 -0.3760 -0.3078
  394MOL0     C53115   4.340   1.197   6.106  0.6006  0.4241 -0.0499
  394MOL0     C53116   4.269   1.307   6.198 -0.1707  1.0164 -0.0920
  394MOL0     C53117   4.190   1.236   6.308 -0.6781 -0.5295  0.7584
  394MOL0     C53118   4.086   1.327   6.361 -0.4674 -0.3633 -0.0028
  394MOL0     C53119   4.008   1.408   6.400  0.3183 -0.1816 -0.4101
  394MOL0     C53120   4.748   1.203   6.379 -0.3465  0.1421  0.1077
  394MOL0     C53121   4.890   1.186   6.405  0.0076 -0.1933  0.3443
  394MOL0     C53122   4.930   1.205   6.550 -0.5106  0.7760  0.1930
  394MOL0     H53123   5.392   1.227   6.286  1.5634  0.8616  1.7296
  394MOL0     H53124   5.626   1.152   6.326  0.6586  0.4746  3.0473
  394MOL0     H53125   5.711   0.860   6.603 -0.3354  0.9007  0.1972
  394MOL0     H53126   5.672   0.733   6.485 -1.3917  2.0706 -4.3276
  394MOL0     H53127   5.916   0.776   6.394  2.1993  0.1819  1.0235
  394MOL0     H53128   5.911   0.709   6.563  3.3968  1.9139  1.9474
  394MOL0     H53129   5.947   0.975   6.611  1.8409  1.2801 -0.2757
  394MOL0     H53130   5.945   0.990   6.436 -1.3376 -0.3533  0.3465
  394MOL0     H53131   6.158   0.831   6.611 -0.1682 -2.9457 -0.1994
  394MOL0     H53132   6.151   0.843   6.432  0.8800  0.6699  1.0123
  394MOL0     H53133   6.305   1.013   6.537 -0.1378  0.6686  2.2717
  394MOL0     H53134   6.192   1.046   6.410  1.1853  0.3740 -0.1745
  394MOL0     H53135   6.218   1.215   6.580  1.6704 -0.7807  1.3786
  394MOL0     H53136   6.054   1.172   6.558 -0.5127 -3.5782 -0.6873
  394MOL0     H53137   6.239   1.076   6.796 -1.9824 -2.6430  2.0056
  394MOL0     H53138   6.062   1.069   6.786 -0.5091  0.0203 -0.0301
  394MOL0     H53139   6.028   1.298   6.807  0.3186  1.8049 -0.3625
  394MOL0     H53140   6.115   1.237   6.937  0.0957 -0.8338 -0.1297
  394MOL0     H53141   6.415   1.271   6.872  0.1629 -0.1216 -0.3071
  394MOL0     H53142   6.561   1.594   6.746  0.5621 -0.1949  0.5865
  394MOL0     H53143   6.559   1.522   6.911  0.9770 -4.8845  1.9894
  394MOL0     H53144   6.740   1.455   6.767 -0.2361  1.0766  1.9987
  394MOL0     H53145   6.650   1.315   6.833  2.0864 -0.8995 -1.8815
  394MOL0     H53146   6.643   1.435   6.557 -0.6259 -0.3616 -1.0012
  394MOL0     H53147   6.532   1.302   6.600 -1.1831  2.2628 -1.0128
  394MOL0     H53148   6.739   1.243   6.479 -0.6618 -2.7796  0.0730
  394MOL0     H53149   6.698   1.154   6.640  2.3665  0.3702  2.4052
  394MOL0     H53150   6.870   1.056   6.481  0.5018 -0.9859 -0.2155
  394MOL0     H53151   7.090   0.970   6.404 -0.5534 -0.7315  0.7967
  394MOL0     H53152   7.686   1.024   6.431 -0.2621 -0.0750 -0.2384
  394MOL0     H53153   7.863   1.038   6.284 -0.1056 -0.2114  1.5263
  394MOL0     H53154   8.073   1.223   6.032  0.8907 -0.3936  1.7858
  394MOL0     H53155   8.036   1.167   6.185 -0.4013 -2.0929  0.3542
  394MOL0     H53156   7.985   0.940   6.090  2.6228 -3.2317 -0.9841
  394MOL0     H53157   8.024   1.011   5.932 -0.3245  3.3010 -0.4469
  394MOL0     H53158   8.197   0.944   6.179 -0.9171 -1.9154 -0.4891
  394MOL0     H53159   8.225   0.882   6.021  1.4179 -0.0313 -0.4059
  394MOL0     H53160   8.276   1.182   6.076 -1.5476  1.0571 -1.8179
  394MOL0     H53161   8.303   1.096   5.918 -0.3706  0.5864 -0.7448
  394MOL0     H53162   8.445   0.936   6.054 -1.0249  0.2097 -1.0174
  394MOL0     H53163   8.424   1.041   6.194 -3.2208 -2.6890  0.5496
  394MOL0     H53164   8.565   1.098   5.925 -0.3039  0.2480 -0.3514
  394MOL0     H53165   8.523   1.236   6.025  1.6887  0.1739  2.6437
  394MOL0     H53166   8.688   1.010   6.135 -1.0603 -0.5035 -2.2911
  394MOL0     H53167   8.651   1.163   6.211 -1.4337  3.5813 -1.8610
  394MOL0     H53168   8.758   1.282   6.024 -2.1818 -0.8814 -1.2430
  394MOL0     H53169   8.884   1.194   6.111 -0.3903  0.5136  1.2527
  394MOL0     H53170   7.646   1.292   6.016 -2.3993  1.2451  0.5560
  394MOL0     H53171   7.462   1.300   6.191 -0.9587 -0.9845  3.7599
  394MOL0     H53172   7.301   1.306   6.575 -1.2064  1.7636 -0.8196
  394MOL0     H53173   7.071   1.380   6.661  2.0656 -0.8400  1.7913
  394MOL0     H53174   5.478   0.814   6.551 -1.3310  1.2101  2.4000
  394MOL0     H53175   5.270   0.911   6.562 -2.5985 -2.3418 -3.3567
  394MOL0     H53176   4.965   1.058   6.094  0.2525  0.1875 -0.1142
  394MOL0     H53177   4.703   1.113   6.062 -1.3815  2.3181 -0.3708
  394MOL0     H53178   4.410   1.059   6.261 -0.7157 -0.2972 -0.4293
  394MOL0     H53179   4.513   1.056   6.117  0.0147 -0.6968  0.3443
  394MOL0     H53180   4.270   1.122   6.069 -0.8403  1.8160 -0.2843
  394MOL0     H53181   4.380   1.256   6.023 -0.7094  0.6158 -0.5825
  394MOL0     H53182   4.194   1.355   6.134 -1.4720  1.0052  1.3848
  394MOL0     H53183   4.346   1.380   6.228 -0.5774  0.7255  1.7190
  394MOL0     H53184   4.135   1.159   6.253 -2.7435  0.5655  1.1825
  394MOL0     H53185   4.246   1.202   6.395 -0.4636 -0.5243  0.6222
  394MOL0     H53186   3.927   1.478   6.410  0.6896  0.1865  0.0699
  394MOL0     H53187   4.679   1.240   6.454 -2.2421  0.2170 -1.5966
  394MOL0     H53188   5.005   1.283   6.564 -0.3857  1.2529 -2.5938
  394MOL0     H53189   4.845   1.226   6.616 -0.4452 -2.0709  1.3315
  394MOL0     H53190   4.988   1.120   6.586 -2.1393  0.2836  1.7947
  395MOL0     O53191   8.705   1.102   1.267  0.2439 -0.2101 -0.3817
  395MOL0     C53192   8.712   1.152   1.380  0.1370  0.0897  0.5814
  395MOL0     O53193   8.813   1.141   1.465 -0.3577 -0.3084  0.4133
  395MOL0     C53194   8.937   1.090   1.417  0.2623 -0.4496 -0.3455
  395MOL0     C53195   8.963   0.958   1.374  0.3330 -0.4623 -0.1275
  395MOL0     C53196   9.091   0.920   1.324  1.2906  0.7548  0.5264
  395MOL0     C53197   9.186   1.012   1.315 -0.2369 -0.3149 -0.5374
  395MOL0     O53198   9.314   0.990   1.265 -0.9996 -0.5408  0.9364
  395MOL0     C53199   9.378   0.857   1.255  0.6907  0.5418  1.1460
  395MOL0     C53200   9.498   0.878   1.161  0.4273  0.0277 -0.6056
  395MOL0     C53201   9.563   0.749   1.119 -0.3723 -0.8098  0.3671
  395MOL0     C53202   9.684   0.785   1.035 -0.2430 -0.1697  0.3387
  395MOL0     C53203   9.746   0.660   0.973  0.1256 -0.9343 -0.2925
  395MOL0     C53204   9.877   0.705   0.900 -0.2087 -0.5565 -0.1181
  395MOL0     C53205   9.943   0.577   0.844  0.2608  0.9822  0.0532
  395MOL0     C53206  10.007   0.499   0.955 -0.6108  0.3102  0.3195
  395MOL0     N53207  10.098   0.569   1.049 -0.6385 -0.4487 -0.3223
  395MOL0     C53208  10.097   0.550   1.180  0.2291  0.6097 -0.4990
  395MOL0     C53209  10.212   0.596   1.230  0.0604  0.8471  0.7291
  395MOL0     C53210  10.252   0.563   1.380  0.7464  0.4287  0.0968
  395MOL0     C53211  10.235   0.420   1.421  0.0724  1.4815  0.0299
  395MOL0     C53212  10.335   0.331   1.342  0.8309  0.2851  0.2220
  395MOL0     C53213  10.482   0.359   1.369  0.2092  0.5224  0.0407
  395MOL0     O53214  10.571   0.251   1.315  0.4887 -0.6630 -0.2003
  395MOL0     C53215  10.613   0.162   1.409 -0.4090  0.3632  0.2737
  395MOL0     C53216  10.736   0.094   1.380  0.5254  0.3749  0.6192
  395MOL0     C53217  10.784  -0.004   1.462 -0.1487  0.2046  0.7299
  395MOL0     C53218  10.720  -0.024   1.580  0.2862  0.0810  0.1943
  395MOL0     C53219  10.767  -0.122   1.677 -0.1306 -0.7235  0.4535
  395MOL0     O53220  10.710  -0.121   1.799  0.1338 -0.7381 -0.3451
  395MOL0     C53221  10.726  -0.231   1.880  0.0308 -0.8253  0.2691
  395MOL0     C53222  10.626  -0.330   1.885  0.9568 -0.3446 -0.3208
  395MOL0     C53223  10.648  -0.438   1.971 -0.6952  0.2158  0.7022
  395MOL0     C53224  10.769  -0.454   2.050  0.7563  0.3979  0.0899
  395MOL0     O53225  10.785  -0.569   2.122  0.8380  0.2687 -0.3741
  395MOL0     C53226  10.909  -0.608   2.169 -0.1225 -0.1283 -0.3068
  395MOL0     C53227  10.908  -0.745   2.245  0.5500  0.5224  0.1238
  395MOL0     C53228  10.864  -0.733   2.394  0.7672 -0.2565 -0.3608
  395MOL0     C53229  10.832  -0.867   2.464  0.4041  0.2827 -0.1579
  395MOL0     C53230  10.950  -0.970   2.454  0.1275 -0.0536 -0.7162
  395MOL0     C53231  10.942  -1.078   2.562 -0.4546  0.6474  0.0581
  395MOL0     C53232  11.067  -1.087   2.662  0.3844 -0.8226  0.5471
  395MOL0     C53233  11.026  -1.167   2.784  0.6539  1.5179  0.4076
  395MOL0    Cl53234  11.177  -1.224   2.865  0.0601  0.4505 -0.0662
  395MOL0     C53235  10.874  -0.357   2.039  1.4045 -0.0159  0.1186
  395MOL0     C53236  10.844  -0.251   1.951 -0.6911 -0.7949 -0.3159
  395MOL0     O53237  10.848  -0.203   1.641  0.1778  0.2948 -0.2260
  395MOL0     C53238  10.604   0.048   1.616  0.4828 -0.4354 -0.3229
  395MOL0     C53239  10.551   0.140   1.530  0.0836 -0.0614  0.0413
  395MOL0     N53240  10.281   0.654   1.125  0.3605  0.0252 -0.0407
  395MOL0     N53241  10.214   0.635   1.020 -0.1450  0.1275  0.7662
  395MOL0     C53242   9.157   1.151   1.340  0.9492  0.5845 -0.1071
  395MOL0     C53243   9.034   1.191   1.398 -0.9552 -0.4136 -1.3332
  395MOL0     C53244   8.598   1.228   1.428 -0.0760  0.0627 -1.3260
  395MOL0     C53245   8.629   1.351   1.485 -0.1107 -0.6948 -0.5267
  395MOL0     C53246   8.533   1.442   1.535  0.6193  0.1700  1.0690
  395MOL0     C53247   8.401   1.401   1.522  0.5066 -0.1117  0.2268
  395MOL0     O53248   8.296   1.474   1.571  0.7683  0.6206 -0.1557
  395MOL0     C53249   8.306   1.600   1.643  0.0553  0.0259 -0.3250
  395MOL0     C53250   8.235   1.704   1.562  0.5671  0.1575  0.7798
  395MOL0     C53251   8.337   1.798   1.495 -0.2021  0.5366  0.8812
  395MOL0     C53252   8.268   1.875   1.381 -0.3847 -0.3741 -0.2598
  395MOL0     C53253   8.177   1.987   1.428 -0.3821 -0.9727 -0.0304
  395MOL0     C53254   8.103   2.081   1.458  0.7479  0.1379 -0.1391
  395MOL0     C53255   8.363   1.283   1.458 -0.3096  0.6514 -0.3710
  395MOL0     C53256   8.461   1.196   1.409  0.4505 -0.7325 -0.1074
  395MOL0     C53257   8.417   1.075   1.329 -0.3275 -0.2567 -0.2267
  395MOL0     H53258   8.880   0.891   1.357  0.0510 -0.2002  0.1862
  395MOL0     H53259   9.106   0.821   1.281 -0.3275  1.5396 -2.0380
  395MOL0     H53260   9.411   0.816   1.350 -0.0935  0.0558  1.2154
  395MOL0     H53261   9.308   0.786   1.209  1.8109  0.0404  0.1632
  395MOL0     H53262   9.573   0.942   1.209  0.1963 -0.2291  0.1193
  395MOL0     H53263   9.468   0.925   1.068 -0.9739  0.0178 -0.1792
  395MOL0     H53264   9.500   0.687   1.055  0.9176 -2.1898  0.3796
  395MOL0     H53265   9.588   0.695   1.211  1.6381  1.5186  1.2985
  395MOL0     H53266   9.661   0.860   0.959 -0.4067 -0.7354 -0.1798
  395MOL0     H53267   9.762   0.839   1.088  1.8549 -1.6031 -1.1469
  395MOL0     H53268   9.756   0.578   1.045 -1.4945  0.3675  1.5362
  395MOL0     H53269   9.674   0.628   0.898 -2.9041  3.4855  0.4011
  395MOL0     H53270   9.841   0.763   0.815  2.0828  1.2039  0.0308
  395MOL0     H53271   9.944   0.771   0.956  0.9814 -2.5595  0.9510
  395MOL0     H53272  10.018   0.606   0.769  2.1506 -1.4361  0.8762
  395MOL0     H53273   9.874   0.505   0.800  0.2277 -0.4370  2.2976
  395MOL0     H53274   9.933   0.443   1.013  0.1720 -0.9075  0.1807
  395MOL0     H53275  10.059   0.412   0.914  0.0001  1.4717 -1.4850
  395MOL0     H53276  10.020   0.500   1.238 -0.1387  2.2219  0.4480
  395MOL0     H53277  10.355   0.594   1.401  1.6930 -2.8152  0.8882
  395MOL0     H53278  10.192   0.626   1.446  0.2816 -1.5627  1.6919
  395MOL0     H53279  10.266   0.412   1.526  1.1116  0.3961 -0.3451
  395MOL0     H53280  10.133   0.382   1.405  0.3932  0.4855  0.2491
  395MOL0     H53281  10.310   0.338   1.236  3.7519  1.8259 -0.4933
  395MOL0     H53282  10.317   0.226   1.369 -1.7347  0.4315 -0.6612
  395MOL0     H53283  10.498   0.380   1.476 -0.3913 -2.2802  0.7674
  395MOL0     H53284  10.526   0.449   1.324  2.1474 -0.9914 -1.2322
  395MOL0     H53285  10.775   0.109   1.280 -1.7002  0.8765 -0.2378
  395MOL0     H53286  10.870  -0.061   1.426  0.2776  0.1510  1.7886
  395MOL0     H53287  10.533  -0.322   1.830  0.2866  2.7150  0.9954
  395MOL0     H53288  10.585  -0.527   1.962  2.7140 -2.3166 -0.2622
  395MOL0     H53289  10.960  -0.630   2.075 -1.1100 -0.3804 -0.7941
  395MOL0     H53290  10.963  -0.532   2.226 -0.5788  1.0666 -1.4021
  395MOL0     H53291  10.844  -0.814   2.188  1.6730  1.0787 -1.9032
  395MOL0     H53292  11.011  -0.781   2.250  0.4158 -0.9473 -3.9350
  395MOL0     H53293  10.947  -0.684   2.445 -0.0752  3.8918 -2.5420
  395MOL0     H53294  10.780  -0.664   2.379  1.1453  0.5864  1.2348
  395MOL0     H53295  10.733  -0.893   2.424  0.4048 -0.4279  0.2835
  395MOL0     H53296  10.822  -0.845   2.570  1.1752  1.4556 -0.3175
  395MOL0     H53297  11.034  -0.903   2.475 -0.4038  1.4128 -2.9573
  395MOL0     H53298  10.968  -1.010   2.354 -1.3423  0.4787 -1.2069
  395MOL0     H53299  10.852  -1.066   2.623  0.5424 -0.1311  1.7980
  395MOL0     H53300  10.937  -1.171   2.506  0.5338  1.3463 -1.2351
  395MOL0     H53301  11.093  -0.987   2.700 -1.0327 -0.5171  0.7603
  395MOL0     H53302  11.146  -1.138   2.605 -0.7794 -1.1767 -0.8022
  395MOL0     H53303  10.959  -1.106   2.845 -0.3275  0.8199  0.0584
  395MOL0     H53304  10.974  -1.260   2.760  0.5912  0.5330  3.7780
  395MOL0     H53305  10.975  -0.375   2.075  2.3773  0.6183 -2.1552
  395MOL0     H53306  10.932  -0.190   1.932 -0.7579 -1.4162 -3.1496
  395MOL0     H53307  10.550   0.032   1.709 -0.1945  1.7679 -0.2831
  395MOL0     H53308  10.471   0.207   1.559  0.6321 -0.0676  1.6160
  395MOL0     H53309   9.227   1.234   1.328 -0.8836  2.6399  2.1415
  395MOL0     H53310   9.014   1.294   1.426  1.7746 -0.0613 -0.3764
  395MOL0     H53311   8.732   1.387   1.489 -1.3289  3.1793  1.9820
  395MOL0     H53312   8.566   1.536   1.578 -0.9971  1.6090 -0.6334
  395MOL0     H53313   8.407   1.635   1.669 -1.2056  2.4896  1.6570
  395MOL0     H53314   8.251   1.593   1.737 -0.4753 -1.4858 -0.7147
  395MOL0     H53315   8.168   1.759   1.629  1.7238 -0.1455  2.2254
  395MOL0     H53316   8.170   1.653   1.491  1.8920  1.0443 -1.1739
  395MOL0     H53317   8.414   1.733   1.452  0.9146  0.8838  2.2463
  395MOL0     H53318   8.390   1.869   1.560 -1.1756  0.0866  2.2033
  395MOL0     H53319   8.350   1.916   1.321  0.2658 -2.6647 -1.0797
  395MOL0     H53320   8.208   1.809   1.318  1.1447 -1.6082 -0.4996
  395MOL0     H53321   8.039   2.163   1.485  0.2736  0.2298 -1.4705
  395MOL0     H53322   8.260   1.253   1.440  0.0006 -1.5310  1.1140
  395MOL0     H53323   8.308   1.066   1.325 -0.1641 -2.3653 -1.2951
  395MOL0     H53324   8.461   1.088   1.230  0.7009 -2.1026 -0.0563
  395MOL0     H53325   8.454   0.979   1.368 -2.8189 -0.7824  1.0907
  396MOL0     O53326   2.685   6.103   8.478  0.4528 -0.1579  0.1573
  396MOL0     C53327   2.711   6.206   8.420  0.5053 -0.2352  0.3042
  396MOL0     O53328   2.829   6.240   8.358  0.5875  0.5506  0.0115
  396MOL0     C53329   2.926   6.153   8.357  0.5229 -0.4167 -0.3654
  396MOL0     C53330   3.012   6.162   8.465  0.2388  0.5578  0.0427
  396MOL0     C53331   3.126   6.077   8.469 -0.2012  1.6609  0.2638
  396MOL0     C53332   3.147   5.981   8.364  0.7689 -0.1261  0.2325
  396MOL0     O53333   3.261   5.914   8.368  0.3658 -0.4609 -0.5876
  396MOL0     C53334   3.331   5.895   8.242  0.3915 -0.9056 -0.0597
  396MOL0     C53335   3.475   5.865   8.262 -1.1584  0.3963 -0.3327
  396MOL0     C53336   3.551   5.788   8.147  0.4638  0.7178  0.6327
  396MOL0     C53337   3.678   5.739   8.197 -0.9965 -0.7160  0.4370
  396MOL0     C53338   3.761   5.658   8.094 -0.0177 -0.5781  0.2551
  396MOL0     C53339   3.715   5.515   8.065  0.0171  0.5713  0.0046
  396MOL0     C53340   3.824   5.415   8.014 -0.3941 -0.2238  0.1762
  396MOL0     C53341   3.863   5.443   7.858 -0.7083  0.2617  0.1866
  396MOL0     N53342   3.955   5.340   7.822 -0.2568  0.1447 -0.5726
  396MOL0     C53343   4.088   5.348   7.833 -1.0876  0.6104  0.3375
  396MOL0     C53344   4.134   5.229   7.787 -0.1395 -0.1141  0.1358
  396MOL0     C53345   4.277   5.190   7.798  0.2588 -0.4444  0.0467
  396MOL0     C53346   4.342   5.153   7.669  0.2252  1.0289 -0.4617
  396MOL0     C53347   4.304   5.228   7.545  0.6225 -1.0547  0.0366
  396MOL0     C53348   4.408   5.196   7.435  0.4744  0.3008  0.5233
  396MOL0     O53349   4.525   5.268   7.463  0.6377 -0.5538  0.2506
  396MOL0     C53350   4.641   5.242   7.391 -0.1279  0.1493 -1.0840
  396MOL0     C53351   4.647   5.171   7.269 -0.7352 -0.2846 -1.2308
  396MOL0     C53352   4.771   5.154   7.206 -0.5132 -0.3794  0.6370
  396MOL0     C53353   4.894   5.217   7.264  0.1005 -0.2356  0.1023
  396MOL0     C53354   5.028   5.182   7.210  0.1500 -0.4316  0.3604
  396MOL0     O53355   5.132   5.261   7.255  0.2987 -0.1247 -0.2804
  396MOL0     C53356   5.270   5.260   7.210  0.1161  0.0094 -0.9868
  396MOL0     C53357   5.332   5.169   7.126  0.3692 -0.1990  0.2816
  396MOL0     C53358   5.464   5.179   7.086  0.3560 -0.2274 -0.1202
  396MOL0     C53359   5.539   5.297   7.122 -0.0660  0.0161  0.5508
  396MOL0     O53360   5.663   5.328   7.074  0.0561  0.0142  0.0733
  396MOL0     C53361   5.746   5.216   7.027  0.5717  0.4645  0.2278
  396MOL0     C53362   5.889   5.262   7.025  0.5964  0.4194 -0.2476
  396MOL0     C53363   5.993   5.150   6.995  0.6077  0.6680 -0.3084
  396MOL0     C53364   6.096   5.136   7.101  0.5136  0.2545  0.0612
  396MOL0     C53365   6.218   5.060   7.040  0.0280 -0.8165 -0.0054
  396MOL0     C53366   6.330   5.060   7.146 -0.0664 -0.1950  0.4058
  396MOL0     C53367   6.451   4.987   7.107  0.0151  0.4216  0.5871
  396MOL0     C53368   6.548   5.076   7.015  0.1822 -0.3162  0.3680
  396MOL0    Cl53369   6.679   4.971   6.942  0.0875  0.2542 -0.1444
  396MOL0     C53370   5.476   5.398   7.200  0.0197  0.3719 -0.8902
  396MOL0     C53371   5.346   5.373   7.246 -0.2032  0.8958 -0.6990
  396MOL0     O53372   5.046   5.097   7.119 -0.0819 -0.5053  0.0103
  396MOL0     C53373   4.886   5.284   7.382  0.4842 -0.8521 -0.1532
  396MOL0     C53374   4.761   5.295   7.441  0.8491  0.6471  0.3115
  396MOL0     N53375   4.025   5.150   7.751  0.2367 -0.5082  0.7897
  396MOL0     N53376   3.918   5.217   7.785 -0.0212  0.3776  0.1440
  396MOL0     C53377   3.055   5.976   8.261  0.2117  0.1872  0.6502
  396MOL0     C53378   2.946   6.066   8.256 -0.3012 -0.1896 -0.3748
  396MOL0     C53379   2.598   6.305   8.420  0.1055 -0.1387  0.3168
  396MOL0     C53380   2.615   6.429   8.357 -0.3162 -0.7345 -0.2336
  396MOL0     C53381   2.526   6.533   8.359  0.7276  0.4464 -0.0935
  396MOL0     C53382   2.398   6.512   8.416  0.4138 -0.3739  0.4962
  396MOL0     O53383   2.294   6.601   8.418 -0.1891  0.4043  0.5274
  396MOL0     C53384   2.311   6.735   8.373 -0.1348  0.2054 -0.9283
  396MOL0     C53385   2.194   6.824   8.421  0.0795  0.0345  0.5956
  396MOL0     C53386   2.065   6.802   8.355  0.2849 -0.0383 -0.6317
  396MOL0     C53387   1.979   6.931   8.318  0.4061  0.0635 -0.9204
  396MOL0     C53388   1.840   6.898   8.288  0.3183 -0.1755  0.2853
  396MOL0     C53389   1.724   6.864   8.271 -0.0274 -0.1086 -0.6889
  396MOL0     C53390   2.379   6.389   8.484 -0.8159  0.4993  0.5380
  396MOL0     C53391   2.474   6.279   8.484 -0.2997 -0.8994  0.1266
  396MOL0     C53392   2.435   6.148   8.555 -0.6527 -0.2020 -1.1225
  396MOL0     H53393   3.013   6.239   8.542 -0.7066  0.3282  0.2884
  396MOL0     H53394   3.210   6.080   8.538 -0.1256  2.1524  0.1576
  396MOL0     H53395   3.282   5.814   8.188  0.3043 -1.6385  1.0906
  396MOL0     H53396   3.328   5.982   8.175 -1.6381 -1.4118 -0.6745
  396MOL0     H53397   3.481   5.810   8.356 -1.3699 -1.1660 -1.1832
  396MOL0     H53398   3.528   5.959   8.277  3.3705 -1.4391 -2.8704
  396MOL0     H53399   3.566   5.844   8.054 -0.0415 -0.6947 -0.3453
  396MOL0     H53400   3.501   5.693   8.127  1.2244  0.8288 -2.2520
  396MOL0     H53401   3.730   5.827   8.235 -0.0690 -2.2228  2.9253
  396MOL0     H53402   3.673   5.676   8.287  0.3715 -0.7095  0.5416
  396MOL0     H53403   3.778   5.710   7.999 -0.3612 -0.4328  0.2744
  396MOL0     H53404   3.865   5.655   8.130 -0.0070  0.0837  0.2854
  396MOL0     H53405   3.671   5.469   8.154 -3.1997 -0.3908 -1.9243
  396MOL0     H53406   3.636   5.515   7.990 -1.0767  3.3504  1.0195
  396MOL0     H53407   3.783   5.313   8.015  0.4379 -0.5654  0.8113
  396MOL0     H53408   3.908   5.435   8.081 -0.7467 -0.3132  0.6495
  396MOL0     H53409   3.772   5.432   7.798  1.3145 -1.4974 -2.8534
  396MOL0     H53410   3.893   5.547   7.846 -0.8288  0.3699  0.7890
  396MOL0     H53411   4.143   5.435   7.866  0.2290 -0.4223  0.9645
  396MOL0     H53412   4.333   5.275   7.838 -0.0848 -0.9572  1.7249
  396MOL0     H53413   4.281   5.101   7.863 -0.4345  1.0829  2.3069
  396MOL0     H53414   4.450   5.167   7.674  0.2473  1.6707 -2.0166
  396MOL0     H53415   4.335   5.047   7.643 -0.9775  1.3085 -1.4044
  396MOL0     H53416   4.302   5.334   7.572 -1.3902 -0.7938 -0.9950
  396MOL0     H53417   4.209   5.195   7.502  0.2425 -0.8094  0.6599
  396MOL0     H53418   4.378   5.230   7.336 -0.6957  0.1513  0.8033
  396MOL0     H53419   4.433   5.090   7.432  2.4892  0.7473 -2.0329
  396MOL0     H53420   4.550   5.138   7.235 -1.4753  0.5556 -0.0023
  396MOL0     H53421   4.771   5.090   7.118 -1.4085 -0.9989  1.0661
  396MOL0     H53422   5.293   5.070   7.105  1.8169 -0.1770 -3.2753
  396MOL0     H53423   5.498   5.093   7.030 -1.7470  1.1559 -3.8863
  396MOL0     H53424   5.730   5.127   7.089 -1.5630  1.6253  1.4634
  396MOL0     H53425   5.724   5.188   6.923 -1.8876 -1.1330  1.0640
  396MOL0     H53426   5.901   5.341   6.950 -1.3565  0.1633 -0.9063
  396MOL0     H53427   5.904   5.298   7.127  1.5238 -0.8048  0.0722
  396MOL0     H53428   5.947   5.053   6.976 -3.8170  2.2535  0.8979
  396MOL0     H53429   6.044   5.175   6.901 -0.5607  0.8078 -0.9315
  396MOL0     H53430   6.051   5.073   7.179  0.5705 -0.0177 -0.1260
  396MOL0     H53431   6.124   5.226   7.156  3.3874 -0.8818  0.6222
  396MOL0     H53432   6.258   5.113   6.953 -3.2310  1.9802 -0.0389
  396MOL0     H53433   6.173   4.963   7.018 -1.0771  0.0556 -1.7958
  396MOL0     H53434   6.366   5.160   7.170 -0.2307  0.8071 -2.9230
  396MOL0     H53435   6.294   5.008   7.235 -1.3133  1.4090  0.8784
  396MOL0     H53436   6.428   4.908   7.035 -0.7070  1.1353  0.0271
  396MOL0     H53437   6.501   4.935   7.190 -0.1760  0.0580  0.4794
  396MOL0     H53438   6.484   5.120   6.938 -1.6452 -2.4790  0.5694
  396MOL0     H53439   6.589   5.165   7.065  1.4491 -0.1557 -0.8922
  396MOL0     H53440   5.531   5.490   7.219  0.8566 -0.3497  0.3198
  396MOL0     H53441   5.293   5.446   7.308 -0.4958  0.6578 -0.6676
  396MOL0     H53442   4.973   5.329   7.430 -0.1591 -1.2067  1.3877
  396MOL0     H53443   4.746   5.355   7.530  0.8720 -1.3077  1.7114
  396MOL0     H53444   3.059   5.894   8.189  0.9290  0.2964  0.5583
  396MOL0     H53445   2.882   6.047   8.170  0.2331  0.7589 -0.9972
  396MOL0     H53446   2.706   6.460   8.307 -0.3170  0.6529  0.5887
  396MOL0     H53447   2.552   6.623   8.305 -0.5331  1.9223  1.6270
  396MOL0     H53448   2.307   6.732   8.264 -4.0176 -1.5429 -0.8835
  396MOL0     H53449   2.407   6.777   8.406 -0.1864  0.4587 -1.1002
  396MOL0     H53450   2.218   6.928   8.397 -1.8934 -0.1333 -2.8330
  396MOL0     H53451   2.186   6.810   8.529 -2.5118 -0.4119  0.4116
  396MOL0     H53452   2.011   6.739   8.426 -1.1048  0.3438 -1.3093
  396MOL0     H53453   2.081   6.746   8.263  0.3068  0.1506 -0.7454
  396MOL0     H53454   1.988   6.988   8.412 -0.3585  0.0464 -0.8319
  396MOL0     H53455   2.021   6.980   8.230 -0.6699  0.5938 -1.1600
  396MOL0     H53456   1.618   6.864   8.257 -0.4524 -1.4413  1.9748
  396MOL0     H53457   2.287   6.371   8.540 -0.3137 -1.6078  0.7768
  396MOL0     H53458   2.439   6.066   8.483 -1.8993 -0.4342 -0.9547
  396MOL0     H53459   2.509   6.127   8.633 -1.6722  2.2770  0.6170
  396MOL0     H53460   2.334   6.160   8.597 -0.2153  1.1177 -0.4025
  397MOL0     O53461  10.893   8.609   3.057 -0.4104  0.2185  0.8031
  397MOL0     C53462  10.854   8.494   3.054  0.2164  0.4846  0.1711
  397MOL0     O53463  10.929   8.382   3.019 -0.5135 -0.7539 -0.0971
  397MOL0     C53464  11.047   8.382   2.945 -0.7316 -0.1943  0.4811
  397MOL0     C53465  11.116   8.265   2.953  0.2020 -0.2419 -0.3065
  397MOL0     C53466  11.235   8.238   2.892  0.2279 -0.0036 -0.4397
  397MOL0     C53467  11.296   8.335   2.810  0.2137  0.0078 -0.2155
  397MOL0     O53468  11.414   8.305   2.748  0.1762  0.1344 -0.0665
  397MOL0     C53469  11.419   8.340   2.610 -0.8874 -0.1779  0.2844
  397MOL0     C53470  11.566   8.383   2.577 -0.0438 -0.2089  0.7182
  397MOL0     C53471  11.591   8.526   2.620  0.2464 -0.2020  0.0863
  397MOL0     C53472  11.666   8.525   2.750 -0.0630 -0.1297 -0.3264
  397MOL0     C53473  11.813   8.491   2.749 -0.0122 -0.5111 -0.1586
  397MOL0     C53474  11.906   8.583   2.676 -0.0384 -0.9654 -0.1977
  397MOL0     C53475  12.056   8.545   2.640 -0.8127 -0.0912  0.4536
  397MOL0     C53476  12.118   8.456   2.748 -0.5788  0.2331 -0.3771
  397MOL0     N53477  12.268   8.453   2.733 -0.2111  0.4413  0.9481
  397MOL0     C53478  12.355   8.542   2.784  0.2284 -0.7777 -0.6276
  397MOL0     C53479  12.475   8.506   2.731  0.0190  0.1966 -0.1664
  397MOL0     C53480  12.608   8.571   2.729  0.2623 -0.3309  0.2213
  397MOL0     C53481  12.708   8.498   2.819  0.8063  0.1940  0.6259
  397MOL0     C53482  12.856   8.555   2.814  0.5761 -1.0082 -0.5191
  397MOL0     C53483  12.939   8.519   2.690  0.0459 -0.2853  0.1338
  397MOL0     O53484  13.076   8.535   2.722  0.2518  0.1399 -0.4288
  397MOL0     C53485  13.124   8.663   2.702 -0.1185  0.6474  1.2292
  397MOL0     C53486  13.262   8.663   2.709  0.5002 -0.1160  0.5826
  397MOL0     C53487  13.328   8.787   2.681 -0.1075  0.0576  0.2621
  397MOL0     C53488  13.259   8.903   2.651  0.7129  0.0821 -0.3768
  397MOL0     C53489  13.317   9.036   2.613  0.9077  0.6283 -0.7495
  397MOL0     O53490  13.446   9.037   2.581 -0.3325  0.9031  0.1037
  397MOL0     C53491  13.520   9.150   2.582  0.0685 -0.4387  0.0069
  397MOL0     C53492  13.618   9.166   2.486 -0.2906  0.9937  0.8499
  397MOL0     C53493  13.708   9.270   2.475  0.5155  0.1548 -0.4858
  397MOL0     C53494  13.692   9.373   2.567 -0.0829 -0.4649  1.0024
  397MOL0     O53495  13.774   9.489   2.559 -0.0958 -0.3640 -0.6119
  397MOL0     C53496  13.902   9.470   2.502 -0.1763  0.8056 -0.3794
  397MOL0     C53497  13.985   9.589   2.543 -0.5713 -0.0805  0.1278
  397MOL0     C53498  14.118   9.578   2.468  0.0039 -0.2235 -0.6689
  397MOL0     C53499  14.196   9.704   2.476 -0.1717  0.2932 -0.5782
  397MOL0     C53500  14.330   9.685   2.396  0.6366  0.6703 -1.1286
  397MOL0     C53501  14.412   9.815   2.377 -0.0783 -0.4156 -0.5027
  397MOL0     C53502  14.548   9.789   2.332 -0.5370  0.3195  0.2317
  397MOL0     C53503  14.640   9.909   2.345  0.0455  0.3318  0.0794
  397MOL0    Cl53504  14.596  10.027   2.212  0.1426  0.1074 -0.3229
  397MOL0     C53505  13.579   9.371   2.655  0.8108 -0.6915 -0.3100
  397MOL0     C53506  13.504   9.257   2.667 -0.2882 -0.5736 -0.5385
  397MOL0     O53507  13.236   9.123   2.596  0.3449  0.0986 -0.0202
  397MOL0     C53508  13.118   8.897   2.662 -0.4521 -0.5370 -0.2124
  397MOL0     C53509  13.052   8.782   2.687 -0.5174  1.3793  0.0307
  397MOL0     N53510  12.457   8.390   2.663  0.1355 -0.4520  0.0483
  397MOL0     N53511  12.331   8.356   2.653  0.2586 -0.2360 -0.6592
  397MOL0     C53512  11.227   8.458   2.794 -0.5687  0.7912 -0.8492
  397MOL0     C53513  11.106   8.476   2.858 -0.5943  0.1042 -0.4344
  397MOL0     C53514  10.708   8.486   3.080 -0.6164  0.5319 -0.0759
  397MOL0     C53515  10.636   8.604   3.117 -0.0443 -0.2715  0.8846
  397MOL0     C53516  10.501   8.585   3.161 -0.2942 -0.0176 -0.2609
  397MOL0     C53517  10.434   8.467   3.150  0.1368 -0.8690 -0.5807
  397MOL0     O53518  10.308   8.475   3.201  0.1744 -1.2250 -0.2539
  397MOL0     C53519  10.266   8.395   3.304 -0.6374 -0.1703 -0.5092
  397MOL0     C53520  10.366   8.401   3.426  1.0731 -0.3646  0.2301
  397MOL0     C53521  10.310   8.331   3.554 -0.2450  0.5685  0.2260
  397MOL0     C53522  10.395   8.367   3.675  0.0563  0.6837 -0.4132
  397MOL0     C53523  10.520   8.299   3.681  0.2055  1.3631  0.7685
  397MOL0     C53524  10.636   8.264   3.696 -0.5233 -1.1589 -0.3256
  397MOL0     C53525  10.502   8.358   3.108 -0.3221  0.3276 -0.8569
  397MOL0     C53526  10.642   8.362   3.076 -0.1218 -0.1280 -1.0995
  397MOL0     C53527  10.718   8.228   3.061  0.6229  0.1628  0.7291
  397MOL0     H53528  11.074   8.183   3.010  0.1288 -2.0309 -2.7888
  397MOL0     H53529  11.290   8.149   2.922  0.6206  1.3748  3.6497
  397MOL0     H53530  11.395   8.248   2.555 -0.5998  0.2284 -0.5436
  397MOL0     H53531  11.353   8.421   2.577  0.7455  0.4071 -1.8365
  397MOL0     H53532  11.576   8.384   2.469 -1.2275  1.5378  0.5772
  397MOL0     H53533  11.635   8.317   2.630  1.3501  0.6113 -0.0310
  397MOL0     H53534  11.495   8.575   2.637 -0.0141 -0.7603  0.2267
  397MOL0     H53535  11.654   8.578   2.547  0.4286  0.3392  0.6158
  397MOL0     H53536  11.642   8.619   2.801  0.6664 -1.0360  1.8106
  397MOL0     H53537  11.615   8.450   2.812  0.2690  1.1726  1.5845
  397MOL0     H53538  11.851   8.470   2.849 -0.7028 -2.6013 -0.2902
  397MOL0     H53539  11.822   8.398   2.692 -0.6311 -1.9879  2.0185
  397MOL0     H53540  11.863   8.605   2.578  1.2287  1.2973 -0.3263
  397MOL0     H53541  11.916   8.677   2.732  0.7578 -1.2675  0.1834
  397MOL0     H53542  12.116   8.635   2.626 -3.9649  2.1073 -0.0821
  397MOL0     H53543  12.063   8.488   2.548  2.5539  0.7642  0.0443
  397MOL0     H53544  12.100   8.491   2.850  0.3832 -0.2346 -0.0370
  397MOL0     H53545  12.075   8.355   2.752  0.9822 -0.4486 -0.1439
  397MOL0     H53546  12.318   8.624   2.844  2.2933 -0.7099  0.6764
  397MOL0     H53547  12.661   8.565   2.634  0.1798  1.0775  0.0685
  397MOL0     H53548  12.590   8.676   2.755 -3.0261 -0.8306  0.4166
  397MOL0     H53549  12.675   8.510   2.923 -2.1491 -3.8128  0.3927
  397MOL0     H53550  12.714   8.391   2.798 -1.1721  0.1439  0.0811
  397MOL0     H53551  12.919   8.515   2.894  0.8487 -1.0928 -0.7731
  397MOL0     H53552  12.849   8.663   2.833 -1.7565 -1.3620  0.9248
  397MOL0     H53553  12.919   8.591   2.610  1.7676 -0.7532 -0.7624
  397MOL0     H53554  12.915   8.415   2.667 -0.9251  0.4017 -2.3169
  397MOL0     H53555  13.312   8.573   2.742 -0.8513 -1.2386 -0.3081
  397MOL0     H53556  13.436   8.785   2.687  0.0325 -2.0217 -1.6580
  397MOL0     H53557  13.632   9.091   2.409  0.5088  0.9067  1.0700
  397MOL0     H53558  13.772   9.269   2.387  0.9696  0.6531 -0.1684
  397MOL0     H53559  13.938   9.377   2.548  1.0918  1.5375  0.1535
  397MOL0     H53560  13.905   9.460   2.393  1.2072  1.6662 -0.4520
  397MOL0     H53561  13.934   9.678   2.504  0.6469  1.4270  1.8075
  397MOL0     H53562  14.002   9.588   2.651 -2.0748  0.1886  0.3785
  397MOL0     H53563  14.181   9.501   2.514  1.6692  0.0772 -2.3555
  397MOL0     H53564  14.099   9.547   2.365 -0.7815 -0.9126 -0.3316
  397MOL0     H53565  14.217   9.740   2.577 -2.5985  1.7678 -0.5267
  397MOL0     H53566  14.140   9.787   2.432 -0.3276  1.4986  1.7214
  397MOL0     H53567  14.302   9.638   2.301 -1.4810 -1.5422  0.4750
  397MOL0     H53568  14.390   9.605   2.438 -0.7045  0.6468  0.8743
  397MOL0     H53569  14.358   9.879   2.306  2.5414  2.3574 -0.2062
  397MOL0     H53570  14.413   9.851   2.480  3.7941  1.8688 -1.1282
  397MOL0     H53571  14.545   9.751   2.230 -0.8132 -0.4907  0.5387
  397MOL0     H53572  14.585   9.698   2.380  2.6082  1.8752  1.0005
  397MOL0     H53573  14.616   9.963   2.436 -1.3056 -1.3688  0.7871
  397MOL0     H53574  14.747   9.886   2.346  0.4220  1.9288  1.9349
  397MOL0     H53575  13.572   9.447   2.731  1.3635  0.1433 -1.0645
  397MOL0     H53576  13.419   9.271   2.733 -1.1443  3.4536 -2.2250
  397MOL0     H53577  13.056   8.985   2.660  1.9378  1.4223  2.9662
  397MOL0     H53578  12.944   8.777   2.689 -0.4514 -1.8848  1.3566
  397MOL0     H53579  11.274   8.533   2.731  0.9175  0.2613 -0.4060
  397MOL0     H53580  11.056   8.572   2.845  1.3857  1.0279 -1.7709
  397MOL0     H53581  10.680   8.701   3.137 -1.6059  0.1294  2.7021
  397MOL0     H53582  10.452   8.673   3.201  1.3535  1.3687 -1.0957
  397MOL0     H53583  10.251   8.292   3.270 -1.0615  0.0840 -1.0985
  397MOL0     H53584  10.169   8.433   3.337 -1.7997 -1.5695 -2.1561
  397MOL0     H53585  10.372   8.504   3.461 -0.2399  0.1025 -0.8244
  397MOL0     H53586  10.463   8.363   3.392  0.9112 -0.6921  0.1290
  397MOL0     H53587  10.312   8.222   3.548 -0.9090  0.5735 -0.1616
  397MOL0     H53588  10.205   8.360   3.568 -0.0478  1.9875 -0.9324
  397MOL0     H53589  10.414   8.474   3.675 -1.4824  0.9905  0.7013
  397MOL0     H53590  10.336   8.342   3.764  1.7754  1.2740  0.9413
  397MOL0     H53591  10.741   8.243   3.696  0.2770  2.0412 -2.6935
  397MOL0     H53592  10.458   8.259   3.120  0.1775  0.3148  1.1926
  397MOL0     H53593  10.789   8.214   3.144 -1.2779 -1.1064  2.2298
  397MOL0     H53594  10.653   8.141   3.071  0.0690  0.2118 -1.8728
  397MOL0     H53595  10.772   8.231   2.966  1.4102  0.4490  1.1701
  398MOL0     O53596   4.139   7.851   7.483 -0.3627  0.7519  0.1826
  398MOL0     C53597   4.036   7.883   7.419 -0.5426  0.0709  0.6100
  398MOL0     O53598   4.027   7.916   7.287 -0.8220 -0.4629 -0.3529
  398MOL0     C53599   4.146   7.956   7.228 -0.0809 -0.2336  0.2506
  398MOL0     C53600   4.200   7.880   7.122 -0.7793  0.0533  0.1049
  398MOL0     C53601   4.328   7.908   7.063 -0.1271  1.0768  0.7921
  398MOL0     C53602   4.396   8.023   7.102  0.0279  0.1648  0.3283
  398MOL0     O53603   4.524   8.042   7.067  0.1296  0.4257 -0.5587
  398MOL0     C53604   4.540   8.074   6.922  0.2530  0.3980 -0.5847
  398MOL0     C53605   4.672   8.150   6.905  0.1018 -0.5444  0.3431
  398MOL0     C53606   4.787   8.046   6.900  0.0723  0.2086 -0.0431
  398MOL0     C53607   4.912   8.127   6.874 -1.0296  0.1999 -0.2317
  398MOL0     C53608   5.035   8.043   6.843 -0.4594 -0.0523  0.1618
  398MOL0     C53609   5.158   8.126   6.820  0.1640 -0.0495  0.7271
  398MOL0     C53610   5.283   8.035   6.803  0.3992  0.4022  0.3407
  398MOL0     C53611   5.419   8.082   6.745  0.4490  0.1548  0.0159
  398MOL0     N53612   5.482   8.168   6.843  0.2522 -0.0725 -0.4485
  398MOL0     C53613   5.446   8.281   6.901  0.2413  0.4716  0.5820
  398MOL0     C53614   5.560   8.329   6.958 -0.2617  0.1459  0.8503
  398MOL0     C53615   5.575   8.458   7.017  0.0018 -0.1852  0.0293
  398MOL0     C53616   5.557   8.447   7.171  0.4795 -0.2052 -0.9747
  398MOL0     C53617   5.583   8.581   7.242 -0.3531 -0.5864  0.1944
  398MOL0     C53618   5.721   8.588   7.327 -0.1741  0.0832  0.0062
  398MOL0     O53619   5.821   8.624   7.227  0.6100 -0.5712  0.2724
  398MOL0     C53620   5.948   8.613   7.263 -0.0275 -0.2625  0.8567
  398MOL0     C53621   6.038   8.653   7.162 -0.0758 -0.2657 -0.3155
  398MOL0     C53622   6.174   8.655   7.190 -0.3751  0.9465 -0.1353
  398MOL0     C53623   6.228   8.628   7.318  1.1590  0.0950 -0.0165
  398MOL0     C53624   6.372   8.640   7.344 -0.1140 -0.8785 -0.4243
  398MOL0     O53625   6.411   8.627   7.474  0.3448  0.3740 -0.2592
  398MOL0     C53626   6.546   8.591   7.496 -0.2241  0.3295  0.6823
  398MOL0     C53627   6.641   8.687   7.500 -0.4930 -0.4894 -0.3221
  398MOL0     C53628   6.773   8.652   7.475 -0.2395 -0.2688  0.2554
  398MOL0     C53629   6.815   8.518   7.467  0.4638  0.1907  0.4591
  398MOL0     O53630   6.943   8.484   7.441 -0.0220  0.0941 -0.3340
  398MOL0     C53631   6.958   8.442   7.306 -0.1705 -0.1688  0.0853
  398MOL0     C53632   7.104   8.476   7.268 -0.0592  0.0132  0.8251
  398MOL0     C53633   7.144   8.445   7.119  0.2524  0.5442 -0.3643
  398MOL0     C53634   7.159   8.299   7.100  0.0775  0.0437  0.4589
  398MOL0     C53635   7.291   8.238   7.159  0.2450 -0.5097  0.3032
  398MOL0     C53636   7.412   8.284   7.084 -0.0522  0.2762 -0.0194
  398MOL0     C53637   7.523   8.192   7.116 -0.6458  0.3538 -0.0866
  398MOL0     C53638   7.648   8.240   7.033 -0.7138 -0.3324 -0.3836
  398MOL0    Cl53639   7.723   8.379   7.096  0.2306  0.0186  0.3225
  398MOL0     C53640   6.709   8.428   7.467 -0.9593  0.0060 -0.5922
  398MOL0     C53641   6.578   8.456   7.474  0.5520 -0.3756  0.5588
  398MOL0     O53642   6.455   8.657   7.247 -0.0587  0.1974 -0.1946
  398MOL0     C53643   6.132   8.583   7.415 -0.2651  0.5526 -0.2396
  398MOL0     C53644   5.997   8.572   7.384  0.1590 -0.6331  0.0750
  398MOL0     N53645   5.669   8.251   6.926  0.3164 -1.4105  0.4436
  398MOL0     N53646   5.618   8.158   6.857 -0.2239  0.0782  0.0629
  398MOL0     C53647   4.346   8.096   7.207  0.0405  0.0617 -0.6232
  398MOL0     C53648   4.220   8.066   7.275 -0.5218 -0.0106  0.1317
  398MOL0     C53649   3.910   7.867   7.495 -0.4000 -0.2363  0.8496
  398MOL0     C53650   3.808   7.785   7.433 -0.2334 -0.5610 -0.1281
  398MOL0     C53651   3.702   7.749   7.514  0.5822  0.4881 -0.3407
  398MOL0     C53652   3.685   7.801   7.644 -1.0005  1.1451 -0.0116
  398MOL0     O53653   3.569   7.780   7.720  0.6079  0.2106  0.2686
  398MOL0     C53654   3.471   7.685   7.674 -0.3543  0.0018 -0.7389
  398MOL0     C53655   3.348   7.689   7.769  0.3107 -0.2614  0.0443
  398MOL0     C53656   3.236   7.617   7.699 -0.3199  0.2470 -0.4090
  398MOL0     C53657   3.096   7.648   7.765 -0.7178 -0.1962  0.1523
  398MOL0     C53658   2.987   7.584   7.681 -0.0682  1.0884  0.5800
  398MOL0     C53659   2.907   7.511   7.618  0.2750 -0.0801  0.0117
  398MOL0     C53660   3.785   7.884   7.703  0.8488  0.4318  0.6025
  398MOL0     C53661   3.900   7.911   7.630 -0.1721  0.6469  0.4259
  398MOL0     C53662   4.016   7.981   7.700  0.2121 -0.2687 -0.6627
  398MOL0     H53663   4.142   7.790   7.103 -1.7578  0.1458  2.3474
  398MOL0     H53664   4.390   7.840   7.005  1.0051  1.2388  1.7764
  398MOL0     H53665   4.537   7.978   6.869  1.0547 -1.5256  2.5673
  398MOL0     H53666   4.459   8.141   6.892 -1.4550 -0.3614  1.9973
  398MOL0     H53667   4.697   8.213   6.991 -0.9912 -0.7918  0.8558
  398MOL0     H53668   4.660   8.219   6.821  1.0277  1.2060  1.5786
  398MOL0     H53669   4.781   7.978   6.814  3.2421 -0.1409 -0.1152
  398MOL0     H53670   4.795   7.988   6.993  0.9553  1.5768  0.7663
  398MOL0     H53671   4.909   8.204   6.795  1.9562 -1.0658 -1.7470
  398MOL0     H53672   4.934   8.190   6.960  0.0325  0.7764 -0.9059
  398MOL0     H53673   5.049   7.974   6.927  2.2009  0.9471  0.6299
  398MOL0     H53674   5.016   7.984   6.753 -0.1617  1.9746 -1.2832
  398MOL0     H53675   5.129   8.182   6.730  0.8740 -2.2835 -0.9798
  398MOL0     H53676   5.177   8.205   6.893 -0.9022  1.7351 -0.8111
  398MOL0     H53677   5.260   7.953   6.734  1.8402  0.3405 -0.0898
  398MOL0     H53678   5.298   7.992   6.902 -1.4453 -2.6976 -0.5989
  398MOL0     H53679   5.485   7.998   6.724  1.1720  1.2995 -2.6124
  398MOL0     H53680   5.410   8.141   6.654  3.1782 -1.0511 -1.1433
  398MOL0     H53681   5.349   8.330   6.897  0.1679  0.2606 -0.6538
  398MOL0     H53682   5.669   8.503   6.984 -0.8471 -0.2736 -2.8038
  398MOL0     H53683   5.499   8.522   6.971  0.5958 -0.1161 -0.8788
  398MOL0     H53684   5.459   8.401   7.184  1.3687 -1.9282  0.0031
  398MOL0     H53685   5.625   8.371   7.211 -0.3468  0.5052  2.0725
  398MOL0     H53686   5.508   8.592   7.322 -0.5221 -3.2326  0.5158
  398MOL0     H53687   5.583   8.668   7.176  0.1123 -0.0647  0.8709
  398MOL0     H53688   5.754   8.490   7.363 -2.1061 -2.5048 -4.3826
  398MOL0     H53689   5.692   8.659   7.406  0.1618  2.4991 -1.9088
  398MOL0     H53690   6.007   8.696   7.067  1.6195  0.8739 -0.3860
  398MOL0     H53691   6.242   8.681   7.110  0.0314  1.5842  0.4080
  398MOL0     H53692   6.606   8.790   7.502 -1.6061 -0.8536  0.6263
  398MOL0     H53693   6.852   8.726   7.469  1.2044 -1.8287 -1.0323
  398MOL0     H53694   6.948   8.334   7.319  0.6132 -0.1641  0.8230
  398MOL0     H53695   6.888   8.484   7.233  0.7680  2.2562  0.5031
  398MOL0     H53696   7.110   8.584   7.279 -1.7195  0.2731 -0.4070
  398MOL0     H53697   7.169   8.418   7.335  1.8228  0.7683 -0.2983
  398MOL0     H53698   7.059   8.483   7.062  1.8928  1.5274 -2.2499
  398MOL0     H53699   7.230   8.505   7.090  1.3460 -1.1463 -0.7945
  398MOL0     H53700   7.153   8.278   6.993  3.0079  1.1269 -0.0331
  398MOL0     H53701   7.078   8.236   7.137  0.4922 -1.4201 -1.0217
  398MOL0     H53702   7.276   8.130   7.157 -0.7068 -0.4066  1.2621
  398MOL0     H53703   7.294   8.260   7.266 -1.3469  0.0029  0.2715
  398MOL0     H53704   7.399   8.279   6.975 -2.4467 -1.3606  0.2772
  398MOL0     H53705   7.434   8.390   7.104  2.2027 -0.5375  2.2616
  398MOL0     H53706   7.497   8.087   7.097 -0.1539  0.2007  0.0721
  398MOL0     H53707   7.560   8.192   7.219  0.7923  1.4026 -0.5702
  398MOL0     H53708   7.723   8.164   7.010 -1.3297 -1.7264  1.9125
  398MOL0     H53709   7.613   8.276   6.935  2.8075  1.4501 -1.1668
  398MOL0     H53710   6.732   8.323   7.458 -3.2712 -0.4398 -2.1645
  398MOL0     H53711   6.500   8.384   7.453 -0.2116  1.3082 -3.4382
  398MOL0     H53712   6.159   8.553   7.516 -1.4207  2.0109  0.5472
  398MOL0     H53713   5.938   8.540   7.468 -0.5346 -0.1100 -0.1989
  398MOL0     H53714   4.403   8.180   7.244 -0.4819  0.3850 -0.5405
  398MOL0     H53715   4.186   8.126   7.358 -0.8693  1.8663 -1.3132
  398MOL0     H53716   3.826   7.733   7.339  2.7753  0.5018 -0.2515
  398MOL0     H53717   3.619   7.692   7.473 -1.2171  2.2930  0.5932
  398MOL0     H53718   3.517   7.586   7.671  0.3822  0.0098  3.7676
  398MOL0     H53719   3.436   7.712   7.573 -1.3959  0.7182 -0.2126
  398MOL0     H53720   3.321   7.794   7.788 -0.9952 -0.9958  2.6851
  398MOL0     H53721   3.355   7.646   7.869  0.4750  0.2372  0.2523
  398MOL0     H53722   3.250   7.509   7.707  1.0437  0.4054 -0.3733
  398MOL0     H53723   3.241   7.643   7.593  0.8214  1.7385 -0.0172
  398MOL0     H53724   3.096   7.598   7.862 -1.2092  1.4182  1.0205
  398MOL0     H53725   3.072   7.754   7.782  1.0474  0.0468  1.3866
  398MOL0     H53726   2.834   7.449   7.569  2.8648 -1.5259 -2.2435
  398MOL0     H53727   3.767   7.912   7.806 -3.8123 -0.6631  0.3231
  398MOL0     H53728   4.062   8.058   7.638 -0.3081  1.2923  0.8418
  398MOL0     H53729   3.979   8.032   7.789  1.4425  0.0043 -0.2946
  398MOL0     H53730   4.093   7.912   7.736 -1.2301 -2.1592 -1.0064
  399MOL0     O53731   4.733   8.630   6.140 -0.1408  0.1907 -0.1938
  399MOL0     C53732   4.717   8.715   6.053 -0.0318 -0.3895 -0.0200
  399MOL0     O53733   4.815   8.782   5.984  0.5986 -0.2091 -0.7477
  399MOL0     C53734   4.944   8.759   6.015 -0.1214  0.2067 -0.1236
  399MOL0     C53735   4.997   8.760   6.149  0.6092  0.3463 -0.0033
  399MOL0     C53736   5.133   8.719   6.173 -0.2207 -0.8366 -0.0863
  399MOL0     C53737   5.217   8.690   6.071 -0.1852  0.3832 -0.3021
  399MOL0     O53738   5.347   8.668   6.105 -0.3255 -0.0381  0.5354
  399MOL0     C53739   5.414   8.579   6.002 -0.9808 -0.7727  0.3865
  399MOL0     C53740   5.543   8.527   6.063  0.2952  0.5874 -0.9537
  399MOL0     C53741   5.518   8.426   6.179 -1.1196 -0.4965 -0.1140
  399MOL0     C53742   5.661   8.370   6.231  0.5098  0.2085 -0.4627
  399MOL0     C53743   5.651   8.344   6.377  0.4815  0.1900  1.1580
  399MOL0     C53744   5.786   8.294   6.429 -0.8463  0.3791 -0.4984
  399MOL0     C53745   5.747   8.244   6.567 -0.3566  0.6533  0.1286
  399MOL0     C53746   5.839   8.131   6.616  0.2627 -0.3572 -0.4856
  399MOL0     N53747   5.978   8.174   6.590  0.4861  0.6943  0.3168
  399MOL0     C53748   6.068   8.103   6.505  0.1245 -0.1651  0.4869
  399MOL0     C53749   6.183   8.183   6.512 -0.0960  0.1856  0.9134
  399MOL0     C53750   6.314   8.142   6.450  0.2438  0.2921  0.3281
  399MOL0     C53751   6.391   8.071   6.559  0.0552 -0.6184  0.1777
  399MOL0     C53752   6.451   8.179   6.655  1.1048  0.1967 -0.5363
  399MOL0     C53753   6.565   8.114   6.726 -0.1728 -0.2034 -0.0183
  399MOL0     O53754   6.529   7.990   6.793 -0.5209  0.0847  0.7329
  399MOL0     C53755   6.643   7.925   6.822  0.0884 -0.5831 -0.5195
  399MOL0     C53756   6.704   7.839   6.735  0.0714 -0.6324 -0.2904
  399MOL0     C53757   6.828   7.781   6.761 -0.2022  0.4646 -0.3004
  399MOL0     C53758   6.896   7.826   6.883 -0.2721  0.6484  0.4252
  399MOL0     C53759   7.033   7.764   6.922  0.6244  0.5897 -0.6972
  399MOL0     O53760   7.091   7.674   6.833 -0.4637 -0.7403  0.0435
  399MOL0     C53761   7.207   7.603   6.857  0.7737  0.6661 -0.0860
  399MOL0     C53762   7.307   7.619   6.956  0.2197 -0.4129  0.2693
  399MOL0     C53763   7.425   7.546   6.960 -0.3186 -0.3932 -0.6905
  399MOL0     C53764   7.456   7.462   6.854 -0.3953  0.8468 -0.2022
  399MOL0     O53765   7.576   7.394   6.855  0.4550  0.8532 -0.2779
  399MOL0     C53766   7.634   7.324   6.747 -0.0367 -0.6129  0.1827
  399MOL0     C53767   7.789   7.341   6.759  0.0914 -0.9544 -0.5656
  399MOL0     C53768   7.846   7.291   6.889 -0.9848  0.2435  0.4148
  399MOL0     C53769   7.848   7.136   6.875 -0.1017 -0.2758  0.3274
  399MOL0     C53770   7.905   7.054   6.987 -0.2861 -0.1796 -0.2036
  399MOL0     C53771   8.019   7.125   7.069 -0.0906 -0.3251  0.4931
  399MOL0     C53772   8.149   7.148   6.992 -0.4540  0.2473  0.1082
  399MOL0     C53773   8.263   7.205   7.075 -0.4603  0.0016 -0.2227
  399MOL0    Cl53774   8.254   7.172   7.245 -0.2479 -0.4033 -0.0506
  399MOL0     C53775   7.351   7.429   6.761  1.2722 -0.7037  0.1233
  399MOL0     C53776   7.228   7.505   6.761 -0.3504 -0.5338  0.2723
  399MOL0     O53777   7.075   7.802   7.033 -0.4259 -0.3860  0.3715
  399MOL0     C53778   6.841   7.926   6.963  0.6728  0.7197 -0.4064
  399MOL0     C53779   6.718   7.978   6.932 -0.1816 -0.2234 -0.4827
  399MOL0     N53780   6.158   8.284   6.608  0.5303  0.7254 -0.0933
  399MOL0     N53781   6.040   8.271   6.662 -0.1736 -0.9497  0.4325
  399MOL0     C53782   5.171   8.688   5.937  0.3034 -0.3790 -0.2449
  399MOL0     C53783   5.032   8.722   5.912  0.5968  0.7093  0.3460
  399MOL0     C53784   4.578   8.767   6.061 -0.0112  1.5128 -0.5700
  399MOL0     C53785   4.561   8.890   6.007 -0.4848 -0.1351  0.3010
  399MOL0     C53786   4.435   8.936   5.989  0.9740  0.2375 -0.0473
  399MOL0     C53787   4.329   8.875   6.054 -0.2362  0.1705 -0.8557
  399MOL0     O53788   4.205   8.930   6.068 -0.4968 -0.0854 -0.6862
  399MOL0     C53789   4.188   9.062   6.012  0.1362  0.9657  0.1469
  399MOL0     C53790   4.037   9.104   6.027 -0.6935  0.0928  0.3919
  399MOL0     C53791   3.945   9.028   5.931 -0.8266 -0.3105 -0.8822
  399MOL0     C53792   3.811   9.098   5.902 -0.7643 -0.4056  0.5138
  399MOL0     C53793   3.750   9.146   6.024  0.2293 -0.0023 -0.0261
  399MOL0     C53794   3.701   9.176   6.131 -0.1795  0.3177  0.6385
  399MOL0     C53795   4.342   8.751   6.098  0.7737  0.7631 -0.1379
  399MOL0     C53796   4.464   8.690   6.092  0.1497 -0.0816 -0.1713
  399MOL0     C53797   4.462   8.545   6.139 -0.5435  0.3280 -0.7007
  399MOL0     H53798   4.948   8.795   6.239  1.1440  1.6351 -0.1878
  399MOL0     H53799   5.176   8.724   6.272 -0.8792  0.0067  0.1712
  399MOL0     H53800   5.352   8.491   5.987  1.9989 -2.9337 -0.1895
  399MOL0     H53801   5.442   8.631   5.910 -2.3044  3.9260  2.3225
  399MOL0     H53802   5.608   8.609   6.095  1.0774 -0.6718  0.8761
  399MOL0     H53803   5.590   8.467   5.985 -2.0670 -1.4921 -0.8979
  399MOL0     H53804   5.455   8.342   6.149 -2.4435 -0.9169  3.4092
  399MOL0     H53805   5.470   8.478   6.262  2.2638  2.2798  0.3753
  399MOL0     H53806   5.676   8.269   6.192  1.5733 -0.3277  1.2321
  399MOL0     H53807   5.746   8.437   6.211 -0.1158  0.8318 -1.1243
  399MOL0     H53808   5.630   8.443   6.420 -0.2315  0.7703 -0.4291
  399MOL0     H53809   5.571   8.271   6.394 -0.3073  0.1207 -2.1252
  399MOL0     H53810   5.830   8.216   6.367  0.1842  1.2939 -0.9628
  399MOL0     H53811   5.863   8.372   6.429 -0.7714  0.3883  2.1519
  399MOL0     H53812   5.651   8.191   6.559  1.1432 -1.9284 -3.3334
  399MOL0     H53813   5.739   8.327   6.638  0.1061 -0.0502  1.0422
  399MOL0     H53814   5.817   8.102   6.720 -0.6321 -1.5893 -0.9993
  399MOL0     H53815   5.817   8.047   6.550 -2.7823  1.4111 -1.9186
  399MOL0     H53816   6.058   8.012   6.447 -0.0537  1.1172 -1.5960
  399MOL0     H53817   6.288   8.091   6.357  1.5352  0.7930 -0.3277
  399MOL0     H53818   6.377   8.225   6.417  0.9761  0.3332  1.7418
  399MOL0     H53819   6.325   8.018   6.628 -0.5360  0.3925  0.4140
  399MOL0     H53820   6.472   8.007   6.523 -0.0890 -2.3398  2.6866
  399MOL0     H53821   6.367   8.204   6.720  0.9989 -2.3637  0.4012
  399MOL0     H53822   6.470   8.272   6.600 -0.9328  0.4651 -0.8667
  399MOL0     H53823   6.593   8.196   6.794  1.6398  0.6261 -1.6673
  399MOL0     H53824   6.651   8.103   6.660  0.7315 -0.2340  1.1200
  399MOL0     H53825   6.647   7.804   6.649  0.6368 -1.2140 -0.4337
  399MOL0     H53826   6.874   7.698   6.708 -0.3047  0.5244 -0.4855
  399MOL0     H53827   7.286   7.689   7.037  0.4728  0.3052 -0.2750
  399MOL0     H53828   7.500   7.560   7.037 -0.8151 -0.9719 -0.0881
  399MOL0     H53829   7.601   7.220   6.740 -2.2399  0.1069 -0.8493
  399MOL0     H53830   7.607   7.372   6.653  0.5996  0.3786  0.4886
  399MOL0     H53831   7.834   7.295   6.672 -2.3201 -1.4724 -1.6291
  399MOL0     H53832   7.810   7.449   6.758 -1.3649 -0.5895  1.4515
  399MOL0     H53833   7.943   7.336   6.912 -0.4858 -1.6931  2.5266
  399MOL0     H53834   7.782   7.311   6.976 -1.3538 -0.6356  0.3531
  399MOL0     H53835   7.909   7.109   6.788 -0.5897 -2.6907  0.6672
  399MOL0     H53836   7.747   7.107   6.846 -0.6696  2.9091 -1.3655
  399MOL0     H53837   7.949   6.961   6.949  0.8568 -0.4826  1.7663
  399MOL0     H53838   7.830   7.017   7.057  0.8624 -1.6570  0.3041
  399MOL0     H53839   7.991   7.220   7.116  1.8388  0.2718  0.5386
  399MOL0     H53840   8.029   7.057   7.155  0.8504 -1.9549 -0.8477
  399MOL0     H53841   8.130   7.202   6.899  2.7350 -0.2436 -0.9476
  399MOL0     H53842   8.174   7.046   6.961  0.6121  0.4468  0.2663
  399MOL0     H53843   8.364   7.174   7.047 -0.0726  1.5932 -0.7240
  399MOL0     H53844   8.265   7.313   7.056  0.4587  0.0378  0.0232
  399MOL0     H53845   7.369   7.368   6.673 -1.9331 -0.2608 -0.9534
  399MOL0     H53846   7.151   7.476   6.691 -1.8579 -0.1933  1.7207
  399MOL0     H53847   6.896   7.961   7.050 -2.1549 -0.2490  1.8945
  399MOL0     H53848   6.677   8.054   6.998  3.4003 -0.7826  2.7085
  399MOL0     H53849   5.237   8.671   5.853  2.0718  0.7436  0.8277
  399MOL0     H53850   4.986   8.715   5.813 -2.1089 -1.1481  1.6037
  399MOL0     H53851   4.641   8.954   5.972 -1.6565  1.8054  0.9512
  399MOL0     H53852   4.416   9.032   5.942 -0.1760 -1.1216 -2.5687
  399MOL0     H53853   4.216   9.063   5.906 -0.9004 -2.6341 -0.2995
  399MOL0     H53854   4.251   9.134   6.064  2.2090 -1.5749  1.3729
  399MOL0     H53855   4.019   9.209   6.000 -0.1475 -0.0803 -0.6890
  399MOL0     H53856   4.001   9.089   6.129 -1.5056  0.6759  0.2002
  399MOL0     H53857   3.929   8.930   5.979  0.9453 -1.4556 -2.5214
  399MOL0     H53858   4.004   9.003   5.843  1.4225 -0.1051  0.5002
  399MOL0     H53859   3.831   9.163   5.816  1.1204  1.1051  2.0004
  399MOL0     H53860   3.756   9.015   5.858 -0.5234 -1.5702  2.2797
  399MOL0     H53861   3.654   9.178   6.227  2.0204 -0.7485  1.7958
  399MOL0     H53862   4.252   8.714   6.146  0.5923  1.2076 -0.1314
  399MOL0     H53863   4.521   8.534   6.231 -0.4671 -0.3956 -0.8294
  399MOL0     H53864   4.363   8.510   6.172  0.5585 -3.3456 -0.8431
  399MOL0     H53865   4.498   8.476   6.063 -1.2457 -3.5479  2.1463
  400MOL0     O53866   8.477   3.079   5.823 -0.3419  0.0209 -0.5981
  400MOL0     C53867   8.400   2.984   5.858 -0.6667 -1.0627 -0.6010
  400MOL0     O53868   8.440   2.864   5.902  0.6696  0.1422  0.1195
  400MOL0     C53869   8.570   2.829   5.911  0.3517  0.0255  0.7905
  400MOL0     C53870   8.625   2.736   5.826  0.4087  0.3860  0.5909
  400MOL0     C53871   8.742   2.676   5.856  0.0050 -0.3185  0.5722
  400MOL0     C53872   8.813   2.704   5.976  0.3900 -0.1405 -0.4030
  400MOL0     O53873   8.931   2.639   6.008  0.0860 -0.0697  0.7586
  400MOL0     C53874   9.048   2.651   5.922  0.2625  0.0587  0.2622
  400MOL0     C53875   9.169   2.585   5.989  0.2971  0.1716 -0.6137
  400MOL0     C53876   9.304   2.628   5.923 -0.6150 -0.0610 -0.3363
  400MOL0     C53877   9.413   2.551   5.999  0.7493  0.1704  0.5211
  400MOL0     C53878   9.538   2.642   6.028  0.7545  0.6576 -0.0392
  400MOL0     C53879   9.658   2.581   6.091 -0.0473  0.5627  0.0469
  400MOL0     C53880   9.635   2.516   6.231 -0.0482 -0.0385 -0.6627
  400MOL0     C53881   9.755   2.526   6.327 -0.4543 -0.5637  0.2656
  400MOL0     N53882   9.781   2.653   6.395  0.1914  0.2621  1.0263
  400MOL0     C53883   9.732   2.772   6.344  0.2907  0.1483 -1.0596
  400MOL0     C53884   9.800   2.865   6.406  0.2774 -0.7407  0.1935
  400MOL0     C53885   9.819   3.011   6.346 -0.1780  0.2355 -0.7272
  400MOL0     C53886   9.961   3.058   6.368 -0.0961 -0.0174 -0.0676
  400MOL0     C53887   9.972   3.203   6.330  0.2630 -0.2778 -0.3914
  400MOL0     C53888  10.122   3.244   6.304  0.0105 -0.4393  0.0297
  400MOL0     O53889  10.166   3.225   6.167  0.4847 -0.3783  0.3669
  400MOL0     C53890  10.302   3.239   6.138 -0.3860 -0.2883 -0.3191
  400MOL0     C53891  10.350   3.240   6.005  1.3332 -0.1033 -0.3203
  400MOL0     C53892  10.486   3.268   5.982 -0.5826 -0.2379  0.2747
  400MOL0     C53893  10.575   3.295   6.081 -0.0100 -0.2505 -0.9772
  400MOL0     C53894  10.721   3.335   6.055  0.1069  0.5660 -0.2061
  400MOL0     O53895  10.800   3.343   6.167  0.2582 -0.3644 -0.6292
  400MOL0     C53896  10.931   3.362   6.184  0.1568  0.2158  0.5719
  400MOL0     C53897  10.973   3.373   6.313 -0.7497 -0.4563 -0.1970
  400MOL0     C53898  11.111   3.384   6.343 -0.5388 -0.0982 -0.5671
  400MOL0     C53899  11.209   3.385   6.245 -0.3414 -0.1536  0.1700
  400MOL0     O53900  11.340   3.400   6.282 -0.2545 -0.3555  0.1390
  400MOL0     C53901  11.432   3.437   6.186  0.5108 -0.4965  1.0223
  400MOL0     C53902  11.523   3.329   6.151  0.1897 -0.0051  0.0067
  400MOL0     C53903  11.620   3.363   6.042 -0.0288 -0.5350 -0.3651
  400MOL0     C53904  11.750   3.446   6.089 -0.5205 -0.2255  0.2330
  400MOL0     C53905  11.871   3.430   5.997  0.2799  0.2970  0.8368
  400MOL0     C53906  11.972   3.545   6.025  0.1499 -0.3282 -0.4150
  400MOL0     C53907  12.111   3.493   5.984 -0.6218  0.4096 -0.7218
  400MOL0     C53908  12.220   3.596   6.033 -0.0831 -0.5535  0.2883
  400MOL0    Cl53909  12.216   3.742   5.931 -0.0168 -0.2514 -0.1501
  400MOL0     C53910  11.168   3.371   6.109 -0.2056 -0.4243  0.5550
  400MOL0     C53911  11.032   3.371   6.077 -0.2355 -0.3505  0.0755
  400MOL0     O53912  10.762   3.331   5.938  0.3519 -0.3391  0.2580
  400MOL0     C53913  10.528   3.303   6.215  0.8153 -0.7245 -0.0116
  400MOL0     C53914  10.396   3.273   6.242  0.4663 -0.0363 -0.0288
  400MOL0     N53915   9.889   2.804   6.492  0.3237 -0.0416 -0.0394
  400MOL0     N53916   9.886   2.677   6.480 -0.2308  0.1917 -0.0269
  400MOL0     C53917   8.751   2.790   6.068  0.2870 -0.0178 -0.1849
  400MOL0     C53918   8.638   2.859   6.031 -0.3900  0.6703 -1.0059
  400MOL0     C53919   8.257   3.014   5.882  0.2468  0.1421 -0.2031
  400MOL0     C53920   8.194   3.002   6.006 -0.4726 -0.3844  0.5178
  400MOL0     C53921   8.054   3.012   6.020 -1.1421 -0.5665 -0.1249
  400MOL0     C53922   7.976   3.051   5.911  0.4073 -0.2519 -0.2308
  400MOL0     O53923   7.841   3.065   5.920  0.7469  0.1853 -0.0920
  400MOL0     C53924   7.769   3.064   6.045 -0.0983 -0.2249 -0.7641
  400MOL0     C53925   7.623   3.110   6.027  0.0969  0.4029 -0.0123
  400MOL0     C53926   7.545   3.099   6.155 -0.0631 -0.1253 -0.4960
  400MOL0     C53927   7.395   3.143   6.126 -0.0816 -0.8637  0.1440
  400MOL0     C53928   7.319   3.124   6.251 -0.2833 -0.9192 -0.1686
  400MOL0     C53929   7.263   3.118   6.359 -0.6137 -1.2555  0.0583
  400MOL0     C53930   8.044   3.080   5.788  0.1639 -0.2124  0.0092
  400MOL0     C53931   8.176   3.056   5.773 -0.6785 -0.0321  0.2487
  400MOL0     C53932   8.240   3.086   5.637  0.9207  0.1454 -1.0923
  400MOL0     H53933   8.579   2.709   5.731 -1.2865  1.0960  1.1698
  400MOL0     H53934   8.788   2.604   5.789  0.2504 -0.0786  0.4799
  400MOL0     H53935   9.023   2.612   5.823  1.0108  0.8986 -0.2775
  400MOL0     H53936   9.073   2.757   5.905  4.9525 -0.6522  1.3645
  400MOL0     H53937   9.158   2.477   5.980 -1.3150  0.2126  0.4582
  400MOL0     H53938   9.172   2.613   6.095  2.0396 -0.2433 -0.5147
  400MOL0     H53939   9.321   2.736   5.931  1.3255 -0.2071 -1.7856
  400MOL0     H53940   9.314   2.596   5.819  1.5853  0.8084 -0.4642
  400MOL0     H53941   9.380   2.509   6.095  0.6293 -1.5599 -0.2327
  400MOL0     H53942   9.451   2.467   5.941 -0.4803  0.8515 -1.3669
  400MOL0     H53943   9.575   2.672   5.929  1.1690 -0.2588 -0.1677
  400MOL0     H53944   9.515   2.736   6.080  0.8143  0.6953 -0.0794
  400MOL0     H53945   9.689   2.499   6.026 -1.9663 -1.1558  1.1733
  400MOL0     H53946   9.746   2.646   6.093  0.7041 -0.4322  0.2265
  400MOL0     H53947   9.610   2.410   6.220  1.6752 -0.4902 -0.5553
  400MOL0     H53948   9.543   2.553   6.277 -0.0257  1.5484 -1.7883
  400MOL0     H53949   9.745   2.448   6.404 -1.2985 -0.0614  0.6839
  400MOL0     H53950   9.842   2.502   6.266  0.4031  0.0732  1.2124
  400MOL0     H53951   9.656   2.780   6.267  0.0778 -1.3458 -1.0356
  400MOL0     H53952   9.799   3.012   6.239 -0.5787  0.0433 -0.6578
  400MOL0     H53953   9.751   3.076   6.401  1.8962  0.7252  1.4324
  400MOL0     H53954  10.001   3.043   6.469 -2.0147  0.0657  0.7542
  400MOL0     H53955  10.031   2.999   6.308  0.1577  0.0386  0.1716
  400MOL0     H53956   9.929   3.259   6.413  3.4676 -0.2492  1.4274
  400MOL0     H53957   9.918   3.230   6.239 -0.0914  0.1402 -0.0606
  400MOL0     H53958  10.186   3.183   6.369  0.4236 -0.7689 -0.6787
  400MOL0     H53959  10.132   3.347   6.339 -0.3821 -1.3403  3.1363
  400MOL0     H53960  10.281   3.235   5.921  1.9929  0.3640 -0.9029
  400MOL0     H53961  10.533   3.274   5.884  2.3291  1.3448  1.6459
  400MOL0     H53962  10.909   3.368   6.400 -1.0699 -1.7184 -0.4899
  400MOL0     H53963  11.135   3.370   6.447  2.5990  0.3618 -1.1467
  400MOL0     H53964  11.391   3.487   6.098  0.9818 -1.7656  0.0508
  400MOL0     H53965  11.495   3.514   6.231  2.8483 -0.2265 -2.3382
  400MOL0     H53966  11.589   3.296   6.232  1.3176  1.0466 -0.4545
  400MOL0     H53967  11.458   3.248   6.117 -1.2176  0.3707  1.6561
  400MOL0     H53968  11.654   3.272   5.991 -2.2183 -1.2192 -0.7179
  400MOL0     H53969  11.571   3.421   5.963  0.3169  1.4480  0.7962
  400MOL0     H53970  11.773   3.418   6.193 -0.9095  1.7495  0.8985
  400MOL0     H53971  11.728   3.553   6.087  0.0890 -0.1010 -0.0280
  400MOL0     H53972  11.854   3.429   5.889  4.1093 -3.6241 -0.0275
  400MOL0     H53973  11.929   3.344   6.031  1.9953  1.6895  1.6111
  400MOL0     H53974  11.932   3.641   5.992 -3.3949 -1.2290  0.8737
  400MOL0     H53975  11.988   3.555   6.133 -1.4532 -1.9360  0.0239
  400MOL0     H53976  12.109   3.473   5.877 -1.8784  1.2041 -0.8677
  400MOL0     H53977  12.138   3.394   6.023 -1.5229  1.0872  1.8569
  400MOL0     H53978  12.216   3.626   6.138  3.5781  0.6344  0.2386
  400MOL0     H53979  12.319   3.554   6.011 -0.2585 -0.5340 -0.5779
  400MOL0     H53980  11.242   3.372   6.029  0.1572  2.1422  0.8425
  400MOL0     H53981  11.001   3.377   5.974 -1.3767  3.5114  0.5028
  400MOL0     H53982  10.585   3.355   6.292 -2.4289  1.8407  0.9253
  400MOL0     H53983  10.364   3.278   6.345 -2.6902 -1.1838 -0.8143
  400MOL0     H53984   8.797   2.802   6.165  1.0132 -2.1866 -0.2039
  400MOL0     H53985   8.606   2.920   6.115 -2.4208 -1.2474 -0.3120
  400MOL0     H53986   8.258   2.969   6.087 -1.0998  1.1455  1.6857
  400MOL0     H53987   8.013   2.993   6.119 -1.1225  0.1868  0.0291
  400MOL0     H53988   7.814   3.134   6.117 -0.1281  1.5326 -2.3704
  400MOL0     H53989   7.776   2.964   6.087 -0.9800 -0.3070 -0.8027
  400MOL0     H53990   7.586   3.040   5.952 -1.5198  1.8374 -0.6192
  400MOL0     H53991   7.618   3.212   5.988 -0.5191  0.6651  0.7362
  400MOL0     H53992   7.575   3.168   6.234  0.0542 -1.3829  0.5931
  400MOL0     H53993   7.542   2.997   6.195  1.6722  0.0912  0.2723
  400MOL0     H53994   7.383   3.246   6.092  0.7620 -0.0763  2.0583
  400MOL0     H53995   7.365   3.081   6.041 -1.2879 -2.1347  1.4213
  400MOL0     H53996   7.214   3.109   6.454  1.1210  2.2912  1.4755
  400MOL0     H53997   7.986   3.131   5.711  1.1962  0.0181 -0.6414
  400MOL0     H53998   8.320   3.157   5.661  1.0643  0.6694 -3.0254
  400MOL0     H53999   8.283   2.996   5.591 -0.1831 -1.4041  0.7535
  400MOL0     H54000   8.172   3.146   5.577  0.4750  2.7962  1.8401
  401MOL0     O54001   1.583  10.210   4.188  0.3213  0.1860 -0.5674
  401MOL0     C54002   1.540  10.105   4.236  0.1855  0.0841  0.1233
  401MOL0     O54003   1.608  10.037   4.332  0.0566  0.4554  0.5584
  401MOL0     C54004   1.729  10.085   4.371 -0.1119  0.6629 -0.0562
  401MOL0     C54005   1.843  10.029   4.326 -0.1875 -0.4186 -0.0652
  401MOL0     C54006   1.966  10.054   4.392  0.6002  0.2238  0.3620
  401MOL0     C54007   1.972  10.148   4.499  0.2975  0.9035  0.4087
  401MOL0     O54008   2.081  10.181   4.576 -0.4751 -0.1455 -0.6327
  401MOL0     C54009   2.216  10.157   4.523 -0.2285 -0.0827 -0.2294
  401MOL0     C54010   2.271  10.009   4.553  0.1620  0.0605  0.3769
  401MOL0     C54011   2.280   9.995   4.707  0.3598  0.2696  0.2697
  401MOL0     C54012   2.322   9.846   4.742  0.4779  0.2360  0.8507
  401MOL0     C54013   2.303   9.811   4.892  0.1349  0.1304 -0.5238
  401MOL0     C54014   2.401   9.886   4.991  0.1156  0.3637  0.8451
  401MOL0     C54015   2.535   9.810   4.994 -0.3183  0.0090  0.8007
  401MOL0     C54016   2.626   9.872   5.099  1.4571  0.2994 -0.7738
  401MOL0     N54017   2.764   9.828   5.091  0.0779 -0.1352 -0.8749
  401MOL0     C54018   2.820   9.722   5.163  0.7670  0.1308  0.2185
  401MOL0     C54019   2.955   9.739   5.152  0.1999 -0.4521  0.2488
  401MOL0     C54020   3.053   9.629   5.190  0.3771  0.0079 -0.2987
  401MOL0     C54021   3.180   9.685   5.258  0.5101 -0.4512 -0.3885
  401MOL0     C54022   3.270   9.569   5.288  0.6295  0.1916  0.2749
  401MOL0     C54023   3.407   9.614   5.351  0.7096 -0.2179  0.0263
  401MOL0     O54024   3.495   9.508   5.393 -0.2547 -0.0943  0.2661
  401MOL0     C54025   3.632   9.540   5.411  0.4418 -0.0943 -0.5594
  401MOL0     C54026   3.734   9.491   5.329  0.5813  0.5093 -0.1097
  401MOL0     C54027   3.874   9.516   5.351  0.0472 -0.3815 -0.2619
  401MOL0     C54028   3.910   9.614   5.453 -0.0639 -0.2585 -0.2542
  401MOL0     C54029   4.053   9.654   5.478  0.5309  0.1469 -0.2221
  401MOL0     O54030   4.141   9.599   5.386  0.3197  0.0305  1.0142
  401MOL0     C54031   4.266   9.658   5.388  0.3011  0.2251  0.4486
  401MOL0     C54032   4.299   9.780   5.321 -1.0849 -0.4488  0.2897
  401MOL0     C54033   4.429   9.829   5.316  0.0710 -0.5543 -0.2838
  401MOL0     C54034   4.527   9.767   5.389  0.0080  0.9162  0.7389
  401MOL0     O54035   4.635   9.837   5.405  0.0949  0.1385 -0.6701
  401MOL0     C54036   4.758   9.759   5.391  0.0867 -0.2913  0.4004
  401MOL0     C54037   4.884   9.844   5.371 -1.3744  0.4262  0.3518
  401MOL0     C54038   4.875   9.930   5.242 -0.6025 -1.0493  0.3814
  401MOL0     C54039   4.862   9.854   5.114 -0.9321  0.0055  0.0082
  401MOL0     C54040   4.908   9.923   4.977  0.0074  0.2327 -0.1113
  401MOL0     C54041   4.851   9.866   4.844 -0.1554 -0.4759 -0.4412
  401MOL0     C54042   4.852   9.978   4.734  0.1825 -0.6170 -0.0649
  401MOL0     C54043   4.784   9.931   4.603 -0.0560 -0.1813  0.3804
  401MOL0    Cl54044   4.761  10.046   4.470 -0.1469 -0.2533  0.0003
  401MOL0     C54045   4.497   9.648   5.454  0.6240  0.0063 -0.4384
  401MOL0     C54046   4.372   9.593   5.455  0.1811 -0.0252 -0.4886
  401MOL0     O54047   4.080   9.744   5.555 -0.1336  1.0254 -0.6653
  401MOL0     C54048   3.802   9.658   5.534 -0.0048 -0.4053 -0.4978
  401MOL0     C54049   3.670   9.630   5.509 -0.0236  1.0206 -0.6206
  401MOL0     N54050   2.971   9.827   5.048  0.4306 -0.2085  0.0674
  401MOL0     N54051   2.861   9.891   5.028  0.5225  0.1852  0.0060
  401MOL0     C54052   1.844  10.203   4.548 -0.9872 -0.3324 -0.1741
  401MOL0     C54053   1.733  10.176   4.475 -0.1505  0.4043  0.1749
  401MOL0     C54054   1.401  10.040   4.200 -1.0604 -0.6186 -0.4189
  401MOL0     C54055   1.366   9.924   4.280  0.3040 -0.7298 -0.2029
  401MOL0     C54056   1.244   9.855   4.265 -0.3151  0.3010 -0.2906
  401MOL0     C54057   1.162   9.889   4.158  1.8631  0.2530  0.0522
  401MOL0     O54058   1.063   9.814   4.114  0.1540 -0.2932 -0.3120
  401MOL0     C54059   0.932   9.844   4.174 -0.6529  0.8281 -0.0741
  401MOL0     C54060   0.840   9.739   4.112  0.5407  0.7183 -0.2327
  401MOL0     C54061   0.870   9.592   4.156 -0.3019 -0.3666  0.0766
  401MOL0     C54062   0.835   9.556   4.302 -0.3036  0.5206  0.5665
  401MOL0     C54063   0.957   9.568   4.384 -0.0103  0.6501 -0.9338
  401MOL0     C54064   1.067   9.583   4.445  0.3801  0.5531  0.1049
  401MOL0     C54065   1.196  10.003   4.075 -0.9144  0.7603  1.0900
  401MOL0     C54066   1.311  10.074   4.099  0.3029 -0.8270 -0.0536
  401MOL0     C54067   1.345  10.186   4.004  0.6280 -0.0813  0.2939
  401MOL0     H54068   1.844   9.951   4.252  0.4392  1.6989 -2.4401
  401MOL0     H54069   2.055  10.001   4.359 -0.5099 -2.3594  1.3481
  401MOL0     H54070   2.219  10.179   4.415  2.1514  2.8101  0.2954
  401MOL0     H54071   2.286  10.224   4.575 -1.2645 -1.4163  3.1270
  401MOL0     H54072   2.371   9.990   4.513  0.3335  0.4989  0.5953
  401MOL0     H54073   2.188   9.946   4.520 -1.9053  1.7694  2.0261
  401MOL0     H54074   2.180  10.012   4.747  0.3859 -2.9298  2.0935
  401MOL0     H54075   2.351  10.057   4.762 -0.0837  1.1052 -0.0926
  401MOL0     H54076   2.262   9.783   4.675 -0.9188  3.2571 -0.9614
  401MOL0     H54077   2.425   9.825   4.712  0.3915  0.6057  0.2674
  401MOL0     H54078   2.202   9.844   4.918 -0.0951  1.1811 -2.4987
  401MOL0     H54079   2.304   9.702   4.897 -1.0620  0.1106 -0.4992
  401MOL0     H54080   2.424   9.988   4.958  0.9564  0.5709  1.9993
  401MOL0     H54081   2.354   9.891   5.089 -3.6341  0.2321 -0.7690
  401MOL0     H54082   2.583   9.814   4.896 -1.2752 -2.8710  0.1344
  401MOL0     H54083   2.522   9.704   5.014  0.5620 -0.3922 -0.6363
  401MOL0     H54084   2.627   9.981   5.085 -0.8002  0.2233 -2.0444
  401MOL0     H54085   2.596   9.841   5.200  0.3797  1.9936 -0.5300
  401MOL0     H54086   2.769   9.641   5.214  1.7506 -1.5868 -1.4025
  401MOL0     H54087   3.005   9.550   5.249  1.6934 -0.5449  0.0815
  401MOL0     H54088   3.077   9.583   5.094  1.1663  1.3467 -0.7650
  401MOL0     H54089   3.229   9.764   5.199  1.5151 -0.7017  0.0842
  401MOL0     H54090   3.142   9.733   5.348  0.8826  0.6634 -0.7958
  401MOL0     H54091   3.288   9.502   5.204  0.0766 -0.4582  0.6591
  401MOL0     H54092   3.221   9.506   5.363 -1.0554 -0.0331 -0.9652
  401MOL0     H54093   3.378   9.665   5.443  1.6851 -2.0254  1.3953
  401MOL0     H54094   3.465   9.681   5.286  1.1052  1.8937  2.4098
  401MOL0     H54095   3.715   9.423   5.246  3.7537  0.4632 -0.9136
  401MOL0     H54096   3.947   9.466   5.287  2.0730  0.1355  1.5373
  401MOL0     H54097   4.218   9.833   5.271 -0.8143 -1.8944 -1.8081
  401MOL0     H54098   4.459   9.926   5.279  2.4858 -1.3572 -0.6110
  401MOL0     H54099   4.774   9.701   5.483  1.2320  1.4845  1.3878
  401MOL0     H54100   4.762   9.680   5.316 -0.5704 -1.2445  1.3374
  401MOL0     H54101   4.907   9.906   5.458  1.0899 -0.5555  0.4941
  401MOL0     H54102   4.971   9.778   5.359  0.4346  2.6864  0.5005
  401MOL0     H54103   4.803  10.011   5.248 -0.5177 -1.0787  2.7653
  401MOL0     H54104   4.976   9.973   5.247 -0.1452 -1.8572 -1.1717
  401MOL0     H54105   4.759   9.818   5.102 -0.5777 -0.4877 -2.1083
  401MOL0     H54106   4.919   9.761   5.118  2.6864  2.0938  0.5868
  401MOL0     H54107   5.017   9.925   4.977  0.0049  0.7224 -0.5444
  401MOL0     H54108   4.884  10.029   4.989 -0.6062  0.1068 -0.2010
  401MOL0     H54109   4.926   9.791   4.819  0.0274 -1.3440  2.3945
  401MOL0     H54110   4.750   9.826   4.855 -2.4830  3.5526 -3.9149
  401MOL0     H54111   4.956  10.007   4.715 -0.4264 -0.0271 -2.9070
  401MOL0     H54112   4.799  10.070   4.762 -0.3231 -1.4666  1.9841
  401MOL0     H54113   4.841   9.850   4.557 -0.3301  0.5007 -1.1999
  401MOL0     H54114   4.684   9.893   4.623 -1.3479  2.2260 -1.0490
  401MOL0     H54115   4.568   9.588   5.511 -0.1311 -3.0321 -2.4704
  401MOL0     H54116   4.337   9.504   5.507  0.5222 -0.0313 -0.2660
  401MOL0     H54117   3.822   9.718   5.622 -2.6782 -2.7775  1.9459
  401MOL0     H54118   3.594   9.678   5.571 -0.2922 -0.8242  0.5397
  401MOL0     H54119   1.844  10.261   4.639  2.7211 -2.9256  1.7714
  401MOL0     H54120   1.635  10.207   4.509 -0.4122 -0.9361  0.6973
  401MOL0     H54121   1.416   9.890   4.370 -1.2122  3.2126  2.3656
  401MOL0     H54122   1.218   9.769   4.325  0.4504  0.7121  0.6451
  401MOL0     H54123   0.890   9.940   4.143  0.6567  0.9680 -1.5827
  401MOL0     H54124   0.944   9.843   4.282 -0.9636  0.8916 -0.0374
  401MOL0     H54125   0.837   9.732   4.003 -2.1298 -0.0059 -0.1936
  401MOL0     H54126   0.738   9.757   4.147 -0.0889 -2.7570  0.1526
  401MOL0     H54127   0.977   9.574   4.144 -0.0151  0.2765  1.4756
  401MOL0     H54128   0.816   9.528   4.086 -0.6990 -0.9494  0.9078
  401MOL0     H54129   0.753   9.615   4.344 -0.3906 -0.1474  1.3742
  401MOL0     H54130   0.806   9.450   4.304  1.7047 -0.1283 -0.8124
  401MOL0     H54131   1.157   9.585   4.504  2.1769 -0.1382 -2.4586
  401MOL0     H54132   1.134  10.035   3.992  1.5697 -0.9787 -1.6068
  401MOL0     H54133   1.266  10.189   3.929  1.8996 -0.5293 -1.1041
  401MOL0     H54134   1.357  10.275   4.067 -0.6291  0.7783 -0.6441
  401MOL0     H54135   1.438  10.166   3.950 -0.0237 -2.6158 -0.0064
  402MOL0     O54136   9.565   9.429   8.462 -0.1907  0.3177 -0.1899
  402MOL0     C54137   9.529   9.517   8.530 -0.1559 -0.2867 -0.4383
  402MOL0     O54138   9.609   9.624   8.576 -0.0712 -0.3715 -0.5620
  402MOL0     C54139   9.736   9.635   8.532  0.0625 -0.3398 -0.7192
  402MOL0     C54140   9.772   9.622   8.400 -0.8134  0.8923  0.2523
  402MOL0     C54141   9.908   9.618   8.353 -1.0094  0.0075  0.2698
  402MOL0     C54142  10.003   9.611   8.454 -0.1472  0.6389  0.7904
  402MOL0     O54143  10.139   9.605   8.433  0.0839 -0.4736  0.7084
  402MOL0     C54144  10.180   9.557   8.306  0.3084  0.9043  0.1507
  402MOL0     C54145  10.332   9.514   8.325  0.2281  0.4563 -0.7055
  402MOL0     C54146  10.436   9.630   8.331 -0.8336 -0.6939 -0.2464
  402MOL0     C54147  10.571   9.579   8.282 -0.0861  0.0013  0.1988
  402MOL0     C54148  10.587   9.586   8.128  0.0295 -0.3532  0.4370
  402MOL0     C54149  10.723   9.546   8.073  1.1518 -0.3128 -0.9008
  402MOL0     C54150  10.825   9.660   8.093 -0.3988  0.0740 -1.5821
  402MOL0     C54151  10.961   9.635   8.029  0.2015  0.6103 -0.6546
  402MOL0     N54152  11.041   9.756   8.039 -0.1841 -0.3148  0.1419
  402MOL0     C54153  11.043   9.838   7.930 -0.5887  0.2506 -0.2621
  402MOL0     C54154  11.138   9.929   7.958  0.2983 -0.3909 -0.8092
  402MOL0     C54155  11.191  10.021   7.860  0.0813  0.5260  0.0509
  402MOL0     C54156  11.252  10.138   7.925 -0.3564 -0.9376 -0.4523
  402MOL0     C54157  11.289  10.249   7.819  0.6736  0.0009 -0.6739
  402MOL0     C54158  11.353  10.369   7.880 -0.3131  0.7800  0.1579
  402MOL0     O54159  11.491  10.332   7.922  0.5550 -0.6329 -0.1982
  402MOL0     C54160  11.590  10.428   7.932  0.3966  0.2451 -0.5203
  402MOL0     C54161  11.574  10.570   7.922 -0.4139  0.7221 -0.0009
  402MOL0     C54162  11.682  10.654   7.926  0.1252  0.5758 -0.7502
  402MOL0     C54163  11.806  10.606   7.965  0.4335 -0.2095 -0.1178
  402MOL0     C54164  11.924  10.691   7.970 -0.4399  0.3910 -0.4470
  402MOL0     O54165  11.903  10.818   7.952  0.5559 -0.9519 -0.1732
  402MOL0     C54166  12.008  10.908   7.977 -0.2316 -0.1543 -0.4513
  402MOL0     C54167  12.071  10.908   8.101 -0.1370 -0.1816 -0.3588
  402MOL0     C54168  12.166  10.997   8.134  0.2514 -1.1806 -0.6607
  402MOL0     C54169  12.211  11.099   8.046  0.2141  0.0584 -0.3265
  402MOL0     O54170  12.320  11.178   8.070  0.0362 -0.5921  0.0635
  402MOL0     C54171  12.360  11.209   8.204  0.8115 -0.1663 -0.2587
  402MOL0     C54172  12.444  11.330   8.216 -0.3210 -0.0679 -0.1624
  402MOL0     C54173  12.583  11.311   8.152 -0.0770  0.2023 -0.4990
  402MOL0     C54174  12.663  11.439   8.171  0.3486 -0.0214 -0.4474
  402MOL0     C54175  12.804  11.455   8.111  0.1625 -0.1333 -0.1001
  402MOL0     C54176  12.901  11.358   8.177  0.3826  0.0974 -0.4967
  402MOL0     C54177  13.045  11.375   8.132  0.0818 -0.1949 -0.1983
  402MOL0     C54178  13.101  11.478   8.228 -0.0496  0.4501  0.6650
  402MOL0    Cl54179  13.263  11.537   8.183 -0.2419  0.1435  0.3625
  402MOL0     C54180  12.143  11.104   7.918  0.5897 -0.0163 -0.7802
  402MOL0     C54181  12.051  11.005   7.885 -0.7746 -0.1726 -0.1297
  402MOL0     O54182  12.033  10.636   7.984  0.3818 -0.0430 -0.0815
  402MOL0     C54183  11.822  10.465   7.983 -0.8832 -0.8296  0.5671
  402MOL0     C54184  11.713  10.379   7.965  0.3293 -0.5092 -0.2560
  402MOL0     N54185  11.190   9.900   8.083 -0.4007  0.2487  0.5202
  402MOL0     N54186  11.134   9.788   8.130 -0.2290  0.0970 -0.0602
  402MOL0     C54187   9.970   9.620   8.591  0.4694 -0.6062  0.6851
  402MOL0     C54188   9.834   9.637   8.627 -0.9984  1.6271 -0.7465
  402MOL0     C54189   9.384   9.524   8.568  0.3528  0.3368  0.2942
  402MOL0     C54190   9.286   9.561   8.468 -0.4744  0.5957  0.5473
  402MOL0     C54191   9.149   9.576   8.504 -0.7812  0.6474 -0.0742
  402MOL0     C54192   9.108   9.561   8.636  0.6837  0.4822 -0.4595
  402MOL0     O54193   8.983   9.585   8.688  0.3652  0.1109 -1.0757
  402MOL0     C54194   8.877   9.623   8.603 -0.1448 -0.5007  1.0076
  402MOL0     C54195   8.779   9.691   8.690 -0.5636  1.1372 -0.9556
  402MOL0     C54196   8.667   9.753   8.609  0.2756 -0.2934  0.1501
  402MOL0     C54197   8.551   9.786   8.708  0.4598  0.8397 -0.8064
  402MOL0     C54198   8.500   9.668   8.783 -0.1062  0.2734 -0.8766
  402MOL0     C54199   8.445   9.580   8.840  0.6143  0.1011  0.6351
  402MOL0     C54200   9.201   9.509   8.727  0.6099  0.6043  0.7664
  402MOL0     C54201   9.340   9.502   8.697 -1.0859 -0.3601  0.7277
  402MOL0     C54202   9.435   9.453   8.807 -0.1550  0.1571  0.2498
  402MOL0     H54203   9.685   9.614   8.336 -0.1479 -1.9855 -0.4621
  402MOL0     H54204   9.931   9.620   8.247 -1.4428  1.5877  0.1802
  402MOL0     H54205  10.138   9.461   8.274  2.4477  0.8439 -2.9455
  402MOL0     H54206  10.166   9.629   8.225 -1.3835  0.4937  0.0571
  402MOL0     H54207  10.359   9.436   8.253  1.7153 -3.0098  3.1810
  402MOL0     H54208  10.334   9.453   8.415 -2.1895 -0.9807 -1.5232
  402MOL0     H54209  10.456   9.664   8.433 -2.2305  2.6375 -0.9508
  402MOL0     H54210  10.414   9.725   8.281  4.7565  2.1038  1.7198
  402MOL0     H54211  10.643   9.652   8.319 -0.5483  1.4749 -1.6002
  402MOL0     H54212  10.598   9.483   8.327  1.4339  0.8686  1.2262
  402MOL0     H54213  10.506   9.528   8.082 -0.7030  1.8198 -1.1749
  402MOL0     H54214  10.560   9.689   8.105 -0.4097 -0.0087  2.3512
  402MOL0     H54215  10.756   9.446   8.103  0.9883 -0.1564 -0.1899
  402MOL0     H54216  10.708   9.522   7.967  0.4503 -2.6103 -0.3400
  402MOL0     H54217  10.846   9.660   8.201 -2.2129 -5.8557 -0.9136
  402MOL0     H54218  10.777   9.750   8.053 -0.5203 -0.3926 -2.4995
  402MOL0     H54219  11.002   9.551   8.087 -2.2984  0.7747  1.5458
  402MOL0     H54220  10.955   9.603   7.925 -0.4022 -2.4933  0.2316
  402MOL0     H54221  10.987   9.828   7.837  0.2067  0.3529 -0.7561
  402MOL0     H54222  11.266   9.983   7.790  1.1581  2.6671 -0.0592
  402MOL0     H54223  11.109  10.049   7.794  2.9268  4.9283 -2.1445
  402MOL0     H54224  11.190  10.185   8.002 -0.1420  0.5925 -1.1659
  402MOL0     H54225  11.344  10.122   7.982 -0.5685  2.8812  1.3222
  402MOL0     H54226  11.194  10.271   7.769  0.2078 -0.0877  0.1606
  402MOL0     H54227  11.349  10.212   7.735 -1.2978 -1.7001 -1.4321
  402MOL0     H54228  11.294  10.389   7.970 -2.3376 -2.2696 -0.3078
  402MOL0     H54229  11.343  10.440   7.798  1.0820 -1.4190 -2.0685
  402MOL0     H54230  11.476  10.614   7.909 -0.9387 -0.6323 -0.8207
  402MOL0     H54231  11.673  10.761   7.915  2.4069  0.6557 -2.5648
  402MOL0     H54232  12.051  10.831   8.175 -0.4320 -2.7812 -2.9795
  402MOL0     H54233  12.215  10.999   8.231  0.0031 -4.1554 -0.3731
  402MOL0     H54234  12.262  11.232   8.247 -0.5719 -0.6512 -2.9211
  402MOL0     H54235  12.407  11.132   8.266 -0.1717  1.5123  2.7593
  402MOL0     H54236  12.405  11.414   8.158 -0.9169 -0.9523 -1.0698
  402MOL0     H54237  12.462  11.361   8.319 -2.5099  3.5213 -0.6896
  402MOL0     H54238  12.627  11.226   8.206 -2.5000  0.1518  1.5807
  402MOL0     H54239  12.571  11.276   8.049  1.7266 -0.0123 -0.6782
  402MOL0     H54240  12.672  11.465   8.277 -1.6559  2.4793 -0.7679
  402MOL0     H54241  12.603  11.523   8.133  1.5565  0.5999 -1.0268
  402MOL0     H54242  12.847  11.555   8.124  1.5690 -0.7094 -0.1625
  402MOL0     H54243  12.783  11.428   8.007 -3.5782  1.9126 -0.0458
  402MOL0     H54244  12.881  11.376   8.283 -1.1353 -1.0884 -0.5415
  402MOL0     H54245  12.877  11.253   8.157  2.2494 -0.7195  1.2055
  402MOL0     H54246  13.048  11.418   8.032 -0.6171  1.2241  0.3491
  402MOL0     H54247  13.096  11.279   8.133  0.6696  0.1112  0.8416
  402MOL0     H54248  13.045  11.571   8.238 -0.7432  0.2878 -1.2735
  402MOL0     H54249  13.123  11.426   8.321 -0.3456 -1.3335 -0.2140
  402MOL0     H54250  12.177  11.179   7.847  2.1480  1.0195  0.9484
  402MOL0     H54251  11.999  11.018   7.791 -0.9589  1.3402  0.1605
  402MOL0     H54252  11.918  10.418   8.003 -0.8401 -0.5798  0.9504
  402MOL0     H54253  11.727  10.272   7.971  0.2783 -0.5653 -1.0669
  402MOL0     H54254  10.048   9.614   8.666  0.9278 -1.5127  0.1499
  402MOL0     H54255   9.806   9.650   8.731 -3.6283  1.3297 -1.3504
  402MOL0     H54256   9.324   9.590   8.371 -2.1511  0.2124 -0.2445
  402MOL0     H54257   9.070   9.600   8.433 -2.0664 -1.0113  0.7221
  402MOL0     H54258   8.838   9.532   8.557  1.3862  0.2146 -1.9552
  402MOL0     H54259   8.914   9.688   8.523  2.2714 -0.5330  2.0034
  402MOL0     H54260   8.829   9.772   8.744  0.6775  1.8278 -3.0039
  402MOL0     H54261   8.750   9.617   8.765  0.5456  0.3972 -1.2236
  402MOL0     H54262   8.637   9.678   8.536 -1.0340  2.0289 -1.8315
  402MOL0     H54263   8.693   9.841   8.549  0.4012 -0.7518 -0.4658
  402MOL0     H54264   8.583   9.860   8.782 -0.9868 -1.2084  2.0422
  402MOL0     H54265   8.468   9.829   8.653  1.8264 -0.1280 -3.8488
  402MOL0     H54266   8.385   9.500   8.877 -1.5407  0.7458 -1.1818
  402MOL0     H54267   9.167   9.489   8.828  1.5487  0.0867  0.9922
  402MOL0     H54268   9.499   9.372   8.770 -2.5532 -2.4823  1.5098
  402MOL0     H54269   9.487   9.543   8.841 -1.4911  2.1995 -2.7544
  402MOL0     H54270   9.379   9.407   8.889 -2.2755  2.0089 -0.0569
  403MOL0     O54271  11.054   0.722   7.290  0.2940  0.1958 -0.4529
  403MOL0     C54272  11.156   0.726   7.350 -0.2898  0.0111  0.2466
  403MOL0     O54273  11.168   0.715   7.485  0.0964 -0.4919 -0.5798
  403MOL0     C54274  11.061   0.708   7.565 -0.4419  0.4003  0.6093
  403MOL0     C54275  10.961   0.614   7.551  0.4647  0.0871 -0.2951
  403MOL0     C54276  10.852   0.606   7.646 -0.3684 -0.0213 -0.5734
  403MOL0     C54277  10.855   0.682   7.765 -0.7318 -0.7396 -1.1110
  403MOL0     O54278  10.763   0.675   7.871  0.8300  0.4849  0.5605
  403MOL0     C54279  10.644   0.593   7.855 -0.3790  0.1737  0.0864
  403MOL0     C54280  10.520   0.621   7.931 -0.3931 -0.0409 -0.2151
  403MOL0     C54281  10.539   0.652   8.078  0.2625  0.4214  0.1028
  403MOL0     C54282  10.581   0.536   8.170 -0.1995 -1.1213 -0.1245
  403MOL0     C54283  10.600   0.577   8.317  0.3049  0.2497 -0.2196
  403MOL0     C54284  10.690   0.701   8.334  0.1248  0.0539 -0.0832
  403MOL0     C54285  10.837   0.664   8.288 -0.6067  0.1495  0.0529
  403MOL0     C54286  10.900   0.740   8.173  0.0675 -0.4410  0.0388
  403MOL0     N54287  11.034   0.700   8.149  0.6542  0.0440 -0.9649
  403MOL0     C54288  11.079   0.633   8.038 -0.7765  0.1469 -0.1767
  403MOL0     C54289  11.218   0.633   8.048  0.1728  0.5306 -0.2203
  403MOL0     C54290  11.300   0.552   7.960 -0.0830  0.2884 -0.0899
  403MOL0     C54291  11.430   0.616   7.921 -0.4000 -0.0044 -0.5907
  403MOL0     C54292  11.557   0.533   7.960  0.8578 -0.2038 -0.3067
  403MOL0     C54293  11.624   0.591   8.083 -0.0425 -0.6372 -0.8914
  403MOL0     O54294  11.744   0.512   8.117 -0.1561  0.5875  0.1056
  403MOL0     C54295  11.863   0.545   8.055  0.9436  0.2774 -0.0865
  403MOL0     C54296  11.910   0.467   7.951  0.7147 -0.1112  0.0584
  403MOL0     C54297  12.037   0.479   7.897  0.3207 -0.4113  0.4602
  403MOL0     C54298  12.122   0.586   7.934  0.1499 -0.0092 -0.2404
  403MOL0     C54299  12.252   0.594   7.867 -0.9967  0.0395 -0.4199
  403MOL0     O54300  12.366   0.591   7.954  0.4662  0.0712  0.3822
  403MOL0     C54301  12.502   0.599   7.915  0.1592  0.1782  0.9140
  403MOL0     C54302  12.593   0.540   8.011  0.2050 -0.9363  0.1664
  403MOL0     C54303  12.730   0.558   7.988 -0.0632  0.9630  0.0177
  403MOL0     C54304  12.778   0.610   7.864  0.2929 -1.4520 -0.2854
  403MOL0     O54305  12.907   0.627   7.829  0.4215  0.2636 -1.0743
  403MOL0     C54306  13.014   0.601   7.930 -0.9529 -0.1562  1.0973
  403MOL0     C54307  13.154   0.579   7.870  0.9589  0.1139 -0.6150
  403MOL0     C54308  13.245   0.517   7.974 -0.3082  0.4332  0.3648
  403MOL0     C54309  13.391   0.540   7.926 -0.6185 -0.9766  0.6620
  403MOL0     C54310  13.506   0.442   7.972 -0.0936  0.0079  0.4469
  403MOL0     C54311  13.546   0.457   8.121 -0.0851  0.2934  0.0177
  403MOL0     C54312  13.597   0.321   8.180  0.1283 -0.6031  1.2168
  403MOL0     C54313  13.631   0.331   8.326  0.4777 -0.6636  0.0295
  403MOL0    Cl54314  13.749   0.213   8.359 -0.3709 -0.2284  0.2932
  403MOL0     C54315  12.687   0.652   7.768  0.7605  0.5408 -0.9524
  403MOL0     C54316  12.548   0.638   7.790 -0.3941 -1.0020 -0.3472
  403MOL0     O54317  12.254   0.587   7.747 -0.7014  0.0611 -0.1606
  403MOL0     C54318  12.069   0.681   8.029 -1.2939  0.0966  0.3478
  403MOL0     C54319  11.940   0.656   8.088  1.2581  0.2793 -0.3639
  403MOL0     N54320  11.249   0.715   8.161 -0.7045 -0.3012  1.3334
  403MOL0     N54321  11.144   0.753   8.212  0.7675 -0.1190  0.1573
  403MOL0     C54322  10.950   0.774   7.776 -0.3189 -0.7057  1.0284
  403MOL0     C54323  11.052   0.787   7.686 -0.2478  0.4609  0.5009
  403MOL0     C54324  11.278   0.738   7.260  0.7660  0.2791 -0.3593
  403MOL0     C54325  11.257   0.748   7.124 -0.3641  0.1416  0.1621
  403MOL0     C54326  11.361   0.796   7.032  0.5264  0.5003 -0.2395
  403MOL0     C54327  11.483   0.827   7.073 -0.0331 -0.0651 -0.7753
  403MOL0     O54328  11.573   0.847   6.967 -0.3936 -0.2498 -0.2444
  403MOL0     C54329  11.699   0.918   7.004  0.0256 -0.5367  0.1655
  403MOL0     C54330  11.688   1.064   6.972  0.7129  0.1994 -0.4881
  403MOL0     C54331  11.831   1.122   6.943 -0.0560 -0.3258 -0.7525
  403MOL0     C54332  11.808   1.276   6.916  0.2172 -0.0739 -0.0235
  403MOL0     C54333  11.929   1.335   6.868  0.0080 -0.3464  0.0222
  403MOL0     C54334  12.027   1.397   6.835  0.0174  0.1167 -0.1047
  403MOL0     C54335  11.511   0.807   7.210 -0.2823  0.2582 -0.1903
  403MOL0     C54336  11.407   0.776   7.304 -0.5560 -0.8669 -0.2292
  403MOL0     C54337  11.453   0.800   7.450 -0.4114  0.2712 -0.6119
  403MOL0     H54338  10.956   0.551   7.463  0.1989  0.4004 -0.5103
  403MOL0     H54339  10.772   0.534   7.630  0.1315 -0.3149 -1.9063
  403MOL0     H54340  10.610   0.594   7.750 -0.5253  0.6499  0.1388
  403MOL0     H54341  10.670   0.491   7.885  0.3322 -1.5438 -5.1923
  403MOL0     H54342  10.443   0.543   7.925  0.4376 -1.0459  1.3921
  403MOL0     H54343  10.474   0.714   7.895 -0.0834  1.2419  2.3967
  403MOL0     H54344  10.444   0.692   8.115  0.9119  1.2937  0.8770
  403MOL0     H54345  10.612   0.734   8.083  0.0509  0.5728  0.8378
  403MOL0     H54346  10.498   0.465   8.162  1.5944 -3.2097 -0.8376
  403MOL0     H54347  10.666   0.482   8.128  1.4641  0.6604  0.7856
  403MOL0     H54348  10.500   0.586   8.358 -0.1852 -0.8344 -1.1150
  403MOL0     H54349  10.646   0.503   8.384 -1.8757  0.3728  1.5184
  403MOL0     H54350  10.647   0.784   8.278  2.0679  0.3318 -1.2500
  403MOL0     H54351  10.685   0.743   8.435 -3.4053  2.7506 -1.1699
  403MOL0     H54352  10.847   0.559   8.257  1.7159  0.2610  0.2669
  403MOL0     H54353  10.901   0.682   8.374 -2.0318  0.7911  1.0175
  403MOL0     H54354  10.841   0.724   8.082  0.3316 -0.6259 -0.1036
  403MOL0     H54355  10.904   0.848   8.191 -0.8683  0.0165 -2.1722
  403MOL0     H54356  11.031   0.576   7.959  1.3735  0.2073 -1.6100
  403MOL0     H54357  11.312   0.452   8.002 -0.1071 -0.7203 -2.3203
  403MOL0     H54358  11.245   0.529   7.868 -1.3675 -1.4873  1.0415
  403MOL0     H54359  11.429   0.633   7.813 -0.4739 -0.2358 -0.6280
  403MOL0     H54360  11.445   0.714   7.967  2.6302 -1.0668  0.9884
  403MOL0     H54361  11.621   0.548   7.873  2.1824  0.5095  0.7678
  403MOL0     H54362  11.515   0.433   7.972 -0.7083 -0.0033 -3.1097
  403MOL0     H54363  11.569   0.616   8.174  0.6012  0.1121 -0.6849
  403MOL0     H54364  11.648   0.697   8.066 -1.1708 -0.0011  1.0917
  403MOL0     H54365  11.837   0.395   7.915  0.1339  0.1618  0.6812
  403MOL0     H54366  12.060   0.409   7.817  2.6173 -0.1852  0.8713
  403MOL0     H54367  12.551   0.502   8.103 -0.6596 -1.6223 -0.4878
  403MOL0     H54368  12.802   0.546   8.068 -0.4949  1.5786  0.5119
  403MOL0     H54369  13.023   0.691   7.992  3.7755  0.8455 -0.6194
  403MOL0     H54370  12.993   0.517   7.996  0.9694  0.2541  2.2881
  403MOL0     H54371  13.154   0.518   7.779  1.1808 -0.3324 -0.3197
  403MOL0     H54372  13.195   0.676   7.842 -1.3621  0.7630 -2.0803
  403MOL0     H54373  13.236   0.564   8.072 -0.4752 -1.9067  1.5309
  403MOL0     H54374  13.224   0.410   7.986 -1.0524  0.8782  4.0564
  403MOL0     H54375  13.431   0.636   7.960  3.4863 -1.6041 -1.6392
  403MOL0     H54376  13.392   0.532   7.817  0.1501 -0.5327  0.6298
  403MOL0     H54377  13.591   0.458   7.905 -0.1557  2.9188  0.9169
  403MOL0     H54378  13.458   0.347   7.948 -0.4275  0.7372 -2.0179
  403MOL0     H54379  13.618   0.536   8.145 -3.1586  3.1960  0.4109
  403MOL0     H54380  13.449   0.484   8.164 -0.5199  3.6459 -2.5837
  403MOL0     H54381  13.688   0.298   8.124 -0.6334 -0.9022  0.0532
  403MOL0     H54382  13.528   0.240   8.152  0.3947  0.5989 -4.1157
  403MOL0     H54383  13.678   0.423   8.363 -0.0849 -0.8360  1.2050
  403MOL0     H54384  13.539   0.312   8.382  0.9618 -4.3288 -0.1670
  403MOL0     H54385  12.719   0.670   7.665 -1.4497 -2.3202 -2.2896
  403MOL0     H54386  12.484   0.659   7.705 -2.4611 -1.1846  1.0922
  403MOL0     H54387  12.120   0.776   8.046  1.6305 -1.3061  0.0082
  403MOL0     H54388  11.908   0.727   8.163 -1.0223 -1.0844  0.0262
  403MOL0     H54389  10.947   0.851   7.852  0.5025  1.2633 -0.8446
  403MOL0     H54390  11.120   0.870   7.703 -2.0024  2.0988 -0.2111
  403MOL0     H54391  11.165   0.729   7.070  0.8936 -1.5999 -1.5432
  403MOL0     H54392  11.325   0.804   6.929  3.1843 -0.4499 -1.3108
  403MOL0     H54393  11.790   0.883   6.955  0.7108  1.2339  0.1052
  403MOL0     H54394  11.727   0.901   7.108 -0.3165 -0.9402  0.1970
  403MOL0     H54395  11.645   1.116   7.058  1.5328  0.4932 -0.2493
  403MOL0     H54396  11.623   1.073   6.885 -1.3133 -0.6431  0.8765
  403MOL0     H54397  11.877   1.066   6.860 -1.4732 -1.3746 -0.8812
  403MOL0     H54398  11.894   1.108   7.030  0.2243  0.5371 -0.8151
  403MOL0     H54399  11.724   1.298   6.849  0.0064  2.5997  0.9987
  403MOL0     H54400  11.773   1.315   7.012 -3.0240 -4.7176  1.0326
  403MOL0     H54401  12.112   1.449   6.795  0.7386 -1.0665 -0.1339
  403MOL0     H54402  11.615   0.817   7.238  0.2266 -0.5065 -1.6990
  403MOL0     H54403  11.400   0.732   7.518  1.6947 -0.1478  0.7386
  403MOL0     H54404  11.561   0.789   7.463 -0.2792  0.7363 -1.2884
  403MOL0     H54405  11.422   0.900   7.480  2.0546  0.8788  0.1396
  404MOL0     O54406   1.980   8.142   9.134  0.5596 -0.2703 -0.3155
  404MOL0     C54407   1.905   8.197   9.221  0.1863  1.1463  0.7367
  404MOL0     O54408   1.947   8.222   9.351  0.2079  0.1726 -0.2297
  404MOL0     C54409   2.077   8.187   9.373 -0.3693  0.4691 -0.2991
  404MOL0     C54410   2.192   8.255   9.331  0.0704 -0.5291  0.3071
  404MOL0     C54411   2.317   8.215   9.369 -0.1489  0.1277 -0.1516
  404MOL0     C54412   2.341   8.097   9.447  0.4355  0.3487  0.4685
  404MOL0     O54413   2.471   8.049   9.464  0.1682  0.4266  0.0023
  404MOL0     C54414   2.487   7.963   9.585 -0.3990 -0.3539  0.8018
  404MOL0     C54415   2.630   7.927   9.624 -0.5466  0.2285 -0.9273
  404MOL0     C54416   2.713   8.055   9.618  0.7624  0.2279 -0.3141
  404MOL0     C54417   2.836   8.031   9.718  0.5738 -0.9390  0.3610
  404MOL0     C54418   2.959   8.121   9.687 -0.2313 -0.5779 -0.1654
  404MOL0     C54419   3.078   8.100   9.785 -0.2741  0.0293  0.5464
  404MOL0     C54420   3.209   8.157   9.723  1.0428 -0.7467 -0.8290
  404MOL0     C54421   3.198   8.310   9.730  0.1102  0.2813  0.3387
  404MOL0     N54422   3.328   8.368   9.766  0.5271 -0.2306  0.2085
  404MOL0     C54423   3.428   8.376   9.679 -0.3530  0.6648  0.2826
  404MOL0     C54424   3.517   8.456   9.735  0.1359 -0.1037 -0.5795
  404MOL0     C54425   3.640   8.510   9.665  0.8966 -0.1297  0.7085
  404MOL0     C54426   3.772   8.531   9.740  0.5423  0.2770 -0.0031
  404MOL0     C54427   3.875   8.610   9.665 -0.7055  0.3947  0.0076
  404MOL0     C54428   4.003   8.623   9.739 -0.1272 -0.5214  0.1091
  404MOL0     O54429   4.095   8.653   9.638  0.7891 -0.0152 -0.3409
  404MOL0     C54430   4.226   8.680   9.668  0.2307  0.1412 -0.2404
  404MOL0     C54431   4.283   8.649   9.794 -0.2793 -0.2353  0.4713
  404MOL0     C54432   4.415   8.681   9.819 -0.2130  0.4172 -0.0595
  404MOL0     C54433   4.488   8.737   9.716  0.0797 -0.2302 -0.0430
  404MOL0     C54434   4.634   8.769   9.724 -0.4190  0.3286  0.1575
  404MOL0     O54435   4.680   8.841   9.622 -0.6087  0.5374 -0.0246
  404MOL0     C54436   4.811   8.854   9.590 -0.0163 -0.2110  0.2697
  404MOL0     C54437   4.917   8.773   9.636 -0.5683 -0.1974  0.0871
  404MOL0     C54438   5.051   8.806   9.612 -0.8670 -0.7912  0.6928
  404MOL0     C54439   5.075   8.928   9.549 -0.1690 -0.0791  0.0466
  404MOL0     O54440   5.206   8.972   9.526  0.1653 -0.0715 -0.2643
  404MOL0     C54441   5.275   8.908   9.421 -0.7500  1.0410  0.3663
  404MOL0     C54442   5.417   8.968   9.418  0.1491  0.1076  0.7468
  404MOL0     C54443   5.507   8.881   9.334 -0.5799 -0.1958 -0.5339
  404MOL0     C54444   5.634   8.852   9.402  0.7840  0.6393 -0.2312
  404MOL0     C54445   5.713   8.756   9.317  0.2485  0.2057 -0.2869
  404MOL0     C54446   5.861   8.741   9.354 -0.3704 -0.2288  0.4795
  404MOL0     C54447   5.924   8.625   9.273 -0.3218  0.0172 -0.3646
  404MOL0     C54448   6.078   8.631   9.289  1.4352  0.0960 -0.0900
  404MOL0    Cl54449   6.147   8.465   9.280 -0.3985 -0.1548  0.5947
  404MOL0     C54450   4.970   9.004   9.495  0.0456  0.1785  0.4250
  404MOL0     C54451   4.842   8.965   9.512  0.6524 -0.3906  0.5441
  404MOL0     O54452   4.698   8.725   9.817 -0.0056  0.1068 -0.1003
  404MOL0     C54453   4.423   8.769   9.596 -0.5622  0.3480  0.1871
  404MOL0     C54454   4.299   8.740   9.567 -0.2568  0.1550 -0.5803
  404MOL0     N54455   3.460   8.499   9.853  0.3388  0.5800  0.5569
  404MOL0     N54456   3.347   8.440   9.880  0.0902 -0.0761 -0.5189
  404MOL0     C54457   2.217   8.033   9.491  0.2400 -0.4733  0.2840
  404MOL0     C54458   2.094   8.077   9.456  0.4814 -0.0414  0.0161
  404MOL0     C54459   1.769   8.242   9.182 -0.0013  0.2820  0.2304
  404MOL0     C54460   1.710   8.172   9.075 -0.3598  0.1409  0.1126
  404MOL0     C54461   1.579   8.212   9.025 -0.6958 -0.4513 -0.7054
  404MOL0     C54462   1.510   8.321   9.088  0.8383  0.7194  0.2153
  404MOL0     O54463   1.391   8.359   9.030 -0.5458  0.3201 -0.4128
  404MOL0     C54464   1.323   8.478   9.071  0.9446 -1.3527  0.6351
  404MOL0     C54465   1.212   8.529   8.972 -0.5691  1.4372  1.1611
  404MOL0     C54466   1.092   8.430   8.954 -0.1388  0.2456 -0.6388
  404MOL0     C54467   1.015   8.416   9.084  0.1027  0.1289  0.7626
  404MOL0     C54468   0.902   8.325   9.062 -0.4555  0.1086 -0.6749
  404MOL0     C54469   0.800   8.254   9.056 -0.6794 -0.5221 -0.0498
  404MOL0     C54470   1.563   8.377   9.204 -0.1635  0.2747 -0.1800
  404MOL0     C54471   1.688   8.337   9.251 -0.5162  0.5221  0.7213
  404MOL0     C54472   1.746   8.420   9.357 -0.0417  0.2907 -0.4025
  404MOL0     H54473   2.180   8.334   9.257  1.5632  1.4309  2.0153
  404MOL0     H54474   2.399   8.269   9.323 -2.3157  1.6012 -2.5434
  404MOL0     H54475   2.437   8.013   9.668 -2.9036 -0.1546 -0.7161
  404MOL0     H54476   2.433   7.871   9.561 -2.0057  0.8319 -0.3889
  404MOL0     H54477   2.674   7.862   9.548  1.9031 -0.4891  0.9701
  404MOL0     H54478   2.628   7.883   9.724  2.1866  2.4779  0.2673
  404MOL0     H54479   2.651   8.143   9.635 -0.7716 -1.0478  1.1072
  404MOL0     H54480   2.740   8.072   9.513  1.6979 -0.7658 -0.2658
  404MOL0     H54481   2.803   8.079   9.810 -0.2394 -2.1373  0.7208
  404MOL0     H54482   2.860   7.925   9.727  1.5412 -1.0880 -2.6980
  404MOL0     H54483   2.990   8.097   9.585  0.1332 -2.0105  0.2625
  404MOL0     H54484   2.936   8.227   9.701  0.5063 -0.6221  1.6177
  404MOL0     H54485   3.067   8.138   9.887  0.3523 -0.0916  0.6616
  404MOL0     H54486   3.082   7.992   9.796 -0.0174  0.1913  2.4009
  404MOL0     H54487   3.241   8.113   9.629  1.1107 -0.0368 -1.1419
  404MOL0     H54488   3.290   8.121   9.788 -1.3112 -3.9305  0.6320
  404MOL0     H54489   3.165   8.356   9.636 -0.0112  1.5266  0.9602
  404MOL0     H54490   3.126   8.342   9.807 -0.4595 -3.4673  1.5777
  404MOL0     H54491   3.441   8.329   9.582 -1.0011  1.3823 -0.1689
  404MOL0     H54492   3.655   8.451   9.575 -2.6573  0.3798 -0.3602
  404MOL0     H54493   3.621   8.608   9.621  1.5817 -0.1087  0.4535
  404MOL0     H54494   3.753   8.588   9.831 -0.7082 -0.7881  0.4400
  404MOL0     H54495   3.802   8.430   9.770  0.3398  0.2845  0.2272
  404MOL0     H54496   3.831   8.709   9.651 -0.1738  0.5189 -0.9126
  404MOL0     H54497   3.894   8.560   9.569 -0.4412 -0.5880  0.5541
  404MOL0     H54498   4.025   8.530   9.791  0.0942 -0.1935  0.6035
  404MOL0     H54499   3.989   8.699   9.817  1.9389  1.4327 -1.2701
  404MOL0     H54500   4.231   8.594   9.872 -1.4508  1.6345  1.0699
  404MOL0     H54501   4.458   8.656   9.916 -0.2871  1.3891  0.2316
  404MOL0     H54502   4.886   8.682   9.687 -0.6506  0.1741  0.7180
  404MOL0     H54503   5.127   8.734   9.640 -1.9583 -2.1535  0.2357
  404MOL0     H54504   5.292   8.807   9.458 -0.2971  1.5282  1.5484
  404MOL0     H54505   5.216   8.907   9.329 -3.9100 -1.5647  2.1969
  404MOL0     H54506   5.421   9.066   9.368  2.3755 -0.5950 -0.5969
  404MOL0     H54507   5.442   8.986   9.523 -2.1886  1.0953  1.1988
  404MOL0     H54508   5.459   8.791   9.294 -4.1462  0.8974  0.8723
  404MOL0     H54509   5.529   8.932   9.240 -0.0995  0.8752  0.1411
  404MOL0     H54510   5.617   8.806   9.500  2.3718  0.5780  0.0531
  404MOL0     H54511   5.692   8.942   9.422 -0.3105  1.5750 -1.1746
  404MOL0     H54512   5.720   8.786   9.212  1.7784  1.0334  0.0246
  404MOL0     H54513   5.669   8.657   9.321  2.2411 -0.9347 -3.1875
  404MOL0     H54514   5.907   8.835   9.322  0.3101 -0.4213  0.8600
  404MOL0     H54515   5.879   8.740   9.462  0.4249  1.2333  0.3962
  404MOL0     H54516   5.902   8.635   9.166 -2.7467 -1.8990 -0.1216
  404MOL0     H54517   5.890   8.526   9.305 -0.6927  0.0546 -0.6420
  404MOL0     H54518   6.120   8.696   9.211  1.4702  0.2891  0.0921
  404MOL0     H54519   6.107   8.677   9.383  0.5713 -2.3815  1.4759
  404MOL0     H54520   4.990   9.104   9.455 -0.1454 -0.5806 -1.7229
  404MOL0     H54521   4.769   9.036   9.474  0.0278 -0.9100  0.7640
  404MOL0     H54522   4.479   8.808   9.512  2.2957 -2.4416  0.6229
  404MOL0     H54523   4.252   8.758   9.471 -1.3917  0.0473 -0.0689
  404MOL0     H54524   2.227   7.939   9.545  0.9153 -0.2423  0.5654
  404MOL0     H54525   2.010   8.024   9.499 -0.1755 -0.1005 -1.2882
  404MOL0     H54526   1.757   8.094   9.016 -1.1025  1.4911 -2.4455
  404MOL0     H54527   1.532   8.172   8.936 -2.0038  0.3501 -0.4075
  404MOL0     H54528   1.407   8.548   9.068  0.6773 -0.9999  1.1877
  404MOL0     H54529   1.287   8.463   9.173  1.6291 -1.2535  0.8990
  404MOL0     H54530   1.276   8.544   8.885  3.2748  0.0686  3.5072
  404MOL0     H54531   1.171   8.623   9.007 -0.2502  2.1522 -0.2986
  404MOL0     H54532   1.127   8.334   8.916  0.0479 -0.1335  0.4382
  404MOL0     H54533   1.028   8.475   8.877  1.3740 -1.1598 -2.8237
  404MOL0     H54534   1.072   8.373   9.167 -0.5217 -0.9346  0.6604
  404MOL0     H54535   0.976   8.510   9.123 -4.8391 -0.5846 -1.7280
  404MOL0     H54536   0.713   8.195   9.039 -0.0480 -1.4862  0.0013
  404MOL0     H54537   1.510   8.455   9.258 -2.5017  0.3346 -2.3842
  404MOL0     H54538   1.840   8.465   9.326  1.2925 -1.7769  0.3873
  404MOL0     H54539   1.680   8.497   9.399  2.4811  1.5370  1.5860
  404MOL0     H54540   1.763   8.353   9.443  2.0593  1.2623 -0.0141
  405MOL0     O54541   8.695   5.015   2.393  0.2563  0.6678 -0.6371
  405MOL0     C54542   8.685   5.033   2.514 -0.8421 -0.9403 -0.1466
  405MOL0     O54543   8.792   5.054   2.599  0.3435 -0.1272 -0.0259
  405MOL0     C54544   8.916   5.037   2.557 -0.4639  1.2072  0.3017
  405MOL0     C54545   8.999   5.144   2.562 -0.2200 -0.5550 -0.2617
  405MOL0     C54546   9.141   5.139   2.553 -0.2625 -0.0044  0.3006
  405MOL0     C54547   9.198   5.014   2.519 -0.5494  0.4775  0.3847
  405MOL0     O54548   9.335   4.994   2.502  0.4377 -0.1068 -0.5344
  405MOL0     C54549   9.417   5.113   2.487 -0.1053  0.3765  0.1888
  405MOL0     C54550   9.570   5.086   2.489  0.7669  1.1055  0.0424
  405MOL0     C54551   9.633   5.178   2.381 -0.0110 -0.6449 -0.6389
  405MOL0     C54552   9.772   5.124   2.370 -0.4894 -0.2218 -0.0363
  405MOL0     C54553   9.857   5.240   2.316 -0.7399 -0.8700 -0.1928
  405MOL0     C54554  10.003   5.206   2.290  0.8649  0.3477 -0.6148
  405MOL0     C54555  10.096   5.324   2.275  0.2803  0.3795 -0.4283
  405MOL0     C54556  10.076   5.395   2.137  0.6136 -0.0003  0.3813
  405MOL0     N54557  10.172   5.507   2.124 -0.4330  0.2576  0.6899
  405MOL0     C54558  10.217   5.543   1.996 -0.2427 -0.6411  0.0488
  405MOL0     C54559  10.270   5.669   2.025 -0.4784  0.4992  0.8220
  405MOL0     C54560  10.354   5.744   1.938 -0.2089  0.0314 -0.4235
  405MOL0     C54561  10.491   5.774   2.004  0.3460 -0.1104  0.8427
  405MOL0     C54562  10.576   5.651   2.053 -0.0593 -0.0700 -0.3246
  405MOL0     C54563  10.718   5.691   2.098  0.9899 -0.1564 -0.2972
  405MOL0     O54564  10.821   5.710   2.003 -0.3318 -0.3120 -0.1477
  405MOL0     C54565  10.938   5.779   2.025 -0.0498 -0.5197 -0.6696
  405MOL0     C54566  10.966   5.866   2.138  0.5350  0.1620  0.6171
  405MOL0     C54567  11.079   5.948   2.131 -0.7864 -0.6745 -0.6045
  405MOL0     C54568  11.170   5.950   2.021  0.2809 -0.0730  0.3070
  405MOL0     C54569  11.287   6.043   2.009  0.0870 -0.4023  0.6850
  405MOL0     O54570  11.341   6.093   2.116  0.2384 -0.3175 -0.3864
  405MOL0     C54571  11.457   6.170   2.109  0.7522 -0.1752  0.2150
  405MOL0     C54572  11.460   6.294   2.045  0.1913 -0.0055 -0.8357
  405MOL0     C54573  11.574   6.372   2.035 -0.9000  0.0920  0.2296
  405MOL0     C54574  11.693   6.329   2.093 -0.3588  0.0039  0.7026
  405MOL0     O54575  11.811   6.393   2.067 -0.6212 -0.0039  0.3812
  405MOL0     C54576  11.812   6.530   2.102 -1.2830 -0.8437  0.3943
  405MOL0     C54577  11.948   6.609   2.059  1.2993 -0.8470 -1.0190
  405MOL0     C54578  12.073   6.547   2.136 -0.8907 -0.0005 -0.0876
  405MOL0     C54579  12.207   6.631   2.112  0.5450  0.2870  0.4469
  405MOL0     C54580  12.283   6.648   2.248 -0.2498  0.6217 -0.5503
  405MOL0     C54581  12.397   6.745   2.219  0.4084  0.5401 -0.2239
  405MOL0     C54582  12.460   6.814   2.345 -0.3142  0.2360  0.5330
  405MOL0     C54583  12.531   6.712   2.437  0.1598  0.3717  0.8081
  405MOL0    Cl54584  12.600   6.783   2.582  0.5131 -0.1821  0.0413
  405MOL0     C54585  11.694   6.203   2.153  0.1046 -0.0420 -0.2336
  405MOL0     C54586  11.573   6.121   2.157 -0.4306  0.0795 -0.4624
  405MOL0     O54587  11.326   6.055   1.895  0.0327  0.0266  0.3305
  405MOL0     C54588  11.147   5.863   1.915  0.4603 -0.0672 -0.0069
  405MOL0     C54589  11.027   5.780   1.915 -0.3481 -0.0407 -0.4861
  405MOL0     N54590  10.247   5.702   2.156 -0.0540 -0.4976 -0.3713
  405MOL0     N54591  10.188   5.608   2.212 -0.1323  0.4677  0.0942
  405MOL0     C54592   9.111   4.904   2.508 -0.1511  0.0118  0.4147
  405MOL0     C54593   8.973   4.912   2.528 -0.5317  0.7416  0.2429
  405MOL0     C54594   8.545   5.045   2.578 -0.0045  0.2993  0.5424
  405MOL0     C54595   8.535   5.121   2.691  0.9905 -0.3095  0.3020
  405MOL0     C54596   8.407   5.148   2.748 -0.1489 -0.3305 -1.0350
  405MOL0     C54597   8.288   5.101   2.688  0.0019  0.6843  0.3327
  405MOL0     O54598   8.164   5.131   2.739 -0.6329  0.3626  0.0084
  405MOL0     C54599   8.152   5.231   2.847  0.1888  0.3910 -0.0936
  405MOL0     C54600   8.006   5.240   2.885  0.2952 -0.2800  1.1420
  405MOL0     C54601   7.947   5.355   2.799 -0.2515  0.1230 -1.0133
  405MOL0     C54602   7.975   5.490   2.875  0.7094  0.1211 -0.2870
  405MOL0     C54603   7.874   5.519   2.982  0.3791 -0.1615 -0.6139
  405MOL0     C54604   7.785   5.557   3.053  0.2036 -0.0506 -0.0103
  405MOL0     C54605   8.301   5.025   2.570 -0.0566 -0.1299 -0.6907
  405MOL0     C54606   8.421   4.994   2.511 -1.0090  0.0511  0.2510
  405MOL0     C54607   8.427   4.910   2.378  1.1359  0.3197 -0.2628
  405MOL0     H54608   8.953   5.239   2.591  1.9375  0.8180 -1.0827
  405MOL0     H54609   9.181   5.239   2.561 -1.0736  0.7575 -3.3824
  405MOL0     H54610   9.396   5.155   2.388  1.8939 -1.9751 -1.3508
  405MOL0     H54611   9.406   5.193   2.561  1.5967 -1.0430  2.0755
  405MOL0     H54612   9.580   4.980   2.464  1.0343  1.6929 -2.7606
  405MOL0     H54613   9.595   5.102   2.594 -0.5068  1.1222  0.3584
  405MOL0     H54614   9.634   5.285   2.405 -0.3861 -0.1887 -2.5176
  405MOL0     H54615   9.592   5.157   2.282  2.7479 -1.8452 -1.6146
  405MOL0     H54616   9.813   5.098   2.469  0.4337 -3.3513 -1.1403
  405MOL0     H54617   9.775   5.030   2.315 -0.1972 -1.5779  2.1677
  405MOL0     H54618   9.816   5.271   2.220 -3.5119 -0.4933  1.0189
  405MOL0     H54619   9.850   5.323   2.387  3.1630  0.2226 -0.8639
  405MOL0     H54620  10.034   5.140   2.372  0.7266  2.3231  1.1113
  405MOL0     H54621  10.004   5.155   2.193 -0.1555 -0.9025 -0.0074
  405MOL0     H54622  10.197   5.283   2.283 -0.4023 -1.0933  1.8698
  405MOL0     H54623  10.082   5.396   2.356  1.9628 -0.8292  1.0443
  405MOL0     H54624  10.093   5.324   2.056 -1.2387 -0.7411  0.5821
  405MOL0     H54625   9.969   5.414   2.123  0.1033 -3.1316 -0.7427
  405MOL0     H54626  10.220   5.484   1.905  2.6094 -0.4405 -0.0799
  405MOL0     H54627  10.364   5.691   1.843 -0.5054  0.8386 -0.9066
  405MOL0     H54628  10.307   5.840   1.916 -0.3237  0.5628  1.8848
  405MOL0     H54629  10.551   5.832   1.933  1.4976 -0.1534  1.7604
  405MOL0     H54630  10.475   5.841   2.088 -3.9867 -0.0079  0.1662
  405MOL0     H54631  10.588   5.580   1.971  1.1064 -0.5252  0.2069
  405MOL0     H54632  10.524   5.599   2.134 -1.6372  0.4015 -1.0107
  405MOL0     H54633  10.752   5.602   2.153 -3.3033 -2.1201 -0.4292
  405MOL0     H54634  10.710   5.779   2.163 -3.6786 -0.0056 -0.7801
  405MOL0     H54635  10.892   5.872   2.217 -2.3781  0.1598 -1.9669
  405MOL0     H54636  11.097   6.010   2.218  2.0242  3.2438 -3.6594
  405MOL0     H54637  11.368   6.332   2.001 -0.9949  0.3355  1.7281
  405MOL0     H54638  11.572   6.466   1.980 -2.1857  0.2832  0.5612
  405MOL0     H54639  11.732   6.587   2.054 -1.0342 -2.3131 -1.8979
  405MOL0     H54640  11.793   6.546   2.209  0.1634  2.9772  0.2248
  405MOL0     H54641  11.961   6.585   1.953  2.4441 -1.0276 -0.8520
  405MOL0     H54642  11.929   6.717   2.068  2.1116 -0.6718 -1.3366
  405MOL0     H54643  12.059   6.549   2.244  0.2429 -3.5209  0.2355
  405MOL0     H54644  12.089   6.441   2.117  0.2478 -0.1628  1.5497
  405MOL0     H54645  12.179   6.729   2.072 -0.6357 -0.3750 -0.3900
  405MOL0     H54646  12.271   6.586   2.035 -1.6383 -0.3384 -1.0732
  405MOL0     H54647  12.322   6.554   2.289  0.1125  0.7350 -0.6351
  405MOL0     H54648  12.217   6.684   2.327  0.0483 -0.5873  0.2771
  405MOL0     H54649  12.479   6.689   2.173 -0.4363  0.1330 -1.2980
  405MOL0     H54650  12.370   6.823   2.147 -0.5224  0.8884  0.4890
  405MOL0     H54651  12.378   6.856   2.403 -0.2642 -0.6826  1.3031
  405MOL0     H54652  12.527   6.897   2.321 -0.8115  0.0916 -1.6048
  405MOL0     H54653  12.464   6.628   2.451 -2.0270  1.9632  0.3307
  405MOL0     H54654  12.617   6.670   2.383 -0.7494 -0.4842 -0.0027
  405MOL0     H54655  11.790   6.165   2.185 -0.3589 -2.2954 -1.3164
  405MOL0     H54656  11.564   6.031   2.217 -1.9525 -0.6024 -1.6479
  405MOL0     H54657  11.215   5.849   1.831  0.3761  0.5481 -0.1799
  405MOL0     H54658  11.024   5.722   1.824  2.2981 -1.2654  0.1060
  405MOL0     H54659   9.150   4.806   2.483 -0.0722  1.2652 -6.1740
  405MOL0     H54660   8.904   4.832   2.504  0.0044  1.3088 -4.1053
  405MOL0     H54661   8.618   5.179   2.728 -0.4326  2.0405  0.0014
  405MOL0     H54662   8.400   5.206   2.840 -0.6336 -1.9693  0.0202
  405MOL0     H54663   8.184   5.331   2.815 -0.4351  1.2482  1.8595
  405MOL0     H54664   8.208   5.186   2.929  0.6996 -0.9578 -1.1323
  405MOL0     H54665   7.995   5.244   2.993 -2.7189  0.7485  0.8762
  405MOL0     H54666   7.964   5.143   2.859  2.9277 -1.5134  1.1170
  405MOL0     H54667   7.838   5.357   2.793 -0.2895  1.4212 -0.2729
  405MOL0     H54668   7.979   5.358   2.695 -0.6168  0.7799 -1.1071
  405MOL0     H54669   8.078   5.497   2.911  1.5453  0.8274 -2.6709
  405MOL0     H54670   7.961   5.565   2.797 -0.5232 -2.4008 -2.6620
  405MOL0     H54671   7.691   5.563   3.105 -0.6388 -0.5560 -1.4322
  405MOL0     H54672   8.211   4.990   2.520 -2.6015  0.3562  3.1100
  405MOL0     H54673   8.432   4.991   2.304 -4.4027  2.5212  1.2839
  405MOL0     H54674   8.506   4.834   2.373  0.3586 -0.6851  1.6869
  405MOL0     H54675   8.332   4.856   2.376  1.4461 -0.5652  2.9061
  406MOL0     O54676  11.026   3.689  10.011  0.3857  0.2270 -0.1243
  406MOL0     C54677  11.106   3.621   9.954 -0.2479 -0.1741  0.6295
  406MOL0     O54678  11.078   3.547   9.841 -0.1918 -0.7548  0.6318
  406MOL0     C54679  10.944   3.517   9.806 -0.1619  0.5416  1.3896
  406MOL0     C54680  10.849   3.480   9.902 -0.0898 -0.4809  0.1128
  406MOL0     C54681  10.720   3.472   9.865 -0.0868 -0.2509 -0.3941
  406MOL0     C54682  10.674   3.498   9.737  0.3083  0.1214 -0.0943
  406MOL0     O54683  10.538   3.502   9.703  0.3358 -0.2010  0.3987
  406MOL0     C54684  10.454   3.403   9.738  0.1867  0.2438 -0.4122
  406MOL0     C54685  10.479   3.276   9.653 -0.4971 -0.5646  0.1395
  406MOL0     C54686  10.456   3.305   9.502 -0.5762  0.1202 -0.4006
  406MOL0     C54687  10.514   3.180   9.422 -0.0487  0.3877  0.2173
  406MOL0     C54688  10.513   3.187   9.271 -0.8787 -0.5135  0.2621
  406MOL0     C54689  10.572   3.055   9.216 -0.2406  0.3726 -0.8504
  406MOL0     C54690  10.599   3.066   9.066 -0.5390  0.8001 -1.0853
  406MOL0     C54691  10.618   2.935   8.997 -0.6983  0.9224  0.0036
  406MOL0     N54692  10.745   2.872   9.045  0.5961  0.2066 -1.1384
  406MOL0     C54693  10.863   2.934   9.042 -0.4543  0.4025  0.3514
  406MOL0     C54694  10.956   2.840   9.079  0.1848 -0.1400 -0.9936
  406MOL0     C54695  11.100   2.869   9.091  0.5847 -0.7353  0.2261
  406MOL0     C54696  11.172   2.901   8.958  0.3965 -0.1371 -0.5077
  406MOL0     C54697  11.325   2.911   8.961  0.1371  0.4169 -0.2772
  406MOL0     C54698  11.383   2.945   8.819  0.0825 -0.4199 -0.0612
  406MOL0     O54699  11.354   3.084   8.779  0.1111 -0.5659  0.3206
  406MOL0     C54700  11.456   3.178   8.765 -0.1544 -0.5522  0.4179
  406MOL0     C54701  11.397   3.302   8.751  0.0687  0.2947  0.7604
  406MOL0     C54702  11.476   3.418   8.734  0.3247  0.0605  0.3121
  406MOL0     C54703  11.617   3.407   8.716  0.2601 -0.3213 -0.3666
  406MOL0     C54704  11.705   3.522   8.689 -0.3999  0.0804 -0.0795
  406MOL0     O54705  11.837   3.507   8.677 -0.4344 -0.0639 -0.1046
  406MOL0     C54706  11.914   3.610   8.631 -0.2340  0.5269 -0.6906
  406MOL0     C54707  12.047   3.610   8.668  0.0651  1.2688 -0.5940
  406MOL0     C54708  12.134   3.707   8.630 -0.4717 -0.6595  1.1216
  406MOL0     C54709  12.083   3.821   8.565 -0.8842  0.1681  0.1150
  406MOL0     O54710  12.168   3.922   8.534 -1.2030  0.1103  0.4254
  406MOL0     C54711  12.137   4.051   8.580  0.4946 -0.4954 -0.2063
  406MOL0     C54712  12.221   4.090   8.694 -0.1735 -0.3041 -0.2096
  406MOL0     C54713  12.365   4.088   8.655 -0.4472  0.8935 -0.0857
  406MOL0     C54714  12.465   4.092   8.773  0.4629  0.5824 -0.6220
  406MOL0     C54715  12.610   4.093   8.731  0.1548  0.3339 -0.2005
  406MOL0     C54716  12.693   4.136   8.854  0.5502 -0.4597 -0.0343
  406MOL0     C54717  12.837   4.145   8.811 -1.6648 -0.1518  0.0319
  406MOL0     C54718  12.910   4.027   8.864  0.0881 -0.5955 -0.3738
  406MOL0    Cl54719  12.894   3.883   8.771 -0.0685  0.1567  0.7015
  406MOL0     C54720  11.950   3.829   8.521 -0.6489  0.0340  0.6801
  406MOL0     C54721  11.878   3.715   8.553  0.7130 -0.2542 -0.1835
  406MOL0     O54722  11.643   3.629   8.704  0.9441 -0.0315  0.4768
  406MOL0     C54723  11.671   3.273   8.729 -0.5936  0.3173 -0.3642
  406MOL0     C54724  11.596   3.158   8.756 -0.1970 -0.1104  0.0449
  406MOL0     N54725  10.895   2.721   9.107  0.0861 -0.6864  0.1738
  406MOL0     N54726  10.767   2.750   9.083  0.2654 -0.0698  0.2238
  406MOL0     C54727  10.763   3.536   9.639 -0.0138 -0.3440  0.3637
  406MOL0     C54728  10.899   3.545   9.675  0.3770 -0.3794 -0.0758
  406MOL0     C54729  11.245   3.632   9.999 -0.2268  0.2543  0.0591
  406MOL0     C54730  11.269   3.702  10.123 -0.4750  0.9986  0.0886
  406MOL0     C54731  11.395   3.701  10.177 -0.0693 -0.4916 -0.7066
  406MOL0     C54732  11.506   3.648  10.116 -0.2326  0.1911  0.2032
  406MOL0     O54733  11.641   3.648  10.156  0.4050  0.5888 -0.3230
  406MOL0     C54734  11.666   3.675  10.291 -0.3316  0.3836  0.0942
  406MOL0     C54735  11.802   3.615  10.327 -0.2285 -0.3208 -0.6693
  406MOL0     C54736  11.905   3.689  10.240 -0.0077  0.3326 -0.3681
  406MOL0     C54737  12.049   3.643  10.266 -0.0007  0.6920  0.0997
  406MOL0     C54738  12.098   3.670  10.399 -0.6545  0.4309 -0.2489
  406MOL0     C54739  12.153   3.695  10.507  0.0642 -0.5510  0.9367
  406MOL0     C54740  11.489   3.588   9.996  0.1911 -0.4253  0.2204
  406MOL0     C54741  11.364   3.580   9.933  0.8949 -0.0697  0.5333
  406MOL0     C54742  11.357   3.522   9.791 -0.5640 -0.5893 -0.3922
  406MOL0     H54743  10.868   3.454  10.005 -1.4064  0.7747  0.7155
  406MOL0     H54744  10.645   3.448   9.940 -0.3517 -0.9262 -0.8619
  406MOL0     H54745  10.451   3.390   9.847  0.2244  3.0284 -0.0031
  406MOL0     H54746  10.350   3.430   9.719 -0.9179 -1.3056  2.7052
  406MOL0     H54747  10.415   3.194   9.686 -1.0379 -1.1606 -2.2421
  406MOL0     H54748  10.582   3.252   9.681 -1.0774  0.9896  4.2886
  406MOL0     H54749  10.518   3.393   9.480  0.5552 -0.5209  0.1541
  406MOL0     H54750  10.355   3.342   9.482  0.3965  1.5245 -3.3020
  406MOL0     H54751  10.621   3.164   9.438 -0.1919 -0.7911  0.1162
  406MOL0     H54752  10.458   3.086   9.435 -0.1980  0.5031  0.4169
  406MOL0     H54753  10.413   3.196   9.229 -1.8900 -1.0922  2.4270
  406MOL0     H54754  10.578   3.268   9.236 -0.9155 -0.6095 -0.0261
  406MOL0     H54755  10.663   3.024   9.268 -2.4230 -0.9789  2.5172
  406MOL0     H54756  10.487   2.989   9.234 -0.4908  1.6680  4.6604
  406MOL0     H54757  10.691   3.121   9.042  1.4006 -2.4547 -1.6411
  406MOL0     H54758  10.506   3.114   9.033 -2.2516  0.2940  2.5190
  406MOL0     H54759  10.532   2.868   9.002  0.1872 -0.1766  1.2716
  406MOL0     H54760  10.637   2.937   8.890  0.1861 -2.7470 -0.0426
  406MOL0     H54761  10.886   3.034   9.008 -1.1814  0.5289  0.2373
  406MOL0     H54762  11.119   2.956   9.156 -0.9917 -1.2486  1.4424
  406MOL0     H54763  11.157   2.786   9.135  0.2130 -1.3166 -0.3876
  406MOL0     H54764  11.153   2.815   8.892 -0.1385 -1.7547  1.6350
  406MOL0     H54765  11.116   2.985   8.916 -2.2839 -0.9031  1.2977
  406MOL0     H54766  11.381   2.828   9.006  2.3957  1.1313 -1.6093
  406MOL0     H54767  11.346   2.996   9.026 -0.3720  2.6350 -2.8254
  406MOL0     H54768  11.332   2.879   8.747 -0.9994  0.2171  0.0929
  406MOL0     H54769  11.489   2.921   8.813  0.0925 -0.1979 -1.0345
  406MOL0     H54770  11.289   3.309   8.759 -0.0184 -0.3793  0.2745
  406MOL0     H54771  11.428   3.515   8.724 -1.2717 -0.6634  0.6270
  406MOL0     H54772  12.088   3.526   8.724  0.8622  2.1218  0.1433
  406MOL0     H54773  12.240   3.714   8.653 -0.5165  3.2431  0.7986
  406MOL0     H54774  12.162   4.118   8.498 -0.5507 -0.1052 -0.2255
  406MOL0     H54775  12.030   4.065   8.598  0.6539  1.7925 -0.6710
  406MOL0     H54776  12.182   4.186   8.731  1.6935  1.1483 -1.7644
  406MOL0     H54777  12.207   4.023   8.779 -3.8643 -0.3910 -0.6983
  406MOL0     H54778  12.393   3.993   8.609  0.6246  2.3799 -2.7348
  406MOL0     H54779  12.400   4.166   8.587 -1.3474  1.1041 -0.3163
  406MOL0     H54780  12.437   4.006   8.834  0.1350  0.4188 -0.9979
  406MOL0     H54781  12.441   4.175   8.840  1.4273 -0.6153  1.2799
  406MOL0     H54782  12.627   4.169   8.653 -1.1653  0.9740  0.1052
  406MOL0     H54783  12.634   3.995   8.690 -1.9305  0.6323 -2.4023
  406MOL0     H54784  12.644   4.226   8.893  0.5092 -1.1818  1.6914
  406MOL0     H54785  12.676   4.063   8.934 -3.1107 -0.3476 -0.5421
  406MOL0     H54786  12.883   4.230   8.863 -0.5866 -1.4814  1.3436
  406MOL0     H54787  12.837   4.159   8.703  1.6953 -0.0809 -0.0679
  406MOL0     H54788  13.012   4.062   8.881  0.4927 -1.6874 -0.4532
  406MOL0     H54789  12.882   4.009   8.968  4.8924  4.3216  2.2542
  406MOL0     H54790  11.926   3.915   8.458  0.8532 -0.5289 -0.7311
  406MOL0     H54791  11.777   3.717   8.514  0.3445 -1.8622  0.6136
  406MOL0     H54792  11.779   3.269   8.733 -0.6415  0.0680  1.6695
  406MOL0     H54793  11.625   3.054   8.756 -0.8970 -0.3160  0.5812
  406MOL0     H54794  10.736   3.571   9.540  0.4088  0.1350  0.4149
  406MOL0     H54795  10.962   3.596   9.604  0.5299  0.8157  0.8779
  406MOL0     H54796  11.193   3.737  10.192  0.2620 -0.9725  1.9998
  406MOL0     H54797  11.412   3.764  10.263  0.0581 -1.6844  0.1559
  406MOL0     H54798  11.590   3.638  10.361 -0.1993  2.7387  1.5915
  406MOL0     H54799  11.667   3.784  10.292 -3.2868  0.5742 -2.3465
  406MOL0     H54800  11.807   3.509  10.304 -0.0903 -0.7369  1.1074
  406MOL0     H54801  11.827   3.633  10.432 -3.2097  1.1212 -0.0957
  406MOL0     H54802  11.893   3.797  10.254 -1.0199 -0.0464  2.1948
  406MOL0     H54803  11.874   3.658  10.140  0.7382 -0.4101 -0.3730
  406MOL0     H54804  12.048   3.534  10.249  0.5950  0.5024  1.1671
  406MOL0     H54805  12.116   3.692  10.195  0.9963 -0.3248  0.3002
  406MOL0     H54806  12.198   3.712  10.603 -1.9267 -1.2672  2.0593
  406MOL0     H54807  11.581   3.559   9.946  0.0160  1.0644 -1.0575
  406MOL0     H54808  11.454   3.542   9.745  0.2828 -0.8737  1.2042
  406MOL0     H54809  11.329   3.417   9.781  1.0912 -0.9495 -1.7920
  406MOL0     H54810  11.283   3.576   9.731  0.5227  1.3488 -0.0874
  407MOL0     O54811   4.903   2.314   8.150  0.4841 -0.3325  0.1311
  407MOL0     C54812   4.854   2.265   8.050 -0.4904  0.2445 -0.5626
  407MOL0     O54813   4.915   2.196   7.959 -1.0904  0.0900 -0.1334
  407MOL0     C54814   5.052   2.190   7.965 -0.6657  0.3538  0.4243
  407MOL0     C54815   5.125   2.296   7.916 -0.1162 -0.1971  0.1413
  407MOL0     C54816   5.266   2.286   7.919 -0.0777 -0.0947  0.3107
  407MOL0     C54817   5.334   2.177   7.967 -1.1446 -0.1511 -0.2426
  407MOL0     O54818   5.468   2.188   7.962 -0.4316 -0.2356 -0.0154
  407MOL0     C54819   5.543   2.071   7.923 -0.0641  0.4339  0.1990
  407MOL0     C54820   5.677   2.114   7.860  0.3189 -0.2696  0.0955
  407MOL0     C54821   5.763   1.996   7.807 -0.1531 -0.9467  0.1658
  407MOL0     C54822   5.703   1.939   7.679  0.6035 -0.0634  0.5771
  407MOL0     C54823   5.817   1.881   7.596 -0.0023 -0.2372 -0.9726
  407MOL0     C54824   5.750   1.831   7.460 -0.3782 -0.3870  0.3696
  407MOL0     C54825   5.860   1.755   7.383 -0.0097  1.0558 -0.2165
  407MOL0     C54826   5.875   1.618   7.452  0.5632 -0.4340  0.5705
  407MOL0     N54827   6.009   1.558   7.424  0.6416 -0.1829 -0.0056
  407MOL0     C54828   6.023   1.474   7.328  1.1150  0.0189  0.6633
  407MOL0     C54829   6.150   1.436   7.327 -0.2168 -0.1449 -0.0391
  407MOL0     C54830   6.212   1.339   7.238 -0.8536 -0.2430  0.2113
  407MOL0     C54831   6.347   1.386   7.175 -0.8418 -0.0344 -0.6365
  407MOL0     C54832   6.471   1.358   7.264  0.3077  0.2082 -0.8386
  407MOL0     C54833   6.596   1.345   7.180  0.2058  0.2384  0.0748
  407MOL0     O54834   6.611   1.216   7.119  0.3542  0.4648  0.3352
  407MOL0     C54835   6.736   1.187   7.079 -0.3015 -0.1617  0.8743
  407MOL0     C54836   6.841   1.279   7.064  0.4809  0.1498 -0.0283
  407MOL0     C54837   6.966   1.242   7.002  0.3576 -0.0981 -0.2614
  407MOL0     C54838   6.987   1.116   6.955 -0.3430 -0.4355  0.0835
  407MOL0     C54839   7.107   1.073   6.884  0.4767  1.0141 -0.4616
  407MOL0     O54840   7.209   1.162   6.859 -0.8669  1.0317  0.3236
  407MOL0     C54841   7.335   1.123   6.814 -0.6833 -0.5201 -0.5527
  407MOL0     C54842   7.366   1.005   6.747 -0.2756 -0.9159  0.5339
  407MOL0     C54843   7.493   0.973   6.710 -0.3424 -0.3193 -0.1463
  407MOL0     C54844   7.595   1.066   6.743 -0.2430 -1.3507 -0.0771
  407MOL0     O54845   7.723   1.029   6.711  0.0876  0.2172 -0.2481
  407MOL0     C54846   7.826   1.029   6.814  0.7260 -0.0702  0.0905
  407MOL0     C54847   7.913   1.153   6.773 -0.6548  0.2238 -0.0444
  407MOL0     C54848   8.016   1.178   6.884 -1.1652  0.2768 -0.2314
  407MOL0     C54849   7.960   1.262   7.008  0.3060  0.4708 -0.5523
  407MOL0     C54850   8.084   1.338   7.073  0.7751  0.0693  0.5975
  407MOL0     C54851   8.091   1.351   7.231  0.8304 -0.7691 -0.4081
  407MOL0     C54852   8.216   1.430   7.257 -0.5319 -0.0492  0.8642
  407MOL0     C54853   8.272   1.420   7.397  0.1267 -0.4180  0.2584
  407MOL0    Cl54854   8.399   1.548   7.412  0.3710 -0.1723 -0.4241
  407MOL0     C54855   7.566   1.189   6.800 -0.0275  0.7662  0.0549
  407MOL0     C54856   7.433   1.213   6.836 -0.3039 -0.6633  0.0116
  407MOL0     O54857   7.120   0.952   6.879  0.3467  0.5387 -0.3734
  407MOL0     C54858   6.880   1.025   6.977  0.2099  0.1357 -0.0607
  407MOL0     C54859   6.759   1.062   7.038 -0.0299 -0.7646 -0.3362
  407MOL0     N54860   6.207   1.498   7.437 -0.3846  0.3219 -0.5371
  407MOL0     N54861   6.122   1.577   7.496 -0.0121 -0.4131 -0.7148
  407MOL0     C54862   5.260   2.071   8.016  0.9940  0.2037 -0.3651
  407MOL0     C54863   5.117   2.077   8.016  0.1209  0.2400  0.6759
  407MOL0     C54864   4.708   2.291   8.035  0.1342  0.1819  0.2984
  407MOL0     C54865   4.663   2.310   7.903  0.2780 -0.2403  0.2057
  407MOL0     C54866   4.524   2.332   7.873 -0.1671  1.0397  0.8702
  407MOL0     C54867   4.432   2.335   7.976 -0.1334 -0.3950 -0.2112
  407MOL0     O54868   4.293   2.362   7.963 -0.3107 -0.5291 -0.4403
  407MOL0     C54869   4.232   2.314   7.840  1.3617 -0.7990 -0.2749
  407MOL0     C54870   4.081   2.312   7.848  0.2801  0.9743  0.5572
  407MOL0     C54871   4.020   2.439   7.905  0.1569 -0.5573 -0.1778
  407MOL0     C54872   3.876   2.460   7.889 -0.7086 -0.0748 -0.8455
  407MOL0     C54873   3.830   2.481   7.757  0.5944 -1.2492  0.4119
  407MOL0     C54874   3.791   2.482   7.641  0.3090 -0.3618 -0.0363
  407MOL0     C54875   4.478   2.306   8.107 -0.2208  0.5702  1.0639
  407MOL0     C54876   4.611   2.289   8.140  0.1536  0.0574 -0.3790
  407MOL0     C54877   4.635   2.246   8.277 -1.1087 -0.0634 -0.1488
  407MOL0     H54878   5.072   2.385   7.886 -0.2857  0.0440  1.1014
  407MOL0     H54879   5.325   2.366   7.875 -0.7677 -1.1112 -2.6533
  407MOL0     H54880   5.552   2.009   8.013 -2.0846 -2.3796 -1.3958
  407MOL0     H54881   5.490   2.006   7.853  0.8316 -1.2286  1.0027
  407MOL0     H54882   5.731   2.172   7.936 -2.9210  2.6734  0.3882
  407MOL0     H54883   5.660   2.188   7.781  0.7415 -0.4186 -0.1361
  407MOL0     H54884   5.770   1.920   7.885  0.1237 -1.8565 -0.7286
  407MOL0     H54885   5.863   2.032   7.781 -0.3354  0.1798  0.9384
  407MOL0     H54886   5.629   1.863   7.704  2.1830 -1.6328  0.6604
  407MOL0     H54887   5.656   2.025   7.631 -0.9082 -0.8805  0.5252
  407MOL0     H54888   5.898   1.953   7.582  0.4687 -0.8253 -1.2897
  407MOL0     H54889   5.862   1.797   7.650 -0.1694 -0.5587 -1.3243
  407MOL0     H54890   5.659   1.770   7.466 -1.8158  1.6058 -0.0689
  407MOL0     H54891   5.730   1.929   7.415 -0.0534  0.2555  1.5667
  407MOL0     H54892   5.952   1.813   7.381 -0.0387  1.0931 -2.1365
  407MOL0     H54893   5.832   1.742   7.278  1.4283  0.8784 -0.5927
  407MOL0     H54894   5.869   1.622   7.561  0.2276 -2.5375  0.6699
  407MOL0     H54895   5.791   1.562   7.411 -0.4821  1.4331  0.0518
  407MOL0     H54896   5.945   1.445   7.259  0.9435  0.4343  0.6834
  407MOL0     H54897   6.229   1.242   7.284  0.4413 -1.2148 -2.1415
  407MOL0     H54898   6.160   1.326   7.143  0.6897  0.3664 -0.7574
  407MOL0     H54899   6.375   1.338   7.080  1.8799 -3.4118  1.6193
  407MOL0     H54900   6.339   1.491   7.148  3.4597  0.6736  0.1712
  407MOL0     H54901   6.456   1.266   7.321 -0.0212 -1.1877 -3.0592
  407MOL0     H54902   6.472   1.440   7.337 -1.7926  0.5625 -1.1610
  407MOL0     H54903   6.683   1.363   7.244 -0.2047 -2.3616  1.5247
  407MOL0     H54904   6.593   1.421   7.102 -0.2037 -0.7903 -0.9409
  407MOL0     H54905   6.844   1.383   7.096 -0.8117 -0.5075  2.4712
  407MOL0     H54906   7.040   1.316   6.976  0.2151 -0.1407 -0.8084
  407MOL0     H54907   7.287   0.940   6.709 -0.4263 -0.5691  0.2411
  407MOL0     H54908   7.505   0.879   6.659 -0.3969  0.6106 -1.9603
  407MOL0     H54909   7.787   1.041   6.916  2.3870  2.0818  0.5436
  407MOL0     H54910   7.881   0.935   6.817 -1.6832 -1.5670  0.7614
  407MOL0     H54911   7.971   1.133   6.683  1.0032 -0.4384  1.1229
  407MOL0     H54912   7.856   1.247   6.764 -0.0839  0.7180  1.2397
  407MOL0     H54913   8.056   1.083   6.919  0.0715  0.4390 -1.1213
  407MOL0     H54914   8.104   1.226   6.839 -1.5765  0.5226 -0.7876
  407MOL0     H54915   7.923   1.185   7.077  0.9840  0.3162 -0.3582
  407MOL0     H54916   7.888   1.340   6.980  1.3871  1.2038 -1.3509
  407MOL0     H54917   8.091   1.438   7.028  2.5868 -0.3464 -0.1457
  407MOL0     H54918   8.172   1.282   7.039  0.4195 -0.0212 -0.2049
  407MOL0     H54919   8.000   1.405   7.257  0.2340 -0.7412 -2.3873
  407MOL0     H54920   8.088   1.249   7.271  0.7554 -0.9356 -0.8314
  407MOL0     H54921   8.199   1.535   7.230  0.0075 -0.3163 -0.5867
  407MOL0     H54922   8.299   1.401   7.192 -0.3268  1.6615  0.2850
  407MOL0     H54923   8.192   1.443   7.467 -0.2043  1.3146 -0.6309
  407MOL0     H54924   8.319   1.323   7.414 -0.0645 -0.4893  0.3781
  407MOL0     H54925   7.644   1.258   6.832  2.6442 -2.0563  0.1749
  407MOL0     H54926   7.398   1.305   6.882 -1.0121 -0.2190 -1.3479
  407MOL0     H54927   6.892   0.923   6.940 -1.1993 -0.1722  0.2802
  407MOL0     H54928   6.674   0.995   7.044 -0.2532 -0.8322 -2.9627
  407MOL0     H54929   5.310   1.979   8.045 -1.1452 -0.8524  0.1859
  407MOL0     H54930   5.058   1.997   8.059 -1.8685  0.2860 -1.7935
  407MOL0     H54931   4.730   2.314   7.818  0.4800 -1.1324  0.3072
  407MOL0     H54932   4.475   2.355   7.779  0.4096 -0.4662  0.1711
  407MOL0     H54933   4.261   2.216   7.801  0.2402 -1.3594  0.2412
  407MOL0     H54934   4.254   2.385   7.760  0.4268 -0.1036  0.0771
  407MOL0     H54935   4.048   2.231   7.913  2.1579  1.3602  2.0592
  407MOL0     H54936   4.049   2.301   7.744  0.5496 -2.7479  0.7514
  407MOL0     H54937   4.072   2.520   7.854  0.2456 -1.7316 -2.0725
  407MOL0     H54938   4.037   2.425   8.012  0.7026 -1.6532 -0.3825
  407MOL0     H54939   3.827   2.368   7.923 -1.5390  0.9159  0.7700
  407MOL0     H54940   3.841   2.541   7.952  4.1237  1.0057  0.8675
  407MOL0     H54941   3.757   2.500   7.541 -0.0137  0.0665  0.1441
  407MOL0     H54942   4.405   2.292   8.186 -1.4904  2.1064  0.2517
  407MOL0     H54943   4.684   2.331   8.324 -1.3545  0.8797 -1.5473
  407MOL0     H54944   4.541   2.230   8.332 -2.6198 -0.1812 -2.5914
  407MOL0     H54945   4.707   2.164   8.285 -0.7918  0.3130  0.9475
  408MOL0     O54946   3.579   3.846   1.576 -0.3477 -0.6378 -0.4133
  408MOL0     C54947   3.561   3.961   1.554  1.6654 -0.6537 -0.4381
  408MOL0     O54948   3.448   4.006   1.491 -0.0484 -0.0764 -0.8309
  408MOL0     C54949   3.346   3.922   1.462 -1.0896 -0.0419  0.1879
  408MOL0     C54950   3.212   3.962   1.482  0.4557 -0.4779  0.1339
  408MOL0     C54951   3.099   3.882   1.456  0.0125  0.0191  0.0508
  408MOL0     C54952   3.125   3.773   1.377 -0.1703  0.3416  0.1586
  408MOL0     O54953   3.025   3.686   1.343 -0.1361  0.0178 -0.5378
  408MOL0     C54954   2.910   3.739   1.275  0.1700  0.3046 -0.0333
  408MOL0     C54955   2.959   3.807   1.143  0.4841  0.1630  0.0846
  408MOL0     C54956   2.844   3.842   1.049  0.4606 -0.8752  0.2944
  408MOL0     C54957   2.870   3.828   0.902 -0.3640  0.5181 -0.2211
  408MOL0     C54958   2.733   3.831   0.826  0.0050  0.3946 -0.6904
  408MOL0     C54959   2.758   3.829   0.677 -0.0068 -0.3813 -0.2784
  408MOL0     C54960   2.643   3.793   0.595 -0.0918 -0.2460  0.1894
  408MOL0     C54961   2.521   3.874   0.622  0.4983 -0.0211 -0.5526
  408MOL0     N54962   2.545   4.016   0.612 -0.0471 -0.4692 -0.4873
  408MOL0     C54963   2.585   4.092   0.504 -0.0813 -0.4424  0.4201
  408MOL0     C54964   2.575   4.229   0.538  0.5447 -0.4877  1.1460
  408MOL0     C54965   2.610   4.358   0.452  0.1545  0.3143 -0.3163
  408MOL0     C54966   2.487   4.387   0.371 -0.2847  0.1834  0.0721
  408MOL0     C54967   2.496   4.524   0.306  0.6329  0.4256  0.7200
  408MOL0     C54968   2.376   4.562   0.224 -0.6656 -1.3234 -0.6434
  408MOL0     O54969   2.349   4.456   0.131  0.0444 -0.5226  0.0159
  408MOL0     C54970   2.222   4.452   0.075  0.5366  0.3528  0.4234
  408MOL0     C54971   2.121   4.558   0.084 -0.6220  0.8529 -0.1655
  408MOL0     C54972   1.997   4.549   0.031  0.2171  1.0971  1.1683
  408MOL0     C54973   1.973   4.450  -0.063  0.9759  0.7697  0.2926
  408MOL0     C54974   1.851   4.466  -0.148 -0.4273  0.4137  0.1909
  408MOL0     O54975   1.858   4.390  -0.262  0.1690  0.4258  0.6944
  408MOL0     C54976   1.742   4.403  -0.328 -0.0491  0.5475 -0.7246
  408MOL0     C54977   1.637   4.304  -0.300  0.3174  0.2804 -0.1219
  408MOL0     C54978   1.515   4.310  -0.364 -0.0134  0.2152 -0.1488
  408MOL0     C54979   1.503   4.397  -0.469  0.0182 -0.1618  0.7395
  408MOL0     O54980   1.397   4.393  -0.556 -0.7752  0.3963 -0.1149
  408MOL0     C54981   1.271   4.387  -0.494 -0.3723  0.4379  0.3911
  408MOL0     C54982   1.162   4.411  -0.600 -0.1323 -0.2628 -0.3900
  408MOL0     C54983   1.013   4.412  -0.550 -0.3066 -0.6342  1.1331
  408MOL0     C54984   0.922   4.402  -0.669 -0.0117 -0.3537  0.1626
  408MOL0     C54985   0.778   4.416  -0.627 -0.1333  1.2779 -0.0760
  408MOL0     C54986   0.682   4.408  -0.744  0.0501 -0.4245 -0.3495
  408MOL0     C54987   0.529   4.451  -0.711 -0.6041 -0.0721  0.2970
  408MOL0     C54988   0.431   4.422  -0.829  0.0436  0.8149  0.2010
  408MOL0    Cl54989   0.481   4.517  -0.979  0.0544 -0.0483 -0.3567
  408MOL0     C54990   1.603   4.494  -0.492  0.1006 -0.2739  0.1246
  408MOL0     C54991   1.719   4.491  -0.428 -0.7869 -0.0169 -0.8386
  408MOL0     O54992   1.766   4.537  -0.114  0.6176 -0.5697 -0.0753
  408MOL0     C54993   2.069   4.347  -0.084  0.1273  0.6421 -0.8951
  408MOL0     C54994   2.183   4.342  -0.003  1.1845  0.6089 -0.4384
  408MOL0     N54995   2.523   4.236   0.668 -0.3688  0.6325 -0.2073
  408MOL0     N54996   2.515   4.113   0.708  0.0594  0.2473  0.2749
  408MOL0     C54997   3.254   3.732   1.357  0.3068  0.7154  0.1714
  408MOL0     C54998   3.363   3.802   1.400 -0.4497 -0.3111 -0.5814
  408MOL0     C54999   3.670   4.063   1.575 -0.3734  0.1467 -0.3361
  408MOL0     C55000   3.806   4.017   1.586 -0.1132  0.7260 -0.2704
  408MOL0     C55001   3.903   4.113   1.609 -0.1066  0.3508  0.3529
  408MOL0     C55002   3.877   4.243   1.615 -0.0918 -1.1785 -0.1851
  408MOL0     O55003   3.968   4.344   1.628  0.3754 -0.2053  0.2324
  408MOL0     C55004   4.031   4.359   1.756  0.2973  0.2720  0.2019
  408MOL0     C55005   4.107   4.495   1.758 -0.5240 -0.4994  0.2126
  408MOL0     C55006   4.021   4.620   1.726  0.5570  0.6464  0.4282
  408MOL0     C55007   4.027   4.661   1.578  0.4013 -0.7337  0.5774
  408MOL0     C55008   3.966   4.792   1.563 -0.2110 -0.6639 -0.2176
  408MOL0     C55009   3.928   4.905   1.538 -0.9037 -0.3296  0.0904
  408MOL0     C55010   3.749   4.291   1.593 -0.1964 -1.0056 -0.4600
  408MOL0     C55011   3.647   4.203   1.576  0.1165  0.1384 -0.7267
  408MOL0     C55012   3.505   4.262   1.596  0.5401  0.2841 -0.4209
  408MOL0     H55013   3.199   4.054   1.537  1.4494 -1.7955  2.7098
  408MOL0     H55014   3.003   3.915   1.493  0.0505 -0.2800  0.4188
  408MOL0     H55015   2.842   3.654   1.258 -4.4393  3.0405  2.5350
  408MOL0     H55016   2.850   3.808   1.334  1.9129  2.9367 -1.1682
  408MOL0     H55017   3.021   3.743   1.079  0.7419  1.9390 -1.5369
  408MOL0     H55018   3.018   3.895   1.169  1.8623 -0.2145 -1.6190
  408MOL0     H55019   2.812   3.945   1.070 -0.9907 -1.2469 -0.0506
  408MOL0     H55020   2.757   3.783   1.078 -1.6693  1.5699 -0.7937
  408MOL0     H55021   2.937   3.908   0.871 -0.6948  0.2737 -1.6126
  408MOL0     H55022   2.914   3.730   0.877  0.3390  0.7534  0.0521
  408MOL0     H55023   2.680   3.741   0.860  0.6670  0.9744  2.1041
  408MOL0     H55024   2.668   3.915   0.855  1.4800  1.1469  0.5577
  408MOL0     H55025   2.787   3.930   0.648  0.0075 -0.2744  0.0967
  408MOL0     H55026   2.838   3.755   0.664  1.6786  0.7578  2.4911
  408MOL0     H55027   2.623   3.686   0.603  3.0579 -1.2432 -2.4737
  408MOL0     H55028   2.679   3.799   0.491 -1.9302 -0.7066 -0.5033
  408MOL0     H55029   2.444   3.855   0.546 -1.5758  1.3021  1.1203
  408MOL0     H55030   2.474   3.850   0.718 -2.8145  1.0990 -1.7234
  408MOL0     H55031   2.623   4.052   0.410  1.7683 -0.5023  1.1414
  408MOL0     H55032   2.629   4.441   0.522  0.4447  1.1597 -1.3671
  408MOL0     H55033   2.697   4.340   0.388 -0.7933  0.8554 -1.8008
  408MOL0     H55034   2.476   4.308   0.296 -0.4139 -0.4377  0.7392
  408MOL0     H55035   2.406   4.390   0.444 -1.1663  0.7141 -0.8938
  408MOL0     H55036   2.585   4.537   0.243 -0.8911  0.1673 -1.6350
  408MOL0     H55037   2.506   4.589   0.394 -1.0578  0.2292  1.0926
  408MOL0     H55038   2.386   4.660   0.175 -0.1450 -1.1281 -0.1683
  408MOL0     H55039   2.289   4.575   0.289  0.4783 -1.5506  1.0192
  408MOL0     H55040   2.140   4.652   0.135 -0.5809  1.0518 -0.5436
  408MOL0     H55041   1.927   4.631   0.042 -1.7355 -0.1400 -1.0972
  408MOL0     H55042   1.648   4.227  -0.223 -0.3637  0.1495 -0.1474
  408MOL0     H55043   1.442   4.231  -0.348 -3.1197  2.3917 -2.2912
  408MOL0     H55044   1.256   4.295  -0.438  0.6876 -0.8709 -1.3684
  408MOL0     H55045   1.274   4.467  -0.420 -2.2453  1.2652 -0.3393
  408MOL0     H55046   1.191   4.509  -0.638  1.1872 -0.8176 -0.8518
  408MOL0     H55047   1.169   4.326  -0.669 -1.0545 -0.8037  0.1497
  408MOL0     H55048   1.005   4.334  -0.474  1.2554 -3.1936 -1.1483
  408MOL0     H55049   0.993   4.505  -0.495 -1.5217  0.0280 -0.3612
  408MOL0     H55050   0.947   4.308  -0.718  1.0027  0.4565 -0.9431
  408MOL0     H55051   0.952   4.481  -0.739  0.9170 -1.9321 -1.2784
  408MOL0     H55052   0.771   4.510  -0.572 -1.2232 -0.3678  2.8930
  408MOL0     H55053   0.750   4.340  -0.552 -3.1764  3.4838  1.2433
  408MOL0     H55054   0.719   4.467  -0.829  1.4751  0.6979  0.9867
  408MOL0     H55055   0.674   4.303  -0.776  0.5024 -0.2494 -1.0614
  408MOL0     H55056   0.532   4.559  -0.692 -0.8009 -0.2176  1.1667
  408MOL0     H55057   0.489   4.396  -0.626  0.2290  1.1012  1.4842
  408MOL0     H55058   0.433   4.318  -0.861  1.3196  1.5466 -2.3140
  408MOL0     H55059   0.333   4.462  -0.801 -1.1712 -1.3784 -0.7456
  408MOL0     H55060   1.586   4.576  -0.562  2.3705 -1.5509 -2.0685
  408MOL0     H55061   1.805   4.556  -0.444  0.7243 -1.4981  0.7701
  408MOL0     H55062   2.053   4.267  -0.156  0.4844 -0.8352  0.5875
  408MOL0     H55063   2.251   4.258  -0.001  1.3330  0.7022 -1.1865
  408MOL0     H55064   3.265   3.638   1.304  1.5412  0.3731  0.9939
  408MOL0     H55065   3.460   3.760   1.374 -1.5164 -1.9142 -2.1612
  408MOL0     H55066   3.837   3.915   1.565 -3.1437 -0.2217 -0.5067
  408MOL0     H55067   4.009   4.087   1.603  0.2199  1.6078  0.4521
  408MOL0     H55068   4.105   4.284   1.784  0.5568  1.1147  1.9806
  408MOL0     H55069   3.954   4.365   1.834 -0.4022  2.3424 -0.5715
  408MOL0     H55070   4.195   4.490   1.694 -0.0257 -1.0031  0.9280
  408MOL0     H55071   4.151   4.514   1.856 -0.6536  1.1156 -0.0068
  408MOL0     H55072   4.059   4.699   1.792 -0.6712 -0.4124  2.5113
  408MOL0     H55073   3.915   4.601   1.747 -0.1146  2.1785 -1.2616
  408MOL0     H55074   4.128   4.686   1.545 -0.5779  1.0162 -1.3221
  408MOL0     H55075   3.977   4.584   1.519  0.2412 -1.1475  1.2445
  408MOL0     H55076   3.912   5.000   1.491  0.0631  0.0971  0.5900
  408MOL0     H55077   3.735   4.398   1.591  0.4122 -0.5653  4.6664
  408MOL0     H55078   3.440   4.202   1.661  0.5010 -0.0310 -0.7475
  408MOL0     H55079   3.507   4.361   1.641 -0.7584  0.0513  0.2066
  408MOL0     H55080   3.459   4.277   1.497  2.0738  4.2630 -0.6994
  409MOL0     O55081   3.826   4.402   0.719  0.6467  0.5861 -0.1794
  409MOL0     C55082   3.804   4.479   0.813 -0.6685  0.2563 -0.2574
  409MOL0     O55083   3.904   4.542   0.888  0.5222 -0.5834 -0.0852
  409MOL0     C55084   4.036   4.504   0.879  0.4289  0.4154  0.0530
  409MOL0     C55085   4.130   4.604   0.875 -0.5125 -1.0645 -0.0631
  409MOL0     C55086   4.270   4.568   0.872 -0.1326 -0.2303 -0.1659
  409MOL0     C55087   4.307   4.429   0.877 -0.0752 -0.3774  0.1429
  409MOL0     O55088   4.442   4.402   0.872  0.0416  0.1553  0.4235
  409MOL0     C55089   4.491   4.286   0.943  0.4790  0.3452 -0.2687
  409MOL0     C55090   4.630   4.299   0.999  0.0722 -0.0210 -0.0668
  409MOL0     C55091   4.637   4.419   1.095  0.3373 -0.2228  0.2461
  409MOL0     C55092   4.784   4.460   1.125  0.1745 -0.1000  0.7287
  409MOL0     C55093   4.794   4.553   1.237 -0.1396 -0.5674 -0.5062
  409MOL0     C55094   4.935   4.571   1.299 -0.2235 -0.4456  1.0156
  409MOL0     C55095   5.048   4.623   1.200 -0.1969 -0.4524 -1.0114
  409MOL0     C55096   5.177   4.638   1.286 -0.2261 -0.4414  0.6387
  409MOL0     N55097   5.293   4.704   1.222  0.8557 -0.5206 -0.0474
  409MOL0     C55098   5.420   4.672   1.244 -0.6217 -0.8410 -0.2061
  409MOL0     C55099   5.488   4.787   1.220  0.0535 -0.5278 -0.3100
  409MOL0     C55100   5.635   4.807   1.236  0.2490  0.2787 -0.2108
  409MOL0     C55101   5.707   4.727   1.135 -0.2404  0.1131  0.2418
  409MOL0     C55102   5.854   4.751   1.148 -0.1424  0.4851  1.5303
  409MOL0     C55103   5.923   4.671   1.034 -0.4969 -0.0778 -0.4279
  409MOL0     O55104   6.060   4.706   1.034 -0.2457 -0.3146  0.0162
  409MOL0     C55105   6.151   4.639   0.961  0.3049  0.0581  0.5440
  409MOL0     C55106   6.160   4.499   0.952  0.2830 -0.8113  0.6807
  409MOL0     C55107   6.260   4.432   0.894 -0.8184  0.3541 -1.1119
  409MOL0     C55108   6.364   4.498   0.828 -0.1338 -0.1267 -0.4250
  409MOL0     C55109   6.484   4.431   0.771  1.1240  0.0157 -0.0446
  409MOL0     O55110   6.601   4.508   0.755  0.6930 -0.0981  0.3537
  409MOL0     C55111   6.720   4.438   0.740 -1.1550 -0.1543  0.0454
  409MOL0     C55112   6.761   4.375   0.620 -0.2848 -0.6010 -0.4930
  409MOL0     C55113   6.882   4.310   0.605  0.3129 -0.2712 -0.2319
  409MOL0     C55114   6.964   4.296   0.715  0.5401  0.6163 -0.4843
  409MOL0     O55115   7.075   4.217   0.711  0.2001  0.0563  0.9343
  409MOL0     C55116   7.118   4.149   0.583  0.6495  1.0269  0.0804
  409MOL0     C55117   7.243   4.062   0.614  0.0591 -0.6011  0.4023
  409MOL0     C55118   7.273   3.958   0.497 -0.2057 -0.0310  0.1217
  409MOL0     C55119   7.239   4.013   0.358  0.1829 -0.1917 -0.4852
  409MOL0     C55120   7.290   3.933   0.238  0.2238  0.7227  0.3277
  409MOL0     C55121   7.230   3.796   0.228  0.2021  0.4628  0.4474
  409MOL0     C55122   7.083   3.795   0.191 -0.4261 -0.4495  0.1429
  409MOL0     C55123   7.072   3.819   0.042 -0.1910  0.5776 -0.4427
  409MOL0    Cl55124   6.893   3.798  -0.011 -0.4499 -0.4788  0.2022
  409MOL0     C55125   6.932   4.355   0.836 -0.1709 -0.1800  0.0057
  409MOL0     C55126   6.807   4.429   0.850  0.0990 -0.3287 -0.1176
  409MOL0     O55127   6.476   4.308   0.758  0.1930 -0.0025  0.3444
  409MOL0     C55128   6.362   4.640   0.837  0.3439  0.9739  0.1883
  409MOL0     C55129   6.261   4.711   0.911  0.7672 -0.0957 -0.3664
  409MOL0     N55130   5.402   4.887   1.170  0.1151  1.1894 -0.0995
  409MOL0     N55131   5.289   4.826   1.166  0.1480 -0.3944 -0.3318
  409MOL0     C55132   4.213   4.331   0.875  0.4864  0.2326  0.4088
  409MOL0     C55133   4.081   4.375   0.869  0.3485 -0.2607  0.0924
  409MOL0     C55134   3.669   4.541   0.834 -0.0222 -0.2326  0.0386
  409MOL0     C55135   3.669   4.666   0.906 -0.0236 -0.3749 -0.1171
  409MOL0     C55136   3.546   4.724   0.943  0.0494 -0.7015 -0.8151
  409MOL0     C55137   3.425   4.675   0.905 -0.0575  0.2096 -0.1218
  409MOL0     O55138   3.301   4.734   0.921 -0.1559  0.3429  0.7859
  409MOL0     C55139   3.289   4.815   1.038  0.3947  0.2936 -0.0893
  409MOL0     C55140   3.295   4.740   1.173  0.0474 -0.1653  0.1004
  409MOL0     C55141   3.182   4.641   1.191  0.4497 -0.0782 -1.4430
  409MOL0     C55142   3.187   4.511   1.115  0.4521 -0.3444  0.7487
  409MOL0     C55143   3.114   4.409   1.191 -0.6839 -0.1760 -0.4810
  409MOL0     C55144   3.072   4.304   1.231  0.2470  0.3386  0.0205
  409MOL0     C55145   3.431   4.556   0.824 -0.3269 -0.0114 -0.8377
  409MOL0     C55146   3.551   4.490   0.790 -0.0421  0.2954 -1.3144
  409MOL0     C55147   3.537   4.355   0.716 -0.2557 -0.2978  0.0878
  409MOL0     H55148   4.117   4.710   0.893 -1.5768 -1.6487  3.1861
  409MOL0     H55149   4.337   4.653   0.879  0.2836 -0.4314 -1.4779
  409MOL0     H55150   4.429   4.261   1.029  1.6073 -3.9369 -0.4334
  409MOL0     H55151   4.487   4.204   0.870  1.4663  0.5903 -0.6160
  409MOL0     H55152   4.708   4.306   0.923  1.0203 -2.0201  0.6534
  409MOL0     H55153   4.656   4.205   1.047  0.4317 -0.8148 -1.7560
  409MOL0     H55154   4.579   4.389   1.182 -2.3589 -1.3298 -1.7897
  409MOL0     H55155   4.579   4.499   1.048 -1.5613 -1.7111 -0.0904
  409MOL0     H55156   4.819   4.364   1.164 -2.5551 -1.3020  0.4126
  409MOL0     H55157   4.838   4.477   1.032  1.8496  0.8206  1.8102
  409MOL0     H55158   4.764   4.648   1.191  0.5962 -0.6200 -1.1155
  409MOL0     H55159   4.718   4.528   1.312 -0.9434 -3.2958 -2.0880
  409MOL0     H55160   4.928   4.645   1.379  0.2931 -0.8696  1.4571
  409MOL0     H55161   4.975   4.474   1.329  1.9513  0.6627  1.8847
  409MOL0     H55162   5.017   4.719   1.160 -2.2715 -0.9175 -0.6509
  409MOL0     H55163   5.060   4.540   1.129  0.0710 -1.8898  0.6330
  409MOL0     H55164   5.161   4.696   1.378 -0.0091  1.6153 -0.5598
  409MOL0     H55165   5.211   4.541   1.323 -3.1967 -2.5131 -1.6170
  409MOL0     H55166   5.455   4.588   1.303  1.4855  1.3630  1.9161
  409MOL0     H55167   5.657   4.914   1.222 -1.0113  1.1615  3.4175
  409MOL0     H55168   5.662   4.782   1.339 -0.6124  0.5839  0.0966
  409MOL0     H55169   5.701   4.624   1.171 -1.2477 -0.6291 -1.8756
  409MOL0     H55170   5.677   4.746   1.031 -1.4158  0.0084  0.5433
  409MOL0     H55171   5.886   4.719   1.248  1.6062  2.1870  1.5865
  409MOL0     H55172   5.875   4.858   1.137 -1.0381  0.4069 -1.9941
  409MOL0     H55173   5.877   4.709   0.942  1.5186  0.6289 -1.1816
  409MOL0     H55174   5.898   4.565   1.046 -2.0628  0.4378  1.3400
  409MOL0     H55175   6.076   4.445   0.993 -0.5138 -0.0425  0.1136
  409MOL0     H55176   6.263   4.324   0.901 -2.7022  0.3691  0.8775
  409MOL0     H55177   6.695   4.369   0.535 -1.1800 -3.5861  0.2921
  409MOL0     H55178   6.905   4.268   0.507 -0.7327 -0.9251 -0.2143
  409MOL0     H55179   7.046   4.069   0.563  4.2674 -3.0587  1.5144
  409MOL0     H55180   7.146   4.203   0.492 -0.6529 -1.2882 -1.8051
  409MOL0     H55181   7.329   4.128   0.629  0.2017 -0.3523 -1.3644
  409MOL0     H55182   7.233   4.000   0.704  2.1279 -0.2329  0.9406
  409MOL0     H55183   7.381   3.945   0.495 -0.2076 -0.2004 -2.3356
  409MOL0     H55184   7.223   3.864   0.525  2.4310 -1.1017  1.6060
  409MOL0     H55185   7.277   4.116   0.354  0.2308 -0.0891  1.5968
  409MOL0     H55186   7.130   4.016   0.357  0.0907 -1.3641  1.4602
  409MOL0     H55187   7.398   3.918   0.238  0.6123  3.1196  0.6578
  409MOL0     H55188   7.260   3.994   0.152 -0.7363 -2.8724 -2.1207
  409MOL0     H55189   7.292   3.743   0.155  0.5865 -0.0294  1.1156
  409MOL0     H55190   7.242   3.745   0.324  0.8556  0.1366  0.1990
  409MOL0     H55191   7.026   3.874   0.241 -0.5693 -0.7955  0.5270
  409MOL0     H55192   7.044   3.696   0.218  2.7867 -1.6329  0.8431
  409MOL0     H55193   7.093   3.919   0.005  1.8179 -0.0371 -1.1089
  409MOL0     H55194   7.132   3.735   0.006  0.3970 -0.0611  1.8422
  409MOL0     H55195   7.005   4.344   0.915  1.3564 -1.0807 -1.4723
  409MOL0     H55196   6.779   4.482   0.940 -0.3181  2.0916 -1.6050
  409MOL0     H55197   6.446   4.699   0.801  1.5891 -0.9753 -0.2124
  409MOL0     H55198   6.259   4.816   0.935 -1.0552 -0.7601  2.9591
  409MOL0     H55199   4.246   4.227   0.870 -0.1479 -0.0742  1.9338
  409MOL0     H55200   4.006   4.299   0.852  0.2977  0.1766 -1.8003
  409MOL0     H55201   3.763   4.718   0.923  1.8006 -2.6039 -2.3226
  409MOL0     H55202   3.555   4.823   0.988  3.0317 -2.4548  2.9203
  409MOL0     H55203   3.186   4.851   1.034  0.0873 -0.6494 -3.4318
  409MOL0     H55204   3.352   4.904   1.026 -2.4023  2.0467 -3.8368
  409MOL0     H55205   3.287   4.823   1.243  0.2228 -0.4842  0.5000
  409MOL0     H55206   3.389   4.685   1.185 -0.2675 -0.7267  0.0231
  409MOL0     H55207   3.089   4.695   1.170 -1.5807 -2.1606  1.4938
  409MOL0     H55208   3.164   4.626   1.298 -2.0531 -0.1582 -1.8057
  409MOL0     H55209   3.125   4.515   1.025  0.8209 -0.3635  0.4925
  409MOL0     H55210   3.287   4.483   1.079 -0.5322 -1.3440 -1.3762
  409MOL0     H55211   3.027   4.215   1.271  0.2432 -1.0013 -2.7402
  409MOL0     H55212   3.335   4.520   0.789 -0.2468  0.5232 -1.6551
  409MOL0     H55213   3.600   4.364   0.627 -1.9155  1.1868 -0.9993
  409MOL0     H55214   3.574   4.271   0.775  2.3555  1.7788  1.6521
  409MOL0     H55215   3.437   4.336   0.675  0.4916  1.6752 -3.0100
  410MOL0     O55216   6.888   4.389   5.817  0.1036 -0.6615 -0.0246
  410MOL0     C55217   6.875   4.268   5.848 -0.0115 -0.5800 -0.6939
  410MOL0     O55218   6.977   4.190   5.873 -0.0817  0.9425  0.0330
  410MOL0     C55219   7.100   4.231   5.839 -0.7169  0.3791 -0.0713
  410MOL0     C55220   7.166   4.323   5.916  0.2697  0.4246 -1.0769
  410MOL0     C55221   7.298   4.346   5.901 -0.1847  0.5694 -0.2528
  410MOL0     C55222   7.369   4.299   5.789  0.1260  0.1007 -0.0860
  410MOL0     O55223   7.500   4.312   5.768 -0.5821 -0.9841 -0.0319
  410MOL0     C55224   7.534   4.439   5.719 -0.4562  0.6370  0.2235
  410MOL0     C55225   7.614   4.514   5.828  0.3556 -0.1856 -0.6511
  410MOL0     C55226   7.631   4.654   5.776 -0.8652 -0.3087 -0.2364
  410MOL0     C55227   7.743   4.725   5.855  1.0795  0.0233 -0.1001
  410MOL0     C55228   7.738   4.877   5.824  0.3681  0.2501 -0.6329
  410MOL0     C55229   7.858   4.946   5.893 -0.7618 -0.0466  0.9945
  410MOL0     C55230   7.886   5.091   5.833 -0.1720  1.1899  0.5365
  410MOL0     C55231   8.036   5.138   5.847 -0.6419  0.4919  0.4541
  410MOL0     N55232   8.046   5.259   5.929  0.7010  0.5375  0.9084
  410MOL0     C55233   8.101   5.379   5.889 -0.7705 -0.0202  0.1788
  410MOL0     C55234   8.137   5.445   6.000 -0.3474  0.0263  0.0765
  410MOL0     C55235   8.190   5.583   6.000 -0.1853 -0.3976 -0.2876
  410MOL0     C55236   8.326   5.590   6.061  0.1647 -0.6961  0.5672
  410MOL0     C55237   8.395   5.713   6.003 -0.7134 -0.2023 -0.2347
  410MOL0     C55238   8.542   5.711   6.057  0.0790 -0.8268  0.2439
  410MOL0     O55239   8.621   5.602   6.016 -0.4131  0.5160 -0.1409
  410MOL0     C55240   8.758   5.599   6.036 -0.1389  0.3180  1.0358
  410MOL0     C55241   8.827   5.478   6.029  0.1802 -0.5113 -0.7470
  410MOL0     C55242   8.973   5.482   6.039 -0.1455 -0.6626 -0.5564
  410MOL0     C55243   9.047   5.596   6.065 -0.3178  0.5399 -0.3796
  410MOL0     C55244   9.192   5.593   6.072  0.0065  0.8664 -0.2305
  410MOL0     O55245   9.256   5.477   6.111 -0.2999  0.6456 -0.0467
  410MOL0     C55246   9.392   5.488   6.135  0.3085 -0.1758 -0.7421
  410MOL0     C55247   9.447   5.420   6.244  0.5727 -1.0705  0.1497
  410MOL0     C55248   9.585   5.417   6.262  0.0711  0.9109  0.2611
  410MOL0     C55249   9.674   5.484   6.172 -0.0283 -0.1540 -0.4954
  410MOL0     O55250   9.808   5.466   6.196 -0.0784 -0.0343 -0.4990
  410MOL0     C55251   9.900   5.525   6.104  0.0614 -0.3195  0.2103
  410MOL0     C55252  10.041   5.505   6.173 -0.1221 -0.1283  0.7758
  410MOL0     C55253  10.059   5.619   6.272  0.7592 -0.6918 -0.7437
  410MOL0     C55254  10.201   5.630   6.310 -0.4166  0.4324  0.7742
  410MOL0     C55255  10.271   5.727   6.214  0.6093 -0.0858  0.6390
  410MOL0     C55256  10.424   5.750   6.248  0.4547 -0.5719 -0.0609
  410MOL0     C55257  10.479   5.860   6.163 -0.2674 -0.3603 -0.6520
  410MOL0     C55258  10.634   5.841   6.179 -0.3440 -0.0734 -0.3183
  410MOL0    Cl55259  10.718   5.991   6.112  0.2872  0.5799 -0.1259
  410MOL0     C55260   9.616   5.544   6.055 -0.5665 -0.3253  0.3159
  410MOL0     C55261   9.477   5.547   6.035 -0.5200  0.0927 -0.1364
  410MOL0     O55262   9.244   5.701   6.059 -0.4764 -0.1685  0.4309
  410MOL0     C55263   8.973   5.715   6.077 -0.0743 -0.3830 -0.4358
  410MOL0     C55264   8.838   5.712   6.052 -0.3662  0.5310 -0.1724
  410MOL0     N55265   8.110   5.368   6.103 -0.3615 -0.0238  0.0658
  410MOL0     N55266   8.045   5.257   6.061  0.0882 -0.0149  0.1524
  410MOL0     C55267   7.296   4.216   5.699  0.5608 -0.3980 -0.3795
  410MOL0     C55268   7.168   4.181   5.734 -1.0914  0.8512 -0.5506
  410MOL0     C55269   6.745   4.213   5.882  0.5446  0.2321 -0.2434
  410MOL0     C55270   6.740   4.074   5.863 -0.3683 -0.6378 -0.2991
  410MOL0     C55271   6.626   4.006   5.897 -0.0548  0.1113 -0.0543
  410MOL0     C55272   6.523   4.071   5.963 -0.4075  1.1208  0.5185
  410MOL0     O55273   6.414   3.996   6.002  0.2157 -0.1030 -0.0428
  410MOL0     C55274   6.294   4.063   6.038  0.3280 -0.3540  0.2988
  410MOL0     C55275   6.206   3.951   6.096  0.0798  0.2307  0.5484
  410MOL0     C55276   6.263   3.875   6.218 -0.4857 -0.8979  0.5701
  410MOL0     C55277   6.281   3.965   6.341 -0.2907  0.5407  0.0274
  410MOL0     C55278   6.154   3.996   6.396  0.2534  0.2281 -0.2350
  410MOL0     C55279   6.050   4.031   6.445 -0.2776  0.0564 -0.2396
  410MOL0     C55280   6.534   4.211   5.986  0.1247  0.0851 -0.7758
  410MOL0     C55281   6.643   4.282   5.947 -0.4369  0.1765 -0.5925
  410MOL0     C55282   6.643   4.431   5.983  0.6944 -0.4700 -0.1421
  410MOL0     H55283   7.101   4.362   5.993 -0.7185 -2.4743 -0.2950
  410MOL0     H55284   7.337   4.425   5.965 -1.5279  1.1247 -0.0766
  410MOL0     H55285   7.605   4.422   5.637  0.0174  0.4710  0.6630
  410MOL0     H55286   7.450   4.503   5.692  0.4168  2.1431  0.9475
  410MOL0     H55287   7.709   4.465   5.855  0.7553  1.6975  1.5898
  410MOL0     H55288   7.542   4.521   5.910 -0.5879  0.0647 -1.4863
  410MOL0     H55289   7.539   4.711   5.790 -0.2702  0.1716  2.1785
  410MOL0     H55290   7.657   4.645   5.670 -1.1158 -2.7415 -0.1434
  410MOL0     H55291   7.723   4.700   5.960  1.1223  0.5874  0.0500
  410MOL0     H55292   7.840   4.687   5.822  1.9048  3.6345 -2.4958
  410MOL0     H55293   7.758   4.876   5.716  3.8392 -1.2382 -0.1209
  410MOL0     H55294   7.644   4.926   5.848  1.2832  1.2653  1.1173
  410MOL0     H55295   7.852   4.943   6.002  0.0732 -2.3567  1.0130
  410MOL0     H55296   7.942   4.881   5.868 -0.8597 -0.2442  1.1727
  410MOL0     H55297   7.815   5.162   5.877  0.9573  1.0893  2.6622
  410MOL0     H55298   7.872   5.082   5.725 -0.2686  0.3855  0.6128
  410MOL0     H55299   8.094   5.059   5.897  0.0537  0.8957  0.2912
  410MOL0     H55300   8.078   5.159   5.748 -1.3124 -0.0648  0.0375
  410MOL0     H55301   8.114   5.419   5.789 -0.7518 -1.2202 -0.3249
  410MOL0     H55302   8.189   5.621   5.897  0.2978 -2.7737 -1.2269
  410MOL0     H55303   8.119   5.646   6.055  0.5650  1.0044 -0.8744
  410MOL0     H55304   8.317   5.589   6.170  1.6748  2.8053  0.8615
  410MOL0     H55305   8.377   5.494   6.050  0.1637 -0.9793  2.7671
  410MOL0     H55306   8.348   5.809   6.028  0.2261 -0.4688  3.0833
  410MOL0     H55307   8.404   5.694   5.896  1.7622 -0.3224 -0.0747
  410MOL0     H55308   8.541   5.723   6.166 -0.0419  2.2170 -0.0228
  410MOL0     H55309   8.582   5.806   6.020 -0.6916  0.1515  1.8231
  410MOL0     H55310   8.764   5.390   6.025  1.0159 -1.1208 -0.7563
  410MOL0     H55311   9.022   5.385   6.032  0.6759 -0.4940  1.9525
  410MOL0     H55312   9.383   5.361   6.308  2.6906  0.1976  3.7515
  410MOL0     H55313   9.611   5.353   6.346 -0.3398 -0.6495 -0.7654
  410MOL0     H55314   9.897   5.460   6.016  1.2546  0.0768 -0.1430
  410MOL0     H55315   9.893   5.631   6.079 -0.4001  0.5818  3.5965
  410MOL0     H55316  10.042   5.406   6.219  1.8509 -1.7524 -2.3566
  410MOL0     H55317  10.127   5.503   6.105 -0.0985  3.2557  0.5419
  410MOL0     H55318  10.035   5.716   6.229 -1.7135 -1.1825 -0.6292
  410MOL0     H55319  10.002   5.596   6.363  1.5314 -3.6260 -0.8948
  410MOL0     H55320  10.247   5.533   6.291  2.2868  2.0114 -1.5605
  410MOL0     H55321  10.213   5.654   6.417 -1.6479 -1.6461  1.4327
  410MOL0     H55322  10.229   5.827   6.222 -0.8205 -0.5580 -0.4906
  410MOL0     H55323  10.260   5.702   6.108 -0.2793  1.0366  0.4523
  410MOL0     H55324  10.438   5.778   6.353 -2.0972  1.2044 -0.1000
  410MOL0     H55325  10.473   5.655   6.228 -0.6129 -0.9548 -0.9231
  410MOL0     H55326  10.452   5.962   6.192 -1.1754 -1.0114  0.8890
  410MOL0     H55327  10.452   5.849   6.058 -0.2350 -0.4659 -0.6493
  410MOL0     H55328  10.659   5.843   6.286 -2.9195  1.5085  0.3427
  410MOL0     H55329  10.664   5.747   6.133 -2.7555 -0.7118 -0.6979
  410MOL0     H55330   9.688   5.578   5.981  2.2239  0.8136  3.2890
  410MOL0     H55331   9.433   5.583   5.943 -2.7980  0.2183  0.9549
  410MOL0     H55332   9.019   5.810   6.103 -3.3757  0.6466  2.4864
  410MOL0     H55333   8.796   5.812   6.045 -0.0010  0.8165  1.3922
  410MOL0     H55334   7.355   4.177   5.616  1.3076  0.8772 -0.4858
  410MOL0     H55335   7.119   4.095   5.688 -0.5483 -0.4175  1.1238
  410MOL0     H55336   6.815   4.006   5.823 -2.4406 -2.1965 -1.7442
  410MOL0     H55337   6.609   3.901   5.876  0.5391 -0.2722  1.3152
  410MOL0     H55338   6.253   4.106   5.946  0.1964  0.4395  0.7262
  410MOL0     H55339   6.313   4.147   6.105  0.8785  0.0171 -0.3174
  410MOL0     H55340   6.178   3.882   6.016 -0.6280  3.2206 -1.9574
  410MOL0     H55341   6.114   4.003   6.123 -0.1179  0.5474 -0.6572
  410MOL0     H55342   6.354   3.828   6.181 -0.3316  0.0482 -0.2929
  410MOL0     H55343   6.198   3.791   6.244 -1.6295 -0.1962  0.0525
  410MOL0     H55344   6.336   3.907   6.415  0.8622 -0.1463 -1.3107
  410MOL0     H55345   6.338   4.055   6.317  0.8568 -0.4410 -1.0608
  410MOL0     H55346   5.950   4.047   6.482  0.4425  0.0131  1.8635
  410MOL0     H55347   6.453   4.266   6.033 -0.4993 -0.9720 -0.5790
  410MOL0     H55348   6.556   4.470   5.929  0.0489 -2.9736 -1.0334
  410MOL0     H55349   6.625   4.451   6.089 -3.1040 -0.5461 -0.6228
  410MOL0     H55350   6.730   4.490   5.952  1.5419 -1.0933  0.9619
  411MOL0     O55351   9.017   3.019   4.933  0.1773  0.7333  0.7691
  411MOL0     C55352   8.935   3.027   4.842  0.0234  0.1442 -0.5639
  411MOL0     O55353   8.960   3.045   4.711  0.0667  0.6345 -0.8841
  411MOL0     C55354   9.077   3.008   4.661  0.2251 -0.5921  0.0807
  411MOL0     C55355   9.090   2.898   4.574 -0.3930 -0.0743  0.0173
  411MOL0     C55356   9.213   2.867   4.529 -0.0497  0.0433  0.9017
  411MOL0     C55357   9.330   2.938   4.554  1.0954 -0.1673  0.1077
  411MOL0     O55358   9.444   2.906   4.488  0.6899  0.1291 -0.1717
  411MOL0     C55359   9.545   3.003   4.468 -0.3375 -0.2784 -0.5513
  411MOL0     C55360   9.641   2.986   4.585 -0.2528 -0.5363 -0.5374
  411MOL0     C55361   9.708   3.110   4.631  0.3405  0.0719  0.5218
  411MOL0     C55362   9.826   3.077   4.725  0.7829 -0.3800  0.6906
  411MOL0     C55363   9.926   3.176   4.751 -0.8238 -0.9527  0.3252
  411MOL0     C55364   9.869   3.300   4.826  0.2867  0.8343  0.7790
  411MOL0     C55365   9.989   3.391   4.858  0.0121 -0.3320 -0.3672
  411MOL0     C55366  10.078   3.327   4.968 -0.1476  0.3418  0.0105
  411MOL0     N55367  10.113   3.437   5.048  0.1246 -0.0542 -0.0835
  411MOL0     C55368  10.203   3.537   5.014  0.6686  0.7153  0.4176
  411MOL0     C55369  10.193   3.640   5.098 -0.5693 -0.4485 -0.2523
  411MOL0     C55370  10.248   3.773   5.075 -0.8302 -0.4631 -0.2235
  411MOL0     C55371  10.401   3.759   5.112  0.5797 -0.3713  0.6730
  411MOL0     C55372  10.442   3.895   5.160 -0.1035 -0.4458  0.6834
  411MOL0     C55373  10.589   3.899   5.187 -0.1257  0.2583 -0.2524
  411MOL0     O55374  10.614   4.036   5.223 -0.2087  0.2533  0.6851
  411MOL0     C55375  10.740   4.070   5.261  0.2666  0.0451 -0.6736
  411MOL0     C55376  10.761   4.190   5.326  0.0695 -0.4771 -0.1280
  411MOL0     C55377  10.891   4.234   5.359 -0.7406  0.3633 -0.1256
  411MOL0     C55378  10.999   4.158   5.317 -0.0607 -0.4783  0.6259
  411MOL0     C55379  11.143   4.202   5.331 -0.1968  0.4642 -0.1449
  411MOL0     O55380  11.177   4.317   5.370  0.3979  0.0191 -0.5956
  411MOL0     C55381  11.310   4.350   5.355 -0.3032  0.2253 -0.3184
  411MOL0     C55382  11.414   4.284   5.423 -1.1563 -0.6639 -0.7694
  411MOL0     C55383  11.552   4.329   5.415 -0.3337  0.6335  0.5606
  411MOL0     C55384  11.574   4.453   5.349 -1.0381  0.4581 -0.4049
  411MOL0     O55385  11.704   4.489   5.306  0.7246 -0.1753  0.4217
  411MOL0     C55386  11.804   4.490   5.409 -0.1611 -0.4182 -0.6664
  411MOL0     C55387  11.945   4.474   5.354 -0.4112 -0.2518  0.3101
  411MOL0     C55388  12.055   4.468   5.456  0.3507  0.6436  0.7663
  411MOL0     C55389  12.077   4.600   5.517  0.4599  0.6876 -0.3853
  411MOL0     C55390  12.171   4.605   5.641  0.0029  1.3398  0.0505
  411MOL0     C55391  12.292   4.518   5.634 -0.1663 -0.0697  0.6030
  411MOL0     C55392  12.383   4.531   5.751 -0.6219 -1.0189  0.3157
  411MOL0     C55393  12.499   4.441   5.725 -0.7841 -0.5684  0.3705
  411MOL0    Cl55394  12.597   4.530   5.592 -0.1276 -0.0965 -0.0424
  411MOL0     C55395  11.468   4.516   5.289  0.1228  1.4802 -0.0271
  411MOL0     C55396  11.343   4.456   5.283  0.7501  0.1277 -0.5063
  411MOL0     O55397  11.219   4.125   5.279  0.1568 -0.1869 -1.1761
  411MOL0     C55398  10.973   4.027   5.276 -0.7221  0.2424  0.0628
  411MOL0     C55399  10.845   3.986   5.245 -0.8526  0.2997 -0.6527
  411MOL0     N55400  10.089   3.600   5.185  0.2201 -0.2425  0.3208
  411MOL0     N55401  10.045   3.484   5.152 -0.7866  0.0631 -0.5435
  411MOL0     C55402   9.325   3.053   4.632  0.3115 -1.0549 -0.8927
  411MOL0     C55403   9.195   3.086   4.693  0.0166 -0.9160 -0.3436
  411MOL0     C55404   8.787   3.025   4.876  0.2578 -0.4056  0.3311
  411MOL0     C55405   8.700   3.111   4.806  0.4598  0.3744 -0.0802
  411MOL0     C55406   8.574   3.132   4.847  0.3540 -0.0147  0.0843
  411MOL0     C55407   8.520   3.057   4.959  0.4729 -1.1382 -0.4055
  411MOL0     O55408   8.394   3.097   4.993  0.2929  0.0447 -0.0473
  411MOL0     C55409   8.331   3.024   5.097 -0.3144  0.9623 -0.7855
  411MOL0     C55410   8.189   3.078   5.094 -0.2944 -0.2971 -0.1090
  411MOL0     C55411   8.105   3.064   5.223 -0.1211  0.4898 -0.5669
  411MOL0     C55412   8.061   2.920   5.250 -0.3773  0.9089  1.5588
  411MOL0     C55413   8.003   2.913   5.386  0.6683 -0.3009  0.0998
  411MOL0     C55414   7.957   2.885   5.488 -0.2600 -0.1598  0.6271
  411MOL0     C55415   8.601   2.961   5.018  0.5612  0.2672  0.3719
  411MOL0     C55416   8.733   2.950   4.984  0.1850  0.5533  0.7223
  411MOL0     C55417   8.811   2.847   5.069  0.3366 -0.0159  0.3647
  411MOL0     H55418   9.001   2.842   4.544  0.9284 -2.2183 -0.1185
  411MOL0     H55419   9.214   2.786   4.456 -0.3175  2.5278 -2.0509
  411MOL0     H55420   9.591   2.972   4.374  0.7033 -2.6361  0.6539
  411MOL0     H55421   9.513   3.107   4.455  1.1355  0.1558 -0.8530
  411MOL0     H55422   9.709   2.902   4.568  0.9904 -0.3645  2.7527
  411MOL0     H55423   9.582   2.953   4.671  0.1658 -2.3027 -0.8995
  411MOL0     H55424   9.638   3.177   4.682 -0.3947 -0.4416  0.1963
  411MOL0     H55425   9.739   3.166   4.542  1.5068  2.3083  2.2171
  411MOL0     H55426   9.789   3.031   4.818 -0.7568  1.3899  0.9977
  411MOL0     H55427   9.884   3.009   4.661  0.0671  0.8919 -1.3907
  411MOL0     H55428  10.004   3.135   4.816  1.0236  3.6675  1.4242
  411MOL0     H55429   9.982   3.204   4.662 -1.8724  3.9059  0.9049
  411MOL0     H55430   9.811   3.363   4.757  2.1210  0.7471 -0.9444
  411MOL0     H55431   9.805   3.264   4.907  0.0981 -1.3178 -0.2557
  411MOL0     H55432   9.954   3.490   4.889  1.5054  0.4391 -1.0327
  411MOL0     H55433  10.029   3.425   4.762 -1.2544  1.0823 -0.4245
  411MOL0     H55434  10.018   3.254   5.023 -0.7082  1.5282  1.0450
  411MOL0     H55435  10.170   3.283   4.927  0.1311  0.4653  0.4901
  411MOL0     H55436  10.256   3.535   4.919  0.3714  2.5732  0.1612
  411MOL0     H55437  10.233   3.809   4.973 -1.4500  0.9856  0.3572
  411MOL0     H55438  10.195   3.848   5.135  1.8625  1.3592  0.0065
  411MOL0     H55439  10.415   3.682   5.188  0.5968 -1.2314 -0.1785
  411MOL0     H55440  10.455   3.718   5.026  1.7807 -1.0956  1.7501
  411MOL0     H55441  10.384   3.925   5.248 -2.7954  1.6708 -1.5918
  411MOL0     H55442  10.430   3.972   5.082  2.7278 -0.9028 -0.3289
  411MOL0     H55443  10.653   3.861   5.107 -0.7715 -1.5921  0.0474
  411MOL0     H55444  10.605   3.841   5.279 -0.4734  2.2209  1.1006
  411MOL0     H55445  10.673   4.249   5.353 -0.7413 -1.3159 -0.8725
  411MOL0     H55446  10.901   4.333   5.401 -1.6295 -0.0389  1.0870
  411MOL0     H55447  11.404   4.206   5.498  1.8997 -0.3879  0.0781
  411MOL0     H55448  11.626   4.257   5.447  0.6596  1.6834  0.6997
  411MOL0     H55449  11.795   4.584   5.463 -0.1912 -0.4358 -0.6394
  411MOL0     H55450  11.786   4.425   5.496 -2.0043 -1.4176 -1.7193
  411MOL0     H55451  11.939   4.386   5.289  0.1620  0.3879 -0.6294
  411MOL0     H55452  11.973   4.558   5.289 -2.1754  1.4047  1.5879
  411MOL0     H55453  12.026   4.404   5.540 -3.4323 -1.0095 -1.5321
  411MOL0     H55454  12.140   4.426   5.402 -0.6781 -2.0855  1.1074
  411MOL0     H55455  11.978   4.633   5.549 -0.2943  0.6814 -2.5451
  411MOL0     H55456  12.100   4.684   5.450 -1.3261  1.2494 -0.3479
  411MOL0     H55457  12.111   4.562   5.722  0.9086  1.2439  0.6888
  411MOL0     H55458  12.198   4.710   5.659  0.2141  1.0986  1.2003
  411MOL0     H55459  12.262   4.414   5.616  0.9677  0.0851 -2.9665
  411MOL0     H55460  12.349   4.525   5.541 -2.1980 -4.1609 -1.2033
  411MOL0     H55461  12.322   4.494   5.833  1.4826 -1.3794  1.8167
  411MOL0     H55462  12.415   4.634   5.772  1.4872 -1.6168  0.3490
  411MOL0     H55463  12.564   4.435   5.813  0.7278 -0.6692 -0.7204
  411MOL0     H55464  12.474   4.338   5.697  0.5279 -1.0058  0.7256
  411MOL0     H55465  11.482   4.611   5.239  2.0475 -0.7666 -4.2414
  411MOL0     H55466  11.273   4.527   5.241  1.2617  1.6413  1.0692
  411MOL0     H55467  11.050   3.952   5.276 -0.3516  0.4807  3.2628
  411MOL0     H55468  10.837   3.895   5.187  0.9651  0.3712 -1.0945
  411MOL0     H55469   9.410   3.115   4.657 -0.6543  0.2041 -0.6488
  411MOL0     H55470   9.184   3.175   4.754  0.6384 -0.7032 -0.5321
  411MOL0     H55471   8.734   3.164   4.717  0.7366  0.0326 -0.1821
  411MOL0     H55472   8.508   3.204   4.799 -1.4648 -1.1020  0.8255
  411MOL0     H55473   8.381   3.058   5.188 -2.2902  1.0724  0.3107
  411MOL0     H55474   8.331   2.916   5.079  0.8834  0.5970  1.1505
  411MOL0     H55475   8.136   3.044   5.005 -3.3300  1.3106  0.9444
  411MOL0     H55476   8.197   3.186   5.086 -2.6575  0.0404  1.1115
  411MOL0     H55477   8.019   3.130   5.216  0.4449  1.0723 -3.2028
  411MOL0     H55478   8.173   3.087   5.305 -0.5656 -0.2163  0.0171
  411MOL0     H55479   7.983   2.904   5.175  3.3454 -0.7304 -2.3877
  411MOL0     H55480   8.149   2.857   5.238  0.1703  1.1461  3.8692
  411MOL0     H55481   7.929   2.847   5.584 -1.2241  0.6749  0.6928
  411MOL0     H55482   8.569   2.897   5.099  1.4076 -2.9307 -1.6714
  411MOL0     H55483   8.733   2.787   5.117  0.3046  1.2305  1.9457
  411MOL0     H55484   8.881   2.793   5.005  0.8497  1.0317  0.0353
  411MOL0     H55485   8.858   2.893   5.156  0.6732  1.8328 -0.7623
  412MOL0     O55486   2.435   6.237   4.974 -0.1194  0.2006 -0.2220
  412MOL0     C55487   2.448   6.126   4.922  0.3550  0.3270 -0.0651
  412MOL0     O55488   2.564   6.067   4.881 -0.8485 -0.7763  0.3372
  412MOL0     C55489   2.680   6.135   4.899  0.2877  0.3049  0.2086
  412MOL0     C55490   2.787   6.062   4.953 -0.8087  0.4164 -0.8900
  412MOL0     C55491   2.899   6.134   4.994 -0.6172  0.5242  0.1404
  412MOL0     C55492   2.922   6.265   4.954 -0.1124 -0.2309 -0.1427
  412MOL0     O55493   3.031   6.342   4.993  0.1743  0.3227  0.4546
  412MOL0     C55494   3.102   6.307   5.115 -0.1747 -0.5046 -0.7758
  412MOL0     C55495   3.196   6.420   5.160  0.3089  0.4431  0.0450
  412MOL0     C55496   3.305   6.450   5.050  1.0993 -0.5985  0.1795
  412MOL0     C55497   3.417   6.355   5.050 -0.5138 -0.4157 -0.0353
  412MOL0     C55498   3.516   6.366   5.165 -0.5458 -0.7499  0.1178
  412MOL0     C55499   3.606   6.494   5.130  0.3302  0.9190  0.0341
  412MOL0     C55500   3.714   6.509   5.242  0.9033 -0.0795 -0.1936
  412MOL0     C55501   3.790   6.637   5.231  0.3961  0.2135  0.4670
  412MOL0     N55502   3.884   6.651   5.334 -0.5206 -0.2354 -0.1727
  412MOL0     C55503   3.991   6.571   5.372 -0.5921  0.4250 -1.4319
  412MOL0     C55504   4.030   6.622   5.492 -0.0784  0.5180  0.1881
  412MOL0     C55505   4.142   6.566   5.581  1.1369 -1.4198  0.3834
  412MOL0     C55506   4.273   6.608   5.540  0.1237 -0.0289 -0.0545
  412MOL0     C55507   4.376   6.613   5.650 -0.1049 -0.6782 -0.5547
  412MOL0     C55508   4.517   6.611   5.592  0.0641  0.1854  0.1761
  412MOL0     O55509   4.620   6.619   5.690  0.7163  0.6831 -0.5441
  412MOL0     C55510   4.747   6.586   5.657  0.0860 -0.4649  0.8194
  412MOL0     C55511   4.846   6.619   5.756  0.1276  0.1854  0.5682
  412MOL0     C55512   4.984   6.614   5.731 -0.6147  0.0592 -0.8127
  412MOL0     C55513   5.030   6.571   5.598  0.4342 -0.1949  1.0835
  412MOL0     C55514   5.175   6.571   5.561  0.9370  0.4368  0.5293
  412MOL0     O55515   5.251   6.597   5.669 -0.5585 -0.0777  0.2599
  412MOL0     C55516   5.388   6.583   5.662  0.5512 -0.7046 -0.8170
  412MOL0     C55517   5.474   6.692   5.676  0.5063  0.1456  0.2041
  412MOL0     C55518   5.611   6.678   5.668 -0.1196 -0.5390  0.1230
  412MOL0     C55519   5.668   6.558   5.641  0.3157  0.5216 -0.5533
  412MOL0     O55520   5.803   6.557   5.644 -0.1556  0.1421  0.9782
  412MOL0     C55521   5.873   6.431   5.653 -0.4446 -0.7128  0.2376
  412MOL0     C55522   6.023   6.455   5.625 -0.7654 -0.2139 -0.3106
  412MOL0     C55523   6.088   6.480   5.755 -0.3338 -0.1884  0.5559
  412MOL0     C55524   6.237   6.502   5.756 -0.8277  0.2542  0.0080
  412MOL0     C55525   6.289   6.630   5.687  1.0201  0.0792  1.0101
  412MOL0     C55526   6.348   6.733   5.793  0.0435  0.0868  0.2338
  412MOL0     C55527   6.466   6.681   5.867  0.0498 -0.2096 -0.0410
  412MOL0     C55528   6.580   6.633   5.777 -0.4877  0.1012 -0.3340
  412MOL0    Cl55529   6.688   6.547   5.898  0.2425  0.3356  0.1273
  412MOL0     C55530   5.584   6.444   5.622 -0.2369 -0.6953 -0.5735
  412MOL0     C55531   5.446   6.455   5.636  0.1728 -0.6017 -0.0912
  412MOL0     O55532   5.213   6.570   5.446  0.3720 -0.0361  0.5671
  412MOL0     C55533   4.926   6.538   5.502  0.3697 -0.1450 -0.3626
  412MOL0     C55534   4.791   6.546   5.534  0.0391 -0.4843  0.4075
  412MOL0     N55535   3.953   6.728   5.520  0.6976 -0.5423  0.2795
  412MOL0     N55536   3.857   6.737   5.434  0.8067 -0.4675  0.6103
  412MOL0     C55537   2.819   6.330   4.890  0.1199 -0.9046 -0.0553
  412MOL0     C55538   2.698   6.269   4.855  0.0912 -0.6807 -0.2883
  412MOL0     C55539   2.323   6.049   4.901 -0.5013 -0.0470 -0.2045
  412MOL0     C55540   2.202   6.115   4.929 -0.9307 -0.1724 -0.5329
  412MOL0     C55541   2.077   6.060   4.918 -0.6273 -0.3752  0.4020
  412MOL0     C55542   2.065   5.926   4.887  0.7408 -0.5531 -0.7564
  412MOL0     O55543   1.948   5.849   4.870 -0.0092 -0.2989 -0.1577
  412MOL0     C55544   1.823   5.923   4.849  0.2482  0.4997 -0.0509
  412MOL0     C55545   1.707   5.836   4.900 -0.1914  0.1061 -0.4412
  412MOL0     C55546   1.707   5.699   4.854 -0.1089  0.0156  0.2513
  412MOL0     C55547   1.582   5.629   4.861  0.4568 -0.0573  0.1953
  412MOL0     C55548   1.530   5.607   5.000  0.2890 -0.3594  0.9144
  412MOL0     C55549   1.496   5.605   5.112 -0.6361 -0.2185 -0.4452
  412MOL0     C55550   2.182   5.854   4.847  0.0471  0.6528 -0.2936
  412MOL0     C55551   2.312   5.908   4.852 -0.2011 -0.6963 -0.6373
  412MOL0     C55552   2.422   5.830   4.790 -0.4359 -0.3681 -0.1240
  412MOL0     H55553   2.776   5.954   4.957 -0.4432  0.3828 -0.7957
  412MOL0     H55554   2.984   6.084   5.040  0.3836  2.5204  0.6000
  412MOL0     H55555   3.031   6.273   5.191  0.5531  0.3060  0.3001
  412MOL0     H55556   3.164   6.219   5.095 -1.0760 -0.8750 -2.1297
  412MOL0     H55557   3.240   6.397   5.258 -2.4248  0.7179  1.4408
  412MOL0     H55558   3.133   6.509   5.160 -0.7117 -0.2699  0.3208
  412MOL0     H55559   3.348   6.550   5.068 -1.0845  0.5311 -0.4988
  412MOL0     H55560   3.256   6.450   4.953  1.2308  2.4004 -0.0023
  412MOL0     H55561   3.384   6.250   5.053 -0.8204 -0.3460  3.5125
  412MOL0     H55562   3.469   6.370   4.955  2.0803 -1.6830  1.0698
  412MOL0     H55563   3.464   6.383   5.259 -1.1083 -0.5358 -0.2274
  412MOL0     H55564   3.569   6.271   5.176 -1.2404 -1.0882  0.5981
  412MOL0     H55565   3.656   6.480   5.033  1.2408 -0.6360  0.6938
  412MOL0     H55566   3.543   6.582   5.116 -1.2819 -0.0165  1.1365
  412MOL0     H55567   3.778   6.422   5.232  0.1386 -0.6072 -0.6704
  412MOL0     H55568   3.664   6.506   5.339  0.3873 -1.0335 -0.4758
  412MOL0     H55569   3.848   6.637   5.138  0.2816  0.0555  0.3955
  412MOL0     H55570   3.722   6.722   5.220 -1.3656 -1.2401 -0.3179
  412MOL0     H55571   4.037   6.484   5.325 -1.1995 -3.1098  3.7494
  412MOL0     H55572   4.117   6.590   5.685 -1.1735  1.1346 -0.6480
  412MOL0     H55573   4.138   6.456   5.577  0.5240 -1.4077  0.5433
  412MOL0     H55574   4.306   6.527   5.474  0.6832 -1.4443  1.8663
  412MOL0     H55575   4.262   6.701   5.483 -2.7161 -0.6706 -0.7050
  412MOL0     H55576   4.368   6.518   5.704  0.1699  0.0214  0.7790
  412MOL0     H55577   4.351   6.689   5.725 -0.9042 -0.5517 -0.9370
  412MOL0     H55578   4.533   6.697   5.526 -0.6625  0.9651  0.9936
  412MOL0     H55579   4.525   6.515   5.539  2.6127  0.3990  0.0642
  412MOL0     H55580   4.807   6.644   5.854  1.2590 -0.8133  1.3056
  412MOL0     H55581   5.048   6.638   5.815  0.0110 -0.8537 -1.0130
  412MOL0     H55582   5.426   6.789   5.686 -2.6021 -1.1897 -0.4551
  412MOL0     H55583   5.666   6.772   5.664 -1.2795  0.1357 -0.4987
  412MOL0     H55584   5.847   6.392   5.751 -0.0583 -2.3033 -0.2652
  412MOL0     H55585   5.839   6.357   5.580 -0.6957 -0.2492 -0.1287
  412MOL0     H55586   6.052   6.359   5.583  2.9946 -0.3030  2.0451
  412MOL0     H55587   6.034   6.545   5.563  2.8985 -1.0555 -1.0666
  412MOL0     H55588   6.056   6.573   5.804  1.3467  0.4428  0.5290
  412MOL0     H55589   6.064   6.408   5.833  0.5472  0.4237  1.4314
  412MOL0     H55590   6.296   6.415   5.723  1.8824  1.5312  1.1393
  412MOL0     H55591   6.273   6.523   5.857  0.6582  0.4188 -0.5268
  412MOL0     H55592   6.201   6.681   5.648  0.7654 -2.0155 -1.4356
  412MOL0     H55593   6.349   6.606   5.598 -1.4224 -0.2998 -0.6316
  412MOL0     H55594   6.368   6.831   5.748 -2.3336  0.8921  0.8211
  412MOL0     H55595   6.263   6.753   5.858  0.3420  2.1578  0.0862
  412MOL0     H55596   6.442   6.604   5.940 -1.5930  1.2098  1.0088
  412MOL0     H55597   6.511   6.764   5.923 -2.3566  1.3717 -0.2772
  412MOL0     H55598   6.559   6.559   5.699  1.3797 -0.3853 -0.4042
  412MOL0     H55599   6.615   6.720   5.721 -1.7483  1.8797  1.4969
  412MOL0     H55600   5.632   6.346   5.621  2.6193  0.4011  3.7410
  412MOL0     H55601   5.383   6.367   5.631  2.5554 -2.3456 -3.1342
  412MOL0     H55602   4.943   6.510   5.398  0.8636  1.2179 -0.6705
  412MOL0     H55603   4.726   6.513   5.454  0.9745 -0.7858 -0.2443
  412MOL0     H55604   2.827   6.435   4.865 -0.5998 -0.8493 -0.0743
  412MOL0     H55605   2.623   6.317   4.793 -1.2106 -1.0954  0.9003
  412MOL0     H55606   2.200   6.220   4.960 -0.4867  0.1627 -1.5986
  412MOL0     H55607   1.988   6.117   4.942 -0.4232  0.9865 -1.7853
  412MOL0     H55608   1.806   5.928   4.741 -0.4861 -1.8447 -0.1195
  412MOL0     H55609   1.813   6.021   4.895  1.3364 -0.5207  2.5992
  412MOL0     H55610   1.617   5.892   4.874 -2.0620 -2.0606  0.9183
  412MOL0     H55611   1.714   5.820   5.008  0.2628 -1.8021 -0.7174
  412MOL0     H55612   1.782   5.638   4.905 -1.1463 -0.7615  0.8844
  412MOL0     H55613   1.739   5.700   4.749  0.1613 -0.6333  0.3183
  412MOL0     H55614   1.509   5.692   4.809  2.2281  1.3091 -0.7768
  412MOL0     H55615   1.596   5.536   4.805  1.6393  1.1076 -1.5333
  412MOL0     H55616   1.467   5.580   5.212  1.2027 -0.7015  0.0001
  412MOL0     H55617   2.176   5.752   4.812  1.6765  1.0630 -1.9239
  412MOL0     H55618   2.518   5.850   4.839 -1.0719 -2.0760  1.9762
  412MOL0     H55619   2.400   5.723   4.802  0.4196 -0.4166  1.3111
  412MOL0     H55620   2.424   5.867   4.688 -0.6651 -3.0287 -1.1716
  413MOL0     O55621  11.198   1.324   0.431  0.1102 -0.3986 -0.5044
  413MOL0     C55622  11.148   1.256   0.516 -0.6469  0.1440  0.7983
  413MOL0     O55623  11.130   1.121   0.515  0.8774  0.5503  0.9470
  413MOL0     C55624  11.159   1.054   0.395  0.1353  0.3094 -0.5069
  413MOL0     C55625  11.295   1.041   0.362 -0.0462  0.4621  0.5635
  413MOL0     C55626  11.331   0.960   0.250  0.0390  0.1204  0.6989
  413MOL0     C55627  11.233   0.890   0.179  0.1048  0.5303  0.2387
  413MOL0     O55628  11.257   0.825   0.067  0.9859 -0.7300  0.5951
  413MOL0     C55629  11.323   0.707   0.076  0.0453 -0.2968  0.5358
  413MOL0     C55630  11.319   0.644  -0.065  0.0667  0.2141 -0.2438
  413MOL0     C55631  11.180   0.605  -0.110 -0.6185 -0.1635 -0.2233
  413MOL0     C55632  11.092   0.521  -0.019  0.4361  0.3152 -0.6463
  413MOL0     C55633  10.987   0.460  -0.106 -0.1041  0.1995  1.0967
  413MOL0     C55634  10.912   0.348  -0.030 -0.0486 -1.3356  0.7943
  413MOL0     C55635  10.846   0.255  -0.131  0.2107  0.8531 -0.9054
  413MOL0     C55636  10.768   0.143  -0.061 -0.2124  0.9611 -0.0505
  413MOL0     N55637  10.640   0.188   0.010  0.7625  0.0039 -0.0475
  413MOL0     C55638  10.525   0.231  -0.050  0.2294  0.0212  0.3343
  413MOL0     C55639  10.439   0.277   0.041 -0.0020  0.3311 -0.6433
  413MOL0     C55640  10.294   0.325   0.019  0.1956 -0.0410  0.7348
  413MOL0     C55641  10.307   0.484   0.013  0.5143  0.7087 -0.6356
  413MOL0     C55642  10.189   0.556  -0.057  0.2904  0.5760  0.0188
  413MOL0     C55643  10.200   0.701  -0.071 -0.5490 -0.8650 -0.0630
  413MOL0     O55644  10.248   0.747  -0.203  0.3933 -0.2350  0.2366
  413MOL0     C55645  10.304   0.876  -0.225 -0.2157  0.1369  0.6299
  413MOL0     C55646  10.282   0.995  -0.152 -0.0923  1.2131  0.0853
  413MOL0     C55647  10.353   1.104  -0.188 -0.3721 -0.7385 -0.1274
  413MOL0     C55648  10.455   1.112  -0.295  0.1327 -0.2258 -0.3387
  413MOL0     C55649  10.541   1.233  -0.317  0.2239  0.9844  0.3811
  413MOL0     O55650  10.665   1.217  -0.376  0.0963 -0.3721 -0.5299
  413MOL0     C55651  10.739   1.326  -0.414  0.4273 -0.1056 -0.5146
  413MOL0     C55652  10.676   1.442  -0.460 -0.0288 -0.1369  0.6643
  413MOL0     C55653  10.772   1.537  -0.518 -0.7991 -0.3771  0.8216
  413MOL0     C55654  10.911   1.524  -0.519 -0.0783 -0.1508  0.4708
  413MOL0     O55655  10.984   1.633  -0.568 -0.0497  0.3936  0.3794
  413MOL0     C55656  11.119   1.646  -0.522 -0.9889  0.1976  0.0209
  413MOL0     C55657  11.178   1.783  -0.568  1.0512  0.0323 -0.2483
  413MOL0     C55658  11.318   1.797  -0.504 -0.3952  0.2633 -0.2816
  413MOL0     C55659  11.407   1.894  -0.585 -1.4505  0.4036  0.0646
  413MOL0     C55660  11.540   1.919  -0.514 -0.5226  0.5251  0.1118
  413MOL0     C55661  11.622   1.787  -0.491  0.0780 -1.1256 -0.5109
  413MOL0     C55662  11.767   1.836  -0.457 -0.2671 -0.1730 -0.4757
  413MOL0     C55663  11.867   1.842  -0.579 -0.1761 -0.0724 -0.7373
  413MOL0    Cl55664  12.023   1.904  -0.528 -0.1760  0.2398  0.0338
  413MOL0     C55665  10.962   1.398  -0.470 -0.2814 -0.0050  0.7496
  413MOL0     C55666  10.879   1.302  -0.414 -0.1297  0.0879 -0.4209
  413MOL0     O55667  10.506   1.343  -0.273  0.1829 -0.6031  0.1513
  413MOL0     C55668  10.468   0.996  -0.374  0.4792  0.0290  0.1647
  413MOL0     C55669  10.396   0.880  -0.337  0.3600 -0.4459  0.5483
  413MOL0     N55670  10.504   0.267   0.167  0.6490 -0.3433  0.0378
  413MOL0     N55671  10.622   0.216   0.144  0.6147 -0.8316  0.4761
  413MOL0     C55672  11.094   0.907   0.201 -0.2504  0.7533  0.0369
  413MOL0     C55673  11.061   0.988   0.313 -0.8017 -0.2871 -0.2593
  413MOL0     C55674  11.098   1.325   0.631  0.1590  0.7073 -0.4114
  413MOL0     C55675  11.185   1.394   0.719  0.6425 -0.5135  0.4570
  413MOL0     C55676  11.137   1.467   0.832 -0.3010  0.6301  0.0280
  413MOL0     C55677  10.998   1.465   0.866  0.5964  0.1934 -0.3447
  413MOL0     O55678  10.936   1.528   0.974  0.2438 -0.7354  0.2150
  413MOL0     C55679  11.018   1.578   1.081  0.4796  0.2920 -0.5820
  413MOL0     C55680  10.932   1.619   1.198 -0.1719 -0.3759  0.8461
  413MOL0     C55681  10.892   1.493   1.278 -0.4974  0.2608 -0.5889
  413MOL0     C55682  10.861   1.527   1.422 -0.6548  0.5644 -0.2436
  413MOL0     C55683  10.727   1.583   1.424  0.6734  0.5471  0.1304
  413MOL0     C55684  10.610   1.609   1.438  1.0728 -0.1170  0.0522
  413MOL0     C55685  10.907   1.397   0.781 -0.8376  0.0455  0.0515
  413MOL0     C55686  10.963   1.330   0.672  0.0792 -0.7120  1.0488
  413MOL0     C55687  10.866   1.249   0.586 -0.1285 -0.4695  0.1077
  413MOL0     H55688  11.374   1.088   0.418  3.4119 -3.5698 -0.4118
  413MOL0     H55689  11.438   0.961   0.230 -0.4033  3.4531 -2.7534
  413MOL0     H55690  11.426   0.719   0.111  0.5376  0.6994 -1.1190
  413MOL0     H55691  11.268   0.642   0.145  0.7295  0.9305  2.2928
  413MOL0     H55692  11.385   0.556  -0.058  2.7492  2.1669  0.5137
  413MOL0     H55693  11.367   0.706  -0.141  1.0447 -0.9186 -0.5862
  413MOL0     H55694  11.202   0.532  -0.189  0.0387 -0.9152  0.6371
  413MOL0     H55695  11.126   0.689  -0.154 -0.3278 -2.2204 -5.1857
  413MOL0     H55696  11.150   0.440   0.024 -1.6155 -0.4442  0.8732
  413MOL0     H55697  11.050   0.585   0.059 -1.6617 -0.4977 -1.0464
  413MOL0     H55698  10.916   0.537  -0.139 -1.1147 -0.9256  0.5651
  413MOL0     H55699  11.025   0.408  -0.194 -0.9989  0.7948  0.3437
  413MOL0     H55700  10.987   0.289   0.023  3.0957  0.0424 -1.7534
  413MOL0     H55701  10.834   0.387   0.035 -3.7989 -0.3335 -3.7758
  413MOL0     H55702  10.924   0.204  -0.187 -1.6910 -2.3620 -0.9025
  413MOL0     H55703  10.779   0.308  -0.200 -3.0358  1.6887  2.5314
  413MOL0     H55704  10.741   0.061  -0.128  1.2187 -1.5659  2.2690
  413MOL0     H55705  10.830   0.096   0.016 -0.1334  0.8835 -0.1604
  413MOL0     H55706  10.499   0.212  -0.154 -2.3832 -4.5781  1.5473
  413MOL0     H55707  10.272   0.301  -0.086 -0.8624  3.4906 -0.0113
  413MOL0     H55708  10.222   0.280   0.088  0.9096  0.9770  2.1930
  413MOL0     H55709  10.316   0.522   0.115 -2.2330  0.5313 -0.2399
  413MOL0     H55710  10.405   0.508  -0.028  1.0359 -0.4259 -0.1027
  413MOL0     H55711  10.098   0.537   0.001  1.7796  1.8140  2.9943
  413MOL0     H55712  10.187   0.517  -0.159  2.3426  1.4834 -0.4346
  413MOL0     H55713  10.274   0.745  -0.003  0.0897  1.6700 -2.2089
  413MOL0     H55714  10.099   0.741  -0.062  0.9856  3.4288  0.4162
  413MOL0     H55715  10.220   1.004  -0.063  0.3428 -0.7897  0.6440
  413MOL0     H55716  10.339   1.200  -0.139  0.5917 -0.3056 -0.6657
  413MOL0     H55717  10.569   1.458  -0.463  0.1479  1.3511  1.2140
  413MOL0     H55718  10.709   1.606  -0.574 -3.4908 -2.2938  1.3097
  413MOL0     H55719  11.120   1.629  -0.414  1.3582  2.0741  0.3763
  413MOL0     H55720  11.180   1.569  -0.570 -2.3016 -0.0478 -1.3387
  413MOL0     H55721  11.174   1.794  -0.677  0.2994 -1.8354 -0.4414
  413MOL0     H55722  11.120   1.860  -0.515  0.0161 -0.1727 -1.0468
  413MOL0     H55723  11.295   1.858  -0.416 -1.0428  1.6560 -1.3614
  413MOL0     H55724  11.371   1.707  -0.473  1.0447  1.8155  2.1434
  413MOL0     H55725  11.362   1.994  -0.586  2.3209  2.2817  0.0056
  413MOL0     H55726  11.431   1.855  -0.684 -0.6197  0.5396  0.2087
  413MOL0     H55727  11.511   1.956  -0.415 -0.5481 -0.0083  0.3028
  413MOL0     H55728  11.598   1.994  -0.569 -1.4941  1.7069  0.6356
  413MOL0     H55729  11.574   1.731  -0.411 -0.3877  0.0865  0.0845
  413MOL0     H55730  11.624   1.724  -0.580  1.1857  0.8351 -1.9450
  413MOL0     H55731  11.811   1.766  -0.385  4.6753  1.8563 -1.1080
  413MOL0     H55732  11.758   1.935  -0.412 -0.9376  0.4483 -1.9187
  413MOL0     H55733  11.867   1.737  -0.608 -1.5684 -1.5505  3.8353
  413MOL0     H55734  11.841   1.903  -0.667  0.4615 -0.7300 -1.3982
  413MOL0     H55735  11.068   1.379  -0.467  0.0532  1.6167  0.3364
  413MOL0     H55736  10.917   1.212  -0.368  0.3258  0.3481 -0.2823
  413MOL0     H55737  10.538   0.986  -0.457 -0.1768 -0.5191 -0.3378
  413MOL0     H55738  10.408   0.788  -0.394  0.1039  0.5869 -1.2561
  413MOL0     H55739  11.016   0.863   0.140  0.0586 -0.5609  0.5406
  413MOL0     H55740  10.956   1.012   0.328 -0.6310 -0.1343  0.7416
  413MOL0     H55741  11.289   1.409   0.690  0.2877  2.3926  0.4425
  413MOL0     H55742  11.205   1.528   0.891 -1.3321  0.2057  1.7509
  413MOL0     H55743  11.074   1.667   1.051 -1.1777  1.0947 -1.4136
  413MOL0     H55744  11.092   1.505   1.115 -0.2544  0.0537  0.5243
  413MOL0     H55745  10.844   1.669   1.157  1.3871 -1.1688 -4.2788
  413MOL0     H55746  10.986   1.691   1.260 -2.5270 -1.2520  4.1368
  413MOL0     H55747  10.976   1.425   1.263 -0.9101  0.2057 -3.1443
  413MOL0     H55748  10.802   1.444   1.239 -0.8492 -1.1769  1.8447
  413MOL0     H55749  10.862   1.440   1.488  2.7093 -1.1564 -2.3262
  413MOL0     H55750  10.923   1.610   1.458  0.0250  0.4664 -1.1644
  413MOL0     H55751  10.506   1.635   1.442  1.2401  0.6813 -0.5821
  413MOL0     H55752  10.806   1.377   0.814  0.4242 -4.1823  2.0589
  413MOL0     H55753  10.768   1.296   0.574  0.9574  1.6428 -0.8568
  413MOL0     H55754  10.900   1.242   0.483 -0.0501  1.1796 -0.0046
  413MOL0     H55755  10.855   1.155   0.642 -1.8186 -0.8953 -0.8797
  414MOL0     O55756   2.721   0.992   6.413 -0.5372  0.1159  0.0338
  414MOL0     C55757   2.705   1.103   6.364  0.4729  0.4415 -0.1051
  414MOL0     O55758   2.800   1.181   6.291 -0.2621  0.5091 -0.8133
  414MOL0     C55759   2.926   1.126   6.293 -0.5059 -0.7400 -0.9539
  414MOL0     C55760   3.010   1.143   6.401 -1.3714  1.0233 -0.1382
  414MOL0     C55761   3.143   1.084   6.388  0.9876  0.3330  0.0940
  414MOL0     C55762   3.185   1.019   6.277 -0.7211  0.3086  0.5466
  414MOL0     O55763   3.316   0.971   6.280  0.2041 -0.6168  0.1363
  414MOL0     C55764   3.386   0.901   6.171  0.6232 -0.6325 -0.6406
  414MOL0     C55765   3.437   1.000   6.060  0.3665 -0.7827  0.0084
  414MOL0     C55766   3.540   1.109   6.105  0.2181 -0.2104  0.0713
  414MOL0     C55767   3.680   1.063   6.112  0.3497  1.1367  1.0667
  414MOL0     C55768   3.774   1.156   6.176 -0.4326 -0.1318 -0.6889
  414MOL0     C55769   3.794   1.292   6.106  0.3329 -0.0340 -0.1717
  414MOL0     C55770   3.884   1.280   5.987  0.2256 -0.9907 -0.1337
  414MOL0     C55771   3.946   1.419   5.945 -0.6222  0.1407  0.1055
  414MOL0     N55772   4.033   1.402   5.827  0.6588 -0.6539  0.1526
  414MOL0     C55773   4.145   1.325   5.820  0.9949 -0.0112 -0.5752
  414MOL0     C55774   4.204   1.342   5.697 -0.6127 -0.1162 -1.0095
  414MOL0     C55775   4.325   1.270   5.647  0.3065  0.7565 -0.1732
  414MOL0     C55776   4.455   1.334   5.692  0.0155 -0.1187 -1.4488
  414MOL0     C55777   4.586   1.252   5.678  0.3816 -0.1946 -0.5471
  414MOL0     C55778   4.717   1.337   5.697 -1.1075  0.8275 -0.4366
  414MOL0     O55779   4.826   1.251   5.733 -0.0701  0.5109  0.3266
  414MOL0     C55780   4.946   1.287   5.789 -0.3848  0.4791 -0.4523
  414MOL0     C55781   5.046   1.192   5.824  0.1197 -0.0180  0.3282
  414MOL0     C55782   5.165   1.226   5.883  0.3674 -0.3990 -0.4981
  414MOL0     C55783   5.197   1.355   5.916  0.1952 -0.6048 -0.0435
  414MOL0     C55784   5.328   1.387   5.973  0.2599 -0.2810  0.0350
  414MOL0     O55785   5.347   1.516   5.995  0.1348  0.2408  0.4934
  414MOL0     C55786   5.479   1.551   5.990  0.0811  0.5719  0.3849
  414MOL0     C55787   5.520   1.636   5.886 -0.0820 -0.3154  0.4003
  414MOL0     C55788   5.645   1.702   5.900 -0.3343  0.5426  0.3021
  414MOL0     C55789   5.725   1.681   6.014  0.4803  0.0447  0.3874
  414MOL0     O55790   5.836   1.748   6.031 -0.9503 -0.4600 -0.3538
  414MOL0     C55791   5.928   1.738   5.924  0.2969 -0.6454  0.4852
  414MOL0     C55792   6.008   1.610   5.955  0.6735 -1.4663 -0.1290
  414MOL0     C55793   6.102   1.571   5.835  0.3485  0.3622  0.6928
  414MOL0     C55794   6.173   1.429   5.846 -0.8937  0.8744  0.9919
  414MOL0     C55795   6.246   1.404   5.709 -0.2943 -0.2327 -0.8343
  414MOL0     C55796   6.150   1.354   5.608  0.7503  0.0632  0.5687
  414MOL0     C55797   6.226   1.296   5.485  0.4855  0.0814 -0.1218
  414MOL0     C55798   6.312   1.384   5.399  0.4696 -0.1787 -0.3854
  414MOL0    Cl55799   6.419   1.294   5.283 -0.3039 -0.0373 -0.3205
  414MOL0     C55800   5.686   1.589   6.109  0.2219 -0.4397  0.6217
  414MOL0     C55801   5.561   1.520   6.096 -0.5333  0.9552  0.7523
  414MOL0     O55802   5.404   1.294   6.003  0.2862 -0.2462  0.0567
  414MOL0     C55803   5.101   1.451   5.891 -0.3817 -0.3099  0.5086
  414MOL0     C55804   4.979   1.423   5.823 -0.7424  0.6293  0.2576
  414MOL0     N55805   4.115   1.424   5.630  0.7188  0.2023  0.2361
  414MOL0     N55806   4.015   1.462   5.700 -0.9289 -0.2268  0.7134
  414MOL0     C55807   3.105   1.010   6.174  0.2668  1.3909  0.2678
  414MOL0     C55808   2.975   1.062   6.178  0.1261 -0.4065 -0.2410
  414MOL0     C55809   2.575   1.164   6.396 -0.8004  0.1097  0.5050
  414MOL0     C55810   2.549   1.282   6.326  0.5823  0.1336 -0.6637
  414MOL0     C55811   2.429   1.347   6.349  0.3487 -0.3300  0.0354
  414MOL0     C55812   2.325   1.304   6.437  0.9234 -0.3361  0.2197
  414MOL0     O55813   2.212   1.375   6.456 -0.2546  0.0863  0.0275
  414MOL0     C55814   2.188   1.504   6.400 -0.3476  0.2256  0.5515
  414MOL0     C55815   2.049   1.548   6.427 -0.2384 -0.6255  0.0268
  414MOL0     C55816   1.953   1.448   6.361  0.2201  0.2147 -0.1911
  414MOL0     C55817   1.810   1.486   6.391 -0.2858  0.0136  0.4479
  414MOL0     C55818   1.727   1.520   6.274  0.0040  0.3002  0.3579
  414MOL0     C55819   1.649   1.561   6.184  0.4584  0.1404 -0.2142
  414MOL0     C55820   2.342   1.179   6.502  0.6477  0.7441  0.6784
  414MOL0     C55821   2.465   1.109   6.478 -0.5559  0.1860  0.5609
  414MOL0     C55822   2.484   0.973   6.543 -0.2448  0.5141 -0.1937
  414MOL0     H55823   2.974   1.190   6.492  1.2806 -0.9134  2.1032
  414MOL0     H55824   3.219   1.095   6.465  2.2292 -1.3160 -0.8216
  414MOL0     H55825   3.479   0.867   6.218  0.3013 -0.3422  0.2291
  414MOL0     H55826   3.325   0.816   6.140 -1.5498  0.2318  0.9176
  414MOL0     H55827   3.346   1.049   6.024 -0.7162 -1.2395  1.9421
  414MOL0     H55828   3.478   0.940   5.978  2.2541  1.3388 -0.6999
  414MOL0     H55829   3.517   1.151   6.203  1.2310  0.9584 -0.1616
  414MOL0     H55830   3.530   1.183   6.025  0.2221 -0.3456 -0.0530
  414MOL0     H55831   3.687   0.974   6.176 -1.1936  0.5590  0.4909
  414MOL0     H55832   3.717   1.043   6.011 -3.4423  2.5268 -0.7876
  414MOL0     H55833   3.754   1.171   6.282  3.4219 -1.3891  0.3616
  414MOL0     H55834   3.873   1.110   6.181 -0.1760  0.3813 -0.9781
  414MOL0     H55835   3.693   1.326   6.079  0.7957  0.9602 -0.7024
  414MOL0     H55836   3.842   1.361   6.176 -0.3917 -0.6180  0.9377
  414MOL0     H55837   3.826   1.238   5.905  2.4685 -1.0784 -1.7529
  414MOL0     H55838   3.962   1.212   6.024 -0.2354 -1.0722  0.7193
  414MOL0     H55839   3.870   1.492   5.916 -0.7066 -0.7120 -2.0091
  414MOL0     H55840   4.002   1.465   6.028  1.5980 -1.8550 -0.1565
  414MOL0     H55841   4.186   1.260   5.896 -0.2224 -2.7422 -2.1130
  414MOL0     H55842   4.319   1.165   5.675 -0.3777  1.2745  1.7755
  414MOL0     H55843   4.326   1.274   5.537 -1.0979  0.3961 -0.2162
  414MOL0     H55844   4.458   1.428   5.637  1.1581  0.7081 -0.0636
  414MOL0     H55845   4.453   1.353   5.800 -0.7926 -2.0423 -1.0917
  414MOL0     H55846   4.578   1.216   5.575 -0.6743  0.6272 -0.7691
  414MOL0     H55847   4.596   1.169   5.748  3.3410 -1.6618 -2.4986
  414MOL0     H55848   4.690   1.410   5.774 -0.9473 -0.3761  0.7965
  414MOL0     H55849   4.752   1.380   5.603  0.3395 -0.2675 -0.4277
  414MOL0     H55850   5.024   1.092   5.788  0.6211 -0.8183  2.1298
  414MOL0     H55851   5.240   1.149   5.899  2.5487  1.9328  1.5497
  414MOL0     H55852   5.448   1.657   5.808  1.0148 -0.9573 -0.8309
  414MOL0     H55853   5.670   1.781   5.830  1.0090  0.5134  0.7240
  414MOL0     H55854   5.879   1.736   5.826  0.1644 -0.4543  0.5480
  414MOL0     H55855   5.992   1.827   5.917 -0.5071 -0.0728  0.2227
  414MOL0     H55856   6.060   1.632   6.049 -2.2650  0.5475  1.1647
  414MOL0     H55857   5.934   1.531   5.969  0.6216 -1.3087  0.4892
  414MOL0     H55858   6.038   1.575   5.746 -1.0309 -1.8734  1.4967
  414MOL0     H55859   6.183   1.642   5.819  0.4389  0.0883 -0.1386
  414MOL0     H55860   6.091   1.365   5.879 -2.0814  2.3339  0.9529
  414MOL0     H55861   6.245   1.445   5.926  1.5289 -1.0915 -0.6374
  414MOL0     H55862   6.332   1.337   5.723  0.3908  0.8824  0.4898
  414MOL0     H55863   6.277   1.499   5.664 -1.3336  0.4460 -0.1446
  414MOL0     H55864   6.089   1.275   5.654  0.0240  1.1208  1.4772
  414MOL0     H55865   6.097   1.443   5.574  3.9217  1.4851 -1.1059
  414MOL0     H55866   6.152   1.252   5.417  1.5809 -1.7609 -0.1895
  414MOL0     H55867   6.277   1.207   5.523 -0.2380 -0.2299  0.1317
  414MOL0     H55868   6.239   1.448   5.348 -0.1884 -0.3674  0.2955
  414MOL0     H55869   6.373   1.446   5.466  0.0186  0.5327 -0.6188
  414MOL0     H55870   5.746   1.566   6.197 -3.5636 -1.0156  3.3125
  414MOL0     H55871   5.526   1.443   6.165  1.1995 -0.0150  0.6209
  414MOL0     H55872   5.118   1.548   5.937 -2.0778 -0.4396  1.4686
  414MOL0     H55873   4.906   1.503   5.816  0.2763  1.8063  2.3032
  414MOL0     H55874   3.126   0.969   6.075 -3.2463  1.5863 -0.6996
  414MOL0     H55875   2.908   1.054   6.092 -1.1453 -0.6610  0.7461
  414MOL0     H55876   2.619   1.332   6.258  0.3452  0.5824 -0.5846
  414MOL0     H55877   2.407   1.438   6.294 -1.9429  0.4063  1.9683
  414MOL0     H55878   2.207   1.510   6.293  0.7998 -0.9508  0.6557
  414MOL0     H55879   2.260   1.573   6.446 -0.4281  0.7206 -0.0724
  414MOL0     H55880   2.027   1.642   6.375 -3.7388 -1.9705 -1.2507
  414MOL0     H55881   2.030   1.549   6.535  0.2529  2.5550  0.1979
  414MOL0     H55882   1.968   1.349   6.404  0.9941  1.1645  1.8461
  414MOL0     H55883   1.961   1.448   6.252 -1.9574  0.5317 -0.4056
  414MOL0     H55884   1.771   1.392   6.431 -0.6791 -0.7748 -1.6508
  414MOL0     H55885   1.794   1.556   6.473 -0.7351 -1.8239  1.9882
  414MOL0     H55886   1.577   1.607   6.120  0.3311 -0.8079 -0.7777
  414MOL0     H55887   2.261   1.133   6.558  1.3201 -1.5282 -0.0909
  414MOL0     H55888   2.492   0.907   6.457  2.1880  2.8674 -1.9378
  414MOL0     H55889   2.579   0.967   6.598 -0.4037 -1.4867 -0.0537
  414MOL0     H55890   2.401   0.947   6.609 -0.4014  4.4577  1.4120
  415MOL0     O55891  11.168   6.306  10.342  0.3501  0.2716  0.1794
  415MOL0     C55892  11.202   6.186  10.338 -0.4424 -0.3849  0.6519
  415MOL0     O55893  11.270   6.122  10.239  0.3855  0.6690  0.3999
  415MOL0     C55894  11.299   6.200  10.127 -0.3258  1.1448  0.3365
  415MOL0     C55895  11.358   6.323  10.131 -0.3546 -1.1874 -0.5152
  415MOL0     C55896  11.376   6.394  10.013 -0.4639  0.6032  0.8405
  415MOL0     C55897  11.321   6.347   9.890 -0.0827 -0.5265  0.1623
  415MOL0     O55898  11.325   6.410   9.767 -0.4829 -0.0676 -0.1066
  415MOL0     C55899  11.325   6.555   9.779 -0.0576  0.2850 -0.2126
  415MOL0     C55900  11.415   6.614   9.675  0.6978  0.2579 -0.2175
  415MOL0     C55901  11.387   6.763   9.643 -0.2655 -0.3896 -0.2994
  415MOL0     C55902  11.521   6.837   9.626 -0.6161 -0.2050  0.2533
  415MOL0     C55903  11.487   6.992   9.622 -0.3621  0.3951 -0.3148
  415MOL0     C55904  11.599   7.072   9.552 -0.6664 -0.2635  0.6231
  415MOL0     C55905  11.745   7.012   9.553  0.3413 -0.1312  0.1183
  415MOL0     C55906  11.847   7.097   9.472  0.0205  0.6425  0.9141
  415MOL0     N55907  11.870   7.224   9.543  0.1566 -0.0008  0.1988
  415MOL0     C55908  11.954   7.238   9.650 -1.1422 -0.3435 -0.0917
  415MOL0     C55909  11.985   7.371   9.659  0.0629  0.9203  1.0392
  415MOL0     C55910  12.090   7.428   9.751 -0.1268  0.3299  0.3022
  415MOL0     C55911  12.232   7.417   9.695  0.4318  0.5562 -0.7281
  415MOL0     C55912  12.327   7.484   9.797 -0.6738 -0.0931 -0.0958
  415MOL0     C55913  12.476   7.447   9.779  0.1685 -0.1422 -0.4453
  415MOL0     O55914  12.520   7.481   9.647 -0.2624 -0.0330  0.5920
  415MOL0     C55915  12.638   7.426   9.594 -0.0697 -0.0462  0.2567
  415MOL0     C55916  12.732   7.363   9.672  0.4451  1.2741  0.0937
  415MOL0     C55917  12.850   7.302   9.629 -0.6236  0.6587  0.2343
  415MOL0     C55918  12.878   7.305   9.493  0.4150 -0.2410  0.5083
  415MOL0     C55919  13.003   7.263   9.441 -0.3927 -0.0372 -0.5377
  415MOL0     O55920  13.009   7.237   9.309  0.5779  0.0182  0.1167
  415MOL0     C55921  13.125   7.220   9.246 -1.1049 -0.0719  0.4183
  415MOL0     C55922  13.150   7.104   9.177  0.6058 -0.4903 -0.3379
  415MOL0     C55923  13.275   7.074   9.115 -0.2037  0.4911 -0.1558
  415MOL0     C55924  13.385   7.160   9.127 -0.1159  0.3445  0.0672
  415MOL0     O55925  13.516   7.138   9.086  0.5604 -0.4520  0.0694
  415MOL0     C55926  13.558   7.004   9.097  0.3773 -0.1024 -0.7160
  415MOL0     C55927  13.711   7.004   9.101 -1.1921 -0.1266  0.6424
  415MOL0     C55928  13.780   7.071   8.986 -0.7360  0.0535  0.2285
  415MOL0     C55929  13.931   7.075   9.012 -0.3188  0.2848  0.5568
  415MOL0     C55930  13.989   7.147   8.895  0.5192  0.3873 -0.9844
  415MOL0     C55931  14.137   7.176   8.927 -0.3792  0.8799 -0.9627
  415MOL0     C55932  14.207   7.274   8.833  0.3677 -0.3992 -0.4569
  415MOL0     C55933  14.189   7.239   8.682 -0.6509  0.1041 -0.0542
  415MOL0    Cl55934  14.288   7.353   8.604  0.2450 -0.1324  0.0411
  415MOL0     C55935  13.351   7.290   9.179 -0.3402  0.0887 -0.1866
  415MOL0     C55936  13.232   7.316   9.252 -0.2145 -0.6412 -0.2228
  415MOL0     O55937  13.102   7.275   9.512  0.3100 -0.1602  0.3455
  415MOL0     C55938  12.782   7.363   9.402 -0.3002  0.2082 -0.4346
  415MOL0     C55939  12.667   7.430   9.452  1.2873 -0.4703 -0.2816
  415MOL0     N55940  11.914   7.436   9.553 -0.6866  0.1955  0.0162
  415MOL0     N55941  11.852   7.348   9.485  0.1793  0.4350 -0.5784
  415MOL0     C55942  11.247   6.231   9.896 -0.9325 -0.2437  0.5625
  415MOL0     C55943  11.232   6.152  10.011  0.2025 -0.0314 -1.5032
  415MOL0     C55944  11.191   6.102  10.459 -0.7166  0.6931 -0.4664
  415MOL0     C55945  11.257   5.978  10.462 -0.0988 -0.2859  0.0848
  415MOL0     C55946  11.247   5.890  10.566  0.4797 -0.0926  0.3954
  415MOL0     C55947  11.170   5.933  10.677  0.1898  0.2580  0.2809
  415MOL0     O55948  11.150   5.855  10.789 -0.0188 -0.3003 -0.1251
  415MOL0     C55949  11.203   5.727  10.792 -1.3277  0.6101  0.9373
  415MOL0     C55950  11.204   5.662  10.930 -0.8614 -0.0305  0.1420
  415MOL0     C55951  11.289   5.741  11.033  0.5386  0.0967  0.9835
  415MOL0     C55952  11.314   5.677  11.165  0.5915  0.2520 -1.0980
  415MOL0     C55953  11.384   5.548  11.172 -0.1260 -0.4467  0.1352
  415MOL0     C55954  11.461   5.456  11.184 -0.2153 -0.2064  0.0277
  415MOL0     C55955  11.119   6.052  10.681  0.1472 -0.3514 -1.3359
  415MOL0     C55956  11.122   6.141  10.579  1.2484  0.5031  0.1186
  415MOL0     C55957  11.045   6.267  10.603  0.1506 -0.3957 -0.1264
  415MOL0     H55958  11.408   6.356  10.222 -0.4908 -3.4580  0.4507
  415MOL0     H55959  11.451   6.472  10.010  2.0969 -1.6446 -2.7030
  415MOL0     H55960  11.221   6.575   9.752 -0.3126 -2.5525 -1.6986
  415MOL0     H55961  11.348   6.603   9.875  3.0364 -1.3264 -0.0307
  415MOL0     H55962  11.403   6.572   9.574  1.4990 -3.5351  1.1082
  415MOL0     H55963  11.518   6.603   9.712  0.8833 -0.4924 -0.9033
  415MOL0     H55964  11.340   6.799   9.735  0.8688 -1.3189  0.6768
  415MOL0     H55965  11.313   6.791   9.568  1.5244 -0.2758 -2.1059
  415MOL0     H55966  11.584   6.805   9.709 -1.0170 -0.0154  0.6359
  415MOL0     H55967  11.556   6.802   9.529  0.4969  1.1863  0.1322
  415MOL0     H55968  11.398   7.008   9.561 -0.0293  2.6886 -0.2729
  415MOL0     H55969  11.472   7.020   9.726  0.6013 -3.5591  1.0770
  415MOL0     H55970  11.571   7.077   9.446  1.5655 -2.2952 -0.1525
  415MOL0     H55971  11.606   7.175   9.590 -1.4835  0.4961 -1.1454
  415MOL0     H55972  11.750   6.913   9.508  1.2551  1.3222 -3.3007
  415MOL0     H55973  11.777   7.008   9.657  0.5700  0.4010  0.0695
  415MOL0     H55974  11.933   7.031   9.458 -0.1505  0.6568 -0.2818
  415MOL0     H55975  11.804   7.106   9.372  1.1950 -0.6245  0.2579
  415MOL0     H55976  11.984   7.154   9.712  0.6315  0.7988  0.6554
  415MOL0     H55977  12.076   7.536   9.757  1.4880  0.6458 -1.0935
  415MOL0     H55978  12.085   7.385   9.852  0.6856  1.2133  0.7302
  415MOL0     H55979  12.248   7.310   9.685 -0.1310  0.5923 -2.2902
  415MOL0     H55980  12.246   7.470   9.600  1.8900  1.0478 -0.2690
  415MOL0     H55981  12.298   7.445   9.895 -1.1154 -1.0292 -0.5984
  415MOL0     H55982  12.313   7.592   9.786  0.9836  0.2967  1.2165
  415MOL0     H55983  12.484   7.339   9.795  2.1167  0.3346  2.5274
  415MOL0     H55984  12.535   7.484   9.863  0.8897 -2.8803  0.3787
  415MOL0     H55985  12.726   7.367   9.781  0.6247 -3.5012  0.4652
  415MOL0     H55986  12.923   7.266   9.701 -0.2219  0.9696 -0.0138
  415MOL0     H55987  13.067   7.036   9.163 -0.8170  1.5969 -2.7257
  415MOL0     H55988  13.283   6.981   9.059  0.0465 -0.1987  0.9982
  415MOL0     H55989  13.518   6.937   9.173 -0.7298  2.0631  0.7388
  415MOL0     H55990  13.538   6.959   9.000  0.0697 -0.7483 -0.3567
  415MOL0     H55991  13.754   7.047   9.193  2.4759  2.4785 -1.9867
  415MOL0     H55992  13.748   6.901   9.107  3.1267  1.2399  0.9536
  415MOL0     H55993  13.759   7.011   8.897  0.2316  0.1992 -0.1006
  415MOL0     H55994  13.749   7.176   8.984  0.4784  0.4543  1.1144
  415MOL0     H55995  13.976   6.976   9.023  3.0018  1.6133 -0.0362
  415MOL0     H55996  13.942   7.139   9.101  0.0474  2.6749 -1.1114
  415MOL0     H55997  13.931   7.239   8.878 -0.5288 -0.0234  0.1990
  415MOL0     H55998  13.996   7.087   8.804  3.6906  0.0856 -0.6553
  415MOL0     H55999  14.152   7.207   9.031 -2.2612  0.3015 -0.4830
  415MOL0     H56000  14.180   7.076   8.912  1.7632  1.5684  0.0668
  415MOL0     H56001  14.313   7.265   8.860  0.1431 -1.9462  0.0113
  415MOL0     H56002  14.175   7.377   8.854 -1.3028 -0.6321 -1.6093
  415MOL0     H56003  14.224   7.137   8.665  0.7331 -0.0007  2.8510
  415MOL0     H56004  14.087   7.247   8.643 -0.4045  1.4333 -0.4756
  415MOL0     H56005  13.435   7.359   9.180 -0.3179  0.1415 -1.9376
  415MOL0     H56006  13.226   7.404   9.315 -0.4495  0.1135 -1.2671
  415MOL0     H56007  12.805   7.371   9.296  0.3934  0.5350 -0.2638
  415MOL0     H56008  12.608   7.471   9.371  2.6656  0.3076 -0.9350
  415MOL0     H56009  11.196   6.192   9.808  0.8796  1.0645 -1.1412
  415MOL0     H56010  11.168   6.065  10.028  0.9972 -0.1913  1.2101
  415MOL0     H56011  11.314   5.943  10.377 -1.0924  0.8764 -1.0821
  415MOL0     H56012  11.300   5.796  10.554 -0.5634 -0.5740 -0.6657
  415MOL0     H56013  11.308   5.731  10.761 -1.8415 -2.3068 -1.8045
  415MOL0     H56014  11.161   5.654  10.722  0.4326 -1.1572  1.6111
  415MOL0     H56015  11.251   5.563  10.926  0.9851  0.7774  0.3861
  415MOL0     H56016  11.108   5.646  10.979 -0.4720 -0.6519  0.7338
  415MOL0     H56017  11.220   5.825  11.044 -1.9596 -1.9819  2.6729
  415MOL0     H56018  11.383   5.771  10.988  1.0071 -0.6629  1.4213
  415MOL0     H56019  11.384   5.737  11.223  1.4610 -2.2954  0.6459
  415MOL0     H56020  11.214   5.675  11.209  1.0581 -0.6497 -0.0309
  415MOL0     H56021  11.529   5.374  11.199 -1.2752 -0.8657  1.5556
  415MOL0     H56022  11.074   6.081  10.776  0.8827 -0.9757 -0.7788
  415MOL0     H56023  11.111   6.354  10.599  1.8377 -1.5192  1.3254
  415MOL0     H56024  10.956   6.282  10.541  0.2752  1.2311  0.0569
  415MOL0     H56025  11.005   6.258  10.704 -0.8953  1.2583 -0.3648
  416MOL0     O56026   3.259   0.079  10.573 -0.0565 -0.5787  0.1793
  416MOL0     C56027   3.226   0.026  10.469 -0.3942 -0.3697 -0.2508
  416MOL0     O56028   3.292   0.031  10.357  0.0808 -0.3367  0.1158
  416MOL0     C56029   3.425   0.057  10.351  0.3323  0.1976 -0.6948
  416MOL0     C56030   3.464   0.126  10.236  0.3266  0.2601 -0.5739
  416MOL0     C56031   3.598   0.170  10.220  0.6983 -0.4679  0.4949
  416MOL0     C56032   3.685   0.145  10.321  0.3313  0.1157 -0.6569
  416MOL0     O56033   3.812   0.177  10.288 -0.9121 -0.1148  0.9967
  416MOL0     C56034   3.920   0.163  10.378 -0.9612 -0.1508  0.8375
  416MOL0     C56035   4.053   0.192  10.299 -0.0155  1.0194  0.3962
  416MOL0     C56036   4.172   0.239  10.385  0.7698  0.2123  0.0746
  416MOL0     C56037   4.161   0.378  10.429  0.2118 -0.7066  0.6695
  416MOL0     C56038   4.279   0.428  10.520  0.5394 -0.1036  0.0170
  416MOL0     C56039   4.255   0.566  10.593  0.0620 -0.1225 -0.0356
  416MOL0     C56040   4.196   0.572  10.738 -0.1149  0.2454 -0.2699
  416MOL0     C56041   4.084   0.678  10.756 -0.1943  0.5041 -0.1259
  416MOL0     N56042   3.953   0.617  10.742  1.1522 -0.2250 -0.1051
  416MOL0     C56043   3.883   0.626  10.623  0.0201 -0.2844 -0.5808
  416MOL0     C56044   3.783   0.529  10.633 -0.8163 -0.2491 -1.1405
  416MOL0     C56045   3.699   0.487  10.529  0.5731 -0.0783  0.1428
  416MOL0     C56046   3.550   0.462  10.562 -0.0441  0.0183  0.0193
  416MOL0     C56047   3.467   0.459  10.431  0.3518 -0.2991  0.2721
  416MOL0     C56048   3.321   0.413  10.446 -0.1115 -0.2667  0.0474
  416MOL0     O56049   3.243   0.518  10.494  0.2350 -0.0368  0.5968
  416MOL0     C56050   3.107   0.493  10.485  0.2819  1.1703  0.3896
  416MOL0     C56051   3.045   0.365  10.492  0.9521  0.7412  0.7393
  416MOL0     C56052   2.907   0.347  10.478  0.4734  0.1406  0.1867
  416MOL0     C56053   2.822   0.457  10.472  0.6328  0.0666  0.0323
  416MOL0     C56054   2.677   0.446  10.455  0.5529  0.1361 -0.6821
  416MOL0     O56055   2.591   0.546  10.498 -0.0219  0.1864  0.1896
  416MOL0     C56056   2.457   0.523  10.505  0.0401 -0.1034 -0.5207
  416MOL0     C56057   2.390   0.637  10.463 -0.7107  0.3919  0.0909
  416MOL0     C56058   2.254   0.629  10.442  0.5815 -0.7035 -0.9106
  416MOL0     C56059   2.184   0.513  10.468 -0.0051 -0.3136 -0.0734
  416MOL0     O56060   2.053   0.520  10.438 -0.2209 -0.3263 -0.2764
  416MOL0     C56061   1.954   0.434  10.509  1.1861  0.3579 -0.1355
  416MOL0     C56062   1.817   0.505  10.507  0.8721  0.2912 -0.6292
  416MOL0     C56063   1.792   0.576  10.641  0.3369  0.1940 -0.1386
  416MOL0     C56064   1.649   0.615  10.651 -0.2363 -0.0014 -0.1352
  416MOL0     C56065   1.625   0.703  10.767 -0.0781 -0.9269 -0.3118
  416MOL0     C56066   1.478   0.761  10.766 -0.4174 -0.3967  0.0546
  416MOL0     C56067   1.368   0.665  10.830  0.4027  0.6447  1.1060
  416MOL0     C56068   1.266   0.634  10.723 -0.8291  0.0016  0.2737
  416MOL0    Cl56069   1.116   0.571  10.799 -0.0649  0.1993  0.1606
  416MOL0     C56070   2.248   0.403  10.511  0.8589  0.3241 -0.7415
  416MOL0     C56071   2.381   0.407  10.535 -0.7494  0.5417 -0.3337
  416MOL0     O56072   2.638   0.338  10.406 -0.1690 -0.8614 -0.4225
  416MOL0     C56073   2.873   0.583  10.483 -0.7139 -0.5401 -0.3937
  416MOL0     C56074   3.017   0.593  10.495  0.7567 -0.6212 -0.0443
  416MOL0     N56075   3.799   0.468  10.758  0.7464 -0.0580  0.2935
  416MOL0     N56076   3.894   0.526  10.819  0.6762  0.4986  0.8083
  416MOL0     C56077   3.642   0.083  10.447 -0.8354  0.5842  0.2277
  416MOL0     C56078   3.517   0.029  10.448  0.7600 -0.2083  0.1169
  416MOL0     C56079   3.084  -0.022  10.474  0.5306  0.0602  0.1130
  416MOL0     C56080   3.011  -0.040  10.356  0.5543 -0.1387 -0.4489
  416MOL0     C56081   2.883  -0.089  10.349 -0.1247 -0.1271  0.7114
  416MOL0     C56082   2.811  -0.132  10.452  0.2099  0.0044  0.9594
  416MOL0     O56083   2.684  -0.187  10.444  0.5069 -0.4421 -0.5366
  416MOL0     C56084   2.594  -0.161  10.332 -0.5817 -0.3481 -0.3593
  416MOL0     C56085   2.529  -0.023  10.354 -0.5709 -0.0249  0.2458
  416MOL0     C56086   2.399  -0.011  10.272 -0.6429  0.2935 -0.2848
  416MOL0     C56087   2.343   0.131  10.273 -1.0751 -0.1402 -0.1909
  416MOL0     C56088   2.205   0.126  10.216 -0.3415  0.2086 -0.0045
  416MOL0     C56089   2.093   0.135  10.163  0.7322  0.5675  0.2875
  416MOL0     C56090   2.885  -0.135  10.570  0.4431 -0.1555  0.3360
  416MOL0     C56091   3.017  -0.072  10.591 -0.2543  0.0206  0.4010
  416MOL0     C56092   3.085  -0.086  10.726 -1.1111  0.1339 -0.6134
  416MOL0     H56093   3.391   0.150  10.159 -0.4653  2.1035  0.6757
  416MOL0     H56094   3.633   0.224  10.133 -0.3951  0.7657  0.7807
  416MOL0     H56095   3.923   0.246  10.449  0.6381  0.5967 -0.0371
  416MOL0     H56096   3.921   0.066  10.429  0.5729  0.4883  2.1191
  416MOL0     H56097   4.032   0.270  10.226  0.9913 -1.2983 -2.5728
  416MOL0     H56098   4.076   0.101  10.242  1.5136  1.2533  0.5735
  416MOL0     H56099   4.267   0.229  10.331  1.5797  3.7428  0.6261
  416MOL0     H56100   4.182   0.187  10.481  2.8148  1.2657  0.4999
  416MOL0     H56101   4.171   0.437  10.337  0.7172 -1.9940 -0.1179
  416MOL0     H56102   4.066   0.402  10.478  0.4347  0.3505  0.6073
  416MOL0     H56103   4.308   0.349  10.591  1.7432  0.0359 -0.3080
  416MOL0     H56104   4.369   0.435  10.459  1.6826  1.3659  1.7659
  416MOL0     H56105   4.350   0.620  10.603 -0.3987  0.3840  2.0503
  416MOL0     H56106   4.202   0.627  10.520 -2.5109 -1.2838  0.7560
  416MOL0     H56107   4.275   0.585  10.812  2.9606 -2.0609 -2.8568
  416MOL0     H56108   4.144   0.476  10.744 -0.1520  0.3408  1.3231
  416MOL0     H56109   4.099   0.732  10.850 -0.6975 -1.4052  1.1168
  416MOL0     H56110   4.113   0.755  10.684  2.7829 -0.3210  0.0352
  416MOL0     H56111   3.903   0.689  10.536 -2.5843 -0.6218 -1.5335
  416MOL0     H56112   3.697   0.573  10.461  0.1181  0.5828  0.9753
  416MOL0     H56113   3.737   0.407  10.465  0.4736 -2.0608  2.4099
  416MOL0     H56114   3.535   0.367  10.615  1.0411 -1.2445 -1.8213
  416MOL0     H56115   3.516   0.547  10.623  2.9879  2.8906 -1.9451
  416MOL0     H56116   3.512   0.384  10.366 -0.4799  0.5683 -1.3583
  416MOL0     H56117   3.476   0.552  10.374 -0.3666 -0.5629 -0.2819
  416MOL0     H56118   3.323   0.321  10.505  2.9214 -0.4381 -0.1469
  416MOL0     H56119   3.292   0.381  10.346  0.4061 -3.7189  0.9008
  416MOL0     H56120   3.112   0.282  10.510 -2.2916 -2.0260  0.9417
  416MOL0     H56121   2.871   0.245  10.475  0.2680  0.2169 -0.0251
  416MOL0     H56122   2.445   0.729  10.443 -2.1141  1.1838 -0.3005
  416MOL0     H56123   2.195   0.715  10.413 -2.5289 -2.4012 -0.0673
  416MOL0     H56124   1.940   0.344  10.448  0.1833 -0.0223  0.6404
  416MOL0     H56125   1.991   0.412  10.609  2.0178  0.5403 -0.3943
  416MOL0     H56126   1.805   0.576  10.425  0.9077 -0.5391 -1.3546
  416MOL0     H56127   1.739   0.430  10.493  0.9139  0.2802 -0.8025
  416MOL0     H56128   1.801   0.501  10.720 -1.0414  0.4321  0.2668
  416MOL0     H56129   1.855   0.663  10.661  0.9777 -0.0365 -1.0498
  416MOL0     H56130   1.585   0.527  10.662 -1.3843  0.7648 -0.5209
  416MOL0     H56131   1.612   0.664  10.561  0.0019  0.0532 -0.2052
  416MOL0     H56132   1.683   0.795  10.762 -1.0467 -0.0487  2.6212
  416MOL0     H56133   1.647   0.652  10.861 -0.2496  0.0749  0.2751
  416MOL0     H56134   1.489   0.848  10.830 -0.8006 -1.6795  1.9353
  416MOL0     H56135   1.453   0.784  10.662 -0.4456 -4.8463 -1.1308
  416MOL0     H56136   1.320   0.714  10.915  0.1589  3.1910 -0.4096
  416MOL0     H56137   1.408   0.567  10.861 -2.9810 -1.7013 -1.2962
  416MOL0     H56138   1.251   0.726  10.666 -2.0127 -0.0266  0.5202
  416MOL0     H56139   1.303   0.559  10.653 -3.0015  0.0234 -0.9903
  416MOL0     H56140   2.189   0.312  10.512  0.4685  0.5791  0.1845
  416MOL0     H56141   2.432   0.314  10.559  1.8174  1.1351 -2.8770
  416MOL0     H56142   2.821   0.677  10.464  0.7028  0.3685  0.0651
  416MOL0     H56143   3.051   0.696  10.500  0.5491 -0.5645  0.2509
  416MOL0     H56144   3.695   0.071  10.542 -0.2797  1.3222  0.0143
  416MOL0     H56145   3.483  -0.020  10.539 -0.6801  0.3739 -0.0871
  416MOL0     H56146   3.057  -0.008  10.263 -0.2176  1.4667 -0.3110
  416MOL0     H56147   2.846  -0.096  10.247  3.2129  1.6004 -0.7737
  416MOL0     H56148   2.512  -0.233  10.333 -1.9105  1.0715 -1.8523
  416MOL0     H56149   2.658  -0.165  10.243  2.3668  0.2555  1.5956
  416MOL0     H56150   2.601   0.056  10.332 -2.3544  1.0703 -2.1036
  416MOL0     H56151   2.499  -0.013  10.459 -0.3441 -0.5401  0.3620
  416MOL0     H56152   2.330  -0.086  10.313  0.5811 -0.0502  1.2411
  416MOL0     H56153   2.426  -0.029  10.168  1.0915  0.3533  0.1347
  416MOL0     H56154   2.338   0.161  10.378  2.0916 -0.9800  0.3178
  416MOL0     H56155   2.410   0.200  10.220 -0.3242  0.5093  1.5474
  416MOL0     H56156   1.998   0.146  10.116  1.4217 -1.0510 -1.5987
  416MOL0     H56157   2.839  -0.180  10.657 -1.0178  1.2712  0.3561
  416MOL0     H56158   3.192  -0.107  10.724 -1.1781 -0.6264  1.3629
  416MOL0     H56159   3.063   0.005  10.783 -1.3242  0.9408 -1.9391
  416MOL0     H56160   3.037  -0.169  10.780  0.4877 -1.6513 -1.7972
  417MOL0     O56161   0.145  10.144   3.294  0.4784 -0.1658 -0.4050
  417MOL0     C56162   0.102  10.205   3.391  0.8383 -1.3219 -0.8509
  417MOL0     O56163   0.144  10.180   3.518  0.0672  0.3793 -0.7754
  417MOL0     C56164   0.201  10.060   3.547  0.3354 -0.1992 -0.1925
  417MOL0     C56165   0.319  10.057   3.619  0.6667 -1.0701 -0.6105
  417MOL0     C56166   0.379   9.941   3.648  0.1643  1.2056  0.2474
  417MOL0     C56167   0.320   9.820   3.621  0.5744 -1.2947  0.4858
  417MOL0     O56168   0.373   9.698   3.633 -0.2871  0.1822 -0.1017
  417MOL0     C56169   0.490   9.681   3.706  0.1169 -0.1324  0.0281
  417MOL0     C56170   0.528   9.535   3.688  0.1031 -0.4116 -0.2115
  417MOL0     C56171   0.580   9.499   3.539 -0.0063 -0.2065  0.3180
  417MOL0     C56172   0.478   9.521   3.427 -0.2478 -0.4696  0.8122
  417MOL0     C56173   0.539   9.486   3.291 -0.6476  0.3880 -0.1351
  417MOL0     C56174   0.460   9.542   3.180  0.2094  0.0541  0.5424
  417MOL0     C56175   0.507   9.493   3.045  0.2883 -0.0543 -0.5882
  417MOL0     C56176   0.638   9.574   3.010 -0.5266  0.5866  0.2811
  417MOL0     N56177   0.678   9.560   2.867  0.3129 -0.0415  0.0408
  417MOL0     C56178   0.592   9.578   2.767 -0.2408  0.2995  0.2887
  417MOL0     C56179   0.665   9.538   2.653  0.2287  0.1520  0.0233
  417MOL0     C56180   0.621   9.559   2.508  0.2152  0.2011 -0.6090
  417MOL0     C56181   0.612   9.706   2.467 -0.2404 -0.9418  0.3960
  417MOL0     C56182   0.744   9.787   2.497  0.7440  0.5805 -0.3658
  417MOL0     C56183   0.868   9.725   2.434  0.6743 -0.2476 -0.5868
  417MOL0     O56184   0.841   9.683   2.296 -0.2657  0.0350 -0.0328
  417MOL0     C56185   0.949   9.633   2.224  1.0124 -0.5270  0.1913
  417MOL0     C56186   0.915   9.570   2.102 -0.3590 -0.0595 -0.4593
  417MOL0     C56187   1.010   9.501   2.020  0.1905 -0.0199 -0.9025
  417MOL0     C56188   1.143   9.499   2.069  0.2092 -0.2556  0.7806
  417MOL0     C56189   1.248   9.419   1.989 -0.4757 -0.8294 -0.5807
  417MOL0     O56190   1.369   9.420   2.033 -0.4552  0.1521  0.2873
  417MOL0     C56191   1.474   9.340   1.990  0.1290 -0.2721  0.1426
  417MOL0     C56192   1.572   9.290   2.074 -0.6684 -0.3783  0.3322
  417MOL0     C56193   1.678   9.220   2.024 -0.4309  0.2436  0.3489
  417MOL0     C56194   1.698   9.191   1.891 -0.7074 -0.1946 -0.0406
  417MOL0     O56195   1.808   9.129   1.839 -0.0916  0.4078 -0.2752
  417MOL0     C56196   1.937   9.184   1.848  0.1059 -0.2642 -0.5558
  417MOL0     C56197   1.948   9.326   1.795 -0.5270 -0.4067 -0.8497
  417MOL0     C56198   2.093   9.362   1.780 -0.3209  0.2458 -0.1728
  417MOL0     C56199   2.094   9.517   1.738 -0.5677 -0.5828  0.1655
  417MOL0     C56200   2.233   9.575   1.748 -0.5024 -0.4524 -0.1804
  417MOL0     C56201   2.338   9.522   1.652 -0.7053  0.5818  0.2434
  417MOL0     C56202   2.486   9.582   1.686  0.5061 -0.3543 -0.0592
  417MOL0     C56203   2.554   9.647   1.562 -0.0334 -0.0152 -0.7816
  417MOL0    Cl56204   2.706   9.732   1.607 -0.4760  0.2238  0.2233
  417MOL0     C56205   1.595   9.234   1.806 -0.3520  0.5485  0.6235
  417MOL0     C56206   1.480   9.301   1.854 -0.5036  0.0208 -0.2175
  417MOL0     O56207   1.207   9.364   1.890 -0.0858  0.2299  0.5706
  417MOL0     C56208   1.177   9.578   2.185 -0.5183  0.9810 -0.2378
  417MOL0     C56209   1.074   9.626   2.266 -0.1015 -1.0408  0.2152
  417MOL0     N56210   0.787   9.500   2.695  0.4531  0.2697 -0.2182
  417MOL0     N56211   0.793   9.511   2.823 -0.3130  0.5489 -0.8560
  417MOL0     C56212   0.199   9.820   3.546  0.3380  0.0092 -0.1803
  417MOL0     C56213   0.139   9.942   3.516 -1.3011  0.2080 -0.1417
  417MOL0     C56214   0.019  10.328   3.370  0.2661  0.3326  0.0288
  417MOL0     C56215  -0.025  10.398   3.488  0.0070  0.4158  0.4674
  417MOL0     C56216  -0.104  10.513   3.483  0.3047  0.8369 -0.1279
  417MOL0     C56217  -0.144  10.564   3.360 -0.1373 -0.3466 -0.1554
  417MOL0     O56218  -0.213  10.681   3.364 -0.3173  0.6566 -0.6499
  417MOL0     C56219  -0.298  10.717   3.256  0.1302 -0.3839 -0.0023
  417MOL0     C56220  -0.369  10.846   3.315  0.6519  0.3297 -0.9697
  417MOL0     C56221  -0.513  10.859   3.263  0.2388  0.3206  0.5007
  417MOL0     C56222  -0.516  10.844   3.111 -1.2696 -0.5220 -0.1617
  417MOL0     C56223  -0.417  10.927   3.042  0.4793 -0.6891  0.3607
  417MOL0     C56224  -0.322  10.989   2.999  0.1805 -0.3953  0.0095
  417MOL0     C56225  -0.105  10.490   3.241 -0.7555  0.3262  0.8598
  417MOL0     C56226  -0.022  10.373   3.241  0.0752  0.4582 -0.5798
  417MOL0     C56227   0.010  10.309   3.114  0.3761  0.9543  0.8282
  417MOL0     H56228   0.368  10.150   3.646 -1.3277 -0.6387  1.9096
  417MOL0     H56229   0.479   9.933   3.690  0.7447 -3.0591 -1.4470
  417MOL0     H56230   0.572   9.746   3.674  0.2723 -1.2710 -2.0325
  417MOL0     H56231   0.473   9.700   3.813 -2.0414 -2.1390  0.1030
  417MOL0     H56232   0.437   9.476   3.691  0.2894 -0.7305 -0.7648
  417MOL0     H56233   0.602   9.494   3.757  0.0971  0.4461  0.3281
  417MOL0     H56234   0.603   9.392   3.531 -0.3938 -0.2161 -0.7103
  417MOL0     H56235   0.667   9.564   3.531 -0.4141  0.3416  0.3413
  417MOL0     H56236   0.391   9.455   3.433  1.9580 -3.5478  1.3274
  417MOL0     H56237   0.442   9.624   3.429  1.0872  0.0954 -1.0108
  417MOL0     H56238   0.646   9.507   3.282 -0.3764 -1.5240 -2.0745
  417MOL0     H56239   0.541   9.377   3.288  0.5228  0.2707  2.2891
  417MOL0     H56240   0.363   9.492   3.185  1.1333 -1.7293  1.9018
  417MOL0     H56241   0.443   9.650   3.172 -0.4776 -0.1829 -4.1697
  417MOL0     H56242   0.432   9.509   2.967 -0.3836 -0.0134  0.0594
  417MOL0     H56243   0.527   9.386   3.052 -1.3785 -0.2877  2.1753
  417MOL0     H56244   0.612   9.679   3.026 -2.5443  0.1343  0.2144
  417MOL0     H56245   0.720   9.534   3.070 -2.6665 -0.7453  2.4327
  417MOL0     H56246   0.494   9.624   2.773 -1.5462 -2.3727  1.0558
  417MOL0     H56247   0.687   9.511   2.435 -1.8639  0.1894 -2.5802
  417MOL0     H56248   0.523   9.513   2.494  0.1731  0.5665 -1.6124
  417MOL0     H56249   0.597   9.710   2.358  1.8319  0.4653  0.0990
  417MOL0     H56250   0.529   9.771   2.495  0.3511  0.8498 -1.6573
  417MOL0     H56251   0.752   9.807   2.604 -1.7744 -0.3504  0.0831
  417MOL0     H56252   0.728   9.882   2.445 -1.0980  0.8057  0.5264
  417MOL0     H56253   0.905   9.637   2.488  1.6758 -0.1712 -1.1378
  417MOL0     H56254   0.939   9.805   2.411 -0.0102  0.2548 -1.0095
  417MOL0     H56255   0.812   9.583   2.070 -0.0427 -0.5317 -1.7225
  417MOL0     H56256   0.973   9.445   1.934  1.9963 -1.0952 -1.0438
  417MOL0     H56257   1.570   9.318   2.178 -1.2839  2.4034 -0.3404
  417MOL0     H56258   1.754   9.178   2.090  1.4378 -0.2360 -1.9799
  417MOL0     H56259   1.971   9.183   1.952  1.3216  0.2497 -0.9340
  417MOL0     H56260   2.003   9.114   1.796 -0.8062 -1.1254 -0.5797
  417MOL0     H56261   1.914   9.331   1.692  0.8678  2.9938 -1.2874
  417MOL0     H56262   1.902   9.397   1.865  1.5331  0.0642  0.1151
  417MOL0     H56263   2.159   9.347   1.866  0.9643 -0.9242 -1.3044
  417MOL0     H56264   2.157   9.304   1.713  2.4806  0.6562  1.9527
  417MOL0     H56265   2.030   9.574   1.806 -1.1916 -0.7617 -0.2628
  417MOL0     H56266   2.064   9.533   1.634 -0.7568 -1.3245  0.1022
  417MOL0     H56267   2.265   9.575   1.853 -0.0108  1.7953 -0.2779
  417MOL0     H56268   2.224   9.683   1.733  0.5634 -0.3583 -0.2236
  417MOL0     H56269   2.334   9.413   1.649  2.9921  0.3614 -1.5300
  417MOL0     H56270   2.301   9.551   1.553 -1.1541  2.6104  0.9546
  417MOL0     H56271   2.532   9.491   1.726 -2.6016 -1.9012  0.3604
  417MOL0     H56272   2.477   9.659   1.763  0.7390 -0.2602 -0.1264
  417MOL0     H56273   2.583   9.579   1.481 -1.6615 -1.5639 -0.1489
  417MOL0     H56274   2.483   9.716   1.515 -2.6589 -0.5685  2.0641
  417MOL0     H56275   1.594   9.208   1.700 -0.6734 -0.6564  0.8986
  417MOL0     H56276   1.406   9.342   1.786 -1.9923  0.6094  1.6376
  417MOL0     H56277   1.283   9.581   2.209 -0.2026 -0.6528 -1.2486
  417MOL0     H56278   1.093   9.679   2.358  0.1944  0.9402 -0.9224
  417MOL0     H56279   0.149   9.735   3.501 -0.3466  0.4968 -0.3714
  417MOL0     H56280   0.047   9.946   3.460 -1.5865  0.3007  0.3280
  417MOL0     H56281   0.005  10.369   3.588  0.2153  0.0516  0.3016
  417MOL0     H56282  -0.129  10.566   3.574  0.9796 -0.3476  0.7703
  417MOL0     H56283  -0.384  10.651   3.242 -0.4990  0.7424 -1.7840
  417MOL0     H56284  -0.242  10.740   3.165  2.2044  0.0763  1.3189
  417MOL0     H56285  -0.319  10.941   3.293  1.7776 -0.6779 -3.0080
  417MOL0     H56286  -0.368  10.838   3.425  2.5292 -0.4497 -1.0158
  417MOL0     H56287  -0.549  10.955   3.301  1.5264  0.0389  2.5929
  417MOL0     H56288  -0.572  10.778   3.306  0.9563 -0.4723  0.0304
  417MOL0     H56289  -0.487  10.740   3.092 -0.3963 -0.3829  0.3436
  417MOL0     H56290  -0.614  10.875   3.074 -1.0502 -1.5318 -1.6862
  417MOL0     H56291  -0.242  11.056   2.975  0.2900  0.1513  1.8027
  417MOL0     H56292  -0.133  10.530   3.145  0.4584 -3.4110 -1.2411
  417MOL0     H56293   0.117  10.314   3.093  0.3608  2.0629  0.9191
  417MOL0     H56294  -0.018  10.204   3.115  1.7581  0.5736  0.8420
  417MOL0     H56295  -0.046  10.354   3.031  1.0119  0.6842  0.2448
  418MOL0     O56296   8.392   5.522   8.028 -0.0701 -0.0871  0.1638
  418MOL0     C56297   8.375   5.557   7.912  0.1185  0.1931  0.0626
  418MOL0     O56298   8.468   5.590   7.822  0.3133 -0.5946 -0.1748
  418MOL0     C56299   8.595   5.545   7.846 -0.2901  0.4701  0.0055
  418MOL0     C56300   8.702   5.630   7.803  0.2620  0.0204 -0.0772
  418MOL0     C56301   8.837   5.591   7.826 -0.4841  0.9185 -0.7085
  418MOL0     C56302   8.869   5.462   7.873 -0.0005 -0.1189 -0.0681
  418MOL0     O56303   8.999   5.439   7.912  0.2249  0.4858 -0.2398
  418MOL0     C56304   9.053   5.305   7.912 -0.0868  0.0180 -0.3495
  418MOL0     C56305   9.177   5.297   7.820  0.3913  0.6162  0.1381
  418MOL0     C56306   9.305   5.352   7.874  0.1891 -0.2067 -0.5365
  418MOL0     C56307   9.303   5.493   7.911 -0.8160 -0.3334 -0.1405
  418MOL0     C56308   9.431   5.523   7.995  0.9813 -0.0638 -0.1078
  418MOL0     C56309   9.430   5.668   8.068 -0.2852 -0.3728 -0.5145
  418MOL0     C56310   9.432   5.785   7.969  0.2839  0.8282  0.3322
  418MOL0     C56311   9.565   5.777   7.883  0.8617  0.2480 -0.5808
  418MOL0     N56312   9.678   5.816   7.964 -1.1600 -0.8914  0.0735
  418MOL0     C56313   9.790   5.749   7.943 -0.0670 -0.1123 -0.5909
  418MOL0     C56314   9.871   5.812   8.038  0.1183 -0.2470  0.3034
  418MOL0     C56315  10.018   5.779   8.055 -0.3905  0.0335 -0.8115
  418MOL0     C56316  10.022   5.685   8.178  0.5065  0.6924 -0.0575
  418MOL0     C56317  10.146   5.595   8.191 -0.5466  0.6185 -0.0714
  418MOL0     C56318  10.272   5.651   8.247 -0.7586  0.2860 -0.1509
  418MOL0     O56319  10.344   5.727   8.152 -0.6235 -0.0209  0.3911
  418MOL0     C56320  10.484   5.732   8.138 -0.3250 -0.2058  0.0556
  418MOL0     C56321  10.578   5.680   8.224  0.4864  0.7650  0.1508
  418MOL0     C56322  10.706   5.720   8.211  0.2100 -0.2355  0.1704
  418MOL0     C56323  10.758   5.795   8.101  0.2148  0.0392  0.0203
  418MOL0     C56324  10.900   5.838   8.090  0.1107 -0.4330  0.0394
  418MOL0     O56325  10.974   5.856   8.203 -0.1927  0.5551  0.3971
  418MOL0     C56326  11.111   5.877   8.195  1.1655  0.7726 -0.2232
  418MOL0     C56327  11.170   5.987   8.139 -0.2620 -0.2826 -0.0549
  418MOL0     C56328  11.308   5.992   8.117  0.4954 -0.4176  0.1671
  418MOL0     C56329  11.388   5.886   8.149  0.1648  0.3479 -0.5696
  418MOL0     O56330  11.519   5.875   8.111  0.4527 -0.1095  0.3494
  418MOL0     C56331  11.607   5.986   8.132 -0.1700 -0.5345  0.3864
  418MOL0     C56332  11.747   5.944   8.120  0.1339  0.3977  0.4706
  418MOL0     C56333  11.848   6.050   8.159  0.2298 -0.2712  0.3436
  418MOL0     C56334  11.990   5.997   8.166  0.8529  0.0060 -0.3421
  418MOL0     C56335  12.076   6.124   8.186  0.3246  0.1163 -0.7363
  418MOL0     C56336  12.223   6.079   8.162  0.4139  0.2285 -0.7206
  418MOL0     C56337  12.320   6.192   8.202  0.0270  0.0545 -0.0192
  418MOL0     C56338  12.465   6.157   8.185 -0.5035 -0.9692 -0.5185
  418MOL0    Cl56339  12.500   6.018   8.294  0.4805 -0.2171  0.1942
  418MOL0     C56340  11.333   5.774   8.219  0.4617 -0.5495  0.2171
  418MOL0     C56341  11.189   5.770   8.231 -0.8764 -0.5963 -0.4754
  418MOL0     O56342  10.929   5.878   7.982 -0.2065 -0.4978  0.6632
  418MOL0     C56343  10.657   5.832   8.001 -0.2202 -0.6926 -0.2586
  418MOL0     C56344  10.524   5.813   8.028 -0.3983  0.3144 -0.3206
  418MOL0     N56345   9.802   5.916   8.099 -1.1869  0.2604 -0.9889
  418MOL0     N56346   9.685   5.916   8.054 -0.2650  0.0541  0.3808
  418MOL0     C56347   8.771   5.365   7.874  0.3720 -0.9363 -1.1567
  418MOL0     C56348   8.635   5.410   7.876 -0.1895  0.6023 -0.1173
  418MOL0     C56349   8.231   5.569   7.885 -0.7677 -0.1799  0.0811
  418MOL0     C56350   8.152   5.469   7.939  0.5347 -0.6496 -0.2828
  418MOL0     C56351   8.013   5.456   7.907 -0.0411 -0.9256 -1.0358
  418MOL0     C56352   7.961   5.547   7.824 -0.1225 -0.8451  1.1264
  418MOL0     O56353   7.826   5.525   7.790  0.8884 -0.4408 -0.9423
  418MOL0     C56354   7.743   5.619   7.714 -0.3178 -0.0964 -0.2961
  418MOL0     C56355   7.627   5.527   7.660  0.3510  0.8596 -1.9016
  418MOL0     C56356   7.520   5.610   7.582  0.2572 -0.1614  0.4765
  418MOL0     C56357   7.387   5.534   7.578 -0.3720 -0.5035 -0.6765
  418MOL0     C56358   7.292   5.601   7.488  0.0108 -0.1904  0.5107
  418MOL0     C56359   7.219   5.638   7.399  0.5407  0.3689 -0.3478
  418MOL0     C56360   8.039   5.651   7.776  0.8820  0.1711 -0.2982
  418MOL0     C56361   8.177   5.670   7.804  0.0135  0.3585 -0.3960
  418MOL0     C56362   8.253   5.788   7.751  0.0438 -0.0196  1.0990
  418MOL0     H56363   8.686   5.728   7.760 -0.1813  0.6383  1.4136
  418MOL0     H56364   8.924   5.656   7.819  0.8137 -0.8747 -1.9694
  418MOL0     H56365   9.093   5.276   8.010  0.0828 -1.1607 -0.7578
  418MOL0     H56366   8.980   5.232   7.877  0.0442 -0.2285 -0.1147
  418MOL0     H56367   9.159   5.341   7.722 -0.6189 -0.2599 -0.0915
  418MOL0     H56368   9.198   5.195   7.788  0.7387  0.8076 -0.2512
  418MOL0     H56369   9.384   5.343   7.800  0.0105 -0.1306 -0.7385
  418MOL0     H56370   9.336   5.297   7.963  1.9440  2.6896  0.7704
  418MOL0     H56371   9.292   5.559   7.825  1.1514  0.6183  0.2653
  418MOL0     H56372   9.225   5.510   7.986  1.1868 -1.6591  2.4195
  418MOL0     H56373   9.425   5.455   8.081 -1.4777 -1.5631 -1.3360
  418MOL0     H56374   9.524   5.503   7.942  0.3086 -1.5818 -0.7787
  418MOL0     H56375   9.345   5.670   8.137  1.7713 -1.3597  2.2204
  418MOL0     H56376   9.519   5.673   8.131 -0.8267  2.6117  0.2051
  418MOL0     H56377   9.409   5.884   8.010 -0.3836  1.3829 -1.2650
  418MOL0     H56378   9.350   5.778   7.896  0.0136  1.3899  0.5778
  418MOL0     H56379   9.591   5.679   7.844 -0.1549 -1.2740  2.2753
  418MOL0     H56380   9.555   5.839   7.794 -2.3817  0.6810 -0.0553
  418MOL0     H56381   9.812   5.664   7.880  0.8392 -0.7334  0.5176
  418MOL0     H56382  10.046   5.723   7.965 -1.2895 -0.6100 -0.6988
  418MOL0     H56383  10.090   5.860   8.071  2.5764 -2.4921 -0.4588
  418MOL0     H56384  10.020   5.748   8.268  1.4300 -2.5207  2.4054
  418MOL0     H56385   9.929   5.628   8.177 -0.0555  1.5697  0.7099
  418MOL0     H56386  10.170   5.567   8.088 -3.5950  2.8181 -1.5743
  418MOL0     H56387  10.129   5.508   8.254 -3.0422 -0.6172 -2.2475
  418MOL0     H56388  10.333   5.568   8.284 -1.0769  0.4789  0.8334
  418MOL0     H56389  10.251   5.712   8.335  0.3556  3.6471 -2.0407
  418MOL0     H56390  10.538   5.631   8.311  3.5782  2.2114  2.5798
  418MOL0     H56391  10.774   5.701   8.294  0.4260 -2.4969 -0.4751
  418MOL0     H56392  11.110   6.072   8.106 -0.2849 -0.7512 -1.2315
  418MOL0     H56393  11.357   6.078   8.072  3.7792 -0.5617  3.0110
  418MOL0     H56394  11.585   6.065   8.060  2.2816 -1.1797 -1.1925
  418MOL0     H56395  11.587   6.026   8.232  1.0835  0.4184  0.2862
  418MOL0     H56396  11.772   5.872   8.198  2.0933  0.3213 -0.1804
  418MOL0     H56397  11.765   5.895   8.024  0.0781  0.5988  0.3562
  418MOL0     H56398  11.851   6.129   8.083 -0.0172  1.6331  2.2015
  418MOL0     H56399  11.816   6.092   8.255 -1.1961  1.8522 -0.9881
  418MOL0     H56400  12.011   5.938   8.075 -0.5718 -0.3891 -0.4379
  418MOL0     H56401  12.014   5.919   8.239 -0.9438 -1.8817 -1.6290
  418MOL0     H56402  12.076   6.162   8.288  1.1026  4.5939 -2.1787
  418MOL0     H56403  12.050   6.209   8.122 -3.2934  0.3926  0.8347
  418MOL0     H56404  12.233   5.992   8.228  1.2108  0.7907 -0.0914
  418MOL0     H56405  12.253   6.055   8.060  1.1521  1.9402 -0.9309
  418MOL0     H56406  12.297   6.209   8.308 -0.6388  0.1854 -0.1823
  418MOL0     H56407  12.296   6.291   8.161 -1.4166  0.3043  1.3549
  418MOL0     H56408  12.482   6.122   8.083  0.3295 -0.0609 -0.7129
  418MOL0     H56409  12.537   6.236   8.212 -0.3810 -1.7877  1.7831
  418MOL0     H56410  11.391   5.689   8.252  0.2734 -0.4321  0.8587
  418MOL0     H56411  11.137   5.681   8.266 -0.0573 -0.6253  0.7417
  418MOL0     H56412  10.693   5.878   7.910  0.4168  0.7054  0.6590
  418MOL0     H56413  10.450   5.836   7.952 -0.2895  0.6557 -0.3273
  418MOL0     H56414   8.788   5.264   7.910  0.1689 -0.4670  0.3419
  418MOL0     H56415   8.548   5.346   7.887 -0.8736  1.4860 -0.2972
  418MOL0     H56416   8.195   5.396   8.006 -0.2890 -3.3502 -2.5204
  418MOL0     H56417   7.948   5.374   7.939  1.3585 -1.3254  0.9809
  418MOL0     H56418   7.793   5.663   7.628 -2.0646 -0.4547 -1.5471
  418MOL0     H56419   7.706   5.705   7.772 -0.6523  1.1461 -2.2634
  418MOL0     H56420   7.578   5.494   7.751  2.3551  3.5783  0.3472
  418MOL0     H56421   7.671   5.450   7.596 -1.1126 -0.8109 -0.9662
  418MOL0     H56422   7.559   5.636   7.483 -0.2658  2.0697  0.8021
  418MOL0     H56423   7.496   5.703   7.633  0.2472 -0.6306  1.3515
  418MOL0     H56424   7.417   5.434   7.544 -0.0300 -0.0478 -1.7461
  418MOL0     H56425   7.347   5.532   7.679  2.3989  1.2626  0.5787
  418MOL0     H56426   7.161   5.666   7.313 -0.9036  0.8933  0.7487
  418MOL0     H56427   7.993   5.730   7.716  0.6217  0.9188  0.8536
  418MOL0     H56428   8.277   5.766   7.646 -3.3149  2.5792 -0.4138
  418MOL0     H56429   8.195   5.881   7.756 -0.0026 -0.0494  1.1148
  418MOL0     H56430   8.349   5.806   7.800  0.4952  1.0769 -0.1103
  419MOL0     O56431   5.311   5.184   0.357  0.1061 -0.1904  0.2378
  419MOL0     C56432   5.229   5.163   0.444 -0.3753 -1.4221 -0.0343
  419MOL0     O56433   5.246   5.204   0.571  0.6819  0.0206  0.1259
  419MOL0     C56434   5.355   5.272   0.618 -0.8989 -0.4625 -0.6898
  419MOL0     C56435   5.462   5.205   0.675  0.9681  0.2115 -0.2570
  419MOL0     C56436   5.553   5.268   0.747 -0.1349 -0.2540  0.1499
  419MOL0     C56437   5.552   5.405   0.762  0.5013 -0.1032  0.0685
  419MOL0     O56438   5.643   5.474   0.834 -0.1146  0.5258 -0.2091
  419MOL0     C56439   5.776   5.430   0.816 -0.0390 -0.4090  0.1717
  419MOL0     C56440   5.869   5.540   0.869 -0.3055 -0.5412  0.1431
  419MOL0     C56441   6.015   5.503   0.850 -0.1818  0.1991 -0.9520
  419MOL0     C56442   6.095   5.615   0.925  0.2203  0.6959  0.0644
  419MOL0     C56443   6.252   5.582   0.919 -0.2789  0.8476  0.2651
  419MOL0     C56444   6.329   5.673   1.013  0.1648 -0.4143  0.3242
  419MOL0     C56445   6.480   5.636   1.018  0.2808  0.0487  0.3005
  419MOL0     C56446   6.554   5.754   1.071  0.1034  0.6201 -0.3661
  419MOL0     N56447   6.691   5.725   1.120 -0.6449  0.0112 -0.5944
  419MOL0     C56448   6.771   5.616   1.088  0.1614 -0.1409 -0.4214
  419MOL0     C56449   6.885   5.633   1.151 -0.7174  0.2953  0.5434
  419MOL0     C56450   7.001   5.540   1.151  0.3049  0.5510 -0.4693
  419MOL0     C56451   7.138   5.611   1.164  0.6263  0.0494  0.4141
  419MOL0     C56452   7.208   5.645   1.025 -0.4116 -0.1442 -0.5699
  419MOL0     C56453   7.340   5.715   1.037  0.1917 -0.4054  0.3347
  419MOL0     O56454   7.444   5.626   1.081 -0.1615 -0.4136 -0.4315
  419MOL0     C56455   7.576   5.671   1.074  0.3214  0.2555 -0.1958
  419MOL0     C56456   7.662   5.577   1.116 -0.1193  0.4798 -0.2425
  419MOL0     C56457   7.800   5.599   1.118 -0.3882 -0.5415 -0.0803
  419MOL0     C56458   7.853   5.705   1.062  0.5073  0.1371  0.5426
  419MOL0     C56459   8.002   5.729   1.058  0.8624  0.6596 -0.3708
  419MOL0     O56460   8.080   5.665   1.155  0.0741 -0.0853  0.9019
  419MOL0     C56461   8.216   5.690   1.159  0.0515 -1.4171 -0.1125
  419MOL0     C56462   8.299   5.588   1.203  0.2090 -0.6717 -0.6751
  419MOL0     C56463   8.443   5.602   1.206 -0.3197 -0.2813 -0.0434
  419MOL0     C56464   8.491   5.732   1.167 -0.0270  0.7659  0.4797
  419MOL0     O56465   8.628   5.736   1.186  0.2400 -0.1812 -0.5645
  419MOL0     C56466   8.663   5.800   1.315  0.1100  0.3377  0.0004
  419MOL0     C56467   8.816   5.794   1.352  0.5472  0.0068  0.3006
  419MOL0     C56468   8.842   5.860   1.484 -0.1197  0.4533 -0.1465
  419MOL0     C56469   8.996   5.894   1.497 -0.1425 -0.2049 -0.6680
  419MOL0     C56470   9.027   6.008   1.597  0.5177  0.5564  0.3259
  419MOL0     C56471   9.175   6.033   1.594 -0.5817 -0.2649 -0.2888
  419MOL0     C56472   9.214   6.140   1.695 -0.1697 -0.2490  0.6016
  419MOL0     C56473   9.364   6.174   1.691 -0.5088 -0.2667 -0.4451
  419MOL0    Cl56474   9.394   6.277   1.537  0.0768 -0.1692 -0.2690
  419MOL0     C56475   8.411   5.835   1.115 -0.4211 -0.0332  0.7233
  419MOL0     C56476   8.280   5.810   1.108  0.5716 -0.3670 -0.0252
  419MOL0     O56477   8.034   5.807   0.974 -0.0786 -0.1223  0.0080
  419MOL0     C56478   7.766   5.798   1.008 -0.5705  0.5048  0.6269
  419MOL0     C56479   7.626   5.786   1.012  0.0928  0.2466 -0.4181
  419MOL0     N56480   6.878   5.751   1.228  0.0642 -0.4083  0.1737
  419MOL0     N56481   6.766   5.807   1.201 -0.6403  0.1572  0.3180
  419MOL0     C56482   5.455   5.478   0.699  0.4266 -0.1816  0.5320
  419MOL0     C56483   5.348   5.412   0.636  0.1627  0.1804 -0.8699
  419MOL0     C56484   5.099   5.131   0.390 -0.4227  0.6585  0.6299
  419MOL0     C56485   4.987   5.176   0.453 -0.4820 -0.2155 -0.2227
  419MOL0     C56486   4.862   5.141   0.415 -0.0151 -0.2570 -0.4498
  419MOL0     C56487   4.839   5.060   0.302 -0.8473 -0.2934  0.0168
  419MOL0     O56488   4.723   5.010   0.243 -0.2950 -0.4371 -0.5975
  419MOL0     C56489   4.597   5.053   0.302 -0.3038  0.0648  0.5124
  419MOL0     C56490   4.480   4.992   0.223 -0.3773  0.1049 -0.1830
  419MOL0     C56491   4.350   5.059   0.276 -0.2572 -0.2238  1.0367
  419MOL0     C56492   4.351   5.203   0.314  1.1328 -0.7089  0.7014
  419MOL0     C56493   4.213   5.241   0.346 -0.1128  0.1245  0.7263
  419MOL0     C56494   4.100   5.284   0.351  0.8469 -0.4196  0.2240
  419MOL0     C56495   4.952   5.020   0.230  0.3572  0.3302 -1.1352
  419MOL0     C56496   5.080   5.047   0.270 -0.5550 -0.6425 -0.3285
  419MOL0     C56497   5.193   4.978   0.194 -0.5763 -0.4795  0.3967
  419MOL0     H56498   5.470   5.097   0.663  2.3476  0.2336  0.3243
  419MOL0     H56499   5.633   5.210   0.792  0.3836  0.1006 -0.3036
  419MOL0     H56500   5.793   5.347   0.885  0.6155 -1.2662 -0.9848
  419MOL0     H56501   5.806   5.395   0.717  0.7507  0.5473  0.0547
  419MOL0     H56502   5.846   5.553   0.975 -2.5663  0.6042 -0.4322
  419MOL0     H56503   5.854   5.640   0.827  0.9527 -0.5155 -0.2923
  419MOL0     H56504   6.050   5.484   0.749  0.3617  0.2725 -0.7807
  419MOL0     H56505   6.026   5.408   0.903 -1.5613  1.0043  0.8949
  419MOL0     H56506   6.074   5.713   0.882  0.6087  0.2883 -1.0800
  419MOL0     H56507   6.059   5.620   1.028 -1.4999  2.8982 -0.5691
  419MOL0     H56508   6.266   5.477   0.944 -0.4070  0.2755 -1.8117
  419MOL0     H56509   6.284   5.597   0.815  0.3907  1.5418  0.5619
  419MOL0     H56510   6.320   5.779   0.988  0.4583  0.9436  5.0503
  419MOL0     H56511   6.286   5.661   1.113  1.1529  0.2521  0.8575
  419MOL0     H56512   6.525   5.619   0.920  0.5079  3.4936 -0.3281
  419MOL0     H56513   6.484   5.555   1.091  1.2202 -2.0396 -1.9205
  419MOL0     H56514   6.570   5.830   0.993  2.7763  2.2689  1.6094
  419MOL0     H56515   6.492   5.799   1.149 -0.2486  1.4257 -1.0918
  419MOL0     H56516   6.758   5.535   1.017 -0.4298 -1.1161  0.7587
  419MOL0     H56517   6.988   5.485   1.245 -0.9160 -1.9566 -1.9767
  419MOL0     H56518   7.001   5.474   1.063 -0.9279  0.7466 -0.6415
  419MOL0     H56519   7.110   5.704   1.214 -0.3661 -0.0174 -0.0127
  419MOL0     H56520   7.212   5.561   1.227  2.7393  1.7626 -0.5389
  419MOL0     H56521   7.147   5.714   0.966  3.7789  3.3431 -1.3219
  419MOL0     H56522   7.219   5.554   0.965 -1.2559 -2.1230  2.0564
  419MOL0     H56523   7.339   5.800   1.106  0.1125 -0.7371  0.7403
  419MOL0     H56524   7.371   5.749   0.937  2.2029 -1.8424  0.4144
  419MOL0     H56525   7.613   5.489   1.157  0.6347 -1.1506 -2.6259
  419MOL0     H56526   7.873   5.534   1.166  0.8082 -0.7104 -2.0132
  419MOL0     H56527   8.248   5.498   1.236 -0.5130  0.4386  1.4692
  419MOL0     H56528   8.508   5.526   1.249 -0.4028  0.0343  0.6555
  419MOL0     H56529   8.630   5.903   1.302 -1.7376 -0.2433 -0.2713
  419MOL0     H56530   8.610   5.763   1.404  0.8459 -0.0490  0.2860
  419MOL0     H56531   8.854   5.692   1.362  3.6384  1.0251  0.1990
  419MOL0     H56532   8.870   5.846   1.272  1.0655  0.4848  0.9447
  419MOL0     H56533   8.781   5.951   1.481 -0.2433  0.3837 -3.6073
  419MOL0     H56534   8.819   5.793   1.567  3.1016 -0.5988  0.0264
  419MOL0     H56535   9.036   5.925   1.400  2.7703  1.5887  0.9571
  419MOL0     H56536   9.044   5.800   1.527  0.6279 -0.3645 -2.2933
  419MOL0     H56537   8.986   5.977   1.694  0.3158  2.2467  0.8216
  419MOL0     H56538   8.973   6.102   1.582 -0.2883 -0.0680 -0.8420
  419MOL0     H56539   9.219   5.940   1.630  0.9324  0.7826  0.6767
  419MOL0     H56540   9.209   6.058   1.493  1.7529 -1.9039  0.0112
  419MOL0     H56541   9.185   6.108   1.795 -0.4451  1.8856  1.2696
  419MOL0     H56542   9.156   6.232   1.675 -0.1394  0.0450  1.7840
  419MOL0     H56543   9.400   6.231   1.777  1.8693  1.6178 -2.5543
  419MOL0     H56544   9.427   6.085   1.688 -1.3676 -0.9006 -0.1203
  419MOL0     H56545   8.461   5.922   1.073 -0.2043 -1.7933 -3.1101
  419MOL0     H56546   8.221   5.892   1.068  0.6344  0.7652  2.0322
  419MOL0     H56547   7.813   5.887   0.967  2.9911  0.2083  3.5480
  419MOL0     H56548   7.556   5.860   0.976 -1.8436  0.9451  4.1045
  419MOL0     H56549   5.441   5.586   0.696 -3.9089 -0.5220  2.0440
  419MOL0     H56550   5.261   5.466   0.599 -1.1251  0.3617  2.1828
  419MOL0     H56551   4.995   5.253   0.529 -2.5016  1.9717 -2.0512
  419MOL0     H56552   4.782   5.185   0.475  1.6191  2.1224  0.1210
  419MOL0     H56553   4.595   5.161   0.289  2.0443  0.1263  0.3813
  419MOL0     H56554   4.582   5.023   0.406  0.2499 -1.5426  0.1658
  419MOL0     H56555   4.471   4.883   0.227 -0.0053  0.0004 -1.4778
  419MOL0     H56556   4.480   5.018   0.116 -0.0129 -1.1039 -0.4973
  419MOL0     H56557   4.319   5.007   0.367 -0.4613 -1.1585  0.4571
  419MOL0     H56558   4.281   5.044   0.192  0.6526  0.3409  0.1618
  419MOL0     H56559   4.409   5.228   0.402  3.6621  0.6382 -1.2148
  419MOL0     H56560   4.388   5.268   0.233  1.0400 -0.4662  0.8521
  419MOL0     H56561   3.997   5.315   0.355  0.1428 -2.2695 -1.6556
  419MOL0     H56562   4.933   4.942   0.157  0.5480  1.1084 -2.0402
  419MOL0     H56563   5.234   5.058   0.131  1.7616  0.4759  2.9037
  419MOL0     H56564   5.265   4.954   0.273 -3.1823 -1.3592  2.6649
  419MOL0     H56565   5.161   4.886   0.145  2.6530 -0.4078 -2.2167
  420MOL0     O56566  10.761   5.216   4.053 -0.9855  0.4260  0.9728
  420MOL0     C56567  10.646   5.203   4.107 -0.1564 -0.0835  0.3022
  420MOL0     O56568  10.607   5.297   4.200  0.0493 -0.3079 -0.3556
  420MOL0     C56569  10.708   5.361   4.263 -0.5568  0.0289  0.2595
  420MOL0     C56570  10.721   5.350   4.398  0.1482  0.3570 -0.4519
  420MOL0     C56571  10.821   5.423   4.466  0.3973  0.2475 -0.0300
  420MOL0     C56572  10.907   5.520   4.392 -0.3298  0.2882 -0.3986
  420MOL0     O56573  10.999   5.588   4.468  0.2724  0.3663 -0.0131
  420MOL0     C56574  11.131   5.589   4.430  0.3331  0.7520  0.6840
  420MOL0     C56575  11.223   5.651   4.531 -0.5370 -0.4814  0.4462
  420MOL0     C56576  11.365   5.676   4.466  0.3600 -0.3106 -1.0312
  420MOL0     C56577  11.465   5.745   4.568  0.2992 -0.0720  0.0482
  420MOL0     C56578  11.601   5.779   4.511  0.4738 -0.2664  1.1035
  420MOL0     C56579  11.588   5.912   4.438 -0.3123  0.7875 -0.1176
  420MOL0     C56580  11.719   5.977   4.384 -0.6956  0.1253 -0.3873
  420MOL0     C56581  11.802   5.872   4.306  0.0105 -0.0052 -0.0781
  420MOL0     N56582  11.951   5.883   4.309 -0.0405  0.1635 -0.5982
  420MOL0     C56583  12.022   5.929   4.201 -0.5906  0.4143 -0.5563
  420MOL0     C56584  12.151   5.911   4.234 -0.2979  0.1852 -0.1535
  420MOL0     C56585  12.268   5.946   4.152 -0.4294 -0.4718  0.0704
  420MOL0     C56586  12.316   6.091   4.155 -0.2438 -0.0076 -0.7262
  420MOL0     C56587  12.455   6.085   4.104 -0.4464 -0.0279  0.2850
  420MOL0     C56588  12.518   6.225   4.117  0.0524  0.3796 -0.2458
  420MOL0     O56589  12.625   6.250   4.018  0.2040  0.6679 -0.5454
  420MOL0     C56590  12.752   6.224   4.062 -0.2575  0.0592 -0.1312
  420MOL0     C56591  12.827   6.110   4.010  0.8809 -1.1147  0.3388
  420MOL0     C56592  12.959   6.079   4.040  1.1121 -0.9058  0.2980
  420MOL0     C56593  13.020   6.162   4.134 -0.2889 -0.1053 -0.1870
  420MOL0     C56594  13.163   6.162   4.165  0.1570  0.3485 -0.4713
  420MOL0     O56595  13.205   6.200   4.291  0.1263 -0.5807 -0.1122
  420MOL0     C56596  13.329   6.182   4.326  0.2517 -0.9726  0.5942
  420MOL0     C56597  13.438   6.234   4.255  0.4170  0.4091 -0.1020
  420MOL0     C56598  13.561   6.180   4.280  0.1094 -0.0173 -0.8910
  420MOL0     C56599  13.589   6.098   4.392 -1.1116  0.9704  0.9914
  420MOL0     O56600  13.714   6.076   4.445  0.4777 -0.1664 -1.1240
  420MOL0     C56601  13.830   6.150   4.401 -0.0747  0.6024  0.0794
  420MOL0     C56602  13.939   6.084   4.487  0.6165  0.1495  0.1858
  420MOL0     C56603  14.081   6.164   4.478  0.1320  0.6610  0.0600
  420MOL0     C56604  14.202   6.077   4.519 -0.3475 -0.1509  0.1110
  420MOL0     C56605  14.323   6.163   4.543  0.6872 -0.3625 -0.6575
  420MOL0     C56606  14.446   6.075   4.577 -0.1879  0.1176  0.1892
  420MOL0     C56607  14.424   6.007   4.718 -0.6508  1.2761  0.5144
  420MOL0     C56608  14.546   5.939   4.779 -1.2032 -0.5115  0.4980
  420MOL0    Cl56609  14.663   6.073   4.833 -0.0695  0.1379 -0.4455
  420MOL0     C56610  13.482   6.048   4.457 -0.2291 -0.0354 -0.8256
  420MOL0     C56611  13.353   6.085   4.424  0.3837  0.4401 -0.4219
  420MOL0     O56612  13.228   6.105   4.082  0.3125  0.3338 -0.1387
  420MOL0     C56613  12.950   6.267   4.195  0.1230  0.2276  0.3812
  420MOL0     C56614  12.816   6.309   4.156  0.1190 -0.4386 -0.2762
  420MOL0     N56615  12.156   5.850   4.356  0.2767 -0.5594  0.8164
  420MOL0     N56616  12.037   5.844   4.408 -0.1692  0.4259 -0.2882
  420MOL0     C56617  10.887   5.532   4.256 -0.2436 -0.3037 -0.3791
  420MOL0     C56618  10.793   5.450   4.191  0.9119 -0.2173 -0.9449
  420MOL0     C56619  10.552   5.091   4.077 -0.7508  0.3590  0.7014
  420MOL0     C56620  10.547   5.049   3.940 -0.3197  0.0695 -0.5904
  420MOL0     C56621  10.456   4.946   3.910 -0.6676  0.1881 -0.3682
  420MOL0     C56622  10.362   4.891   4.004  0.4252  0.4757 -0.1398
  420MOL0     O56623  10.258   4.809   3.957  0.0091  0.5167  1.3434
  420MOL0     C56624  10.141   4.784   4.038  0.0984  0.0223 -0.1168
  420MOL0     C56625  10.038   4.715   3.947 -0.0644  0.2292  0.5462
  420MOL0     C56626   9.907   4.693   4.022 -0.0520  0.4492  0.0074
  420MOL0     C56627   9.797   4.637   3.929 -0.0880  0.7428 -1.0197
  420MOL0     C56628   9.671   4.618   4.018  1.2223 -0.4984 -0.4326
  420MOL0     C56629   9.563   4.603   4.076 -0.0029  0.1973 -0.2559
  420MOL0     C56630  10.394   4.927   4.129  1.3392 -0.1454 -0.0340
  420MOL0     C56631  10.483   5.025   4.172  0.0159  0.3337 -1.1605
  420MOL0     C56632  10.487   5.045   4.327 -0.5562  0.0846  0.0327
  420MOL0     H56633  10.654   5.281   4.448 -0.1270  1.9140  1.4077
  420MOL0     H56634  10.831   5.400   4.571  0.1168  0.2983  0.0088
  420MOL0     H56635  11.166   5.490   4.401  0.1114  0.4800  1.3386
  420MOL0     H56636  11.136   5.649   4.338  1.6128  0.5082  0.5720
  420MOL0     H56637  11.233   5.591   4.622  0.6127 -1.6705 -0.4205
  420MOL0     H56638  11.175   5.745   4.559  2.5365  0.9274  1.3821
  420MOL0     H56639  11.355   5.746   4.382  2.2029  1.0127 -0.2065
  420MOL0     H56640  11.398   5.581   4.423  1.2272 -1.5046  2.0213
  420MOL0     H56641  11.419   5.837   4.607  1.0399  0.1801  0.3507
  420MOL0     H56642  11.480   5.668   4.644 -0.8686 -1.0501 -0.6818
  420MOL0     H56643  11.665   5.799   4.597  2.9111  1.8362 -0.9876
  420MOL0     H56644  11.643   5.690   4.461  0.5477 -0.2575  1.1492
  420MOL0     H56645  11.511   5.902   4.360 -3.4921 -0.4194  2.8799
  420MOL0     H56646  11.543   5.974   4.516 -1.7017 -0.6716  0.3208
  420MOL0     H56647  11.769   6.019   4.471  3.1644  2.5791 -3.4717
  420MOL0     H56648  11.692   6.057   4.315 -2.9800  0.4527  0.7663
  420MOL0     H56649  11.781   5.769   4.336 -0.3035  0.3851  1.0820
  420MOL0     H56650  11.765   5.875   4.203 -0.6354  1.6792  0.1681
  420MOL0     H56651  11.984   5.966   4.106  0.5031  1.9429 -0.4184
  420MOL0     H56652  12.343   5.870   4.176 -1.5391 -0.9477  2.3579
  420MOL0     H56653  12.231   5.939   4.050  0.4360 -1.3122 -0.1923
  420MOL0     H56654  12.253   6.156   4.094 -3.8380 -3.9179 -1.7346
  420MOL0     H56655  12.320   6.130   4.257  1.4756 -1.7715 -0.0534
  420MOL0     H56656  12.463   6.060   3.998 -2.2911 -1.6758  0.4836
  420MOL0     H56657  12.511   6.011   4.161 -2.5740 -2.4971 -0.6448
  420MOL0     H56658  12.557   6.231   4.219 -2.1355  1.6098  0.5876
  420MOL0     H56659  12.442   6.303   4.107  1.6449  1.9917 -0.3094
  420MOL0     H56660  12.786   6.041   3.936 -0.6031  0.0186  0.0542
  420MOL0     H56661  13.012   6.003   3.983  1.3819 -1.2680  1.0213
  420MOL0     H56662  13.428   6.304   4.173 -4.3788 -0.1311 -0.2347
  420MOL0     H56663  13.648   6.227   4.235  0.8735  0.0722  0.6054
  420MOL0     H56664  13.850   6.147   4.293 -1.3309  2.4460 -0.2451
  420MOL0     H56665  13.831   6.256   4.430  0.8293 -0.0683  2.7618
  420MOL0     H56666  13.915   6.077   4.594 -1.3826  0.2609 -0.2156
  420MOL0     H56667  13.952   5.979   4.459  0.6270  0.4956 -1.1759
  420MOL0     H56668  14.090   6.186   4.371 -1.9539 -2.6301 -0.9616
  420MOL0     H56669  14.079   6.256   4.537  2.3001  0.4398  0.5430
  420MOL0     H56670  14.219   6.000   4.444 -1.5105 -2.7611  2.3547
  420MOL0     H56671  14.174   6.044   4.620 -1.2686  3.9619  1.3736
  420MOL0     H56672  14.312   6.230   4.629  3.7386 -0.5620  0.0010
  420MOL0     H56673  14.343   6.216   4.450  2.7655 -0.4249 -0.2993
  420MOL0     H56674  14.447   5.998   4.499 -1.9251  0.2919 -0.0653
  420MOL0     H56675  14.535   6.138   4.577  0.7656 -1.1804 -0.7030
  420MOL0     H56676  14.345   5.933   4.701  0.0002  0.2546  1.7580
  420MOL0     H56677  14.388   6.078   4.793 -0.9968 -1.3772  3.0369
  420MOL0     H56678  14.519   5.871   4.861 -0.8716  0.7110  1.6653
  420MOL0     H56679  14.597   5.885   4.699  1.0341  0.7715  0.9626
  420MOL0     H56680  13.510   6.000   4.551  1.1132  1.6932 -0.2943
  420MOL0     H56681  13.268   6.043   4.476 -0.0469 -0.7006 -1.9810
  420MOL0     H56682  13.001   6.330   4.267  0.6213 -1.0343  1.1472
  420MOL0     H56683  12.771   6.407   4.172 -0.1650 -0.1804 -2.3274
  420MOL0     H56684  10.953   5.605   4.210 -0.9693  2.6178  2.7525
  420MOL0     H56685  10.762   5.467   4.089  1.6744  0.4149 -1.0822
  420MOL0     H56686  10.608   5.099   3.866  0.6675  0.7798  0.6737
  420MOL0     H56687  10.450   4.903   3.811 -2.5627  0.4407 -0.3939
  420MOL0     H56688  10.099   4.878   4.076  0.3391  0.3608 -0.6585
  420MOL0     H56689  10.174   4.703   4.103  3.4419  0.2656 -1.3212
  420MOL0     H56690  10.066   4.619   3.901 -1.1806  0.6597 -1.1513
  420MOL0     H56691  10.011   4.780   3.862 -1.2509 -2.7696 -1.5474
  420MOL0     H56692   9.878   4.784   4.075  0.1256 -0.4346  1.6912
  420MOL0     H56693   9.938   4.619   4.096 -0.6448  0.6850  0.4970
  420MOL0     H56694   9.764   4.703   3.849  0.2163 -0.2935 -2.0274
  420MOL0     H56695   9.822   4.540   3.885  0.8647  1.3799 -1.9227
  420MOL0     H56696   9.484   4.600   4.149 -1.0007 -0.2477 -1.3303
  420MOL0     H56697  10.328   4.880   4.201 -1.8439  1.3979 -1.7711
  420MOL0     H56698  10.443   4.965   4.387  1.6801 -0.5621  0.9184
  420MOL0     H56699  10.586   5.061   4.370 -2.4529 -0.4525  5.2453
  420MOL0     H56700  10.427   5.134   4.349  0.7825  1.3023 -1.0132
  421MOL0     O56701   2.863  10.338   4.920  0.0121 -0.4694 -0.7967
  421MOL0     C56702   2.789  10.427   4.955 -0.6739  0.2113  0.1646
  421MOL0     O56703   2.832  10.557   4.970 -0.0150  0.2588 -0.0280
  421MOL0     C56704   2.957  10.606   4.949  0.0616 -0.5297 -0.1636
  421MOL0     C56705   2.963  10.733   4.891 -0.4243 -0.9256  0.2267
  421MOL0     C56706   3.079  10.795   4.861 -0.4046 -0.0500  0.4130
  421MOL0     C56707   3.194  10.740   4.896 -0.6897  0.7802  0.2651
  421MOL0     O56708   3.316  10.792   4.863 -0.2036 -0.1939 -0.0344
  421MOL0     C56709   3.349  10.931   4.873 -0.1429  0.1590  0.9876
  421MOL0     C56710   3.505  10.932   4.877  0.5480  0.3875 -0.1997
  421MOL0     C56711   3.573  11.067   4.889  0.7262  0.5412 -0.2337
  421MOL0     C56712   3.539  11.145   5.020 -0.5097  0.2171 -0.5969
  421MOL0     C56713   3.642  11.258   5.033  0.1993 -0.0248  0.4905
  421MOL0     C56714   3.781  11.205   5.080  0.3714  0.5143  0.7329
  421MOL0     C56715   3.870  11.319   5.126  0.4595  0.5195  0.2960
  421MOL0     C56716   4.002  11.274   5.166  0.7444  0.9287  0.3062
  421MOL0     N56717   4.084  11.372   5.240  0.0883 -0.4058  0.1001
  421MOL0     C56718   4.138  11.486   5.186 -0.2986 -0.3424 -0.3856
  421MOL0     C56719   4.196  11.552   5.286 -0.2743  0.1932  0.6438
  421MOL0     C56720   4.269  11.685   5.276 -0.2826  0.9009 -0.3395
  421MOL0     C56721   4.188  11.803   5.337  0.3070 -0.4617 -0.3277
  421MOL0     C56722   4.263  11.932   5.297  0.3776 -0.3433 -0.1392
  421MOL0     C56723   4.342  11.988   5.418 -0.3988 -0.0233  0.1784
  421MOL0     O56724   4.419  12.115   5.381 -0.0836 -1.0347 -0.4354
  421MOL0     C56725   4.536  12.121   5.456 -0.5370  0.3679 -0.9494
  421MOL0     C56726   4.541  12.075   5.594 -0.4111 -0.2616  0.9882
  421MOL0     C56727   4.665  12.081   5.660  0.4941 -0.9301 -0.4702
  421MOL0     C56728   4.779  12.127   5.594 -0.7871 -0.2390  0.0367
  421MOL0     C56729   4.897  12.123   5.679  0.2277  0.0476 -0.3964
  421MOL0     O56730   4.909  12.047   5.793 -0.0345  0.2743  0.5403
  421MOL0     C56731   5.025  12.052   5.868  0.8207  0.0204 -0.0044
  421MOL0     C56732   5.026  12.080   6.008  0.5810 -0.1727  1.0624
  421MOL0     C56733   5.145  12.071   6.074 -0.0746 -0.5481 -0.0548
  421MOL0     C56734   5.262  12.018   6.011  0.0754  0.3813  0.5033
  421MOL0     O56735   5.381  12.020   6.072  0.3415  0.2949  0.4010
  421MOL0     C56736   5.429  12.152   6.094 -0.4680 -0.0183  0.6118
  421MOL0     C56737   5.556  12.167   6.007 -0.1614 -0.0201  0.7835
  421MOL0     C56738   5.626  12.296   6.044  0.5490 -0.0619  0.3394
  421MOL0     C56739   5.738  12.343   5.950  0.1787 -0.3848  0.1581
  421MOL0     C56740   5.825  12.462   6.006  0.3525 -0.0345  0.4984
  421MOL0     C56741   5.907  12.430   6.129  0.1471 -0.5655 -0.1370
  421MOL0     C56742   6.018  12.529   6.158 -0.5015  0.9484  0.4919
  421MOL0     C56743   5.965  12.667   6.212 -0.2375 -0.1390  0.0513
  421MOL0    Cl56744   5.903  12.658   6.377  0.2675  0.0808 -0.2195
  421MOL0     C56745   5.258  11.989   5.873  0.6921  0.1994 -0.1509
  421MOL0     C56746   5.134  11.998   5.804  0.5403 -0.1407  0.4227
  421MOL0     O56747   4.985  12.197   5.642 -0.2156 -0.3979  0.3034
  421MOL0     C56748   4.763  12.186   5.465 -0.2171  0.1770  0.3861
  421MOL0     C56749   4.647  12.168   5.393  0.0291  0.7677 -0.3122
  421MOL0     N56750   4.191  11.474   5.399 -0.3486 -0.6490 -0.7122
  421MOL0     N56751   4.123  11.367   5.374  0.6343 -0.4117  0.0667
  421MOL0     C56752   3.195  10.606   4.937  0.6579 -0.0819  0.2070
  421MOL0     C56753   3.078  10.543   4.973 -0.0413 -0.8221 -0.9179
  421MOL0     C56754   2.656  10.393   4.987  0.2821 -0.6300  0.2260
  421MOL0     C56755   2.636  10.279   5.060  0.4061  0.0331 -0.1040
  421MOL0     C56756   2.506  10.242   5.099 -0.1857  0.1260  0.0914
  421MOL0     C56757   2.399  10.324   5.068 -0.4725  0.2056  0.4051
  421MOL0     O56758   2.275  10.280   5.103  0.0290  0.3080 -0.0008
  421MOL0     C56759   2.213  10.199   5.005 -0.2874 -0.4516 -0.3358
  421MOL0     C56760   2.072  10.251   4.995  0.6090 -0.2283  0.0088
  421MOL0     C56761   1.992  10.177   4.899  0.3142  0.3086  0.1105
  421MOL0     C56762   1.838  10.188   4.920  0.2429  0.0810 -0.7414
  421MOL0     C56763   1.781  10.320   4.903  0.3820  0.0322 -1.0746
  421MOL0     C56764   1.738  10.435   4.884 -0.2222  0.3953  0.4094
  421MOL0     C56765   2.420  10.444   4.993  0.2036  0.3318 -0.8418
  421MOL0     C56766   2.552  10.484   4.956 -0.2690 -0.4127 -0.6834
  421MOL0     C56767   2.562  10.607   4.871  0.2296 -0.7118 -0.2860
  421MOL0     H56768   2.873  10.790   4.871 -0.2789 -1.1537 -1.1931
  421MOL0     H56769   3.075  10.896   4.821 -1.6156 -0.8478 -1.5954
  421MOL0     H56770   3.300  10.983   4.789 -0.5203 -2.9263 -0.8560
  421MOL0     H56771   3.318  10.976   4.968  1.0386  2.3638  0.3908
  421MOL0     H56772   3.545  10.883   4.788 -0.0652 -0.5233  0.0078
  421MOL0     H56773   3.529  10.859   4.956  0.0503  0.4883  0.0497
  421MOL0     H56774   3.536  11.119   4.800 -0.1369  1.0280  0.3875
  421MOL0     H56775   3.681  11.051   4.881  0.5482 -0.2608 -1.2327
  421MOL0     H56776   3.437  11.184   5.013 -0.4988  0.7038  1.4595
  421MOL0     H56777   3.539  11.080   5.108 -1.2535  0.9541 -0.0343
  421MOL0     H56778   3.650  11.320   4.942 -3.9855 -1.2723 -0.9654
  421MOL0     H56779   3.611  11.325   5.113 -1.4894  0.5711 -0.5971
  421MOL0     H56780   3.772  11.132   5.160  1.0313  0.6359  0.9225
  421MOL0     H56781   3.831  11.162   4.992  0.4344 -0.0663  1.0521
  421MOL0     H56782   3.818  11.369   5.208 -1.4487 -2.3421  0.9815
  421MOL0     H56783   3.879  11.383   5.038 -3.1115 -0.2037 -0.7837
  421MOL0     H56784   3.992  11.181   5.224  1.3739 -0.0491 -1.1086
  421MOL0     H56785   4.058  11.243   5.078  1.1205  0.1208  0.8092
  421MOL0     H56786   4.111  11.525   5.088  0.0038 -1.1744 -0.8123
  421MOL0     H56787   4.362  11.677   5.332 -0.5323 -0.8121 -0.1203
  421MOL0     H56788   4.279  11.701   5.169 -2.1701 -1.2071 -0.9138
  421MOL0     H56789   4.088  11.798   5.294 -0.0063  0.3015  0.2958
  421MOL0     H56790   4.173  11.810   5.445  0.5666 -0.7944 -0.2689
  421MOL0     H56791   4.198  12.010   5.256  1.7120  0.3873 -0.9452
  421MOL0     H56792   4.322  11.921   5.206 -0.6201  2.2415 -1.2020
  421MOL0     H56793   4.414  11.913   5.453  1.3444  0.8095 -1.4008
  421MOL0     H56794   4.270  12.013   5.496 -1.1798  2.1650 -1.1420
  421MOL0     H56795   4.457  12.034   5.650 -1.5941 -0.7355 -1.0409
  421MOL0     H56796   4.661  12.053   5.765  0.7309 -1.2313 -0.5407
  421MOL0     H56797   4.937  12.113   6.060  0.0086  0.4347 -0.2829
  421MOL0     H56798   5.140  12.109   6.176 -1.7322  3.2859 -1.3757
  421MOL0     H56799   5.353  12.227   6.068 -0.8231 -0.0759  1.4752
  421MOL0     H56800   5.453  12.178   6.197 -2.6375  0.7504  0.9756
  421MOL0     H56801   5.620  12.080   6.025 -0.4160 -0.2433  0.6254
  421MOL0     H56802   5.524  12.169   5.902  0.7174  0.1344  0.5091
  421MOL0     H56803   5.560  12.383   6.044 -0.1174 -0.5426  1.7648
  421MOL0     H56804   5.678  12.289   6.140 -0.9793  2.1461  1.4200
  421MOL0     H56805   5.691  12.376   5.857 -1.6612  0.6501  1.3608
  421MOL0     H56806   5.803  12.259   5.925 -0.3959 -0.6925 -0.3256
  421MOL0     H56807   5.768  12.554   6.024  3.6604  2.5125 -0.9942
  421MOL0     H56808   5.890  12.489   5.922  1.6303 -2.7109  0.5179
  421MOL0     H56809   5.848  12.424   6.221  1.4856 -0.6085  0.7358
  421MOL0     H56810   5.949  12.331   6.109  1.9046 -0.2795  1.8152
  421MOL0     H56811   6.060  12.554   6.060 -3.1759  1.2043 -0.6796
  421MOL0     H56812   6.092  12.486   6.225 -0.5200 -1.7628 -1.0921
  421MOL0     H56813   6.048  12.737   6.218  1.3984 -2.0784  2.0155
  421MOL0     H56814   5.885  12.710   6.151 -0.3683  1.6280  1.4047
  421MOL0     H56815   5.353  11.953   5.834  2.1165  2.5000  1.0029
  421MOL0     H56816   5.118  11.975   5.699  1.5939  1.5416 -0.1351
  421MOL0     H56817   4.837  12.251   5.420 -1.5346 -0.5691 -3.2202
  421MOL0     H56818   4.636  12.220   5.299  1.8624  0.9873 -0.4418
  421MOL0     H56819   3.291  10.557   4.945  0.3661 -0.5031  1.4335
  421MOL0     H56820   3.080  10.444   5.017  0.6632 -1.4871 -2.3904
  421MOL0     H56821   2.718  10.214   5.090 -2.1435 -2.7580  1.4834
  421MOL0     H56822   2.480  10.150   5.150  3.5216 -1.7274 -0.9955
  421MOL0     H56823   2.215  10.099   5.049 -0.2709 -0.0882  0.5069
  421MOL0     H56824   2.265  10.191   4.909 -1.3215 -2.9921 -0.7866
  421MOL0     H56825   2.064  10.350   4.949 -1.0252 -1.9054 -3.7192
  421MOL0     H56826   2.027  10.256   5.094 -2.4076  0.4630 -1.3076
  421MOL0     H56827   2.022  10.072   4.899  0.1041  0.2096  1.8936
  421MOL0     H56828   2.015  10.219   4.800  1.1215 -0.3367  0.0167
  421MOL0     H56829   1.780  10.137   4.843  1.2795  1.3968 -2.4846
  421MOL0     H56830   1.817  10.159   5.023 -1.4454 -0.1399 -1.1177
  421MOL0     H56831   1.705  10.534   4.859 -0.0528  0.2359 -0.4814
  421MOL0     H56832   2.343  10.513   4.960  0.5409  0.8750 -0.5009
  421MOL0     H56833   2.626  10.593   4.783  0.1399 -2.7713 -0.0792
  421MOL0     H56834   2.472  10.644   4.821 -0.6747 -1.2421  0.9011
  421MOL0     H56835   2.598  10.677   4.946  0.6195 -1.6521  0.4220
  422MOL0     O56836   6.640   9.177   8.223  0.6767  0.0777 -0.3328
  422MOL0     C56837   6.609   9.077   8.284 -0.1723 -0.1098 -0.5629
  422MOL0     O56838   6.689   9.008   8.374  0.3138  0.7436 -0.2093
  422MOL0     C56839   6.822   9.028   8.368  0.7172  0.7611  0.4860
  422MOL0     C56840   6.867   9.093   8.479  1.1797 -0.8522 -0.9418
  422MOL0     C56841   7.001   9.144   8.479 -0.2040  0.9833  0.2964
  422MOL0     C56842   7.086   9.111   8.364 -0.1679  1.0774  0.0214
  422MOL0     O56843   7.219   9.158   8.375  0.2654 -0.0028  0.2863
  422MOL0     C56844   7.318   9.057   8.349 -0.4976  0.3180  0.3063
  422MOL0     C56845   7.454   9.095   8.430  0.2600 -0.0986  0.3637
  422MOL0     C56846   7.549   8.980   8.429  0.3909 -0.3604  0.2408
  422MOL0     C56847   7.666   9.005   8.529  0.9141 -1.1385 -0.4784
  422MOL0     C56848   7.790   8.912   8.535  0.4954 -1.1916  0.1690
  422MOL0     C56849   7.763   8.780   8.601 -0.4680 -0.4867 -0.0463
  422MOL0     C56850   7.880   8.680   8.588  1.0448 -0.4774  0.0485
  422MOL0     C56851   7.843   8.553   8.674  0.1375  0.1563 -0.1436
  422MOL0     N56852   7.941   8.443   8.679  0.0515 -0.5141 -0.1123
  422MOL0     C56853   8.070   8.445   8.625 -0.5128  0.5741  0.4679
  422MOL0     C56854   8.124   8.329   8.657 -0.3224 -0.6370 -0.4551
  422MOL0     C56855   8.262   8.267   8.624  0.4678 -0.0179 -0.1344
  422MOL0     C56856   8.345   8.226   8.742  0.2980  0.3855 -0.5257
  422MOL0     C56857   8.460   8.143   8.687 -0.1660  0.0638 -0.4513
  422MOL0     C56858   8.435   8.006   8.624  0.1492  1.3570  0.1110
  422MOL0     O56859   8.547   7.965   8.530  0.8805 -0.3696  0.2494
  422MOL0     C56860   8.657   7.924   8.596  0.2696 -0.2004  0.0204
  422MOL0     C56861   8.666   7.795   8.650  0.2471 -0.5467  0.3448
  422MOL0     C56862   8.789   7.749   8.703  0.0322 -1.0713 -0.2302
  422MOL0     C56863   8.908   7.830   8.698  0.0060  0.2364  0.8577
  422MOL0     C56864   9.031   7.775   8.741 -0.3425  0.5137 -0.9065
  422MOL0     O56865   9.130   7.862   8.761 -0.6665  0.0015  0.6921
  422MOL0     C56866   9.249   7.828   8.817  0.3591 -0.1116  0.5561
  422MOL0     C56867   9.338   7.734   8.760 -0.0378 -0.0644  0.3463
  422MOL0     C56868   9.459   7.710   8.822 -0.3710  0.6941 -0.2340
  422MOL0     C56869   9.495   7.763   8.943  0.3907 -1.0392 -0.3349
  422MOL0     O56870   9.621   7.726   8.983 -0.2427  0.3893  0.7122
  422MOL0     C56871   9.669   7.738   9.114 -0.0204 -0.0731  0.2486
  422MOL0     C56872   9.802   7.658   9.145 -0.2205  0.1353  0.7384
  422MOL0     C56873   9.916   7.695   9.049 -0.6626  0.0782 -0.3751
  422MOL0     C56874   9.998   7.807   9.124 -0.5511 -0.7232  0.0262
  422MOL0     C56875  10.094   7.893   9.030 -0.0275  0.3159  0.3635
  422MOL0     C56876  10.197   7.804   8.959  0.1664 -0.8606  0.7102
  422MOL0     C56877  10.286   7.718   9.054 -0.3651  0.8040  0.0053
  422MOL0     C56878  10.414   7.666   8.969  0.1009 -0.0009  0.5954
  422MOL0    Cl56879  10.539   7.602   9.079  0.1844 -0.4269 -0.1631
  422MOL0     C56880   9.401   7.847   9.002 -0.8520 -0.0736  0.0343
  422MOL0     C56881   9.286   7.891   8.939  0.3848 -0.1057 -0.3221
  422MOL0     O56882   9.037   7.653   8.764 -0.5076  0.2948 -0.3103
  422MOL0     C56883   8.905   7.953   8.635  0.6773 -0.1278 -0.0363
  422MOL0     C56884   8.778   8.000   8.586  0.4533 -1.2644 -0.0635
  422MOL0     N56885   8.030   8.255   8.728 -0.1664  0.5388 -0.6179
  422MOL0     N56886   7.911   8.317   8.725 -1.0212  0.4214 -0.0836
  422MOL0     C56887   7.038   9.032   8.260  0.5516  0.0965  0.7918
  422MOL0     C56888   6.901   9.006   8.256  0.4057  0.5149  0.5181
  422MOL0     C56889   6.470   9.038   8.272  0.7016 -0.0576 -0.4716
  422MOL0     C56890   6.437   8.907   8.296 -0.2614  0.5752  0.8016
  422MOL0     C56891   6.312   8.863   8.285 -0.7077 -0.5584  0.8273
  422MOL0     C56892   6.206   8.950   8.254  0.8076  0.4566  0.3781
  422MOL0     O56893   6.082   8.884   8.268 -0.2400  0.4408  0.1104
  422MOL0     C56894   5.967   8.938   8.208  0.1068 -0.7371 -0.4447
  422MOL0     C56895   5.897   9.028   8.307  0.7320 -0.2713 -0.3539
  422MOL0     C56896   5.787   9.098   8.234 -0.1262 -0.2180 -0.4016
  422MOL0     C56897   5.695   9.175   8.327  0.0266  1.1511  0.1995
  422MOL0     C56898   5.574   9.220   8.262  0.3390  0.3175 -0.6559
  422MOL0     C56899   5.475   9.270   8.221 -0.2533  0.1295 -0.0872
  422MOL0     C56900   6.232   9.080   8.219  0.2216  0.0689  0.9647
  422MOL0     C56901   6.360   9.130   8.236 -0.1366  0.7789  0.4806
  422MOL0     C56902   6.375   9.276   8.220 -0.5612 -0.6063  0.3143
  422MOL0     H56903   6.791   9.119   8.552  1.1213  2.0936 -1.8866
  422MOL0     H56904   7.040   9.206   8.559 -0.5915  1.0737  0.4171
  422MOL0     H56905   7.283   8.958   8.379  0.8509 -0.1472  0.4368
  422MOL0     H56906   7.341   9.045   8.242 -2.9004 -0.2246 -0.2082
  422MOL0     H56907   7.426   9.128   8.530  2.0013  2.4670  0.1165
  422MOL0     H56908   7.490   9.186   8.380  0.6224  0.1790  1.1041
  422MOL0     H56909   7.595   8.962   8.331 -1.5032  1.1266 -0.9967
  422MOL0     H56910   7.494   8.888   8.452  2.0011 -1.3533  0.2539
  422MOL0     H56911   7.709   9.103   8.509  1.3413 -1.0824  0.6201
  422MOL0     H56912   7.619   9.012   8.628  0.0671  1.4111 -0.9839
  422MOL0     H56913   7.834   8.901   8.435 -1.6089 -0.1505 -0.9445
  422MOL0     H56914   7.871   8.961   8.590  1.9662  0.1433 -2.9316
  422MOL0     H56915   7.753   8.808   8.707 -3.4682  2.1010 -0.8526
  422MOL0     H56916   7.673   8.729   8.566 -0.0928  0.1446 -2.0116
  422MOL0     H56917   7.970   8.710   8.642  2.6256 -0.5906 -2.4114
  422MOL0     H56918   7.895   8.663   8.482 -0.2040 -0.6575 -0.1239
  422MOL0     H56919   7.814   8.589   8.773 -0.1381 -0.3239 -0.0462
  422MOL0     H56920   7.752   8.506   8.638  0.1398 -1.0924  1.3530
  422MOL0     H56921   8.123   8.530   8.583  0.7176  0.6166  2.0276
  422MOL0     H56922   8.243   8.176   8.567  4.0523 -1.2732  0.4015
  422MOL0     H56923   8.314   8.338   8.559 -0.6046 -0.1207 -1.1288
  422MOL0     H56924   8.388   8.317   8.784  1.5497  0.4991 -1.9815
  422MOL0     H56925   8.287   8.174   8.819 -0.0613  0.3250 -0.8296
  422MOL0     H56926   8.530   8.134   8.770 -1.0045  2.4415  0.6113
  422MOL0     H56927   8.513   8.199   8.610 -0.1830  0.8828  0.1091
  422MOL0     H56928   8.348   8.003   8.558  0.3365  2.8839 -0.2514
  422MOL0     H56929   8.424   7.928   8.699  1.8315  1.5380  0.5924
  422MOL0     H56930   8.577   7.732   8.647 -0.4270  0.4113 -0.5757
  422MOL0     H56931   8.785   7.652   8.752  0.4575 -0.9703  0.0100
  422MOL0     H56932   9.321   7.679   8.668  1.5371  1.1422 -0.6984
  422MOL0     H56933   9.516   7.630   8.775 -4.2862 -2.7961  0.2806
  422MOL0     H56934   9.681   7.844   9.140  2.2756  0.0491 -1.0546
  422MOL0     H56935   9.587   7.701   9.177 -0.2376  1.8195  1.1442
  422MOL0     H56936   9.832   7.672   9.249  0.2551  1.5425  0.4435
  422MOL0     H56937   9.785   7.551   9.132 -0.5923 -0.1793  3.3668
  422MOL0     H56938   9.983   7.611   9.031  0.7533  0.9715  0.4847
  422MOL0     H56939   9.878   7.734   8.954 -1.8301  2.8651  1.1163
  422MOL0     H56940  10.066   7.766   9.199  1.2199  1.0981 -0.4805
  422MOL0     H56941   9.931   7.873   9.181  0.9406  0.6119  0.3415
  422MOL0     H56942  10.141   7.961   9.101  2.8096 -0.1142 -0.9680
  422MOL0     H56943  10.043   7.951   8.952  0.4813 -0.8728 -0.8959
  422MOL0     H56944  10.146   7.741   8.885  0.4598 -0.5183  0.2127
  422MOL0     H56945  10.262   7.873   8.904 -1.7447 -0.2223 -0.8562
  422MOL0     H56946  10.225   7.633   9.085  3.6257 -2.6535 -0.6666
  422MOL0     H56947  10.320   7.766   9.146 -0.7401  1.3060 -0.1167
  422MOL0     H56948  10.376   7.585   8.906  2.3884 -1.9051  1.4863
  422MOL0     H56949  10.451   7.753   8.915 -1.7926 -0.1213 -0.9799
  422MOL0     H56950   9.420   7.894   9.098  3.6310  1.7753 -1.5019
  422MOL0     H56951   9.223   7.960   8.995  0.7737  0.3970 -0.4902
  422MOL0     H56952   9.002   8.002   8.628  0.9153 -0.3873  1.2735
  422MOL0     H56953   8.772   8.092   8.529 -1.2497 -2.7183 -2.4195
  422MOL0     H56954   7.094   9.011   8.170 -0.2794 -0.8621  0.4804
  422MOL0     H56955   6.854   8.960   8.169 -0.8321  1.1315  0.8232
  422MOL0     H56956   6.508   8.825   8.310  0.7973  1.2205 -0.5027
  422MOL0     H56957   6.297   8.761   8.320  3.9198 -2.5970 -2.1625
  422MOL0     H56958   5.892   8.861   8.187 -1.0036 -0.4757  2.2470
  422MOL0     H56959   5.999   8.993   8.119 -2.2587  1.8122  0.1203
  422MOL0     H56960   5.972   9.099   8.346  0.3234 -0.1950  0.3163
  422MOL0     H56961   5.837   8.969   8.377 -1.0522 -0.3267 -1.8810
  422MOL0     H56962   5.730   9.021   8.181 -1.0421  0.2819 -0.1749
  422MOL0     H56963   5.823   9.166   8.156  1.1867 -4.0027 -3.4056
  422MOL0     H56964   5.647   9.104   8.396 -1.5812  0.9052 -1.0912
  422MOL0     H56965   5.752   9.238   8.396  2.3470 -2.5265  2.0056
  422MOL0     H56966   5.381   9.314   8.194 -0.9794 -0.0992  1.8826
  422MOL0     H56967   6.158   9.157   8.199  2.3801  1.4773 -2.4461
  422MOL0     H56968   6.424   9.316   8.309  0.8584 -0.6495 -0.4244
  422MOL0     H56969   6.437   9.305   8.134 -2.2204 -0.8126 -0.9998
  422MOL0     H56970   6.273   9.316   8.222 -1.0058 -1.6888  0.1847
  423MOL0     O56971   5.629   4.311   2.463 -0.2122 -0.3103  0.4365
  423MOL0     C56972   5.555   4.254   2.382 -0.0310 -0.0423 -0.6943
  423MOL0     O56973   5.592   4.199   2.268  0.3116 -0.1179  0.2358
  423MOL0     C56974   5.725   4.211   2.228 -0.0347  0.2623  0.9104
  423MOL0     C56975   5.781   4.095   2.172  1.0179 -1.0027 -0.0679
  423MOL0     C56976   5.906   4.102   2.109  0.7428 -0.5124  0.4373
  423MOL0     C56977   5.969   4.222   2.093 -0.4738  0.7708  0.4109
  423MOL0     O56978   6.093   4.240   2.040  0.4749 -0.7318  0.5893
  423MOL0     C56979   6.176   4.123   2.021  0.1680 -0.0777  0.3542
  423MOL0     C56980   6.313   4.174   1.986  0.9729  0.3940 -0.1639
  423MOL0     C56981   6.412   4.061   2.003  0.1773  0.5588  0.9305
  423MOL0     C56982   6.560   4.098   1.960 -0.3803 -0.2469 -0.4315
  423MOL0     C56983   6.664   4.025   2.038 -0.1255  1.0664 -0.1308
  423MOL0     C56984   6.803   4.030   1.964 -0.0926  0.3141  0.2508
  423MOL0     C56985   6.910   3.969   2.058  0.3103  0.5260  0.0720
  423MOL0     C56986   7.036   3.945   1.970 -0.1313 -0.2401 -0.0196
  423MOL0     N56987   7.128   4.061   1.964  0.3171 -0.0555 -0.8470
  423MOL0     C56988   7.251   4.038   1.927  0.2244 -0.7990 -0.0736
  423MOL0     C56989   7.316   4.166   1.941 -0.2053  1.1732  0.1442
  423MOL0     C56990   7.456   4.209   1.889 -0.0788  0.1382  0.1842
  423MOL0     C56991   7.444   4.277   1.752  0.9315  0.4937  0.2535
  423MOL0     C56992   7.569   4.266   1.667  0.2922  0.3437  0.4909
  423MOL0     C56993   7.680   4.366   1.713  0.7144  0.4058 -0.0926
  423MOL0     O56994   7.742   4.315   1.825 -0.2754  0.3171 -0.2350
  423MOL0     C56995   7.855   4.375   1.868 -0.3113  0.7443  0.3617
  423MOL0     C56996   7.936   4.302   1.961 -0.2853 -0.0185  0.2347
  423MOL0     C56997   8.065   4.347   1.985 -0.1890 -0.0932  0.1995
  423MOL0     C56998   8.121   4.462   1.920 -0.1880  0.2346  0.0446
  423MOL0     C56999   8.254   4.506   1.952 -0.5062 -0.2260  0.0363
  423MOL0     O57000   8.295   4.631   1.911  0.2612  0.1074 -0.0638
  423MOL0     C57001   8.422   4.661   1.942 -0.7453 -0.3124 -0.2594
  423MOL0     C57002   8.529   4.611   1.874 -0.2429  0.1862 -0.3843
  423MOL0     C57003   8.657   4.646   1.902 -0.3256 -0.5637 -0.0990
  423MOL0     C57004   8.691   4.738   1.999 -0.1578  0.1179  0.6101
  423MOL0     O57005   8.824   4.784   2.000 -1.0147 -0.6463  0.5266
  423MOL0     C57006   8.864   4.849   2.123  0.7196 -0.5289 -0.2599
  423MOL0     C57007   9.012   4.905   2.110  0.2962 -0.3938  0.0954
  423MOL0     C57008   9.120   4.791   2.119 -0.6014 -0.3289  0.3323
  423MOL0     C57009   9.256   4.820   2.060 -0.1810 -0.6797 -0.0844
  423MOL0     C57010   9.343   4.886   2.166  0.8333  0.6146 -0.4077
  423MOL0     C57011   9.484   4.913   2.118 -0.0565  0.1139 -0.4699
  423MOL0     C57012   9.497   5.008   2.000 -0.6526  0.9267  1.2302
  423MOL0     C57013   9.631   5.004   1.928  0.7523 -0.3034  0.0828
  423MOL0    Cl57014   9.780   5.049   2.027 -0.0270 -0.1825  0.6507
  423MOL0     C57015   8.585   4.798   2.069  0.2883  0.3759 -0.0314
  423MOL0     C57016   8.454   4.745   2.050 -0.4483  0.3469 -0.3273
  423MOL0     O57017   8.322   4.427   2.016 -0.2313 -0.0121  0.8604
  423MOL0     C57018   8.049   4.517   1.824 -0.8085 -0.2026  0.7086
  423MOL0     C57019   7.922   4.478   1.802  0.5238  0.4868  0.0752
  423MOL0     N57020   7.219   4.257   1.986 -0.2848 -0.1458 -0.3160
  423MOL0     N57021   7.108   4.191   2.000 -0.7023  0.0763 -0.4158
  423MOL0     C57022   5.906   4.340   2.133  0.8847  0.6444  0.5568
  423MOL0     C57023   5.781   4.336   2.195 -0.9073  0.1655 -0.4523
  423MOL0     C57024   5.403   4.240   2.402 -0.8986 -1.1636  0.2272
  423MOL0     C57025   5.324   4.206   2.287 -1.4121  0.7759 -0.0028
  423MOL0     C57026   5.189   4.188   2.291 -0.0441  0.0822  0.0055
  423MOL0     C57027   5.118   4.202   2.405 -0.2299 -0.0402 -0.2673
  423MOL0     O57028   4.981   4.174   2.393 -0.9152  0.0055  0.4390
  423MOL0     C57029   4.903   4.198   2.507 -0.7174  0.0339 -0.3959
  423MOL0     C57030   4.756   4.188   2.468  0.5368 -0.2352 -0.8065
  423MOL0     C57031   4.667   4.153   2.587 -0.1688  0.0254 -0.6579
  423MOL0     C57032   4.659   4.254   2.707 -1.1519 -0.4890 -0.1116
  423MOL0     C57033   4.585   4.379   2.683  0.1222  0.0878  0.1941
  423MOL0     C57034   4.513   4.480   2.682 -0.4371  0.1518 -0.1154
  423MOL0     C57035   5.193   4.244   2.518 -0.6654 -0.6773 -0.1706
  423MOL0     C57036   5.332   4.256   2.518 -0.8118  1.4169  0.7655
  423MOL0     C57037   5.409   4.279   2.651 -0.6620  0.6095 -0.0117
  423MOL0     H57038   5.726   4.002   2.177  0.3246 -0.5210  1.9851
  423MOL0     H57039   5.946   4.009   2.071  0.4065  0.4996 -2.7398
  423MOL0     H57040   6.173   4.060   2.110  0.6878 -1.3778 -0.5260
  423MOL0     H57041   6.137   4.061   1.940 -0.6716 -0.0488  0.7189
  423MOL0     H57042   6.337   4.265   2.043 -0.2138 -0.9188  2.6192
  423MOL0     H57043   6.310   4.199   1.880  1.5522 -0.2600 -0.3373
  423MOL0     H57044   6.385   3.971   1.946 -0.1206  0.2410  1.5745
  423MOL0     H57045   6.417   4.028   2.107  1.5896 -0.3840  0.5986
  423MOL0     H57046   6.562   4.084   1.851 -0.5856  0.4829 -0.5293
  423MOL0     H57047   6.574   4.205   1.977  0.0706 -0.0238 -2.0386
  423MOL0     H57048   6.678   4.052   2.143  1.2241  1.4991 -0.4002
  423MOL0     H57049   6.632   3.921   2.024  0.5500  0.7292  0.7789
  423MOL0     H57050   6.789   3.973   1.872 -0.4135 -0.7349  0.9401
  423MOL0     H57051   6.837   4.132   1.943  1.4127 -0.0615  0.7047
  423MOL0     H57052   6.874   3.875   2.103  0.6205 -0.3355 -1.4061
  423MOL0     H57053   6.939   4.043   2.133  1.7761  0.2705 -0.2161
  423MOL0     H57054   7.092   3.865   2.018  0.5736 -0.7220 -1.5735
  423MOL0     H57055   7.005   3.910   1.871  2.1850 -1.2001 -0.4689
  423MOL0     H57056   7.294   3.944   1.895  0.0488 -0.3382 -1.7387
  423MOL0     H57057   7.511   4.276   1.956 -0.6042 -0.4233  1.1992
  423MOL0     H57058   7.517   4.119   1.885  2.0379  1.5545 -2.5115
  423MOL0     H57059   7.359   4.228   1.702 -1.2117  4.7041 -0.6695
  423MOL0     H57060   7.412   4.377   1.781  0.1609 -0.3782  2.6373
  423MOL0     H57061   7.555   4.271   1.559 -3.4320 -3.9037  0.4913
  423MOL0     H57062   7.613   4.166   1.674 -1.0952 -0.2415  1.3379
  423MOL0     H57063   7.626   4.458   1.737  1.1230  0.4773  0.5848
  423MOL0     H57064   7.750   4.378   1.630  0.8195 -0.2845 -0.1048
  423MOL0     H57065   7.906   4.206   2.000  0.7653 -0.6725 -0.5191
  423MOL0     H57066   8.118   4.279   2.052 -0.7613 -0.8245 -0.0726
  423MOL0     H57067   8.495   4.553   1.788  0.6319 -0.9389  0.0186
  423MOL0     H57068   8.744   4.614   1.846  0.1414  0.8560 -0.2355
  423MOL0     H57069   8.806   4.941   2.138  0.7714 -0.4747 -0.3875
  423MOL0     H57070   8.854   4.786   2.212  1.8173  0.4756  0.6143
  423MOL0     H57071   9.020   4.960   2.015  0.8578  1.0893  0.9585
  423MOL0     H57072   9.032   4.988   2.178  0.6767  1.2927 -1.9581
  423MOL0     H57073   9.138   4.752   2.219  1.0668  2.3105  1.1735
  423MOL0     H57074   9.070   4.718   2.054  3.3742 -1.1899 -2.0882
  423MOL0     H57075   9.248   4.881   1.970 -2.3577 -1.2259 -0.3146
  423MOL0     H57076   9.303   4.725   2.032  2.8982  0.8771 -0.6759
  423MOL0     H57077   9.355   4.826   2.257 -1.1429  2.7117  1.3492
  423MOL0     H57078   9.296   4.978   2.201  1.1894  0.1564  1.3678
  423MOL0     H57079   9.536   4.962   2.201  1.1446 -2.8497  0.6441
  423MOL0     H57080   9.526   4.814   2.101  1.0836  0.4924  0.0183
  423MOL0     H57081   9.480   5.111   2.033  0.0374  1.4811 -0.0752
  423MOL0     H57082   9.419   4.986   1.927 -0.2604 -1.9204  1.5298
  423MOL0     H57083   9.641   4.903   1.888  2.7148  0.2030 -0.8368
  423MOL0     H57084   9.627   5.074   1.844 -0.5241  0.6424  0.8923
  423MOL0     H57085   8.599   4.872   2.147  1.1726  0.7437 -0.5306
  423MOL0     H57086   8.375   4.797   2.104  0.7811  0.4840  1.4425
  423MOL0     H57087   8.096   4.603   1.779 -0.5663  0.4460  2.1283
  423MOL0     H57088   7.878   4.534   1.721  1.7737  0.2769 -0.7843
  423MOL0     H57089   5.958   4.430   2.102  0.2337  1.0105  0.5036
  423MOL0     H57090   5.722   4.426   2.198 -0.3698  0.5008  0.3472
  423MOL0     H57091   5.372   4.202   2.190 -1.9021  1.3408 -0.2741
  423MOL0     H57092   5.133   4.153   2.205  0.2234  0.6273 -0.3930
  423MOL0     H57093   4.913   4.299   2.548 -1.7067  0.7140 -1.7365
  423MOL0     H57094   4.915   4.118   2.581 -0.7245 -0.8809 -1.3516
  423MOL0     H57095   4.747   4.103   2.400 -0.2665 -0.1675 -0.7922
  423MOL0     H57096   4.724   4.277   2.413 -2.0227  1.2665  2.7607
  423MOL0     H57097   4.703   4.063   2.637 -1.4953  0.5429  1.3425
  423MOL0     H57098   4.564   4.136   2.556  0.2690  0.6438 -2.5468
  423MOL0     H57099   4.605   4.212   2.792  1.2472  0.8204  2.2373
  423MOL0     H57100   4.764   4.269   2.735 -1.3561  0.0330  0.3995
  423MOL0     H57101   4.450   4.566   2.679 -0.0688  0.3976 -1.0056
  423MOL0     H57102   5.148   4.256   2.616 -0.4574 -0.5243 -0.0927
  423MOL0     H57103   5.461   4.374   2.635  0.4506  0.3251  1.6231
  423MOL0     H57104   5.335   4.282   2.731 -0.3077  2.5509  0.2728
  423MOL0     H57105   5.486   4.209   2.686 -0.7718 -0.7172 -2.2340
  424MOL0     O57106   6.351   0.532   2.784  0.4798  0.4110  0.5956
  424MOL0     C57107   6.267   0.571   2.715  0.1185 -0.0141 -0.1849
  424MOL0     O57108   6.186   0.501   2.633 -0.2551 -0.3704 -0.1652
  424MOL0     C57109   6.194   0.365   2.637  0.1493 -0.3956 -0.4530
  424MOL0     C57110   6.252   0.283   2.536 -0.4278 -0.3533  0.8433
  424MOL0     C57111   6.262   0.144   2.554  0.6754 -0.1009  0.2642
  424MOL0     C57112   6.200   0.087   2.664  0.2078  0.6824  0.6750
  424MOL0     O57113   6.191  -0.047   2.687 -0.6313 -0.6453 -0.5896
  424MOL0     C57114   6.181  -0.142   2.579 -0.6142  0.1155  0.0629
  424MOL0     C57115   6.293  -0.249   2.587  0.3989 -0.3805  0.3344
  424MOL0     C57116   6.430  -0.212   2.642 -1.3698 -0.6977 -0.0238
  424MOL0     C57117   6.522  -0.325   2.688 -0.5334 -0.4453  0.6958
  424MOL0     C57118   6.663  -0.270   2.727  0.3055  0.1685 -0.1808
  424MOL0     C57119   6.741  -0.379   2.802  0.8045 -0.4451  0.1121
  424MOL0     C57120   6.884  -0.347   2.832  0.4279 -0.3371 -0.2614
  424MOL0     C57121   6.961  -0.452   2.916 -1.0054  0.0928  0.2381
  424MOL0     N57122   7.114  -0.446   2.915  0.1976 -0.8649 -0.3084
  424MOL0     C57123   7.194  -0.343   2.958 -0.4204  0.1884  0.3093
  424MOL0     C57124   7.320  -0.382   2.918  0.2137 -0.3623 -0.1513
  424MOL0     C57125   7.445  -0.296   2.931 -0.9447 -0.1166  0.2195
  424MOL0     C57126   7.551  -0.361   3.020  0.2846  0.2465  0.8279
  424MOL0     C57127   7.502  -0.429   3.146  0.4924 -0.6904 -0.7318
  424MOL0     C57128   7.613  -0.494   3.229 -0.4235  0.9287  0.5369
  424MOL0     O57129   7.676  -0.404   3.322  0.7321 -0.3478  0.2951
  424MOL0     C57130   7.808  -0.415   3.349  0.3377  0.1928  0.1771
  424MOL0     C57131   7.869  -0.541   3.341 -0.6728  0.7424  0.3831
  424MOL0     C57132   7.996  -0.569   3.384 -0.9764  0.1107 -0.6257
  424MOL0     C57133   8.069  -0.461   3.432  0.4718 -0.3033  0.2656
  424MOL0     C57134   8.207  -0.477   3.473  0.4005 -0.0585  0.1826
  424MOL0     O57135   8.261  -0.369   3.540 -0.3094  0.1704 -1.2745
  424MOL0     C57136   8.379  -0.384   3.605 -0.8500 -0.7366 -0.2855
  424MOL0     C57137   8.489  -0.298   3.574  0.1538  0.5788 -0.4000
  424MOL0     C57138   8.601  -0.298   3.644 -0.1699 -0.0473 -0.4056
  424MOL0     C57139   8.625  -0.388   3.745  0.1190  0.3289 -0.7052
  424MOL0     O57140   8.738  -0.387   3.831  0.0615 -0.4825 -0.0902
  424MOL0     C57141   8.855  -0.310   3.777 -0.1733  0.6728 -0.3851
  424MOL0     C57142   8.970  -0.321   3.876  0.0905 -0.5157 -0.5293
  424MOL0     C57143   9.090  -0.239   3.830 -0.3852  0.0830 -0.5359
  424MOL0     C57144   9.197  -0.244   3.939 -0.0372  0.1991  0.4722
  424MOL0     C57145   9.331  -0.173   3.910  0.1082 -0.3830  0.6570
  424MOL0     C57146   9.413  -0.158   4.034 -0.1213 -0.6240 -0.7636
  424MOL0     C57147   9.471  -0.289   4.091  1.1472  0.5161 -0.7089
  424MOL0     C57148   9.519  -0.290   4.238  0.2548 -0.4001  0.5177
  424MOL0    Cl57149   9.387  -0.296   4.346 -0.1596  0.0178  0.0290
  424MOL0     C57150   8.526  -0.481   3.768  0.5958  0.5686  0.3219
  424MOL0     C57151   8.409  -0.487   3.700  0.2923  0.7520  0.0707
  424MOL0     O57152   8.258  -0.587   3.453 -0.5426 -0.9872  0.2174
  424MOL0     C57153   8.015  -0.329   3.449 -0.0729 -0.1060  1.0425
  424MOL0     C57154   7.887  -0.316   3.406  0.3629  0.2799 -0.3968
  424MOL0     N57155   7.321  -0.507   2.872  0.4319 -0.3617  0.3724
  424MOL0     N57156   7.192  -0.546   2.866 -0.6239 -0.4801  0.0591
  424MOL0     C57157   6.134   0.167   2.758 -0.4286 -0.1009  0.1597
  424MOL0     C57158   6.139   0.300   2.747  0.6247 -0.2553 -0.1840
  424MOL0     C57159   6.223   0.710   2.745 -0.8450 -0.2755  0.0731
  424MOL0     C57160   6.096   0.738   2.698 -0.6257 -0.0255 -0.4443
  424MOL0     C57161   6.051   0.871   2.714  0.2873 -0.3127  0.2390
  424MOL0     C57162   6.122   0.978   2.776 -0.2948  0.3827 -0.4673
  424MOL0     O57163   6.053   1.092   2.809  0.8459 -0.3606 -0.2921
  424MOL0     C57164   6.124   1.206   2.854 -0.4229  0.9796  0.5813
  424MOL0     C57165   6.024   1.319   2.866 -1.2232  0.5536 -0.5381
  424MOL0     C57166   6.108   1.442   2.902  0.9665  0.2239  0.0715
  424MOL0     C57167   6.019   1.574   2.920 -0.8588  0.5500 -0.4515
  424MOL0     C57168   5.915   1.565   3.028  0.6087 -0.6545  1.0112
  424MOL0     C57169   5.841   1.562   3.130 -0.5192  1.1423  0.3766
  424MOL0     C57170   6.246   0.942   2.822 -0.5526  0.3950 -0.2949
  424MOL0     C57171   6.299   0.808   2.804 -0.3474  0.6650  1.0487
  424MOL0     C57172   6.446   0.786   2.827  0.4092  0.2239 -0.1499
  424MOL0     H57173   6.308   0.321   2.451 -0.0150 -1.9476  0.3703
  424MOL0     H57174   6.316   0.085   2.479  2.5627  3.3561 -1.3414
  424MOL0     H57175   6.086  -0.195   2.574 -0.3428 -0.4370  0.6944
  424MOL0     H57176   6.195  -0.094   2.481  1.9360 -1.8310 -0.6236
  424MOL0     H57177   6.315  -0.300   2.493 -0.8464 -1.0112  0.3660
  424MOL0     H57178   6.254  -0.332   2.646  0.8330 -1.5644 -1.0056
  424MOL0     H57179   6.425  -0.138   2.723  2.0732  0.5062 -0.7675
  424MOL0     H57180   6.480  -0.150   2.568 -2.4598  0.0221 -0.1799
  424MOL0     H57181   6.475  -0.371   2.775 -0.6391 -0.2134  0.7622
  424MOL0     H57182   6.526  -0.411   2.621 -0.9503 -0.1689  0.3068
  424MOL0     H57183   6.718  -0.247   2.635  0.1852 -1.8948 -0.8206
  424MOL0     H57184   6.649  -0.179   2.785  0.6318  1.0851 -1.4944
  424MOL0     H57185   6.685  -0.401   2.893 -0.7157 -0.2208 -0.7258
  424MOL0     H57186   6.738  -0.469   2.740 -1.5663  0.0395 -0.6027
  424MOL0     H57187   6.878  -0.248   2.879 -0.5180  0.1598 -1.3597
  424MOL0     H57188   6.912  -0.341   2.727 -2.1441 -0.3506 -1.0116
  424MOL0     H57189   6.921  -0.458   3.017  1.0098  2.3941  1.2591
  424MOL0     H57190   6.937  -0.542   2.859  1.2083 -0.3338 -0.1101
  424MOL0     H57191   7.168  -0.256   3.018 -2.3671  1.9866 -2.8824
  424MOL0     H57192   7.475  -0.270   2.829 -3.6203  0.4928 -0.4906
  424MOL0     H57193   7.424  -0.196   2.971  1.1204  1.6011 -2.6045
  424MOL0     H57194   7.606  -0.439   2.967  1.4902  2.2614 -1.0807
  424MOL0     H57195   7.625  -0.286   3.050  0.3724  0.1148  0.9374
  424MOL0     H57196   7.433  -0.513   3.133  0.5903 -0.5393 -2.4340
  424MOL0     H57197   7.448  -0.361   3.212 -1.9276 -0.9495 -2.3062
  424MOL0     H57198   7.689  -0.534   3.161 -1.1224  0.3460  0.0752
  424MOL0     H57199   7.575  -0.583   3.281  1.5584 -0.7404 -0.7036
  424MOL0     H57200   7.809  -0.630   3.322 -1.2998  1.2924 -0.3123
  424MOL0     H57201   8.045  -0.666   3.378 -0.6373  0.2964 -0.9023
  424MOL0     H57202   8.483  -0.226   3.492  0.9980  1.4448  0.2825
  424MOL0     H57203   8.679  -0.224   3.627 -1.4180  1.2016 -0.8725
  424MOL0     H57204   8.882  -0.349   3.679 -0.4167  1.4576 -0.7741
  424MOL0     H57205   8.838  -0.202   3.765  1.6693  1.2599  1.5626
  424MOL0     H57206   8.932  -0.289   3.973  1.8622 -1.5620  0.5587
  424MOL0     H57207   8.996  -0.427   3.875 -0.0113 -0.5362 -1.0985
  424MOL0     H57208   9.133  -0.291   3.744 -1.6489 -3.6796  0.8966
  424MOL0     H57209   9.067  -0.136   3.798  0.6207  1.1039  1.8545
  424MOL0     H57210   9.213  -0.352   3.949 -2.1198 -0.2695 -0.7159
  424MOL0     H57211   9.149  -0.212   4.032 -3.9762 -2.3993 -0.4101
  424MOL0     H57212   9.303  -0.071   3.880  0.0718 -0.4839  0.3422
  424MOL0     H57213   9.388  -0.206   3.823 -0.2449  0.1218  0.2244
  424MOL0     H57214   9.492  -0.083   4.017  1.3341 -2.2912 -1.7301
  424MOL0     H57215   9.347  -0.126   4.114  2.2813  2.1893  0.2803
  424MOL0     H57216   9.556  -0.319   4.029  2.6986  3.5055 -0.2102
  424MOL0     H57217   9.398  -0.371   4.093  0.9132  0.7104  1.7515
  424MOL0     H57218   9.584  -0.377   4.249  0.1960 -0.1305  3.6951
  424MOL0     H57219   9.574  -0.200   4.265 -0.4638  0.1326  0.2445
  424MOL0     H57220   8.538  -0.558   3.844 -0.9588 -0.4884 -0.4582
  424MOL0     H57221   8.333  -0.563   3.713  2.3677 -1.1650  1.5647
  424MOL0     H57222   8.064  -0.239   3.484 -1.3847  1.5470 -1.1214
  424MOL0     H57223   7.848  -0.215   3.410 -2.5020 -0.7562  0.7768
  424MOL0     H57224   6.095   0.126   2.851  3.2899 -2.6631  0.8099
  424MOL0     H57225   6.099   0.356   2.831  4.2260  1.4619  0.5907
  424MOL0     H57226   6.023   0.669   2.656 -0.4632 -1.3892  1.3925
  424MOL0     H57227   5.948   0.889   2.688  0.3486  0.3889  0.4788
  424MOL0     H57228   6.199   1.231   2.778  1.1845 -2.2316  0.9293
  424MOL0     H57229   6.171   1.187   2.951  0.2946  1.4526  0.3377
  424MOL0     H57230   5.961   1.306   2.955  1.2744  1.5876  1.5156
  424MOL0     H57231   5.962   1.322   2.776 -2.0410 -1.3444 -0.0770
  424MOL0     H57232   6.171   1.452   2.813 -0.1622  3.1874 -0.5203
  424MOL0     H57233   6.178   1.424   2.984  0.6596  3.0619  1.0951
  424MOL0     H57234   6.097   1.647   2.943  2.4639 -2.4520 -1.2367
  424MOL0     H57235   5.962   1.599   2.830  2.9683  0.1526 -3.2110
  424MOL0     H57236   5.778   1.565   3.216 -0.1879 -0.1753  0.6768
  424MOL0     H57237   6.298   1.023   2.872 -0.5828  0.3211 -0.1416
  424MOL0     H57238   6.469   0.699   2.889 -4.7851  1.3564  4.0647
  424MOL0     H57239   6.498   0.772   2.732  0.0284  0.3217 -0.3767
  424MOL0     H57240   6.491   0.870   2.881  0.7834  0.4127 -0.7461
  425MOL0     O57241  11.150   8.704   1.226 -0.8190  0.9234  0.0857
  425MOL0     C57242  11.082   8.603   1.257 -0.9596  0.0329  1.2909
  425MOL0     O57243  11.101   8.480   1.201  0.4897  0.0705  0.5782
  425MOL0     C57244  11.175   8.470   1.084  0.6939 -0.9323 -0.2937
  425MOL0     C57245  11.144   8.533   0.963  0.6663 -0.3027 -0.4516
  425MOL0     C57246  11.241   8.531   0.860 -0.0615  0.2769  1.1703
  425MOL0     C57247  11.366   8.467   0.874  0.1525 -0.3425  0.9379
  425MOL0     O57248  11.473   8.467   0.785 -0.2239  0.1933 -0.2874
  425MOL0     C57249  11.458   8.548   0.669 -0.2198  0.5587 -0.8104
  425MOL0     C57250  11.602   8.564   0.606 -0.3844  0.1418 -0.8792
  425MOL0     C57251  11.712   8.633   0.691 -0.1972 -0.3660 -0.0755
  425MOL0     C57252  11.828   8.687   0.617 -0.0180  0.1396  0.7494
  425MOL0     C57253  11.948   8.744   0.701 -0.2912  0.3295 -0.5885
  425MOL0     C57254  12.053   8.823   0.620 -0.0776 -0.1564 -0.7595
  425MOL0     C57255  12.171   8.878   0.703 -0.0280 -0.1087  0.3843
  425MOL0     C57256  12.266   8.951   0.612 -0.6174 -0.3162 -0.3301
  425MOL0     N57257  12.338   8.866   0.517 -0.0227 -0.0606 -0.3785
  425MOL0     C57258  12.418   8.769   0.562 -0.5082 -0.1506 -0.1568
  425MOL0     C57259  12.482   8.731   0.454  0.6729 -0.4462  0.9291
  425MOL0     C57260  12.564   8.613   0.459 -0.2015  0.8326  0.1177
  425MOL0     C57261  12.717   8.637   0.456 -0.8654 -0.5878  0.5733
  425MOL0     C57262  12.772   8.680   0.594 -0.2104  0.7634  0.1215
  425MOL0     C57263  12.793   8.556   0.680  0.4287 -1.0222 -0.4358
  425MOL0     O57264  12.893   8.468   0.627  0.4844 -0.3679 -0.3322
  425MOL0     C57265  13.023   8.500   0.641  0.1993  0.6711  0.3348
  425MOL0     C57266  13.114   8.424   0.562  0.4512  0.7766  0.2014
  425MOL0     C57267  13.256   8.435   0.579  0.1913  0.1158  0.6698
  425MOL0     C57268  13.311   8.526   0.666  0.2582 -0.1017 -0.0478
  425MOL0     C57269  13.455   8.544   0.676 -1.0123 -0.5555 -0.8779
  425MOL0     O57270  13.500   8.671   0.692  0.0197 -0.4839  0.4503
  425MOL0     C57271  13.635   8.699   0.705  0.1850 -0.0129  0.5624
  425MOL0     C57272  13.735   8.621   0.773 -0.6211  0.3392 -0.6684
  425MOL0     C57273  13.867   8.656   0.764  0.0194  0.5495  0.7292
  425MOL0     C57274  13.907   8.763   0.689  0.3854 -0.3082  0.8627
  425MOL0     O57275  14.034   8.807   0.673  0.1504  1.0123 -0.2698
  425MOL0     C57276  14.142   8.745   0.747  0.0746  0.3909 -0.5367
  425MOL0     C57277  14.276   8.784   0.682  0.8417  0.3451 -0.7580
  425MOL0     C57278  14.317   8.927   0.715  0.5784  0.0714 -0.0667
  425MOL0     C57279  14.437   8.963   0.633 -0.2259 -0.2107  0.3309
  425MOL0     C57280  14.504   9.095   0.675  0.5273 -0.8259  0.5197
  425MOL0     C57281  14.415   9.219   0.637 -0.0635 -0.0421 -0.4075
  425MOL0     C57282  14.488   9.351   0.668 -0.9575  0.1434  0.3841
  425MOL0     C57283  14.459   9.467   0.581 -0.6033 -0.3924  0.1730
  425MOL0    Cl57284  14.295   9.539   0.630  0.2430  0.5523 -0.2700
  425MOL0     C57285  13.808   8.841   0.627 -0.1398  1.3709  0.2438
  425MOL0     C57286  13.670   8.813   0.632 -0.0814 -0.0951  0.0065
  425MOL0     O57287  13.531   8.445   0.665 -0.1398 -0.1706 -0.1646
  425MOL0     C57288  13.221   8.602   0.735 -0.1046 -0.0262 -0.1142
  425MOL0     C57289  13.078   8.598   0.719  0.2224 -0.8035 -0.0425
  425MOL0     N57290  12.435   8.802   0.343 -0.1895 -0.5559 -0.0970
  425MOL0     N57291  12.343   8.878   0.385  0.4078 -0.6849  0.0006
  425MOL0     C57292  11.391   8.388   0.996 -1.0695 -0.3491  0.4673
  425MOL0     C57293  11.298   8.400   1.100  0.2999  0.1619 -0.5501
  425MOL0     C57294  10.977   8.610   1.375  0.2675  0.3384  0.3059
  425MOL0     C57295  10.990   8.720   1.458 -0.9000  0.1599 -0.1280
  425MOL0     C57296  10.929   8.726   1.583 -0.3424  0.7651  0.4412
  425MOL0     C57297  10.842   8.626   1.631  0.5377 -0.1410  0.0044
  425MOL0     O57298  10.784   8.637   1.762 -0.3559 -0.5078 -0.3827
  425MOL0     C57299  10.818   8.737   1.851 -0.9909 -1.2124  0.3753
  425MOL0     C57300  10.754   8.717   1.978 -1.2045  0.3651 -0.2686
  425MOL0     C57301  10.797   8.587   2.045 -0.2497  0.1115 -0.5605
  425MOL0     C57302  10.759   8.602   2.196 -0.0464 -0.8196  0.6820
  425MOL0     C57303  10.847   8.693   2.273 -0.2293 -0.4574 -0.1796
  425MOL0     C57304  10.917   8.767   2.342  0.0568 -0.0783 -0.0806
  425MOL0     C57305  10.812   8.517   1.544 -0.9382  0.3426  0.4187
  425MOL0     C57306  10.869   8.508   1.412 -0.5176 -0.1262  0.3661
  425MOL0     C57307  10.845   8.387   1.325  0.2636  0.8696  0.3846
  425MOL0     H57308  11.050   8.587   0.958  0.1977 -0.7823  1.9860
  425MOL0     H57309  11.224   8.594   0.773  1.6611 -0.1995  0.4617
  425MOL0     H57310  11.386   8.510   0.595  0.8427 -1.5374 -0.8566
  425MOL0     H57311  11.407   8.639   0.702 -0.8518 -0.6226  1.7422
  425MOL0     H57312  11.601   8.615   0.509 -0.8109 -0.2702 -1.0941
  425MOL0     H57313  11.634   8.461   0.587  0.4200  0.3890 -0.8947
  425MOL0     H57314  11.749   8.571   0.773 -1.5467 -1.0978  0.0058
  425MOL0     H57315  11.666   8.716   0.745  1.5392 -0.3928  1.5525
  425MOL0     H57316  11.871   8.618   0.544 -1.4646  0.9408 -0.9346
  425MOL0     H57317  11.782   8.770   0.562  0.0353 -0.8398 -0.8057
  425MOL0     H57318  11.903   8.800   0.784 -0.7716 -2.8648  1.4899
  425MOL0     H57319  11.997   8.660   0.753 -1.5117 -0.7028 -1.0423
  425MOL0     H57320  12.091   8.755   0.543  1.6872  0.7665 -0.7555
  425MOL0     H57321  12.001   8.904   0.568 -0.5497  0.2660  0.3423
  425MOL0     H57322  12.216   8.793   0.756  0.9906 -0.3469 -0.8038
  425MOL0     H57323  12.143   8.949   0.781 -0.1388  0.9981 -0.6438
  425MOL0     H57324  12.203   9.014   0.548 -0.5553  0.2966  0.1941
  425MOL0     H57325  12.330   9.012   0.677 -2.2413 -0.3562  1.4088
  425MOL0     H57326  12.443   8.733   0.661  4.1699  1.2380 -0.6117
  425MOL0     H57327  12.530   8.555   0.546 -1.5656  0.4274 -0.6499
  425MOL0     H57328  12.547   8.550   0.372  1.9900  0.2269  0.0760
  425MOL0     H57329  12.776   8.552   0.420  1.1348  1.6712 -1.9399
  425MOL0     H57330  12.743   8.716   0.384 -0.5537  0.8844  2.2483
  425MOL0     H57331  12.704   8.757   0.633 -1.1601 -0.5229  1.0692
  425MOL0     H57332  12.870   8.724   0.572 -0.3221 -0.1748 -2.6433
  425MOL0     H57333  12.696   8.507   0.686 -0.9463  1.6807  1.9877
  425MOL0     H57334  12.814   8.580   0.785  0.8952 -0.6412 -0.6110
  425MOL0     H57335  13.079   8.347   0.493 -0.3880 -0.4884  1.9405
  425MOL0     H57336  13.322   8.370   0.522 -0.9628  0.2181 -0.8701
  425MOL0     H57337  13.706   8.534   0.830 -3.1849  1.2262 -0.4866
  425MOL0     H57338  13.929   8.595   0.829 -0.5500 -0.5435  0.2726
  425MOL0     H57339  14.140   8.786   0.848 -0.7792  1.8181 -1.1083
  425MOL0     H57340  14.147   8.636   0.754  0.7616  0.4900  1.0417
  425MOL0     H57341  14.342   8.707   0.722 -1.0201 -0.7087  0.4039
  425MOL0     H57342  14.270   8.780   0.573  0.0600  0.9747 -0.7410
  425MOL0     H57343  14.234   8.996   0.697 -1.3348 -1.7636  1.3345
  425MOL0     H57344  14.332   8.939   0.822 -3.0170  1.3025  0.4245
  425MOL0     H57345  14.399   8.965   0.531  2.3930 -2.2232 -0.8106
  425MOL0     H57346  14.508   8.882   0.648 -0.9075 -0.5204  2.2707
  425MOL0     H57347  14.601   9.101   0.625  0.3744  1.4193  0.3923
  425MOL0     H57348  14.517   9.092   0.783  0.7288  2.1388  0.6700
  425MOL0     H57349  14.382   9.211   0.533 -0.5489  0.9613 -0.3484
  425MOL0     H57350  14.320   9.212   0.691 -0.0045 -1.4118 -0.4555
  425MOL0     H57351  14.593   9.326   0.647 -0.7775  0.8136  0.4713
  425MOL0     H57352  14.471   9.377   0.773  2.2539 -1.8010  1.5416
  425MOL0     H57353  14.526   9.552   0.598  0.2901 -0.6827 -1.6009
  425MOL0     H57354  14.477   9.441   0.476 -0.0102  1.8001 -0.3287
  425MOL0     H57355  13.845   8.926   0.571 -1.0394  1.6418  0.0553
  425MOL0     H57356  13.589   8.880   0.603 -1.7198 -0.2177  3.7135
  425MOL0     H57357  13.262   8.666   0.812 -1.6528  1.5719 -0.5598
  425MOL0     H57358  13.025   8.665   0.785  2.8761 -0.5273  1.9486
  425MOL0     H57359  11.482   8.328   0.998  0.0564  1.3230  0.7361
  425MOL0     H57360  11.314   8.338   1.188 -0.0489 -0.4215 -0.8951
  425MOL0     H57361  11.058   8.800   1.431  1.0544 -2.0429 -2.1401
  425MOL0     H57362  10.950   8.818   1.638  0.0374  1.3956 -0.7095
  425MOL0     H57363  10.783   8.837   1.824  0.7834 -0.9077 -1.0460
  425MOL0     H57364  10.925   8.743   1.876 -0.0465 -2.1441 -2.9270
  425MOL0     H57365  10.647   8.710   1.954 -0.7395  3.1018 -4.0229
  425MOL0     H57366  10.777   8.802   2.043 -4.6064 -0.3989  2.2756
  425MOL0     H57367  10.905   8.570   2.034 -0.0373  2.1431 -2.2522
  425MOL0     H57368  10.742   8.495   2.020  0.4219 -1.3430  2.7786
  425MOL0     H57369  10.657   8.641   2.199  0.7610  1.4874 -0.1046
  425MOL0     H57370  10.762   8.503   2.244 -0.4924 -0.9308  0.4835
  425MOL0     H57371  10.965   8.847   2.396 -0.9414 -0.0619  0.8103
  425MOL0     H57372  10.745   8.442   1.585  1.8060 -1.7438  1.4282
  425MOL0     H57373  10.736   8.372   1.328  0.0921  2.0914  0.5678
  425MOL0     H57374  10.872   8.418   1.224  0.3880  1.8651  0.7115
  425MOL0     H57375  10.906   8.299   1.346 -1.4500 -0.9921 -1.8520
  426MOL0     O57376   1.830  10.644   5.906 -0.1058 -0.0415 -0.2499
  426MOL0     C57377   1.760  10.547   5.919 -0.0097  0.2636 -0.3099
  426MOL0     O57378   1.798  10.429   5.963 -0.3913  0.6293  0.4133
  426MOL0     C57379   1.927  10.396   5.995  0.3670  0.2063  0.3012
  426MOL0     C57380   2.046  10.440   5.935 -0.9310 -0.8702  0.4302
  426MOL0     C57381   2.168  10.406   5.981 -0.7106 -0.0345  0.0436
  426MOL0     C57382   2.186  10.304   6.078  0.1922 -0.2772 -0.6481
  426MOL0     O57383   2.313  10.297   6.138  0.3275  0.6712 -0.0217
  426MOL0     C57384   2.424  10.260   6.055  0.8942 -0.8185  0.3120
  426MOL0     C57385   2.510  10.187   6.151 -0.4426 -0.1765 -0.7505
  426MOL0     C57386   2.651  10.163   6.098 -0.5657  0.4119  0.1519
  426MOL0     C57387   2.719  10.073   6.192 -0.1368  0.4535  0.3470
  426MOL0     C57388   2.861  10.046   6.143  0.0301 -0.0994  0.6738
  426MOL0     C57389   2.920   9.923   6.207  0.0562 -0.3681  0.0334
  426MOL0     C57390   3.075   9.918   6.208 -0.2719  0.1051 -0.0528
  426MOL0     C57391   3.127   9.786   6.235  0.1937 -0.5069  0.3878
  426MOL0     N57392   3.268   9.771   6.204  0.0394  0.3394 -0.2947
  426MOL0     C57393   3.316   9.795   6.080 -0.0532  0.2215 -0.2809
  426MOL0     C57394   3.452   9.767   6.097  0.0819  0.4405  0.8193
  426MOL0     C57395   3.557   9.777   5.991 -0.3812  0.1423 -0.3685
  426MOL0     C57396   3.674   9.676   6.021 -0.0088 -0.4471  0.0692
  426MOL0     C57397   3.723   9.621   5.885  0.9976 -0.3212  0.0892
  426MOL0     C57398   3.846   9.537   5.912  1.2425 -0.2801  0.0172
  426MOL0     O57399   3.907   9.502   5.788 -0.6746  0.2335 -0.3540
  426MOL0     C57400   4.030   9.441   5.787  0.3085  0.6098 -0.5196
  426MOL0     C57401   4.048   9.352   5.683  0.2621  0.3808  0.0945
  426MOL0     C57402   4.183   9.298   5.662  0.4662  0.4024 -0.0397
  426MOL0     C57403   4.298   9.338   5.740 -0.0167 -0.5738 -0.5792
  426MOL0     C57404   4.435   9.308   5.691  1.0887  0.0913  0.0268
  426MOL0     O57405   4.534   9.277   5.784  0.1768 -0.8442  0.2558
  426MOL0     C57406   4.648   9.203   5.752  0.8777 -0.1822 -0.5546
  426MOL0     C57407   4.669   9.115   5.641  0.8425 -0.3576 -0.4415
  426MOL0     C57408   4.781   9.040   5.622 -1.1307  0.0331 -0.4431
  426MOL0     C57409   4.886   9.056   5.715  0.0170 -0.2276 -0.2967
  426MOL0     O57410   4.998   8.975   5.704 -0.1521 -0.5158 -0.3969
  426MOL0     C57411   5.117   9.021   5.771  0.4580  0.2857  0.2019
  426MOL0     C57412   5.246   8.952   5.710 -0.7236 -0.3315 -0.6551
  426MOL0     C57413   5.372   8.951   5.800  0.4600 -0.5630  0.4196
  426MOL0     C57414   5.484   8.874   5.732  0.7050  0.3007 -0.0391
  426MOL0     C57415   5.609   8.878   5.823  0.1414 -0.1747 -0.2259
  426MOL0     C57416   5.711   8.771   5.788  0.0224 -0.4990 -0.8415
  426MOL0     C57417   5.840   8.808   5.870 -0.3539  0.0692 -0.5156
  426MOL0     C57418   5.957   8.721   5.852 -0.0603  0.9415 -0.7175
  426MOL0    Cl57419   5.921   8.551   5.894  0.0368 -0.2745 -0.1537
  426MOL0     C57420   4.863   9.136   5.837  1.2814 -0.0035  0.5942
  426MOL0     C57421   4.746   9.208   5.850  0.0699 -0.2606  0.4904
  426MOL0     O57422   4.448   9.303   5.567 -0.4347  0.2931 -0.0949
  426MOL0     C57423   4.269   9.425   5.851  0.7673 -0.5213  0.2233
  426MOL0     C57424   4.138   9.475   5.866 -0.7300 -0.2034 -0.1675
  426MOL0     N57425   3.478   9.751   6.235 -0.1895 -0.1755  0.1409
  426MOL0     N57426   3.364   9.745   6.299 -0.4826  0.1012 -0.7398
  426MOL0     C57427   2.071  10.245   6.124  0.0247  1.3095 -0.4763
  426MOL0     C57428   1.944  10.292   6.088 -0.5899  0.4939  0.1026
  426MOL0     C57429   1.616  10.568   5.891  0.0181 -0.2474  0.3284
  426MOL0     C57430   1.535  10.455   5.873  0.4835  0.8244  0.0156
  426MOL0     C57431   1.396  10.469   5.851 -0.1115 -0.5337  0.4561
  426MOL0     C57432   1.342  10.599   5.819 -0.8652 -0.2292  0.2655
  426MOL0     O57433   1.217  10.632   5.780  0.4618  0.2559 -0.3921
  426MOL0     C57434   1.129  10.514   5.766 -0.7489 -0.4447 -0.0972
  426MOL0     C57435   0.989  10.534   5.719  0.3981  0.8439  0.1224
  426MOL0     C57436   0.922  10.634   5.808 -0.2289  0.1836 -0.3451
  426MOL0     C57437   0.769  10.646   5.780 -0.5002 -0.3837 -0.0452
  426MOL0     C57438   0.712  10.754   5.866  0.0502 -0.8750 -0.1852
  426MOL0     C57439   0.665  10.830   5.946 -0.0975  0.0339  0.5052
  426MOL0     C57440   1.431  10.703   5.836 -0.2869 -0.4186 -0.0568
  426MOL0     C57441   1.564  10.703   5.870 -1.0761  0.5015  0.2030
  426MOL0     C57442   1.629  10.836   5.879  0.6557 -0.7762  0.3193
  426MOL0     H57443   2.036  10.528   5.872 -0.1218 -0.7501  0.4492
  426MOL0     H57444   2.255  10.465   5.953 -1.5874  1.1048 -0.3463
  426MOL0     H57445   2.401  10.198   5.968 -0.9468 -0.7724  0.7323
  426MOL0     H57446   2.473  10.354   6.026 -0.5076  0.1788  1.0063
  426MOL0     H57447   2.465  10.096   6.193  4.2004 -1.4790  2.2342
  426MOL0     H57448   2.521  10.259   6.232 -2.3955 -0.4791 -0.1763
  426MOL0     H57449   2.704  10.258   6.091 -1.7385  1.1889  1.2147
  426MOL0     H57450   2.638  10.111   6.003 -2.1146 -0.0082  0.5499
  426MOL0     H57451   2.725  10.108   6.295 -0.8521  0.2981  0.4418
  426MOL0     H57452   2.675   9.974   6.205  1.2517  0.0162  2.0832
  426MOL0     H57453   2.871  10.039   6.034 -0.7734 -0.6695  0.6289
  426MOL0     H57454   2.912  10.139   6.171 -0.5730  1.9477 -4.0897
  426MOL0     H57455   2.888   9.920   6.311 -0.9419  0.1240 -0.2359
  426MOL0     H57456   2.864   9.844   6.155 -0.1706  0.5923 -1.2255
  426MOL0     H57457   3.095   9.995   6.282  2.4601 -1.3764  0.9202
  426MOL0     H57458   3.118   9.944   6.111  0.6548 -0.5781  0.1550
  426MOL0     H57459   3.098   9.766   6.339 -2.7320  0.8772 -0.0643
  426MOL0     H57460   3.077   9.712   6.173  0.8265 -1.3187  0.8294
  426MOL0     H57461   3.273   9.840   5.991  1.3116  0.1971 -0.9783
  426MOL0     H57462   3.499   9.743   5.905  1.4392 -2.4558 -0.7284
  426MOL0     H57463   3.596   9.878   5.977 -1.8251  0.9178  0.9923
  426MOL0     H57464   3.753   9.723   6.081  0.7498  0.4643 -1.5789
  426MOL0     H57465   3.641   9.595   6.086  0.6444  0.0643  1.0730
  426MOL0     H57466   3.743   9.693   5.805 -3.2085 -0.4440 -1.3422
  426MOL0     H57467   3.637   9.573   5.838 -1.0761  3.3419 -0.2868
  426MOL0     H57468   3.821   9.444   5.963  0.8899  1.0348  2.3999
  426MOL0     H57469   3.912   9.594   5.977  2.3754  0.2472 -1.5343
  426MOL0     H57470   3.985   9.333   5.597  3.5025  1.9393 -2.8433
  426MOL0     H57471   4.195   9.236   5.573  0.1275 -0.1457  0.2951
  426MOL0     H57472   4.588   9.099   5.569 -0.7450  1.1495  0.9452
  426MOL0     H57473   4.796   8.971   5.540 -0.9607  1.2282 -1.4487
  426MOL0     H57474   5.141   9.127   5.760  0.7620  0.3549  1.4157
  426MOL0     H57475   5.109   8.992   5.876 -3.3573  0.1134 -0.0022
  426MOL0     H57476   5.214   8.848   5.707 -2.3690 -0.0341  2.5061
  426MOL0     H57477   5.270   8.985   5.609 -0.4301  1.2544 -0.0925
  426MOL0     H57478   5.398   9.055   5.821 -1.3161  0.0951 -0.3864
  426MOL0     H57479   5.343   8.915   5.899 -1.7024 -0.1217  0.0171
  426MOL0     H57480   5.513   8.903   5.630  0.7923 -1.0691 -0.4179
  426MOL0     H57481   5.454   8.769   5.726 -1.1970  0.6025  2.5307
  426MOL0     H57482   5.580   8.880   5.928  1.7964  3.9622  0.3283
  426MOL0     H57483   5.648   8.978   5.802 -1.9215  0.8664  0.6768
  426MOL0     H57484   5.665   8.675   5.814 -2.0648  1.2621  2.6642
  426MOL0     H57485   5.739   8.783   5.683  3.8311  2.3841  0.2853
  426MOL0     H57486   5.814   8.812   5.976 -0.0567  0.3927 -0.4562
  426MOL0     H57487   5.866   8.910   5.839 -0.7330 -0.2519 -1.9468
  426MOL0     H57488   5.982   8.732   5.746 -3.9149  1.0094 -1.7875
  426MOL0     H57489   6.033   8.758   5.920  0.1914  0.1401 -0.5541
  426MOL0     H57490   4.928   9.144   5.923 -1.3591 -0.7814  2.8176
  426MOL0     H57491   4.734   9.263   5.943  1.7475 -1.3884  1.4175
  426MOL0     H57492   4.350   9.462   5.913  0.9718  1.9554 -1.3987
  426MOL0     H57493   4.126   9.557   5.937 -2.1085 -2.5274  2.4531
  426MOL0     H57494   2.083  10.157   6.187  0.8992  0.4992 -1.7118
  426MOL0     H57495   1.858  10.243   6.132 -0.0070  0.0752  0.7935
  426MOL0     H57496   1.583  10.361   5.896  1.0476  1.3036  0.8875
  426MOL0     H57497   1.326  10.386   5.848 -1.3451  0.4941  0.1997
  426MOL0     H57498   1.127  10.451   5.855 -1.2779 -2.6622 -1.6015
  426MOL0     H57499   1.173  10.456   5.685  0.2614 -0.0066  0.1223
  426MOL0     H57500   0.939  10.437   5.717  2.0405 -0.0626  0.9611
  426MOL0     H57501   0.985  10.568   5.615 -1.8493 -0.0377 -0.1372
  426MOL0     H57502   0.959  10.736   5.812 -0.5679  0.4085 -2.0878
  426MOL0     H57503   0.942  10.595   5.908 -0.5787 -2.3702 -1.1818
  426MOL0     H57504   0.755  10.670   5.674 -1.9390  0.3825  0.2898
  426MOL0     H57505   0.716  10.554   5.808  0.9112 -0.7822  1.4364
  426MOL0     H57506   0.605  10.897   6.005 -2.0800 -1.6099  0.4861
  426MOL0     H57507   1.391  10.803   5.820  1.1985  0.5645  2.0245
  426MOL0     H57508   1.553  10.915   5.873 -0.5286 -1.9503 -1.1524
  426MOL0     H57509   1.682  10.835   5.975  3.0462 -0.7845 -0.9282
  426MOL0     H57510   1.706  10.839   5.802  1.6323  0.1580  1.3011
  427MOL0     O57511   2.115   9.537   0.895  0.3525  0.7382  0.2542
  427MOL0     C57512   2.140   9.541   0.775  0.5653 -0.3056 -0.0808
  427MOL0     O57513   2.266   9.568   0.725 -0.3187 -0.2779 -1.1190
  427MOL0     C57514   2.377   9.594   0.795 -0.1167 -0.1013 -0.4044
  427MOL0     C57515   2.404   9.532   0.918  0.1112 -0.3506  0.1163
  427MOL0     C57516   2.521   9.570   0.985 -0.3641 -0.4581  0.6186
  427MOL0     C57517   2.609   9.672   0.940 -1.5691 -0.3226 -0.0007
  427MOL0     O57518   2.722   9.719   1.006  0.1729  0.2434  0.6340
  427MOL0     C57519   2.747   9.673   1.140 -0.0382  0.1025 -0.6983
  427MOL0     C57520   2.862   9.756   1.198 -0.5782 -0.1276 -0.0136
  427MOL0     C57521   3.001   9.715   1.132  0.2675  0.0732  0.4497
  427MOL0     C57522   3.112   9.814   1.158  0.4150 -0.4374  0.4667
  427MOL0     C57523   3.240   9.766   1.098  0.0450  0.4832 -0.3963
  427MOL0     C57524   3.358   9.848   1.133  0.0105 -0.8751 -0.2374
  427MOL0     C57525   3.488   9.805   1.071  0.0794 -0.5270  0.0090
  427MOL0     C57526   3.567   9.709   1.162 -0.7532 -0.1910  0.0525
  427MOL0     N57527   3.703   9.759   1.208 -0.3089  0.6259 -0.0894
  427MOL0     C57528   3.734   9.873   1.283  0.2558  0.4089 -0.4880
  427MOL0     C57529   3.868   9.867   1.305  0.3243 -0.1973 -0.2837
  427MOL0     C57530   3.939   9.964   1.395 -0.0968 -0.6159 -0.1510
  427MOL0     C57531   4.047  10.041   1.321 -0.7435 -0.2799  0.3004
  427MOL0     C57532   4.173   9.960   1.290 -1.3050 -0.3320  0.5712
  427MOL0     C57533   4.272  10.052   1.207  0.3337 -0.1915 -0.3821
  427MOL0     O57534   4.325  10.159   1.296  0.0330 -0.1159 -1.0571
  427MOL0     C57535   4.458  10.159   1.332 -0.0174  0.6913 -0.8508
  427MOL0     C57536   4.499  10.236   1.442 -0.6767 -0.6807 -0.1820
  427MOL0     C57537   4.636  10.238   1.493 -0.7509  0.3814  0.2063
  427MOL0     C57538   4.732  10.168   1.427 -0.3501 -0.4803 -0.8024
  427MOL0     C57539   4.875  10.177   1.465  0.8114  0.1140 -0.2060
  427MOL0     O57540   4.896  10.244   1.575  0.3170  0.1197 -0.2341
  427MOL0     C57541   5.020  10.275   1.613 -0.5084  0.3541 -0.0045
  427MOL0     C57542   5.130  10.312   1.526  0.6906  0.2430  0.0445
  427MOL0     C57543   5.255  10.355   1.580  0.0053  0.5102 -0.5668
  427MOL0     C57544   5.268  10.356   1.722  0.1295  0.3402  0.7273
  427MOL0     O57545   5.381  10.404   1.788  0.2492 -0.3258 -0.1950
  427MOL0     C57546   5.491  10.453   1.709 -0.2858 -0.2144 -0.7193
  427MOL0     C57547   5.599  10.480   1.806  0.0220 -1.2543  0.8582
  427MOL0     C57548   5.724  10.547   1.747  0.7831  0.2176 -0.2147
  427MOL0     C57549   5.816  10.591   1.866 -0.0488 -0.5855  0.5768
  427MOL0     C57550   5.963  10.626   1.824 -0.7586  0.8764 -1.4385
  427MOL0     C57551   6.051  10.654   1.955 -0.0292 -0.0163 -0.1603
  427MOL0     C57552   6.200  10.656   1.911  0.1102  0.3806 -0.4328
  427MOL0     C57553   6.286  10.720   2.017  0.4741 -0.4059 -0.4587
  427MOL0    Cl57554   6.440  10.776   1.935 -0.0853 -0.1393  0.2822
  427MOL0     C57555   5.162  10.317   1.806 -0.4372  0.6639  0.2159
  427MOL0     C57556   5.038  10.288   1.749  0.0320 -0.7005  0.4226
  427MOL0     O57557   4.956  10.104   1.411  0.5151 -0.2716 -0.2507
  427MOL0     C57558   4.689  10.091   1.320 -1.1638  0.7145  0.2677
  427MOL0     C57559   4.563  10.084   1.283  0.4481  0.3244  1.0816
  427MOL0     N57560   3.914   9.765   1.225  0.2781 -0.4316 -1.1380
  427MOL0     N57561   3.822   9.699   1.172 -0.4267 -0.4434  0.5000
  427MOL0     C57562   2.584   9.733   0.822  0.3148  0.3411 -0.9423
  427MOL0     C57563   2.471   9.689   0.750  0.6046 -0.9480 -0.2977
  427MOL0     C57564   2.028   9.515   0.677 -1.3038 -0.0067  0.6113
  427MOL0     C57565   1.906   9.471   0.731 -0.1277 -0.5271 -0.3766
  427MOL0     C57566   1.788   9.463   0.653  0.2176 -0.2108  0.0016
  427MOL0     C57567   1.800   9.464   0.512  0.3765  0.5783  0.2183
  427MOL0     O57568   1.680   9.485   0.444 -0.3625 -0.0387 -0.3267
  427MOL0     C57569   1.692   9.525   0.307  0.3019  0.0833 -0.3744
  427MOL0     C57570   1.560   9.546   0.221  0.0701 -0.2784  0.2612
  427MOL0     C57571   1.455   9.619   0.305 -0.4849  0.6008 -0.3966
  427MOL0     C57572   1.331   9.683   0.242  0.2718  0.9420  0.3797
  427MOL0     C57573   1.246   9.577   0.182 -0.4238  0.5134  1.0388
  427MOL0     C57574   1.177   9.498   0.119 -0.8862 -0.3929 -0.5914
  427MOL0     C57575   1.928   9.462   0.451 -0.4528 -0.1375 -0.3732
  427MOL0     C57576   2.046   9.498   0.530 -0.4622  0.2254 -0.1207
  427MOL0     C57577   2.173   9.516   0.453 -0.0488 -0.1808 -0.0732
  427MOL0     H57578   2.344   9.459   0.971  0.3980 -1.9261 -1.6497
  427MOL0     H57579   2.541   9.515   1.076  1.1014 -1.1461 -0.0765
  427MOL0     H57580   2.660   9.679   1.206  1.9420 -0.4702  2.1234
  427MOL0     H57581   2.777   9.569   1.147  1.3613  0.5165 -0.2191
  427MOL0     H57582   2.864   9.748   1.307 -3.1187 -0.7172  0.0435
  427MOL0     H57583   2.843   9.859   1.166 -0.6089  0.5046  1.9035
  427MOL0     H57584   2.978   9.714   1.025 -1.8754  3.0135  0.7747
  427MOL0     H57585   3.020   9.615   1.172 -2.5857 -0.5909  0.3389
  427MOL0     H57586   3.081   9.910   1.116  0.7217 -0.4510  0.2120
  427MOL0     H57587   3.125   9.827   1.266 -3.9629  1.3152  1.0284
  427MOL0     H57588   3.249   9.663   1.132 -0.2207  1.0404  1.4577
  427MOL0     H57589   3.215   9.764   0.991  0.6948 -1.2993 -0.5513
  427MOL0     H57590   3.339   9.954   1.113  2.5511  0.1018  2.0426
  427MOL0     H57591   3.378   9.842   1.240 -1.0238  0.2184  0.0358
  427MOL0     H57592   3.538   9.899   1.047 -2.2259  0.5157 -1.0898
  427MOL0     H57593   3.466   9.759   0.974 -3.5703  1.2865 -0.1929
  427MOL0     H57594   3.504   9.685   1.248 -3.0033  1.7597 -0.9424
  427MOL0     H57595   3.568   9.608   1.119 -2.4842 -1.2995  2.3763
  427MOL0     H57596   3.669   9.946   1.330 -1.2283 -1.8736  1.2392
  427MOL0     H57597   3.876  10.042   1.439  1.7813  1.1232 -0.3838
  427MOL0     H57598   3.976   9.903   1.478  0.7270  0.6886  0.4838
  427MOL0     H57599   4.003  10.086   1.232 -2.7027 -0.9416  0.8748
  427MOL0     H57600   4.082  10.122   1.385 -0.2901  0.3514 -0.7230
  427MOL0     H57601   4.158   9.863   1.241 -1.1655 -1.2724  2.3161
  427MOL0     H57602   4.220   9.936   1.385 -4.5377 -2.0468  1.9201
  427MOL0     H57603   4.213  10.096   1.126  0.0042 -1.1464 -0.6773
  427MOL0     H57604   4.351   9.995   1.158  3.3115  3.5425 -0.3866
  427MOL0     H57605   4.424  10.282   1.506 -0.7588 -1.2607  0.1486
  427MOL0     H57606   4.645  10.285   1.591  0.9153  0.6871 -0.0733
  427MOL0     H57607   5.120  10.300   1.418 -0.7170  0.7756  0.0951
  427MOL0     H57608   5.338  10.379   1.514  0.7487  1.8338  0.7682
  427MOL0     H57609   5.530  10.392   1.626 -1.2713  1.0576 -2.1553
  427MOL0     H57610   5.466  10.551   1.668 -0.7163 -0.8390 -1.9975
  427MOL0     H57611   5.552  10.547   1.879  0.0605 -0.1876 -0.0726
  427MOL0     H57612   5.620  10.381   1.847  0.7795 -0.1842  3.2166
  427MOL0     H57613   5.767  10.482   1.670  1.9184 -1.4600  1.7290
  427MOL0     H57614   5.692  10.637   1.693  0.3305  0.2878  0.1662
  427MOL0     H57615   5.830  10.518   1.946 -1.1096  0.2160  1.5240
  427MOL0     H57616   5.782  10.681   1.919 -0.8877 -1.8989  2.3883
  427MOL0     H57617   5.971  10.710   1.755  3.2686 -1.5135 -4.3701
  427MOL0     H57618   6.013  10.540   1.778 -0.6319  0.2646 -0.1914
  427MOL0     H57619   6.029  10.746   2.009 -1.2721 -1.1176  1.2856
  427MOL0     H57620   6.047  10.563   2.016  2.2672  0.4996  0.8994
  427MOL0     H57621   6.210  10.719   1.822  1.9224  0.3276 -0.3014
  427MOL0     H57622   6.233  10.556   1.882 -3.4394 -0.5903 -1.5695
  427MOL0     H57623   6.238  10.803   2.069 -0.5257  0.2967 -2.4211
  427MOL0     H57624   6.310  10.641   2.090 -0.8205 -1.2193 -0.8953
  427MOL0     H57625   5.183  10.330   1.912 -1.1141  3.3766  0.0650
  427MOL0     H57626   4.957  10.255   1.814  1.5294 -0.6025  2.4598
  427MOL0     H57627   4.764  10.038   1.263 -0.3766  1.6672  0.3777
  427MOL0     H57628   4.556  10.011   1.203  0.8286  0.4267  0.9491
  427MOL0     H57629   2.652   9.793   0.761  0.8827  0.0756 -0.5769
  427MOL0     H57630   2.455   9.732   0.652 -2.1832 -1.4924 -0.1424
  427MOL0     H57631   1.897   9.469   0.839  2.1601  1.3518 -0.0700
  427MOL0     H57632   1.687   9.442   0.686  0.0034 -1.0017 -1.0937
  427MOL0     H57633   1.746   9.451   0.247  1.8203 -0.2033  1.2840
  427MOL0     H57634   1.746   9.620   0.303  0.7781 -0.1937 -0.6827
  427MOL0     H57635   1.512   9.454   0.187  0.4707  0.0725 -1.3029
  427MOL0     H57636   1.582   9.606   0.133 -0.7568  0.3653  0.4830
  427MOL0     H57637   1.506   9.705   0.349 -3.0690  2.7877 -1.3476
  427MOL0     H57638   1.417   9.547   0.377 -2.3438 -1.4735 -3.2257
  427MOL0     H57639   1.279   9.737   0.321 -0.4886  0.9828 -0.1425
  427MOL0     H57640   1.358   9.749   0.160  1.6922 -1.2481 -1.0356
  427MOL0     H57641   1.119   9.433   0.056 -2.8575 -0.1072  0.8057
  427MOL0     H57642   1.939   9.471   0.343  2.0372  5.0437  0.0164
  427MOL0     H57643   2.195   9.623   0.455 -0.9083  0.0036 -0.2742
  427MOL0     H57644   2.264   9.475   0.499 -0.3507 -0.6546  0.1158
  427MOL0     H57645   2.176   9.466   0.356  2.0735 -1.0461  0.3721
  428MOL0     O57646   4.484   2.115   4.478 -0.4276  1.0757  0.0363
  428MOL0     C57647   4.488   2.110   4.600 -0.0875 -0.6832 -0.0307
  428MOL0     O57648   4.555   2.024   4.675 -0.8243 -0.3674 -0.3519
  428MOL0     C57649   4.650   1.946   4.610  0.0718  0.8349  0.1952
  428MOL0     C57650   4.782   1.965   4.659 -0.4104  0.5991  0.1865
  428MOL0     C57651   4.885   1.881   4.607 -0.2497 -0.0508 -0.3189
  428MOL0     C57652   4.862   1.791   4.502 -0.6037 -0.6012  0.4675
  428MOL0     O57653   4.963   1.717   4.440  0.7385  0.2030 -0.3657
  428MOL0     C57654   5.104   1.729   4.478 -1.1009  0.4978 -0.6593
  428MOL0     C57655   5.180   1.648   4.370 -0.2394  0.0775 -0.5859
  428MOL0     C57656   5.322   1.606   4.417  0.5984  0.7207 -0.4111
  428MOL0     C57657   5.409   1.734   4.450  0.5519  0.0593 -0.2652
  428MOL0     C57658   5.551   1.711   4.476 -0.4518 -0.2779  0.1962
  428MOL0     C57659   5.596   1.818   4.575 -0.9613  0.0599 -0.6495
  428MOL0     C57660   5.752   1.822   4.586 -0.0807  0.7955  0.5427
  428MOL0     C57661   5.791   1.922   4.699 -0.5645 -0.8221  0.1809
  428MOL0     N57662   5.935   1.922   4.714 -0.3622 -0.7525  0.9890
  428MOL0     C57663   6.020   2.026   4.748 -0.0813  0.1777 -0.4641
  428MOL0     C57664   6.138   1.968   4.754 -0.6307 -0.6268 -0.3201
  428MOL0     C57665   6.267   2.047   4.795  0.2787 -0.0601 -0.8352
  428MOL0     C57666   6.373   2.024   4.685  0.2186 -0.4178 -0.4580
  428MOL0     C57667   6.335   2.062   4.546  0.1743  0.5681 -0.5871
  428MOL0     C57668   6.455   2.061   4.450 -0.3670 -0.1631 -0.2181
  428MOL0     O57669   6.406   2.111   4.327 -0.4595 -0.3665 -0.3359
  428MOL0     C57670   6.502   2.104   4.227 -0.6155  0.2466  0.2206
  428MOL0     C57671   6.459   2.148   4.108 -0.2005  0.6045 -0.0702
  428MOL0     C57672   6.542   2.168   3.999 -0.3613  0.2653  0.0151
  428MOL0     C57673   6.676   2.115   4.007 -0.5324  0.0446  0.0895
  428MOL0     C57674   6.776   2.144   3.897 -0.3471  1.2306  0.4232
  428MOL0     O57675   6.909   2.096   3.912 -0.0773 -0.3271 -0.2594
  428MOL0     C57676   7.009   2.127   3.828  0.2820  0.2835  0.4550
  428MOL0     C57677   7.013   2.241   3.746  1.0052  0.7910  0.1751
  428MOL0     C57678   7.115   2.257   3.656  0.0775 -1.1608 -0.7482
  428MOL0     C57679   7.215   2.165   3.647 -0.0303  0.4434  0.6446
  428MOL0     O57680   7.318   2.190   3.559 -0.7463 -0.1334  0.2453
  428MOL0     C57681   7.342   2.087   3.459  0.7504 -0.4441 -0.1890
  428MOL0     C57682   7.481   2.082   3.406  0.4652  0.5639 -0.7091
  428MOL0     C57683   7.581   2.095   3.524  0.0535  0.3217  0.0598
  428MOL0     C57684   7.726   2.072   3.473 -0.5679 -0.3909 -0.3565
  428MOL0     C57685   7.827   2.121   3.585  0.6541 -0.3066 -0.8697
  428MOL0     C57686   7.842   2.023   3.702 -0.5747 -0.5413  0.5556
  428MOL0     C57687   7.787   2.057   3.848 -0.8603 -0.6264  0.5815
  428MOL0     C57688   7.819   1.938   3.924 -0.8040 -0.0155 -1.0899
  428MOL0    Cl57689   7.796   1.971   4.099  0.7095 -0.1289 -0.1338
  428MOL0     C57690   7.228   2.058   3.737  1.1159 -0.0205  0.0096
  428MOL0     C57691   7.118   2.033   3.820  0.7068  0.0570  0.4797
  428MOL0     O57692   6.735   2.217   3.803 -0.3581 -0.6673 -0.2579
  428MOL0     C57693   6.718   2.067   4.130 -0.5632  0.3394 -0.2198
  428MOL0     C57694   6.630   2.060   4.244 -0.2397 -0.5024  0.0384
  428MOL0     N57695   6.131   1.829   4.737  0.1669  0.7060  1.3521
  428MOL0     N57696   6.006   1.800   4.714 -0.4978  0.3515 -0.4123
  428MOL0     C57697   4.732   1.788   4.453  0.3696 -0.2772 -0.0407
  428MOL0     C57698   4.625   1.854   4.506 -0.1266 -0.0662 -0.6684
  428MOL0     C57699   4.390   2.201   4.662  0.5888  0.2968  0.3564
  428MOL0     C57700   4.326   2.156   4.782  0.4878 -0.3907  0.4171
  428MOL0     C57701   4.236   2.227   4.852 -0.6296  0.4410 -1.1901
  428MOL0     C57702   4.191   2.344   4.794 -0.0101 -0.9423 -0.2292
  428MOL0     O57703   4.098   2.428   4.846 -0.5389 -0.8566  0.2390
  428MOL0     C57704   4.019   2.379   4.956 -0.1742 -0.2077  0.6710
  428MOL0     C57705   3.870   2.397   4.927  0.3125 -0.0814 -0.6645
  428MOL0     C57706   3.808   2.299   4.835  0.4144 -0.0652  0.4955
  428MOL0     C57707   3.659   2.331   4.830  0.4951  0.0838  0.0269
  428MOL0     C57708   3.602   2.216   4.762 -0.3442  0.3726 -0.1284
  428MOL0     C57709   3.570   2.121   4.704 -0.4232 -0.8214  1.1264
  428MOL0     C57710   4.264   2.400   4.685 -0.2205  0.4106 -0.2881
  428MOL0     C57711   4.368   2.329   4.614 -0.5348  0.7974 -0.4313
  428MOL0     C57712   4.443   2.381   4.489 -0.1412 -0.6171 -0.2332
  428MOL0     H57713   4.803   2.032   4.742  0.2477  1.0722 -0.3619
  428MOL0     H57714   4.985   1.892   4.649 -0.4823  0.4048  0.1375
  428MOL0     H57715   5.142   1.832   4.483 -0.3897  0.2325 -0.5155
  428MOL0     H57716   5.121   1.684   4.576 -2.4392 -2.9556 -1.8824
  428MOL0     H57717   5.176   1.703   4.276 -0.5293  0.8535 -0.1242
  428MOL0     H57718   5.122   1.555   4.363 -0.2618  0.0492 -0.0529
  428MOL0     H57719   5.362   1.546   4.334 -2.1705  0.3359 -1.5646
  428MOL0     H57720   5.312   1.540   4.503  1.6972 -0.4860 -1.1675
  428MOL0     H57721   5.397   1.799   4.363  0.5363 -2.9140 -2.6324
  428MOL0     H57722   5.361   1.776   4.539 -1.3041 -2.7761  0.2139
  428MOL0     H57723   5.572   1.608   4.506 -1.3435 -0.7678 -0.7962
  428MOL0     H57724   5.603   1.723   4.380 -0.9594  0.3647 -0.0088
  428MOL0     H57725   5.558   1.914   4.541 -1.9560  0.4348  1.3250
  428MOL0     H57726   5.556   1.786   4.672  1.7553 -0.9412  0.2373
  428MOL0     H57727   5.799   1.870   4.499 -1.7067 -0.8327 -1.3097
  428MOL0     H57728   5.781   1.718   4.603 -1.1882  0.2385 -0.7995
  428MOL0     H57729   5.763   2.025   4.675  2.2830 -0.1579 -0.7107
  428MOL0     H57730   5.754   1.890   4.796  3.5179 -2.4006  1.4040
  428MOL0     H57731   6.002   2.132   4.763  0.0379 -0.2587  3.9478
  428MOL0     H57732   6.235   2.151   4.806 -1.1917 -0.4978 -0.7878
  428MOL0     H57733   6.312   2.031   4.894 -0.8738 -2.0703 -0.5794
  428MOL0     H57734   6.454   2.093   4.712 -0.4612  0.5363 -0.8130
  428MOL0     H57735   6.405   1.919   4.683 -1.3979 -0.9614  0.5531
  428MOL0     H57736   6.287   2.160   4.552  0.5837  1.0085 -3.3265
  428MOL0     H57737   6.264   1.983   4.520  2.6691 -2.4025  0.9319
  428MOL0     H57738   6.491   1.958   4.448 -2.0732 -0.7754 -1.3253
  428MOL0     H57739   6.535   2.133   4.470 -0.9897  0.9194 -1.4881
  428MOL0     H57740   6.361   2.194   4.101 -1.1274 -0.9278  1.6607
  428MOL0     H57741   6.502   2.222   3.914 -1.3299  0.7741  0.7743
  428MOL0     H57742   6.930   2.312   3.747 -1.7565 -2.2246  0.0450
  428MOL0     H57743   7.121   2.338   3.583  2.1350 -2.5954 -2.3033
  428MOL0     H57744   7.324   1.991   3.509 -2.4823  0.0563 -0.2011
  428MOL0     H57745   7.270   2.099   3.378 -2.3522 -3.0671  1.9094
  428MOL0     H57746   7.499   1.981   3.366  4.1433  1.5013 -1.8363
  428MOL0     H57747   7.495   2.150   3.322 -0.8151 -0.2395 -1.6036
  428MOL0     H57748   7.560   2.189   3.576 -0.1501  0.1937  0.2110
  428MOL0     H57749   7.555   2.017   3.597 -1.7660  2.0615  1.3755
  428MOL0     H57750   7.745   2.136   3.387  0.3344  2.0416  1.5522
  428MOL0     H57751   7.741   1.966   3.449  1.8461 -0.5343  1.3594
  428MOL0     H57752   7.779   2.209   3.627 -2.6533 -0.6123 -3.5531
  428MOL0     H57753   7.928   2.144   3.549  1.1156  1.4377  1.3427
  428MOL0     H57754   7.802   1.931   3.658  1.0172  0.9877 -4.8578
  428MOL0     H57755   7.949   2.009   3.713  0.2212  2.7934 -1.4995
  428MOL0     H57756   7.679   2.076   3.840 -0.6883  0.9951  1.6821
  428MOL0     H57757   7.830   2.150   3.885 -1.3597 -1.2997  2.9953
  428MOL0     H57758   7.739   1.866   3.900 -1.8190 -0.7211  3.4443
  428MOL0     H57759   7.920   1.900   3.904  0.1596  0.5773  2.0863
  428MOL0     H57760   7.310   1.987   3.745  1.5141  0.5998  2.5966
  428MOL0     H57761   7.140   1.947   3.883  3.4046 -0.5161 -1.0678
  428MOL0     H57762   6.821   2.034   4.139 -0.8243 -0.6615 -0.7216
  428MOL0     H57763   6.676   2.026   4.337  5.8235 -0.0287 -2.3427
  428MOL0     H57764   4.713   1.716   4.374  0.9132  1.3715 -1.7444
  428MOL0     H57765   4.539   1.822   4.448  1.3177 -2.0050 -1.8505
  428MOL0     H57766   4.370   2.067   4.827  1.2296 -0.2939 -0.0939
  428MOL0     H57767   4.209   2.180   4.946  2.1505 -0.5963 -0.7948
  428MOL0     H57768   4.039   2.438   5.045  1.8640 -0.8727  0.7042
  428MOL0     H57769   4.033   2.274   4.985  0.2909  0.6596  3.9634
  428MOL0     H57770   3.852   2.501   4.899  0.4350  0.3011  0.6276
  428MOL0     H57771   3.824   2.389   5.027 -0.3935  1.0554 -0.8821
  428MOL0     H57772   3.808   2.200   4.882  0.1302 -0.5765 -0.5443
  428MOL0     H57773   3.848   2.298   4.734 -1.8105 -1.2845 -0.4484
  428MOL0     H57774   3.613   2.334   4.929 -0.9016 -0.1890 -0.5915
  428MOL0     H57775   3.638   2.425   4.777 -0.1873  1.0264  1.8917
  428MOL0     H57776   3.534   2.040   4.643 -2.6869 -0.9577  2.5136
  428MOL0     H57777   4.241   2.504   4.663 -1.0299  0.3944  0.4369
  428MOL0     H57778   4.432   2.489   4.497  0.2109 -0.6298  0.4592
  428MOL0     H57779   4.549   2.358   4.475 -0.4128 -0.7578 -2.4635
  428MOL0     H57780   4.390   2.350   4.398  1.3646  0.1831 -1.4248
  429MOL0     O57781   5.544   7.732   5.848  0.2470  0.5950 -0.0206
  429MOL0     C57782   5.469   7.634   5.875  0.4182 -0.2626 -0.3056
  429MOL0     O57783   5.516   7.500   5.861  0.2720  0.2943 -0.1239
  429MOL0     C57784   5.651   7.480   5.827  0.7352 -0.2897 -0.2091
  429MOL0     C57785   5.702   7.512   5.700 -0.5300 -0.2575  0.9588
  429MOL0     C57786   5.837   7.484   5.667  0.4163  0.4794 -0.3532
  429MOL0     C57787   5.915   7.414   5.757 -0.1720 -0.5988  0.2537
  429MOL0     O57788   6.047   7.374   5.740  0.1277 -0.3668  0.1907
  429MOL0     C57789   6.100   7.406   5.607  0.4824  0.1947 -0.1436
  429MOL0     C57790   6.249   7.356   5.598 -0.4566  0.8294 -0.2375
  429MOL0     C57791   6.333   7.425   5.702 -0.5741 -1.4670 -0.5390
  429MOL0     C57792   6.479   7.379   5.689  0.4665 -0.4156 -0.3694
  429MOL0     C57793   6.497   7.227   5.726 -0.1674  0.3975 -0.0204
  429MOL0     C57794   6.630   7.203   5.800 -0.8859 -0.8630  0.2136
  429MOL0     C57795   6.645   7.052   5.843  0.8406 -0.6913 -0.2463
  429MOL0     C57796   6.720   7.023   5.972  0.3907  0.6110  0.5722
  429MOL0     N57797   6.852   6.982   5.941 -1.0752 -0.2588 -0.7408
  429MOL0     C57798   6.960   7.067   5.903  0.3693 -0.2423 -0.9972
  429MOL0     C57799   7.068   6.985   5.885 -0.0266 -0.0717 -1.0019
  429MOL0     C57800   7.213   7.004   5.845 -0.3849 -0.4288 -0.0694
  429MOL0     C57801   7.313   7.010   5.957 -0.2075 -0.2273  0.8172
  429MOL0     C57802   7.304   7.137   6.038  0.1067  0.3031 -0.8883
  429MOL0     C57803   7.426   7.157   6.135  0.0722 -0.2041  0.0653
  429MOL0     O57804   7.551   7.131   6.065 -0.7560  0.1006 -0.4080
  429MOL0     C57805   7.664   7.187   6.116 -0.3618 -0.1918  0.4668
  429MOL0     C57806   7.685   7.241   6.241 -0.6394  0.4687 -0.1280
  429MOL0     C57807   7.808   7.272   6.282 -0.8760  0.2719 -0.0759
  429MOL0     C57808   7.926   7.252   6.205 -0.4052 -0.6315 -0.2232
  429MOL0     C57809   8.065   7.274   6.262  0.9249 -0.3917 -0.3377
  429MOL0     O57810   8.073   7.312   6.389  0.0431  0.4801 -0.0416
  429MOL0     C57811   8.182   7.324   6.468  0.2790 -0.5652 -0.9591
  429MOL0     C57812   8.311   7.288   6.447 -0.0428  0.3506 -0.6915
  429MOL0     C57813   8.412   7.300   6.549 -0.0916  0.2205  0.6050
  429MOL0     C57814   8.384   7.357   6.671  0.4125 -0.1918  0.4206
  429MOL0     O57815   8.475   7.386   6.767  0.8961  0.7146 -0.3006
  429MOL0     C57816   8.613   7.351   6.759  0.8560  1.0009 -0.2929
  429MOL0     C57817   8.682   7.453   6.668  0.2683 -0.1260  0.3420
  429MOL0     C57818   8.807   7.390   6.602  0.2165  0.4922  0.0115
  429MOL0     C57819   8.791   7.399   6.451 -0.1059  0.1900  0.0323
  429MOL0     C57820   8.892   7.323   6.369  0.6454 -0.1222 -0.1942
  429MOL0     C57821   9.029   7.403   6.365  0.6528  0.7566 -1.2634
  429MOL0     C57822   9.123   7.338   6.269 -0.4013 -0.0437  0.0932
  429MOL0     C57823   9.266   7.390   6.291 -0.0570 -0.5553  0.6580
  429MOL0    Cl57824   9.357   7.329   6.146 -0.0646  0.0441  0.4229
  429MOL0     C57825   8.254   7.397   6.687  0.0536  0.1219 -0.1142
  429MOL0     C57826   8.155   7.376   6.591  0.3734  0.5113  0.4729
  429MOL0     O57827   8.157   7.249   6.189  0.8745 -0.5128  0.2248
  429MOL0     C57828   7.901   7.206   6.071  0.1649  0.6131 -1.0131
  429MOL0     C57829   7.770   7.179   6.025  0.6484  0.7936  0.6850
  429MOL0     N57830   7.024   6.858   5.901 -0.5545  0.5924  0.5657
  429MOL0     N57831   6.907   6.855   5.954 -0.6056  0.4268  0.6214
  429MOL0     C57832   5.872   7.393   5.893 -0.5621 -0.8268  0.9722
  429MOL0     C57833   5.739   7.435   5.930 -0.6113 -0.7352  0.2000
  429MOL0     C57834   5.327   7.666   5.910 -0.3055  0.2292 -0.1755
  429MOL0     C57835   5.295   7.805   5.936 -0.1133 -0.1703 -0.1358
  429MOL0     C57836   5.168   7.857   5.964  0.0677  0.3457  0.4306
  429MOL0     C57837   5.066   7.762   5.963 -0.3133 -0.3924  0.0868
  429MOL0     O57838   4.947   7.811   6.008 -0.4167 -0.1407  0.3864
  429MOL0     C57839   4.835   7.745   5.961  0.2918 -0.1095  0.3541
  429MOL0     C57840   4.706   7.814   6.000  0.7357  0.7972 -0.0865
  429MOL0     C57841   4.582   7.744   5.937  0.8884  0.1171 -0.7732
  429MOL0     C57842   4.541   7.610   6.003  0.1258 -0.4785 -0.0715
  429MOL0     C57843   4.489   7.626   6.141 -0.1311 -0.0598  0.0317
  429MOL0     C57844   4.440   7.621   6.252  0.4530 -0.3862  0.3122
  429MOL0     C57845   5.087   7.626   5.929 -0.1218  0.0933  0.1146
  429MOL0     C57846   5.214   7.577   5.902 -0.5119  0.6125  0.6405
  429MOL0     C57847   5.237   7.434   5.884 -0.9111  0.7889  0.2183
  429MOL0     H57848   5.631   7.546   5.625 -0.3353  1.3613  1.4662
  429MOL0     H57849   5.877   7.522   5.574  3.0215  0.4429  0.6836
  429MOL0     H57850   6.043   7.350   5.533  2.1870  1.1578 -2.2867
  429MOL0     H57851   6.083   7.513   5.591  2.4294  0.5645  0.0389
  429MOL0     H57852   6.282   7.377   5.496 -1.4748 -0.8641 -0.9490
  429MOL0     H57853   6.248   7.252   5.630  1.7326  0.9754  0.4377
  429MOL0     H57854   6.290   7.394   5.797  1.7625 -0.2941  0.9923
  429MOL0     H57855   6.326   7.534   5.701  1.1619 -1.3242 -1.1622
  429MOL0     H57856   6.513   7.401   5.587 -0.3733  0.5335 -0.4578
  429MOL0     H57857   6.538   7.441   5.756  0.7420 -1.8102  0.7145
  429MOL0     H57858   6.425   7.195   5.802  0.2924 -2.3881 -0.6512
  429MOL0     H57859   6.487   7.168   5.634  0.4833  1.7216 -0.9844
  429MOL0     H57860   6.711   7.224   5.729 -1.7012 -3.5652 -1.6692
  429MOL0     H57861   6.633   7.257   5.895  1.5689  1.3244 -0.9723
  429MOL0     H57862   6.686   7.002   5.754  1.0591 -1.2531  0.1641
  429MOL0     H57863   6.545   7.015   5.864 -0.8863  2.8458 -1.5032
  429MOL0     H57864   6.718   7.111   6.037 -2.3319  0.7509  0.4096
  429MOL0     H57865   6.680   6.935   6.022  1.7314  0.6214  1.7472
  429MOL0     H57866   6.955   7.172   5.878  1.4632 -0.3197 -1.5838
  429MOL0     H57867   7.239   6.914   5.789 -2.0719 -1.9109  1.3942
  429MOL0     H57868   7.208   7.080   5.767 -0.1781  0.0119  0.3457
  429MOL0     H57869   7.311   6.926   6.027 -0.7896 -0.1971  0.8418
  429MOL0     H57870   7.416   6.999   5.923 -0.0384 -1.2665  1.6203
  429MOL0     H57871   7.214   7.130   6.099  1.6218 -1.4567  1.2649
  429MOL0     H57872   7.302   7.216   5.961  2.2656 -0.8484 -2.1955
  429MOL0     H57873   7.433   7.081   6.213  4.2552  1.4829  1.6559
  429MOL0     H57874   7.423   7.256   6.181  4.4923 -0.2642  0.9599
  429MOL0     H57875   7.603   7.246   6.312 -0.9640 -1.7519 -0.2904
  429MOL0     H57876   7.802   7.305   6.385 -0.1589 -1.1893  0.4557
  429MOL0     H57877   8.331   7.237   6.353  1.2728  2.9351 -1.8958
  429MOL0     H57878   8.502   7.242   6.534  1.1156  1.9581  0.7361
  429MOL0     H57879   8.651   7.349   6.862  0.7791  0.9479 -0.2653
  429MOL0     H57880   8.623   7.251   6.716  1.2202  1.0130 -0.2369
  429MOL0     H57881   8.614   7.492   6.592  1.6420  0.5019 -0.6107
  429MOL0     H57882   8.715   7.538   6.728 -2.5942 -1.0322  3.5166
  429MOL0     H57883   8.898   7.441   6.635 -0.4375  0.5936  1.7779
  429MOL0     H57884   8.818   7.285   6.630 -1.9657 -0.6185 -2.8585
  429MOL0     H57885   8.779   7.505   6.430  1.8921  0.3488 -0.5058
  429MOL0     H57886   8.699   7.344   6.430  0.4667 -0.5761 -0.5584
  429MOL0     H57887   8.861   7.306   6.265 -0.2349 -1.7314  0.2903
  429MOL0     H57888   8.911   7.226   6.416  2.3873 -0.3749 -1.3386
  429MOL0     H57889   9.018   7.506   6.328 -0.6294  0.9362 -0.4622
  429MOL0     H57890   9.071   7.398   6.466 -0.8371  0.7039 -0.6177
  429MOL0     H57891   9.094   7.365   6.167  0.3910 -3.3258 -1.1346
  429MOL0     H57892   9.117   7.229   6.272 -2.0316 -0.0691 -1.9897
  429MOL0     H57893   9.260   7.498   6.305 -1.1034 -0.7106  1.5670
  429MOL0     H57894   9.312   7.344   6.379  1.1381  1.4671  1.1381
  429MOL0     H57895   8.230   7.455   6.775  0.2398  1.1064 -0.7024
  429MOL0     H57896   8.057   7.419   6.612  0.1587  0.5312 -0.5197
  429MOL0     H57897   7.983   7.170   6.011 -0.5593  1.9817 -2.8935
  429MOL0     H57898   7.753   7.136   5.927 -1.7146  3.9777 -0.4605
  429MOL0     H57899   5.943   7.344   5.959  3.8890 -0.6226 -3.1416
  429MOL0     H57900   5.709   7.415   6.033  3.6518 -2.5342  1.3053
  429MOL0     H57901   5.381   7.870   5.931  1.4446 -1.9888  1.2894
  429MOL0     H57902   5.138   7.957   5.992 -0.6726  0.0275  0.7849
  429MOL0     H57903   4.845   7.648   6.010  3.4203  0.1724  0.4465
  429MOL0     H57904   4.835   7.730   5.853 -3.7485  2.1209 -0.1753
  429MOL0     H57905   4.709   7.919   5.969  0.9036  1.3161  1.6202
  429MOL0     H57906   4.711   7.820   6.109  3.3091  1.1540 -0.1495
  429MOL0     H57907   4.594   7.733   5.829  1.5503  2.5628 -1.0209
  429MOL0     H57908   4.498   7.814   5.946  0.4217 -0.6186  0.9799
  429MOL0     H57909   4.458   7.561   5.952  0.1226 -3.4926  2.5728
  429MOL0     H57910   4.615   7.529   5.998  1.2933  0.5970 -1.1304
  429MOL0     H57911   4.387   7.613   6.345 -0.1457  1.4148  0.1748
  429MOL0     H57912   5.011   7.548   5.929 -0.3763  0.1792  3.5477
  429MOL0     H57913   5.289   7.400   5.974 -1.4023  2.8750  1.3771
  429MOL0     H57914   5.139   7.386   5.890 -0.0755 -1.0658 -0.5042
  429MOL0     H57915   5.282   7.423   5.785 -0.2036 -2.0694  0.7745
  430MOL0     O57916   6.167   2.362   4.818  0.4022 -0.3605 -0.2272
  430MOL0     C57917   6.095   2.457   4.862  0.0521  0.3060  0.1180
  430MOL0     O57918   6.142   2.576   4.899  0.6616  0.0952  0.1447
  430MOL0     C57919   6.273   2.595   4.936  0.4110 -0.1257  0.0706
  430MOL0     C57920   6.322   2.726   4.929 -0.4965  0.1258  0.4107
  430MOL0     C57921   6.457   2.762   4.942  0.0615  0.1264  0.6046
  430MOL0     C57922   6.546   2.666   4.985 -0.2457  0.4045  0.1128
  430MOL0     O57923   6.677   2.709   5.017  0.1433 -0.0604 -0.0109
  430MOL0     C57924   6.732   2.828   4.957 -0.2497 -0.1796 -0.0606
  430MOL0     C57925   6.885   2.799   4.939 -0.1854  0.1953  1.0022
  430MOL0     C57926   6.987   2.833   5.052 -0.1685 -0.4692  0.2996
  430MOL0     C57927   7.121   2.848   4.979  0.2283  0.3928  0.0540
  430MOL0     C57928   7.236   2.840   5.078 -0.3332  0.8011 -0.0116
  430MOL0     C57929   7.250   2.965   5.162  0.2133  1.0095 -0.1023
  430MOL0     C57930   7.322   2.937   5.298 -0.0485  0.9558 -0.5999
  430MOL0     C57931   7.256   2.845   5.411  0.0014 -1.6786 -0.5432
  430MOL0     N57932   7.327   2.837   5.544  0.8523 -0.5654  0.2101
  430MOL0     C57933   7.462   2.835   5.568 -0.1071 -0.6757  0.0978
  430MOL0     C57934   7.471   2.788   5.694  0.1507 -0.3687 -0.1386
  430MOL0     C57935   7.606   2.782   5.770  0.3936  0.8206  0.4553
  430MOL0     C57936   7.683   2.660   5.720 -0.1451 -0.0718 -0.5821
  430MOL0     C57937   7.827   2.655   5.782  0.9668 -0.3583 -0.4549
  430MOL0     C57938   7.907   2.527   5.757 -0.5932  0.3793  0.3357
  430MOL0     O57939   7.947   2.517   5.614 -0.0528  0.6857 -0.0906
  430MOL0     C57940   8.063   2.569   5.569 -0.6517  0.5755  0.3707
  430MOL0     C57941   8.083   2.552   5.432 -0.0785 -0.0808 -0.2549
  430MOL0     C57942   8.209   2.596   5.370 -0.2278 -0.4566  0.1252
  430MOL0     C57943   8.311   2.651   5.451  0.2638 -0.0365 -0.4648
  430MOL0     C57944   8.439   2.703   5.387 -1.1049  0.3179 -0.3193
  430MOL0     O57945   8.516   2.786   5.470  0.1794  0.2140  0.7835
  430MOL0     C57946   8.653   2.769   5.478  0.7510  0.1603  0.4576
  430MOL0     C57947   8.727   2.663   5.435  0.5051  1.4722 -0.1573
  430MOL0     C57948   8.866   2.661   5.453 -0.0774 -0.9217  0.0654
  430MOL0     C57949   8.936   2.757   5.527 -0.3087  0.5211  0.3838
  430MOL0     O57950   9.068   2.737   5.561 -0.0324  0.4112 -0.2078
  430MOL0     C57951   9.138   2.849   5.594  0.1068 -0.3695 -0.2545
  430MOL0     C57952   9.294   2.844   5.619 -0.4792  0.8089  0.8041
  430MOL0     C57953   9.350   2.944   5.725  0.5768  0.8669 -0.7247
  430MOL0     C57954   9.492   2.900   5.744  0.0782  0.2516  0.2128
  430MOL0     C57955   9.565   2.997   5.838 -0.2852 -0.5885  0.5131
  430MOL0     C57956   9.704   2.949   5.846  0.4821 -0.2538 -0.0579
  430MOL0     C57957   9.765   3.026   5.967 -0.3945  0.2906 -0.7916
  430MOL0     C57958   9.914   2.982   5.994  0.3919 -0.4848 -0.0541
  430MOL0    Cl57959  10.011   3.051   5.858  0.0927  0.0335  0.0506
  430MOL0     C57960   8.850   2.857   5.583 -0.5716  0.9902  0.1693
  430MOL0     C57961   8.719   2.861   5.554  0.1531 -0.3030  0.4295
  430MOL0     O57962   8.463   2.688   5.271  0.4953  0.0911  0.1288
  430MOL0     C57963   8.291   2.675   5.590  0.0692 -0.3664 -0.3019
  430MOL0     C57964   8.164   2.633   5.645  0.5020  0.4433 -0.4569
  430MOL0     N57965   7.353   2.737   5.738 -0.1991 -0.3939  0.3560
  430MOL0     N57966   7.269   2.771   5.645  0.1346 -0.4875 -0.2699
  430MOL0     C57967   6.497   2.535   5.011  0.8286 -0.2957 -0.8320
  430MOL0     C57968   6.367   2.503   4.974 -0.2160  1.0356 -0.5632
  430MOL0     C57969   5.949   2.450   4.855  1.0196 -0.1846 -0.7918
  430MOL0     C57970   5.886   2.341   4.914  0.1286  0.2838 -0.3628
  430MOL0     C57971   5.755   2.335   4.908  1.1094  0.3149  0.1838
  430MOL0     C57972   5.668   2.428   4.854 -0.2001 -1.0135 -0.6041
  430MOL0     O57973   5.529   2.414   4.842 -1.0939  0.1799 -1.0716
  430MOL0     C57974   5.488   2.360   4.722  0.1115 -0.2573  0.0052
  430MOL0     C57975   5.427   2.220   4.753 -0.5455  0.1932 -0.0517
  430MOL0     C57976   5.361   2.155   4.627  0.2248 -0.1885  0.4053
  430MOL0     C57977   5.235   2.081   4.646 -0.3062 -0.2337  0.1052
  430MOL0     C57978   5.248   1.976   4.754  1.2363  0.9439  0.6015
  430MOL0     C57979   5.257   1.879   4.830 -0.6654 -0.7390 -0.4074
  430MOL0     C57980   5.731   2.534   4.786 -0.1850 -1.0923 -0.9546
  430MOL0     C57981   5.872   2.543   4.781 -0.0890  0.8575 -0.4093
  430MOL0     C57982   5.919   2.672   4.726 -0.2765 -0.0300 -0.0390
  430MOL0     H57983   6.247   2.805   4.926  2.5694  3.2319 -0.8040
  430MOL0     H57984   6.485   2.867   4.947  0.2811  0.0209  3.9745
  430MOL0     H57985   6.696   2.854   4.858 -1.7946  3.3524  1.2740
  430MOL0     H57986   6.720   2.915   5.022  0.0663  0.1365 -0.4249
  430MOL0     H57987   6.912   2.872   4.862  0.4538  2.0811  2.9168
  430MOL0     H57988   6.909   2.697   4.907  2.2252  1.1458 -0.5157
  430MOL0     H57989   6.995   2.752   5.125  2.2831  1.2925  2.1715
  430MOL0     H57990   6.962   2.925   5.105  0.6188  0.2504 -0.5389
  430MOL0     H57991   7.137   2.774   4.900  1.7615 -1.7155  2.1947
  430MOL0     H57992   7.131   2.945   4.929 -0.2664  1.0145  1.1209
  430MOL0     H57993   7.223   2.758   5.150  0.8052 -0.6931 -1.4325
  430MOL0     H57994   7.330   2.825   5.024 -0.0366 -0.5590  0.8136
  430MOL0     H57995   7.304   3.038   5.101  1.8687 -1.7304 -2.1666
  430MOL0     H57996   7.151   3.009   5.177  0.0975  1.7140 -2.4762
  430MOL0     H57997   7.336   3.028   5.357  3.4864 -0.0044  0.3430
  430MOL0     H57998   7.425   2.901   5.284 -0.5056 -0.9372  0.5427
  430MOL0     H57999   7.151   2.875   5.426  0.4242 -1.3906  2.5521
  430MOL0     H58000   7.237   2.743   5.378 -2.5978 -1.9297  1.3682
  430MOL0     H58001   7.549   2.879   5.519  1.2417 -1.8642  1.3160
  430MOL0     H58002   7.675   2.867   5.766  1.6048 -0.0856  1.3945
  430MOL0     H58003   7.579   2.766   5.875 -2.2858  1.0783 -0.1044
  430MOL0     H58004   7.630   2.572   5.757 -0.5617  0.4094 -0.0157
  430MOL0     H58005   7.695   2.667   5.612  4.8541 -0.1338 -0.2395
  430MOL0     H58006   7.809   2.674   5.889  1.4668 -0.9793 -0.2484
  430MOL0     H58007   7.867   2.754   5.759 -0.5343  0.1073 -1.1520
  430MOL0     H58008   7.849   2.437   5.781  1.8269 -1.7016 -1.1660
  430MOL0     H58009   7.991   2.530   5.827 -0.8857 -1.3370  0.8030
  430MOL0     H58010   8.017   2.485   5.378 -0.0126  0.8903 -1.6039
  430MOL0     H58011   8.226   2.581   5.264  2.7706 -0.2239  0.4829
  430MOL0     H58012   8.690   2.588   5.366  2.1352 -0.6324  1.1300
  430MOL0     H58013   8.915   2.575   5.408  2.7975 -0.3047  1.7759
  430MOL0     H58014   9.104   2.937   5.538 -0.9062 -2.0568 -2.4163
  430MOL0     H58015   9.111   2.868   5.698  0.7314  1.0960 -0.3236
  430MOL0     H58016   9.316   2.740   5.643 -1.0169  1.2890  3.7511
  430MOL0     H58017   9.343   2.865   5.524 -1.2494 -0.3344  0.1374
  430MOL0     H58018   9.360   3.046   5.685  3.2286  0.0042 -2.5812
  430MOL0     H58019   9.301   2.939   5.822  1.7565 -0.7209 -0.1717
  430MOL0     H58020   9.534   2.899   5.643  1.5429  1.1814  0.7915
  430MOL0     H58021   9.493   2.803   5.795  2.2123  0.5682  0.8705
  430MOL0     H58022   9.520   2.989   5.938 -1.6589  0.3983  0.0080
  430MOL0     H58023   9.558   3.101   5.807  3.9384 -0.5650 -0.9356
  430MOL0     H58024   9.700   2.848   5.887 -2.2527  0.6324  2.1128
  430MOL0     H58025   9.765   2.966   5.756  0.0790  2.5920  0.1306
  430MOL0     H58026   9.698   3.005   6.051 -1.9770 -1.1260 -2.3274
  430MOL0     H58027   9.770   3.135   5.965  3.5371  0.2450 -1.1704
  430MOL0     H58028   9.939   3.032   6.088 -1.4918  0.0806  0.1996
  430MOL0     H58029   9.930   2.874   5.999  2.5334 -0.1934  0.2644
  430MOL0     H58030   8.891   2.938   5.643  0.6723  0.3712  0.1760
  430MOL0     H58031   8.664   2.939   5.606  0.9936 -0.0931  1.0324
  430MOL0     H58032   8.361   2.726   5.656  1.2871 -1.6866 -0.5327
  430MOL0     H58033   8.155   2.653   5.751  0.1816  0.0714 -0.4099
  430MOL0     H58034   6.561   2.454   5.044  4.1790  1.8016 -1.7176
  430MOL0     H58035   6.334   2.401   4.995  1.8923  0.2805 -0.7138
  430MOL0     H58036   5.953   2.269   4.958  2.6614  2.0097 -1.1404
  430MOL0     H58037   5.711   2.248   4.954  1.8028  0.4101  1.0464
  430MOL0     H58038   5.559   2.345   4.640 -0.1110 -3.8228  0.3105
  430MOL0     H58039   5.405   2.426   4.692  0.4534  1.5126  2.6485
  430MOL0     H58040   5.357   2.233   4.836 -1.0444 -0.8506 -0.2894
  430MOL0     H58041   5.509   2.157   4.789  0.3264  0.9895 -0.5753
  430MOL0     H58042   5.436   2.100   4.570  0.9431  0.2631  0.8930
  430MOL0     H58043   5.339   2.247   4.572 -0.4605  0.5060  1.7735
  430MOL0     H58044   5.153   2.153   4.660 -0.8397 -0.6690 -0.6892
  430MOL0     H58045   5.203   2.034   4.553 -0.0806 -0.3571  0.0901
  430MOL0     H58046   5.264   1.800   4.902 -2.7354 -1.1403 -0.5775
  430MOL0     H58047   5.682   2.614   4.732  2.4228  0.2550 -1.4807
  430MOL0     H58048   5.860   2.693   4.636  0.1611 -0.0023 -0.3232
  430MOL0     H58049   5.919   2.758   4.793 -2.9532 -0.2739  0.4015
  430MOL0     H58050   6.018   2.649   4.685 -0.9023 -0.0018 -1.6407
  431MOL0     O58051   7.759  10.752   8.805  0.5445  0.0214  0.8612
  431MOL0     C58052   7.680  10.690   8.737  0.1001  0.4020  0.8613
  431MOL0     O58053   7.551  10.663   8.787  0.2966  0.6913  0.2050
  431MOL0     C58054   7.533  10.671   8.924 -0.4676  0.5275  0.1130
  431MOL0     C58055   7.413  10.723   8.981  0.6924 -0.6665  0.0263
  431MOL0     C58056   7.385  10.722   9.114 -0.7702  0.3875  0.2860
  431MOL0     C58057   7.484  10.682   9.199  0.5755 -0.6606 -0.6508
  431MOL0     O58058   7.468  10.695   9.333  0.1948 -0.2771 -0.3253
  431MOL0     C58059   7.348  10.634   9.375  1.2278 -1.1077 -0.0348
  431MOL0     C58060   7.367  10.613   9.528  0.4068 -0.3547 -0.1017
  431MOL0     C58061   7.482  10.509   9.538  0.3265  0.5043  0.1131
  431MOL0     C58062   7.478  10.447   9.677 -0.4076  0.1890 -0.4691
  431MOL0     C58063   7.603  10.358   9.695 -0.7357 -0.2864 -0.1698
  431MOL0     C58064   7.615  10.322   9.846 -0.3789  0.1981  0.2748
  431MOL0     C58065   7.727  10.213   9.875  0.0629  0.2266  0.7969
  431MOL0     C58066   7.697  10.072   9.825  0.5944  0.9560 -0.9213
  431MOL0     N58067   7.822   9.984   9.814  0.0357 -0.2097 -0.4751
  431MOL0     C58068   7.941  10.018   9.765 -0.0656 -0.7147 -0.6472
  431MOL0     C58069   8.018   9.904   9.775 -0.0698  0.0186 -0.8519
  431MOL0     C58070   8.168   9.887   9.756 -0.0459 -0.3974  0.4284
  431MOL0     C58071   8.175   9.779   9.637  0.3114 -0.3765 -0.2080
  431MOL0     C58072   8.314   9.770   9.589 -0.4480 -0.2102 -0.1798
  431MOL0     C58073   8.353   9.898   9.512 -0.7844 -0.9110 -0.0792
  431MOL0     O58074   8.459   9.864   9.429 -1.1173  0.2592  0.2522
  431MOL0     C58075   8.503   9.956   9.333 -0.2223 -0.1414  0.7442
  431MOL0     C58076   8.469  10.092   9.314  0.7057  0.3200  0.6257
  431MOL0     C58077   8.526  10.166   9.201 -0.7281 -0.2745 -0.1294
  431MOL0     C58078   8.598  10.097   9.099 -0.2795  0.5229 -0.1367
  431MOL0     C58079   8.641  10.165   8.973 -0.4175 -0.2582  1.0004
  431MOL0     O58080   8.618  10.299   8.969 -0.3882 -0.3808 -0.6699
  431MOL0     C58081   8.660  10.373   8.860  0.1331  0.4537  0.0309
  431MOL0     C58082   8.566  10.459   8.803  0.8179  0.5280  0.2519
  431MOL0     C58083   8.593  10.522   8.683  0.6573 -0.4227 -0.0820
  431MOL0     C58084   8.712  10.510   8.618 -0.1919 -0.4131 -0.1770
  431MOL0     O58085   8.723  10.577   8.503 -0.2426  0.5278 -0.1558
  431MOL0     C58086   8.852  10.626   8.459  0.1767 -0.5268 -0.1956
  431MOL0     C58087   8.854  10.709   8.333  0.2146  0.0162 -0.7177
  431MOL0     C58088   8.972  10.807   8.328 -0.5693 -0.0795 -0.4401
  431MOL0     C58089   9.005  10.851   8.183 -0.0049  0.1584  0.9179
  431MOL0     C58090   8.874  10.898   8.105 -1.0116 -1.2125  0.0746
  431MOL0     C58091   8.914  10.943   7.963  0.3647 -1.4224 -0.0916
  431MOL0     C58092   8.981  10.833   7.863 -0.3173 -1.0011 -0.5306
  431MOL0     C58093   8.895  10.706   7.866  0.2421  0.6522 -0.3598
  431MOL0    Cl58094   8.952  10.596   7.733  0.2273 -0.2721 -0.3024
  431MOL0     C58095   8.804  10.418   8.668 -0.1545 -0.3096  0.0488
  431MOL0     C58096   8.783  10.352   8.791 -0.3017 -0.1741  0.5416
  431MOL0     O58097   8.685  10.098   8.879 -0.2014 -0.6266  0.1179
  431MOL0     C58098   8.623   9.961   9.118 -0.0334  0.1828 -0.2991
  431MOL0     C58099   8.578   9.894   9.231  0.3040  0.2173 -0.7319
  431MOL0     N58100   7.946   9.806   9.834 -1.2465 -0.5535  0.1051
  431MOL0     N58101   7.830   9.848   9.852  0.0855 -0.9617 -0.5836
  431MOL0     C58102   7.604  10.634   9.153  0.3611  0.1436 -0.4126
  431MOL0     C58103   7.627  10.612   9.013 -0.4363 -0.4302  0.2530
  431MOL0     C58104   7.725  10.638   8.605 -0.0641  0.6545 -0.5308
  431MOL0     C58105   7.846  10.692   8.546  0.2420  0.4046 -0.1735
  431MOL0     C58106   7.882  10.654   8.417 -1.0827 -0.8360  0.6675
  431MOL0     C58107   7.807  10.548   8.350 -0.9228 -0.0874 -0.0857
  431MOL0     O58108   7.839  10.502   8.227 -0.3053 -0.4900  0.5811
  431MOL0     C58109   7.965  10.534   8.160  0.2502  0.7473 -0.4291
  431MOL0     C58110   8.095  10.479   8.238  0.3427  0.8171  0.4290
  431MOL0     C58111   8.123  10.320   8.243  0.1361  0.0878  0.3530
  431MOL0     C58112   8.120  10.263   8.102 -0.8208  0.6316  0.2976
  431MOL0     C58113   8.207  10.340   8.006  1.2440  0.4243 -1.5319
  431MOL0     C58114   8.290  10.398   7.935 -0.3395 -0.0895 -0.2169
  431MOL0     C58115   7.703  10.493   8.413  1.0630  1.1934 -0.4463
  431MOL0     C58116   7.668  10.525   8.543  0.8535  0.2782 -0.1811
  431MOL0     C58117   7.560  10.446   8.618  0.3192  0.2165  0.6167
  431MOL0     H58118   7.340  10.755   8.907  3.7493  0.5153 -2.7852
  431MOL0     H58119   7.290  10.762   9.149  0.3437 -0.0025  4.2559
  431MOL0     H58120   7.266  10.707   9.368  1.5610 -0.7533 -0.2645
  431MOL0     H58121   7.333  10.539   9.322  3.6278 -0.6854 -1.6498
  431MOL0     H58122   7.268  10.578   9.560  0.4154 -3.0807 -2.6366
  431MOL0     H58123   7.388  10.709   9.577 -1.2132  0.2792 -0.5923
  431MOL0     H58124   7.577  10.559   9.515  0.9246  0.0144  1.4105
  431MOL0     H58125   7.465  10.430   9.465  4.3008 -0.0726 -0.4314
  431MOL0     H58126   7.482  10.526   9.753  1.7887  1.0220 -1.3745
  431MOL0     H58127   7.388  10.384   9.682 -0.0677 -0.9007 -4.5489
  431MOL0     H58128   7.600  10.275   9.624 -0.6102  0.1494 -0.6900
  431MOL0     H58129   7.695  10.413   9.675  0.8624 -2.5595  0.5420
  431MOL0     H58130   7.646  10.410   9.903 -0.4356  1.1955 -1.1787
  431MOL0     H58131   7.522  10.280   9.885 -0.0482 -1.0902 -0.2767
  431MOL0     H58132   7.729  10.209   9.985 -0.2710 -0.1707  0.7958
  431MOL0     H58133   7.820  10.254   9.837 -1.1878  1.3951 -1.1840
  431MOL0     H58134   7.627  10.026   9.896 -0.7968  3.8653 -0.2633
  431MOL0     H58135   7.649  10.085   9.727 -0.0493  3.4140 -0.3625
  431MOL0     H58136   7.975  10.103   9.707 -0.2267 -1.3722 -1.7372
  431MOL0     H58137   8.207   9.982   9.721  0.0544 -1.0065 -1.1899
  431MOL0     H58138   8.227   9.845   9.838  0.9099 -1.0564 -0.5659
  431MOL0     H58139   8.144   9.682   9.677 -1.2421  0.2991  0.3112
  431MOL0     H58140   8.101   9.805   9.561  0.3448 -1.8529 -0.7736
  431MOL0     H58141   8.322   9.683   9.524  1.0345 -0.2007 -0.0430
  431MOL0     H58142   8.388   9.761   9.669 -0.8056 -0.0251  0.1782
  431MOL0     H58143   8.378   9.979   9.582 -1.8168 -1.1041  0.5410
  431MOL0     H58144   8.273   9.934   9.446  0.4545 -0.4354 -1.3775
  431MOL0     H58145   8.417  10.147   9.392 -1.7093 -1.7673  0.5983
  431MOL0     H58146   8.513  10.274   9.195  1.2539  0.0804  0.9271
  431MOL0     H58147   8.479  10.479   8.864 -0.1093 -1.6481 -0.2509
  431MOL0     H58148   8.521  10.599   8.657  0.3749 -0.2410  1.1762
  431MOL0     H58149   8.916  10.671   8.535  1.8582 -3.2257  0.1195
  431MOL0     H58150   8.902  10.532   8.433  0.9939  0.1897 -1.3102
  431MOL0     H58151   8.879  10.645   8.248  0.8473 -1.2335  0.3707
  431MOL0     H58152   8.759  10.762   8.321  0.2212 -0.0179 -0.9312
  431MOL0     H58153   8.955  10.894   8.392 -0.5055 -1.2210  1.1768
  431MOL0     H58154   9.064  10.758   8.360  0.0844  0.5205 -1.3612
  431MOL0     H58155   9.047  10.764   8.132  0.5902  1.6952 -1.3833
  431MOL0     H58156   9.083  10.927   8.186 -0.3241  0.4414  2.6335
  431MOL0     H58157   8.831  10.981   8.161 -0.2541 -1.4739  1.0660
  431MOL0     H58158   8.798  10.819   8.104 -2.1981 -0.2291  2.9532
  431MOL0     H58159   8.825  10.998   7.932  2.6088  1.5674 -1.8383
  431MOL0     H58160   8.990  11.020   7.981 -0.9393 -0.1348  0.1560
  431MOL0     H58161   9.080  10.814   7.905 -0.7411  0.2321  1.1650
  431MOL0     H58162   9.001  10.880   7.767  2.2112  0.3155  0.5666
  431MOL0     H58163   8.895  10.653   7.962  0.8439 -2.9305 -2.1585
  431MOL0     H58164   8.788  10.719   7.851 -0.6923 -3.5646  1.1906
  431MOL0     H58165   8.899  10.405   8.618  0.6368  0.2685  1.3600
  431MOL0     H58166   8.859  10.291   8.839 -0.8952 -0.7569  0.7620
  431MOL0     H58167   8.688   9.904   9.053  0.1775 -0.3183  0.3337
  431MOL0     H58168   8.605   9.789   9.237 -2.0605 -0.7271 -3.9177
  431MOL0     H58169   7.676  10.615   9.231  1.9524  1.8742 -1.3850
  431MOL0     H58170   7.717  10.561   8.979  0.8394 -0.4256  3.2982
  431MOL0     H58171   7.898  10.770   8.601 -1.5446  1.8953 -0.5197
  431MOL0     H58172   7.964  10.701   8.364 -1.5994 -0.8509 -0.1636
  431MOL0     H58173   7.965  10.643   8.157 -1.6814  0.8013  0.4073
  431MOL0     H58174   7.955  10.483   8.064  1.5585 -1.8658  0.7157
  431MOL0     H58175   8.087  10.510   8.343  1.1721 -1.4611  1.2344
  431MOL0     H58176   8.183  10.529   8.197  1.1702 -0.2120  0.8901
  431MOL0     H58177   8.055  10.267   8.310 -2.1397  2.1214 -0.1949
  431MOL0     H58178   8.221  10.303   8.288 -0.4753 -3.0785  0.7014
  431MOL0     H58179   8.165  10.163   8.103  1.4479  1.5937  0.6868
  431MOL0     H58180   8.015  10.261   8.072 -0.8155 -0.8827  0.2777
  431MOL0     H58181   8.375  10.428   7.877  0.5498 -0.3445  0.9243
  431MOL0     H58182   7.652  10.419   8.353  1.0901  1.4195 -0.7506
  431MOL0     H58183   7.591  10.427   8.722 -1.6279 -0.2058  1.1510
  431MOL0     H58184   7.475  10.513   8.605  0.5670  0.4087 -0.0490
  431MOL0     H58185   7.546  10.342   8.588 -0.8702  0.0472  1.6958
  432MOL0     O58186   8.521   1.027   3.853 -0.1606  0.1761  0.0678
  432MOL0     C58187   8.496   0.918   3.907 -0.0189  0.3295 -0.0872
  432MOL0     O58188   8.596   0.832   3.936  0.3080  0.6459 -0.4403
  432MOL0     C58189   8.722   0.868   3.914 -0.1753 -0.2554 -0.1523
  432MOL0     C58190   8.776   0.873   3.785 -0.7777  0.3486  0.8779
  432MOL0     C58191   8.908   0.907   3.766 -0.1648  0.3817 -0.5606
  432MOL0     C58192   8.998   0.915   3.876  0.8074 -0.1132  0.2042
  432MOL0     O58193   9.130   0.931   3.849  0.1426 -1.1324  0.6446
  432MOL0     C58194   9.201   1.022   3.935 -0.0117 -0.0584 -0.0598
  432MOL0     C58195   9.306   0.950   4.024 -0.9264 -0.1637 -0.2076
  432MOL0     C58196   9.417   0.867   3.949  0.4418  0.3728  0.7592
  432MOL0     C58197   9.500   0.936   3.844 -0.5383  0.0964  0.0821
  432MOL0     C58198   9.590   1.050   3.895  0.5920 -0.6856 -0.7333
  432MOL0     C58199   9.676   1.018   4.016 -0.0462 -0.1749  0.1904
  432MOL0     C58200   9.783   1.127   4.036  0.7679 -0.4002  0.3565
  432MOL0     C58201   9.861   1.106   4.163  0.0944  0.2735 -0.0511
  432MOL0     N58202   9.974   1.190   4.172  0.9949 -0.0720 -0.5813
  432MOL0     C58203   9.977   1.306   4.243  0.0240  0.4689  0.0118
  432MOL0     C58204  10.107   1.344   4.237  0.0310  0.6176 -0.4362
  432MOL0     C58205  10.167   1.459   4.305  1.1031  0.0154 -0.3337
  432MOL0     C58206  10.310   1.442   4.360  0.2475  0.3502  0.6253
  432MOL0     C58207  10.336   1.318   4.462 -0.8269  0.2008 -0.1288
  432MOL0     C58208  10.294   1.334   4.607  0.1902 -0.6128 -0.2931
  432MOL0     O58209  10.162   1.389   4.616  0.2945 -0.3381 -0.2239
  432MOL0     C58210  10.050   1.307   4.597 -0.9490  0.5244 -0.2899
  432MOL0     C58211   9.927   1.368   4.619 -0.6362 -0.0157  0.2872
  432MOL0     C58212   9.800   1.301   4.591 -0.2600 -0.1509 -0.6891
  432MOL0     C58213   9.798   1.164   4.558 -0.8708  0.2345 -0.5764
  432MOL0     C58214   9.669   1.080   4.555  0.7728 -0.0536 -0.9134
  432MOL0     O58215   9.569   1.116   4.639 -0.4497 -0.0534 -0.5609
  432MOL0     C58216   9.450   1.053   4.630 -0.4633 -0.2717  0.3716
  432MOL0     C58217   9.441   0.917   4.619  0.2727 -0.3470 -0.1141
  432MOL0     C58218   9.324   0.844   4.605  0.0873 -0.7232  1.1028
  432MOL0     C58219   9.202   0.913   4.606  0.0482  0.4071 -0.5640
  432MOL0     O58220   9.099   0.832   4.567 -0.0829  0.7670 -0.4503
  432MOL0     C58221   8.975   0.887   4.539 -0.1469 -0.7431 -0.0365
  432MOL0     C58222   8.886   0.783   4.473  0.2415 -0.7807  0.3191
  432MOL0     C58223   8.750   0.850   4.422 -0.0866 -0.0168 -0.0895
  432MOL0     C58224   8.640   0.748   4.408 -0.4551 -0.4114 -0.5098
  432MOL0     C58225   8.498   0.807   4.366 -0.1957  0.4477 -0.5862
  432MOL0     C58226   8.382   0.730   4.416 -0.2093  0.7810 -0.3846
  432MOL0     C58227   8.252   0.811   4.405  0.5346 -0.4581  0.3288
  432MOL0     C58228   8.124   0.722   4.422 -0.0144 -0.5092 -0.3581
  432MOL0    Cl58229   7.981   0.808   4.471 -0.1898  0.0695  0.0553
  432MOL0     C58230   9.207   1.050   4.639 -0.3486  0.1858  0.1390
  432MOL0     C58231   9.327   1.120   4.659 -0.0859 -0.1359  0.4196
  432MOL0     O58232   9.667   0.983   4.474  0.5818  0.2928  0.3745
  432MOL0     C58233   9.929   1.105   4.541 -0.9476 -0.2369  0.7140
  432MOL0     C58234  10.053   1.174   4.566  0.6335  0.2295 -0.4952
  432MOL0     N58235  10.171   1.259   4.153  0.5040 -0.3261 -0.4634
  432MOL0     N58236  10.088   1.172   4.102 -0.5539 -0.0037  0.1194
  432MOL0     C58237   8.944   0.892   4.001 -0.1183  1.0563  0.3768
  432MOL0     C58238   8.806   0.872   4.020 -0.6245  0.4784  0.2820
  432MOL0     C58239   8.358   0.871   3.942 -0.2473  0.7382 -0.4652
  432MOL0     C58240   8.353   0.753   4.023 -0.2364  0.0461  0.0274
  432MOL0     C58241   8.232   0.703   4.068 -0.3691  0.4458  0.5716
  432MOL0     C58242   8.113   0.772   4.043  0.1747  0.0687  0.3147
  432MOL0     O58243   8.002   0.713   4.096 -0.0594 -0.2272 -0.3700
  432MOL0     C58244   7.883   0.802   4.096  0.4109 -0.0801 -0.1786
  432MOL0     C58245   7.765   0.721   4.161  0.4508 -0.1325 -0.3448
  432MOL0     C58246   7.659   0.825   4.198 -0.1008  0.6961  0.9110
  432MOL0     C58247   7.527   0.771   4.233  0.3308 -0.5083  0.2882
  432MOL0     C58248   7.436   0.877   4.281  0.2441 -0.3454  0.8634
  432MOL0     C58249   7.358   0.958   4.330 -0.0668  0.2270 -0.6596
  432MOL0     C58250   8.114   0.903   3.975 -0.3841  0.1450 -0.4541
  432MOL0     C58251   8.243   0.946   3.921  0.8669  0.2067 -0.1324
  432MOL0     C58252   8.248   1.082   3.868 -0.4127  0.9127 -0.0833
  432MOL0     H58253   8.716   0.861   3.696 -2.0505  0.4266  1.6930
  432MOL0     H58254   8.958   0.912   3.670  2.7246  1.7857  0.8689
  432MOL0     H58255   9.259   1.088   3.869  0.2034  0.8641  1.0366
  432MOL0     H58256   9.125   1.072   3.995 -4.1547 -2.1818 -3.0390
  432MOL0     H58257   9.259   0.876   4.089 -0.7058 -0.8182 -0.7851
  432MOL0     H58258   9.342   1.019   4.101 -0.5574 -0.9387  0.3209
  432MOL0     H58259   9.371   0.784   3.894  0.7197  1.1300 -0.6355
  432MOL0     H58260   9.484   0.821   4.023 -0.6395  0.2356  1.6891
  432MOL0     H58261   9.559   0.854   3.802  0.4062  2.3586 -3.4529
  432MOL0     H58262   9.444   0.963   3.754  2.2621 -0.0893 -1.8353
  432MOL0     H58263   9.653   1.087   3.814  0.4159 -0.3174 -0.7012
  432MOL0     H58264   9.518   1.125   3.928  0.4300 -0.3489 -1.8263
  432MOL0     H58265   9.617   1.001   4.107  1.5376 -2.8990  0.8165
  432MOL0     H58266   9.723   0.923   3.991 -0.0197  0.7069 -3.9089
  432MOL0     H58267   9.721   1.214   4.057  0.1133 -0.8908  0.4958
  432MOL0     H58268   9.842   1.143   3.946 -0.8485  2.1445 -0.3772
  432MOL0     H58269   9.801   1.123   4.252  0.2216 -0.3467  0.1587
  432MOL0     H58270   9.901   1.004   4.170 -0.5830  0.1043  1.5381
  432MOL0     H58271   9.893   1.351   4.296 -0.5983  0.7564 -1.1861
  432MOL0     H58272  10.172   1.538   4.229  1.9919 -0.3591 -0.6736
  432MOL0     H58273  10.108   1.506   4.384  0.0222  0.3925 -1.3376
  432MOL0     H58274  10.376   1.424   4.275 -0.9006  1.2556 -0.4777
  432MOL0     H58275  10.352   1.532   4.407 -0.6928  2.6728 -2.6085
  432MOL0     H58276  10.442   1.292   4.462  0.1898  3.8649 -0.3131
  432MOL0     H58277  10.284   1.228   4.428 -0.2879 -1.3750  2.8756
  432MOL0     H58278  10.364   1.410   4.645 -0.5514  0.7337 -1.5191
  432MOL0     H58279  10.299   1.244   4.669  1.2768 -0.3340  0.0423
  432MOL0     H58280   9.933   1.475   4.639  1.7346 -0.1135  0.3068
  432MOL0     H58281   9.705   1.352   4.597 -0.5121 -0.7562  1.8082
  432MOL0     H58282   9.531   0.857   4.623  1.6464  1.5608 -0.6103
  432MOL0     H58283   9.333   0.737   4.597  4.3423 -0.5028  0.8833
  432MOL0     H58284   8.929   0.927   4.630  0.3068 -1.0741  0.3433
  432MOL0     H58285   8.984   0.972   4.470 -2.7612  0.2302  0.6901
  432MOL0     H58286   8.949   0.730   4.400  0.9941 -1.4430  1.4127
  432MOL0     H58287   8.862   0.706   4.547 -3.7130 -0.0293  0.0392
  432MOL0     H58288   8.723   0.924   4.498 -1.7822  0.3254 -0.9764
  432MOL0     H58289   8.763   0.910   4.331  0.3269 -0.0175 -0.0356
  432MOL0     H58290   8.642   0.698   4.505  5.0110  1.8806  0.9417
  432MOL0     H58291   8.678   0.676   4.335  0.3292 -0.5389  0.0209
  432MOL0     H58292   8.488   0.807   4.257 -0.0512 -2.1545 -0.6600
  432MOL0     H58293   8.492   0.912   4.396 -3.3492 -0.0525  0.9915
  432MOL0     H58294   8.377   0.636   4.359  1.6819 -0.3484  1.1808
  432MOL0     H58295   8.398   0.705   4.521 -0.6358  0.0284 -0.4880
  432MOL0     H58296   8.254   0.867   4.311 -0.9756  0.9786  1.1007
  432MOL0     H58297   8.239   0.880   4.489  1.7180 -0.3422  0.4293
  432MOL0     H58298   8.105   0.693   4.318  0.0211 -1.5914 -0.0710
  432MOL0     H58299   8.141   0.632   4.483 -2.3380 -0.3734  0.5776
  432MOL0     H58300   9.123   1.118   4.643  0.2822  0.9704  0.3730
  432MOL0     H58301   9.340   1.222   4.693  0.3319  0.2305 -0.7762
  432MOL0     H58302   9.935   0.999   4.519  1.1278 -0.0912  0.3782
  432MOL0     H58303  10.146   1.117   4.565 -1.0319 -2.9408  2.0184
  432MOL0     H58304   9.008   0.890   4.088  0.4899 -2.0521 -0.0129
  432MOL0     H58305   8.786   0.853   4.125 -0.6668  1.9462  0.5658
  432MOL0     H58306   8.448   0.710   4.051 -0.1150  0.3081  0.0203
  432MOL0     H58307   8.237   0.620   4.137 -0.3321  1.3458  1.6726
  432MOL0     H58308   7.835   0.822   3.999 -0.6927 -1.8141 -0.0361
  432MOL0     H58309   7.908   0.893   4.152 -2.8426 -1.2192  3.5738
  432MOL0     H58310   7.795   0.664   4.250  0.0944 -1.2268 -0.9100
  432MOL0     H58311   7.718   0.647   4.096 -0.4959 -1.6969  1.9898
  432MOL0     H58312   7.652   0.906   4.125 -3.3560  0.6575  1.0581
  432MOL0     H58313   7.702   0.875   4.286  0.4081  0.9791  0.5083
  432MOL0     H58314   7.474   0.730   4.146 -2.2090 -1.5580  2.2070
  432MOL0     H58315   7.537   0.693   4.309  0.8506 -0.6601  0.0683
  432MOL0     H58316   7.285   1.018   4.380  0.8050 -0.1848  1.1798
  432MOL0     H58317   8.028   0.967   3.957 -0.9017 -1.0442 -2.4744
  432MOL0     H58318   8.284   1.082   3.764  0.0340 -0.2123  0.0577
  432MOL0     H58319   8.151   1.132   3.864  0.6851  3.0934 -0.8400
  432MOL0     H58320   8.313   1.142   3.932  1.1747 -0.2155 -0.5398
  433MOL0     O58321   1.390   5.232   9.762  0.4184 -0.0014 -0.9953
  433MOL0     C58322   1.369   5.143   9.682 -0.0975 -0.5295 -0.4790
  433MOL0     O58323   1.456   5.111   9.575  0.3634  1.0535  0.1262
  433MOL0     C58324   1.576   5.170   9.573 -0.4064  0.5565 -0.2833
  433MOL0     C58325   1.587   5.303   9.562 -0.2068 -1.1687 -1.2007
  433MOL0     C58326   1.720   5.357   9.560  0.1173  0.3617 -0.0120
  433MOL0     C58327   1.831   5.275   9.561  0.7281  0.1213  0.2993
  433MOL0     O58328   1.949   5.349   9.570  0.1917 -1.6817 -0.5820
  433MOL0     C58329   2.060   5.280   9.634  0.3208 -0.3599  0.5233
  433MOL0     C58330   2.190   5.356   9.617 -0.0946 -0.5446 -0.6199
  433MOL0     C58331   2.216   5.481   9.703  0.3846 -0.9414 -0.3546
  433MOL0     C58332   2.116   5.603   9.671 -0.4484 -0.6356  0.3805
  433MOL0     C58333   2.138   5.721   9.766  0.6725  0.5123  0.2650
  433MOL0     C58334   2.276   5.795   9.777  0.5950 -0.5188 -1.0896
  433MOL0     C58335   2.348   5.813   9.636 -0.9369 -0.5909 -0.0481
  433MOL0     C58336   2.460   5.920   9.658  0.3787  0.5899  0.1890
  433MOL0     N58337   2.553   5.886   9.767 -0.1846 -0.3614 -0.4327
  433MOL0     C58338   2.688   5.859   9.758 -0.2866 -0.1635  0.2472
  433MOL0     C58339   2.733   5.870   9.882  0.3827  0.6237 -0.6767
  433MOL0     C58340   2.879   5.852   9.918  0.0043 -0.1836 -0.1318
  433MOL0     C58341   2.956   5.971   9.857 -0.7400  0.5204 -0.1839
  433MOL0     C58342   3.102   5.933   9.836 -0.1263 -0.2575  0.4167
  433MOL0     C58343   3.181   6.053   9.783 -0.3020 -0.3013 -1.0896
  433MOL0     O58344   3.159   6.071   9.640 -0.4794 -0.3006  0.3148
  433MOL0     C58345   3.267   6.135   9.580 -1.0348  0.5168 -0.1879
  433MOL0     C58346   3.367   6.203   9.644  0.1351 -0.3827 -0.0241
  433MOL0     C58347   3.471   6.264   9.578 -0.5072 -0.1554  0.3581
  433MOL0     C58348   3.483   6.264   9.436  0.3593  0.2304  0.4406
  433MOL0     C58349   3.580   6.339   9.355  0.8646  0.2878  0.2845
  433MOL0     O58350   3.554   6.352   9.221  0.4907 -0.1260  0.0372
  433MOL0     C58351   3.638   6.404   9.121 -0.1722 -0.5669 -0.8131
  433MOL0     C58352   3.585   6.458   9.000 -0.0753  0.5824 -0.6019
  433MOL0     C58353   3.656   6.512   8.894  0.1049 -0.2978 -0.0464
  433MOL0     C58354   3.793   6.533   8.906 -0.0051  0.1583  0.6002
  433MOL0     O58355   3.869   6.591   8.810 -0.1964  0.4497  0.7787
  433MOL0     C58356   3.985   6.513   8.762  0.7441  1.5900  0.3175
  433MOL0     C58357   3.999   6.530   8.608 -0.1918  0.3252  0.0237
  433MOL0     C58358   4.014   6.680   8.569  0.0169  0.5372 -0.0518
  433MOL0     C58359   4.060   6.696   8.426  0.2383  0.2873 -0.0178
  433MOL0     C58360   3.983   6.610   8.322  0.4818 -0.4795 -1.0210
  433MOL0     C58361   4.036   6.643   8.189  0.0015  0.0958 -0.0261
  433MOL0     C58362   3.999   6.517   8.092  0.0603 -1.0638  0.3594
  433MOL0     C58363   4.096   6.537   7.968  0.8097 -0.6557  0.0022
  433MOL0    Cl58364   4.216   6.399   7.954 -0.4528 -0.4985  0.2161
  433MOL0     C58365   3.849   6.492   9.023 -0.0698 -0.9821 -0.5915
  433MOL0     C58366   3.776   6.432   9.127 -0.3758 -0.2006  0.5841
  433MOL0     O58367   3.678   6.387   9.413 -0.1163 -0.1256 -0.1539
  433MOL0     C58368   3.373   6.203   9.375 -0.8724 -0.4456  0.2629
  433MOL0     C58369   3.272   6.139   9.444 -0.0989 -0.2062  1.1483
  433MOL0     N58370   2.620   5.889   9.969  0.2994  0.1227 -0.1605
  433MOL0     N58371   2.518   5.903   9.894  0.4493 -0.1349  0.0602
  433MOL0     C58372   1.809   5.135   9.570  0.3154  0.3329 -0.0968
  433MOL0     C58373   1.677   5.084   9.577 -0.6885  0.4327  0.5321
  433MOL0     C58374   1.247   5.065   9.690  0.7264  0.0563  0.6862
  433MOL0     C58375   1.200   4.993   9.578  0.8838  0.1388  0.7260
  433MOL0     C58376   1.075   4.925   9.571  0.1551 -1.2109  1.2117
  433MOL0     C58377   0.996   4.919   9.687 -0.3523 -0.7275  0.1927
  433MOL0     O58378   0.871   4.872   9.694 -0.4901 -0.2758 -0.7525
  433MOL0     C58379   0.797   4.842   9.571 -0.6548 -0.3686  0.1074
  433MOL0     C58380   0.651   4.836   9.611  0.5073 -0.4575  0.1793
  433MOL0     C58381   0.560   4.834   9.490  0.2074  0.2802 -0.1679
  433MOL0     C58382   0.413   4.826   9.521  0.2034 -0.6601 -0.1119
  433MOL0     C58383   0.336   4.798   9.393 -0.5128 -0.4346 -0.2084
  433MOL0     C58384   0.276   4.797   9.283  0.3196 -0.7188  0.0641
  433MOL0     C58385   1.046   4.991   9.801  0.2854 -0.3386 -0.0347
  433MOL0     C58386   1.171   5.060   9.808  1.0722  0.0402  0.2906
  433MOL0     C58387   1.196   5.129   9.944 -0.0055 -0.5897 -0.2057
  433MOL0     H58388   1.496   5.362   9.563  0.1749 -0.5646 -1.6840
  433MOL0     H58389   1.723   5.465   9.570  1.5360  0.2075  1.7049
  433MOL0     H58390   2.039   5.259   9.739  1.5666 -0.7077  0.7293
  433MOL0     H58391   2.077   5.189   9.575  0.9235 -0.7032  1.2018
  433MOL0     H58392   2.208   5.391   9.515 -0.9555  0.7542 -0.3531
  433MOL0     H58393   2.270   5.283   9.635 -1.6202 -2.1544 -0.0402
  433MOL0     H58394   2.320   5.506   9.680  0.1526 -2.3405 -3.4404
  433MOL0     H58395   2.218   5.450   9.808  0.6886 -2.5194 -0.8039
  433MOL0     H58396   2.148   5.632   9.571 -0.7363 -3.6478 -0.7132
  433MOL0     H58397   2.011   5.579   9.648 -0.7073  0.0554  0.8115
  433MOL0     H58398   2.078   5.802   9.724 -2.5698 -1.0102  1.6256
  433MOL0     H58399   2.096   5.683   9.859  1.0261 -0.8399 -0.1046
  433MOL0     H58400   2.254   5.894   9.818 -0.8393 -1.0859 -0.4043
  433MOL0     H58401   2.332   5.736   9.850 -1.9522  1.2592  2.5790
  433MOL0     H58402   2.282   5.853   9.559 -2.2581  1.4065  1.9974
  433MOL0     H58403   2.385   5.714   9.608 -0.2497  0.0169 -1.4058
  433MOL0     H58404   2.512   5.911   9.562  2.3195 -2.3245  1.3702
  433MOL0     H58405   2.419   6.019   9.678  0.1967  1.2165 -2.8073
  433MOL0     H58406   2.742   5.831   9.668 -2.6080  1.6012 -1.8373
  433MOL0     H58407   2.885   5.849  10.028 -2.2026  2.6128  0.2038
  433MOL0     H58408   2.915   5.764   9.865  1.3902  0.3034 -0.0533
  433MOL0     H58409   2.910   5.994   9.760 -1.1968  1.4597  0.2444
  433MOL0     H58410   2.945   6.062   9.915 -1.3770 -0.0469  0.6156
  433MOL0     H58411   3.123   5.843   9.778  0.0115 -0.2088  0.3902
  433MOL0     H58412   3.136   5.910   9.938 -1.1653  1.9693  1.3360
  433MOL0     H58413   3.284   6.021   9.804 -1.0339 -1.5474  0.8794
  433MOL0     H58414   3.151   6.146   9.833 -1.9609  0.0212 -2.5781
  433MOL0     H58415   3.368   6.198   9.752  0.0399 -1.0774 -0.0536
  433MOL0     H58416   3.543   6.322   9.634 -1.5474  2.7318 -1.1271
  433MOL0     H58417   3.478   6.442   8.999 -0.2588  1.6897  0.3027
  433MOL0     H58418   3.598   6.560   8.815 -0.6519  0.9067  1.1863
  433MOL0     H58419   4.077   6.543   8.813  0.7098  0.6321  0.9586
  433MOL0     H58420   3.972   6.406   8.779 -0.3328  1.3277 -1.8708
  433MOL0     H58421   4.076   6.461   8.571 -1.0662 -0.4687 -0.3412
  433MOL0     H58422   3.907   6.487   8.568 -0.3630 -1.7554  2.4309
  433MOL0     H58423   3.919   6.732   8.586 -0.0656  1.1540 -2.0785
  433MOL0     H58424   4.082   6.734   8.635 -0.6431  0.9589  0.2959
  433MOL0     H58425   4.166   6.669   8.417  0.0612  0.0215 -1.9254
  433MOL0     H58426   4.058   6.801   8.393  0.4642  0.2075 -0.2910
  433MOL0     H58427   3.875   6.623   8.330  0.4741 -1.5591  1.5676
  433MOL0     H58428   3.997   6.505   8.346  1.0595  0.0261  1.0787
  433MOL0     H58429   3.993   6.735   8.149 -2.9039 -0.5068  1.3852
  433MOL0     H58430   4.144   6.653   8.195 -0.1457  0.8477  3.4508
  433MOL0     H58431   3.899   6.533   8.050  0.2547 -1.0207 -0.0955
  433MOL0     H58432   4.008   6.415   8.130  2.6017 -0.7857  0.6819
  433MOL0     H58433   4.032   6.525   7.880  2.4039 -1.3620 -1.1136
  433MOL0     H58434   4.134   6.639   7.963 -1.7227  0.4026  0.8164
  433MOL0     H58435   3.953   6.513   9.046 -0.5002 -1.1412  1.7519
  433MOL0     H58436   3.832   6.415   9.218  1.2810  0.2759 -0.2958
  433MOL0     H58437   3.371   6.199   9.267 -3.4304 -3.2570  0.3101
  433MOL0     H58438   3.194   6.096   9.382 -0.3892  0.3738  1.1105
  433MOL0     H58439   1.892   5.067   9.588 -0.3648 -0.3490  0.5466
  433MOL0     H58440   1.665   4.977   9.594 -2.3692  0.3207 -1.0121
  433MOL0     H58441   1.246   4.992   9.480  0.5547  2.7300  0.4676
  433MOL0     H58442   1.046   4.878   9.477 -1.9053  1.4152  0.4036
  433MOL0     H58443   0.828   4.745   9.533  0.6816 -0.7477  2.0345
  433MOL0     H58444   0.805   4.921   9.495  2.8765  1.2767  1.9708
  433MOL0     H58445   0.629   4.925   9.671 -3.3760 -1.9742  1.3579
  433MOL0     H58446   0.631   4.741   9.661 -0.5257  0.0600  0.8027
  433MOL0     H58447   0.579   4.752   9.420  0.7951  0.4421 -0.2055
  433MOL0     H58448   0.578   4.930   9.440  3.2005  1.1199  2.2028
  433MOL0     H58449   0.384   4.751   9.595 -0.2339 -0.7630 -0.3824
  433MOL0     H58450   0.398   4.928   9.558  3.9072  0.1487 -0.4552
  433MOL0     H58451   0.232   4.797   9.186  0.2758 -0.9346  0.0825
  433MOL0     H58452   0.983   4.985   9.890  3.0796  1.9730  2.3220
  433MOL0     H58453   1.133   5.088  10.023 -2.1370  0.7655 -1.1129
  433MOL0     H58454   1.301   5.108   9.967  0.3488 -1.5013 -2.3743
  433MOL0     H58455   1.187   5.238   9.935  0.3129 -0.3151  2.1010
  434MOL0     O58456   8.489   1.218  11.067 -0.2531  0.1565  0.1753
  434MOL0     C58457   8.485   1.249  10.950  0.2917 -0.8169  0.2828
  434MOL0     O58458   8.376   1.266  10.880 -0.7130  0.2494 -0.2988
  434MOL0     C58459   8.264   1.292  10.955 -0.0679  0.4459 -0.7503
  434MOL0     C58460   8.161   1.189  10.973 -0.1604 -0.2985  0.2515
  434MOL0     C58461   8.033   1.230  11.029 -0.2288 -0.2155 -0.1904
  434MOL0     C58462   8.017   1.361  11.071  0.0702  0.9136  0.5150
  434MOL0     O58463   7.901   1.415  11.125  0.3234  0.1633 -0.2273
  434MOL0     C58464   7.804   1.326  11.180 -0.7496  0.6084 -0.6847
  434MOL0     C58465   7.674   1.397  11.189 -0.5579  0.3080 -0.0314
  434MOL0     C58466   7.575   1.307  11.254  0.0853 -0.6670 -0.3239
  434MOL0     C58467   7.436   1.379  11.264  0.6158  0.1725  0.6534
  434MOL0     C58468   7.332   1.286  11.310  0.4069  0.6316 -0.9640
  434MOL0     C58469   7.197   1.350  11.289  0.5719 -1.1400 -0.0615
  434MOL0     C58470   7.065   1.283  11.337 -0.2073 -0.7993 -0.5906
  434MOL0     C58471   7.046   1.141  11.287  0.1131  0.2159  0.2634
  434MOL0     N58472   6.907   1.105  11.280  0.9294 -0.3282  0.7328
  434MOL0     C58473   6.817   1.142  11.192 -0.1203  0.3455 -0.2739
  434MOL0     C58474   6.700   1.097  11.239 -0.0119 -0.5484  0.4130
  434MOL0     C58475   6.567   1.103  11.170  0.2650  0.1537  0.3173
  434MOL0     C58476   6.555   0.977  11.079  0.4558  0.3969 -0.4474
  434MOL0     C58477   6.599   1.020  10.933 -0.2668 -0.7797  0.4672
  434MOL0     C58478   6.605   0.893  10.843  0.1552 -0.3038 -0.1034
  434MOL0     O58479   6.715   0.810  10.875  0.2242 -0.2153  0.8477
  434MOL0     C58480   6.843   0.858  10.874  0.9199 -0.1837 -0.2635
  434MOL0     C58481   6.886   0.969  10.799  0.4510  0.0180  0.3324
  434MOL0     C58482   7.012   1.015  10.816  0.5119 -0.6059 -0.3866
  434MOL0     C58483   7.097   0.950  10.918  0.0266 -0.5662 -0.0238
  434MOL0     C58484   7.241   0.999  10.921 -0.7253  0.3295 -0.3073
  434MOL0     O58485   7.279   1.084  10.824  0.5330  0.6641  0.7876
  434MOL0     C58486   7.413   1.069  10.780  0.5173 -0.0268 -0.8533
  434MOL0     C58487   7.509   1.145  10.844  0.3065  0.3751  0.3132
  434MOL0     C58488   7.646   1.125  10.801 -0.6302 -0.9701  0.3712
  434MOL0     C58489   7.679   1.020  10.709 -1.1516  0.0754 -0.5772
  434MOL0     O58490   7.813   0.996  10.668 -0.4957  0.3305 -0.4757
  434MOL0     C58491   7.887   1.120  10.657 -0.3178  0.9013  0.1645
  434MOL0     C58492   8.026   1.088  10.591  0.9044  0.1838 -0.0185
  434MOL0     C58493   8.092   1.222  10.569  0.3438  0.3966  0.0844
  434MOL0     C58494   8.230   1.196  10.506 -0.0628 -0.5873  1.4182
  434MOL0     C58495   8.280   1.313  10.419 -0.0766 -1.0499 -0.8926
  434MOL0     C58496   8.404   1.277  10.342  0.5190  0.3020  0.6905
  434MOL0     C58497   8.538   1.278  10.422 -0.5295 -0.0218  0.9881
  434MOL0     C58498   8.663   1.258  10.346  1.1405  0.1582 -0.2584
  434MOL0    Cl58499   8.647   1.105  10.247 -0.2413 -0.2906  0.0554
  434MOL0     C58500   7.576   0.932  10.670 -0.5186  0.2386  0.0851
  434MOL0     C58501   7.449   0.960  10.697  0.1644  0.4067  0.1382
  434MOL0     O58502   7.318   0.956  11.009 -0.1672  0.0995  0.4102
  434MOL0     C58503   7.058   0.834  10.985  0.3340  0.2683 -1.6080
  434MOL0     C58504   6.929   0.788  10.964  0.5833 -0.1332  0.3796
  434MOL0     N58505   6.723   1.038  11.364  0.1793 -0.0515  0.2949
  434MOL0     N58506   6.850   1.056  11.392 -0.1806  0.6135 -0.6247
  434MOL0     C58507   8.116   1.451  11.063 -0.4737 -0.2940  0.8785
  434MOL0     C58508   8.241   1.427  11.003 -0.3633 -0.5566  1.2083
  434MOL0     C58509   8.604   1.272  10.869 -0.2335  0.3985 -0.2580
  434MOL0     C58510   8.614   1.392  10.797  0.4912 -0.4896 -0.6813
  434MOL0     C58511   8.725   1.426  10.720  0.1004  0.1844  0.1925
  434MOL0     C58512   8.836   1.336  10.719  0.1646 -0.0381  0.0675
  434MOL0     O58513   8.955   1.379  10.670  0.3302 -0.1806 -0.4028
  434MOL0     C58514   8.946   1.459  10.547 -0.4489  0.1305 -0.0331
  434MOL0     C58515   9.068   1.444  10.460 -0.3835  0.0593  0.0537
  434MOL0     C58516   9.067   1.292  10.417 -0.7458 -0.3467  0.8381
  434MOL0     C58517   9.177   1.244  10.324 -0.2352  0.4265  0.3563
  434MOL0     C58518   9.192   1.334  10.199 -0.0597 -0.4312  0.2916
  434MOL0     C58519   9.193   1.409  10.102  0.8949 -1.3203  0.6562
  434MOL0     C58520   8.827   1.220  10.787  0.4054  0.1788 -0.3356
  434MOL0     C58521   8.716   1.184  10.863 -0.9206  0.4161  1.3017
  434MOL0     C58522   8.718   1.050  10.926 -0.4104 -0.0475 -0.5521
  434MOL0     H58523   8.178   1.088  10.937 -0.2981 -0.2851  0.1453
  434MOL0     H58524   7.965   1.148  11.048 -1.0598  0.9274  2.1773
  434MOL0     H58525   7.789   1.239  11.115  0.3625  0.8603 -1.3135
  434MOL0     H58526   7.834   1.294  11.281  1.8802 -1.8062 -2.0683
  434MOL0     H58527   7.635   1.420  11.090 -0.2218 -1.1789 -0.5302
  434MOL0     H58528   7.682   1.487  11.252  0.6400  1.7758 -2.1658
  434MOL0     H58529   7.613   1.274  11.351  2.1754 -1.1827 -1.2788
  434MOL0     H58530   7.563   1.223  11.185 -0.0626 -0.9865  0.0834
  434MOL0     H58531   7.439   1.460  11.338 -1.2505  0.7816  0.1222
  434MOL0     H58532   7.406   1.419  11.167  0.8821  1.6389  1.1555
  434MOL0     H58533   7.325   1.185  11.268  0.0488 -0.6561  1.9203
  434MOL0     H58534   7.353   1.258  11.414  0.0271 -2.0443 -1.5370
  434MOL0     H58535   7.203   1.444  11.344  3.5779 -1.5081  0.3910
  434MOL0     H58536   7.184   1.364  11.181  2.3039  2.3081  0.0423
  434MOL0     H58537   6.977   1.337  11.301 -1.4302 -1.6580  0.9466
  434MOL0     H58538   7.062   1.282  11.446 -1.9088  1.0773 -0.5685
  434MOL0     H58539   7.088   1.140  11.186 -0.5515  2.7931 -0.1212
  434MOL0     H58540   7.099   1.072  11.354  0.6363 -0.4802 -0.8259
  434MOL0     H58541   6.847   1.178  11.094 -1.4641 -1.8838 -1.5926
  434MOL0     H58542   6.485   1.092  11.241 -0.0590  2.8247  0.4690
  434MOL0     H58543   6.548   1.200  11.124 -0.3989  1.4578  3.1069
  434MOL0     H58544   6.612   0.891  11.117  0.9804 -0.0870 -2.2420
  434MOL0     H58545   6.451   0.943  11.073  0.2594  1.0744 -0.9899
  434MOL0     H58546   6.698   1.065  10.943  0.3100 -1.8666 -0.0895
  434MOL0     H58547   6.530   1.089  10.884 -0.1031 -1.7716 -1.2337
  434MOL0     H58548   6.611   0.928  10.739  0.2297 -0.4851 -0.1601
  434MOL0     H58549   6.520   0.826  10.834  1.1653 -1.4135 -7.1771
  434MOL0     H58550   6.811   1.025  10.745  0.8443  0.5498  0.3355
  434MOL0     H58551   7.044   1.079  10.734  0.4965  1.4563  1.1086
  434MOL0     H58552   7.491   1.225  10.915 -0.4137  1.7917 -1.3834
  434MOL0     H58553   7.719   1.188  10.850 -1.8976 -1.5693  3.2754
  434MOL0     H58554   7.838   1.191  10.590  1.6352  2.8177  0.6421
  434MOL0     H58555   7.918   1.154  10.756  0.8712  1.1195 -0.2645
  434MOL0     H58556   8.085   1.017  10.649 -0.2275 -1.2178 -0.5252
  434MOL0     H58557   7.998   1.031  10.502  1.1954 -0.0112  0.0140
  434MOL0     H58558   8.032   1.275  10.494 -1.5856  0.7656  1.7942
  434MOL0     H58559   8.106   1.287  10.656 -0.0667  2.1123 -1.0760
  434MOL0     H58560   8.224   1.100  10.453  0.9410 -0.5618  1.2360
  434MOL0     H58561   8.300   1.171  10.587 -0.7200  0.6531  2.4038
  434MOL0     H58562   8.306   1.398  10.483  1.7908 -2.4503  0.3089
  434MOL0     H58563   8.199   1.339  10.349 -0.0942 -0.4923 -0.6711
  434MOL0     H58564   8.384   1.172  10.318  1.2356 -0.1503  1.9623
  434MOL0     H58565   8.419   1.344  10.257 -1.3128 -0.4737 -0.2846
  434MOL0     H58566   8.531   1.208  10.507 -1.9533 -1.3405 -0.1549
  434MOL0     H58567   8.560   1.374  10.469  4.4569  0.7684 -2.1361
  434MOL0     H58568   8.687   1.333  10.270 -0.3294 -0.0869 -0.9927
  434MOL0     H58569   8.747   1.253  10.417 -0.7168 -1.3758  1.9852
  434MOL0     H58570   7.600   0.844  10.611  2.7456  0.2501  1.1824
  434MOL0     H58571   7.372   0.911  10.638 -0.8424  3.7779 -1.5444
  434MOL0     H58572   7.104   0.781  11.067 -3.5445  2.1510  2.1876
  434MOL0     H58573   6.898   0.701  11.022 -0.6673  0.6161  0.8962
  434MOL0     H58574   8.086   1.549  11.099  0.6286 -0.0579  1.1925
  434MOL0     H58575   8.308   1.511  10.990 -0.3770 -0.7395 -0.1318
  434MOL0     H58576   8.531   1.459  10.819 -0.0838 -1.7369  1.2698
  434MOL0     H58577   8.731   1.524  10.674 -0.0528 -1.0205 -2.5853
  434MOL0     H58578   8.949   1.562  10.583  1.6179 -0.6164  2.2128
  434MOL0     H58579   8.859   1.432  10.486 -0.8687  0.0794  0.5844
  434MOL0     H58580   9.163   1.470  10.509  1.4758 -2.0628 -2.1505
  434MOL0     H58581   9.062   1.505  10.370 -1.8772  0.4154  0.3637
  434MOL0     H58582   8.970   1.269  10.371 -0.6760  2.9997 -1.3278
  434MOL0     H58583   9.069   1.234  10.510 -1.8765  0.2014  1.2175
  434MOL0     H58584   9.273   1.240  10.376 -0.7741  1.2310  1.4484
  434MOL0     H58585   9.150   1.140  10.301  2.5372 -0.5310  0.9931
  434MOL0     H58586   9.187   1.468  10.012 -1.3617 -2.5576 -0.0677
  434MOL0     H58587   8.919   1.162  10.785  0.0226 -0.4437 -2.7303
  434MOL0     H58588   8.621   1.002  10.910 -0.8060  1.5231 -3.6259
  434MOL0     H58589   8.814   1.005  10.898 -0.2201  0.0217 -0.0116
  434MOL0     H58590   8.721   1.061  11.035  1.1348  2.6735 -0.7949
  435MOL0     O58591  11.019   8.556   8.447  0.1696  0.0053  0.6718
  435MOL0     C58592  10.960   8.469   8.515 -0.2123 -0.1760 -0.7818
  435MOL0     O58593  11.019   8.397   8.612 -0.2178 -0.1949  0.3270
  435MOL0     C58594  11.157   8.406   8.652  0.3911  0.8783 -0.2096
  435MOL0     C58595  11.190   8.314   8.757  0.4071  0.2578  0.0600
  435MOL0     C58596  11.323   8.313   8.811  0.0394  1.2919 -0.1847
  435MOL0     C58597  11.422   8.409   8.769  0.3427 -1.0068  1.3261
  435MOL0     O58598  11.557   8.395   8.819  0.8636 -0.6178 -0.3124
  435MOL0     C58599  11.656   8.486   8.765 -0.5968  0.5561  0.1078
  435MOL0     C58600  11.776   8.454   8.843  0.3484  0.5207 -0.3788
  435MOL0     C58601  11.856   8.340   8.795 -0.3839  0.2657 -0.4857
  435MOL0     C58602  11.987   8.389   8.718  0.1225  1.0547 -0.3227
  435MOL0     C58603  12.077   8.275   8.655  0.1907  0.8896 -0.6799
  435MOL0     C58604  12.179   8.328   8.559 -0.3997  0.3445 -0.1386
  435MOL0     C58605  12.275   8.225   8.518 -0.5687 -0.5257  0.3837
  435MOL0     C58606  12.394   8.284   8.440  0.7685 -0.8593 -0.4592
  435MOL0     N58607  12.359   8.349   8.313 -0.1330 -0.4438 -0.0532
  435MOL0     C58608  12.274   8.295   8.217 -0.1610  0.6331  0.8555
  435MOL0     C58609  12.293   8.362   8.108 -1.7989 -0.7491 -0.5154
  435MOL0     C58610  12.228   8.317   7.991  0.6751 -0.0707  0.5610
  435MOL0     C58611  12.230   8.422   7.877 -0.0789  0.0482 -0.3081
  435MOL0     C58612  12.371   8.452   7.807 -0.5599  0.7200 -0.7631
  435MOL0     C58613  12.461   8.332   7.783 -0.4029  0.2739  0.1312
  435MOL0     O58614  12.582   8.355   7.713 -0.3762 -0.7588 -0.4331
  435MOL0     C58615  12.694   8.408   7.779  0.8788  0.0544  1.0020
  435MOL0     C58616  12.705   8.451   7.914  0.4791  0.6798 -0.4885
  435MOL0     C58617  12.822   8.513   7.964 -0.3058  0.4324  0.2218
  435MOL0     C58618  12.931   8.520   7.878 -0.2074 -0.8678  0.0840
  435MOL0     C58619  13.061   8.561   7.925 -0.6565 -0.0195  0.5456
  435MOL0     O58620  13.155   8.612   7.835  0.4268  0.2083 -0.3547
  435MOL0     C58621  13.267   8.681   7.884 -0.3504 -0.1246 -0.3004
  435MOL0     C58622  13.297   8.748   8.005  1.1006  0.0597 -0.6965
  435MOL0     C58623  13.403   8.821   8.026  0.3452  0.1207  0.2442
  435MOL0     C58624  13.503   8.837   7.930 -0.4063 -0.0530  0.2900
  435MOL0     O58625  13.603   8.931   7.955 -0.2282 -0.3652  0.0557
  435MOL0     C58626  13.706   8.946   7.853 -0.1471  0.2124  0.4489
  435MOL0     C58627  13.796   9.061   7.894 -0.0695 -0.8993  0.3686
  435MOL0     C58628  13.861   9.025   8.030  0.4766  0.0484  0.0968
  435MOL0     C58629  14.011   8.987   8.024 -0.0585  0.1199  0.1456
  435MOL0     C58630  14.071   8.947   8.166  0.6414  0.7609  0.2066
  435MOL0     C58631  14.227   8.925   8.143  0.9375  0.4588 -0.5898
  435MOL0     C58632  14.288   8.884   8.273 -0.3367  0.2787 -0.0337
  435MOL0     C58633  14.429   8.825   8.266  0.4120  0.5424 -0.0477
  435MOL0    Cl58634  14.532   8.925   8.171  0.5995  0.2014  0.3489
  435MOL0     C58635  13.485   8.769   7.809  0.2195  0.2441 -0.5344
  435MOL0     C58636  13.361   8.702   7.784  0.0308 -0.0565  1.3138
  435MOL0     O58637  13.080   8.537   8.043 -1.1903 -0.2983 -0.4231
  435MOL0     C58638  12.923   8.490   7.740  0.6224 -0.3493 -0.3791
  435MOL0     C58639  12.804   8.429   7.695 -0.6097 -1.4894 -0.4944
  435MOL0     N58640  12.385   8.469   8.141  0.0234 -0.3059 -0.3010
  435MOL0     N58641  12.417   8.463   8.261 -0.6917  0.1435 -0.9364
  435MOL0     C58642  11.384   8.494   8.663 -0.5512  0.3437  0.0579
  435MOL0     C58643  11.259   8.502   8.613  0.8919  0.3117  0.2195
  435MOL0     C58644  10.830   8.418   8.476 -0.1000 -0.5896 -0.3696
  435MOL0     C58645  10.828   8.291   8.416 -0.2322 -0.3193  0.4391
  435MOL0     C58646  10.709   8.240   8.375  0.9964 -0.2321  0.0004
  435MOL0     C58647  10.585   8.310   8.392  0.3586 -0.4560  0.6265
  435MOL0     O58648  10.458   8.268   8.369  0.5431  0.0261 -0.1283
  435MOL0     C58649  10.448   8.135   8.318  0.1234 -0.2682 -0.4190
  435MOL0     C58650  10.304   8.074   8.346 -0.0068  0.0650 -0.2725
  435MOL0     C58651  10.190   8.124   8.249 -0.1916 -0.2940  0.0272
  435MOL0     C58652  10.094   8.000   8.232 -0.1022  0.6970 -0.3068
  435MOL0     C58653   9.979   8.038   8.160 -0.0306 -0.4872  0.5156
  435MOL0     C58654   9.876   8.061   8.097 -0.3071  0.8189 -0.0093
  435MOL0     C58655  10.595   8.439   8.454  0.3573 -0.3349 -0.2313
  435MOL0     C58656  10.714   8.493   8.485 -0.3917 -0.0357  0.0810
  435MOL0     C58657  10.706   8.630   8.558 -0.7222 -0.7563 -0.1231
  435MOL0     H58658  11.120   8.234   8.778 -1.0049  0.4436 -3.3244
  435MOL0     H58659  11.349   8.242   8.889 -0.9852 -0.0518 -1.0153
  435MOL0     H58660  11.673   8.474   8.657 -0.5580  0.0908  0.1618
  435MOL0     H58661  11.635   8.593   8.776  0.0749  0.7946 -0.8122
  435MOL0     H58662  11.753   8.430   8.947  0.3286  0.1785 -0.4603
  435MOL0     H58663  11.838   8.545   8.844  0.9771  0.0920 -0.0855
  435MOL0     H58664  11.795   8.274   8.732 -1.7810  3.7804 -3.1760
  435MOL0     H58665  11.875   8.281   8.886  1.2414 -0.3182 -1.1802
  435MOL0     H58666  11.963   8.466   8.644  0.7508  2.2735  0.7020
  435MOL0     H58667  12.050   8.443   8.789 -1.2411  2.7733 -0.3350
  435MOL0     H58668  12.126   8.218   8.735  0.3178 -0.9171 -1.9722
  435MOL0     H58669  12.004   8.208   8.609  0.1050  0.2938  0.2877
  435MOL0     H58670  12.133   8.376   8.472 -0.1587 -1.2723 -1.1932
  435MOL0     H58671  12.217   8.419   8.606 -2.4360  1.2735 -0.1899
  435MOL0     H58672  12.221   8.149   8.461 -0.1043 -0.5460 -0.0358
  435MOL0     H58673  12.333   8.187   8.603  1.5512  1.3342 -0.1137
  435MOL0     H58674  12.435   8.361   8.506 -2.1682  1.4730 -1.1320
  435MOL0     H58675  12.465   8.206   8.410  0.9479 -0.5952 -0.7286
  435MOL0     H58676  12.205   8.212   8.227 -1.3440  1.3605 -0.7236
  435MOL0     H58677  12.270   8.225   7.951  0.9481  1.2207 -2.4814
  435MOL0     H58678  12.123   8.297   8.013  1.0402 -0.5418  1.9137
  435MOL0     H58679  12.169   8.375   7.800  1.3019 -0.0413 -1.3717
  435MOL0     H58680  12.190   8.517   7.915  1.0067  0.3964  0.0157
  435MOL0     H58681  12.421   8.513   7.883  2.3954 -1.1177 -1.0799
  435MOL0     H58682  12.352   8.516   7.721 -4.1465  2.6117  1.1620
  435MOL0     H58683  12.400   8.262   7.725 -1.4177  0.4078  1.0160
  435MOL0     H58684  12.496   8.288   7.876  3.2395 -1.4493 -1.8089
  435MOL0     H58685  12.626   8.448   7.988 -0.5568  0.7048 -1.5687
  435MOL0     H58686  12.838   8.542   8.068  0.6918 -0.5207  0.3490
  435MOL0     H58687  13.233   8.743   8.093  2.2436 -0.7668  0.1281
  435MOL0     H58688  13.396   8.870   8.123 -2.6587 -0.0451  0.2045
  435MOL0     H58689  13.778   8.865   7.866  0.4096  0.7099  0.5583
  435MOL0     H58690  13.675   8.954   7.749 -0.4350 -0.8119  0.4451
  435MOL0     H58691  13.869   9.061   7.812 -2.4743 -3.2760 -1.9786
  435MOL0     H58692  13.740   9.156   7.896 -1.4260 -1.6780  0.6893
  435MOL0     H58693  13.850   9.113   8.095  0.8038 -0.8426  1.3924
  435MOL0     H58694  13.808   8.946   8.083  0.7752  0.4695  1.0547
  435MOL0     H58695  14.062   9.074   7.979 -4.6320  1.7059 -2.6449
  435MOL0     H58696  14.029   8.903   7.957 -1.2994  1.1392 -1.5563
  435MOL0     H58697  14.017   8.857   8.198 -2.5919  2.4664 -0.0103
  435MOL0     H58698  14.056   9.029   8.237  0.2643  0.9899 -0.1321
  435MOL0     H58699  14.241   8.847   8.068 -1.9250  0.4481 -1.2232
  435MOL0     H58700  14.280   9.010   8.100  2.6160  0.1642  0.7747
  435MOL0     H58701  14.237   8.810   8.335  3.7323 -1.2871  1.8586
  435MOL0     H58702  14.293   8.978   8.329 -1.7793  0.6080 -0.4407
  435MOL0     H58703  14.460   8.817   8.370 -2.6900  0.1380  0.9586
  435MOL0     H58704  14.435   8.722   8.230  0.8176 -0.3552  2.4075
  435MOL0     H58705  13.561   8.767   7.732  1.4759 -0.5056  0.6883
  435MOL0     H58706  13.330   8.666   7.687 -2.2305 -0.8037  2.2491
  435MOL0     H58707  13.005   8.512   7.672  0.6015  2.8803  0.4532
  435MOL0     H58708  12.785   8.407   7.591  1.3239 -0.5818 -1.0660
  435MOL0     H58709  11.456   8.569   8.632 -0.9271 -0.1867 -2.2317
  435MOL0     H58710  11.250   8.578   8.537  1.9971  1.6639  1.3872
  435MOL0     H58711  10.925   8.244   8.410 -0.5258 -0.8359 -0.6543
  435MOL0     H58712  10.712   8.138   8.337  2.5808 -0.7242  1.3004
  435MOL0     H58713  10.527   8.076   8.366  0.4598  0.8158  0.4043
  435MOL0     H58714  10.463   8.146   8.210  1.4617 -0.5979 -0.2913
  435MOL0     H58715  10.268   8.093   8.448  1.3234 -2.0731  0.6706
  435MOL0     H58716  10.316   7.967   8.330 -0.4775 -0.1051  0.4669
  435MOL0     H58717  10.238   8.156   8.156 -2.3694  0.5439 -0.8716
  435MOL0     H58718  10.145   8.216   8.287  0.1799  0.0608 -0.3697
  435MOL0     H58719  10.134   7.933   8.156 -0.6185 -0.6233  0.5670
  435MOL0     H58720  10.063   7.954   8.326 -1.9211  0.9189 -0.7629
  435MOL0     H58721   9.794   8.093   8.035 -0.3892 -1.2959 -1.0732
  435MOL0     H58722  10.506   8.492   8.486  2.3615  0.8783  4.0960
  435MOL0     H58723  10.608   8.654   8.601  0.7638  2.8497  1.6667
  435MOL0     H58724  10.776   8.646   8.640 -3.0035  1.2157  1.5812
  435MOL0     H58725  10.730   8.717   8.496  1.7632  0.2044  2.0556
  436MOL0     O58726   4.721   9.748   6.057  0.3971  0.4759  0.0436
  436MOL0     C58727   4.656   9.790   6.148 -0.2484 -0.0591  0.6843
  436MOL0     O58728   4.691   9.789   6.283  0.4800 -0.0059 -0.7528
  436MOL0     C58729   4.805   9.733   6.336  0.1208  0.4064 -0.0678
  436MOL0     C58730   4.813   9.653   6.450  0.6626 -0.7026  0.4559
  436MOL0     C58731   4.930   9.594   6.492 -0.2091  0.8948 -0.0097
  436MOL0     C58732   5.045   9.631   6.420  1.0006 -0.3907 -0.0581
  436MOL0     O58733   5.170   9.587   6.452 -0.0348  0.6964 -1.1084
  436MOL0     C58734   5.173   9.445   6.474  0.2360 -0.0664 -0.3685
  436MOL0     C58735   5.200   9.422   6.621  1.0253  0.0686 -0.6170
  436MOL0     C58736   5.345   9.433   6.665 -0.5158 -0.4694 -0.1755
  436MOL0     C58737   5.357   9.422   6.819 -0.6880 -0.4860  0.3616
  436MOL0     C58738   5.492   9.413   6.882 -0.4790  0.9380  0.4527
  436MOL0     C58739   5.569   9.542   6.871  0.0716 -0.2431 -1.1084
  436MOL0     C58740   5.712   9.552   6.934 -0.0622 -0.1607 -0.5468
  436MOL0     C58741   5.820   9.494   6.841  0.8064  0.0440 -0.0283
  436MOL0     N58742   5.947   9.543   6.870 -0.2194 -0.4333 -0.8421
  436MOL0     C58743   6.035   9.607   6.784 -0.9790 -0.2486 -0.2298
  436MOL0     C58744   6.154   9.601   6.849 -0.0618 -0.0351 -0.4674
  436MOL0     C58745   6.282   9.655   6.797 -0.4857 -0.1304  0.1272
  436MOL0     C58746   6.332   9.782   6.873  0.7621 -0.1792 -0.5606
  436MOL0     C58747   6.466   9.838   6.820 -0.2457 -0.4110 -0.2484
  436MOL0     C58748   6.516   9.952   6.917  0.9446  0.1358  0.7476
  436MOL0     O58749   6.605  10.046   6.851 -0.4299  0.2123 -0.1471
  436MOL0     C58750   6.736  10.025   6.845  0.3242  0.5513  0.3330
  436MOL0     C58751   6.812  10.128   6.782  0.3247 -0.1909 -0.2595
  436MOL0     C58752   6.950  10.115   6.771 -0.0528  0.3942  0.0322
  436MOL0     C58753   7.011  10.001   6.819  0.0217  0.7049 -0.8125
  436MOL0     C58754   7.159   9.983   6.825  0.3250 -0.0162  0.1593
  436MOL0     O58755   7.228  10.092   6.795 -0.0825  1.0687  0.3149
  436MOL0     C58756   7.365  10.097   6.811 -0.2206 -0.5994  0.5544
  436MOL0     C58757   7.444  10.135   6.699 -0.1632  0.5709  0.2178
  436MOL0     C58758   7.584  10.139   6.705 -1.2585 -0.1019  0.2380
  436MOL0     C58759   7.652  10.110   6.823  0.1327 -0.3396  0.6349
  436MOL0     O58760   7.787  10.099   6.826 -0.1941  0.2659  0.2233
  436MOL0     C58761   7.862  10.170   6.925 -0.7921  0.4169  0.4680
  436MOL0     C58762   8.001  10.171   6.864  0.1273  0.5661 -0.1596
  436MOL0     C58763   8.115  10.226   6.953  0.1843  0.1678 -0.1237
  436MOL0     C58764   8.129  10.163   7.093  0.1044 -0.7502  0.6714
  436MOL0     C58765   8.167  10.017   7.075 -0.8818 -0.0728  0.6419
  436MOL0     C58766   8.176   9.927   7.205  0.0715  0.3208  0.4266
  436MOL0     C58767   8.208   9.786   7.152 -0.1647  0.2066  0.5100
  436MOL0     C58768   8.236   9.689   7.264 -0.1893  0.0432 -1.1443
  436MOL0    Cl58769   8.405   9.741   7.330  0.2604 -0.5782 -0.0155
  436MOL0     C58770   7.567  10.072   6.934 -0.6135 -0.3409 -0.5018
  436MOL0     C58771   7.425  10.064   6.935  0.0252  1.1202  0.0979
  436MOL0     O58772   7.211   9.875   6.849 -0.0193  0.0118  0.3640
  436MOL0     C58773   6.937   9.896   6.880  0.9311  0.2287  0.3559
  436MOL0     C58774   6.794   9.910   6.897 -0.8980 -0.2717 -0.0051
  436MOL0     N58775   6.141   9.541   6.973 -0.8371  0.3132  0.0941
  436MOL0     N58776   6.019   9.511   6.983  0.3453  0.0001  0.0139
  436MOL0     C58777   5.044   9.724   6.321  0.2199  0.0642  0.2949
  436MOL0     C58778   4.923   9.775   6.278  0.1075 -0.5356  0.7702
  436MOL0     C58779   4.517   9.828   6.114  0.1117 -0.2451 -0.0073
  436MOL0     C58780   4.466   9.791   5.986  0.4445  0.3086 -0.7454
  436MOL0     C58781   4.336   9.808   5.945  0.0270  0.2107  0.5793
  436MOL0     C58782   4.247   9.875   6.025 -0.2192 -1.5701 -0.6381
  436MOL0     O58783   4.117   9.886   5.995 -0.6027 -0.9230  0.3895
  436MOL0     C58784   4.060   9.847   5.871  0.3071 -0.2170  0.9418
  436MOL0     C58785   3.954   9.946   5.844  0.2005  0.3293  0.0471
  436MOL0     C58786   4.004  10.092   5.843 -0.2837  0.2386 -0.1396
  436MOL0     C58787   3.915  10.192   5.768 -0.0830 -0.6444  0.3798
  436MOL0     C58788   3.780  10.178   5.824 -0.1448  0.5258  0.4588
  436MOL0     C58789   3.666  10.161   5.879  0.4348  0.1444  0.0792
  436MOL0     C58790   4.286   9.909   6.157  0.1829 -0.3400  1.2979
  436MOL0     C58791   4.423   9.892   6.201  0.1552  0.1101  0.6951
  436MOL0     C58792   4.460   9.931   6.340  0.6918 -0.4932 -0.1289
  436MOL0     H58793   4.717   9.613   6.481  1.0384 -1.5275  0.6016
  436MOL0     H58794   4.925   9.525   6.576  3.3013  1.6936  0.9978
  436MOL0     H58795   5.077   9.399   6.448 -0.2577 -0.1520  1.4862
  436MOL0     H58796   5.254   9.398   6.417 -0.8150 -0.5055 -1.5482
  436MOL0     H58797   5.167   9.322   6.651 -0.0803  1.0417  1.6494
  436MOL0     H58798   5.141   9.491   6.681 -2.3365 -1.5955 -1.6906
  436MOL0     H58799   5.385   9.526   6.625  2.1961 -1.0363  0.9977
  436MOL0     H58800   5.394   9.345   6.621  2.7803 -0.2014  2.5336
  436MOL0     H58801   5.295   9.498   6.868 -0.8412  1.0163 -2.0541
  436MOL0     H58802   5.301   9.332   6.848 -1.6890  0.4321  1.4054
  436MOL0     H58803   5.484   9.391   6.989  0.9784  0.2723  0.4522
  436MOL0     H58804   5.552   9.334   6.835  1.0077  1.3489  1.5632
  436MOL0     H58805   5.566   9.558   6.763  2.1803 -1.1929 -1.3478
  436MOL0     H58806   5.510   9.627   6.908  0.9414  0.1077 -0.5025
  436MOL0     H58807   5.717   9.508   7.034  1.1751  2.5822  0.7104
  436MOL0     H58808   5.736   9.655   6.965  3.6870 -1.2247  0.6259
  436MOL0     H58809   5.821   9.384   6.842  0.1932 -0.1073 -3.6979
  436MOL0     H58810   5.801   9.525   6.739 -1.2634 -0.8341  0.0487
  436MOL0     H58811   6.025   9.668   6.695 -0.5858  3.2099  1.9189
  436MOL0     H58812   6.357   9.578   6.814  1.1954  1.3481 -0.2931
  436MOL0     H58813   6.265   9.687   6.693 -2.7067  1.9282  1.0235
  436MOL0     H58814   6.256   9.859   6.859  0.3699 -0.6381 -0.9896
  436MOL0     H58815   6.340   9.754   6.979 -0.6048  1.2897 -0.0340
  436MOL0     H58816   6.449   9.882   6.722  0.9272  1.2500  0.2540
  436MOL0     H58817   6.547   9.765   6.812  0.0691  0.0893 -1.8515
  436MOL0     H58818   6.548   9.913   7.014  1.4917 -0.1742  0.4492
  436MOL0     H58819   6.422  10.005   6.934  1.2005  0.6090  0.7124
  436MOL0     H58820   6.763  10.212   6.736  0.0217 -1.4537 -2.3423
  436MOL0     H58821   7.005  10.196   6.723  0.1278  0.1925 -0.1031
  436MOL0     H58822   7.379  10.173   6.621 -2.6495 -3.0526  0.2930
  436MOL0     H58823   7.655  10.164   6.627  0.7156 -1.4846  1.5046
  436MOL0     H58824   7.826  10.271   6.947 -1.0505  0.5086 -0.3437
  436MOL0     H58825   7.866  10.107   7.013  2.3514 -0.5635 -0.2422
  436MOL0     H58826   8.027  10.066   6.850 -0.0302  0.4406  0.4501
  436MOL0     H58827   7.999  10.217   6.765  0.9012  0.8844 -0.0343
  436MOL0     H58828   8.210  10.205   6.903 -0.3112  1.6830 -1.8270
  436MOL0     H58829   8.103  10.335   6.954 -1.4328  0.0053  0.1172
  436MOL0     H58830   8.039  10.177   7.154  0.1633 -0.1657  0.6256
  436MOL0     H58831   8.206  10.210   7.154 -0.3747 -1.7420  2.1026
  436MOL0     H58832   8.259  10.008   7.017  1.1618 -2.0045  3.8602
  436MOL0     H58833   8.083   9.961   7.034 -0.7170 -0.5275  0.9128
  436MOL0     H58834   8.257   9.963   7.270  0.1204 -0.6920  0.9342
  436MOL0     H58835   8.077   9.943   7.249 -0.5953  4.3273 -2.0274
  436MOL0     H58836   8.298   9.785   7.089  0.5221  1.9064  1.3879
  436MOL0     H58837   8.124   9.748   7.094  0.3166  1.1678 -0.8533
  436MOL0     H58838   8.154   9.713   7.333 -2.2365  2.3303 -4.1444
  436MOL0     H58839   8.226   9.583   7.237  0.3713 -0.0504 -1.0011
  436MOL0     H58840   7.630  10.043   7.017 -0.4977 -0.4581 -0.6309
  436MOL0     H58841   7.366  10.038   7.022 -1.6235  3.4816 -0.2195
  436MOL0     H58842   6.990   9.815   6.928 -0.0013 -0.5971  0.0131
  436MOL0     H58843   6.736   9.827   6.937 -0.1104 -0.0931  1.6114
  436MOL0     H58844   5.135   9.753   6.269  0.8477  1.6562  2.1657
  436MOL0     H58845   4.934   9.840   6.192  2.4929 -1.1017  0.5454
  436MOL0     H58846   4.534   9.730   5.927  0.4237  1.9912 -2.5946
  436MOL0     H58847   4.305   9.767   5.849 -1.0573  0.9978  0.5728
  436MOL0     H58848   4.024   9.744   5.886  1.4769 -0.9589 -0.8898
  436MOL0     H58849   4.132   9.853   5.788 -1.1050  1.7924 -0.2079
  436MOL0     H58850   3.875   9.922   5.916 -0.7576 -0.6429 -1.2789
  436MOL0     H58851   3.911   9.927   5.745 -0.5253  0.5737  0.3069
  436MOL0     H58852   4.100  10.081   5.791  0.7826 -0.6069  1.8778
  436MOL0     H58853   4.031  10.128   5.943 -0.3228  0.6993 -0.2918
  436MOL0     H58854   3.948  10.295   5.780 -0.8613 -0.0068 -2.3052
  436MOL0     H58855   3.924  10.170   5.661 -0.3096 -1.8200  0.5887
  436MOL0     H58856   3.569  10.142   5.921 -1.1657 -0.5739 -3.5382
  436MOL0     H58857   4.211   9.948   6.226 -0.6833 -0.1349  0.2538
  436MOL0     H58858   4.466   9.842   6.403 -2.2850  0.8814  2.3998
  436MOL0     H58859   4.542  10.002   6.345 -0.7530  1.5214 -2.4667
  436MOL0     H58860   4.379   9.992   6.381  2.5368  0.4318  2.3977
  437MOL0     O58861   9.403   7.539   7.770 -0.6236 -0.2963  0.6319
  437MOL0     C58862   9.369   7.484   7.875 -0.3726 -0.0872 -0.2411
  437MOL0     O58863   9.453   7.487   7.988 -0.2803  0.5297 -0.2818
  437MOL0     C58864   9.589   7.535   7.963  1.2094 -0.2331 -0.5680
  437MOL0     C58865   9.642   7.652   8.025  0.0445 -0.5655 -0.1334
  437MOL0     C58866   9.780   7.668   8.034 -0.0627  0.4100 -0.0056
  437MOL0     C58867   9.875   7.579   7.974  0.4459  0.6235  0.1697
  437MOL0     O58868  10.007   7.615   7.985  0.7103 -0.1149  0.4850
  437MOL0     C58869  10.108   7.526   7.934 -0.1209  0.4323  0.1809
  437MOL0     C58870  10.250   7.576   7.929 -0.1611  0.5349  0.3702
  437MOL0     C58871  10.326   7.598   8.068 -0.0246 -0.2550  0.0985
  437MOL0     C58872  10.478   7.632   8.037  0.0276  0.0067 -0.2843
  437MOL0     C58873  10.558   7.653   8.167  0.0712  0.2702  0.4912
  437MOL0     C58874  10.708   7.657   8.125 -0.0330 -0.4510 -0.5477
  437MOL0     C58875  10.795   7.731   8.228 -1.0760 -0.0029 -0.1658
  437MOL0     C58876  10.927   7.772   8.164  0.1285  0.2251  0.4049
  437MOL0     N58877  11.009   7.877   8.235 -0.0692  0.3552 -0.1419
  437MOL0     C58878  11.145   7.900   8.205 -0.0480  0.1489  0.2670
  437MOL0     C58879  11.184   7.976   8.301 -0.5955 -0.4668  0.3898
  437MOL0     C58880  11.320   8.038   8.335  0.3116  1.0344 -0.0189
  437MOL0     C58881  11.364   8.004   8.482  0.1162 -0.3736  0.4212
  437MOL0     C58882  11.458   8.121   8.537  0.3030  0.2559  0.1974
  437MOL0     C58883  11.544   8.079   8.654  0.5986 -0.2930  0.6571
  437MOL0     O58884  11.619   7.958   8.624  0.6689  1.4306  0.5530
  437MOL0     C58885  11.746   7.950   8.654 -0.3123 -1.2334 -0.0944
  437MOL0     C58886  11.821   7.901   8.556 -0.3201  0.0394  0.5219
  437MOL0     C58887  11.954   7.861   8.584  0.0953  0.5500 -0.3738
  437MOL0     C58888  12.010   7.898   8.702  0.2105  0.2291  0.0294
  437MOL0     C58889  12.155   7.877   8.719  0.3539 -0.3462  0.1705
  437MOL0     O58890  12.208   7.932   8.836 -0.7921  0.4348  0.1084
  437MOL0     C58891  12.342   7.924   8.841  0.6425  0.1018 -0.2507
  437MOL0     C58892  12.411   8.041   8.878  0.5901 -0.2129 -0.0561
  437MOL0     C58893  12.550   8.051   8.874  0.5050 -0.3318  0.4025
  437MOL0     C58894  12.622   7.926   8.858 -0.3715  0.1623 -1.0495
  437MOL0     O58895  12.764   7.930   8.875  0.6623 -0.6729  0.1228
  437MOL0     C58896  12.851   7.815   8.846 -0.7170  0.1599 -0.5118
  437MOL0     C58897  12.868   7.799   8.690  0.3894  0.1014 -0.5947
  437MOL0     C58898  12.962   7.677   8.674  0.2821  0.0245 -0.2756
  437MOL0     C58899  13.019   7.670   8.533  0.0005 -0.0081 -0.2576
  437MOL0     C58900  13.140   7.584   8.524 -0.3314  0.6624 -1.0482
  437MOL0     C58901  13.164   7.543   8.383 -0.4686 -0.5557 -0.0164
  437MOL0     C58902  13.305   7.484   8.371 -0.2783  0.2280 -0.4352
  437MOL0     C58903  13.319   7.376   8.259  0.1538 -0.7255 -0.1206
  437MOL0    Cl58904  13.241   7.231   8.321 -0.4245  0.3251  0.5141
  437MOL0     C58905  12.550   7.812   8.839  0.5704  0.6557  0.5918
  437MOL0     C58906  12.410   7.805   8.826 -0.7693 -0.4905 -0.5865
  437MOL0     O58907  12.216   7.845   8.623 -0.0022  0.7668 -0.0586
  437MOL0     C58908  11.938   7.957   8.801 -0.0620  0.1336  0.0024
  437MOL0     C58909  11.802   7.993   8.778 -0.0679  0.3004 -0.0388
  437MOL0     N58910  11.080   7.994   8.380 -0.1948 -0.2437 -0.1076
  437MOL0     N58911  10.966   7.950   8.335 -0.4798 -0.1979 -0.0449
  437MOL0     C58912   9.814   7.469   7.902 -0.4218  0.0619 -0.0017
  437MOL0     C58913   9.676   7.451   7.903 -0.8394 -0.2210 -0.0322
  437MOL0     C58914   9.241   7.422   7.902 -0.0774  0.0356 -0.4736
  437MOL0     C58915   9.228   7.341   8.013  0.6333  0.3030 -0.2228
  437MOL0     C58916   9.104   7.284   8.055 -0.6003  0.1552 -0.5558
  437MOL0     C58917   8.988   7.307   7.980  0.0188  0.2415 -0.2304
  437MOL0     O58918   8.865   7.253   8.014  0.2911  0.9433  0.8226
  437MOL0     C58919   8.812   7.246   8.150  0.1082  0.0690 -0.4169
  437MOL0     C58920   8.658   7.242   8.153 -0.0152  0.4268 -0.2712
  437MOL0     C58921   8.593   7.154   8.038  0.8247  0.0623 -1.1707
  437MOL0     C58922   8.447   7.110   8.073  0.7190 -0.7109 -0.0093
  437MOL0     C58923   8.352   7.227   8.095  0.1877 -0.0847  0.2913
  437MOL0     C58924   8.286   7.329   8.110  0.6193 -0.9084  0.4831
  437MOL0     C58925   9.002   7.373   7.866 -0.5881  0.2583  0.4002
  437MOL0     C58926   9.125   7.432   7.820  0.5636  0.3066 -0.2547
  437MOL0     C58927   9.112   7.523   7.697 -0.0771 -0.1058  0.2089
  437MOL0     H58928   9.569   7.710   8.081 -1.1487 -2.4139  0.3538
  437MOL0     H58929   9.817   7.756   8.086  0.5762 -0.4548  1.0296
  437MOL0     H58930  10.097   7.435   7.995 -4.8316  0.5358 -0.1397
  437MOL0     H58931  10.067   7.496   7.837 -1.7882  2.6560  0.1179
  437MOL0     H58932  10.260   7.678   7.890 -0.2335  0.3168 -0.2339
  437MOL0     H58933  10.306   7.502   7.870 -0.0401 -0.7707  2.0571
  437MOL0     H58934  10.332   7.504   8.123 -0.0600 -0.5101 -0.3299
  437MOL0     H58935  10.275   7.670   8.132 -4.2881 -1.3872 -1.7058
  437MOL0     H58936  10.516   7.550   7.975  0.0722 -1.3542  1.4665
  437MOL0     H58937  10.480   7.715   7.966  0.0299 -0.2810 -0.6294
  437MOL0     H58938  10.525   7.744   8.218  0.8112  0.8123  0.0106
  437MOL0     H58939  10.538   7.568   8.233  1.3632 -2.7548 -2.6812
  437MOL0     H58940  10.749   7.556   8.116 -0.9193 -0.6414 -3.5696
  437MOL0     H58941  10.728   7.694   8.024  1.8748  0.5091  0.1191
  437MOL0     H58942  10.806   7.666   8.315 -2.4315 -0.7974 -0.5495
  437MOL0     H58943  10.745   7.825   8.252  0.3009  2.1896 -4.8127
  437MOL0     H58944  10.986   7.681   8.145 -0.4256 -0.4440  1.7039
  437MOL0     H58945  10.915   7.804   8.060  1.3090 -1.3593 -0.2602
  437MOL0     H58946  11.194   7.870   8.113  0.5609  1.4961  0.1261
  437MOL0     H58947  11.403   8.004   8.273 -0.2249 -1.6901  0.6351
  437MOL0     H58948  11.310   8.146   8.318 -0.8496  0.4767 -3.5070
  437MOL0     H58949  11.272   7.988   8.539 -1.7945 -2.6663 -2.9795
  437MOL0     H58950  11.420   7.911   8.487  0.7216 -0.1071 -0.8768
  437MOL0     H58951  11.392   8.201   8.571 -0.3999  0.7534 -2.1621
  437MOL0     H58952  11.517   8.162   8.455  3.5092 -3.3062  0.4322
  437MOL0     H58953  11.481   8.064   8.742  1.6362 -1.2620  1.2636
  437MOL0     H58954  11.614   8.160   8.677 -0.8318  0.6923  1.6940
  437MOL0     H58955  11.768   7.884   8.463 -0.7316 -1.5851  1.0312
  437MOL0     H58956  12.009   7.805   8.508 -2.3149 -1.0298 -1.0710
  437MOL0     H58957  12.343   8.124   8.895  1.7449  0.8450 -0.4521
  437MOL0     H58958  12.600   8.146   8.889 -0.1956  0.0542  0.3411
  437MOL0     H58959  12.947   7.838   8.893 -1.3216 -1.2694  1.5464
  437MOL0     H58960  12.814   7.723   8.891  1.1426 -0.0933  0.5809
  437MOL0     H58961  12.775   7.790   8.633  1.6544  3.9793 -3.7334
  437MOL0     H58962  12.921   7.886   8.649  1.1677  0.1396  0.4571
  437MOL0     H58963  13.051   7.674   8.737 -0.0684 -1.2429  0.1893
  437MOL0     H58964  12.906   7.583   8.675 -0.4581  0.4434 -0.7146
  437MOL0     H58965  13.042   7.769   8.492 -1.9220 -0.3066 -2.2152
  437MOL0     H58966  12.942   7.639   8.462  0.4364 -2.6694  0.3256
  437MOL0     H58967  13.136   7.496   8.588 -0.8567  1.8986  0.6952
  437MOL0     H58968  13.217   7.651   8.564 -2.5306  1.6618  1.8621
  437MOL0     H58969  13.097   7.464   8.347 -1.0764  0.5806 -1.4927
  437MOL0     H58970  13.155   7.619   8.305 -1.5303  0.6284  1.2071
  437MOL0     H58971  13.338   7.446   8.468  1.2235  0.7622 -0.7114
  437MOL0     H58972  13.369   7.569   8.349 -3.8935  2.5308 -3.3060
  437MOL0     H58973  13.266   7.416   8.172  1.6131  1.2398 -0.1774
  437MOL0     H58974  13.426   7.360   8.238 -0.0933 -0.9489 -1.2713
  437MOL0     H58975  12.591   7.712   8.830 -0.6905  0.1567  0.1261
  437MOL0     H58976  12.356   7.712   8.814 -0.7582 -0.3560 -1.7612
  437MOL0     H58977  11.974   7.973   8.902 -1.6242 -0.5499  0.6957
  437MOL0     H58978  11.739   8.028   8.860 -1.2113 -1.9304  0.1300
  437MOL0     H58979   9.883   7.406   7.848 -0.0026  0.4153  0.1170
  437MOL0     H58980   9.640   7.366   7.846 -0.5847 -0.3705  0.0310
  437MOL0     H58981   9.311   7.309   8.075 -0.0979 -0.9800  0.1393
  437MOL0     H58982   9.114   7.201   8.125  1.3968  2.2732  1.8727
  437MOL0     H58983   8.838   7.339   8.202 -0.5029  0.4716 -0.8145
  437MOL0     H58984   8.841   7.153   8.199 -2.4143  0.0055  1.0834
  437MOL0     H58985   8.623   7.345   8.139  1.3691  1.3163  2.1324
  437MOL0     H58986   8.639   7.201   8.253  2.6180  0.2744  0.2532
  437MOL0     H58987   8.653   7.063   8.027  2.1145  0.1787  3.0112
  437MOL0     H58988   8.585   7.218   7.950 -1.5246  1.4125 -0.0505
  437MOL0     H58989   8.410   7.044   7.994  3.0352 -1.0054 -0.9364
  437MOL0     H58990   8.448   7.055   8.168 -2.7063 -4.0370 -1.6257
  437MOL0     H58991   8.213   7.406   8.124  1.6374  0.2884 -0.5026
  437MOL0     H58992   8.908   7.368   7.811 -3.3413  0.5452  4.6563
  437MOL0     H58993   9.100   7.627   7.728 -1.3765  0.0018 -0.5994
  437MOL0     H58994   9.202   7.508   7.636  0.7724 -1.9926  1.7945
  437MOL0     H58995   9.021   7.498   7.643  0.8775 -1.2100 -0.9606
  438MOL0     O58996   5.312   2.540   3.939 -0.4591 -0.1341  0.5617
  438MOL0     C58997   5.234   2.496   3.855 -0.6763 -0.1549 -0.5450
  438MOL0     O58998   5.256   2.508   3.720 -0.1221 -0.3643  0.5597
  438MOL0     C58999   5.361   2.587   3.671  1.4969  0.8032 -0.3080
  438MOL0     C59000   5.398   2.708   3.732  0.1347 -0.2968 -0.6072
  438MOL0     C59001   5.504   2.779   3.672 -0.6783  0.1487 -0.5101
  438MOL0     C59002   5.563   2.731   3.556 -0.2595 -0.2771 -0.4796
  438MOL0     O59003   5.670   2.802   3.505  0.6320 -0.1578  0.9361
  438MOL0     C59004   5.801   2.799   3.569 -0.4669  0.4880  0.1358
  438MOL0     C59005   5.860   2.660   3.571 -0.3080 -0.0772 -0.3206
  438MOL0     C59006   5.905   2.597   3.440  0.4923  0.2502  0.1307
  438MOL0     C59007   5.951   2.448   3.449 -0.6733  0.8702  0.1464
  438MOL0     C59008   6.068   2.436   3.557  0.2817  0.2206  0.1180
  438MOL0     C59009   6.210   2.486   3.514 -0.1230 -0.5663 -0.1179
  438MOL0     C59010   6.299   2.472   3.638  0.4291 -0.1412 -0.2987
  438MOL0     C59011   6.423   2.565   3.635  0.7242  0.9906 -0.8301
  438MOL0     N59012   6.507   2.541   3.521  0.0147  0.3700 -0.2999
  438MOL0     C59013   6.599   2.437   3.498  0.0983 -0.6453 -0.2372
  438MOL0     C59014   6.650   2.455   3.378 -0.5990 -0.4947  0.3173
  438MOL0     C59015   6.747   2.379   3.306 -0.1390  0.0665 -0.3624
  438MOL0     C59016   6.886   2.399   3.365 -0.3755  0.2052 -0.1551
  438MOL0     C59017   6.989   2.292   3.311  0.3455 -0.0666  0.1119
  438MOL0     C59018   7.073   2.353   3.202 -1.0975  0.2282 -0.3326
  438MOL0     O59019   7.109   2.268   3.091 -0.4999  0.1708  0.3201
  438MOL0     C59020   7.242   2.249   3.069  0.1432  0.9991 -0.5856
  438MOL0     C59021   7.352   2.330   3.105  0.5427  0.6516  0.5593
  438MOL0     C59022   7.486   2.289   3.083  0.3993  0.1018  0.6605
  438MOL0     C59023   7.512   2.159   3.024 -0.1215 -0.3686  1.1911
  438MOL0     C59024   7.648   2.109   2.984 -0.4621  0.5327 -0.1885
  438MOL0     O59025   7.749   2.196   3.002 -0.5107 -0.4432 -0.0653
  438MOL0     C59026   7.870   2.147   2.955 -0.1304 -1.5491 -0.3280
  438MOL0     C59027   7.964   2.088   3.037  0.0546  0.5138 -0.0119
  438MOL0     C59028   8.077   2.027   2.992 -0.8653  0.2569 -0.3217
  438MOL0     C59029   8.099   2.028   2.852  0.2407 -0.7785 -0.0374
  438MOL0     O59030   8.192   1.961   2.773 -0.7193  0.1466  0.2720
  438MOL0     C59031   8.299   1.897   2.844 -0.6961  0.1213 -0.0281
  438MOL0     C59032   8.392   1.827   2.746  0.1633  0.6282  0.5555
  438MOL0     C59033   8.484   1.925   2.673 -0.7525 -0.8437 -0.5024
  438MOL0     C59034   8.602   1.852   2.595  0.3182 -0.0965  0.3223
  438MOL0     C59035   8.673   1.943   2.501 -0.1373 -0.1585  0.4895
  438MOL0     C59036   8.780   1.861   2.420 -0.4015  0.1571  0.1025
  438MOL0     C59037   8.856   1.927   2.306  0.7293 -0.1101 -0.6389
  438MOL0     C59038   8.774   1.929   2.184  0.1089 -0.0906 -0.0324
  438MOL0    Cl59039   8.853   2.008   2.032 -0.3501  0.0164  0.0981
  438MOL0     C59040   8.008   2.089   2.767 -0.3636  0.5602 -0.2964
  438MOL0     C59041   7.897   2.153   2.822  0.3793 -0.3314 -0.5218
  438MOL0     O59042   7.662   1.990   2.946 -0.0711  0.0574 -0.5414
  438MOL0     C59043   7.409   2.073   2.997  0.4917  0.1219 -0.1243
  438MOL0     C59044   7.277   2.124   3.020  0.2372  0.3500 -0.1286
  438MOL0     N59045   6.599   2.571   3.333  0.1415 -0.7573 -0.3831
  438MOL0     N59046   6.492   2.609   3.401  0.3400 -0.4560  0.3812
  438MOL0     C59047   5.513   2.618   3.488  0.7371 -0.3976 -0.0223
  438MOL0     C59048   5.413   2.548   3.554 -0.4053  0.1500  1.1776
  438MOL0     C59049   5.112   2.433   3.906 -0.1474 -0.4145 -1.0939
  438MOL0     C59050   5.000   2.450   3.825 -0.2012  0.7412  0.1574
  438MOL0     C59051   4.880   2.404   3.861 -0.1302 -0.0564  0.5286
  438MOL0     C59052   4.856   2.339   3.979  0.0383  0.4128  0.1555
  438MOL0     O59053   4.728   2.292   4.017  0.0642 -0.0052 -0.1243
  438MOL0     C59054   4.656   2.390   4.109 -0.5309 -0.3507 -0.1990
  438MOL0     C59055   4.545   2.460   4.023 -0.0757 -0.1521  0.4798
  438MOL0     C59056   4.446   2.535   4.113 -0.2048 -0.0006  0.3851
  438MOL0     C59057   4.298   2.485   4.111 -0.8123  0.3000  0.3161
  438MOL0     C59058   4.289   2.336   4.139 -0.6258 -0.4947 -0.6051
  438MOL0     C59059   4.289   2.225   4.179  0.4913  0.2162 -0.3566
  438MOL0     C59060   4.964   2.324   4.061  0.7486  0.5391 -0.9062
  438MOL0     C59061   5.094   2.363   4.031 -0.1061  0.4676  0.4105
  438MOL0     C59062   5.211   2.331   4.125  0.4350  0.1471 -0.3631
  438MOL0     H59063   5.340   2.748   3.815  0.2496 -0.8681 -0.2520
  438MOL0     H59064   5.536   2.876   3.708 -0.0311 -0.0830 -0.4411
  438MOL0     H59065   5.879   2.866   3.531  1.5142 -0.7563  1.8115
  438MOL0     H59066   5.786   2.830   3.672  2.0163 -0.1434  0.7370
  438MOL0     H59067   5.794   2.597   3.631  0.7677 -0.7063  0.2184
  438MOL0     H59068   5.953   2.676   3.626 -0.3720  3.5432 -1.0133
  438MOL0     H59069   5.987   2.658   3.403  2.6596 -2.3001  0.4177
  438MOL0     H59070   5.820   2.596   3.371 -1.1013  2.0487  1.9386
  438MOL0     H59071   5.860   2.397   3.481 -2.3403  2.5388 -1.6894
  438MOL0     H59072   5.995   2.399   3.362  0.6518  0.1225  1.1818
  438MOL0     H59073   6.033   2.488   3.647 -1.3948  1.3869 -1.1345
  438MOL0     H59074   6.075   2.332   3.587 -2.3217 -0.1394 -0.2971
  438MOL0     H59075   6.249   2.425   3.432 -1.0606 -2.4174  0.7404
  438MOL0     H59076   6.201   2.591   3.485 -0.6200 -0.5890 -0.0624
  438MOL0     H59077   6.335   2.370   3.653 -1.2418 -0.3613  3.4701
  438MOL0     H59078   6.232   2.497   3.722 -1.5994  0.3592 -1.9818
  438MOL0     H59079   6.382   2.666   3.639 -0.7683  0.3768  2.8086
  438MOL0     H59080   6.490   2.538   3.717  2.7681  2.8126 -1.7870
  438MOL0     H59081   6.634   2.364   3.570  1.0414 -0.5051 -0.5439
  438MOL0     H59082   6.719   2.275   3.320  3.8485 -1.1024 -0.0193
  438MOL0     H59083   6.748   2.409   3.200 -1.8633  1.3476 -0.0519
  438MOL0     H59084   6.922   2.500   3.344 -1.0455  0.1216 -1.9432
  438MOL0     H59085   6.881   2.389   3.473  0.7108  2.5957  0.1806
  438MOL0     H59086   6.927   2.215   3.264 -1.9407  2.3349 -1.1015
  438MOL0     H59087   7.040   2.246   3.396  0.1149 -1.3539 -0.4258
  438MOL0     H59088   7.160   2.396   3.253  0.3741 -0.9468 -1.7713
  438MOL0     H59089   7.006   2.428   3.159 -5.1005 -1.0907  2.9084
  438MOL0     H59090   7.327   2.430   3.138 -2.3271  0.2454 -0.1103
  438MOL0     H59091   7.547   2.370   3.122 -2.3510  1.4678  2.4711
  438MOL0     H59092   7.956   2.078   3.145 -1.8617 -0.6435 -0.2220
  438MOL0     H59093   8.135   1.971   3.064 -0.1211 -0.1252 -1.1892
  438MOL0     H59094   8.361   1.967   2.901  1.5713 -1.2138 -0.7105
  438MOL0     H59095   8.254   1.819   2.905 -1.8853 -2.2258 -3.5774
  438MOL0     H59096   8.455   1.755   2.799  0.6641 -0.8176 -1.8311
  438MOL0     H59097   8.320   1.780   2.677 -0.2042  0.8178  0.8034
  438MOL0     H59098   8.431   1.987   2.600  0.1191 -1.7760 -1.9730
  438MOL0     H59099   8.523   1.995   2.748  1.5706 -0.7938 -1.6920
  438MOL0     H59100   8.566   1.761   2.546  1.6532 -0.1472 -0.6198
  438MOL0     H59101   8.676   1.812   2.664  0.3126 -1.8811 -0.6525
  438MOL0     H59102   8.720   2.026   2.554 -0.3727  0.5425 -0.3691
  438MOL0     H59103   8.607   1.986   2.425 -0.0838  1.7523  1.4621
  438MOL0     H59104   8.853   1.813   2.487  0.6031 -0.2671 -1.2502
  438MOL0     H59105   8.724   1.777   2.378  1.0587 -0.6646 -0.2846
  438MOL0     H59106   8.954   1.882   2.290 -0.1495 -2.8078  0.9917
  438MOL0     H59107   8.878   2.030   2.339 -0.8672 -0.1818  0.7898
  438MOL0     H59108   8.758   1.826   2.152 -0.6037  0.1705 -0.5400
  438MOL0     H59109   8.680   1.977   2.212  1.9026  0.8157  5.9179
  438MOL0     H59110   8.032   2.084   2.661 -2.7809 -3.7080 -0.8966
  438MOL0     H59111   7.831   2.215   2.761 -0.4959 -0.0411  0.6688
  438MOL0     H59112   7.416   1.975   2.950  0.2625  0.0647 -0.0405
  438MOL0     H59113   7.195   2.060   2.988 -1.9323  4.1123 -2.9939
  438MOL0     H59114   5.553   2.601   3.389  1.3260  0.0012  0.1472
  438MOL0     H59115   5.377   2.462   3.498  1.1585  0.6175 -0.6477
  438MOL0     H59116   4.997   2.492   3.725  1.5516  0.6126  0.0239
  438MOL0     H59117   4.797   2.408   3.792 -0.0184  0.1262  0.4054
  438MOL0     H59118   4.713   2.467   4.162 -3.3781  1.8337 -0.0525
  438MOL0     H59119   4.601   2.341   4.190  0.7460  0.1176  0.9873
  438MOL0     H59120   4.494   2.396   3.950 -0.1888  1.1005 -0.5655
  438MOL0     H59121   4.587   2.544   3.967 -0.4587 -0.7014 -0.6497
  438MOL0     H59122   4.454   2.638   4.075  2.2354 -0.3516 -0.2012
  438MOL0     H59123   4.475   2.538   4.218  0.1020  0.4938  0.2937
  438MOL0     H59124   4.238   2.537   4.186  0.0073 -1.1641  2.0470
  438MOL0     H59125   4.258   2.513   4.013 -1.2105  0.1784  0.4450
  438MOL0     H59126   4.269   2.121   4.195 -0.4643  0.5585  0.7509
  438MOL0     H59127   4.954   2.257   4.145  1.3564  0.5006 -0.8590
  438MOL0     H59128   5.274   2.415   4.153 -1.1222  0.8066  1.4223
  438MOL0     H59129   5.176   2.285   4.218  1.8844 -0.7836 -0.2610
  438MOL0     H59130   5.289   2.267   4.083  0.3000  0.6816 -1.4629
  439MOL0     O59131  10.641   8.323   4.185  0.5050 -0.1451 -0.4193
  439MOL0     C59132  10.603   8.220   4.140 -0.0180  0.3245  0.2429
  439MOL0     O59133  10.677   8.131   4.051  0.4359 -1.0058 -0.8430
  439MOL0     C59134  10.809   8.122   4.073 -0.4999  0.0520  0.0666
  439MOL0     C59135  10.901   8.193   4.003  0.0719 -0.3983 -0.0225
  439MOL0     C59136  11.033   8.175   4.020 -0.5455 -0.3972  0.1588
  439MOL0     C59137  11.091   8.073   4.108  0.7239 -0.3428  0.6273
  439MOL0     O59138  11.224   8.048   4.104 -0.0793  0.2870  0.5289
  439MOL0     C59139  11.282   7.927   4.151 -0.3336 -0.5269  0.4411
  439MOL0     C59140  11.432   7.920   4.131  0.3815  0.2228  0.1185
  439MOL0     C59141  11.497   8.051   4.160  0.0758  1.3266  0.5920
  439MOL0     C59142  11.650   8.048   4.128 -0.3512 -0.4552  0.0613
  439MOL0     C59143  11.730   8.182   4.127  0.3618  0.3229 -0.4013
  439MOL0     C59144  11.874   8.148   4.103  0.5215  0.1979 -0.0348
  439MOL0     C59145  11.953   8.275   4.093  0.1024  0.1652  0.5571
  439MOL0     C59146  11.979   8.319   4.233 -0.3013 -0.7840 -0.2193
  439MOL0     N59147  12.096   8.403   4.232 -0.7846 -0.5140  0.8879
  439MOL0     C59148  12.092   8.537   4.203 -0.4886 -0.1777 -0.4967
  439MOL0     C59149  12.220   8.577   4.228  0.6098 -0.3006  0.2424
  439MOL0     C59150  12.275   8.717   4.230  0.3703 -0.2132 -0.3745
  439MOL0     C59151  12.339   8.744   4.096 -0.3021 -0.1556  0.2337
  439MOL0     C59152  12.243   8.758   3.973 -0.0894 -0.7848 -0.0795
  439MOL0     C59153  12.128   8.856   3.999  0.3998 -0.9856  0.2862
  439MOL0     O59154  12.177   8.978   4.057 -0.8564 -0.3585 -0.9024
  439MOL0     C59155  12.231   9.079   3.980 -0.2418 -0.0440 -0.4141
  439MOL0     C59156  12.253   9.199   4.037  0.6289 -0.3508 -0.4172
  439MOL0     C59157  12.293   9.311   3.957  0.3581 -0.0758  0.5833
  439MOL0     C59158  12.313   9.302   3.818 -0.5368 -0.2947 -0.2695
  439MOL0     C59159  12.379   9.413   3.743  0.5177 -0.8677 -0.2804
  439MOL0     O59160  12.439   9.516   3.824 -0.6868  0.5719 -0.3228
  439MOL0     C59161  12.528   9.613   3.759  0.7912  0.1719  0.4991
  439MOL0     C59162  12.605   9.587   3.647  0.2221  0.1488  0.0977
  439MOL0     C59163  12.695   9.688   3.594  0.7728 -0.6050  0.4806
  439MOL0     C59164  12.714   9.812   3.663 -0.1033  0.1559  0.3400
  439MOL0     O59165  12.803   9.905   3.627 -1.4680  0.0241 -0.1177
  439MOL0     C59166  12.926   9.845   3.581  0.3247 -0.7075  0.9222
  439MOL0     C59167  13.042   9.951   3.578  0.4694 -0.2484  0.1616
  439MOL0     C59168  13.088  10.018   3.439 -0.0359  0.2682 -0.9870
  439MOL0     C59169  13.128  10.172   3.459 -0.5416  0.2793 -0.1962
  439MOL0     C59170  13.242  10.205   3.362  0.2640 -0.4969 -0.0941
  439MOL0     C59171  13.304  10.346   3.391 -0.1154  0.2697 -0.5389
  439MOL0     C59172  13.442  10.362   3.314  0.2077  0.8282 -0.5218
  439MOL0     C59173  13.506  10.498   3.348 -0.2206  0.8238  1.2992
  439MOL0    Cl59174  13.509  10.527   3.517  0.1441  0.6560  0.2112
  439MOL0     C59175  12.639   9.834   3.775  0.3234  0.8007 -0.1268
  439MOL0     C59176  12.543   9.737   3.821 -0.3641  0.1878 -0.0885
  439MOL0     O59177  12.365   9.419   3.620 -0.6306  0.3719  0.2274
  439MOL0     C59178  12.279   9.176   3.763 -0.3378 -0.3798  0.7661
  439MOL0     C59179  12.251   9.071   3.844 -0.9184  1.1033 -0.3148
  439MOL0     N59180  12.295   8.459   4.255 -0.2978  0.7093  0.0189
  439MOL0     N59181  12.219   8.353   4.269  0.4136 -0.3623 -0.0173
  439MOL0     C59182  10.988   7.993   4.164 -0.1149  0.4880 -0.0992
  439MOL0     C59183  10.854   8.012   4.144 -1.2651 -0.0559 -0.2353
  439MOL0     C59184  10.465   8.168   4.182 -0.1916 -0.6508  0.3347
  439MOL0     C59185  10.396   8.086   4.085 -0.0840  0.1599  0.0818
  439MOL0     C59186  10.284   8.014   4.128 -0.2417  0.3908  0.0102
  439MOL0     C59187  10.245   7.998   4.257  0.2177  0.0140  0.6695
  439MOL0     O59188  10.135   7.919   4.297 -0.2216 -0.3697 -0.6772
  439MOL0     C59189  10.100   7.809   4.219  0.2395 -0.0380 -0.4270
  439MOL0     C59190   9.981   7.733   4.281 -0.3749 -0.1672  0.6145
  439MOL0     C59191   9.883   7.824   4.343  0.7815 -0.0378 -0.1820
  439MOL0     C59192   9.778   7.742   4.430 -0.3344 -0.0392  0.2471
  439MOL0     C59193   9.668   7.826   4.486  0.2309 -0.1105  0.0877
  439MOL0     C59194   9.578   7.900   4.525  0.7992  0.1800 -0.9188
  439MOL0     C59195  10.309   8.077   4.355 -0.4928 -0.4527  0.5676
  439MOL0     C59196  10.417   8.168   4.313  0.2766  0.9873  0.0585
  439MOL0     C59197  10.450   8.265   4.419 -0.1313 -0.0098 -0.8859
  439MOL0     H59198  10.868   8.265   3.928 -0.2060  1.4160  1.7506
  439MOL0     H59199  11.100   8.231   3.956 -1.5914 -0.9991 -1.5168
  439MOL0     H59200  11.252   7.925   4.256 -1.0588  2.5675  0.4034
  439MOL0     H59201  11.240   7.837   4.105  0.7376 -0.0046 -1.6988
  439MOL0     H59202  11.448   7.892   4.026 -0.3033  0.4041 -0.0365
  439MOL0     H59203  11.474   7.839   4.191  0.1283 -0.9635 -1.2346
  439MOL0     H59204  11.477   8.094   4.258 -0.1410  3.7420 -0.4282
  439MOL0     H59205  11.456   8.118   4.083  1.6085  1.9087  0.2363
  439MOL0     H59206  11.692   7.980   4.203 -0.9076  0.2782  1.0493
  439MOL0     H59207  11.659   8.013   4.024  1.0849 -0.6582  0.2300
  439MOL0     H59208  11.692   8.246   4.047  0.5878 -0.2103 -0.9407
  439MOL0     H59209  11.705   8.230   4.223  2.5381 -0.9709  0.8990
  439MOL0     H59210  11.917   8.083   4.179  2.7472  1.2786 -0.2536
  439MOL0     H59211  11.876   8.094   4.008 -2.1563  3.2155 -2.0316
  439MOL0     H59212  11.906   8.346   4.024  2.1184  1.1308  0.1018
  439MOL0     H59213  12.051   8.258   4.046  1.1199  1.1361  2.2168
  439MOL0     H59214  11.899   8.388   4.260  1.1846  0.9424 -0.0047
  439MOL0     H59215  11.995   8.239   4.305 -0.4890 -0.9293 -0.3378
  439MOL0     H59216  12.000   8.587   4.175 -0.5678  0.5781  0.9939
  439MOL0     H59217  12.202   8.796   4.248  2.4711  1.9052 -0.5779
  439MOL0     H59218  12.354   8.708   4.306 -0.8295 -4.6442  0.6556
  439MOL0     H59219  12.407   8.828   4.106  0.5586 -0.5708 -1.6762
  439MOL0     H59220  12.418   8.672   4.072 -0.1484 -0.6983  2.1764
  439MOL0     H59221  12.201   8.657   3.962 -1.1530 -0.3621 -0.0377
  439MOL0     H59222  12.288   8.781   3.876 -0.8481  0.9709 -0.0444
  439MOL0     H59223  12.054   8.815   4.068 -0.0006  0.4547  0.7472
  439MOL0     H59224  12.071   8.876   3.908 -1.6310  0.2432  1.7546
  439MOL0     H59225  12.258   9.203   4.145  1.0965  0.0823 -0.4531
  439MOL0     H59226  12.321   9.400   4.014 -1.5386  1.0061 -0.0790
  439MOL0     H59227  12.600   9.502   3.580  2.5402 -0.5740  0.7618
  439MOL0     H59228  12.736   9.673   3.495 -1.9523  3.1538 -1.4661
  439MOL0     H59229  12.949   9.765   3.652  0.0871 -0.2400  1.5361
  439MOL0     H59230  12.908   9.808   3.480  2.2520 -0.7706  0.5556
  439MOL0     H59231  13.003  10.039   3.630 -2.5319 -1.1520 -0.3768
  439MOL0     H59232  13.128   9.911   3.633  0.9773 -2.0566 -1.8156
  439MOL0     H59233  13.167   9.966   3.383 -1.7477 -0.1615 -3.1449
  439MOL0     H59234  13.000  10.010   3.375 -0.1611 -0.5138 -0.7223
  439MOL0     H59235  13.170  10.183   3.559 -0.4082  2.1746 -0.4345
  439MOL0     H59236  13.046  10.243   3.444 -1.2226 -0.6146 -0.8134
  439MOL0     H59237  13.203  10.193   3.261 -0.5204  3.4928 -0.4447
  439MOL0     H59238  13.320  10.129   3.376 -2.3053 -3.2639  0.0842
  439MOL0     H59239  13.227  10.420   3.367  0.9126  0.8782 -2.1413
  439MOL0     H59240  13.329  10.365   3.496 -0.3509  1.6205 -0.7151
  439MOL0     H59241  13.416  10.348   3.209 -1.7770 -0.5421  0.0896
  439MOL0     H59242  13.509  10.278   3.335  2.1056  2.5819  0.8524
  439MOL0     H59243  13.608  10.482   3.311 -0.9035 -1.4823  0.2237
  439MOL0     H59244  13.462  10.579   3.289  1.3039  0.6640 -0.1666
  439MOL0     H59245  12.634   9.932   3.821  1.1681  0.1214  1.4920
  439MOL0     H59246  12.458   9.764   3.884 -0.4148 -0.2951  0.0527
  439MOL0     H59247  12.282   9.161   3.656  0.6751 -1.2020  0.8865
  439MOL0     H59248  12.226   8.975   3.800  1.0403 -0.8329  2.4709
  439MOL0     H59249  11.002   7.915   4.238  0.2169  2.0528  1.5590
  439MOL0     H59250  10.784   7.942   4.188 -0.4099  0.1112  1.4724
  439MOL0     H59251  10.439   8.078   3.985  2.5751  2.3856  0.9065
  439MOL0     H59252  10.238   7.965   4.043 -1.5706  3.2339 -1.0427
  439MOL0     H59253  10.183   7.738   4.211  0.0517 -0.3360  0.1855
  439MOL0     H59254  10.058   7.847   4.125 -2.9469  1.2635  1.3857
  439MOL0     H59255  10.030   7.659   4.344 -0.1674  1.2799  2.2140
  439MOL0     H59256   9.921   7.680   4.206 -0.5620 -0.7544  1.1711
  439MOL0     H59257   9.828   7.891   4.276 -0.2245  1.1614  1.7401
  439MOL0     H59258   9.940   7.895   4.403  1.3702  0.0271 -0.8032
  439MOL0     H59259   9.727   7.672   4.363  0.5392 -1.6636  1.2240
  439MOL0     H59260   9.822   7.677   4.507 -0.5777  1.0885  1.3676
  439MOL0     H59261   9.502   7.969   4.554  3.0711  2.2554  0.4957
  439MOL0     H59262  10.274   8.073   4.457 -0.0243 -1.1771  0.7029
  439MOL0     H59263  10.389   8.355   4.403  1.0097  0.6577 -1.6320
  439MOL0     H59264  10.415   8.225   4.514 -2.2855  1.1454 -1.1235
  439MOL0     H59265  10.556   8.289   4.431 -0.5581  0.4216  3.8084
  440MOL0     O59266   5.114   6.808   0.180 -0.0216 -0.1096  0.4732
  440MOL0     C59267   5.083   6.765   0.065 -0.2802  0.2870 -0.6704
  440MOL0     O59268   5.167   6.711  -0.017  0.1346 -0.1532  0.3038
  440MOL0     C59269   5.298   6.720   0.027  0.3208 -0.0130  0.1949
  440MOL0     C59270   5.356   6.636   0.118 -0.3047  0.1576  0.6128
  440MOL0     C59271   5.498   6.634   0.136  0.8109 -0.1810 -0.7611
  440MOL0     C59272   5.578   6.723   0.064  0.6179 -0.0385  0.3651
  440MOL0     O59273   5.714   6.713   0.067  0.7295 -0.7074 -0.7337
  440MOL0     C59274   5.795   6.809  -0.001 -0.6891 -0.1115 -0.2228
  440MOL0     C59275   5.935   6.755  -0.003  0.0930 -0.1221  0.1259
  440MOL0     C59276   6.038   6.820  -0.107  0.8099 -0.5857  1.0406
  440MOL0     C59277   6.086   6.951  -0.055  0.4474 -0.8724 -0.5841
  440MOL0     C59278   6.166   7.042  -0.149 -0.2822 -0.1509  0.3259
  440MOL0     C59279   6.320   7.003  -0.163  0.4885 -0.1638 -0.0205
  440MOL0     C59280   6.395   7.078  -0.271 -0.5711 -0.1001 -0.0046
  440MOL0     C59281   6.546   7.052  -0.262  0.7511 -0.7010 -0.8351
  440MOL0     N59282   6.609   7.142  -0.366  0.2463  0.3489  0.5715
  440MOL0     C59283   6.718   7.222  -0.340 -0.1479 -0.5592  0.2830
  440MOL0     C59284   6.745   7.277  -0.464 -0.3497  0.0615 -0.4058
  440MOL0     C59285   6.858   7.364  -0.484 -0.1386  0.4130  0.2151
  440MOL0     C59286   6.980   7.282  -0.514 -0.0631 -0.4528 -0.1713
  440MOL0     C59287   7.091   7.376  -0.554  0.1245  0.2103  0.9130
  440MOL0     C59288   7.145   7.484  -0.461  0.0044  0.2906 -0.2054
  440MOL0     O59289   7.236   7.432  -0.354  0.7261 -0.8125  0.1266
  440MOL0     C59290   7.370   7.400  -0.387 -0.1949  0.7058 -0.1400
  440MOL0     C59291   7.441   7.416  -0.515  0.1004  0.5876  0.1976
  440MOL0     C59292   7.571   7.372  -0.526 -0.0873 -0.1925 -0.6474
  440MOL0     C59293   7.643   7.326  -0.406  0.0806  0.3842  0.2125
  440MOL0     C59294   7.783   7.279  -0.417  0.1750  0.7449 -0.1850
  440MOL0     O59295   7.845   7.229  -0.303  0.2145  0.7007 -0.6710
  440MOL0     C59296   7.986   7.222  -0.311 -0.3811 -0.2367 -0.2182
  440MOL0     C59297   8.048   7.104  -0.297  0.0023 -0.3400 -0.6011
  440MOL0     C59298   8.190   7.094  -0.296  0.5806  0.3860  0.9510
  440MOL0     C59299   8.268   7.211  -0.281  0.1602  0.2309 -0.3051
  440MOL0     O59300   8.408   7.202  -0.274  0.1284 -0.1438 -0.1602
  440MOL0     C59301   8.488   7.318  -0.313  0.2085  1.2727 -0.1352
  440MOL0     C59302   8.631   7.309  -0.257 -0.4002  0.5579 -0.4261
  440MOL0     C59303   8.719   7.247  -0.368  0.2970  0.3531  0.4838
  440MOL0     C59304   8.858   7.211  -0.312 -0.6368 -0.4195 -0.5653
  440MOL0     C59305   8.943   7.339  -0.291  0.4714 -0.3079 -0.4865
  440MOL0     C59306   9.057   7.307  -0.193 -0.1269  0.5993 -0.0956
  440MOL0     C59307   9.155   7.427  -0.185  0.0850 -0.2374 -0.0707
  440MOL0     C59308   9.277   7.389  -0.114 -0.8482  0.0538 -0.4013
  440MOL0    Cl59309   9.420   7.493  -0.161  0.4675  0.3235 -0.2472
  440MOL0     C59310   8.202   7.332  -0.305  0.2160  0.2317 -0.4028
  440MOL0     C59311   8.064   7.336  -0.313 -0.2642 -0.2151  0.1135
  440MOL0     O59312   7.835   7.290  -0.530 -0.1478 -0.2912 -0.6058
  440MOL0     C59313   7.572   7.314  -0.287 -0.2908 -0.3492 -0.7557
  440MOL0     C59314   7.439   7.359  -0.276  0.8783  0.6480 -0.3901
  440MOL0     N59315   6.643   7.240  -0.549  0.3058  0.2055 -0.1496
  440MOL0     N59316   6.561   7.161  -0.492 -0.5100 -0.0890 -0.2365
  440MOL0     C59317   5.511   6.814  -0.021  0.8176  0.4146  0.1151
  440MOL0     C59318   5.370   6.811  -0.037 -0.7987 -0.3606  0.4114
  440MOL0     C59319   4.958   6.803   0.014 -0.5301 -0.1970  0.5170
  440MOL0     C59320   4.942   6.836  -0.121  0.3923 -0.4965 -0.0902
  440MOL0     C59321   4.818   6.888  -0.167  0.1051 -0.7919 -0.1029
  440MOL0     C59322   4.707   6.887  -0.083 -0.1830 -0.6925  0.3383
  440MOL0     O59323   4.587   6.927  -0.141 -0.1970 -0.5155  0.1879
  440MOL0     C59324   4.514   6.828  -0.202 -0.2110  0.0136  0.3359
  440MOL0     C59325   4.460   6.887  -0.338 -1.0112 -0.6997  0.0216
  440MOL0     C59326   4.572   6.947  -0.429 -0.3226  0.6721  0.5609
  440MOL0     C59327   4.520   7.046  -0.536  0.9135 -0.6484 -0.2145
  440MOL0     C59328   4.622   7.090  -0.630  0.1159  0.5985  0.2581
  440MOL0     C59329   4.709   7.123  -0.706 -0.3604 -0.1173 -0.3914
  440MOL0     C59330   4.716   6.833   0.044  1.1628  0.3094 -0.8208
  440MOL0     C59331   4.842   6.790   0.096 -0.1079 -0.3635  0.6509
  440MOL0     C59332   4.831   6.717   0.225 -0.8438 -0.0815 -0.5822
  440MOL0     H59333   5.288   6.567   0.166 -0.3369  1.9453  3.3036
  440MOL0     H59334   5.541   6.562   0.206 -0.3201 -0.3185 -0.1824
  440MOL0     H59335   5.761   6.828  -0.103  0.1113 -0.9408 -0.6672
  440MOL0     H59336   5.784   6.908   0.045 -0.6182  0.3342 -1.1291
  440MOL0     H59337   5.931   6.651  -0.037  0.3481  0.3538 -1.4220
  440MOL0     H59338   5.973   6.762   0.100 -0.0190 -0.7446  0.2130
  440MOL0     H59339   5.980   6.834  -0.200  1.2228 -0.8936  0.7327
  440MOL0     H59340   6.121   6.753  -0.133  1.6645  0.0346  2.1189
  440MOL0     H59341   5.996   7.010  -0.036  2.0484  1.7785 -0.7160
  440MOL0     H59342   6.147   6.934   0.034  0.8456 -0.3080 -0.7389
  440MOL0     H59343   6.124   7.036  -0.250 -1.3656 -3.4307  0.8451
  440MOL0     H59344   6.165   7.148  -0.122  1.5902  0.4964 -1.8106
  440MOL0     H59345   6.370   7.031  -0.070 -1.7578  0.4640  1.0611
  440MOL0     H59346   6.331   6.895  -0.173  5.0735  0.1343 -0.2822
  440MOL0     H59347   6.392   7.186  -0.253  1.6729  0.4387 -2.2718
  440MOL0     H59348   6.365   7.055  -0.374 -2.0166  0.6723  0.2172
  440MOL0     H59349   6.577   7.067  -0.158 -1.5025  0.9201 -0.3171
  440MOL0     H59350   6.569   6.949  -0.292 -1.3304 -0.7959 -2.3441
  440MOL0     H59351   6.774   7.228  -0.248  1.0246 -0.3818 -0.4259
  440MOL0     H59352   6.842   7.420  -0.576 -1.1740 -1.4212 -0.7733
  440MOL0     H59353   6.869   7.434  -0.401 -0.9055  0.4102  0.3224
  440MOL0     H59354   7.006   7.211  -0.435 -2.0721 -2.7389 -1.4537
  440MOL0     H59355   6.955   7.219  -0.600 -1.4202  0.0014 -0.1337
  440MOL0     H59356   7.072   7.428  -0.649  5.2048 -1.5239 -1.4552
  440MOL0     H59357   7.169   7.303  -0.581  0.3344  0.1796  1.5946
  440MOL0     H59358   7.066   7.537  -0.406 -0.7325  0.2186 -1.1557
  440MOL0     H59359   7.194   7.556  -0.526  0.0494 -0.5336 -1.1127
  440MOL0     H59360   7.392   7.457  -0.602  1.1192 -1.2667 -1.3413
  440MOL0     H59361   7.623   7.371  -0.621  1.8945 -1.5992  0.3845
  440MOL0     H59362   7.988   7.013  -0.300 -0.9282  0.2433 -0.1753
  440MOL0     H59363   8.241   6.998  -0.299  0.3836  0.2941  0.3360
  440MOL0     H59364   8.491   7.325  -0.422 -2.0355 -0.0344 -0.3542
  440MOL0     H59365   8.444   7.403  -0.259 -1.6113  0.3627 -0.0942
  440MOL0     H59366   8.669   7.405  -0.221  1.0511 -0.1989  0.1235
  440MOL0     H59367   8.635   7.242  -0.170 -1.7052  0.6588 -0.2620
  440MOL0     H59368   8.681   7.161  -0.423  1.8951  0.4656 -0.8782
  440MOL0     H59369   8.734   7.330  -0.437  2.1633  0.7202  1.2572
  440MOL0     H59370   8.908   7.142  -0.381 -1.8293  0.2836 -2.1956
  440MOL0     H59371   8.838   7.169  -0.213 -0.7730 -0.2376 -0.5183
  440MOL0     H59372   8.885   7.423  -0.252 -0.0182 -1.5568  1.5724
  440MOL0     H59373   8.980   7.368  -0.390 -1.0101 -1.1371 -1.3173
  440MOL0     H59374   9.014   7.304  -0.093 -0.9587 -0.0973 -0.4605
  440MOL0     H59375   9.103   7.209  -0.206 -0.8051  0.1512  0.8229
  440MOL0     H59376   9.106   7.512  -0.136  0.1828  1.0029 -2.0529
  440MOL0     H59377   9.196   7.469  -0.277 -0.0618  0.6768  0.2702
  440MOL0     H59378   9.269   7.385  -0.005  1.1227 -0.7693 -0.2414
  440MOL0     H59379   9.297   7.286  -0.145  0.5358  0.3044 -0.4159
  440MOL0     H59380   8.262   7.423  -0.302  2.4981 -1.2082  0.2674
  440MOL0     H59381   8.010   7.430  -0.308 -1.7335 -1.0654  0.9044
  440MOL0     H59382   7.619   7.276  -0.197  2.8799 -0.1297 -2.2010
  440MOL0     H59383   7.391   7.340  -0.180 -1.0722  0.5931 -1.3270
  440MOL0     H59384   5.559   6.900  -0.068 -2.9506  2.5884 -0.1743
  440MOL0     H59385   5.313   6.877  -0.101 -2.0126 -1.6875  0.0715
  440MOL0     H59386   5.016   6.834  -0.200  0.0594  0.8822 -0.4718
  440MOL0     H59387   4.810   6.924  -0.269 -1.8442  3.2417  1.2235
  440MOL0     H59388   4.433   6.794  -0.137  1.4342 -1.5233  1.6927
  440MOL0     H59389   4.563   6.734  -0.229 -1.2182 -0.2131 -0.8063
  440MOL0     H59390   4.385   6.966  -0.329  0.5355  1.0497 -1.4195
  440MOL0     H59391   4.412   6.802  -0.389  0.6944 -1.0941 -1.0240
  440MOL0     H59392   4.635   6.868  -0.471 -0.0847  0.2474  1.6700
  440MOL0     H59393   4.640   6.999  -0.362  4.5200 -2.9619 -0.9422
  440MOL0     H59394   4.434   6.995  -0.579  0.7904 -1.7107  1.2151
  440MOL0     H59395   4.481   7.140  -0.496 -3.7978 -1.8911 -1.2339
  440MOL0     H59396   4.787   7.160  -0.769 -0.8977 -1.4763 -1.9110
  440MOL0     H59397   4.628   6.826   0.107 -0.3277 -0.0978 -2.8556
  440MOL0     H59398   4.867   6.786   0.302 -1.6424 -0.1457 -0.1339
  440MOL0     H59399   4.728   6.687   0.244 -1.2235  1.5010  0.0293
  440MOL0     H59400   4.889   6.626   0.241  1.4347  1.1055 -1.6407
  441MOL0     O59401   6.933   0.535   8.558  0.5597  0.8620  0.5300
  441MOL0     C59402   6.924   0.644   8.507 -0.3136 -0.1483 -0.0199
  441MOL0     O59403   7.013   0.701   8.427  0.0857 -0.3039  0.0792
  441MOL0     C59404   7.116   0.612   8.392  0.1335 -0.1329  0.3973
  441MOL0     C59405   7.102   0.524   8.288  0.0268  0.6925  0.1594
  441MOL0     C59406   7.202   0.430   8.256 -0.0013  0.1583  0.8818
  441MOL0     C59407   7.318   0.430   8.334 -0.0736  0.2182  0.2589
  441MOL0     O59408   7.416   0.332   8.306  0.2789  0.0218  0.3552
  441MOL0     C59409   7.367   0.199   8.326  0.1101  0.1760  0.2668
  441MOL0     C59410   7.468   0.086   8.299  0.8488 -0.9372  0.0440
  441MOL0     C59411   7.433  -0.056   8.347  0.2591  0.0798 -0.5646
  441MOL0     C59412   7.337  -0.123   8.243 -0.0156 -0.7875  0.2585
  441MOL0     C59413   7.286  -0.264   8.286  1.4846 -0.1210  0.5848
  441MOL0     C59414   7.402  -0.371   8.317  0.0886  0.2852  0.9641
  441MOL0     C59415   7.507  -0.391   8.189  0.0653  0.5409 -0.4220
  441MOL0     C59416   7.620  -0.490   8.226 -0.9913 -0.0962 -0.2653
  441MOL0     N59417   7.707  -0.511   8.106  0.5219  0.5746 -0.9238
  441MOL0     C59418   7.795  -0.420   8.052 -0.2770 -0.3384 -0.0325
  441MOL0     C59419   7.837  -0.488   7.941 -0.5043 -0.3941  1.1882
  441MOL0     C59420   7.934  -0.448   7.830 -0.5474 -0.3512  0.4318
  441MOL0     C59421   8.071  -0.390   7.890  0.9645 -0.4301 -0.0301
  441MOL0     C59422   8.159  -0.322   7.784  0.9135  0.7269  0.5365
  441MOL0     C59423   8.277  -0.264   7.853 -0.0489 -0.2747  0.7192
  441MOL0     O59424   8.358  -0.201   7.746  0.2485  0.2653 -0.0985
  441MOL0     C59425   8.476  -0.143   7.787  0.4931 -0.1975 -0.0514
  441MOL0     C59426   8.543  -0.161   7.916  0.0194  0.3485  0.5267
  441MOL0     C59427   8.648  -0.075   7.948 -0.4158 -0.2629  0.4317
  441MOL0     C59428   8.692   0.024   7.861  0.1651 -0.2117 -0.6158
  441MOL0     C59429   8.800   0.121   7.909 -0.3325  0.2447 -1.5669
  441MOL0     O59430   8.822   0.235   7.846  0.7216  0.3614 -0.1610
  441MOL0     C59431   8.910   0.340   7.881  0.1575 -0.2965  0.2428
  441MOL0     C59432   8.932   0.432   7.785 -0.2637  0.4946  0.6660
  441MOL0     C59433   9.021   0.537   7.807 -0.1659 -0.2633  0.0225
  441MOL0     C59434   9.093   0.553   7.930  0.6435 -0.1037  0.1870
  441MOL0     O59435   9.181   0.662   7.943 -0.0198 -0.2466  1.1505
  441MOL0     C59436   9.264   0.674   8.061 -0.2203 -0.0723 -0.1843
  441MOL0     C59437   9.371   0.776   8.027 -0.4745 -0.4755 -0.0537
  441MOL0     C59438   9.315   0.921   8.012  0.1403 -0.0440  0.4959
  441MOL0     C59439   9.411   1.006   7.927 -0.9750  0.8159 -0.3114
  441MOL0     C59440   9.542   1.039   7.997 -0.0306 -0.1891  0.1610
  441MOL0     C59441   9.652   1.095   7.907 -0.3729 -0.6349 -0.0930
  441MOL0     C59442   9.753   1.173   8.002  0.5102  0.3797  0.1522
  441MOL0     C59443   9.882   1.216   7.927  0.6039 -0.0840  0.0764
  441MOL0    Cl59444  10.011   1.094   7.928 -0.1143  0.1049  0.2147
  441MOL0     C59445   9.065   0.456   8.022 -0.4239 -0.0270 -0.4959
  441MOL0     C59446   8.969   0.360   8.002 -0.8005  1.1709  0.4435
  441MOL0     O59447   8.854   0.093   8.023 -0.2317  1.0165  0.1371
  441MOL0     C59448   8.628   0.042   7.744 -0.9407  0.1132  0.2808
  441MOL0     C59449   8.531  -0.047   7.692  0.6332  0.3276 -0.3784
  441MOL0     N59450   7.792  -0.622   7.939  0.0190  0.3573  0.1346
  441MOL0     N59451   7.712  -0.627   8.035 -0.2502  0.0980 -0.2926
  441MOL0     C59452   7.337   0.513   8.440  0.3231 -0.8598 -0.7882
  441MOL0     C59453   7.231   0.603   8.469  0.6605 -0.6986 -0.0611
  441MOL0     C59454   6.806   0.720   8.537 -0.4147  0.1843 -0.2913
  441MOL0     C59455   6.772   0.744   8.674 -0.8070  0.3840  0.6494
  441MOL0     C59456   6.661   0.821   8.705  0.0775 -0.4345 -0.9717
  441MOL0     C59457   6.585   0.882   8.603  0.0374 -0.2953  1.1184
  441MOL0     O59458   6.484   0.965   8.638 -0.0843  0.6286  0.2791
  441MOL0     C59459   6.498   1.052   8.750  1.6887  0.0970 -0.4070
  441MOL0     C59460   6.393   0.998   8.860 -1.1604  0.4920 -0.2054
  441MOL0     C59461   6.243   1.018   8.819 -0.1846  0.2079  0.2050
  441MOL0     C59462   6.200   1.158   8.859 -0.4900  0.1771 -0.4251
  441MOL0     C59463   6.073   1.185   8.801  0.9439 -0.0098 -1.0227
  441MOL0     C59464   5.980   1.256   8.754 -0.5812  0.6147 -0.1233
  441MOL0     C59465   6.623   0.856   8.476  0.1235  0.5309  0.7440
  441MOL0     C59466   6.729   0.779   8.436 -0.5914  0.3607  0.4716
  441MOL0     C59467   6.767   0.776   8.287 -0.1663 -0.3860 -0.0412
  441MOL0     H59468   7.013   0.520   8.225  0.3762 -3.1682 -0.3493
  441MOL0     H59469   7.189   0.363   8.172 -2.3924 -0.0367  1.3329
  441MOL0     H59470   7.339   0.196   8.432  1.4336  2.0812  0.7110
  441MOL0     H59471   7.285   0.172   8.258  0.9844 -4.1473  0.6294
  441MOL0     H59472   7.559   0.121   8.350  1.5206 -0.8820 -1.1437
  441MOL0     H59473   7.495   0.091   8.193  0.2845  0.3057 -0.0612
  441MOL0     H59474   7.385  -0.037   8.444  0.7925  0.5925 -0.3967
  441MOL0     H59475   7.525  -0.114   8.362  0.1191 -0.2535 -0.9803
  441MOL0     H59476   7.253  -0.055   8.226 -1.3741 -1.2981  4.0365
  441MOL0     H59477   7.391  -0.133   8.148 -2.6838  1.1615 -1.5932
  441MOL0     H59478   7.219  -0.255   8.372 -0.8243  1.3401 -1.2842
  441MOL0     H59479   7.225  -0.303   8.205  0.9977  1.8622 -0.0694
  441MOL0     H59480   7.462  -0.348   8.406 -0.5775 -2.6417  2.2814
  441MOL0     H59481   7.352  -0.467   8.331 -1.6109  0.4168 -2.8886
  441MOL0     H59482   7.552  -0.293   8.170  0.6038  0.2539 -0.6343
  441MOL0     H59483   7.450  -0.443   8.111  0.8832 -2.5532  0.9014
  441MOL0     H59484   7.672  -0.462   8.318 -0.3639 -0.1650 -0.6006
  441MOL0     H59485   7.572  -0.587   8.246  0.8398 -1.2247 -1.0620
  441MOL0     H59486   7.807  -0.314   8.075  0.1966 -0.6845  1.4389
  441MOL0     H59487   7.963  -0.528   7.761  1.3183  0.7675 -0.1782
  441MOL0     H59488   7.891  -0.387   7.750  0.8035 -0.1727 -0.2010
  441MOL0     H59489   8.053  -0.317   7.970  3.2122  1.1244 -0.8329
  441MOL0     H59490   8.129  -0.472   7.933 -0.4762 -1.8795 -0.7505
  441MOL0     H59491   8.108  -0.243   7.727 -1.9652 -2.4882 -1.7429
  441MOL0     H59492   8.186  -0.396   7.708 -1.7844 -1.2826  1.3918
  441MOL0     H59493   8.331  -0.343   7.906  1.0466  0.5211  0.8156
  441MOL0     H59494   8.247  -0.194   7.931  2.4141 -0.9901  2.4144
  441MOL0     H59495   8.513  -0.231   7.993 -1.3066 -0.5975 -0.8068
  441MOL0     H59496   8.699  -0.093   8.042  0.1677 -0.9102 -0.0024
  441MOL0     H59497   8.902   0.426   7.681  0.5979  1.9528  0.3057
  441MOL0     H59498   9.027   0.609   7.725 -2.7180  0.8559  0.7114
  441MOL0     H59499   9.212   0.698   8.154 -1.1951 -1.8589 -0.2229
  441MOL0     H59500   9.311   0.577   8.083 -1.0675 -0.9894 -2.1644
  441MOL0     H59501   9.434   0.782   8.116  0.5469  3.6390 -0.8218
  441MOL0     H59502   9.428   0.743   7.941  0.4992  0.5592  0.1751
  441MOL0     H59503   9.219   0.915   7.959 -0.2287 -1.8266  1.2958
  441MOL0     H59504   9.300   0.960   8.114 -2.8254 -0.5012  0.3265
  441MOL0     H59505   9.373   1.105   7.903  0.2040  2.0815  2.5430
  441MOL0     H59506   9.435   0.950   7.836  0.8662 -0.1045  0.6693
  441MOL0     H59507   9.575   0.950   8.051 -1.4227 -0.6653  0.2553
  441MOL0     H59508   9.512   1.118   8.066  0.1715  1.5977 -1.7080
  441MOL0     H59509   9.690   1.009   7.850 -1.2492  1.9047 -5.0251
  441MOL0     H59510   9.606   1.162   7.834 -0.3985 -0.2206  0.2979
  441MOL0     H59511   9.777   1.110   8.089  0.0620  2.7288  2.0801
  441MOL0     H59512   9.708   1.265   8.039  2.0171  1.8060 -1.4193
  441MOL0     H59513   9.862   1.253   7.826  3.1982 -2.3444 -1.4156
  441MOL0     H59514   9.917   1.300   7.987 -1.9880  0.0426  1.5482
  441MOL0     H59515   9.108   0.449   8.121 -3.4158 -1.3612  0.8437
  441MOL0     H59516   8.941   0.294   8.084  0.2333  0.2050  0.0410
  441MOL0     H59517   8.663   0.120   7.677  0.3700 -0.6339  0.0550
  441MOL0     H59518   8.478  -0.042   7.598  1.8118 -0.1830 -1.0915
  441MOL0     H59519   7.425   0.506   8.502 -0.7499 -3.6262  0.5717
  441MOL0     H59520   7.240   0.668   8.555  1.4917 -1.1325  0.1933
  441MOL0     H59521   6.829   0.708   8.759 -0.8835  0.2765  0.6556
  441MOL0     H59522   6.628   0.829   8.809  0.9838  0.2963 -0.7349
  441MOL0     H59523   6.469   1.155   8.728 -0.6989 -0.7781 -1.6801
  441MOL0     H59524   6.600   1.054   8.790  2.0651 -0.3663 -1.3173
  441MOL0     H59525   6.424   1.044   8.955  0.7366  1.6341 -1.3046
  441MOL0     H59526   6.411   0.891   8.872  1.3301  0.9762  1.0224
  441MOL0     H59527   6.185   0.940   8.868 -1.5669  0.8471 -0.3414
  441MOL0     H59528   6.239   1.006   8.710 -0.5060  0.7531  0.1517
  441MOL0     H59529   6.198   1.154   8.968  0.4711  1.1308 -0.3634
  441MOL0     H59530   6.266   1.240   8.830  0.2606  0.7314  2.5092
  441MOL0     H59531   5.911   1.314   8.696  0.4675  1.8999 -0.1296
  441MOL0     H59532   6.572   0.908   8.395  0.4204  0.6355  0.6226
  441MOL0     H59533   6.799   0.675   8.258 -1.6122 -0.8608 -0.0164
  441MOL0     H59534   6.682   0.801   8.224  1.0809  0.9073 -1.3047
  441MOL0     H59535   6.851   0.844   8.269 -0.4115  0.3534  1.4382
  442MOL0     O59536   2.455   0.839   0.309 -0.5313  1.0915 -0.7013
  442MOL0     C59537   2.410   0.861   0.429  0.3065  0.0593  0.7395
  442MOL0     O59538   2.485   0.851   0.536  0.2975  0.0943  0.3106
  442MOL0     C59539   2.616   0.889   0.531 -0.0989  0.4792 -0.0554
  442MOL0     C59540   2.713   0.819   0.599  0.4801  0.2873 -1.0657
  442MOL0     C59541   2.842   0.856   0.596 -0.5603 -0.5425  0.8729
  442MOL0     C59542   2.879   0.963   0.511 -0.3541 -0.1156 -0.0002
  442MOL0     O59543   3.010   0.997   0.507 -0.9613 -0.0587  0.1941
  442MOL0     C59544   3.079   0.957   0.387  0.5442  0.8760 -0.0029
  442MOL0     C59545   3.215   1.015   0.370 -0.4668 -0.6850  0.4962
  442MOL0     C59546   3.231   1.163   0.393  0.0889  0.4119  0.5804
  442MOL0     C59547   3.197   1.229   0.266  0.8113  0.3106  0.3563
  442MOL0     C59548   3.204   1.383   0.264 -0.0386 -0.3962  0.1806
  442MOL0     C59549   3.144   1.451   0.142  0.6447  1.1785  0.0908
  442MOL0     C59550   3.182   1.600   0.149 -0.3253 -0.4529  0.8092
  442MOL0     C59551   3.328   1.620   0.099  0.5719  0.1652  0.5932
  442MOL0     N59552   3.355   1.570  -0.033 -0.2235 -0.7913  0.9713
  442MOL0     C59553   3.421   1.457  -0.075  0.8357  0.9191 -0.8281
  442MOL0     C59554   3.425   1.464  -0.210  0.9096 -0.0734  0.3041
  442MOL0     C59555   3.461   1.344  -0.297 -0.4065  0.2524  0.8206
  442MOL0     C59556   3.445   1.379  -0.456  0.3031 -1.0066  0.4546
  442MOL0     C59557   3.542   1.283  -0.540  0.2959 -0.4526 -0.1942
  442MOL0     C59558   3.547   1.304  -0.693  0.0402 -0.3689 -1.0296
  442MOL0     O59559   3.611   1.194  -0.760  0.2420 -0.3702 -0.2714
  442MOL0     C59560   3.742   1.175  -0.721 -0.2278 -0.0165  1.0952
  442MOL0     C59561   3.775   1.053  -0.662  0.7423  0.3896  0.2658
  442MOL0     C59562   3.898   1.044  -0.609 -0.8708  0.2716  1.1966
  442MOL0     C59563   3.999   1.144  -0.626  0.2216  0.7371 -0.5302
  442MOL0     C59564   4.142   1.107  -0.590 -0.7219  0.5168 -0.1277
  442MOL0     O59565   4.182   0.979  -0.611 -0.2371 -0.2003  0.0377
  442MOL0     C59566   4.298   0.935  -0.560  0.0234  1.0605  0.9259
  442MOL0     C59567   4.381   0.864  -0.648 -0.4670 -0.4784  0.4019
  442MOL0     C59568   4.506   0.823  -0.595  0.4111  0.2265  0.5604
  442MOL0     C59569   4.544   0.849  -0.465  0.6099  1.1008  0.0670
  442MOL0     O59570   4.660   0.816  -0.404  0.3076 -0.5730  0.3667
  442MOL0     C59571   4.775   0.818  -0.493  1.0081  0.3802  0.2016
  442MOL0     C59572   4.901   0.874  -0.434  0.0808 -0.5459  0.1301
  442MOL0     C59573   4.873   1.004  -0.359 -0.2158  0.5684  0.3139
  442MOL0     C59574   5.003   1.086  -0.367 -0.2257  0.0275  1.2136
  442MOL0     C59575   4.993   1.227  -0.320 -0.1517 -0.0127 -0.3831
  442MOL0     C59576   4.979   1.254  -0.170  0.0099 -0.3241  0.6945
  442MOL0     C59577   4.860   1.355  -0.141  0.2476 -0.6507  0.2980
  442MOL0     C59578   4.881   1.491  -0.206 -0.5831  0.1970 -0.2473
  442MOL0    Cl59579   5.031   1.567  -0.146 -0.2267  0.0540  0.4756
  442MOL0     C59580   4.449   0.904  -0.380  0.3161 -0.3155  0.2695
  442MOL0     C59581   4.327   0.943  -0.430  0.1037  0.6273 -0.2825
  442MOL0     O59582   4.216   1.205  -0.561  0.2522 -0.0978 -0.5190
  442MOL0     C59583   3.967   1.255  -0.700 -0.8267 -0.5468  0.2910
  442MOL0     C59584   3.836   1.278  -0.741 -0.3292  0.0607 -0.1249
  442MOL0     N59585   3.379   1.586  -0.253 -0.1097  0.2408  0.6346
  442MOL0     N59586   3.316   1.632  -0.152 -0.0508 -0.1025  0.0820
  442MOL0     C59587   2.782   1.034   0.435 -0.2007  0.1111 -0.0055
  442MOL0     C59588   2.650   1.004   0.455  1.2871  0.7720  0.3162
  442MOL0     C59589   2.258   0.875   0.442 -0.7151 -0.4377 -0.8184
  442MOL0     C59590   2.202   1.007   0.457  0.1545 -0.4659 -0.3320
  442MOL0     C59591   2.063   1.022   0.475  0.3068 -0.2194  0.3672
  442MOL0     C59592   1.977   0.915   0.481 -0.4812 -1.3491 -0.0311
  442MOL0     O59593   1.840   0.931   0.508 -0.8187  0.6306  0.4006
  442MOL0     C59594   1.772   1.057   0.519 -0.0567  0.0900  0.4635
  442MOL0     C59595   1.782   1.103   0.670  0.7077 -0.0328  0.0916
  442MOL0     C59596   1.742   1.249   0.683  0.8917  0.4235  1.0825
  442MOL0     C59597   1.734   1.276   0.834  0.1149 -0.2197  0.0331
  442MOL0     C59598   1.650   1.394   0.863 -0.8125  0.5637  0.1558
  442MOL0     C59599   1.599   1.502   0.852  0.7695 -0.4153  0.5482
  442MOL0     C59600   2.030   0.791   0.463 -0.5281  0.6107  0.3259
  442MOL0     C59601   2.170   0.765   0.452  0.0973  0.4828  0.2628
  442MOL0     C59602   2.215   0.632   0.424  0.5972 -0.1014  0.2757
  442MOL0     H59603   2.694   0.729   0.658  1.2844  0.9161  0.1940
  442MOL0     H59604   2.923   0.800   0.643  0.7451  0.2691 -0.3087
  442MOL0     H59605   3.083   0.848   0.388  0.5060  0.8227 -1.7059
  442MOL0     H59606   3.014   0.982   0.303  0.6604  0.1320 -0.3218
  442MOL0     H59607   3.253   0.998   0.269  0.1920  1.5540  0.3170
  442MOL0     H59608   3.272   0.963   0.447  1.0738  0.4458  0.1525
  442MOL0     H59609   3.332   1.191   0.426  1.1077 -2.7858  0.4825
  442MOL0     H59610   3.169   1.193   0.478  0.6109  0.6368  0.8952
  442MOL0     H59611   3.246   1.184   0.179 -1.8997 -1.1465 -0.5325
  442MOL0     H59612   3.093   1.200   0.248  0.7166 -0.6860  2.2675
  442MOL0     H59613   3.154   1.415   0.356 -2.6077 -0.4241 -1.1373
  442MOL0     H59614   3.306   1.421   0.277  0.2516 -0.5470 -1.4734
  442MOL0     H59615   3.178   1.391   0.057 -0.2686 -0.6085  0.9228
  442MOL0     H59616   3.035   1.453   0.153  0.7767  0.7138  1.8406
  442MOL0     H59617   3.175   1.634   0.253  2.8565 -3.4369  2.2030
  442MOL0     H59618   3.104   1.653   0.093 -2.2083 -3.8949 -0.1175
  442MOL0     H59619   3.360   1.725   0.096 -2.8648  1.3478 -2.4116
  442MOL0     H59620   3.395   1.572   0.170 -2.1379 -1.8565  1.9374
  442MOL0     H59621   3.433   1.375  -0.005 -1.5610  2.5772  1.7461
  442MOL0     H59622   3.563   1.318  -0.267 -0.3627  1.8055  2.1469
  442MOL0     H59623   3.395   1.260  -0.271  1.8221 -0.8818  3.3027
  442MOL0     H59624   3.339   1.363  -0.479  0.4192  1.0045 -1.8759
  442MOL0     H59625   3.469   1.484  -0.470  0.2455 -0.8616  1.3931
  442MOL0     H59626   3.498   1.184  -0.530  0.8614 -0.5669  1.3800
  442MOL0     H59627   3.645   1.277  -0.505  0.8792 -3.0742 -2.0416
  442MOL0     H59628   3.596   1.399  -0.716  0.6219 -0.6407 -0.9143
  442MOL0     H59629   3.444   1.318  -0.728 -0.8737 -3.1080  0.3162
  442MOL0     H59630   3.702   0.973  -0.663 -1.4594  2.2439  2.1725
  442MOL0     H59631   3.926   0.947  -0.569 -2.0240  0.6531  3.0615
  442MOL0     H59632   4.360   0.852  -0.754 -0.8650  1.4474  0.2308
  442MOL0     H59633   4.559   0.758  -0.664  1.3167  1.0421  0.4533
  442MOL0     H59634   4.795   0.715  -0.522  2.7897  0.7276  0.0905
  442MOL0     H59635   4.756   0.878  -0.582 -0.7549 -0.3612  0.0475
  442MOL0     H59636   4.950   0.802  -0.368 -1.5220  0.5725  2.7025
  442MOL0     H59637   4.968   0.889  -0.520 -2.5813  0.2039 -1.9435
  442MOL0     H59638   4.790   1.055  -0.407  0.4206  2.6552  1.2814
  442MOL0     H59639   4.846   1.002  -0.253  3.0046  1.0530  1.2774
  442MOL0     H59640   5.027   1.097  -0.473  2.5164 -2.6752  1.4421
  442MOL0     H59641   5.082   1.031  -0.317  1.8673  2.7759  1.1645
  442MOL0     H59642   4.899   1.260  -0.366 -1.1456 -0.1848  1.4187
  442MOL0     H59643   5.063   1.297  -0.366 -1.4908  2.9618  1.8130
  442MOL0     H59644   4.968   1.160  -0.115  1.7701  1.0774  3.7046
  442MOL0     H59645   5.076   1.300  -0.148 -0.7521  1.6761  0.0854
  442MOL0     H59646   4.855   1.376  -0.033 -2.5892  0.9293 -0.0487
  442MOL0     H59647   4.766   1.319  -0.182 -0.2763 -0.8269  1.6138
  442MOL0     H59648   4.897   1.471  -0.312  0.1780  1.0472 -0.3097
  442MOL0     H59649   4.795   1.558  -0.201 -0.1976  0.7254 -0.5143
  442MOL0     H59650   4.476   0.898  -0.275  0.5500 -2.3836  0.1446
  442MOL0     H59651   4.262   0.999  -0.363 -0.0180 -0.0077  0.1447
  442MOL0     H59652   4.046   1.326  -0.721 -0.0010 -1.1203  1.3738
  442MOL0     H59653   3.802   1.364  -0.797 -2.2876  0.3333  1.3515
  442MOL0     H59654   2.814   1.127   0.390 -1.7937  1.0067  0.6744
  442MOL0     H59655   2.581   1.063   0.396  1.5244  1.2093  0.4661
  442MOL0     H59656   2.276   1.084   0.477  2.2550 -2.8241  1.9233
  442MOL0     H59657   2.024   1.121   0.497 -1.1556 -1.0855  1.8989
  442MOL0     H59658   1.667   1.038   0.495 -0.4936  0.0911  2.2365
  442MOL0     H59659   1.814   1.132   0.452  0.9876 -1.1464 -0.3095
  442MOL0     H59660   1.882   1.076   0.707  0.3651  1.8892  2.5904
  442MOL0     H59661   1.702   1.051   0.722 -1.1111  1.1737 -1.3829
  442MOL0     H59662   1.646   1.265   0.633  1.5160 -1.2948 -0.8012
  442MOL0     H59663   1.814   1.315   0.633  0.1507  0.9028  0.6395
  442MOL0     H59664   1.682   1.198   0.891 -0.7148 -0.0113 -0.4175
  442MOL0     H59665   1.836   1.301   0.865  0.0218 -1.2187  1.2695
  442MOL0     H59666   1.545   1.593   0.837 -0.0664 -0.9750  0.0256
  442MOL0     H59667   1.966   0.703   0.473  1.4689 -1.3338 -2.3709
  442MOL0     H59668   2.139   0.554   0.438 -1.0238  1.6903  2.2280
  442MOL0     H59669   2.252   0.624   0.322  1.3485 -3.4012  0.6681
  442MOL0     H59670   2.294   0.611   0.497  0.8391  0.6573  0.2405
  443MOL0     O59671   2.516   0.736   5.296  0.1023 -0.1645 -0.6460
  443MOL0     C59672   2.485   0.710   5.411  0.9252 -0.4502 -0.2629
  443MOL0     O59673   2.556   0.634   5.497  0.5079 -0.4086  0.3842
  443MOL0     C59674   2.668   0.563   5.470 -0.2189  0.0782 -0.3067
  443MOL0     C59675   2.676   0.486   5.360  0.3679 -0.0721 -0.4696
  443MOL0     C59676   2.788   0.395   5.346  0.0576 -0.8075 -0.6936
  443MOL0     C59677   2.893   0.390   5.428 -0.3008  0.2511 -0.4750
  443MOL0     O59678   3.007   0.316   5.416  0.4158  0.3014 -0.1626
  443MOL0     C59679   3.006   0.207   5.321 -0.0312 -0.0343  0.4358
  443MOL0     C59680   3.149   0.147   5.291 -0.6502 -1.0917  0.1357
  443MOL0     C59681   3.235   0.125   5.422  0.4583 -0.8448 -0.3273
  443MOL0     C59682   3.372   0.084   5.384 -0.4450  0.1188 -0.0178
  443MOL0     C59683   3.462   0.044   5.503 -1.0258  0.3515  1.1700
  443MOL0     C59684   3.602   0.042   5.449 -0.4741 -0.0791  0.0755
  443MOL0     C59685   3.691   0.015   5.558 -0.3072 -0.5852 -0.5376
  443MOL0     C59686   3.834  -0.010   5.509  0.9997 -0.5807  0.2616
  443MOL0     N59687   3.922  -0.031   5.622 -0.1956 -0.4921 -0.2841
  443MOL0     C59688   4.014   0.049   5.676 -0.9874 -0.2897  0.7243
  443MOL0     C59689   4.056  -0.013   5.791 -0.0682 -0.0719  0.8013
  443MOL0     C59690   4.166   0.041   5.881 -0.4005  0.3038 -0.1594
  443MOL0     C59691   4.302   0.044   5.814  0.1130  0.1230 -0.0044
  443MOL0     C59692   4.334  -0.081   5.730  0.4459  0.4354  1.0206
  443MOL0     C59693   4.458  -0.076   5.648 -0.1224  0.2268  0.4816
  443MOL0     O59694   4.569  -0.107   5.726  0.3524  0.5306  0.5359
  443MOL0     C59695   4.683  -0.109   5.644  0.5059  0.7883  0.8446
  443MOL0     C59696   4.704  -0.218   5.557  0.0573 -0.0208  0.8629
  443MOL0     C59697   4.810  -0.216   5.463 -0.0252 -0.3649  0.5093
  443MOL0     C59698   4.880  -0.093   5.450  0.2154 -0.9916  0.6033
  443MOL0     C59699   4.990  -0.079   5.352 -0.5636 -0.1983 -0.3297
  443MOL0     O59700   5.076   0.037   5.364 -0.2178 -0.4551  0.0571
  443MOL0     C59701   5.199   0.035   5.296  0.2286  0.3422 -0.2172
  443MOL0     C59702   5.290  -0.067   5.314 -0.1523 -0.2346  0.3958
  443MOL0     C59703   5.409  -0.087   5.247  0.0659 -0.1899 -1.2002
  443MOL0     C59704   5.439   0.017   5.155  0.4091 -0.8421  0.1802
  443MOL0     O59705   5.566   0.012   5.089 -1.2934 -0.1974 -0.1476
  443MOL0     C59706   5.597   0.108   4.988  0.3957 -0.2410  0.6608
  443MOL0     C59707   5.743   0.070   4.936  0.0982 -0.2082  0.4485
  443MOL0     C59708   5.756  -0.066   4.871  0.8825  0.4772  0.3925
  443MOL0     C59709   5.909  -0.084   4.839 -1.0221 -0.3859  0.2344
  443MOL0     C59710   6.007  -0.112   4.959  0.3169  0.6709 -0.4146
  443MOL0     C59711   6.143  -0.169   4.906  0.6391  0.5725 -0.1828
  443MOL0     C59712   6.253  -0.164   5.007 -1.2321 -0.2713  0.0760
  443MOL0     C59713   6.386  -0.223   4.946  0.0475  0.0070 -0.1387
  443MOL0    Cl59714   6.518  -0.253   5.070  0.3478 -0.1917 -0.3839
  443MOL0     C59715   5.357   0.125   5.131 -0.4962 -0.0004 -0.4686
  443MOL0     C59716   5.237   0.130   5.200  0.3879  0.3281 -0.3293
  443MOL0     O59717   5.004  -0.171   5.266  0.5907  0.2571  0.3579
  443MOL0     C59718   4.860   0.014   5.542  0.1221  0.1436  0.8188
  443MOL0     C59719   4.762   0.003   5.634 -0.7376 -0.8956  0.2664
  443MOL0     N59720   3.992  -0.142   5.795  0.0643 -0.0404  1.0204
  443MOL0     N59721   3.920  -0.149   5.694  0.9823  0.4461  0.1675
  443MOL0     C59722   2.882   0.469   5.543  0.4342  0.5826 -0.4901
  443MOL0     C59723   2.774   0.553   5.571 -0.2885  0.3317 -0.1177
  443MOL0     C59724   2.366   0.752   5.471  0.0917 -1.0142 -0.3826
  443MOL0     C59725   2.353   0.747   5.615 -0.0922  0.3482  1.1119
  443MOL0     C59726   2.241   0.806   5.677 -0.9070 -0.6770  0.3148
  443MOL0     C59727   2.136   0.850   5.600  0.3156 -0.4564 -0.7104
  443MOL0     O59728   2.016   0.898   5.650  0.3687  0.0967  0.2838
  443MOL0     C59729   1.980   0.861   5.785 -0.3847  0.4188 -0.3699
  443MOL0     C59730   1.830   0.896   5.798  0.3455 -0.3404  0.2528
  443MOL0     C59731   1.793   1.044   5.769 -0.7518 -0.1165 -0.3771
  443MOL0     C59732   1.882   1.129   5.850 -0.3265 -0.4914 -0.0002
  443MOL0     C59733   1.828   1.262   5.872  0.5254 -0.5860  0.3893
  443MOL0     C59734   1.763   1.365   5.903 -0.4691  0.0274 -0.2056
  443MOL0     C59735   2.151   0.854   5.462 -0.5524 -0.3332  0.1638
  443MOL0     C59736   2.259   0.808   5.393  0.4715  0.0539  0.0774
  443MOL0     C59737   2.262   0.821   5.245  0.6634 -0.3228 -0.3846
  443MOL0     H59738   2.602   0.487   5.281 -1.6317  0.5792  1.2864
  443MOL0     H59739   2.780   0.337   5.254 -1.5028 -1.7340 -0.0053
  443MOL0     H59740   2.956   0.114   5.346  0.8076 -0.9455 -1.1111
  443MOL0     H59741   2.960   0.250   5.231  2.3898  1.0528 -0.3848
  443MOL0     H59742   3.202   0.216   5.225  1.4966  0.4673  3.1890
  443MOL0     H59743   3.139   0.049   5.244  1.2332 -2.5176  2.4551
  443MOL0     H59744   3.179   0.056   5.487 -1.5093 -1.3733 -2.4356
  443MOL0     H59745   3.244   0.218   5.480 -0.0640 -1.5090  0.8616
  443MOL0     H59746   3.360  -0.004   5.319 -0.9928 -0.8393  1.3415
  443MOL0     H59747   3.425   0.167   5.337 -1.0774  1.6227  1.8211
  443MOL0     H59748   3.460   0.124   5.577  2.2674  1.8165 -0.1077
  443MOL0     H59749   3.434  -0.048   5.553 -0.2458 -0.0226  0.9302
  443MOL0     H59750   3.614  -0.049   5.389 -0.4399 -2.4820  3.4686
  443MOL0     H59751   3.630   0.135   5.400  0.1646  0.8019  2.0070
  443MOL0     H59752   3.653  -0.060   5.628 -1.2050 -2.0460 -2.4843
  443MOL0     H59753   3.705   0.103   5.622  1.3323 -0.0294 -1.5955
  443MOL0     H59754   3.839  -0.094   5.439  1.0223  1.0690 -1.8205
  443MOL0     H59755   3.871   0.079   5.458 -0.7388 -0.2766 -0.5650
  443MOL0     H59756   4.053   0.143   5.637  0.5567 -1.1757  0.0418
  443MOL0     H59757   4.142   0.141   5.918  1.7545  0.2065  1.6408
  443MOL0     H59758   4.177  -0.025   5.967  1.5497  2.1271  1.0886
  443MOL0     H59759   4.294   0.119   5.735  2.1296 -1.2692 -1.6465
  443MOL0     H59760   4.385   0.067   5.881 -0.7230 -0.5507  1.2958
  443MOL0     H59761   4.253  -0.101   5.659 -2.3437  1.2012  3.7405
  443MOL0     H59762   4.326  -0.167   5.797 -1.1056 -2.7110 -2.8578
  443MOL0     H59763   4.465   0.029   5.618  0.2114 -0.4057 -1.8593
  443MOL0     H59764   4.437  -0.136   5.559 -0.5249  1.4419 -0.2780
  443MOL0     H59765   4.637  -0.303   5.549  1.2828 -1.0202  0.7098
  443MOL0     H59766   4.821  -0.300   5.395 -0.1327  0.5806 -0.7219
  443MOL0     H59767   5.259  -0.147   5.380 -1.2691 -1.6699 -1.7323
  443MOL0     H59768   5.473  -0.174   5.240  1.5888  0.6230  1.1169
  443MOL0     H59769   5.530   0.100   4.902  0.5297  0.9716  0.4220
  443MOL0     H59770   5.606   0.207   5.034  1.3534 -0.4161  0.8727
  443MOL0     H59771   5.765   0.141   4.856 -1.2430  0.2207  0.4396
  443MOL0     H59772   5.820   0.093   5.010  1.2236  0.8853 -0.9909
  443MOL0     H59773   5.733  -0.159   4.924 -2.5147  0.8441 -0.2250
  443MOL0     H59774   5.707  -0.059   4.774  0.9031 -0.3685  0.3163
  443MOL0     H59775   5.944   0.008   4.792 -0.7774 -0.9339 -0.6611
  443MOL0     H59776   5.926  -0.167   4.771 -1.0182 -1.9953  2.1036
  443MOL0     H59777   5.971  -0.187   5.031  0.8895 -0.2408 -1.0462
  443MOL0     H59778   6.018  -0.015   5.007  0.3243  0.8431 -0.7611
  443MOL0     H59779   6.115  -0.267   4.866 -0.2711  1.5882 -2.1598
  443MOL0     H59780   6.178  -0.104   4.826 -1.9132  0.0402 -1.8554
  443MOL0     H59781   6.222  -0.219   5.096  1.7463  0.9546  2.0449
  443MOL0     H59782   6.287  -0.067   5.046  1.1058 -1.8383  2.2461
  443MOL0     H59783   6.369  -0.320   4.897  0.5390 -0.3101  0.3099
  443MOL0     H59784   6.421  -0.147   4.876 -1.8543  2.6488  1.6178
  443MOL0     H59785   5.385   0.206   5.065 -0.0572  2.0846  2.0861
  443MOL0     H59786   5.174   0.218   5.190 -1.2777 -1.0229 -2.6846
  443MOL0     H59787   4.921   0.103   5.536  0.8949 -0.3249  1.4171
  443MOL0     H59788   4.758   0.088   5.700  2.5876  2.1068 -2.9611
  443MOL0     H59789   2.977   0.472   5.595  0.4291 -2.8676 -0.0503
  443MOL0     H59790   2.755   0.603   5.665 -6.1969 -2.3428  0.5327
  443MOL0     H59791   2.433   0.704   5.674 -0.0115 -1.0280  0.0479
  443MOL0     H59792   2.230   0.824   5.783 -2.3381  4.0506 -0.4005
  443MOL0     H59793   2.034   0.919   5.860 -1.0028  1.8716 -0.9968
  443MOL0     H59794   1.995   0.756   5.810  0.9693  1.1193  2.0405
  443MOL0     H59795   1.812   0.871   5.903  1.9310  2.5352  1.3139
  443MOL0     H59796   1.765   0.845   5.725 -0.4990  0.7951  0.1922
  443MOL0     H59797   1.687   1.057   5.790 -0.9506 -0.4815 -1.1131
  443MOL0     H59798   1.807   1.067   5.663  1.2434 -2.6690 -0.7727
  443MOL0     H59799   1.911   1.090   5.948 -0.4827 -1.5299 -0.3521
  443MOL0     H59800   1.977   1.145   5.797 -0.7362 -0.8284 -0.8467
  443MOL0     H59801   1.713   1.458   5.922 -0.0877  0.4984 -1.3894
  443MOL0     H59802   2.066   0.891   5.405 -0.8951  2.0061  2.0149
  443MOL0     H59803   2.346   0.877   5.204 -0.4794 -0.3378 -2.9058
  443MOL0     H59804   2.260   0.724   5.194  2.4812 -0.6966  0.1980
  443MOL0     H59805   2.182   0.885   5.207  1.2829  1.2052  0.7840
  444MOL0     O59806   2.526  10.643   5.989 -1.0505 -0.4161  0.1679
  444MOL0     C59807   2.471  10.653   5.882 -0.5210 -0.0875  0.8898
  444MOL0     O59808   2.495  10.566   5.779  0.3237 -0.2035  0.0726
  444MOL0     C59809   2.606  10.484   5.791  0.2048  0.4977 -0.5850
  444MOL0     C59810   2.596  10.343   5.787  0.3693  0.4532  0.1628
  444MOL0     C59811   2.714  10.270   5.793 -0.1327 -0.3108 -0.1010
  444MOL0     C59812   2.846  10.329   5.783  0.9799  0.6040 -0.6327
  444MOL0     O59813   2.959  10.243   5.787 -0.4042  0.6088  0.1799
  444MOL0     C59814   3.091  10.286   5.759 -0.7548 -0.0094 -0.2743
  444MOL0     C59815   3.174  10.161   5.753 -0.0763 -0.0128 -0.0353
  444MOL0     C59816   3.147  10.079   5.631 -0.4697  0.3646 -0.1912
  444MOL0     C59817   3.221   9.947   5.636 -0.8617  0.1360 -0.2688
  444MOL0     C59818   3.364   9.956   5.592 -0.3934 -0.4572 -0.4061
  444MOL0     C59819   3.387  10.000   5.447  0.4433  1.0320  0.2119
  444MOL0     C59820   3.526  10.002   5.385  0.2968 -0.5902 -0.6650
  444MOL0     C59821   3.620  10.096   5.470 -0.7140  0.2405 -0.5724
  444MOL0     N59822   3.732  10.144   5.386  0.6540  0.9993  0.0321
  444MOL0     C59823   3.840  10.069   5.341  0.2245  0.0736  0.1445
  444MOL0     C59824   3.926  10.163   5.289 -0.4620 -0.7584 -0.0039
  444MOL0     C59825   4.069  10.147   5.242  0.3803 -0.1653  0.7404
  444MOL0     C59826   4.145  10.077   5.350  0.0350 -0.0838 -0.3239
  444MOL0     C59827   4.168  10.170   5.467  0.1692  0.0234  0.1666
  444MOL0     C59828   4.278  10.102   5.562  0.0826  0.4739  0.4066
  444MOL0     O59829   4.308  10.196   5.666  0.0216  0.6869  0.1124
  444MOL0     C59830   4.391  10.162   5.764 -0.2187  0.0116 -0.1069
  444MOL0     C59831   4.508  10.091   5.744 -0.9673 -0.1880 -0.1290
  444MOL0     C59832   4.596  10.068   5.853  0.0564  0.4770 -0.1760
  444MOL0     C59833   4.578  10.127   5.975 -0.7569 -0.4925 -0.3004
  444MOL0     C59834   4.690  10.117   6.076 -0.6067  0.4294 -1.4630
  444MOL0     O59835   4.653  10.173   6.201 -0.0952  0.7247  0.0214
  444MOL0     C59836   4.753  10.214   6.284 -0.0753  1.0821 -0.1601
  444MOL0     C59837   4.816  10.125   6.384  0.7084 -0.1108  1.3946
  444MOL0     C59838   4.925  10.167   6.465 -0.3734 -0.0030 -0.2938
  444MOL0     C59839   4.981  10.292   6.444 -0.4192 -0.1373 -0.3387
  444MOL0     O59840   5.086  10.321   6.528 -0.4210 -0.2611  0.9352
  444MOL0     C59841   5.164  10.432   6.490 -0.9516 -0.2194  0.5931
  444MOL0     C59842   5.276  10.468   6.587 -0.2356 -0.6972 -0.9212
  444MOL0     C59843   5.406  10.391   6.546 -0.1242  0.7610  0.0731
  444MOL0     C59844   5.530  10.398   6.634  0.9698 -0.3779 -0.6126
  444MOL0     C59845   5.651  10.341   6.570 -0.1337  0.0320  0.1317
  444MOL0     C59846   5.784  10.387   6.637 -0.0750  0.8421 -0.1637
  444MOL0     C59847   5.915  10.337   6.574 -0.2115  0.2460 -0.4934
  444MOL0     C59848   6.039  10.381   6.653  0.1891  0.3001  0.1078
  444MOL0    Cl59849   6.068  10.284   6.810 -0.6605 -0.1192 -0.2291
  444MOL0     C59850   4.925  10.379   6.347 -0.8298 -0.2601  0.1172
  444MOL0     C59851   4.815  10.336   6.265 -0.2398  0.9632 -0.2714
  444MOL0     O59852   4.805  10.072   6.056  0.0117  0.0521  0.2809
  444MOL0     C59853   4.454  10.189   6.000  0.9106  0.0308  0.4863
  444MOL0     C59854   4.360  10.204   5.894  0.0039  0.2323  0.0692
  444MOL0     N59855   3.864  10.283   5.293  0.2079 -0.2539 -0.2260
  444MOL0     N59856   3.745  10.273   5.347  0.0665  0.2933 -0.0292
  444MOL0     C59857   2.854  10.466   5.776  0.7561  0.4498 -0.5064
  444MOL0     C59858   2.734  10.537   5.776 -0.6372 -0.5212 -0.8505
  444MOL0     C59859   2.383  10.768   5.847  0.2000  0.2713  0.1199
  444MOL0     C59860   2.287  10.757   5.749 -0.0681  0.9859  0.4797
  444MOL0     C59861   2.196  10.852   5.722  0.4581 -0.1977  0.2821
  444MOL0     C59862   2.193  10.969   5.789  0.3821  0.3346 -0.3016
  444MOL0     O59863   2.092  11.053   5.752  0.3223 -0.2625 -0.5769
  444MOL0     C59864   2.092  11.175   5.829 -0.8066  0.3739  0.1981
  444MOL0     C59865   1.971  11.252   5.780 -0.0273  0.1955  0.8239
  444MOL0     C59866   1.847  11.171   5.802 -0.1356  0.1939 -0.1762
  444MOL0     C59867   1.739  11.262   5.746 -0.1717  0.8530 -0.7010
  444MOL0     C59868   1.709  11.384   5.822  0.6595 -0.1358 -0.6452
  444MOL0     C59869   1.695  11.486   5.886 -0.5763 -0.1339 -0.8981
  444MOL0     C59870   2.288  10.991   5.893  0.3763 -1.1868 -0.2988
  444MOL0     C59871   2.377  10.890   5.924  0.0482 -0.1442 -0.1264
  444MOL0     C59872   2.483  10.930   6.025  0.6591  0.6145  0.8478
  444MOL0     H59873   2.502  10.290   5.778  0.9108 -0.6380  0.7767
  444MOL0     H59874   2.706  10.162   5.799  3.0542 -0.7063 -0.9871
  444MOL0     H59875   3.099  10.346   5.667 -1.2452  2.3312  1.1161
  444MOL0     H59876   3.135  10.344   5.841 -2.7554 -0.1004  0.9133
  444MOL0     H59877   3.169  10.105   5.846  1.6044 -2.0112 -1.0587
  444MOL0     H59878   3.281  10.183   5.759  0.6271 -2.1541 -2.4495
  444MOL0     H59879   3.167  10.133   5.538  1.8761 -0.7733 -0.4147
  444MOL0     H59880   3.042  10.050   5.628  0.5089 -3.7861 -1.3133
  444MOL0     H59881   3.206   9.912   5.738 -0.7776  0.2041 -0.2335
  444MOL0     H59882   3.165   9.876   5.574 -0.4937  0.1692 -0.6435
  444MOL0     H59883   3.412  10.023   5.664 -1.3166  0.0521 -0.2527
  444MOL0     H59884   3.402   9.854   5.600  0.4103 -0.1940 -0.7631
  444MOL0     H59885   3.320   9.942   5.384 -0.3668  1.4137  0.7020
  444MOL0     H59886   3.361  10.106   5.442 -3.7835  0.1785 -0.0193
  444MOL0     H59887   3.514  10.041   5.283 -2.5401 -0.5894 -0.4015
  444MOL0     H59888   3.568   9.902   5.374  1.0146 -0.6513  1.9269
  444MOL0     H59889   3.564  10.179   5.514 -0.3295 -0.3449  1.0700
  444MOL0     H59890   3.668  10.047   5.555 -1.2812 -1.5333 -1.2287
  444MOL0     H59891   3.851   9.962   5.357 -1.6384 -0.2445 -0.3973
  444MOL0     H59892   4.065  10.079   5.156 -2.8132  2.5962 -1.5350
  444MOL0     H59893   4.127  10.238   5.224  2.7269 -1.4942  1.1728
  444MOL0     H59894   4.093   9.985   5.379 -1.3915  0.3414 -1.4143
  444MOL0     H59895   4.245  10.051   5.316  0.4969 -1.4916  1.8435
  444MOL0     H59896   4.072  10.198   5.513  0.9975  2.9250  0.3605
  444MOL0     H59897   4.206  10.265   5.428 -0.4839 -0.0331 -0.6350
  444MOL0     H59898   4.365  10.082   5.499 -0.7376 -1.2846 -0.2398
  444MOL0     H59899   4.250  10.002   5.595  0.7895 -0.0994 -0.6708
  444MOL0     H59900   4.543  10.057   5.646  4.8596 -0.2888  1.5874
  444MOL0     H59901   4.687  10.012   5.837 -0.2644  0.3669 -1.7360
  444MOL0     H59902   4.801  10.018   6.384  0.8091 -0.1300  0.8734
  444MOL0     H59903   4.961  10.098   6.540  0.1487  1.0770  0.4600
  444MOL0     H59904   5.203  10.420   6.388  2.3565 -2.0749  1.9077
  444MOL0     H59905   5.100  10.520   6.476  1.7525  1.6813 -0.8340
  444MOL0     H59906   5.296  10.576   6.590 -0.4437 -0.6283 -1.7884
  444MOL0     H59907   5.238  10.438   6.685 -1.0176  1.1708 -0.6142
  444MOL0     H59908   5.378  10.285   6.552  0.3309  0.7091  1.6791
  444MOL0     H59909   5.424  10.414   6.440 -1.9239 -2.5435 -1.1148
  444MOL0     H59910   5.508  10.333   6.720  1.3294 -0.8258 -0.8531
  444MOL0     H59911   5.547  10.500   6.669  1.7901 -0.5006 -0.6214
  444MOL0     H59912   5.650  10.378   6.468 -1.0989 -1.4507 -0.4256
  444MOL0     H59913   5.634  10.233   6.574 -2.7159  0.4220  1.4935
  444MOL0     H59914   5.789  10.495   6.622 -1.3219  0.9530  0.1064
  444MOL0     H59915   5.770  10.370   6.745 -2.1681 -0.0881 -0.5202
  444MOL0     H59916   5.935  10.379   6.475  0.0593  0.7207 -0.2416
  444MOL0     H59917   5.921  10.228   6.567  2.6308  0.1047  2.1685
  444MOL0     H59918   6.122  10.371   6.582  0.7491 -1.5765  0.9728
  444MOL0     H59919   6.045  10.489   6.666  3.7137  0.3533 -0.8288
  444MOL0     H59920   4.957  10.480   6.324 -2.5420  0.5493  1.0936
  444MOL0     H59921   4.778  10.393   6.181  0.6974 -1.1276 -2.2102
  444MOL0     H59922   4.426  10.228   6.097  1.8034  2.0531 -0.0067
  444MOL0     H59923   4.273  10.267   5.903  0.6304  0.9062  1.9480
  444MOL0     H59924   2.949  10.518   5.781  1.0266 -0.1401  1.1611
  444MOL0     H59925   2.749  10.645   5.770 -1.1450 -0.5087 -2.0415
  444MOL0     H59926   2.277  10.660   5.700 -0.4667  1.9179 -1.3708
  444MOL0     H59927   2.109  10.833   5.660 -0.4754  0.8074  1.2303
  444MOL0     H59928   2.178  11.236   5.799 -0.6002 -0.3638 -0.7697
  444MOL0     H59929   2.090  11.163   5.938  0.2511 -1.3195  0.0634
  444MOL0     H59930   1.984  11.279   5.675  2.7096  0.6259  1.1717
  444MOL0     H59931   1.967  11.346   5.837 -0.4117  0.0445  1.0495
  444MOL0     H59932   1.833  11.143   5.907  1.8875 -0.6573 -0.0879
  444MOL0     H59933   1.848  11.084   5.736  1.6385 -0.8930  1.1688
  444MOL0     H59934   1.759  11.284   5.641 -2.3132 -1.5358 -1.7428
  444MOL0     H59935   1.647  11.203   5.739 -1.0868  2.1226  0.1703
  444MOL0     H59936   1.674  11.568   5.952 -2.9940  0.1864 -1.9688
  444MOL0     H59937   2.295  11.080   5.954  0.0751 -2.4803  1.7381
  444MOL0     H59938   2.473  10.892   6.127 -0.5938  1.3482  1.0175
  444MOL0     H59939   2.577  10.882   5.998  1.1331  1.8580  0.1955
  444MOL0     H59940   2.503  11.037   6.015 -1.5386  0.8557 -2.5185
  445MOL0     O59941   9.689  10.614   4.250  0.6539 -0.6008  0.5382
  445MOL0     C59942   9.614  10.526   4.216 -0.4250  0.3868  0.0406
  445MOL0     O59943   9.650  10.394   4.206  0.4908  0.1390  0.4853
  445MOL0     C59944   9.779  10.374   4.181 -0.3978  0.0308  0.5715
  445MOL0     C59945   9.833  10.393   4.058  0.7596  0.0934 -0.0987
  445MOL0     C59946   9.969  10.362   4.026  0.1927 -1.1534  0.3939
  445MOL0     C59947  10.049  10.307   4.133  0.5643  0.0549 -0.5293
  445MOL0     O59948  10.167  10.254   4.088 -0.6495  0.3902  0.3406
  445MOL0     C59949  10.210  10.128   4.141 -0.2125  1.3079 -0.1153
  445MOL0     C59950  10.333  10.059   4.067  0.2384  0.6349 -0.0050
  445MOL0     C59951  10.464  10.116   4.111  0.4970  0.0635 -0.4070
  445MOL0     C59952  10.589  10.079   4.024  0.0982 -0.0603  0.1625
  445MOL0     C59953  10.700  10.184   4.046 -0.6151  0.2841  0.3423
  445MOL0     C59954  10.825  10.144   3.965 -0.1849 -1.1396 -0.6281
  445MOL0     C59955  10.822  10.179   3.821  0.3251 -0.1633  0.4145
  445MOL0     C59956  10.938  10.132   3.748 -0.2885  0.1105  0.5515
  445MOL0     N59957  11.059  10.207   3.784  0.4354 -0.5776 -0.6092
  445MOL0     C59958  11.171  10.154   3.836 -0.8725 -0.5936 -1.1919
  445MOL0     C59959  11.261  10.263   3.848  0.5759  0.3834  0.5821
  445MOL0     C59960  11.405  10.246   3.887 -0.3425  1.2716 -0.7971
  445MOL0     C59961  11.444  10.349   3.987 -0.3846  0.0159  0.0113
  445MOL0     C59962  11.592  10.349   4.016 -0.6603 -0.2825 -1.1138
  445MOL0     C59963  11.630  10.431   4.144  1.0139  0.6537 -0.3322
  445MOL0     O59964  11.772  10.421   4.157  1.0084  0.7720 -0.2646
  445MOL0     C59965  11.822  10.527   4.226  0.1497  0.0150 -0.3767
  445MOL0     C59966  11.963  10.520   4.223  0.7214  0.6675 -0.5251
  445MOL0     C59967  12.041  10.611   4.296 -0.2114 -0.1719  0.2767
  445MOL0     C59968  11.984  10.710   4.369  0.4939 -0.7986  1.0039
  445MOL0     C59969  12.071  10.807   4.450  0.6635  0.5654 -0.1170
  445MOL0     O59970  12.200  10.817   4.413  0.7269 -0.1729  0.1478
  445MOL0     C59971  12.293  10.893   4.477 -0.2688  0.5866 -0.4329
  445MOL0     C59972  12.424  10.849   4.497 -0.9295  0.2063 -1.0435
  445MOL0     C59973  12.515  10.925   4.583 -0.0042  0.1230  0.1737
  445MOL0     C59974  12.484  11.053   4.629 -1.2978  0.4914  0.1674
  445MOL0     O59975  12.575  11.119   4.702  0.1682 -0.0373 -0.0511
  445MOL0     C59976  12.563  11.263   4.718  0.4767  0.8054 -1.3568
  445MOL0     C59977  12.704  11.307   4.757 -0.5411 -0.1863 -1.2161
  445MOL0     C59978  12.715  11.454   4.777  0.6431 -0.2704  0.1460
  445MOL0     C59979  12.861  11.490   4.810  0.1218 -0.9797  0.0416
  445MOL0     C59980  12.864  11.641   4.841  0.8233  0.0260  0.2445
  445MOL0     C59981  12.998  11.703   4.864 -0.7471 -0.2838 -0.3168
  445MOL0     C59982  13.065  11.672   4.992  0.1331 -0.1833  0.0544
  445MOL0     C59983  13.075  11.783   5.083  0.5927 -0.0134  0.6577
  445MOL0    Cl59984  13.139  11.713   5.242 -0.0917  0.0256  0.3723
  445MOL0     C59985  12.355  11.100   4.594 -0.4587 -1.1278  0.1553
  445MOL0     C59986  12.266  11.018   4.518  0.8873 -0.2899 -0.4173
  445MOL0     O59987  12.012  10.884   4.518  0.4257  0.3517 -0.9721
  445MOL0     C59988  11.848  10.729   4.368 -0.5690  0.3389  0.3325
  445MOL0     C59989  11.760  10.636   4.299  0.5278  0.3664 -0.6816
  445MOL0     N59990  11.201  10.377   3.804 -0.1251  0.1851  0.1598
  445MOL0     N59991  11.079  10.343   3.759  0.0767 -0.5750 -0.0588
  445MOL0     C59992   9.994  10.296   4.270 -0.0390  0.3317  0.0504
  445MOL0     C59993   9.863  10.328   4.286 -0.2627  0.6953 -0.5770
  445MOL0     C59994   9.473  10.556   4.188 -0.1796  0.4912 -0.0619
  445MOL0     C59995   9.413  10.497   4.074 -0.1105  0.2185  0.5624
  445MOL0     C59996   9.281  10.528   4.029 -0.4023  0.0228 -0.8139
  445MOL0     C59997   9.199  10.620   4.102 -0.4326  0.0408  0.0621
  445MOL0     O59998   9.080  10.643   4.044 -0.2404  0.1263 -0.0607
  445MOL0     C59999   8.980  10.721   4.118  0.8421 -0.5549 -0.0817
  445MOL0     C60000   8.920  10.634   4.221  0.2558 -0.3061  0.0756
  445MOL0     C60001   8.801  10.696   4.296  0.6871 -0.4301  0.7360
  445MOL0     C60002   8.812  10.836   4.364 -0.3296  0.2479 -0.1234
  445MOL0     C60003   8.941  10.859   4.445  0.3854  0.3979  0.3119
  445MOL0     C60004   9.045  10.875   4.494  1.2271 -0.4836  0.7695
  445MOL0     C60005   9.251  10.676   4.223  0.9458  1.6067 -0.4885
  445MOL0     C60006   9.385  10.645   4.264  0.1862 -0.9010  0.6248
  445MOL0     C60007   9.419  10.689   4.401  0.3123 -0.9428 -0.5712
  445MOL0     H60008   9.762  10.428   3.983  0.6549 -1.8400 -0.9538
  445MOL0     H60009  10.007  10.371   3.925  1.7983  1.0565  1.1069
  445MOL0     H60010  10.239  10.131   4.247 -0.6472 -1.7334  0.1831
  445MOL0     H60011  10.123  10.062   4.146  0.1038  0.9400  1.0126
  445MOL0     H60012  10.317  10.053   3.959 -0.7213 -0.5128  0.1779
  445MOL0     H60013  10.332   9.954   4.098 -1.7453  1.2562  2.3935
  445MOL0     H60014  10.482  10.101   4.217  3.4654 -0.9626 -0.9465
  445MOL0     H60015  10.456  10.225   4.110  2.5615  0.2806  0.6967
  445MOL0     H60016  10.613   9.975   4.050 -1.9837 -0.2465  1.6152
  445MOL0     H60017  10.558  10.067   3.920 -2.2699 -0.3812  0.8393
  445MOL0     H60018  10.653  10.278   4.016  0.6722  1.2082  1.1441
  445MOL0     H60019  10.732  10.187   4.151  1.6455  2.7891 -0.3207
  445MOL0     H60020  10.906  10.192   4.021 -1.2736 -3.2584  3.1080
  445MOL0     H60021  10.843  10.036   3.967  1.1170 -0.9338  0.9111
  445MOL0     H60022  10.814  10.286   3.801  0.0871 -0.5390 -1.6958
  445MOL0     H60023  10.734  10.133   3.776 -0.8232  1.9448  0.3889
  445MOL0     H60024  10.948  10.024   3.763 -0.9625 -0.3444 -1.9033
  445MOL0     H60025  10.916  10.137   3.641 -2.8354 -0.7676  0.9675
  445MOL0     H60026  11.197  10.050   3.859  1.1994  0.2743  0.8755
  445MOL0     H60027  11.412  10.149   3.937  0.0006  0.8596 -1.6091
  445MOL0     H60028  11.473  10.251   3.801  1.5369  1.2942  0.6311
  445MOL0     H60029  11.415  10.450   3.956 -2.0526 -0.6098 -0.5807
  445MOL0     H60030  11.393  10.322   4.080  1.6648 -0.7305  0.9658
  445MOL0     H60031  11.656  10.379   3.933  1.3639 -0.1102  0.4191
  445MOL0     H60032  11.627  10.248   4.042 -2.8878 -0.6718  0.6883
  445MOL0     H60033  11.568  10.409   4.231 -1.9195 -2.7724 -2.9893
  445MOL0     H60034  11.592  10.531   4.122 -1.2311 -0.4918 -2.0017
  445MOL0     H60035  12.007  10.435   4.171 -2.2383 -0.9740 -0.5942
  445MOL0     H60036  12.148  10.597   4.279  0.3949  4.2084 -0.7945
  445MOL0     H60037  12.467  10.755   4.464  1.3009  0.8476 -0.1631
  445MOL0     H60038  12.610  10.880   4.612 -0.7896 -1.1499  0.8259
  445MOL0     H60039  12.531  11.311   4.625 -4.2083 -1.1737 -1.0337
  445MOL0     H60040  12.493  11.273   4.801  0.9931  0.3420 -0.8575
  445MOL0     H60041  12.739  11.273   4.855  1.6832  3.5121 -0.5364
  445MOL0     H60042  12.763  11.266   4.675 -2.5566 -1.3097 -2.1802
  445MOL0     H60043  12.687  11.495   4.679  1.8364  0.5017  0.0930
  445MOL0     H60044  12.645  11.484   4.855  0.0596  1.4009 -0.9560
  445MOL0     H60045  12.924  11.471   4.723  2.1338  0.5681  1.0779
  445MOL0     H60046  12.906  11.448   4.901  0.3469  2.5214  1.6822
  445MOL0     H60047  12.798  11.654   4.927 -2.3091 -0.3095 -1.9343
  445MOL0     H60048  12.818  11.691   4.755  3.3229  2.8243  0.3705
  445MOL0     H60049  13.052  11.675   4.773  0.5496 -0.2291  0.4063
  445MOL0     H60050  12.995  11.812   4.861 -2.4818 -0.3401 -1.6762
  445MOL0     H60051  13.161  11.628   4.963  0.6119 -0.7972  2.4159
  445MOL0     H60052  13.012  11.588   5.038 -2.8373  1.8953  0.6864
  445MOL0     H60053  13.144  11.853   5.035  1.1566 -1.3214 -0.4989
  445MOL0     H60054  12.980  11.831   5.107  1.4353  1.6300  0.8398
  445MOL0     H60055  12.329  11.200   4.626  3.2869  1.3038 -3.3591
  445MOL0     H60056  12.169  11.055   4.488 -0.9862 -3.4729  1.2211
  445MOL0     H60057  11.802  10.807   4.429 -0.8824  1.8029 -1.6586
  445MOL0     H60058  11.653  10.650   4.295 -0.1256 -3.2399  0.8004
  445MOL0     H60059  10.053  10.244   4.345  0.2174  0.5300 -0.0136
  445MOL0     H60060   9.817  10.314   4.383 -0.8046 -1.9152 -1.1294
  445MOL0     H60061   9.474  10.422   4.025  1.4960  1.0923  1.1682
  445MOL0     H60062   9.248  10.485   3.934  2.1995 -1.1644 -1.2893
  445MOL0     H60063   8.905  10.756   4.046 -0.9005 -1.9226  0.9857
  445MOL0     H60064   9.014  10.816   4.162  1.1216 -0.8314  0.3046
  445MOL0     H60065   8.991  10.592   4.292  1.5360 -3.8270 -3.0231
  445MOL0     H60066   8.892  10.545   4.164 -1.7822  0.5977 -0.4307
  445MOL0     H60067   8.769  10.632   4.379 -1.1797  0.8811  1.1116
  445MOL0     H60068   8.710  10.699   4.235 -0.9575  0.8905  3.0631
  445MOL0     H60069   8.814  10.918   4.292 -1.7757  0.2132 -0.2156
  445MOL0     H60070   8.719  10.850   4.419 -0.6108  4.1783 -1.2807
  445MOL0     H60071   9.139  10.908   4.533  0.6591  2.8373 -0.3553
  445MOL0     H60072   9.188  10.745   4.279 -1.6683 -1.4577  0.6386
  445MOL0     H60073   9.369  10.782   4.429 -2.4495 -2.4893 -0.0562
  445MOL0     H60074   9.392  10.619   4.480 -1.9074  2.0186  1.5113
  445MOL0     H60075   9.525  10.714   4.408  0.3120 -1.3741  1.4581
  446MOL0     O60076   8.856   0.803   6.835 -0.1715  0.3092 -0.2803
  446MOL0     C60077   8.798   0.766   6.931  1.3828  0.2653  0.0020
  446MOL0     O60078   8.847   0.762   7.060  0.3682  1.0482  0.4148
  446MOL0     C60079   8.969   0.809   7.086 -0.3538 -0.5949  0.3261
  446MOL0     C60080   9.082   0.802   7.005 -0.3814 -0.3649 -0.4026
  446MOL0     C60081   9.210   0.844   7.041 -0.6544  0.7506 -0.9347
  446MOL0     C60082   9.231   0.887   7.178  1.1251  0.4508  0.0023
  446MOL0     O60083   9.347   0.943   7.224 -1.0045 -0.0130 -0.0284
  446MOL0     C60084   9.378   1.070   7.159  0.1638  1.0554  0.5257
  446MOL0     C60085   9.523   1.102   7.173 -0.7675 -0.4419 -0.2837
  446MOL0     C60086   9.567   1.115   7.326  0.3644  0.4129 -0.4647
  446MOL0     C60087   9.715   1.139   7.343 -0.2368 -0.1472 -0.4506
  446MOL0     C60088   9.761   1.161   7.489  0.7848 -0.3970 -0.4914
  446MOL0     C60089   9.917   1.196   7.528  0.7013 -0.8335 -0.3660
  446MOL0     C60090   9.938   1.344   7.562 -0.2226 -0.7615  0.6497
  446MOL0     C60091  10.069   1.370   7.636  0.2760 -0.0054 -0.4218
  446MOL0     N60092  10.087   1.514   7.663 -0.4332 -0.2001  0.1200
  446MOL0     C60093  10.123   1.610   7.567 -0.2361 -0.2376 -0.4452
  446MOL0     C60094  10.142   1.726   7.642  0.2947  0.7439  0.1712
  446MOL0     C60095  10.154   1.872   7.591 -0.0875 -0.1032 -0.1913
  446MOL0     C60096  10.289   1.940   7.620 -0.0995 -0.6248  0.2949
  446MOL0     C60097  10.293   2.003   7.760 -0.4316  0.1000  0.2467
  446MOL0     C60098  10.400   2.104   7.767 -0.5718 -0.2338  0.1953
  446MOL0     O60099  10.439   2.136   7.902 -0.3954 -0.1474 -0.4172
  446MOL0     C60100  10.555   2.211   7.893 -0.3502  0.0476 -0.3684
  446MOL0     C60101  10.642   2.202   8.010  0.1476 -0.2480 -0.2948
  446MOL0     C60102  10.773   2.254   8.010 -0.3148 -0.0524 -0.2627
  446MOL0     C60103  10.817   2.325   7.902  0.3702 -0.5992 -0.2132
  446MOL0     C60104  10.943   2.388   7.892  0.3679 -0.1665 -0.5349
  446MOL0     O60105  11.000   2.402   8.013 -0.2125  0.3866  0.7674
  446MOL0     C60106  11.118   2.466   8.021 -0.4557  0.4301  0.4825
  446MOL0     C60107  11.126   2.591   8.084 -0.1306 -0.0162 -0.1810
  446MOL0     C60108  11.256   2.633   8.113 -0.1832 -0.7541  0.9591
  446MOL0     C60109  11.371   2.574   8.065  0.0977  1.1148 -0.1447
  446MOL0     O60110  11.480   2.665   8.084  0.1467 -0.0038 -0.3491
  446MOL0     C60111  11.605   2.619   8.033 -0.3117 -0.2086  0.2632
  446MOL0     C60112  11.685   2.518   8.124  0.3011 -0.4335 -0.2304
  446MOL0     C60113  11.823   2.482   8.071  0.6716  0.1094 -0.4360
  446MOL0     C60114  11.929   2.489   8.180  0.3477 -0.1130 -1.2516
  446MOL0     C60115  12.051   2.427   8.109  0.3445  0.5202  0.5540
  446MOL0     C60116  12.158   2.415   8.217  0.4840  0.5072 -0.0054
  446MOL0     C60117  12.282   2.342   8.168  0.8479 -0.0433  0.1650
  446MOL0     C60118  12.400   2.341   8.265 -0.0773 -0.1757 -0.2843
  446MOL0    Cl60119  12.461   2.502   8.249  0.0801 -0.4075 -0.1556
  446MOL0     C60120  11.357   2.448   7.999  0.4812 -0.1118  0.2699
  446MOL0     C60121  11.239   2.391   7.981 -0.2732 -0.9523  0.1717
  446MOL0     O60122  10.995   2.422   7.784  1.3225  0.9276 -0.4846
  446MOL0     C60123  10.734   2.342   7.791 -0.3327 -0.3201  0.4774
  446MOL0     C60124  10.606   2.284   7.788  0.2019 -1.0776  0.2718
  446MOL0     N60125  10.121   1.678   7.775  0.1583  0.1414  1.0817
  446MOL0     N60126  10.094   1.560   7.788  0.0103 -0.2359  0.4777
  446MOL0     C60127   9.121   0.899   7.265  0.9163 -0.4551 -0.3773
  446MOL0     C60128   8.996   0.865   7.222 -0.8615  0.1339 -0.0440
  446MOL0     C60129   8.650   0.730   6.927  0.3717 -0.1014 -0.1578
  446MOL0     C60130   8.585   0.704   7.050 -0.5086  0.7492 -0.0978
  446MOL0     C60131   8.446   0.674   7.054 -0.9143  0.3077  0.7917
  446MOL0     C60132   8.377   0.656   6.938 -0.2190 -0.8366  0.5189
  446MOL0     O60133   8.247   0.616   6.943  0.0587  0.3183 -0.0620
  446MOL0     C60134   8.200   0.527   6.836  0.3910 -0.5546  0.4781
  446MOL0     C60135   8.064   0.476   6.888 -0.6319 -0.0313 -0.8824
  446MOL0     C60136   8.087   0.372   6.997 -0.4046  0.2195 -0.7559
  446MOL0     C60137   8.012   0.400   7.131  0.2701  0.0221 -0.6868
  446MOL0     C60138   7.868   0.387   7.115 -0.3015 -0.9394  0.2071
  446MOL0     C60139   7.758   0.393   7.074  0.5507 -0.5118 -0.2202
  446MOL0     C60140   8.443   0.686   6.819 -0.0441  0.4062  1.1535
  446MOL0     C60141   8.576   0.729   6.808 -0.7660  0.8527  0.0264
  446MOL0     C60142   8.629   0.768   6.674  0.2970  0.7531  0.6049
  446MOL0     H60143   9.081   0.775   6.899  1.5113  0.2037 -0.5959
  446MOL0     H60144   9.291   0.835   6.969  0.1422  2.5796 -0.3466
  446MOL0     H60145   9.352   1.071   7.053 -0.7755  3.2646  0.7341
  446MOL0     H60146   9.314   1.147   7.204 -0.7928 -0.4838  1.9390
  446MOL0     H60147   9.540   1.200   7.127 -1.8748  1.0196  2.2324
  446MOL0     H60148   9.570   1.019   7.119 -1.7544 -1.0703 -0.2058
  446MOL0     H60149   9.529   1.027   7.379 -1.6227  1.6394  0.2171
  446MOL0     H60150   9.513   1.201   7.365 -1.1895 -1.4026  1.5916
  446MOL0     H60151   9.785   1.064   7.305  0.0172  0.8183 -1.9656
  446MOL0     H60152   9.737   1.230   7.288 -0.8065  0.6003  0.5140
  446MOL0     H60153   9.697   1.244   7.522  0.0984 -0.9508 -0.4059
  446MOL0     H60154   9.743   1.065   7.538 -1.1226  0.8433  1.3989
  446MOL0     H60155   9.938   1.129   7.612 -2.7067 -0.2986  1.1036
  446MOL0     H60156   9.980   1.162   7.445 -0.3053 -0.0720 -1.4811
  446MOL0     H60157   9.854   1.375   7.624 -1.7588 -1.8624 -0.7951
  446MOL0     H60158   9.931   1.396   7.467  1.8437  1.4684  1.6208
  446MOL0     H60159  10.064   1.308   7.726 -0.6872  0.4190 -0.1720
  446MOL0     H60160  10.153   1.332   7.577 -1.9861 -1.9465 -2.6001
  446MOL0     H60161  10.116   1.602   7.459 -0.3287  2.9796 -0.7743
  446MOL0     H60162  10.137   1.874   7.483 -1.2186 -2.7844 -0.1415
  446MOL0     H60163  10.072   1.929   7.636 -2.4060  0.1561 -4.2749
  446MOL0     H60164  10.372   1.871   7.608 -0.0380 -1.2648  3.4907
  446MOL0     H60165  10.291   2.017   7.542 -0.0464  0.1111  1.0093
  446MOL0     H60166  10.308   1.920   7.830  1.3229  1.6050  1.7495
  446MOL0     H60167  10.201   2.057   7.786  0.6215  0.9811  2.3619
  446MOL0     H60168  10.365   2.196   7.720  1.0887 -0.3846 -1.4429
  446MOL0     H60169  10.485   2.073   7.705 -0.4566  3.2272 -1.5767
  446MOL0     H60170  10.607   2.145   8.095 -2.6775  0.4639 -0.8739
  446MOL0     H60171  10.834   2.246   8.100  0.5628 -1.5230 -0.9512
  446MOL0     H60172  11.043   2.651   8.119 -0.6923 -0.7719 -0.1971
  446MOL0     H60173  11.272   2.729   8.161  0.0581  0.5343 -1.5619
  446MOL0     H60174  11.597   2.579   7.932 -0.5913  0.0079  0.1990
  446MOL0     H60175  11.667   2.709   8.022  2.0184 -1.5193  1.7853
  446MOL0     H60176  11.701   2.562   8.223 -1.5606  1.1512 -0.5667
  446MOL0     H60177  11.633   2.423   8.136  0.2364 -0.2205  1.4010
  446MOL0     H60178  11.814   2.376   8.046 -1.4870  0.2697 -0.4588
  446MOL0     H60179  11.854   2.538   7.983  1.9702  1.2897  0.7056
  446MOL0     H60180  11.902   2.429   8.267  3.8032 -1.3830 -0.8950
  446MOL0     H60181  11.949   2.588   8.224  0.3617  0.1886 -1.9242
  446MOL0     H60182  12.087   2.501   8.036 -2.1916  0.6708 -0.6510
  446MOL0     H60183  12.031   2.330   8.064 -0.7193  0.7043  0.6087
  446MOL0     H60184  12.193   2.511   8.256  0.7788  0.9141 -1.2259
  446MOL0     H60185  12.115   2.353   8.296  1.5217 -3.3869 -2.2199
  446MOL0     H60186  12.319   2.382   8.073  1.8541 -0.4067  0.3886
  446MOL0     H60187  12.250   2.239   8.150 -2.0166  1.0366 -1.5008
  446MOL0     H60188  12.358   2.316   8.363 -4.0283  3.8897 -0.6088
  446MOL0     H60189  12.473   2.264   8.241 -0.4990 -0.3981 -0.8705
  446MOL0     H60190  11.442   2.397   7.954 -0.6024 -1.2933 -0.4918
  446MOL0     H60191  11.234   2.294   7.934  0.9922 -0.2979 -1.3898
  446MOL0     H60192  10.762   2.407   7.709 -0.1865 -1.2185 -0.2048
  446MOL0     H60193  10.548   2.304   7.698 -2.0133  2.0249  2.1669
  446MOL0     H60194   9.140   0.944   7.362 -0.0668 -1.0964  0.1272
  446MOL0     H60195   8.908   0.878   7.284 -0.6714 -1.8625  0.7277
  446MOL0     H60196   8.631   0.729   7.145  2.7923 -1.0289 -1.0596
  446MOL0     H60197   8.402   0.650   7.149 -3.2490  0.2178 -0.2570
  446MOL0     H60198   8.278   0.455   6.814  2.9863  2.4592 -0.9125
  446MOL0     H60199   8.177   0.577   6.741 -2.0986 -0.2982  1.1253
  446MOL0     H60200   7.996   0.446   6.808 -1.2535  4.4239 -2.2799
  446MOL0     H60201   8.007   0.559   6.931  2.6788  1.3045  1.3266
  446MOL0     H60202   8.193   0.350   7.016 -0.3345 -0.9248 -2.2521
  446MOL0     H60203   8.048   0.281   6.951  1.4569 -0.2582 -1.5109
  446MOL0     H60204   8.042   0.331   7.210 -1.5252 -0.2532 -0.2057
  446MOL0     H60205   8.025   0.504   7.162 -1.7398 -0.3925  1.8563
  446MOL0     H60206   7.652   0.386   7.057 -0.0009 -0.2580  2.5664
  446MOL0     H60207   8.376   0.698   6.733  1.0662  2.0713  0.4770
  446MOL0     H60208   8.541   0.769   6.608 -1.9657 -0.3860  3.4162
  446MOL0     H60209   8.667   0.871   6.677 -0.1138  0.9266  0.1140
  446MOL0     H60210   8.707   0.702   6.635  1.6328  1.7656  1.4857
  447MOL0     O60211   2.497   2.653   9.607  0.2211 -0.5363  0.3364
  447MOL0     C60212   2.455   2.588   9.511 -0.1923  0.4556 -0.6252
  447MOL0     O60213   2.326   2.581   9.477 -0.0568  0.6512 -0.5055
  447MOL0     C60214   2.229   2.651   9.535  0.6090  0.3729  0.2919
  447MOL0     C60215   2.217   2.682   9.668  0.5550  0.3549  0.4218
  447MOL0     C60216   2.110   2.756   9.708 -0.8485 -0.3898 -0.3270
  447MOL0     C60217   1.998   2.783   9.621 -0.4598 -0.0193  0.5303
  447MOL0     O60218   1.902   2.852   9.683  0.8846  0.1536  0.4559
  447MOL0     C60219   1.811   2.916   9.587 -0.7812  0.2195  0.2619
  447MOL0     C60220   1.714   3.002   9.664 -0.3725 -0.1005  0.3979
  447MOL0     C60221   1.614   3.071   9.567  0.4688 -0.4558  0.4618
  447MOL0     C60222   1.583   3.215   9.608  0.1431  0.0256 -0.2857
  447MOL0     C60223   1.461   3.280   9.530 -0.6895  0.4023 -0.1008
  447MOL0     C60224   1.409   3.404   9.596  0.0223 -0.9480  0.5770
  447MOL0     C60225   1.281   3.450   9.526 -0.4692 -0.3367 -0.2086
  447MOL0     C60226   1.259   3.607   9.546  0.1235 -0.0397 -0.2328
  447MOL0     N60227   1.357   3.683   9.464  0.3403  0.1408  0.0207
  447MOL0     C60228   1.385   3.644   9.339  1.0527 -0.2097 -0.4754
  447MOL0     C60229   1.477   3.728   9.301 -1.0206 -0.0657 -0.8998
  447MOL0     C60230   1.540   3.751   9.165 -0.2305 -0.3348 -0.0366
  447MOL0     C60231   1.689   3.748   9.184  0.2879 -0.9421  0.5418
  447MOL0     C60232   1.778   3.743   9.057  0.7568 -0.2308 -0.1135
  447MOL0     C60233   1.915   3.669   9.071 -0.0972  0.0983 -0.2907
  447MOL0     O60234   2.000   3.739   9.165 -1.1511  0.3263 -0.0144
  447MOL0     C60235   2.119   3.681   9.197  0.5461  1.2261 -0.4854
  447MOL0     C60236   2.158   3.547   9.169  1.0492 -0.4708  0.7897
  447MOL0     C60237   2.282   3.495   9.215  0.4575  0.1175  0.4311
  447MOL0     C60238   2.373   3.575   9.289  0.0678 -0.5488  0.2721
  447MOL0     C60239   2.493   3.525   9.351  0.3366 -0.3084 -0.2168
  447MOL0     O60240   2.585   3.610   9.402 -0.0069  0.2856  0.1849
  447MOL0     C60241   2.706   3.539   9.432  0.3257 -0.4579  0.6272
  447MOL0     C60242   2.709   3.455   9.548  0.3457  0.6735  1.1588
  447MOL0     C60243   2.830   3.385   9.578 -0.4571 -0.2133 -0.4136
  447MOL0     C60244   2.950   3.403   9.492  0.2152 -0.0110 -0.1178
  447MOL0     O60245   3.073   3.331   9.516  0.1894  0.2216  0.3368
  447MOL0     C60246   3.101   3.255   9.637 -0.3391 -0.0267 -0.0289
  447MOL0     C60247   3.247   3.232   9.610  0.5494  0.2254 -0.3129
  447MOL0     C60248   3.310   3.131   9.707  0.3953 -0.5947 -0.2081
  447MOL0     C60249   3.451   3.082   9.680 -0.2023 -0.0432 -0.6601
  447MOL0     C60250   3.514   3.008   9.801 -0.0290 -0.4579 -0.5461
  447MOL0     C60251   3.431   2.872   9.813 -0.8439  0.4674 -0.4974
  447MOL0     C60252   3.459   2.823   9.954 -0.5548  0.3259 -0.1547
  447MOL0     C60253   3.418   2.680   9.964 -0.6246 -0.5272 -0.3220
  447MOL0    Cl60254   3.234   2.667   9.951 -0.5252  0.0707  0.2256
  447MOL0     C60255   2.938   3.487   9.383  0.1766 -0.0794 -0.0957
  447MOL0     C60256   2.821   3.550   9.350 -1.1568 -0.6464 -0.1045
  447MOL0     O60257   2.507   3.403   9.343  0.2555  0.2960 -0.4109
  447MOL0     C60258   2.339   3.714   9.309 -0.0577  0.5668 -0.0722
  447MOL0     C60259   2.215   3.762   9.265  0.4170  0.3742 -0.5371
  447MOL0     N60260   1.510   3.814   9.410 -0.6916  0.1672 -0.4643
  447MOL0     N60261   1.438   3.777   9.512  0.4677 -0.2644  0.1171
  447MOL0     C60262   2.004   2.741   9.490 -0.1740  0.5011  0.0177
  447MOL0     C60263   2.123   2.683   9.442  0.1390 -0.0050 -0.3390
  447MOL0     C60264   2.544   2.495   9.437  0.1605 -0.1594 -0.5247
  447MOL0     C60265   2.499   2.382   9.368 -0.0297 -0.4812 -0.4524
  447MOL0     C60266   2.586   2.298   9.290 -0.7148 -0.0622  0.5325
  447MOL0     C60267   2.718   2.333   9.265 -0.0768  0.3323 -0.2038
  447MOL0     O60268   2.784   2.246   9.183 -0.0913  0.1057  0.4203
  447MOL0     C60269   2.915   2.272   9.157 -0.1507  0.8919 -0.1935
  447MOL0     C60270   2.989   2.140   9.163 -0.6076 -0.4997  0.4756
  447MOL0     C60271   3.140   2.145   9.118  0.3613 -0.8477  0.5459
  447MOL0     C60272   3.239   2.193   9.224  0.0153  0.4842 -0.3029
  447MOL0     C60273   3.235   2.104   9.346  0.0451 -0.2913 -0.4208
  447MOL0     C60274   3.213   2.029   9.438  0.6961 -0.6612 -0.0723
  447MOL0     C60275   2.758   2.454   9.323  0.9393 -0.4477 -0.8656
  447MOL0     C60276   2.676   2.537   9.401 -0.7980  0.2111  0.4481
  447MOL0     C60277   2.734   2.661   9.458  0.4046 -0.6970 -0.0794
  447MOL0     H60278   2.299   2.666   9.737 -1.4695  0.3776  2.9653
  447MOL0     H60279   2.109   2.807   9.803  1.3696 -1.1366  0.1385
  447MOL0     H60280   1.867   2.980   9.518  0.4319 -0.9526  0.1044
  447MOL0     H60281   1.753   2.845   9.527  2.2371 -0.9836 -1.4716
  447MOL0     H60282   1.781   3.064   9.725 -0.1370  0.5885 -0.5344
  447MOL0     H60283   1.653   2.934   9.725 -0.2110 -1.9385 -1.3795
  447MOL0     H60284   1.518   3.020   9.572  0.6673 -0.9837 -0.6998
  447MOL0     H60285   1.651   3.059   9.465  3.0426 -1.3363  1.4217
  447MOL0     H60286   1.555   3.197   9.712  1.9754 -1.3609  0.0189
  447MOL0     H60287   1.672   3.279   9.609 -1.2185  2.2147  3.8308
  447MOL0     H60288   1.483   3.300   9.425  0.1183 -0.6402 -0.1449
  447MOL0     H60289   1.381   3.205   9.533 -1.8418  1.6283  0.8712
  447MOL0     H60290   1.388   3.383   9.701  0.9002  0.8397  1.1469
  447MOL0     H60291   1.484   3.483   9.590 -0.4872 -0.4767  0.3260
  447MOL0     H60292   1.195   3.422   9.587 -2.0618 -0.1121 -2.2561
  447MOL0     H60293   1.272   3.425   9.420  0.0274  0.2995 -0.4114
  447MOL0     H60294   1.158   3.618   9.505  0.1202 -1.6411 -0.7217
  447MOL0     H60295   1.259   3.621   9.654 -0.8241 -1.1365 -0.0756
  447MOL0     H60296   1.321   3.575   9.284 -1.1274  0.9408  0.4934
  447MOL0     H60297   1.519   3.663   9.103  0.8177 -0.4998 -0.1699
  447MOL0     H60298   1.510   3.848   9.123  1.4794  1.4499  2.5835
  447MOL0     H60299   1.720   3.832   9.246 -1.6666  0.0354  0.2860
  447MOL0     H60300   1.706   3.656   9.241  0.3574  0.4447  2.8954
  447MOL0     H60301   1.795   3.847   9.026  4.1394 -1.2471 -2.1267
  447MOL0     H60302   1.722   3.700   8.973 -0.6948  1.8961 -0.3261
  447MOL0     H60303   1.955   3.674   8.969 -1.4410 -0.0526 -0.8616
  447MOL0     H60304   1.900   3.564   9.098  3.0147 -1.1059 -2.6773
  447MOL0     H60305   2.082   3.486   9.122 -0.3119  1.4448  0.4113
  447MOL0     H60306   2.316   3.394   9.193 -0.0305 -0.1306  0.7806
  447MOL0     H60307   2.620   3.457   9.609 -0.6174  1.8854 -0.2367
  447MOL0     H60308   2.842   3.326   9.668 -0.6750  0.8567  0.3464
  447MOL0     H60309   3.105   3.322   9.723  2.6418  0.7578 -0.6666
  447MOL0     H60310   3.044   3.163   9.653 -0.7902  0.2130 -0.2403
  447MOL0     H60311   3.249   3.190   9.509 -0.0857 -1.1342  0.2195
  447MOL0     H60312   3.294   3.331   9.617 -3.0719  2.0614  0.8364
  447MOL0     H60313   3.309   3.172   9.808 -0.0159  0.1783 -0.5220
  447MOL0     H60314   3.249   3.040   9.703  0.0351 -0.3942  0.5973
  447MOL0     H60315   3.514   3.168   9.656 -1.2414  0.2619 -2.5451
  447MOL0     H60316   3.434   3.023   9.589 -2.2201 -0.0224 -0.3557
  447MOL0     H60317   3.484   3.057   9.894 -3.0832 -0.7907 -1.2616
  447MOL0     H60318   3.623   2.995   9.802  0.1582  0.9236 -0.6540
  447MOL0     H60319   3.323   2.892   9.816 -0.7891  0.7367  2.6104
  447MOL0     H60320   3.462   2.804   9.734 -0.1050 -1.5597  1.4485
  447MOL0     H60321   3.412   2.893  10.023 -0.8275  0.1902 -0.2009
  447MOL0     H60322   3.566   2.826   9.973 -0.4264  0.7399 -0.9307
  447MOL0     H60323   3.475   2.620   9.891  0.3075  1.4159 -1.2784
  447MOL0     H60324   3.435   2.643  10.065  1.4229  0.3383 -0.3004
  447MOL0     H60325   3.035   3.507   9.340  2.1069 -0.0504  3.7995
  447MOL0     H60326   2.813   3.606   9.257 -0.8157 -1.5821 -0.7192
  447MOL0     H60327   2.407   3.779   9.363  1.3312 -0.2154 -0.8196
  447MOL0     H60328   2.183   3.864   9.284 -0.3266  0.1991 -0.7950
  447MOL0     H60329   1.923   2.748   9.419  0.1405 -1.1997 -0.5685
  447MOL0     H60330   2.133   2.651   9.339  2.0010  0.4684 -0.3306
  447MOL0     H60331   2.395   2.355   9.377 -1.1831  2.8118 -2.4422
  447MOL0     H60332   2.542   2.213   9.240 -2.1746  0.6204  0.6293
  447MOL0     H60333   2.962   2.339   9.229  0.2662 -0.4353  0.8038
  447MOL0     H60334   2.923   2.312   9.055 -0.1869  3.3357  0.6906
  447MOL0     H60335   2.929   2.078   9.095 -1.9602  1.4879 -0.2295
  447MOL0     H60336   2.984   2.091   9.261  2.3368  1.2288  1.5971
  447MOL0     H60337   3.154   2.203   9.025  0.8486 -0.0411  1.1098
  447MOL0     H60338   3.162   2.045   9.080  1.9198  0.3766 -2.0941
  447MOL0     H60339   3.345   2.196   9.194  1.1648  0.7410  3.3208
  447MOL0     H60340   3.205   2.294   9.246  0.5824  0.6373 -0.1183
  447MOL0     H60341   3.187   1.971   9.524  0.3469  2.6429  2.2623
  447MOL0     H60342   2.854   2.486   9.285  0.6994 -1.3875 -2.3561
  447MOL0     H60343   2.827   2.697   9.415  1.0350 -2.2681 -0.1121
  447MOL0     H60344   2.671   2.751   9.461  2.3250  0.7734  3.8416
  447MOL0     H60345   2.749   2.642   9.565  3.6665  1.6188  0.0122
  448MOL0     O60346   9.185   7.998   7.502 -0.0608 -1.1120 -0.3297
  448MOL0     C60347   9.207   7.930   7.398  0.8293 -0.1540 -0.8106
  448MOL0     O60348   9.112   7.881   7.307 -0.3482  0.5210  0.5313
  448MOL0     C60349   8.980   7.883   7.340 -0.7755 -0.3723  0.2523
  448MOL0     C60350   8.882   7.945   7.259  0.3104  0.1794 -0.0881
  448MOL0     C60351   8.745   7.925   7.288  0.5579  0.1556  0.0941
  448MOL0     C60352   8.710   7.839   7.388  0.2452 -0.1998 -0.0412
  448MOL0     O60353   8.578   7.825   7.425  0.4440  0.6890  0.3670
  448MOL0     C60354   8.484   7.777   7.323 -0.6209 -0.3041  0.3796
  448MOL0     C60355   8.492   7.624   7.317  0.8564 -0.5236  0.4537
  448MOL0     C60356   8.421   7.560   7.194 -0.3262  0.5497  0.2319
  448MOL0     C60357   8.278   7.610   7.175 -0.0943  0.1021  0.0569
  448MOL0     C60358   8.175   7.539   7.272  0.2698  0.1178 -0.1428
  448MOL0     C60359   8.035   7.556   7.213 -0.9942  0.0135  0.3328
  448MOL0     C60360   7.939   7.488   7.306  0.3493  0.7234  0.0471
  448MOL0     C60361   7.792   7.527   7.284 -0.1272 -0.0430 -0.3907
  448MOL0     N60362   7.767   7.671   7.270  0.4233  0.0831  0.0790
  448MOL0     C60363   7.839   7.768   7.345 -0.5983 -0.7469 -1.0449
  448MOL0     C60364   7.795   7.885   7.300 -0.0545 -0.5876  0.5948
  448MOL0     C60365   7.853   8.021   7.324 -0.3216 -0.3380 -0.3880
  448MOL0     C60366   7.959   8.047   7.210 -0.0037 -0.2168  0.4171
  448MOL0     C60367   8.047   8.171   7.239  0.7532  0.5875 -0.1202
  448MOL0     C60368   8.196   8.150   7.219  0.5419 -0.5685  0.6555
  448MOL0     O60369   8.257   8.279   7.219  0.0436  0.2675 -0.0612
  448MOL0     C60370   8.392   8.279   7.242 -0.5801 -0.0403  0.4558
  448MOL0     C60371   8.442   8.343   7.359 -0.4520 -0.0628 -0.0401
  448MOL0     C60372   8.576   8.351   7.391 -0.0823 -0.1377 -0.2808
  448MOL0     C60373   8.663   8.291   7.297 -0.7045 -0.5082  0.8724
  448MOL0     C60374   8.814   8.284   7.336 -0.4118 -0.2003  0.5187
  448MOL0     O60375   8.901   8.261   7.235 -0.2779  0.4103  0.8726
  448MOL0     C60376   9.028   8.302   7.231 -0.8053 -0.1458 -0.3947
  448MOL0     C60377   9.071   8.420   7.296 -0.8230 -0.1652  0.0657
  448MOL0     C60378   9.206   8.466   7.279 -0.2322 -0.4333 -0.0745
  448MOL0     C60379   9.296   8.399   7.195 -0.1087 -0.0369  1.1827
  448MOL0     O60380   9.425   8.444   7.178 -0.2927  0.1196 -0.5193
  448MOL0     C60381   9.520   8.378   7.098 -0.4730 -0.5794 -0.2590
  448MOL0     C60382   9.659   8.445   7.125  0.2775 -0.7684  0.0783
  448MOL0     C60383   9.776   8.392   7.048 -0.3409 -0.0250 -0.5354
  448MOL0     C60384   9.908   8.445   7.105 -0.0339 -0.1341 -0.0812
  448MOL0     C60385  10.039   8.393   7.040  0.3344  0.1029  0.2055
  448MOL0     C60386  10.101   8.479   6.919  0.0535  0.7124 -0.4229
  448MOL0     C60387  10.003   8.506   6.807  0.0584 -0.0932 -1.8817
  448MOL0     C60388  10.089   8.570   6.697  0.2314  0.2961  1.1147
  448MOL0    Cl60389  10.198   8.453   6.625 -0.0234 -0.0895  0.3104
  448MOL0     C60390   9.258   8.281   7.137  0.8518  0.6178 -0.0139
  448MOL0     C60391   9.122   8.231   7.151 -0.4952  0.0294 -0.5491
  448MOL0     O60392   8.844   8.312   7.452  0.1954 -0.2098 -0.5585
  448MOL0     C60393   8.616   8.235   7.178 -0.3788  0.2596 -0.0116
  448MOL0     C60394   8.478   8.234   7.149  0.5661  0.1888  0.3118
  448MOL0     N60395   7.691   7.857   7.197 -0.5921  0.0831 -0.6238
  448MOL0     N60396   7.688   7.731   7.178  0.0482 -0.3411 -0.1922
  448MOL0     C60397   8.803   7.780   7.468  0.9415 -0.5850 -0.1296
  448MOL0     C60398   8.938   7.803   7.448  0.2875 -0.4543 -0.4805
  448MOL0     C60399   9.352   7.910   7.375 -0.2618  0.2491 -0.5811
  448MOL0     C60400   9.438   8.009   7.339  0.2661  0.0591 -0.8628
  448MOL0     C60401   9.573   7.989   7.313  1.0560 -0.4257  0.4781
  448MOL0     C60402   9.627   7.853   7.317  0.0021 -0.3223 -0.6954
  448MOL0     O60403   9.755   7.824   7.278  0.4730  0.2781 -0.1406
  448MOL0     C60404   9.859   7.920   7.278 -0.1514 -0.4065 -0.0145
  448MOL0     C60405   9.891   7.975   7.142 -0.3502 -0.5687 -0.2068
  448MOL0     C60406   9.935   7.856   7.039 -0.1820 -0.6483  0.2627
  448MOL0     C60407  10.006   7.912   6.921 -0.6850 -0.1392  0.6097
  448MOL0     C60408  10.064   7.809   6.842  1.0975  0.2483 -0.5667
  448MOL0     C60409  10.106   7.724   6.766  0.4513 -0.5130  0.1138
  448MOL0     C60410   9.540   7.746   7.338  0.1276 -0.5708 -0.0054
  448MOL0     C60411   9.407   7.774   7.381  0.2363  0.4311 -0.5080
  448MOL0     C60412   9.312   7.666   7.415 -0.1699  0.3290  0.2521
  448MOL0     H60413   8.897   8.011   7.174  2.9564  1.6635  1.4086
  448MOL0     H60414   8.671   7.987   7.238 -1.4904 -1.1675  1.3214
  448MOL0     H60415   8.380   7.800   7.346 -0.5361  1.9760 -1.2048
  448MOL0     H60416   8.518   7.820   7.228  1.5711  2.8556  2.3474
  448MOL0     H60417   8.437   7.589   7.404 -2.6377 -1.2501 -1.8337
  448MOL0     H60418   8.593   7.581   7.321  1.1728  0.2121  0.6189
  448MOL0     H60419   8.423   7.451   7.197  0.6477  0.2067 -4.5088
  448MOL0     H60420   8.485   7.572   7.106 -0.1223 -0.2778  0.2579
  448MOL0     H60421   8.277   7.719   7.168  1.9475  0.1575  0.0833
  448MOL0     H60422   8.247   7.570   7.078 -1.6462 -3.0268  1.6574
  448MOL0     H60423   8.184   7.430   7.274 -0.2907  0.0755  1.9127
  448MOL0     H60424   8.186   7.562   7.378 -1.2231 -3.7309  1.0335
  448MOL0     H60425   8.001   7.659   7.198 -1.6449  0.0523  1.9072
  448MOL0     H60426   8.033   7.504   7.116 -0.1220  0.3563  0.1241
  448MOL0     H60427   7.966   7.508   7.410  2.6409  1.4440 -0.6157
  448MOL0     H60428   7.943   7.380   7.290 -1.2149  0.7454 -0.7257
  448MOL0     H60429   7.757   7.478   7.193 -1.9955  0.8654 -0.1963
  448MOL0     H60430   7.735   7.481   7.365 -0.6558 -0.5223 -1.0306
  448MOL0     H60431   7.919   7.750   7.417 -1.3748  2.7805  0.9213
  448MOL0     H60432   7.772   8.095   7.322  0.2342  0.5485  3.3138
  448MOL0     H60433   7.893   8.024   7.425 -1.9769 -0.3034  0.2902
  448MOL0     H60434   8.032   7.965   7.204  1.2459  0.9319 -0.8468
  448MOL0     H60435   7.911   8.060   7.113  0.4541  2.1827  0.4498
  448MOL0     H60436   8.022   8.199   7.342 -1.7463 -0.3997 -0.3960
  448MOL0     H60437   8.003   8.252   7.180 -2.3703 -0.2532  0.8450
  448MOL0     H60438   8.222   8.111   7.120  3.1269  3.7159 -0.6497
  448MOL0     H60439   8.229   8.077   7.294 -2.6645 -3.4087 -0.4372
  448MOL0     H60440   8.385   8.394   7.436  0.7963 -1.3432  1.8088
  448MOL0     H60441   8.603   8.396   7.486 -0.8328  0.8833 -0.5365
  448MOL0     H60442   9.012   8.480   7.365  1.4413  2.2692  0.0627
  448MOL0     H60443   9.239   8.564   7.312  0.5871 -0.9558  0.7357
  448MOL0     H60444   9.525   8.270   7.115  1.3268 -0.1826  2.2509
  448MOL0     H60445   9.494   8.386   6.992  1.2494 -1.7778 -0.8151
  448MOL0     H60446   9.639   8.552   7.119  0.7496 -0.7323 -1.0179
  448MOL0     H60447   9.691   8.429   7.228 -0.6382  2.0439  0.8933
  448MOL0     H60448   9.776   8.283   7.051 -1.3332 -0.0162  0.1525
  448MOL0     H60449   9.761   8.435   6.948 -0.2226 -0.9238 -0.9549
  448MOL0     H60450   9.911   8.412   7.209  0.1650  0.9903  0.2828
  448MOL0     H60451   9.925   8.553   7.105  3.1818 -0.5236  1.4780
  448MOL0     H60452  10.022   8.289   7.011  1.3532 -0.6979  2.2460
  448MOL0     H60453  10.114   8.389   7.120  0.0985  0.0941  0.4277
  448MOL0     H60454  10.144   8.572   6.959  0.1562  0.6633 -0.4172
  448MOL0     H60455  10.184   8.418   6.882 -1.1923 -0.2623 -1.6707
  448MOL0     H60456   9.934   8.584   6.840  0.5593  0.0273 -1.0870
  448MOL0     H60457   9.949   8.415   6.783  3.6763 -3.2450  0.7492
  448MOL0     H60458  10.027   8.608   6.616 -1.4764 -0.4228  2.0444
  448MOL0     H60459  10.145   8.657   6.732  2.4849 -1.6714  2.7504
  448MOL0     H60460   9.321   8.222   7.070  1.4164 -1.8903  2.5539
  448MOL0     H60461   9.096   8.130   7.123  1.2175 -0.9215  1.0632
  448MOL0     H60462   8.685   8.187   7.108 -0.8451  2.6124 -2.2256
  448MOL0     H60463   8.433   8.196   7.058 -2.0277 -0.2740  1.6962
  448MOL0     H60464   8.776   7.698   7.533  1.8437 -1.9034 -1.3606
  448MOL0     H60465   9.018   7.755   7.503  1.7968 -0.1974 -2.3217
  448MOL0     H60466   9.396   8.109   7.330 -1.8479 -0.6609  0.3307
  448MOL0     H60467   9.630   8.078   7.289 -2.7930  1.6999 -1.6837
  448MOL0     H60468   9.935   7.851   7.315 -0.1836 -0.9624 -0.9792
  448MOL0     H60469   9.844   8.006   7.345 -0.1671  0.0628 -0.6145
  448MOL0     H60470   9.978   8.040   7.154 -0.2557 -0.2685 -2.0918
  448MOL0     H60471   9.808   8.040   7.114  0.6122  1.5678  1.6398
  448MOL0     H60472   9.842   7.812   7.002 -1.0966  2.5157 -1.5784
  448MOL0     H60473  10.002   7.788   7.092  0.6910  0.3108  0.4138
  448MOL0     H60474   9.939   7.972   6.859 -0.3612  1.9442  2.1897
  448MOL0     H60475  10.091   7.974   6.953  0.0313 -1.5336  1.5368
  448MOL0     H60476  10.153   7.649   6.706 -0.7792 -2.2149  1.1754
  448MOL0     H60477   9.579   7.644   7.341  0.9329 -0.2874 -0.4877
  448MOL0     H60478   9.366   7.572   7.397 -0.9625 -0.1198  0.1620
  448MOL0     H60479   9.276   7.696   7.514  3.0709  3.2856  0.7355
  448MOL0     H60480   9.224   7.663   7.350  0.6973  1.6523 -1.0453
  449MOL0     O60481   0.434   7.342   4.401  0.1413 -0.6237 -0.1168
  449MOL0     C60482   0.338   7.420   4.397 -0.4261 -0.0261 -0.2450
  449MOL0     O60483   0.337   7.548   4.346 -0.6005  0.6978  0.5023
  449MOL0     C60484   0.459   7.605   4.335  0.2088  0.6876 -0.3807
  449MOL0     C60485   0.536   7.631   4.445 -1.1564  0.1132 -0.2792
  449MOL0     C60486   0.664   7.689   4.437 -1.1277  0.3079  0.5832
  449MOL0     C60487   0.720   7.718   4.307  0.2069  0.7170 -0.5698
  449MOL0     O60488   0.841   7.770   4.299 -0.2722  0.5969 -0.3153
  449MOL0     C60489   0.851   7.890   4.228  0.8194 -0.2822  0.6290
  449MOL0     C60490   0.983   7.961   4.238  0.1822  0.2808  0.6452
  449MOL0     C60491   0.998   8.056   4.118 -1.0489 -0.0535  0.2110
  449MOL0     C60492   1.114   8.152   4.131  0.4221 -0.5006  0.3631
  449MOL0     C60493   1.248   8.084   4.123  0.3061  0.1098  0.2614
  449MOL0     C60494   1.370   8.172   4.074  0.0402  0.1614 -0.4039
  449MOL0     C60495   1.391   8.281   4.176 -0.4175 -0.4871 -0.4077
  449MOL0     C60496   1.502   8.383   4.150 -0.4079 -0.1406 -0.0296
  449MOL0     N60497   1.636   8.319   4.170 -0.0154  0.1260 -1.4652
  449MOL0     C60498   1.682   8.256   4.288 -0.7308  0.5638 -0.2817
  449MOL0     C60499   1.785   8.176   4.253  0.1129 -0.3667 -0.0936
  449MOL0     C60500   1.877   8.091   4.339 -0.9592 -0.4645 -0.4302
  449MOL0     C60501   1.991   8.158   4.416  0.1061 -0.2878 -0.5142
  449MOL0     C60502   2.097   8.220   4.322 -0.6549  0.4624  0.0079
  449MOL0     C60503   2.215   8.289   4.395  0.3172 -0.5374  0.1232
  449MOL0     O60504   2.283   8.209   4.492  0.2073 -0.0665 -0.3071
  449MOL0     C60505   2.410   8.177   4.452 -0.0493  1.3414  0.3528
  449MOL0     C60506   2.451   8.109   4.333  0.6927 -0.4454 -0.7263
  449MOL0     C60507   2.583   8.075   4.308 -0.4007  0.0443 -0.3353
  449MOL0     C60508   2.682   8.110   4.400  0.6066 -0.7714  0.0816
  449MOL0     C60509   2.831   8.067   4.384  0.2273 -2.2170  0.8756
  449MOL0     O60510   2.870   7.981   4.288  0.1561  0.4366 -0.2767
  449MOL0     C60511   2.999   7.929   4.285  0.3418 -0.2811  0.3486
  449MOL0     C60512   3.108   8.012   4.254 -0.1393 -0.0740  0.5498
  449MOL0     C60513   3.234   7.954   4.252  0.0890  0.0635 -0.1122
  449MOL0     C60514   3.251   7.821   4.295 -0.2811 -1.0460 -0.6398
  449MOL0     O60515   3.374   7.773   4.298  0.1152  0.4337 -0.0055
  449MOL0     C60516   3.382   7.625   4.287 -0.1136 -0.1303 -0.3102
  449MOL0     C60517   3.517   7.567   4.263 -0.3688 -0.4403  0.6498
  449MOL0     C60518   3.614   7.620   4.366 -0.7785 -0.1092  0.4195
  449MOL0     C60519   3.762   7.569   4.338  0.8984 -0.3431  0.8472
  449MOL0     C60520   3.852   7.651   4.432 -0.7874 -0.2249  0.2492
  449MOL0     C60521   4.000   7.631   4.394  0.1538 -0.1626  0.3134
  449MOL0     C60522   4.100   7.699   4.481  0.0367  0.4579 -1.6107
  449MOL0     C60523   4.111   7.617   4.602 -0.8128 -0.1579  0.3361
  449MOL0    Cl60524   4.226   7.698   4.714  0.6177  0.7027  0.5651
  449MOL0     C60525   3.142   7.738   4.324  0.3253 -0.6268  0.5486
  449MOL0     C60526   3.014   7.792   4.323 -0.0761 -0.0161  0.4555
  449MOL0     O60527   2.910   8.123   4.462  1.1091  0.3091 -0.0896
  449MOL0     C60528   2.640   8.180   4.521  0.1409  0.3129 -0.1691
  449MOL0     C60529   2.507   8.202   4.547 -0.3528 -1.3878  0.7486
  449MOL0     N60530   1.814   8.201   4.119 -0.3240  0.1730  0.8909
  449MOL0     N60531   1.725   8.290   4.074  0.1342 -1.0517 -0.0268
  449MOL0     C60532   0.643   7.681   4.190  0.6277  0.4815 -0.1803
  449MOL0     C60533   0.517   7.625   4.211 -0.1485 -0.4253 -0.0803
  449MOL0     C60534   0.206   7.362   4.420 -0.0552 -0.0481 -0.3392
  449MOL0     C60535   0.100   7.414   4.346  0.1111 -0.3623 -0.5230
  449MOL0     C60536  -0.030   7.384   4.383 -0.0414  0.1803  0.5447
  449MOL0     C60537  -0.059   7.283   4.483 -0.3661 -0.1050  0.1811
  449MOL0     O60538  -0.182   7.255   4.524  0.3331  0.1549 -0.2256
  449MOL0     C60539  -0.265   7.213   4.421 -0.3061 -0.2620  0.2730
  449MOL0     C60540  -0.388   7.168   4.497  0.2390 -0.5365  0.4549
  449MOL0     C60541  -0.501   7.142   4.407  0.0443 -0.5186 -0.1787
  449MOL0     C60542  -0.617   7.068   4.466  0.2350  0.4894 -0.0473
  449MOL0     C60543  -0.740   7.085   4.388 -0.7899  0.6805 -0.0933
  449MOL0     C60544  -0.842   7.116   4.331  0.8500  0.0222  0.1831
  449MOL0     C60545   0.052   7.237   4.553  0.2282 -0.4826  0.3349
  449MOL0     C60546   0.182   7.272   4.525  0.6266 -0.0753  0.4308
  449MOL0     C60547   0.290   7.211   4.607 -0.0093 -0.2859  0.1545
  449MOL0     H60548   0.491   7.601   4.539 -0.5725 -1.1056 -0.3641
  449MOL0     H60549   0.722   7.711   4.526 -2.1092  0.9068  1.0918
  449MOL0     H60550   0.828   7.879   4.121  3.2259  1.9873 -0.2281
  449MOL0     H60551   0.790   7.964   4.280  1.9245  0.8430  0.3739
  449MOL0     H60552   1.050   7.877   4.218 -2.4400 -1.1319 -3.4901
  449MOL0     H60553   0.984   8.006   4.337 -0.3444  2.7674 -0.4103
  449MOL0     H60554   0.904   8.111   4.108  0.0389  1.4794 -2.4376
  449MOL0     H60555   1.005   8.001   4.024 -0.8756 -0.4584  0.4544
  449MOL0     H60556   1.096   8.230   4.056 -1.5110 -1.4148 -0.1853
  449MOL0     H60557   1.118   8.193   4.232  1.1931  0.6679 -0.1138
  449MOL0     H60558   1.261   8.055   4.227 -1.5223  1.6504  0.9647
  449MOL0     H60559   1.243   7.991   4.066 -0.7781  0.8616 -0.9207
  449MOL0     H60560   1.455   8.103   4.068  0.4187  0.7039 -1.4157
  449MOL0     H60561   1.351   8.221   3.978 -4.3942  1.9356  1.1245
  449MOL0     H60562   1.405   8.233   4.273 -1.2715  2.2621  1.1891
  449MOL0     H60563   1.295   8.334   4.184 -2.3337 -3.4582 -1.9644
  449MOL0     H60564   1.501   8.413   4.045  3.0819 -0.3128 -0.2432
  449MOL0     H60565   1.491   8.474   4.209 -0.5762 -0.9278  1.1833
  449MOL0     H60566   1.648   8.271   4.390  1.9340  0.6591  0.6529
  449MOL0     H60567   1.817   8.045   4.418 -0.1414 -1.3064 -0.2894
  449MOL0     H60568   1.932   8.016   4.283  0.6281  1.4429 -1.5597
  449MOL0     H60569   1.948   8.241   4.473  3.0092  1.1715 -0.2806
  449MOL0     H60570   2.041   8.085   4.480 -1.0491 -2.0804 -1.5612
  449MOL0     H60571   2.053   8.300   4.263  0.8859  1.2857 -0.0910
  449MOL0     H60572   2.137   8.143   4.255  0.7895  0.3381  0.9506
  449MOL0     H60573   2.180   8.379   4.446  0.3428 -0.7767  0.5676
  449MOL0     H60574   2.276   8.331   4.315 -0.4759 -2.0074 -1.3255
  449MOL0     H60575   2.379   8.079   4.257 -0.2731 -0.9906  0.3666
  449MOL0     H60576   2.612   8.030   4.214  0.2371  0.6281 -0.4216
  449MOL0     H60577   3.102   8.117   4.228  1.4147  0.0949  0.7936
  449MOL0     H60578   3.316   8.014   4.214  0.5104 -0.7014 -0.4567
  449MOL0     H60579   3.353   7.596   4.388 -0.6138  2.4365  0.3535
  449MOL0     H60580   3.321   7.589   4.204 -1.6856 -0.7674  1.0544
  449MOL0     H60581   3.515   7.457   4.259  0.1861 -0.4355 -1.9557
  449MOL0     H60582   3.555   7.602   4.166  1.0960 -1.5327  0.7851
  449MOL0     H60583   3.610   7.728   4.354  0.4660  0.0564  1.2893
  449MOL0     H60584   3.571   7.603   4.466  0.1728  3.2228  1.5130
  449MOL0     H60585   3.786   7.593   4.235  2.0698 -2.1475  0.6602
  449MOL0     H60586   3.760   7.461   4.357  2.2847 -0.2914  1.3996
  449MOL0     H60587   3.824   7.627   4.534 -0.3560 -3.6001 -0.3042
  449MOL0     H60588   3.825   7.757   4.426  2.3871  0.6212 -1.6025
  449MOL0     H60589   4.017   7.524   4.378 -0.9203 -0.4390  0.8879
  449MOL0     H60590   4.006   7.684   4.299 -1.0955  1.1511  0.9407
  449MOL0     H60591   4.069   7.797   4.518  1.9039  0.5745 -0.2271
  449MOL0     H60592   4.196   7.714   4.432  0.6927  1.3445 -0.1001
  449MOL0     H60593   4.013   7.610   4.651 -1.5841  0.5776 -1.0652
  449MOL0     H60594   4.143   7.519   4.566  2.8948  1.2849 -0.7678
  449MOL0     H60595   3.151   7.631   4.338  0.6062 -1.4819 -4.3589
  449MOL0     H60596   2.930   7.728   4.346 -1.4171  1.7509  0.7539
  449MOL0     H60597   2.714   8.220   4.590 -1.9019 -1.1337  3.1400
  449MOL0     H60598   2.484   8.239   4.646 -1.1194 -1.7616  0.7190
  449MOL0     H60599   0.681   7.699   4.090  0.5667  1.4816 -0.0306
  449MOL0     H60600   0.459   7.599   4.123  0.0175 -0.1180 -0.2840
  449MOL0     H60601   0.108   7.489   4.267 -1.6266  1.3320  0.7882
  449MOL0     H60602  -0.111   7.433   4.331  0.4802  0.1263 -0.3419
  449MOL0     H60603  -0.247   7.129   4.354 -4.4824  0.1236 -1.6129
  449MOL0     H60604  -0.286   7.302   4.361  1.9494  1.0775  1.3309
  449MOL0     H60605  -0.427   7.253   4.554 -1.1462  0.2260 -1.5172
  449MOL0     H60606  -0.360   7.079   4.554 -1.5116 -2.6607 -1.7871
  449MOL0     H60607  -0.460   7.077   4.329 -0.9289  0.5091 -1.5938
  449MOL0     H60608  -0.534   7.229   4.349 -0.2866 -1.1738 -0.9963
  449MOL0     H60609  -0.599   6.961   4.482  0.5198  0.8786  2.8797
  449MOL0     H60610  -0.652   7.100   4.565 -4.0327 -0.1554 -1.1272
  449MOL0     H60611  -0.940   7.125   4.288  1.1007 -0.7329 -0.5854
  449MOL0     H60612   0.028   7.165   4.630  0.6673 -1.4072 -0.3606
  449MOL0     H60613   0.246   7.166   4.697  0.7591  0.6054  0.9989
  449MOL0     H60614   0.350   7.133   4.560 -1.2593 -0.5969 -0.9604
  449MOL0     H60615   0.362   7.285   4.645  2.2023 -2.0642 -0.3078
  450MOL0     O60616   6.917   4.271  10.609 -0.2077  0.5117 -0.8275
  450MOL0     C60617   6.825   4.195  10.601 -0.0352 -0.1516  0.4997
  450MOL0     O60618   6.850   4.060  10.581  0.2813  0.4009 -0.5910
  450MOL0     C60619   6.977   4.013  10.571 -0.2199  1.0556 -0.0871
  450MOL0     C60620   7.067   4.017  10.679  0.1378  0.0403 -0.0339
  450MOL0     C60621   7.192   3.956  10.667  0.3093 -0.7345  0.3411
  450MOL0     C60622   7.232   3.897  10.544 -1.1957  0.0802  0.6721
  450MOL0     O60623   7.364   3.850  10.546  0.0922  1.2350 -0.5318
  450MOL0     C60624   7.440   3.833  10.424  0.3108  0.4095 -0.5531
  450MOL0     C60625   7.590   3.806  10.469 -0.1450 -0.4165  0.0014
  450MOL0     C60626   7.668   3.936  10.480 -0.6625  0.6322 -0.2079
  450MOL0     C60627   7.625   4.030  10.595  0.4518  0.5702 -1.5664
  450MOL0     C60628   7.701   4.153  10.569 -0.6352 -1.0328 -0.2276
  450MOL0     C60629   7.851   4.130  10.589 -0.8938 -0.3801 -0.2192
  450MOL0     C60630   7.953   4.253  10.609  0.3735  0.0815  0.4211
  450MOL0     C60631   7.940   4.307  10.752 -0.7987 -0.5977  0.4536
  450MOL0     N60632   8.038   4.419  10.762 -0.3057 -0.1732 -0.1183
  450MOL0     C60633   8.168   4.409  10.803  0.2814 -0.6526 -0.6770
  450MOL0     C60634   8.207   4.536  10.792  0.3945  0.1778  0.2497
  450MOL0     C60635   8.342   4.602  10.829 -0.2138 -0.1497  0.0626
  450MOL0     C60636   8.426   4.635  10.709 -0.1466  0.4863 -0.1205
  450MOL0     C60637   8.536   4.736  10.733  0.0053 -0.7136 -0.2421
  450MOL0     C60638   8.635   4.707  10.837 -0.4184  0.8746  0.0033
  450MOL0     O60639   8.689   4.572  10.810  0.4953 -0.0220  0.0174
  450MOL0     C60640   8.810   4.556  10.752  0.9530 -0.1940 -0.3024
  450MOL0     C60641   8.862   4.621  10.646 -0.0252 -0.3872  0.0525
  450MOL0     C60642   8.990   4.601  10.601 -0.1521  0.2373  0.5577
  450MOL0     C60643   9.059   4.493  10.650  0.1736  0.1930 -0.4988
  450MOL0     C60644   9.198   4.464  10.593 -0.0482  0.0893 -0.8528
  450MOL0     O60645   9.215   4.498  10.463 -0.1881  0.0896 -1.2333
  450MOL0     C60646   9.341   4.479  10.418 -0.0846  0.4538  0.2248
  450MOL0     C60647   9.373   4.365  10.346  0.2427 -0.7107  0.2440
  450MOL0     C60648   9.501   4.344  10.299  0.6715 -0.6416  0.0954
  450MOL0     C60649   9.609   4.442  10.320  0.5279  0.2930 -0.3751
  450MOL0     O60650   9.744   4.440  10.285 -0.1185  0.3505  0.2554
  450MOL0     C60651   9.794   4.354  10.181  1.0043 -0.1405  0.3223
  450MOL0     C60652   9.903   4.264  10.237  0.6741  0.4268 -0.1568
  450MOL0     C60653   9.949   4.160  10.131  0.3913  0.5304  0.1539
  450MOL0     C60654  10.012   4.037  10.197  0.3302 -0.1100 -0.6661
  450MOL0     C60655  10.071   3.944  10.088 -0.4465  0.7045 -0.2187
  450MOL0     C60656  10.153   3.831  10.155  0.7282  0.2446  0.2847
  450MOL0     C60657  10.209   3.736  10.049  0.0885 -0.3640  0.5472
  450MOL0     C60658  10.335   3.798   9.979  0.8279 -0.0283 -0.1580
  450MOL0    Cl60659  10.444   3.867  10.097 -0.1228 -0.3914 -0.0734
  450MOL0     C60660   9.577   4.544  10.404 -0.5604  0.0492 -0.1442
  450MOL0     C60661   9.451   4.565  10.453  0.0144  0.5550 -0.5238
  450MOL0     O60662   9.284   4.418  10.667  0.0101  0.2906 -0.7180
  450MOL0     C60663   9.002   4.418  10.746  0.0760 -0.0009 -0.8479
  450MOL0     C60664   8.882   4.446  10.802  0.5083  0.0405 -0.6049
  450MOL0     N60665   8.108   4.620  10.738 -0.7348 -0.0516 -0.8091
  450MOL0     N60666   8.006   4.546  10.729 -0.3299 -0.6302  0.6297
  450MOL0     C60667   7.147   3.896  10.437 -0.4760  0.1271  0.4490
  450MOL0     C60668   7.022   3.956  10.453 -0.3878 -0.2899 -0.1820
  450MOL0     C60669   6.682   4.229  10.622 -0.4599  0.5151  0.0188
  450MOL0     C60670   6.585   4.134  10.585 -0.4215  0.7872 -0.1618
  450MOL0     C60671   6.446   4.163  10.601  0.2372 -0.0239 -0.1721
  450MOL0     C60672   6.409   4.282  10.662  0.1845  0.2276 -0.0291
  450MOL0     O60673   6.275   4.320  10.678  0.2132  0.0888 -0.3412
  450MOL0     C60674   6.192   4.231  10.754 -0.1878  0.8742  0.2755
  450MOL0     C60675   6.055   4.282  10.798  0.3041 -0.1208  0.0400
  450MOL0     C60676   5.946   4.294  10.694  0.3172 -0.6284  0.6181
  450MOL0     C60677   5.930   4.182  10.593  0.4749 -0.8175 -0.2366
  450MOL0     C60678   5.933   4.052  10.662 -0.2844  0.5081  0.7058
  450MOL0     C60679   5.939   3.942  10.719 -0.8401 -0.2190  0.7891
  450MOL0     C60680   6.504   4.375  10.691 -0.2724  0.4744 -0.5095
  450MOL0     C60681   6.640   4.351  10.674 -0.6240  0.6864  0.0460
  450MOL0     C60682   6.732   4.475  10.697  0.5665 -0.6910  0.6481
  450MOL0     H60683   7.033   4.057  10.774  0.0233 -0.8273  0.3064
  450MOL0     H60684   7.267   3.973  10.744 -0.5338  2.2614  0.6414
  450MOL0     H60685   7.416   3.746  10.362 -0.1745  1.9639 -2.6476
  450MOL0     H60686   7.443   3.922  10.361  0.1337  0.6141 -0.2743
  450MOL0     H60687   7.645   3.742  10.399  3.1516  1.7021  0.4499
  450MOL0     H60688   7.607   3.748  10.561  1.2657  1.3950  0.9374
  450MOL0     H60689   7.650   3.994  10.389  2.7381  0.9523 -0.8170
  450MOL0     H60690   7.777   3.919  10.481  0.4957  5.7784 -3.0589
  450MOL0     H60691   7.519   4.054  10.593  0.7120  2.2550  0.5136
  450MOL0     H60692   7.649   3.988  10.694  0.8688 -0.6124 -2.1549
  450MOL0     H60693   7.677   4.199  10.472  2.4272 -0.3761 -0.7715
  450MOL0     H60694   7.678   4.233  10.639 -0.5370 -1.2535  0.0565
  450MOL0     H60695   7.868   4.056  10.668 -0.5726  1.1009  1.1545
  450MOL0     H60696   7.869   4.097  10.487 -2.5701  0.1574 -0.7177
  450MOL0     H60697   7.922   4.331  10.539 -3.5821 -1.7562 -0.1284
  450MOL0     H60698   8.055   4.225  10.582  0.2852 -0.4965  0.6846
  450MOL0     H60699   7.835   4.339  10.753 -1.0109 -1.2060 -0.5992
  450MOL0     H60700   7.937   4.228  10.827 -0.7851  0.6783  1.8382
  450MOL0     H60701   8.214   4.320  10.846  0.0336  0.5899  2.3828
  450MOL0     H60702   8.312   4.695  10.879  0.2191  0.2419 -0.3898
  450MOL0     H60703   8.408   4.550  10.900  0.0297 -1.9244 -1.3820
  450MOL0     H60704   8.473   4.540  10.684 -1.5132 -1.0859  2.7130
  450MOL0     H60705   8.366   4.676  10.627  0.7905  1.3864 -0.3750
  450MOL0     H60706   8.489   4.832  10.756  2.7035  0.4552  0.9154
  450MOL0     H60707   8.584   4.752  10.636  0.3796  1.2898  0.2343
  450MOL0     H60708   8.588   4.707  10.936  0.3751  1.7868  0.3989
  450MOL0     H60709   8.715   4.782  10.839 -0.5376  0.9893  1.2595
  450MOL0     H60710   8.813   4.706  10.600  0.7457  0.0362 -0.0083
  450MOL0     H60711   9.031   4.663  10.522 -1.2309  3.1042  2.1054
  450MOL0     H60712   9.303   4.287  10.320  0.0072 -0.3018 -0.3666
  450MOL0     H60713   9.517   4.259  10.233 -0.0176 -1.8039  1.3655
  450MOL0     H60714   9.715   4.290  10.140 -0.4136  1.3526  0.6426
  450MOL0     H60715   9.832   4.403  10.092 -0.3698  2.7597  1.1981
  450MOL0     H60716   9.990   4.326  10.260  1.0394 -0.0525 -0.2211
  450MOL0     H60717   9.859   4.217  10.326 -3.6424  2.7045 -0.8350
  450MOL0     H60718   9.869   4.121  10.067 -0.8178  0.5526  1.5887
  450MOL0     H60719  10.022   4.212  10.068 -1.5799  1.8891 -1.1458
  450MOL0     H60720   9.936   3.978  10.249  1.0767 -1.7623 -1.3826
  450MOL0     H60721  10.089   4.077  10.264  2.1480 -2.0906 -1.4332
  450MOL0     H60722  10.142   4.004  10.029  1.6507  0.5876  2.0473
  450MOL0     H60723   9.984   3.916  10.028 -0.4093  2.2997 -1.0865
  450MOL0     H60724  10.231   3.861  10.225 -0.1148  0.0081  1.3498
  450MOL0     H60725  10.096   3.765  10.221  1.1650  0.8340  1.2629
  450MOL0     H60726  10.132   3.707   9.978 -0.7525 -0.8114  1.6031
  450MOL0     H60727  10.239   3.643  10.097  1.1419  0.0735  0.7675
  450MOL0     H60728  10.388   3.719   9.926  1.0188 -0.4900  0.7082
  450MOL0     H60729  10.294   3.874   9.912  0.3234 -0.2341 -0.0954
  450MOL0     H60730   9.662   4.611  10.419 -0.4123 -0.1047 -0.2882
  450MOL0     H60731   9.434   4.643  10.526  0.7057  1.2463 -1.0937
  450MOL0     H60732   9.052   4.334  10.793 -2.4583 -0.4058  1.3797
  450MOL0     H60733   8.829   4.386  10.876  1.2321 -0.0659 -0.1602
  450MOL0     H60734   7.170   3.853  10.340 -3.0067  0.2405 -0.2742
  450MOL0     H60735   6.955   3.948  10.367  0.5868 -0.5778 -0.9384
  450MOL0     H60736   6.612   4.056  10.514 -0.5948  1.4633 -0.9902
  450MOL0     H60737   6.366   4.096  10.571 -0.2135  0.9338 -1.1775
  450MOL0     H60738   6.244   4.208  10.848 -2.0397 -1.7464  0.8019
  450MOL0     H60739   6.182   4.137  10.698  3.4984  0.4492  0.0579
  450MOL0     H60740   6.060   4.378  10.852  1.5348 -0.7130  1.0243
  450MOL0     H60741   6.024   4.199  10.862  0.5262 -0.3568 -0.1591
  450MOL0     H60742   5.965   4.385  10.638  1.0386  0.0802  1.9610
  450MOL0     H60743   5.855   4.311  10.753  0.9579  1.4460  1.0844
  450MOL0     H60744   5.829   4.188  10.552  0.0837  0.0423  0.7990
  450MOL0     H60745   5.993   4.183  10.504 -2.3861 -2.1902 -2.4204
  450MOL0     H60746   5.947   3.849  10.771 -1.4680  1.1393  3.5335
  450MOL0     H60747   6.479   4.473  10.730  2.0675  1.0916 -0.4024
  450MOL0     H60748   6.793   4.496  10.609  0.1227 -3.2932 -0.3570
  450MOL0     H60749   6.669   4.563  10.716  1.6315  0.3895 -0.6121
  450MOL0     H60750   6.805   4.465  10.778 -0.0215 -0.4839  1.2201
  451MOL0     O60751  10.311   9.584   7.305  0.6210  0.5035  1.3137
  451MOL0     C60752  10.281   9.470   7.339  0.0775  0.2422  0.5892
  451MOL0     O60753  10.367   9.364   7.327  0.6198  0.6077 -0.2272
  451MOL0     C60754  10.462   9.356   7.224  0.0268 -0.5369  0.6256
  451MOL0     C60755  10.475   9.232   7.166 -0.1755  0.6932 -0.4822
  451MOL0     C60756  10.551   9.212   7.045  0.2283 -0.4902 -0.5936
  451MOL0     C60757  10.618   9.322   6.993  0.3902 -0.7605 -0.5510
  451MOL0     O60758  10.697   9.322   6.881 -0.4051 -0.3251 -0.0655
  451MOL0     C60759  10.666   9.217   6.779  0.2331  0.2919 -0.5630
  451MOL0     C60760  10.767   9.222   6.667 -0.7868  0.9127 -0.7501
  451MOL0     C60761  10.896   9.157   6.696 -1.0713  0.1289 -0.2974
  451MOL0     C60762  10.982   9.220   6.809  0.6301  0.5113 -0.6251
  451MOL0     C60763  11.112   9.152   6.857 -1.3505  0.1989 -0.7781
  451MOL0     C60764  11.208   9.140   6.745 -0.4033 -0.1572  0.3688
  451MOL0     C60765  11.361   9.134   6.773 -0.0434 -0.1673  0.5322
  451MOL0     C60766  11.430   9.272   6.803 -0.4637 -0.3991  0.5102
  451MOL0     N60767  11.511   9.324   6.687 -0.2297  0.0965 -0.2766
  451MOL0     C60768  11.602   9.251   6.617  0.7454 -0.5527  0.3892
  451MOL0     C60769  11.626   9.322   6.499 -0.1740  0.0012 -0.0099
  451MOL0     C60770  11.717   9.294   6.385  0.0725 -0.4801 -0.8216
  451MOL0     C60771  11.861   9.256   6.420  0.0113 -0.0713  0.1174
  451MOL0     C60772  11.961   9.370   6.453  0.7114  0.3514 -0.1186
  451MOL0     C60773  11.908   9.460   6.573  0.8807 -0.3863  0.0265
  451MOL0     O60774  11.984   9.583   6.590  0.0207 -0.7718  0.4524
  451MOL0     C60775  12.108   9.577   6.649  0.5128  0.0420  0.5847
  451MOL0     C60776  12.214   9.589   6.566 -0.4167 -0.0182 -0.2768
  451MOL0     C60777  12.348   9.603   6.619 -0.3698  0.1724  0.3367
  451MOL0     C60778  12.368   9.584   6.759  0.6145  0.2087  0.3361
  451MOL0     C60779  12.495   9.577   6.827  0.1730  0.3310  0.0517
  451MOL0     O60780  12.598   9.644   6.772 -0.0381  0.3132  0.9607
  451MOL0     C60781  12.717   9.664   6.843  0.4943 -0.7460 -0.2082
  451MOL0     C60782  12.751   9.792   6.900  0.1337  0.6644  0.4098
  451MOL0     C60783  12.873   9.806   6.966  0.5796  0.3508  0.0759
  451MOL0     C60784  12.968   9.701   6.968 -0.1987  0.4530 -0.1957
  451MOL0     O60785  13.080   9.723   7.043  0.2689  0.1161 -0.3002
  451MOL0     C60786  13.184   9.627   7.071 -0.1903  0.6007  0.1385
  451MOL0     C60787  13.160   9.566   7.205 -0.1267  0.7943 -0.2939
  451MOL0     C60788  13.287   9.500   7.255  0.6067 -0.2819 -0.5487
  451MOL0     C60789  13.271   9.445   7.395  0.0146 -0.4375  0.5451
  451MOL0     C60790  13.356   9.318   7.405 -0.3829 -0.0001 -0.1339
  451MOL0     C60791  13.343   9.252   7.532 -0.4839 -0.6455  0.1455
  451MOL0     C60792  13.401   9.111   7.553 -0.6412 -0.2549  0.7438
  451MOL0     C60793  13.545   9.093   7.515 -0.1740  0.3801 -0.8710
  451MOL0    Cl60794  13.644   9.210   7.613  0.3744 -0.0565 -0.1142
  451MOL0     C60795  12.935   9.579   6.905  0.2214  0.7824 -0.4029
  451MOL0     C60796  12.810   9.559   6.842 -0.4754 -0.2556 -0.4252
  451MOL0     O60797  12.489   9.528   6.940 -0.1904 -0.4093  0.0320
  451MOL0     C60798  12.255   9.569   6.837  0.7565 -0.4933  0.1413
  451MOL0     C60799  12.127   9.569   6.786 -0.1619 -0.6815  0.2309
  451MOL0     N60800  11.559   9.443   6.505 -0.5163  0.2036  0.1689
  451MOL0     N60801  11.495   9.443   6.619 -0.9034 -1.0103 -0.6580
  451MOL0     C60802  10.609   9.449   7.054 -0.3589  0.3926 -1.0536
  451MOL0     C60803  10.536   9.466   7.175  0.2798  0.2640 -0.4969
  451MOL0     C60804  10.139   9.439   7.390  0.9093 -0.3595 -0.0797
  451MOL0     C60805  10.099   9.307   7.414 -0.1651 -0.0314 -1.3973
  451MOL0     C60806   9.974   9.258   7.443  0.0026 -0.3766 -0.3032
  451MOL0     C60807   9.876   9.356   7.454  0.8469  0.4096  1.1196
  451MOL0     O60808   9.737   9.337   7.481  0.2645  1.0599  0.2470
  451MOL0     C60809   9.706   9.212   7.548 -0.2357  0.0561  0.0577
  451MOL0     C60810   9.565   9.205   7.611  0.6627 -0.5814 -0.2881
  451MOL0     C60811   9.445   9.250   7.520 -0.1803 -0.0986 -0.3474
  451MOL0     C60812   9.309   9.241   7.587  0.0557 -1.3296 -0.3950
  451MOL0     C60813   9.297   9.348   7.687 -0.8399  0.5939  1.1955
  451MOL0     C60814   9.280   9.437   7.763 -0.8805  0.5341 -0.3400
  451MOL0     C60815   9.912   9.493   7.432  0.3848  0.8600 -0.0636
  451MOL0     C60816  10.041   9.538   7.406 -0.2351  0.6414 -0.2987
  451MOL0     C60817  10.076   9.679   7.408  0.8502 -0.7787  1.1169
  451MOL0     H60818  10.428   9.143   7.205  0.2623  1.3445  1.6435
  451MOL0     H60819  10.535   9.122   6.986 -3.0032 -0.6151  0.2214
  451MOL0     H60820  10.672   9.116   6.819 -2.1693 -0.3199 -1.5698
  451MOL0     H60821  10.567   9.237   6.738  0.1491 -0.5927 -0.8061
  451MOL0     H60822  10.788   9.321   6.624  0.6383  1.0547  0.2213
  451MOL0     H60823  10.718   9.160   6.591  1.1540  0.5361 -1.7473
  451MOL0     H60824  10.953   9.173   6.604  1.1671  0.5954  1.0997
  451MOL0     H60825  10.875   9.054   6.723  1.3559 -0.6689 -1.1845
  451MOL0     H60826  11.021   9.312   6.767  4.5765 -2.3967 -4.2344
  451MOL0     H60827  10.923   9.243   6.899  1.3557 -2.1700  0.6609
  451MOL0     H60828  11.167   9.213   6.929 -2.6400  0.8073 -0.2797
  451MOL0     H60829  11.094   9.057   6.908 -2.9168  1.0670  0.3725
  451MOL0     H60830  11.179   9.056   6.681  0.1386 -0.4992  0.5595
  451MOL0     H60831  11.189   9.232   6.689 -0.6082  0.7037  1.7907
  451MOL0     H60832  11.407   9.077   6.692  0.6387  0.6642  0.3150
  451MOL0     H60833  11.382   9.066   6.856 -0.6483  0.4540  1.1956
  451MOL0     H60834  11.350   9.344   6.822 -1.3728 -2.0640  3.6480
  451MOL0     H60835  11.492   9.267   6.893  0.0120  1.6120  0.3289
  451MOL0     H60836  11.627   9.149   6.644  1.9200 -0.4254 -0.1941
  451MOL0     H60837  11.681   9.210   6.326  2.3393 -1.1451 -1.3453
  451MOL0     H60838  11.725   9.382   6.320  1.0472  0.4253  0.4630
  451MOL0     H60839  11.857   9.191   6.508 -0.2368  1.6031  1.3954
  451MOL0     H60840  11.892   9.190   6.339 -2.0875 -5.4422  3.1743
  451MOL0     H60841  11.970   9.445   6.374 -0.0158 -1.0453 -1.5538
  451MOL0     H60842  12.057   9.320   6.468  1.3595  1.6408  0.2085
  451MOL0     H60843  11.902   9.397   6.662 -1.1622 -0.5845 -0.2024
  451MOL0     H60844  11.805   9.493   6.557  0.7998 -1.1150 -1.0370
  451MOL0     H60845  12.190   9.595   6.461 -0.3942  3.3386 -0.1947
  451MOL0     H60846  12.438   9.609   6.559 -0.6966  0.5984 -0.1158
  451MOL0     H60847  12.675   9.869   6.889  0.9088  1.3356 -0.5081
  451MOL0     H60848  12.894   9.899   7.018 -1.1161  0.0026  1.5059
  451MOL0     H60849  13.189   9.547   6.996  0.6144 -0.8748  1.7080
  451MOL0     H60850  13.278   9.683   7.075  0.0217  0.3563 -0.9595
  451MOL0     H60851  13.118   9.645   7.267 -4.0956 -1.0321 -0.3303
  451MOL0     H60852  13.085   9.487   7.200  0.8167 -0.3647  2.1449
  451MOL0     H60853  13.315   9.421   7.184  1.6050  1.8095 -2.6447
  451MOL0     H60854  13.364   9.578   7.254 -0.2230  0.5604 -0.5634
  451MOL0     H60855  13.171   9.402   7.402  0.8838 -2.4361  1.3871
  451MOL0     H60856  13.294   9.529   7.461 -2.5265 -0.4610  1.5722
  451MOL0     H60857  13.463   9.338   7.391 -0.4276  0.9536  0.8257
  451MOL0     H60858  13.323   9.237   7.339  0.4804 -2.5487  2.3676
  451MOL0     H60859  13.387   9.322   7.603  0.8224 -2.0122  0.7441
  451MOL0     H60860  13.237   9.256   7.559 -0.2035 -2.6126  1.7987
  451MOL0     H60861  13.332   9.047   7.496 -0.5469  0.5220 -0.2757
  451MOL0     H60862  13.389   9.081   7.657  0.0408 -1.8172  0.4121
  451MOL0     H60863  13.582   8.990   7.526  2.6179  1.2700 -1.0960
  451MOL0     H60864  13.560   9.116   7.409  1.6929  2.1637 -0.2931
  451MOL0     H60865  13.000   9.492   6.917  0.2655  1.0547  1.7026
  451MOL0     H60866  12.790   9.463   6.795  3.3773 -0.8018 -1.2402
  451MOL0     H60867  12.258   9.551   6.944 -0.3170 -3.7277 -0.2834
  451MOL0     H60868  12.046   9.576   6.858  0.2154 -0.0937  0.6013
  451MOL0     H60869  10.661   9.532   7.007  2.8203 -0.2436  1.0825
  451MOL0     H60870  10.536   9.560   7.229  0.5762  0.2664 -0.4957
  451MOL0     H60871  10.171   9.230   7.390 -1.3105 -1.5934 -0.0084
  451MOL0     H60872   9.966   9.151   7.455  3.3428 -0.5502  1.7287
  451MOL0     H60873   9.785   9.193   7.622 -0.0999 -0.2250 -0.1549
  451MOL0     H60874   9.711   9.126   7.480  2.9312 -0.6790  1.0566
  451MOL0     H60875   9.566   9.269   7.700 -0.0747 -0.7116 -0.1756
  451MOL0     H60876   9.562   9.101   7.643  0.1804  0.0123  1.7854
  451MOL0     H60877   9.450   9.199   7.424  1.6343  1.4088 -1.1110
  451MOL0     H60878   9.470   9.353   7.495 -0.7884  0.1486  0.0346
  451MOL0     H60879   9.230   9.250   7.511  0.4749 -3.5467 -1.1839
  451MOL0     H60880   9.289   9.143   7.632 -3.0011 -0.9651 -0.7357
  451MOL0     H60881   9.253   9.522   7.824  1.0672  0.0020  1.3761
  451MOL0     H60882   9.827   9.559   7.420 -0.7880  0.0609  2.7881
  451MOL0     H60883  10.100   9.713   7.307  0.4413 -1.8381  0.6404
  451MOL0     H60884   9.991   9.736   7.447 -1.7446 -2.4610 -1.6675
  451MOL0     H60885  10.163   9.700   7.471  2.3798  1.0173 -1.4384
  452MOL0     O60886  10.808   7.983   7.898  0.7211 -0.4234  0.3787
  452MOL0     C60887  10.819   8.099   7.940 -1.3344  0.3850 -0.5248
  452MOL0     O60888  10.716   8.186   7.966  1.0814  0.2993 -0.0504
  452MOL0     C60889  10.590   8.144   7.920  1.0463  1.3778 -0.2642
  452MOL0     C60890  10.526   8.044   7.990  0.4635 -0.7845  0.3348
  452MOL0     C60891  10.397   7.997   7.958  0.1028  0.4069 -0.1769
  452MOL0     C60892  10.332   8.055   7.848 -0.3441  0.5554  0.5871
  452MOL0     O60893  10.212   8.010   7.818  0.8522  0.0014 -0.4062
  452MOL0     C60894  10.118   8.099   7.757  0.4935  0.1588 -0.4455
  452MOL0     C60895   9.991   8.034   7.764  0.3549  1.0642  0.6646
  452MOL0     C60896   9.972   7.928   7.654  0.5182  0.4349  0.8134
  452MOL0     C60897   9.860   7.827   7.686  0.3039  0.1135  0.2930
  452MOL0     C60898   9.736   7.907   7.680  0.0390  0.0329 -0.3067
  452MOL0     C60899   9.615   7.814   7.688  0.3493  0.3711 -0.1958
  452MOL0     C60900   9.477   7.887   7.707 -0.3338  0.5459 -0.8822
  452MOL0     C60901   9.463   7.908   7.864  0.5847  0.3372  0.0660
  452MOL0     N60902   9.362   8.014   7.893 -0.2686  0.4970  0.4735
  452MOL0     C60903   9.252   8.037   7.819 -0.4808  0.3233  0.4148
  452MOL0     C60904   9.202   8.155   7.866 -0.6059  0.2893 -0.1768
  452MOL0     C60905   9.081   8.239   7.830  0.9257  0.1256  0.1090
  452MOL0     C60906   8.953   8.159   7.789 -0.6637 -0.4514  0.1468
  452MOL0     C60907   8.827   8.244   7.826  0.0292  0.0377  0.1387
  452MOL0     C60908   8.710   8.175   7.748  0.0143 -0.2754  1.0148
  452MOL0     O60909   8.587   8.225   7.793 -0.0210  0.1218  0.9728
  452MOL0     C60910   8.467   8.177   7.734  0.5870 -0.5923 -0.3101
  452MOL0     C60911   8.345   8.221   7.779  0.4098 -0.5559  0.1676
  452MOL0     C60912   8.223   8.178   7.726  0.4559  0.1303 -0.4989
  452MOL0     C60913   8.221   8.078   7.635  0.3267  1.4325 -0.4495
  452MOL0     C60914   8.099   8.005   7.614  0.9403  0.0084  0.3717
  452MOL0     O60915   7.991   8.045   7.693 -0.5634 -0.2797  0.9181
  452MOL0     C60916   7.876   7.965   7.690  0.4220 -0.3522  0.2341
  452MOL0     C60917   7.755   8.030   7.692  0.2319 -0.4198 -0.3242
  452MOL0     C60918   7.637   7.958   7.683  0.3503  0.6956  0.2192
  452MOL0     C60919   7.636   7.819   7.673 -0.0633  0.2699 -0.7433
  452MOL0     O60920   7.505   7.759   7.668 -0.0432  0.1116  0.7186
  452MOL0     C60921   7.483   7.675   7.559 -0.0088 -0.0965  1.6100
  452MOL0     C60922   7.411   7.755   7.448 -0.3538  0.1341  0.7454
  452MOL0     C60923   7.266   7.797   7.491  0.6322  0.1075  0.2855
  452MOL0     C60924   7.200   7.879   7.384 -0.5324 -1.0844  0.4772
  452MOL0     C60925   7.063   7.916   7.443 -0.1170 -0.2157  0.8670
  452MOL0     C60926   6.969   7.964   7.334 -0.1852 -0.9721  0.4432
  452MOL0     C60927   6.840   8.020   7.408 -0.1795  0.9722 -0.2134
  452MOL0     C60928   6.710   8.016   7.330  0.2683 -0.0211  0.0199
  452MOL0    Cl60929   6.583   8.064   7.453  0.1021 -0.3381 -0.2062
  452MOL0     C60930   7.752   7.749   7.695 -0.7143  0.1563  0.0080
  452MOL0     C60931   7.875   7.825   7.698  0.5564  1.1475 -0.2735
  452MOL0     O60932   8.098   7.920   7.523  0.7267 -0.2999  0.2991
  452MOL0     C60933   8.342   8.028   7.583  0.4785 -0.5460 -0.4290
  452MOL0     C60934   8.464   8.074   7.636 -0.4266 -0.5034 -0.3371
  452MOL0     N60935   9.276   8.202   7.977  0.3927 -0.3050 -0.2957
  452MOL0     N60936   9.377   8.120   7.982 -0.2406 -0.1525 -0.5483
  452MOL0     C60937  10.398   8.158   7.784  0.3963 -0.2959  0.2881
  452MOL0     C60938  10.521   8.206   7.818 -0.0428  0.0073  0.9317
  452MOL0     C60939  10.949   8.153   7.984  0.0139  0.2223  0.4935
  452MOL0     C60940  10.947   8.266   8.067  0.3273  0.2392  0.3069
  452MOL0     C60941  11.070   8.324   8.110  1.1044  0.7066 -0.7585
  452MOL0     C60942  11.198   8.271   8.066  0.3551  0.1596 -0.8500
  452MOL0     O60943  11.328   8.327   8.083 -0.7706 -0.6932  0.6161
  452MOL0     C60944  11.342   8.462   8.142 -0.2589  0.8918 -0.1474
  452MOL0     C60945  11.491   8.480   8.185  0.4291 -0.1916  0.6648
  452MOL0     C60946  11.511   8.585   8.296 -0.7210  0.5760 -0.2848
  452MOL0     C60947  11.665   8.631   8.297  0.4566  0.8541  0.3327
  452MOL0     C60948  11.764   8.524   8.318  0.4443  0.6781  0.4446
  452MOL0     C60949  11.842   8.441   8.361  1.0989  1.0989 -0.6272
  452MOL0     C60950  11.189   8.156   7.983 -0.4296 -0.2548  0.3329
  452MOL0     C60951  11.074   8.095   7.946 -0.8609 -0.5818  0.6564
  452MOL0     C60952  11.092   7.976   7.854  0.4425 -1.0097  0.0017
  452MOL0     H60953  10.584   8.006   8.073 -1.4279 -2.4614  0.9447
  452MOL0     H60954  10.351   7.920   8.020 -0.7588 -1.0820 -2.5420
  452MOL0     H60955  10.112   8.191   7.816 -1.9572  0.1949 -0.6633
  452MOL0     H60956  10.146   8.121   7.654  2.4753  2.6168  0.5041
  452MOL0     H60957   9.922   8.118   7.748 -0.3518  0.4567  0.4484
  452MOL0     H60958   9.981   7.993   7.865 -0.4471  2.0146  0.9840
  452MOL0     H60959  10.056   7.858   7.659 -2.0297 -2.8613  1.1798
  452MOL0     H60960   9.953   7.969   7.555 -1.2930  1.9363  1.7226
  452MOL0     H60961   9.852   7.748   7.610  0.1371  1.2846 -0.9581
  452MOL0     H60962   9.860   7.779   7.784  0.3246  0.0837  0.2784
  452MOL0     H60963   9.728   7.975   7.765 -0.3089  2.2173 -1.9838
  452MOL0     H60964   9.732   7.975   7.594 -0.0713 -1.9080 -1.9053
  452MOL0     H60965   9.610   7.761   7.592 -1.6672 -2.8062  1.4781
  452MOL0     H60966   9.618   7.730   7.759 -1.7111  0.9066  0.6158
  452MOL0     H60967   9.395   7.826   7.669  0.8595 -3.0664  1.7715
  452MOL0     H60968   9.470   7.978   7.647 -1.2046  0.3057 -1.1673
  452MOL0     H60969   9.428   7.821   7.920 -2.5833  1.5417  0.1505
  452MOL0     H60970   9.561   7.937   7.903  0.3861 -1.8779  2.4540
  452MOL0     H60971   9.218   7.978   7.735  1.0647  1.9446 -1.4271
  452MOL0     H60972   9.059   8.312   7.909  1.6851 -2.1091  2.5024
  452MOL0     H60973   9.113   8.288   7.737  2.1012 -1.5563 -0.4187
  452MOL0     H60974   8.954   8.146   7.680 -1.5382  1.1741 -0.0832
  452MOL0     H60975   8.945   8.066   7.846 -0.6933 -1.3691 -1.2849
  452MOL0     H60976   8.853   8.339   7.778  1.0728 -0.1227  0.3519
  452MOL0     H60977   8.802   8.255   7.932 -1.0603 -0.8742 -0.0074
  452MOL0     H60978   8.722   8.068   7.763 -1.7249 -1.2301 -3.2179
  452MOL0     H60979   8.720   8.188   7.640  1.6043  2.2034  1.3714
  452MOL0     H60980   8.345   8.294   7.859 -0.0633 -0.5919  0.1986
  452MOL0     H60981   8.132   8.219   7.768  3.0045  1.7230  4.2041
  452MOL0     H60982   7.757   8.139   7.686  1.4113 -0.5168 -2.2271
  452MOL0     H60983   7.539   8.003   7.669 -0.8039 -2.4587 -3.4957
  452MOL0     H60984   7.576   7.638   7.514 -0.3197  3.0061 -2.1342
  452MOL0     H60985   7.423   7.589   7.590  0.0986 -0.7697  0.0557
  452MOL0     H60986   7.470   7.845   7.424 -0.5953  0.6163  1.9162
  452MOL0     H60987   7.396   7.688   7.363 -0.2652 -0.0910  0.9069
  452MOL0     H60988   7.212   7.703   7.504  1.7966 -0.7634 -0.9363
  452MOL0     H60989   7.257   7.844   7.589 -1.8801 -2.1989  1.3080
  452MOL0     H60990   7.188   7.830   7.287  0.9746  0.1187 -0.3730
  452MOL0     H60991   7.260   7.971   7.373 -4.0160  1.1727 -1.5985
  452MOL0     H60992   7.084   7.990   7.521 -0.4115 -1.0148  1.7188
  452MOL0     H60993   7.013   7.831   7.491 -2.5490  0.9880  0.6131
  452MOL0     H60994   7.012   8.039   7.268  0.0053 -1.8748 -0.5019
  452MOL0     H60995   6.958   7.886   7.257 -1.6492 -0.3325 -0.0193
  452MOL0     H60996   6.861   8.125   7.434  0.7489  0.5933  0.6422
  452MOL0     H60997   6.823   7.968   7.503  1.4273  1.3482  0.3092
  452MOL0     H60998   6.724   8.077   7.240 -0.1651  0.9846  0.6208
  452MOL0     H60999   6.674   7.920   7.291  1.3383  0.5035 -2.4651
  452MOL0     H61000   7.767   7.642   7.697 -0.4820  0.1791 -0.6181
  452MOL0     H61001   7.969   7.770   7.698 -0.8466 -1.4606  2.2908
  452MOL0     H61002   8.332   7.954   7.505  1.0334 -1.9541  0.7782
  452MOL0     H61003   8.556   8.034   7.593  0.7401 -1.3368  2.6804
  452MOL0     H61004  10.361   8.186   7.686  0.2084 -1.5220 -0.0035
  452MOL0     H61005  10.568   8.290   7.768  1.5855  0.7927  3.5425
  452MOL0     H61006  10.855   8.312   8.102  0.1749  1.2144 -1.3111
  452MOL0     H61007  11.067   8.408   8.178 -1.2589  1.8166 -2.0999
  452MOL0     H61008  11.282   8.454   8.233 -1.1956 -2.3533 -0.9363
  452MOL0     H61009  11.310   8.541   8.073 -0.6536  1.5225  0.7334
  452MOL0     H61010  11.553   8.501   8.098 -2.2964  2.1530 -0.9117
  452MOL0     H61011  11.526   8.394   8.242  0.4843 -1.0627 -0.6498
  452MOL0     H61012  11.473   8.539   8.387 -1.5920 -3.2322 -2.3469
  452MOL0     H61013  11.445   8.669   8.270 -1.3462 -0.1237 -1.0291
  452MOL0     H61014  11.690   8.680   8.202  0.5339 -2.1157 -1.3215
  452MOL0     H61015  11.690   8.708   8.370  1.5542  2.0662 -1.2574
  452MOL0     H61016  11.914   8.369   8.396 -3.1800 -2.4645  1.8899
  452MOL0     H61017  11.291   8.129   7.955  1.0440  3.9471  0.8087
  452MOL0     H61018  11.038   7.995   7.761 -0.5538  0.3688  0.8102
  452MOL0     H61019  11.196   7.948   7.840  1.1217  1.2524  0.0290
  452MOL0     H61020  11.036   7.892   7.897  0.0547 -0.3901  0.7341
  453MOL0     O61021  10.840  10.480   8.013  0.2498 -0.2581  0.1589
  453MOL0     C61022  10.770  10.551   8.087  0.5354 -0.9306  0.4474
  453MOL0     O61023  10.818  10.641   8.175  0.1002  1.1481  0.2887
  453MOL0     C61024  10.952  10.626   8.216 -0.0413  0.5440 -0.8306
  453MOL0     C61025  11.025  10.741   8.235  0.2925 -0.1902 -0.1282
  453MOL0     C61026  11.154  10.731   8.289  0.6155  0.1217  0.3144
  453MOL0     C61027  11.219  10.608   8.306  0.1038 -0.4897  1.1867
  453MOL0     O61028  11.352  10.611   8.345 -0.2079  0.3398 -0.2166
  453MOL0     C61029  11.452  10.590   8.242 -0.3177  0.0299 -0.2806
  453MOL0     C61030  11.597  10.610   8.291 -0.5254  0.4550  0.2681
  453MOL0     C61031  11.628  10.746   8.339 -0.3879 -0.2806  0.2692
  453MOL0     C61032  11.595  10.857   8.244  0.0056 -0.7780  0.2700
  453MOL0     C61033  11.656  10.991   8.290  0.1384 -0.2092 -0.1086
  453MOL0     C61034  11.597  11.041   8.423 -0.2168  0.2016  0.6036
  453MOL0     C61035  11.615  11.197   8.431  0.2503 -0.2361 -0.4723
  453MOL0     C61036  11.619  11.226   8.584 -0.5866 -0.3523 -0.3517
  453MOL0     N61037  11.614  11.366   8.619 -0.2706 -0.1783  0.1413
  453MOL0     C61038  11.591  11.471   8.535 -0.9512  0.3533 -0.1380
  453MOL0     C61039  11.608  11.584   8.614  0.7717 -0.0915 -0.3705
  453MOL0     C61040  11.591  11.729   8.572  0.1674  0.2124  0.4120
  453MOL0     C61041  11.728  11.775   8.512 -0.2957 -0.1900  0.4644
  453MOL0     C61042  11.712  11.917   8.454  0.0232 -1.5351  0.6636
  453MOL0     C61043  11.859  11.963   8.436  0.0194  0.0864  0.5217
  453MOL0     O61044  11.871  12.100   8.396  0.1040  0.4406 -0.4007
  453MOL0     C61045  12.000  12.148   8.367 -0.4342  0.1458  0.3405
  453MOL0     C61046  12.018  12.273   8.314 -0.1435  0.3073  0.5967
  453MOL0     C61047  12.146  12.321   8.270 -0.5589 -0.4462 -0.4555
  453MOL0     C61048  12.258  12.240   8.283 -0.0094 -0.0850  0.4739
  453MOL0     C61049  12.395  12.287   8.249  0.0642 -0.7798  0.7017
  453MOL0     O61050  12.493  12.191   8.242  1.0532  0.3103 -0.1870
  453MOL0     C61051  12.614  12.241   8.217  0.4037  0.0925  0.2656
  453MOL0     C61052  12.667  12.265   8.083  0.5335 -0.5457  0.6228
  453MOL0     C61053  12.801  12.304   8.077 -0.3497 -1.0695  0.3507
  453MOL0     C61054  12.871  12.337   8.195  0.3276 -0.1101 -0.3061
  453MOL0     O61055  13.005  12.367   8.206  0.5033  0.0774 -0.2308
  453MOL0     C61056  13.074  12.349   8.080  0.3388  0.0745  0.3705
  453MOL0     C61057  13.222  12.371   8.092 -0.2908  0.0387 -0.2544
  453MOL0     C61058  13.301  12.331   7.966  0.1183 -0.9351  0.0181
  453MOL0     C61059  13.454  12.323   8.006 -0.3860  0.1128  0.3452
  453MOL0     C61060  13.537  12.352   7.875  0.9559  0.2972  0.0666
  453MOL0     C61061  13.683  12.333   7.907  0.4670 -0.4143  0.9004
  453MOL0     C61062  13.761  12.375   7.787 -0.0499 -0.5310 -0.7292
  453MOL0     C61063  13.912  12.377   7.814 -0.4806  0.2962 -0.6408
  453MOL0    Cl61064  13.992  12.415   7.663  0.0049 -0.0589  0.0566
  453MOL0     C61065  12.822  12.316   8.318  0.4491  1.0454 -0.4587
  453MOL0     C61066  12.694  12.274   8.328 -0.2230 -0.8242  0.3090
  453MOL0     O61067  12.411  12.408   8.245 -0.5226 -0.1340  0.6931
  453MOL0     C61068  12.243  12.109   8.339  0.6013  0.1438  0.1422
  453MOL0     C61069  12.115  12.064   8.375 -0.9443 -0.1091  0.3830
  453MOL0     N61070  11.638  11.542   8.746  0.6820  0.2399  0.2918
  453MOL0     N61071  11.654  11.418   8.743  0.5528 -0.0928 -0.0038
  453MOL0     C61072  11.151  10.500   8.271  0.0963 -0.0819  0.2806
  453MOL0     C61073  11.014  10.502   8.241 -0.5240  0.3097 -0.8314
  453MOL0     C61074  10.620  10.541   8.084  0.0968 -0.4105  0.2514
  453MOL0     C61075  10.548  10.578   8.193 -0.5880 -0.2591 -0.2885
  453MOL0     C61076  10.402  10.573   8.204 -0.1800  0.2886 -0.7470
  453MOL0     C61077  10.334  10.533   8.093  0.1965 -0.7076 -0.5778
  453MOL0     O61078  10.193  10.507   8.092  0.1530  0.1160 -0.2817
  453MOL0     C61079  10.138  10.459   8.219  0.2418  1.1810  0.1786
  453MOL0     C61080  10.001  10.382   8.194 -0.0940 -0.9195 -0.4638
  453MOL0     C61081   9.888  10.469   8.129  0.1029 -0.2838  0.4949
  453MOL0     C61082   9.752  10.395   8.135 -0.1231  0.6617 -0.4314
  453MOL0     C61083   9.651  10.477   8.075 -0.1404 -1.1715  0.3890
  453MOL0     C61084   9.556  10.522   8.010 -1.0520  0.6188  0.0434
  453MOL0     C61085  10.407  10.496   7.986  0.5205  0.8619  0.5063
  453MOL0     C61086  10.539  10.507   7.974  0.2679  0.0731  0.2786
  453MOL0     C61087  10.595  10.451   7.848 -0.0072  0.8396 -0.4072
  453MOL0     H61088  10.977  10.832   8.202 -1.5830 -2.1850 -3.5515
  453MOL0     H61089  11.209  10.824   8.303  0.7581 -0.3307  3.3891
  453MOL0     H61090  11.439  10.493   8.194  0.9627  0.3243 -1.2764
  453MOL0     H61091  11.440  10.655   8.154 -4.5491 -0.1406 -0.0494
  453MOL0     H61092  11.670  10.577   8.217 -1.3599  2.2054 -1.4168
  453MOL0     H61093  11.616  10.551   8.381  0.3047  2.2772  1.3488
  453MOL0     H61094  11.736  10.742   8.361 -0.2013 -1.5052 -0.8161
  453MOL0     H61095  11.570  10.758   8.431  1.7394 -1.0343  1.8101
  453MOL0     H61096  11.640  10.825   8.150  1.0070 -0.8124  0.7469
  453MOL0     H61097  11.487  10.873   8.236 -0.0622 -0.8799  0.8974
  453MOL0     H61098  11.762  10.967   8.301 -0.3771 -2.2485  0.9470
  453MOL0     H61099  11.647  11.066   8.211  0.2471 -1.4889 -1.3762
  453MOL0     H61100  11.493  11.010   8.439  0.5121 -1.3720  2.8237
  453MOL0     H61101  11.655  10.982   8.495  1.1169  1.7204  0.8428
  453MOL0     H61102  11.539  11.253   8.376 -0.6081 -0.2372  0.6699
  453MOL0     H61103  11.708  11.225   8.381  0.4798 -0.1436 -0.0016
  453MOL0     H61104  11.533  11.181   8.633 -1.4811  0.8972 -0.7250
  453MOL0     H61105  11.707  11.192   8.640 -0.2611  0.1551 -0.5472
  453MOL0     H61106  11.551  11.471   8.434 -1.2684  1.2317 -0.0185
  453MOL0     H61107  11.510  11.729   8.499 -0.5891 -0.5609  1.2218
  453MOL0     H61108  11.570  11.798   8.655 -0.9679 -0.5291  0.7595
  453MOL0     H61109  11.798  11.766   8.596  1.4853  1.1542 -0.8011
  453MOL0     H61110  11.756  11.709   8.429 -0.9923  0.4298 -0.2799
  453MOL0     H61111  11.643  11.982   8.507 -2.7579 -2.1492 -1.9446
  453MOL0     H61112  11.659  11.909   8.358  1.3778  1.1721 -0.4298
  453MOL0     H61113  11.898  11.886   8.369 -0.7949 -0.7851  1.0226
  453MOL0     H61114  11.903  11.958   8.536 -0.3862  0.7661  0.7465
  453MOL0     H61115  11.935  12.342   8.306  1.6124  2.3197 -1.1658
  453MOL0     H61116  12.156  12.424   8.237  0.2273 -0.9197 -1.8057
  453MOL0     H61117  12.613  12.235   7.994 -0.3754  1.6671  0.3815
  453MOL0     H61118  12.850  12.300   7.981 -1.4959  0.1634 -0.3314
  453MOL0     H61119  13.047  12.249   8.047 -0.7783 -0.7968  3.5922
  453MOL0     H61120  13.032  12.423   8.011  2.8655 -1.9587 -3.7451
  453MOL0     H61121  13.236  12.473   8.128  0.1586 -0.4897  1.1340
  453MOL0     H61122  13.259  12.306   8.172 -0.4885 -2.0839 -1.7854
  453MOL0     H61123  13.264  12.238   7.922 -0.8667  1.0155 -3.6177
  453MOL0     H61124  13.295  12.409   7.890  0.4321 -0.9685 -0.0440
  453MOL0     H61125  13.474  12.226   8.054 -1.6150 -1.1111 -1.5269
  453MOL0     H61126  13.476  12.409   8.070 -2.2850  2.6808 -2.1996
  453MOL0     H61127  13.516  12.451   7.833  0.6147 -0.4651 -1.5988
  453MOL0     H61128  13.521  12.276   7.798 -1.4570  1.2756 -0.4808
  453MOL0     H61129  13.710  12.396   7.992  1.0742  0.5141  0.0406
  453MOL0     H61130  13.708  12.230   7.932  1.6042 -1.4877 -3.6674
  453MOL0     H61131  13.730  12.477   7.765  0.6574 -0.3955 -1.1267
  453MOL0     H61132  13.727  12.312   7.703 -2.7320 -0.0139 -0.1320
  453MOL0     H61133  13.931  12.448   7.895 -1.0287 -0.3034  0.0355
  453MOL0     H61134  13.941  12.283   7.862  1.8896  1.7091  0.8978
  453MOL0     H61135  12.877  12.338   8.410 -0.7541  2.1710  0.0219
  453MOL0     H61136  12.649  12.240   8.421  2.8236 -1.4870  1.6439
  453MOL0     H61137  12.326  12.041   8.357  0.4228  0.2953  1.6050
  453MOL0     H61138  12.114  11.963   8.417 -1.6464 -1.2169 -2.1272
  453MOL0     H61139  11.205  10.406   8.274  0.5832  0.2303  2.0821
  453MOL0     H61140  10.960  10.411   8.218 -0.7389  0.2868 -0.2567
  453MOL0     H61141  10.599  10.623   8.278 -2.0432 -1.4910  1.3156
  453MOL0     H61142  10.357  10.605   8.298  1.7173  1.5960 -0.2215
  453MOL0     H61143  10.130  10.543   8.289  0.4585  1.3610 -0.0110
  453MOL0     H61144  10.205  10.387   8.266 -4.4266 -2.9064  1.3368
  453MOL0     H61145   9.967  10.361   8.296  2.9760  1.3141  1.2053
  453MOL0     H61146  10.020  10.290   8.139  1.7973 -0.6599 -0.2969
  453MOL0     H61147   9.921  10.488   8.027 -1.8050  1.1804  0.1065
  453MOL0     H61148   9.873  10.566   8.178 -5.0839  0.4142 -1.7539
  453MOL0     H61149   9.763  10.294   8.093  1.2296 -0.0727  1.5150
  453MOL0     H61150   9.719  10.378   8.238  0.2973  3.9021  0.3407
  453MOL0     H61151   9.477  10.554   7.945 -3.9327 -1.2371  2.3624
  453MOL0     H61152  10.349  10.460   7.902 -0.8538  3.2459  0.3443
  453MOL0     H61153  10.638  10.524   7.779  0.0121  0.9888 -0.2362
  453MOL0     H61154  10.668  10.378   7.886 -2.5574 -0.7128  1.8854
  453MOL0     H61155  10.517  10.387   7.805 -0.2848 -2.3791  4.1271
  454MOL0     O61156   9.262  10.707   5.602 -1.0308  0.0292 -0.1796
  454MOL0     C61157   9.197  10.700   5.707 -0.0205  0.0023 -0.0085
  454MOL0     O61158   9.240  10.720   5.829 -0.0740  0.5776  0.3623
  454MOL0     C61159   9.366  10.756   5.852  0.3703  0.4191  0.4753
  454MOL0     C61160   9.413  10.722   5.978  1.4118 -0.5617  0.5968
  454MOL0     C61161   9.534  10.762   6.021 -0.5221 -0.8940  0.0875
  454MOL0     C61162   9.621  10.847   5.942  0.1796 -0.2193 -0.6623
  454MOL0     O61163   9.744  10.887   5.988 -0.0081  1.3515  0.0077
  454MOL0     C61164   9.773  10.908   6.128  0.8588  0.7608  0.0605
  454MOL0     C61165   9.760  11.055   6.175 -0.0464 -0.0599  0.6044
  454MOL0     C61166   9.827  11.159   6.089  0.3415  0.0104  0.3023
  454MOL0     C61167   9.981  11.148   6.103  0.0519 -0.2099 -0.2057
  454MOL0     C61168  10.059  11.236   6.004  0.0983  0.4624  0.5180
  454MOL0     C61169  10.212  11.210   5.996 -0.7659  0.3644 -0.2139
  454MOL0     C61170  10.278  11.299   5.892  0.3032  0.8038 -0.6368
  454MOL0     C61171  10.429  11.261   5.858 -0.3997  0.1904  0.5231
  454MOL0     N61172  10.528  11.294   5.964 -0.1039 -0.0295  0.1291
  454MOL0     C61173  10.662  11.318   5.942  0.4857  0.1115  0.0942
  454MOL0     C61174  10.713  11.353   6.066  0.0136 -0.1094 -0.1396
  454MOL0     C61175  10.858  11.373   6.100 -0.8362 -0.4441 -0.4109
  454MOL0     C61176  10.891  11.349   6.259  0.6192 -0.0799  0.2642
  454MOL0     C61177  11.037  11.380   6.308 -0.6235  0.4582 -1.0782
  454MOL0     C61178  11.086  11.528   6.283 -0.5096 -0.2252 -0.9530
  454MOL0     O61179  11.208  11.573   6.344  0.2393 -0.2245  0.3412
  454MOL0     C61180  11.299  11.650   6.271 -0.7721 -0.3589  0.3710
  454MOL0     C61181  11.280  11.703   6.141 -0.3968  0.1250 -0.4826
  454MOL0     C61182  11.373  11.784   6.086 -0.0846 -0.6662  1.1907
  454MOL0     C61183  11.501  11.774   6.139  0.2692 -0.4553 -0.6183
  454MOL0     C61184  11.608  11.848   6.071 -0.4077 -0.0762 -0.5888
  454MOL0     O61185  11.567  11.948   5.986 -0.7529 -0.1574 -0.2622
  454MOL0     C61186  11.647  12.008   5.892 -0.3145 -0.0499  0.0754
  454MOL0     C61187  11.758  12.094   5.919 -0.2845  0.0371  0.5462
  454MOL0     C61188  11.837  12.149   5.823  0.0895 -1.1867  0.4730
  454MOL0     C61189  11.811  12.120   5.682  0.5984 -0.2855  0.2731
  454MOL0     O61190  11.889  12.166   5.576  0.4324 -0.7078 -0.4414
  454MOL0     C61191  12.019  12.216   5.590  0.6389 -0.7725 -0.6576
  454MOL0     C61192  12.054  12.262   5.449 -0.4391 -0.4909  0.6312
  454MOL0     C61193  12.202  12.264   5.447  0.3318 -0.3183  0.3866
  454MOL0     C61194  12.272  12.367   5.533 -0.3636 -0.4028 -0.3475
  454MOL0     C61195  12.336  12.300   5.662 -0.5468  0.1091  0.1488
  454MOL0     C61196  12.461  12.217   5.622 -0.5237  0.2380 -0.0462
  454MOL0     C61197  12.557  12.180   5.736 -0.4439  0.2827  1.0213
  454MOL0     C61198  12.668  12.275   5.764  0.5135 -0.7375 -0.6878
  454MOL0    Cl61199  12.793  12.288   5.637  0.2323  0.0705  0.2399
  454MOL0     C61200  11.709  12.033   5.650  0.1074  0.2274 -0.1594
  454MOL0     C61201  11.637  11.970   5.755  0.7060  0.5757  0.0336
  454MOL0     O61202  11.722  11.820   6.099 -0.1870  0.0536 -0.0358
  454MOL0     C61203  11.529  11.711   6.263  0.3912 -0.9006 -0.3990
  454MOL0     C61204  11.418  11.653   6.328 -1.0496  0.2956  0.3969
  454MOL0     N61205  10.597  11.374   6.140  0.2340  0.5545  0.0583
  454MOL0     N61206  10.495  11.331   6.088 -0.0565  0.7919  0.9373
  454MOL0     C61207   9.575  10.879   5.819 -0.9684  0.6075 -0.0661
  454MOL0     C61208   9.445  10.839   5.773  1.3389 -0.2052  0.4184
  454MOL0     C61209   9.056  10.652   5.688 -0.3299  1.3454  0.3038
  454MOL0     C61210   9.016  10.612   5.556 -0.5160 -1.3722  0.0002
  454MOL0     C61211   8.891  10.563   5.531  0.7563 -0.1808  0.2748
  454MOL0     C61212   8.797  10.555   5.623  0.5843  0.0925  0.1490
  454MOL0     O61213   8.658  10.524   5.606 -0.5730  0.0985 -0.1027
  454MOL0     C61214   8.600  10.486   5.476 -0.7830  0.2588  1.4529
  454MOL0     C61215   8.660  10.348   5.434  0.0179 -0.4047 -0.1882
  454MOL0     C61216   8.600  10.238   5.514  0.7545 -0.3328 -0.0871
  454MOL0     C61217   8.650  10.095   5.484 -0.3692  0.3774  0.1266
  454MOL0     C61218   8.609  10.058   5.349  0.3581  0.0796 -0.2000
  454MOL0     C61219   8.598  10.005   5.241  0.0125 -0.1698 -0.1422
  454MOL0     C61220   8.828  10.594   5.751 -0.3234  0.5933 -0.6198
  454MOL0     C61221   8.954  10.632   5.786 -0.1901 -1.4316 -0.3595
  454MOL0     C61222   8.980  10.670   5.924  0.2126  0.5131 -0.8674
  454MOL0     H61223   9.358  10.669   6.056 -1.5900  0.8724 -0.3856
  454MOL0     H61224   9.567  10.729   6.119  0.5114 -0.1112  0.0227
  454MOL0     H61225   9.727  10.840   6.199  3.1482 -2.3369 -1.2160
  454MOL0     H61226   9.879  10.882   6.139  0.3843 -0.7672  1.4175
  454MOL0     H61227   9.794  11.049   6.278 -0.8284 -1.4286  0.8039
  454MOL0     H61228   9.654  11.077   6.186 -0.2187 -0.5023 -0.0983
  454MOL0     H61229   9.789  11.254   6.128  2.8520  1.0734  0.3697
  454MOL0     H61230   9.795  11.162   5.984  1.4176 -0.0379 -0.0491
  454MOL0     H61231  10.011  11.178   6.204 -1.6831 -1.0246  0.6058
  454MOL0     H61232  10.017  11.045   6.090  2.6396  0.2401  2.3001
  454MOL0     H61233  10.025  11.211   5.903  1.8592 -1.8769  0.4209
  454MOL0     H61234  10.053  11.342   6.030 -4.7859 -0.0987  2.8086
  454MOL0     H61235  10.248  11.230   6.097 -0.2576 -0.3032 -0.2517
  454MOL0     H61236  10.243  11.106   5.979 -2.5314 -0.2099 -0.1018
  454MOL0     H61237  10.276  11.400   5.934 -1.7646  0.8192 -0.6671
  454MOL0     H61238  10.222  11.288   5.799  3.0395 -0.3984 -2.2844
  454MOL0     H61239  10.436  11.154   5.832 -0.6257  0.2784  0.0881
  454MOL0     H61240  10.471  11.313   5.771  2.0074 -0.4500  1.2389
  454MOL0     H61241  10.709  11.304   5.845  4.7248  1.0685  1.7842
  454MOL0     H61242  10.910  11.298   6.039 -2.5971 -5.0265  3.1200
  454MOL0     H61243  10.892  11.472   6.068 -3.0627 -0.1441 -2.0648
  454MOL0     H61244  10.829  11.417   6.319 -0.1640  0.3740 -1.0216
  454MOL0     H61245  10.863  11.250   6.296  0.1598  0.6027  1.8288
  454MOL0     H61246  11.097  11.313   6.245  0.2015  0.5033 -0.3510
  454MOL0     H61247  11.050  11.355   6.413 -1.9288  0.4964 -0.8878
  454MOL0     H61248  11.006  11.598   6.313 -1.5715 -1.0948 -1.6894
  454MOL0     H61249  11.082  11.547   6.175 -1.9146  2.9292 -0.4857
  454MOL0     H61250  11.184  11.700   6.090 -1.8095 -1.8580  1.9893
  454MOL0     H61251  11.356  11.836   5.992 -1.2469 -0.5206  1.4720
  454MOL0     H61252  11.780  12.106   6.025  0.2796  3.4373  0.1369
  454MOL0     H61253  11.918  12.211   5.858 -0.3935 -0.5625  0.4896
  454MOL0     H61254  12.015  12.300   5.660 -0.8541 -1.6821  0.4110
  454MOL0     H61255  12.089  12.141   5.628  0.5137 -0.6151 -0.1057
  454MOL0     H61256  12.001  12.197   5.378 -1.9937 -1.7646  2.8189
  454MOL0     H61257  12.022  12.365   5.434  3.6011  1.3142  2.7277
  454MOL0     H61258  12.244  12.163   5.453 -1.0266 -0.8749  1.0691
  454MOL0     H61259  12.225  12.288   5.343 -2.2848 -0.0930 -0.2000
  454MOL0     H61260  12.199  12.439   5.570 -0.1465  0.0209 -0.7354
  454MOL0     H61261  12.340  12.425   5.470 -0.3899  0.6504  0.5722
  454MOL0     H61262  12.271  12.234   5.719  0.2261  1.0266  2.1914
  454MOL0     H61263  12.368  12.379   5.731  0.2219  0.1705 -0.2699
  454MOL0     H61264  12.420  12.127   5.575 -0.4171 -0.8331  1.7819
  454MOL0     H61265  12.522  12.269   5.548  1.5564  0.0560  1.4421
  454MOL0     H61266  12.596  12.081   5.713 -1.0850  0.3130 -0.3224
  454MOL0     H61267  12.504  12.176   5.832 -0.9859  2.9889  0.9277
  454MOL0     H61268  12.644  12.377   5.795 -1.5090 -1.2699 -0.3318
  454MOL0     H61269  12.714  12.230   5.852 -1.4153  1.0139  1.3323
  454MOL0     H61270  11.669  12.008   5.552 -1.4392  0.7634  0.3115
  454MOL0     H61271  11.560  11.895   5.741  1.0403  0.3455 -0.5838
  454MOL0     H61272  11.626  11.724   6.311 -0.5641  0.1608  1.3279
  454MOL0     H61273  11.424  11.604   6.425 -3.7668 -1.7571 -0.3557
  454MOL0     H61274   9.637  10.931   5.747  0.5479 -0.0957  0.6831
  454MOL0     H61275   9.416  10.878   5.677  0.7588 -2.8975 -0.6008
  454MOL0     H61276   9.085  10.623   5.473  2.2041  0.7373  2.3019
  454MOL0     H61277   8.864  10.534   5.430  3.4729  1.3068 -0.9820
  454MOL0     H61278   8.631  10.557   5.399 -0.5659 -1.2064  0.1575
  454MOL0     H61279   8.491  10.487   5.486 -1.0393  0.8104 -0.9479
  454MOL0     H61280   8.768  10.351   5.450  0.0279  0.4799 -0.3991
  454MOL0     H61281   8.636  10.324   5.330 -1.2770 -0.4251  0.1012
  454MOL0     H61282   8.495  10.242   5.486  0.5259  0.6267  0.8590
  454MOL0     H61283   8.612  10.261   5.620 -0.3139  1.7050 -0.3724
  454MOL0     H61284   8.757  10.097   5.503 -0.8050 -0.4785  3.2026
  454MOL0     H61285   8.618  10.018   5.556 -0.4613 -0.4976 -0.8225
  454MOL0     H61286   8.596   9.970   5.140  0.9708 -1.2384  0.1805
  454MOL0     H61287   8.750  10.570   5.823  0.9451  1.2982  1.0510
  454MOL0     H61288   9.060  10.607   5.965  0.0347  0.0101 -1.2872
  454MOL0     H61289   9.017  10.772   5.939  1.9185  0.0228 -1.5120
  454MOL0     H61290   8.895  10.661   5.993  1.7061 -1.8394  0.8673
  455MOL0     O61291   3.954   9.211   2.891 -0.1121 -0.8352  0.2799
  455MOL0     C61292   3.907   9.097   2.915 -0.0351 -0.6746 -0.0428
  455MOL0     O61293   3.981   8.991   2.961  0.3112  0.8042  0.8013
  455MOL0     C61294   4.086   9.030   3.040  0.2022 -0.3022  0.0383
  455MOL0     C61295   4.198   8.949   3.021  0.2472 -0.0932 -0.1675
  455MOL0     C61296   4.309   8.966   3.107 -0.1272 -0.0797 -0.2056
  455MOL0     C61297   4.314   9.068   3.200  1.3023 -0.3883  0.1373
  455MOL0     O61298   4.423   9.101   3.277 -0.1275 -0.3906  0.5056
  455MOL0     C61299   4.535   9.023   3.263  1.2785  0.1185  0.5629
  455MOL0     C61300   4.659   9.077   3.335  0.2229  0.5581 -0.0890
  455MOL0     C61301   4.795   9.012   3.290  0.1154  0.8202 -1.0483
  455MOL0     C61302   4.904   9.061   3.381  0.1620 -0.5625 -0.0030
  455MOL0     C61303   5.043   9.067   3.313 -0.7882 -0.1061 -0.4594
  455MOL0     C61304   5.107   8.928   3.323 -0.8675 -0.0036 -0.7007
  455MOL0     C61305   5.254   8.934   3.281 -0.6375  0.1878  1.1076
  455MOL0     C61306   5.332   8.795   3.305  0.3430 -0.3663  0.7944
  455MOL0     N61307   5.476   8.820   3.281  0.0822  0.1903 -0.3192
  455MOL0     C61308   5.547   8.937   3.285 -0.0278  0.1051 -0.1293
  455MOL0     C61309   5.668   8.901   3.238 -1.5072  0.8470 -0.2271
  455MOL0     C61310   5.788   8.993   3.233  0.5448 -0.2768  0.5374
  455MOL0     C61311   5.916   8.941   3.313 -0.2344 -0.6183  0.3313
  455MOL0     C61312   5.866   8.926   3.464  0.8773 -0.0499  0.0961
  455MOL0     C61313   5.946   9.001   3.566  0.8336  0.2445 -0.1773
  455MOL0     O61314   6.076   8.936   3.565 -0.4173  0.3576 -0.1184
  455MOL0     C61315   6.180   8.988   3.487 -0.2150 -0.5005  0.2624
  455MOL0     C61316   6.248   8.901   3.397 -0.9745  0.0846 -0.2870
  455MOL0     C61317   6.354   8.939   3.318  0.4286 -0.0760  0.0698
  455MOL0     C61318   6.398   9.069   3.326 -0.2253  0.1927 -0.1308
  455MOL0     C61319   6.508   9.119   3.243 -0.3076  0.8342 -0.2899
  455MOL0     O61320   6.553   9.027   3.156 -0.3432 -0.0167  0.0286
  455MOL0     C61321   6.675   9.059   3.105 -0.0544 -0.0221 -0.5569
  455MOL0     C61322   6.786   9.090   3.189  0.5810  0.6193 -0.4955
  455MOL0     C61323   6.910   9.117   3.136 -0.6690 -0.3122 -0.5663
  455MOL0     C61324   6.927   9.112   3.002 -0.4908 -0.0234  0.0530
  455MOL0     O61325   7.057   9.145   2.968 -0.4573  0.0322  0.0585
  455MOL0     C61326   7.095   9.165   2.829  0.4989 -0.1281 -1.1926
  455MOL0     C61327   7.224   9.237   2.811  0.0517  0.3724 -0.1506
  455MOL0     C61328   7.344   9.158   2.881 -0.2172 -0.9794 -0.0276
  455MOL0     C61329   7.474   9.242   2.857  0.3113 -0.1036 -0.6205
  455MOL0     C61330   7.594   9.178   2.937  0.3168  0.2809  0.5076
  455MOL0     C61331   7.709   9.250   2.883 -0.1929  0.4318  0.8152
  455MOL0     C61332   7.827   9.211   2.962 -0.0423 -0.3270  0.2266
  455MOL0     C61333   7.960   9.287   2.921 -0.2950 -1.0578 -0.1337
  455MOL0    Cl61334   7.953   9.465   2.977  0.0934 -0.1777 -0.0753
  455MOL0     C61335   6.824   9.073   2.909  0.4804  0.5229 -0.3125
  455MOL0     C61336   6.702   9.038   2.968 -0.5819 -0.2418  0.1066
  455MOL0     O61337   6.551   9.236   3.260 -0.4324  0.4708 -0.2589
  455MOL0     C61338   6.331   9.150   3.412 -1.6633 -0.1152 -0.6000
  455MOL0     C61339   6.230   9.118   3.499  0.0511  0.2712 -0.4633
  455MOL0     N61340   5.665   8.764   3.210  0.1674  0.9188  0.8491
  455MOL0     N61341   5.553   8.711   3.241  0.1312 -0.1342  0.5056
  455MOL0     C61342   4.197   9.149   3.222 -0.1193 -0.3532  0.2644
  455MOL0     C61343   4.082   9.128   3.138 -0.3866 -0.7961  0.1172
  455MOL0     C61344   3.761   9.084   2.882  0.6531  0.3810  0.9284
  455MOL0     C61345   3.712   8.952   2.905 -0.3698 -0.3191 -0.1919
  455MOL0     C61346   3.574   8.928   2.888 -0.7828  0.2287 -0.0538
  455MOL0     C61347   3.484   9.025   2.838  0.6772 -0.3858 -0.5353
  455MOL0     O61348   3.350   9.008   2.828 -0.3526 -0.5970 -0.9101
  455MOL0     C61349   3.296   8.875   2.814 -0.2639 -0.1631  0.1114
  455MOL0     C61350   3.150   8.871   2.779  0.4345  0.0432 -0.0364
  455MOL0     C61351   3.084   8.736   2.792  0.2833  0.0793  0.0600
  455MOL0     C61352   2.934   8.759   2.780  0.6795 -0.7284 -0.6177
  455MOL0     C61353   2.853   8.634   2.801  0.8161 -0.1435  0.0704
  455MOL0     C61354   2.776   8.540   2.803 -0.2601  0.6141 -0.0885
  455MOL0     C61355   3.535   9.154   2.828 -0.2649  0.4028  1.0304
  455MOL0     C61356   3.674   9.184   2.835 -0.1103  0.4300 -0.6938
  455MOL0     C61357   3.710   9.320   2.788 -0.7387 -0.3992 -0.1068
  455MOL0     H61358   4.211   8.873   2.946 -0.4376 -2.3672  1.8965
  455MOL0     H61359   4.393   8.902   3.084  0.6420  1.0051 -0.5016
  455MOL0     H61360   4.511   8.922   3.299  1.5963 -1.0806 -2.2880
  455MOL0     H61361   4.564   9.013   3.158  0.6863  0.2648  0.3786
  455MOL0     H61362   4.642   9.061   3.442 -1.3382 -2.6590 -0.6967
  455MOL0     H61363   4.668   9.185   3.317  0.6153  0.8752  1.8213
  455MOL0     H61364   4.811   9.045   3.186 -4.4663 -2.1416 -3.0415
  455MOL0     H61365   4.798   8.903   3.296  0.5853  0.9111  1.0980
  455MOL0     H61366   4.872   9.160   3.412  3.3234  0.5679 -0.0649
  455MOL0     H61367   4.900   9.022   3.483 -0.4565  3.4407  1.6731
  455MOL0     H61368   5.033   9.096   3.208  0.9985 -2.1957 -1.2834
  455MOL0     H61369   5.103   9.142   3.366 -1.4218 -0.3221  0.6045
  455MOL0     H61370   5.095   8.886   3.423  0.5211  2.2747  0.5141
  455MOL0     H61371   5.053   8.865   3.252 -0.3914 -1.6364  0.3487
  455MOL0     H61372   5.302   9.009   3.345  1.6625 -0.1955 -0.0711
  455MOL0     H61373   5.262   8.961   3.175 -2.2034  2.0095  1.3973
  455MOL0     H61374   5.328   8.772   3.412  1.0633  0.8775  1.1166
  455MOL0     H61375   5.290   8.721   3.236 -2.3379 -1.3952  3.3010
  455MOL0     H61376   5.524   9.041   3.306  0.8329  0.2419  0.1836
  455MOL0     H61377   5.825   9.010   3.132 -0.4084  0.3914  0.2793
  455MOL0     H61378   5.757   9.090   3.272 -4.2104  0.6243 -4.2519
  455MOL0     H61379   5.971   8.852   3.280 -0.9355 -1.6418  1.7719
  455MOL0     H61380   5.987   9.024   3.306 -0.7912 -0.1255  0.4804
  455MOL0     H61381   5.852   8.819   3.481  1.5762 -0.5925 -2.3985
  455MOL0     H61382   5.769   8.975   3.466 -0.5668 -2.7359  1.5678
  455MOL0     H61383   5.905   8.992   3.667  1.7337  1.6512  0.3247
  455MOL0     H61384   5.939   9.108   3.544 -0.9209  0.3109  0.5284
  455MOL0     H61385   6.217   8.796   3.399  0.2185 -0.2978 -0.8346
  455MOL0     H61386   6.402   8.877   3.242  1.3191  2.1913 -1.3330
  455MOL0     H61387   6.794   9.082   3.297  2.0610  0.0487 -0.6282
  455MOL0     H61388   6.998   9.124   3.199 -0.4358 -2.0679 -0.6499
  455MOL0     H61389   7.095   9.063   2.788 -0.3977 -0.6499  0.0328
  455MOL0     H61390   7.019   9.219   2.772 -0.6795 -1.6552 -1.1451
  455MOL0     H61391   7.243   9.247   2.704  0.2935 -0.2919 -0.1738
  455MOL0     H61392   7.220   9.342   2.844 -0.0677  0.5121 -0.6157
  455MOL0     H61393   7.331   9.143   2.989  1.5753  2.5231  0.8510
  455MOL0     H61394   7.355   9.061   2.832  1.4345 -0.9969  0.3071
  455MOL0     H61395   7.460   9.344   2.892  0.0128 -0.9417  1.8797
  455MOL0     H61396   7.500   9.243   2.750  2.0209 -0.1471 -0.2299
  455MOL0     H61397   7.585   9.070   2.925 -2.9487  0.3479  1.3241
  455MOL0     H61398   7.585   9.207   3.042  0.6170  0.3795  0.5083
  455MOL0     H61399   7.722   9.215   2.780  0.7603 -1.4647  1.5305
  455MOL0     H61400   7.693   9.357   2.870 -0.7667  0.0269 -3.8292
  455MOL0     H61401   7.848   9.103   2.966 -1.7580 -0.6596  0.9352
  455MOL0     H61402   7.813   9.238   3.067 -0.5994 -1.2358  0.4023
  455MOL0     H61403   8.052   9.235   2.944 -1.0089 -2.9781 -1.3833
  455MOL0     H61404   7.956   9.302   2.813 -1.2780 -2.3714 -0.3079
  455MOL0     H61405   6.828   9.106   2.806  0.0081  0.3076 -0.4005
  455MOL0     H61406   6.621   9.005   2.903 -0.4681 -1.4816  0.5588
  455MOL0     H61407   6.350   9.256   3.402 -1.6217  0.1190  1.4385
  455MOL0     H61408   6.182   9.183   3.571  0.0709 -0.3367  0.1070
  455MOL0     H61409   4.200   9.237   3.285  0.2504 -0.7474  0.8040
  455MOL0     H61410   3.994   9.190   3.155 -0.7354 -1.5883  1.2654
  455MOL0     H61411   3.763   8.866   2.947  1.3876  0.9072  0.2779
  455MOL0     H61412   3.526   8.836   2.918  2.0281 -1.1799  0.4500
  455MOL0     H61413   3.304   8.812   2.903 -0.1672  0.1595  0.3352
  455MOL0     H61414   3.350   8.821   2.736 -1.1476  0.4975 -1.0124
  455MOL0     H61415   3.132   8.917   2.682  1.5558  0.6147  0.0149
  455MOL0     H61416   3.098   8.931   2.854  1.5842 -0.9692  1.6481
  455MOL0     H61417   3.095   8.697   2.893  0.7560  2.0225  0.8062
  455MOL0     H61418   3.117   8.656   2.726 -0.8788 -0.3903  0.0143
  455MOL0     H61419   2.905   8.825   2.862 -0.7748 -1.3548 -0.6019
  455MOL0     H61420   2.896   8.807   2.689  0.2835  1.5559  0.6773
  455MOL0     H61421   2.695   8.471   2.814  1.0139 -0.8377  0.6296
  455MOL0     H61422   3.458   9.224   2.797 -1.0646 -1.7849 -2.4585
  455MOL0     H61423   3.621   9.384   2.791 -0.7311 -0.3993  0.1992
  455MOL0     H61424   3.781   9.363   2.860  2.6332 -3.7513 -1.0572
  455MOL0     H61425   3.749   9.321   2.686  1.7694 -0.9490  0.7624
  456MOL0     O61426   0.449   5.705   3.942  0.5029  0.3715 -0.4048
  456MOL0     C61427   0.459   5.592   3.898 -0.0228 -0.1375  0.1957
  456MOL0     O61428   0.575   5.527   3.879 -0.3170  0.2011  0.3204
  456MOL0     C61429   0.692   5.580   3.925 -0.7765  0.4910  0.0830
  456MOL0     C61430   0.701   5.604   4.068 -0.3687 -0.3082  0.2042
  456MOL0     C61431   0.825   5.599   4.133  0.7922 -0.7817 -0.5250
  456MOL0     C61432   0.941   5.597   4.060  0.7005 -0.1742  0.2626
  456MOL0     O61433   1.059   5.621   4.128 -0.1680  0.4386 -0.6737
  456MOL0     C61434   1.170   5.543   4.085 -0.3640 -0.1351  0.1326
  456MOL0     C61435   1.252   5.536   4.211 -0.9445 -1.1039 -0.3244
  456MOL0     C61436   1.397   5.475   4.183  0.0961 -0.6956  0.0708
  456MOL0     C61437   1.395   5.329   4.133 -0.2040 -0.7790 -0.1820
  456MOL0     C61438   1.534   5.271   4.148 -0.9802 -0.9731  0.2330
  456MOL0     C61439   1.650   5.357   4.086  0.3637  0.0642  0.8447
  456MOL0     C61440   1.785   5.320   4.135 -0.1395  0.5028  0.6352
  456MOL0     C61441   1.838   5.183   4.084 -0.6879 -0.0865 -0.7380
  456MOL0     N61442   1.972   5.168   4.142 -0.6065 -0.0432 -0.4309
  456MOL0     C61443   2.086   5.224   4.088  1.5621 -0.4759  0.9811
  456MOL0     C61444   2.186   5.212   4.171  0.6832  0.3378 -1.3364
  456MOL0     C61445   2.308   5.289   4.172 -0.8188 -1.4936 -0.1885
  456MOL0     C61446   2.416   5.259   4.062  0.6457  0.3300 -0.0961
  456MOL0     C61447   2.543   5.320   4.103 -0.0482 -0.2666  0.6277
  456MOL0     C61448   2.647   5.295   3.992 -0.0511 -0.4562 -0.7377
  456MOL0     O61449   2.763   5.383   4.010  0.0214 -0.6540  0.3888
  456MOL0     C61450   2.891   5.335   4.014 -0.7041 -0.5064  0.4489
  456MOL0     C61451   2.990   5.423   4.069 -0.1103  0.1776 -1.7124
  456MOL0     C61452   3.130   5.396   4.068 -0.4321 -0.2402 -0.2599
  456MOL0     C61453   3.170   5.269   4.012 -0.8828 -0.5743 -0.5085
  456MOL0     C61454   3.315   5.236   4.009  0.2140  0.4010  0.9473
  456MOL0     O61455   3.351   5.134   3.932 -0.4917 -0.2045 -0.1233
  456MOL0     C61456   3.483   5.096   3.935 -0.0667 -0.2470  0.4361
  456MOL0     C61457   3.564   5.087   3.817 -0.1319 -0.0558  0.0535
  456MOL0     C61458   3.703   5.050   3.823  0.0306 -0.1438 -0.7506
  456MOL0     C61459   3.758   4.988   3.941  0.4973 -0.2045 -0.7486
  456MOL0     O61460   3.889   4.944   3.934 -0.3680 -0.0834 -0.7850
  456MOL0     C61461   3.942   4.866   4.046  0.4426 -0.1886 -0.2301
  456MOL0     C61462   4.018   4.949   4.150  0.1158  0.4492  0.3938
  456MOL0     C61463   4.064   4.868   4.273 -0.2111 -0.3104 -0.1158
  456MOL0     C61464   4.159   4.752   4.248 -1.1012 -0.1991 -0.4150
  456MOL0     C61465   4.299   4.792   4.198  0.1974  0.1672 -0.1861
  456MOL0     C61466   4.395   4.674   4.199 -0.4047  0.1233 -0.1688
  456MOL0     C61467   4.536   4.707   4.150 -1.1742 -0.1561 -0.8270
  456MOL0     C61468   4.541   4.774   4.010  0.5481  0.3548  0.5795
  456MOL0    Cl61469   4.482   4.665   3.878 -0.5083 -0.1872  0.2128
  456MOL0     C61470   3.663   4.978   4.055  0.2463  0.3339  0.0981
  456MOL0     C61471   3.537   5.033   4.050  0.6655  0.2262  0.5652
  456MOL0     O61472   3.393   5.310   4.066 -0.3183  0.9737  0.2374
  456MOL0     C61473   3.067   5.181   3.966 -0.0173 -0.2584 -0.1478
  456MOL0     C61474   2.933   5.211   3.959  0.0628 -0.5491  0.2816
  456MOL0     N61475   2.131   5.127   4.274 -1.0302  0.1626  0.1027
  456MOL0     N61476   2.005   5.108   4.255  0.6752  0.6817  1.1493
  456MOL0     C61477   0.934   5.586   3.920 -0.2401  0.1372  0.1027
  456MOL0     C61478   0.814   5.572   3.848 -0.5077 -0.2358 -0.0010
  456MOL0     C61479   0.330   5.528   3.875 -0.1428 -0.1104  0.4846
  456MOL0     C61480   0.314   5.441   3.758  0.0119 -0.0554 -0.1854
  456MOL0     C61481   0.190   5.390   3.725 -0.3959  0.0110 -0.0550
  456MOL0     C61482   0.085   5.396   3.813  0.0949 -0.7859  0.0759
  456MOL0     O61483  -0.026   5.331   3.763 -0.1387 -1.0421  0.9851
  456MOL0     C61484  -0.158   5.350   3.816 -1.2446  0.0258 -0.2556
  456MOL0     C61485  -0.225   5.476   3.770 -0.1560 -0.0497 -0.1351
  456MOL0     C61486  -0.355   5.484   3.855  0.2534 -1.2083  0.1176
  456MOL0     C61487  -0.480   5.488   3.766 -0.5266 -0.5371  0.2072
  456MOL0     C61488  -0.488   5.598   3.668 -0.2255 -0.0047  0.3985
  456MOL0     C61489  -0.481   5.688   3.591 -1.0516 -0.6259 -0.4923
  456MOL0     C61490   0.095   5.480   3.932 -0.3185 -0.1920  0.7775
  456MOL0     C61491   0.215   5.540   3.962 -0.2504 -0.7496 -1.1453
  456MOL0     C61492   0.225   5.609   4.099  0.3893 -0.3068 -0.1977
  456MOL0     H61493   0.608   5.626   4.121 -1.3852  0.1703 -1.6765
  456MOL0     H61494   0.827   5.611   4.241 -1.3934 -2.1474 -0.2609
  456MOL0     H61495   1.138   5.442   4.059 -0.5143 -0.0774  0.0925
  456MOL0     H61496   1.225   5.593   4.004  1.3430  2.6538  2.7683
  456MOL0     H61497   1.194   5.469   4.275  0.6887 -1.3785  0.9481
  456MOL0     H61498   1.268   5.634   4.258  1.4865 -0.6333 -1.9064
  456MOL0     H61499   1.450   5.476   4.279  0.6950 -1.0634 -0.2509
  456MOL0     H61500   1.446   5.539   4.109 -0.4225 -1.2094 -0.7319
  456MOL0     H61501   1.323   5.281   4.199 -1.0531 -0.1363 -0.6157
  456MOL0     H61502   1.350   5.320   4.033 -0.8442 -2.4661  0.2286
  456MOL0     H61503   1.552   5.266   4.255 -1.2207 -1.1859  0.2658
  456MOL0     H61504   1.532   5.172   4.100 -1.2112 -1.4484  1.2057
  456MOL0     H61505   1.658   5.344   3.978 -2.6878 -2.2058  0.7273
  456MOL0     H61506   1.640   5.462   4.116  1.0878 -0.2536  2.3209
  456MOL0     H61507   1.782   5.321   4.245  0.7147  0.7488  0.6658
  456MOL0     H61508   1.845   5.404   4.098 -0.7765  0.9700  0.6402
  456MOL0     H61509   1.771   5.103   4.120  1.0363  0.0067  3.2402
  456MOL0     H61510   1.845   5.172   3.976  2.5848 -0.6764 -0.5524
  456MOL0     H61511   2.090   5.285   3.998  2.0472 -0.5562  0.9445
  456MOL0     H61512   2.277   5.393   4.162 -1.4180 -1.3895  2.2841
  456MOL0     H61513   2.358   5.290   4.269  2.9735 -3.9784 -1.8239
  456MOL0     H61514   2.434   5.152   4.052  2.0765  0.1845  2.7385
  456MOL0     H61515   2.382   5.302   3.968 -0.6666  0.3569  0.3741
  456MOL0     H61516   2.584   5.282   4.197  0.9587 -0.2606  0.2125
  456MOL0     H61517   2.532   5.429   4.104 -0.5316 -0.2633 -1.0939
  456MOL0     H61518   2.611   5.315   3.891  1.3131 -3.7568 -2.0224
  456MOL0     H61519   2.677   5.191   4.004  2.2383  0.3353  1.4637
  456MOL0     H61520   2.959   5.525   4.091 -4.1296 -1.0203 -1.0714
  456MOL0     H61521   3.196   5.476   4.100  0.7367 -0.6364 -1.5719
  456MOL0     H61522   3.515   5.108   3.722 -0.8702 -0.1084  0.4089
  456MOL0     H61523   3.759   5.072   3.733  1.9003  2.0972  0.8553
  456MOL0     H61524   3.862   4.805   4.091  0.7601 -0.6229 -0.2484
  456MOL0     H61525   4.015   4.796   4.003  1.3997  0.0750  0.9200
  456MOL0     H61526   4.102   4.996   4.098  0.4544  0.2481  0.7557
  456MOL0     H61527   3.962   5.032   4.192 -1.5524  0.9375 -2.5148
  456MOL0     H61528   4.111   4.940   4.342 -1.7878  0.6786 -0.0220
  456MOL0     H61529   3.976   4.834   4.328 -1.2291  2.8943  0.4382
  456MOL0     H61530   4.110   4.689   4.174 -0.5439 -3.2185  1.5915
  456MOL0     H61531   4.170   4.691   4.339  3.0510 -0.2105 -0.7407
  456MOL0     H61532   4.338   4.874   4.260 -0.7696 -0.3183  1.1098
  456MOL0     H61533   4.288   4.830   4.096 -0.3544 -0.9435 -0.5568
  456MOL0     H61534   4.408   4.638   4.301  2.4138 -1.5544 -1.0261
  456MOL0     H61535   4.356   4.588   4.143 -3.7325  2.2036 -1.3855
  456MOL0     H61536   4.607   4.625   4.156  0.7403  1.4006 -1.1886
  456MOL0     H61537   4.569   4.777   4.227 -2.5277  0.2921 -0.6352
  456MOL0     H61538   4.482   4.866   4.013  0.5890  0.3543  2.7923
  456MOL0     H61539   4.643   4.809   3.991  0.7332  0.4643  1.7172
  456MOL0     H61540   3.706   4.939   4.146  0.5448  0.9536  0.2224
  456MOL0     H61541   3.473   5.018   4.136 -0.5240 -1.6616 -0.5649
  456MOL0     H61542   3.107   5.088   3.927 -1.7084 -0.7825 -0.7220
  456MOL0     H61543   2.866   5.138   3.915 -3.6115  2.3460  0.5763
  456MOL0     H61544   1.029   5.582   3.867  0.6197 -2.5664  1.6499
  456MOL0     H61545   0.816   5.551   3.741  0.6229 -1.7563  0.2818
  456MOL0     H61546   0.396   5.436   3.688  0.4884 -1.1460  0.4274
  456MOL0     H61547   0.197   5.325   3.638  0.4249 -0.1664  0.1303
  456MOL0     H61548  -0.151   5.345   3.925 -0.2146  0.1902 -0.3083
  456MOL0     H61549  -0.222   5.267   3.783 -0.2917 -0.5815 -0.6150
  456MOL0     H61550  -0.245   5.489   3.664  1.4121 -0.7241 -0.5406
  456MOL0     H61551  -0.170   5.566   3.800 -0.2689 -0.0787  0.1666
  456MOL0     H61552  -0.359   5.570   3.922  0.5434 -0.6304 -0.5864
  456MOL0     H61553  -0.370   5.398   3.920 -3.4155 -0.0600  1.0531
  456MOL0     H61554  -0.486   5.392   3.713  3.0911  0.0507 -1.6332
  456MOL0     H61555  -0.562   5.495   3.838  1.1754  0.1082  2.1817
  456MOL0     H61556  -0.453   5.768   3.525 -1.4908 -0.0721 -0.0223
  456MOL0     H61557   0.014   5.501   4.001 -1.4701  1.0603 -0.8821
  456MOL0     H61558   0.325   5.602   4.141  1.1274  4.2273 -0.6271
  456MOL0     H61559   0.195   5.714   4.089 -1.0406 -0.8707 -2.9128
  456MOL0     H61560   0.155   5.557   4.165 -2.4525 -0.5616 -3.1614
  457MOL0     O61561   0.797   6.734   1.550  0.8709 -0.4799  0.4861
  457MOL0     C61562   0.768   6.758   1.663 -0.5797  0.5654  0.2994
  457MOL0     O61563   0.861   6.746   1.765 -0.1228 -0.2748 -0.0862
  457MOL0     C61564   0.989   6.710   1.759  0.0870 -0.4593  0.8178
  457MOL0     C61565   1.027   6.603   1.669  0.0541 -0.3563  0.9400
  457MOL0     C61566   1.163   6.566   1.667 -0.4626  0.0531 -0.5642
  457MOL0     C61567   1.261   6.634   1.749  0.2586 -0.5355  0.9010
  457MOL0     O61568   1.395   6.596   1.748  0.1082 -0.3334 -0.4343
  457MOL0     C61569   1.451   6.530   1.631  0.0907  0.0030  0.0265
  457MOL0     C61570   1.604   6.550   1.625  0.0633 -0.9071 -0.2260
  457MOL0     C61571   1.642   6.697   1.612  0.8073 -0.3262  0.5961
  457MOL0     C61572   1.784   6.723   1.579 -0.7412  1.1251  0.6844
  457MOL0     C61573   1.810   6.875   1.553  0.2439  0.2070 -0.2711
  457MOL0     C61574   1.963   6.898   1.533 -0.1532  0.6987  0.8018
  457MOL0     C61575   1.989   7.037   1.483 -0.1960  0.2595 -0.3323
  457MOL0     C61576   2.122   7.065   1.420  0.1984  0.2120 -0.7568
  457MOL0     N61577   2.126   7.109   1.279 -0.2199  0.0161 -0.8503
  457MOL0     C61578   2.187   7.037   1.178 -0.4317 -0.3073 -0.0015
  457MOL0     C61579   2.165   7.105   1.067 -0.1401 -0.3117 -0.8047
  457MOL0     C61580   2.203   7.059   0.927 -0.4994 -0.3859 -0.7130
  457MOL0     C61581   2.338   7.126   0.881 -0.4140  0.3953  0.1003
  457MOL0     C61582   2.331   7.282   0.869  0.6487 -0.2099  0.3592
  457MOL0     C61583   2.445   7.337   0.773 -0.2445 -0.0762  0.2536
  457MOL0     O61584   2.574   7.287   0.817  0.0350  0.0498 -0.5635
  457MOL0     C61585   2.687   7.327   0.755 -0.5680  0.3258  0.1264
  457MOL0     C61586   2.811   7.287   0.819  0.3310 -0.2160  0.2576
  457MOL0     C61587   2.934   7.334   0.768  0.0881  0.2093  0.0989
  457MOL0     C61588   2.940   7.409   0.654 -0.1770 -0.2254 -0.2558
  457MOL0     C61589   3.066   7.451   0.596  0.5375  1.0194  0.3211
  457MOL0     O61590   3.062   7.497   0.464 -0.1005  0.4441  0.5569
  457MOL0     C61591   3.172   7.492   0.392  0.2653 -0.7473 -0.4246
  457MOL0     C61592   3.281   7.574   0.415 -0.2755  0.1091 -1.2689
  457MOL0     C61593   3.402   7.547   0.347  0.9264 -0.2215 -0.2801
  457MOL0     C61594   3.416   7.446   0.254  0.5082 -0.4896  0.0726
  457MOL0     O61595   3.538   7.436   0.204  0.0888  0.5318 -0.2675
  457MOL0     C61596   3.547   7.408   0.062  0.7269  0.8383  0.0970
  457MOL0     C61597   3.693   7.412   0.023 -0.3535 -0.0116  0.5847
  457MOL0     C61598   3.714   7.415  -0.130 -0.3717  0.6225 -0.5716
  457MOL0     C61599   3.857   7.443  -0.186  0.4816 -0.7061 -0.3875
  457MOL0     C61600   3.878   7.429  -0.335  0.1320  0.5204  0.0160
  457MOL0     C61601   3.787   7.528  -0.417 -0.3742  0.6095 -0.0046
  457MOL0     C61602   3.829   7.581  -0.545 -0.0901 -0.2187  0.6437
  457MOL0     C61603   3.809   7.492  -0.667  0.3383 -0.4450  0.0257
  457MOL0    Cl61604   3.807   7.587  -0.809  0.3260  0.2271  0.1469
  457MOL0     C61605   3.299   7.379   0.217 -0.2467 -0.5865  0.2175
  457MOL0     C61606   3.182   7.405   0.292  0.1347 -0.2705 -0.1503
  457MOL0     O61607   3.170   7.423   0.664 -0.1669  0.2634 -0.6725
  457MOL0     C61608   2.823   7.455   0.593 -1.7006  0.1234 -0.1567
  457MOL0     C61609   2.697   7.413   0.647 -0.5062  0.3227  0.1489
  457MOL0     N61610   2.091   7.223   1.093  0.0581  0.2128  0.0782
  457MOL0     N61611   2.074   7.224   1.224  0.3913 -0.4547 -0.5830
  457MOL0     C61612   1.220   6.741   1.832  0.3212 -1.1459 -0.0831
  457MOL0     C61613   1.083   6.785   1.838 -0.0471  0.7127 -0.4829
  457MOL0     C61614   0.635   6.804   1.702 -0.3651 -0.7017 -0.1326
  457MOL0     C61615   0.619   6.883   1.818 -0.0169 -0.2572 -0.0529
  457MOL0     C61616   0.485   6.926   1.851  0.3553 -0.7239  0.2153
  457MOL0     C61617   0.374   6.873   1.788  0.7926  0.7374 -0.4351
  457MOL0     O61618   0.254   6.905   1.841  0.4338  0.0821 -0.0113
  457MOL0     C61619   0.150   6.959   1.753  0.3542 -0.0749 -0.3483
  457MOL0     C61620   0.029   7.007   1.840 -0.0092  0.7374  0.2927
  457MOL0     C61621  -0.042   6.881   1.897 -0.1589  0.7695 -0.0039
  457MOL0     C61622  -0.173   6.933   1.956 -0.8630 -1.0207 -0.1230
  457MOL0     C61623  -0.205   6.852   2.072  0.9446 -0.1773  0.1672
  457MOL0     C61624  -0.214   6.786   2.178  0.6906 -0.6725 -0.4901
  457MOL0     C61625   0.388   6.795   1.678  0.2316 -0.2342  0.1680
  457MOL0     C61626   0.519   6.764   1.633 -0.1294 -0.4067 -0.5847
  457MOL0     C61627   0.520   6.674   1.511  0.5149  0.1815  0.2473
  457MOL0     H61628   0.960   6.545   1.606  1.8503 -1.9150  0.3863
  457MOL0     H61629   1.196   6.480   1.610 -0.6518 -0.5780  0.2474
  457MOL0     H61630   1.438   6.422   1.633  1.6128 -0.2080 -0.4448
  457MOL0     H61631   1.399   6.573   1.545  0.7064 -0.5184 -0.6130
  457MOL0     H61632   1.653   6.487   1.550 -0.1312 -1.4981  0.1355
  457MOL0     H61633   1.649   6.515   1.718 -1.3601  1.5609  1.5292
  457MOL0     H61634   1.627   6.750   1.707 -2.9270  0.8657 -0.4765
  457MOL0     H61635   1.582   6.744   1.534  1.3140 -1.8025 -0.7412
  457MOL0     H61636   1.848   6.694   1.663 -0.9916  0.8872  0.7972
  457MOL0     H61637   1.809   6.664   1.491 -0.9219  1.5186  0.3652
  457MOL0     H61638   1.751   6.905   1.466  2.0392  1.4720 -1.1034
  457MOL0     H61639   1.770   6.937   1.633  0.0572  0.6541 -0.7081
  457MOL0     H61640   2.014   6.880   1.628  0.5926 -1.6864  0.0160
  457MOL0     H61641   1.997   6.818   1.466 -1.6394  0.6227  0.0962
  457MOL0     H61642   1.992   7.096   1.575 -0.2035 -0.9072  0.4344
  457MOL0     H61643   1.917   7.072   1.408 -1.8131  4.3840  2.7297
  457MOL0     H61644   2.160   7.151   1.475  0.3156 -1.9447  2.9166
  457MOL0     H61645   2.185   6.976   1.433  0.4490  0.0337 -2.8948
  457MOL0     H61646   2.242   6.944   1.188 -2.8969 -1.8193  0.3461
  457MOL0     H61647   2.228   6.953   0.921 -2.0484 -0.8430  0.2697
  457MOL0     H61648   2.129   7.091   0.853 -2.0371 -2.0892  0.0220
  457MOL0     H61649   2.417   7.093   0.950 -0.4182  0.9505  0.3763
  457MOL0     H61650   2.360   7.075   0.787 -0.6745  0.9610 -0.2747
  457MOL0     H61651   2.333   7.341   0.960 -5.0424  1.6853 -0.3423
  457MOL0     H61652   2.236   7.301   0.819  2.7290 -0.3507 -4.2415
  457MOL0     H61653   2.447   7.446   0.763  0.4710  0.1683  2.5349
  457MOL0     H61654   2.436   7.297   0.671  1.4487 -2.7347  1.0572
  457MOL0     H61655   2.809   7.232   0.913 -1.1679 -2.0671 -0.7941
  457MOL0     H61656   3.029   7.307   0.812  0.8742  1.4764 -0.7514
  457MOL0     H61657   3.283   7.640   0.501  1.1549 -0.4810 -0.8219
  457MOL0     H61658   3.491   7.602   0.377 -0.0540  1.1652  0.1706
  457MOL0     H61659   3.513   7.306   0.042 -1.7483  1.2987  1.5667
  457MOL0     H61660   3.480   7.472   0.004 -0.4824 -0.9564 -0.5684
  457MOL0     H61661   3.734   7.508   0.056  2.1820 -1.4002  1.7162
  457MOL0     H61662   3.741   7.327   0.071 -0.8784 -1.6847 -1.6440
  457MOL0     H61663   3.687   7.313  -0.158 -0.4477  0.3501  0.4305
  457MOL0     H61664   3.642   7.484  -0.175  0.7994  3.6102  1.7848
  457MOL0     H61665   3.916   7.360  -0.145  1.1921 -0.8167 -1.5948
  457MOL0     H61666   3.901   7.539  -0.156 -0.4062  0.4243 -2.5144
  457MOL0     H61667   3.852   7.327  -0.362 -2.1325  0.9068  0.5137
  457MOL0     H61668   3.984   7.451  -0.349 -0.3276  1.5147 -2.4607
  457MOL0     H61669   3.691   7.483  -0.443  1.6990 -3.0376 -2.1744
  457MOL0     H61670   3.773   7.613  -0.350  1.2704 -1.3394  3.1014
  457MOL0     H61671   3.937   7.600  -0.537 -0.1464  0.9961 -0.9144
  457MOL0     H61672   3.774   7.675  -0.555  2.2440  1.2054  0.3077
  457MOL0     H61673   3.891   7.421  -0.670  1.6951  1.0993 -1.3829
  457MOL0     H61674   3.717   7.433  -0.667  0.6179 -0.9492 -1.8223
  457MOL0     H61675   3.293   7.312   0.132  4.1133  0.1493 -0.9070
  457MOL0     H61676   3.095   7.343   0.275  0.1956 -2.3336  5.1636
  457MOL0     H61677   2.825   7.524   0.510 -2.9057  1.0670  0.5777
  457MOL0     H61678   2.612   7.446   0.588 -0.7342  2.9319  1.7464
  457MOL0     H61679   1.291   6.785   1.901 -1.6614  2.0781  0.0590
  457MOL0     H61680   1.049   6.866   1.901 -1.8201  0.2370 -0.7423
  457MOL0     H61681   0.703   6.915   1.878 -1.1869  0.9596  0.9894
  457MOL0     H61682   0.472   6.996   1.933 -2.2292  2.6240 -2.7645
  457MOL0     H61683   0.115   6.886   1.680 -0.4033  0.0170 -0.0850
  457MOL0     H61684   0.194   7.041   1.697  1.2282  0.3519  0.8988
  457MOL0     H61685  -0.054   7.055   1.787  0.2326  1.6389  0.7067
  457MOL0     H61686   0.056   7.072   1.924 -1.4424 -0.4523  1.7422
  457MOL0     H61687   0.023   6.832   1.970  1.1637 -0.3946 -1.8648
  457MOL0     H61688  -0.065   6.803   1.824  3.6420 -0.3495 -0.2402
  457MOL0     H61689  -0.175   7.037   1.990  0.8733 -0.4442 -1.6402
  457MOL0     H61690  -0.251   6.938   1.879 -1.2874  0.2662  0.3616
  457MOL0     H61691  -0.219   6.725   2.266  0.5252  0.3635  0.2296
  457MOL0     H61692   0.305   6.751   1.623  0.0903 -0.9323  0.9181
  457MOL0     H61693   0.582   6.719   1.433 -0.3841  0.0450 -0.5697
  457MOL0     H61694   0.565   6.578   1.539 -0.7108  0.1515  2.4279
  457MOL0     H61695   0.418   6.661   1.474  0.5484 -1.0608  0.5244
  458MOL0     O61696   9.406  10.893   9.225  0.4879 -0.5763  0.1130
  458MOL0     C61697   9.314  10.942   9.291 -0.3795 -0.2859 -0.0630
  458MOL0     O61698   9.326  11.038   9.390 -0.8336 -0.0218  0.1331
  458MOL0     C61699   9.451  11.078   9.415 -0.2583  0.0245  0.1929
  458MOL0     C61700   9.494  11.204   9.369 -0.0154 -0.2185  0.3155
  458MOL0     C61701   9.624  11.247   9.397 -0.6475  0.0754  0.0436
  458MOL0     C61702   9.712  11.180   9.475  0.5439 -0.8926 -0.6659
  458MOL0     O61703   9.837  11.241   9.481  1.0938  0.6650 -0.4269
  458MOL0     C61704   9.935  11.179   9.565  0.2735 -0.8037  0.2407
  458MOL0     C61705  10.055  11.267   9.560 -0.5574 -0.1108 -0.4185
  458MOL0     C61706  10.183  11.207   9.614 -0.2939  0.0106  0.0067
  458MOL0     C61707  10.288  11.318   9.601  0.3397  1.0002 -0.2056
  458MOL0     C61708  10.411  11.272   9.682  1.4444  0.1022  0.3277
  458MOL0     C61709  10.532  11.358   9.642 -0.2257  0.1583  0.3734
  458MOL0     C61710  10.496  11.502   9.684  0.3484  0.2951  0.0861
  458MOL0     C61711  10.606  11.597   9.651 -0.3201 -0.1713  0.0323
  458MOL0     N61712  10.719  11.608   9.743 -0.2169 -0.7270  0.5103
  458MOL0     C61713  10.836  11.529   9.730 -0.1975  0.1897 -0.6007
  458MOL0     C61714  10.929  11.595   9.808 -0.5042 -0.0914 -0.5904
  458MOL0     C61715  11.072  11.552   9.848 -0.0751  0.3103 -0.1021
  458MOL0     C61716  11.173  11.553   9.734  0.0749 -0.2729  0.7621
  458MOL0     C61717  11.310  11.497   9.777  0.3481  0.9438  0.5291
  458MOL0     C61718  11.380  11.566   9.896  0.2233  0.5017 -0.3557
  458MOL0     O61719  11.395  11.708   9.885  1.3438  0.7422  0.4139
  458MOL0     C61720  11.512  11.757   9.829 -0.4064 -0.8234 -0.4139
  458MOL0     C61721  11.619  11.681   9.777  0.0219 -0.9554 -0.1509
  458MOL0     C61722  11.710  11.753   9.700  0.1371 -0.3130  0.3297
  458MOL0     C61723  11.707  11.889   9.691 -1.0616 -0.1074 -0.2964
  458MOL0     C61724  11.817  11.946   9.603 -0.2273 -0.4097  0.0486
  458MOL0     O61725  11.911  11.863   9.551 -0.6389 -0.0203  0.2784
  458MOL0     C61726  12.020  11.898   9.482 -0.4530  0.0003 -0.3636
  458MOL0     C61727  12.032  12.015   9.404  1.3571  0.0483 -0.4125
  458MOL0     C61728  12.153  12.034   9.341  0.0241 -0.5242 -0.1747
  458MOL0     C61729  12.255  11.941   9.343 -0.7626  0.1890 -0.1514
  458MOL0     O61730  12.368  11.968   9.265 -0.0009  0.5275 -0.2433
  458MOL0     C61731  12.471  11.872   9.251  0.1575  0.6283  0.2769
  458MOL0     C61732  12.579  11.929   9.164 -0.2406  0.2084  0.7152
  458MOL0     C61733  12.674  12.020   9.242 -0.1993  0.2743 -1.0635
  458MOL0     C61734  12.792  12.055   9.152  0.6849 -0.0656  1.1994
  458MOL0     C61735  12.899  12.140   9.219 -0.0166 -0.6475 -0.0247
  458MOL0     C61736  12.999  12.193   9.109  0.0511  0.0421  0.1899
  458MOL0     C61737  13.131  12.248   9.175 -0.4968 -0.0533 -0.7235
  458MOL0     C61738  13.241  12.142   9.162 -0.0547 -0.1228 -0.0217
  458MOL0    Cl61739  13.409  12.201   9.213 -0.0173 -0.1145 -0.1008
  458MOL0     C61740  12.250  11.827   9.428 -0.1012 -0.7529  0.6008
  458MOL0     C61741  12.130  11.808   9.497  1.0117 -0.2033 -0.0955
  458MOL0     O61742  11.804  12.064   9.578 -0.1951 -0.5175  0.9875
  458MOL0     C61743  11.618  11.963   9.765 -0.1616  1.0272  0.3372
  458MOL0     C61744  11.513  11.896   9.831 -0.8537  0.0138 -0.7941
  458MOL0     N61745  10.873  11.716   9.849  0.1839 -0.3325 -0.2837
  458MOL0     N61746  10.743  11.720   9.823 -0.1938  0.5883  0.9293
  458MOL0     C61747   9.663  11.061   9.528  0.3892  1.2449  0.2670
  458MOL0     C61748   9.537  11.014   9.498  0.3668  0.1303  0.1475
  458MOL0     C61749   9.175  10.893   9.268  0.0602 -0.3894  0.1017
  458MOL0     C61750   9.068  10.997   9.262 -0.7417 -0.0040  0.6427
  458MOL0     C61751   8.937  10.958   9.244  0.1981  0.0005  0.4482
  458MOL0     C61752   8.897  10.826   9.222  0.1173  0.9978 -0.2926
  458MOL0     O61753   8.762  10.812   9.205  0.3644  0.0288 -0.5888
  458MOL0     C61754   8.715  10.680   9.237  0.5680 -0.4466 -0.8530
  458MOL0     C61755   8.559  10.684   9.253  0.4806 -0.1475 -0.7275
  458MOL0     C61756   8.482  10.658   9.128 -0.0767  0.2755  0.4232
  458MOL0     C61757   8.331  10.659   9.166  0.8471  0.8091 -0.5023
  458MOL0     C61758   8.297  10.525   9.218  0.5393  0.1362  0.3604
  458MOL0     C61759   8.269  10.406   9.243  0.2315 -0.2426  0.3643
  458MOL0     C61760   9.002  10.731   9.229  0.0571 -0.3004 -0.2543
  458MOL0     C61761   9.139  10.762   9.252  1.2218 -0.1395  0.5253
  458MOL0     C61762   9.235  10.648   9.253 -0.1568 -1.0285 -0.0211
  458MOL0     H61763   9.431  11.267   9.307 -0.9723  0.9111  2.3233
  458MOL0     H61764   9.651  11.344   9.356  0.2265  0.1559  0.7875
  458MOL0     H61765   9.902  11.165   9.668 -2.9695 -1.2677 -0.7377
  458MOL0     H61766   9.964  11.080   9.528 -0.2155 -1.0412  0.4883
  458MOL0     H61767  10.025  11.364   9.601 -0.7065  0.3149 -1.4930
  458MOL0     H61768  10.072  11.294   9.455 -0.4279  1.6370  0.0155
  458MOL0     H61769  10.216  11.126   9.549  2.9403 -2.2037  3.9293
  458MOL0     H61770  10.170  11.173   9.717  1.2633  1.4061  0.7129
  458MOL0     H61771  10.295  11.346   9.495 -0.3247 -0.5319 -0.6961
  458MOL0     H61772  10.246  11.409   9.644 -1.1774  1.5944 -2.7013
  458MOL0     H61773  10.386  11.269   9.788 -1.0210  0.0951 -0.2010
  458MOL0     H61774  10.428  11.164   9.667 -2.6319 -0.7799  1.0867
  458MOL0     H61775  10.622  11.325   9.695  0.6347  0.3890 -0.8669
  458MOL0     H61776  10.549  11.347   9.534 -0.0106 -0.2383  0.4460
  458MOL0     H61777  10.468  11.500   9.790 -0.8546 -0.0637 -0.2258
  458MOL0     H61778  10.407  11.540   9.633  0.2848  0.2817  0.1877
  458MOL0     H61779  10.639  11.567   9.551 -1.3157 -2.1104  0.2381
  458MOL0     H61780  10.557  11.694   9.640  0.6350  0.5722  1.9259
  458MOL0     H61781  10.847  11.433   9.680 -3.6530  1.4886 -4.5150
  458MOL0     H61782  11.112  11.623   9.921 -1.5726  1.8845 -0.7380
  458MOL0     H61783  11.069  11.451   9.891 -0.4793  0.9545  1.4323
  458MOL0     H61784  11.140  11.487   9.654 -2.8548 -0.5858  2.0971
  458MOL0     H61785  11.189  11.655   9.698  2.9075 -0.8522  0.1301
  458MOL0     H61786  11.381  11.495   9.694 -0.1673  2.7202  0.0062
  458MOL0     H61787  11.294  11.394   9.810 -0.3268  0.4700 -1.1557
  458MOL0     H61788  11.475  11.514   9.909  0.2907  0.5984 -0.4675
  458MOL0     H61789  11.327  11.556   9.991 -0.5590  1.7410 -0.6465
  458MOL0     H61790  11.632  11.573   9.787  0.3138 -0.8983  0.0903
  458MOL0     H61791  11.789  11.692   9.656  0.1265  0.2923 -0.5565
  458MOL0     H61792  11.958  12.092   9.384  0.1272  0.4990  4.5029
  458MOL0     H61793  12.159  12.125   9.282  0.3018 -0.1673  0.3965
  458MOL0     H61794  12.511  11.845   9.350  1.5989  1.6195 -0.0050
  458MOL0     H61795  12.427  11.779   9.214 -0.8097 -0.3690  3.5521
  458MOL0     H61796  12.634  11.842   9.127 -1.3170  0.5594 -2.0069
  458MOL0     H61797  12.525  11.978   9.082  0.5495  2.2244  1.3404
  458MOL0     H61798  12.619  12.111   9.269 -1.3535 -0.2409 -1.6085
  458MOL0     H61799  12.718  11.973   9.330 -0.4331  1.0073 -0.5516
  458MOL0     H61800  12.749  12.112   9.069  1.7876  0.8305  1.2242
  458MOL0     H61801  12.829  11.962   9.106  0.7072 -0.4538  1.9878
  458MOL0     H61802  12.946  12.074   9.292 -1.2076 -2.0591 -0.4794
  458MOL0     H61803  12.853  12.224   9.271 -1.0500 -0.7280 -0.7723
  458MOL0     H61804  13.011  12.117   9.031 -1.6113 -1.1965  1.0671
  458MOL0     H61805  12.937  12.276   9.072 -2.0483 -1.3523  0.4113
  458MOL0     H61806  13.125  12.274   9.281  4.1990  1.5392 -0.5748
  458MOL0     H61807  13.160  12.333   9.113 -2.3092 -1.1192 -3.1741
  458MOL0     H61808  13.213  12.065   9.235 -0.0793  0.7513  0.9225
  458MOL0     H61809  13.246  12.094   9.064 -0.1794 -0.4962  0.1538
  458MOL0     H61810  12.323  11.748   9.440 -1.8761 -2.1240  3.6305
  458MOL0     H61811  12.117  11.733   9.575 -1.6403 -1.4592 -1.6229
  458MOL0     H61812  11.631  12.070   9.775 -0.6285  1.2889 -1.6228
  458MOL0     H61813  11.431  11.938   9.888 -1.6033 -2.9971  0.5261
  458MOL0     H61814   9.730  11.013   9.599 -0.6095 -4.6630 -2.2115
  458MOL0     H61815   9.502  10.924   9.548  0.1273  0.7977  1.2160
  458MOL0     H61816   9.086  11.101   9.289 -2.0724  0.2350  0.6673
  458MOL0     H61817   8.861  11.035   9.232  1.1460  1.1827  1.7035
  458MOL0     H61818   8.753  10.640   9.331  1.7102 -1.2290 -1.6141
  458MOL0     H61819   8.745  10.603   9.165  2.4945  0.1744 -0.7886
  458MOL0     H61820   8.530  10.782   9.292 -1.1770 -0.9856  0.2232
  458MOL0     H61821   8.544  10.603   9.325  2.3860 -1.9795 -2.2579
  458MOL0     H61822   8.502  10.560   9.083 -3.2521  0.9142 -2.9225
  458MOL0     H61823   8.503  10.728   9.046  0.4519 -0.3223  0.0404
  458MOL0     H61824   8.304  10.742   9.232 -1.1089  0.7598 -1.1812
  458MOL0     H61825   8.265  10.667   9.079  0.6480  0.8095 -0.3513
  458MOL0     H61826   8.241  10.306   9.270  2.9099 -0.7669  1.4899
  458MOL0     H61827   8.973  10.627   9.229  1.8999 -0.9612  3.4265
  458MOL0     H61828   9.250  10.603   9.155 -1.0669  0.7963 -1.0538
  458MOL0     H61829   9.332  10.681   9.290 -1.1999 -1.0681  3.0285
  458MOL0     H61830   9.216  10.577   9.334  4.1001  1.1124  3.2351
  459MOL0     O61831   7.094   7.406   0.860 -0.1287  0.2327  1.2765
  459MOL0     C61832   6.992   7.468   0.863 -0.4496 -0.3876  0.8076
  459MOL0     O61833   6.976   7.602   0.827  0.0165  0.2146  0.0726
  459MOL0     C61834   7.083   7.680   0.781  0.0329  1.1253 -0.3338
  459MOL0     C61835   7.216   7.678   0.833  0.3114 -0.0244 -1.1821
  459MOL0     C61836   7.309   7.771   0.801  0.0587 -0.2524 -0.4983
  459MOL0     C61837   7.285   7.873   0.707  0.2368  0.0511 -0.7938
  459MOL0     O61838   7.368   7.969   0.656 -0.2717  0.0655  0.2503
  459MOL0     C61839   7.509   7.956   0.663 -1.1083  0.2872 -0.0253
  459MOL0     C61840   7.559   8.096   0.671  0.6802 -0.7513  0.3312
  459MOL0     C61841   7.709   8.103   0.697  0.0910 -0.5711 -0.3324
  459MOL0     C61842   7.768   8.240   0.676  0.3348 -0.2204 -0.7057
  459MOL0     C61843   7.919   8.228   0.730 -0.1261 -0.3985  0.0214
  459MOL0     C61844   8.006   8.344   0.707 -1.0035  0.7664 -0.2114
  459MOL0     C61845   8.146   8.343   0.777  0.1616 -0.4787  0.7862
  459MOL0     C61846   8.256   8.242   0.734 -0.2780  0.0031 -0.5779
  459MOL0     N61847   8.394   8.294   0.746 -0.1906  0.4929 -0.5668
  459MOL0     C61848   8.467   8.301   0.860  0.2025 -0.1688 -0.0936
  459MOL0     C61849   8.593   8.330   0.812 -0.9127 -0.3086 -0.0589
  459MOL0     C61850   8.714   8.337   0.902 -0.6212  0.4003  0.0473
  459MOL0     C61851   8.839   8.287   0.828  0.1230 -0.9897  0.5712
  459MOL0     C61852   8.959   8.310   0.917  0.2868 -0.3385  0.2029
  459MOL0     C61853   9.068   8.205   0.886  0.2110 -0.0896 -0.0451
  459MOL0     O61854   9.180   8.223   0.977 -0.1847  0.1320  0.2338
  459MOL0     C61855   9.308   8.175   0.934  0.4972 -0.4456  0.1053
  459MOL0     C61856   9.421   8.217   1.017  0.2885  0.2160  0.6337
  459MOL0     C61857   9.547   8.192   0.974 -0.8566  0.5239 -1.0836
  459MOL0     C61858   9.578   8.128   0.853 -0.0173 -0.1220  0.4767
  459MOL0     C61859   9.712   8.107   0.805 -0.5365 -0.8589  0.1067
  459MOL0     O61860   9.732   8.020   0.703  0.4695  0.2879 -0.0141
  459MOL0     C61861   9.849   8.026   0.636 -0.4275 -0.0232 -0.0093
  459MOL0     C61862   9.970   7.992   0.695 -1.1526  0.5222 -0.5315
  459MOL0     C61863  10.088   8.022   0.630 -0.6192  0.3668  0.0832
  459MOL0     C61864  10.096   8.081   0.504  0.0901 -1.1067 -0.9409
  459MOL0     O61865  10.208   8.115   0.437 -0.3263 -0.2876 -0.6611
  459MOL0     C61866  10.335   8.056   0.454  0.1968 -0.5933  0.2113
  459MOL0     C61867  10.404   8.049   0.315  0.1775  0.5497  0.5266
  459MOL0     C61868  10.352   7.927   0.232  0.0540 -0.3743 -0.1196
  459MOL0     C61869  10.383   7.937   0.081  0.4885  0.3742  0.8974
  459MOL0     C61870  10.290   7.834  -0.001 -1.1012 -0.1496 -0.6863
  459MOL0     C61871  10.306   7.695   0.056  0.7885 -0.6105 -0.7524
  459MOL0     C61872  10.440   7.627   0.030 -0.2429 -0.1155 -0.1236
  459MOL0     C61873  10.416   7.476   0.028  0.6670  0.0314 -0.3703
  459MOL0    Cl61874  10.348   7.414   0.174 -0.1791 -0.0552  0.1760
  459MOL0     C61875   9.972   8.113   0.439 -0.5175  0.0975  0.4853
  459MOL0     C61876   9.849   8.084   0.507 -0.4162 -0.2222  0.5468
  459MOL0     O61877   9.796   8.177   0.865 -0.7048  0.4321 -0.2280
  459MOL0     C61878   9.469   8.094   0.770  0.1732 -0.0185 -0.3377
  459MOL0     C61879   9.333   8.105   0.818 -1.0063 -0.2974 -0.5415
  459MOL0     N61880   8.610   8.335   0.675  1.3408  0.2035 -0.2499
  459MOL0     N61881   8.477   8.320   0.641 -0.3699  0.4034  0.0430
  459MOL0     C61882   7.149   7.888   0.678  0.7056  0.4269 -0.1327
  459MOL0     C61883   7.055   7.790   0.702 -0.6359 -0.5231  0.1682
  459MOL0     C61884   6.869   7.401   0.920 -0.4810 -0.1084  0.3977
  459MOL0     C61885   6.751   7.475   0.948  0.2747 -0.7742 -0.5885
  459MOL0     C61886   6.639   7.418   1.004 -0.3295 -0.2648 -0.0564
  459MOL0     C61887   6.636   7.283   1.042 -0.1376 -0.1113 -0.3639
  459MOL0     O61888   6.546   7.227   1.130 -0.2614 -0.7271  0.3475
  459MOL0     C61889   6.498   7.306   1.239 -0.0321  0.2588 -0.0233
  459MOL0     C61890   6.442   7.216   1.345  0.3907 -0.3829  0.2327
  459MOL0     C61891   6.361   7.097   1.281  0.2691 -0.2748  0.9351
  459MOL0     C61892   6.255   7.041   1.378  0.1239 -0.5100 -0.4532
  459MOL0     C61893   6.324   6.976   1.485 -0.4896 -1.0473 -0.8477
  459MOL0     C61894   6.389   6.928   1.578 -0.3528 -0.3414 -0.9039
  459MOL0     C61895   6.743   7.208   1.015  0.6177 -0.9489 -0.5879
  459MOL0     C61896   6.851   7.263   0.945 -0.2655  0.0654 -0.1003
  459MOL0     C61897   6.966   7.169   0.926 -0.2497  0.0640  0.4287
  459MOL0     H61898   7.252   7.601   0.901 -0.5243  0.9379  0.4127
  459MOL0     H61899   7.411   7.771   0.839  0.8679  0.3220 -2.4848
  459MOL0     H61900   7.547   7.895   0.745 -1.8577 -1.0074 -0.6224
  459MOL0     H61901   7.544   7.890   0.582 -1.3311 -1.7727  1.4909
  459MOL0     H61902   7.493   8.145   0.742  2.5230  0.8918  1.0107
  459MOL0     H61903   7.533   8.144   0.576  0.5518 -0.4999  0.4922
  459MOL0     H61904   7.754   8.033   0.627 -1.3835 -0.3776 -1.5320
  459MOL0     H61905   7.739   8.065   0.795  0.7184  0.9832  0.1081
  459MOL0     H61906   7.777   8.267   0.570  2.7386 -3.4683 -1.4939
  459MOL0     H61907   7.720   8.318   0.735 -0.2145 -0.2109 -1.1596
  459MOL0     H61908   7.926   8.230   0.839 -0.5060  0.8871  0.0403
  459MOL0     H61909   7.972   8.140   0.693 -1.0848  0.1010 -2.7806
  459MOL0     H61910   8.020   8.360   0.600 -1.4228  1.5112 -0.1627
  459MOL0     H61911   7.962   8.438   0.743  1.5113  1.3128  1.8200
  459MOL0     H61912   8.139   8.340   0.886  1.1449 -3.7308  0.8797
  459MOL0     H61913   8.183   8.444   0.758  0.5630  0.0228  3.6994
  459MOL0     H61914   8.248   8.153   0.798  2.2804  0.1375  0.0520
  459MOL0     H61915   8.248   8.212   0.629  0.1358  1.1522 -0.9513
  459MOL0     H61916   8.435   8.290   0.963 -1.4979 -0.7523 -0.6383
  459MOL0     H61917   8.716   8.436   0.947 -1.0055  0.8664 -0.9165
  459MOL0     H61918   8.695   8.270   0.986 -0.9067  0.1580 -0.2026
  459MOL0     H61919   8.824   8.181   0.807 -0.5597 -1.0518  1.2992
  459MOL0     H61920   8.863   8.333   0.732 -0.1082  0.5143  1.2016
  459MOL0     H61921   8.938   8.301   1.023 -2.3939 -1.5027 -0.3554
  459MOL0     H61922   8.994   8.410   0.889  0.5645 -0.5383 -0.1873
  459MOL0     H61923   9.097   8.204   0.781 -0.3998 -2.6611 -0.2480
  459MOL0     H61924   9.026   8.106   0.906 -0.1921  0.2904  1.0858
  459MOL0     H61925   9.399   8.268   1.110 -0.7462  0.0776  0.4799
  459MOL0     H61926   9.615   8.218   1.054 -0.3750  1.3730 -1.7556
  459MOL0     H61927   9.959   7.930   0.783 -1.5879  2.4218  0.8211
  459MOL0     H61928  10.180   7.979   0.668  0.3963  1.8270 -0.6391
  459MOL0     H61929  10.390   8.120   0.525 -3.0159  2.1522  0.4714
  459MOL0     H61930  10.319   7.954   0.491 -2.0620  0.4294  2.3281
  459MOL0     H61931  10.379   8.144   0.267 -0.6288  0.6702  1.1659
  459MOL0     H61932  10.513   8.044   0.317  0.2315  1.6477  0.9419
  459MOL0     H61933  10.397   7.836   0.273 -1.0054 -0.8023  0.1016
  459MOL0     H61934  10.244   7.916   0.230 -0.2897  2.4099 -0.3706
  459MOL0     H61935  10.489   7.922   0.056  0.2388  0.5454 -0.3773
  459MOL0     H61936  10.347   8.033   0.043 -1.9164 -0.9364 -0.4116
  459MOL0     H61937  10.300   7.850  -0.109 -1.9257 -0.4424 -0.8204
  459MOL0     H61938  10.183   7.853   0.017 -0.7077  4.6040 -1.8802
  459MOL0     H61939  10.271   7.681   0.158  0.2149 -0.2434 -0.8931
  459MOL0     H61940  10.228   7.637   0.006 -0.6740  0.6633 -0.0366
  459MOL0     H61941  10.512   7.652   0.108 -1.3745 -0.4659  1.0781
  459MOL0     H61942  10.487   7.667  -0.060 -2.0931 -0.2795 -1.2074
  459MOL0     H61943  10.352   7.449  -0.057 -2.2176 -0.0592  1.6812
  459MOL0     H61944  10.510   7.424   0.006  0.1281 -0.7885 -0.8149
  459MOL0     H61945   9.987   8.160   0.342 -1.3762  0.6262  0.6010
  459MOL0     H61946   9.753   8.111   0.463 -0.5960 -1.2744  0.2713
  459MOL0     H61947   9.491   8.047   0.674  0.8999  0.9691 -0.6762
  459MOL0     H61948   9.251   8.064   0.761  0.9802 -2.3311 -2.0894
  459MOL0     H61949   7.119   7.981   0.629  0.9103  1.2269  1.1979
  459MOL0     H61950   6.952   7.807   0.670  0.2301  3.0226 -1.1906
  459MOL0     H61951   6.747   7.579   0.919 -1.3047 -1.0328 -1.3837
  459MOL0     H61952   6.552   7.473   1.040  0.0971 -0.9326  2.1453
  459MOL0     H61953   6.417   7.373   1.206 -0.2514 -0.7603 -1.6751
  459MOL0     H61954   6.582   7.357   1.287 -0.2980 -0.9702  1.8662
  459MOL0     H61955   6.377   7.279   1.407 -0.0263  1.3718 -1.8725
  459MOL0     H61956   6.527   7.173   1.399 -1.1442 -3.2723  0.5286
  459MOL0     H61957   6.436   7.025   1.247  0.4977  0.7659 -0.8584
  459MOL0     H61958   6.306   7.137   1.195 -0.6139 -1.2319  1.0433
  459MOL0     H61959   6.189   7.118   1.420 -0.1344 -1.0139  0.0686
  459MOL0     H61960   6.182   6.978   1.327  1.1278  1.1853 -4.3373
  459MOL0     H61961   6.442   6.894   1.665  0.5450  3.3072  0.1216
  459MOL0     H61962   6.725   7.104   1.043 -1.9725 -0.1071  1.2393
  459MOL0     H61963   7.035   7.181   1.010 -0.0400  0.4517  0.2029
  459MOL0     H61964   6.922   7.069   0.929 -0.3813 -0.0140 -2.0695
  459MOL0     H61965   7.020   7.178   0.831  0.5579 -0.7439  0.8020
  460MOL0     O61966   2.374   1.918  10.302  0.9413 -0.3027  0.2057
  460MOL0     C61967   2.276   1.924  10.226  0.4375  0.0753 -0.0173
  460MOL0     O61968   2.291   1.906  10.092  0.3787 -0.3477 -0.3919
  460MOL0     C61969   2.416   1.893  10.033 -0.4190 -0.6599  0.2542
  460MOL0     C61970   2.431   1.777   9.957 -0.2323  0.4479  0.0531
  460MOL0     C61971   2.549   1.753   9.889 -0.1358 -0.4443  0.3719
  460MOL0     C61972   2.655   1.851   9.899 -0.2099 -0.4753 -0.0326
  460MOL0     O61973   2.779   1.828   9.853 -0.0970 -0.1753  0.0899
  460MOL0     C61974   2.818   1.704   9.788 -0.0037  0.9475  0.4016
  460MOL0     C61975   2.967   1.710   9.743  0.0440 -0.3929 -0.1231
  460MOL0     C61976   3.068   1.707   9.859 -0.1361 -0.1981  0.6865
  460MOL0     C61977   3.209   1.659   9.815 -0.6690  0.3495 -0.3390
  460MOL0     C61978   3.317   1.711   9.906  0.0080 -0.4777 -0.2054
  460MOL0     C61979   3.449   1.628   9.881 -0.4626 -0.1523 -0.2080
  460MOL0     C61980   3.536   1.706   9.772  0.4993 -0.3174 -0.7215
  460MOL0     C61981   3.612   1.616   9.675 -0.3554  0.6571  0.9936
  460MOL0     N61982   3.519   1.536   9.591 -0.7203  0.5696  0.1495
  460MOL0     C61983   3.451   1.567   9.475 -0.2075 -0.3125  0.3283
  460MOL0     C61984   3.398   1.456   9.435 -1.3788 -0.6088 -0.1663
  460MOL0     C61985   3.324   1.449   9.301 -0.3665 -0.2644 -0.2918
  460MOL0     C61986   3.172   1.472   9.326 -0.3995 -0.1103 -0.7071
  460MOL0     C61987   3.132   1.618   9.339 -0.0055 -0.5951 -0.3998
  460MOL0     C61988   2.985   1.622   9.377 -0.4794  0.5835 -0.0011
  460MOL0     O61989   2.948   1.758   9.403  1.0316 -0.2071  0.2028
  460MOL0     C61990   2.809   1.777   9.420  0.0180  0.0832  0.3047
  460MOL0     C61991   2.715   1.672   9.414 -0.1970 -0.8520  0.9059
  460MOL0     C61992   2.580   1.697   9.416 -0.0134  0.3431 -0.3367
  460MOL0     C61993   2.532   1.828   9.437 -0.2754 -0.6604  0.1153
  460MOL0     C61994   2.392   1.844   9.468 -0.3288  0.0250 -0.8034
  460MOL0     O61995   2.316   1.724   9.499 -0.0212  0.5843 -0.2258
  460MOL0     C61996   2.195   1.728   9.556 -0.0392 -0.8680  0.8270
  460MOL0     C61997   2.158   1.817   9.661 -0.4535  0.0446  0.2239
  460MOL0     C61998   2.029   1.839   9.691 -0.7384  0.8395  0.6794
  460MOL0     C61999   1.931   1.749   9.640 -0.2359 -0.4319  0.5377
  460MOL0     O62000   1.808   1.775   9.697  0.2940  0.1321 -0.4889
  460MOL0     C62001   1.703   1.684   9.679  0.3578  0.1315 -0.2643
  460MOL0     C62002   1.615   1.721   9.554  0.9188 -0.3897  0.7121
  460MOL0     C62003   1.498   1.626   9.536  1.5417  0.5081  0.1187
  460MOL0     C62004   1.411   1.656   9.409  0.2592 -0.3234  0.4938
  460MOL0     C62005   1.341   1.792   9.411 -0.3203 -1.0330 -0.0475
  460MOL0     C62006   1.214   1.794   9.322  0.4345 -0.3737  1.4413
  460MOL0     C62007   1.157   1.940   9.312 -0.0672  0.2275 -0.3877
  460MOL0     C62008   1.028   1.958   9.225  0.4442 -0.2291 -0.5905
  460MOL0    Cl62009   0.873   1.898   9.311  0.1714 -0.1030 -0.1190
  460MOL0     C62010   1.961   1.655   9.542 -0.5705 -0.3233 -0.6013
  460MOL0     C62011   2.097   1.650   9.493  0.0913 -0.2242 -0.0001
  460MOL0     O62012   2.349   1.958   9.473 -0.2952 -0.1025  0.1202
  460MOL0     C62013   2.626   1.933   9.442 -0.2259  0.4413 -0.1708
  460MOL0     C62014   2.763   1.908   9.437 -0.7166  0.7658 -0.4060
  460MOL0     N62015   3.429   1.355   9.522  0.7991  0.3107  1.0221
  460MOL0     N62016   3.499   1.407   9.611  0.1879 -0.1976 -0.2568
  460MOL0     C62017   2.649   1.963   9.978 -0.6717 -0.6578 -0.7523
  460MOL0     C62018   2.526   1.987  10.050 -0.2680 -0.0738  0.6454
  460MOL0     C62019   2.147   1.970  10.286 -0.7345 -0.5387  0.1773
  460MOL0     C62020   2.135   2.022  10.411  0.0905  0.4327 -0.1616
  460MOL0     C62021   2.008   2.051  10.469 -0.8046  0.0550  0.3251
  460MOL0     C62022   1.895   2.031  10.391 -0.3073 -0.4816 -0.4948
  460MOL0     O62023   1.771   2.077  10.426 -0.6482  0.2161  0.6022
  460MOL0     C62024   1.754   2.125  10.556  0.2607  0.1408 -0.0758
  460MOL0     C62025   1.605   2.176  10.565  0.2302  0.2749 -0.3109
  460MOL0     C62026   1.501   2.068  10.571  1.2048 -0.3766  0.3238
  460MOL0     C62027   1.367   2.128  10.595 -0.3359  0.4940  0.0540
  460MOL0     C62028   1.266   2.032  10.630 -0.8216 -0.1873 -0.7002
  460MOL0     C62029   1.195   1.950  10.670  0.7762  0.6126  0.2233
  460MOL0     C62030   1.900   1.982  10.266 -0.5453 -0.2409  0.2854
  460MOL0     C62031   2.024   1.937  10.217 -0.3828  0.1710 -0.1882
  460MOL0     C62032   2.020   1.858  10.086  0.0239 -0.3915 -0.6779
  460MOL0     H62033   2.352   1.702   9.958  0.3946 -0.2248  0.0754
  460MOL0     H62034   2.566   1.660   9.836  0.9213  1.4105 -2.8134
  460MOL0     H62035   2.806   1.622   9.859 -1.7578  0.2540 -0.6310
  460MOL0     H62036   2.755   1.679   9.703  1.3313  0.9017 -0.6049
  460MOL0     H62037   2.974   1.792   9.671  2.3509 -2.1330 -2.0470
  460MOL0     H62038   2.981   1.616   9.689  2.3048  0.7394 -1.6928
  460MOL0     H62039   3.028   1.658   9.948 -3.0173 -0.4164 -0.6056
  460MOL0     H62040   3.074   1.813   9.886  0.8759 -0.3347  1.0309
  460MOL0     H62041   3.208   1.549   9.817 -1.5725  0.3591  0.1567
  460MOL0     H62042   3.232   1.678   9.710  1.6008 -0.9077 -0.1540
  460MOL0     H62043   3.332   1.813   9.871  1.1303 -1.7239 -3.8127
  460MOL0     H62044   3.270   1.689  10.003  0.2280  0.4917  0.1278
  460MOL0     H62045   3.498   1.620   9.978 -4.6165  0.0544  2.1403
  460MOL0     H62046   3.438   1.522   9.856  1.2702 -0.5559  0.6268
  460MOL0     H62047   3.606   1.768   9.829  1.7198 -1.1930 -1.2321
  460MOL0     H62048   3.475   1.773   9.711  0.6177  0.5318  0.0550
  460MOL0     H62049   3.677   1.682   9.617 -0.2798 -2.5422 -2.9439
  460MOL0     H62050   3.679   1.545   9.723 -0.0260 -0.4196 -0.9634
  460MOL0     H62051   3.452   1.661   9.422  1.1748 -1.4610 -1.8302
  460MOL0     H62052   3.364   1.529   9.238 -0.7292  1.3330  1.4441
  460MOL0     H62053   3.349   1.352   9.256 -0.6049 -0.3229 -0.3015
  460MOL0     H62054   3.117   1.423   9.246 -1.0567  1.0657 -1.0015
  460MOL0     H62055   3.140   1.420   9.417 -1.0382  0.4203 -0.6209
  460MOL0     H62056   3.149   1.669   9.244 -0.4394 -0.5784 -0.4677
  460MOL0     H62057   3.185   1.669   9.420  1.2421 -1.2914 -0.7485
  460MOL0     H62058   2.983   1.565   9.471  0.8689 -0.5133 -0.6056
  460MOL0     H62059   2.916   1.579   9.304 -0.7215 -3.3515  2.2526
  460MOL0     H62060   2.755   1.571   9.415  2.5151  0.1360  0.1403
  460MOL0     H62061   2.507   1.619   9.403  0.5252 -0.7056  2.3525
  460MOL0     H62062   2.236   1.880   9.702 -1.4754 -0.4059  3.0532
  460MOL0     H62063   2.000   1.915   9.764 -3.0877  1.0587 -0.3815
  460MOL0     H62064   1.746   1.586   9.659 -1.2761 -0.8718  0.8869
  460MOL0     H62065   1.650   1.678   9.774 -0.9588  3.4719 -0.6405
  460MOL0     H62066   1.587   1.826   9.568  0.0085 -0.8435  2.7817
  460MOL0     H62067   1.676   1.721   9.464  1.0645 -1.0684  0.8055
  460MOL0     H62068   1.527   1.520   9.541  0.2357  0.0964 -0.6466
  460MOL0     H62069   1.437   1.646   9.625  0.8102  3.5407 -0.9465
  460MOL0     H62070   1.336   1.577   9.401 -0.3998  0.2774  0.6180
  460MOL0     H62071   1.477   1.650   9.322 -0.4224  2.2805 -0.2917
  460MOL0     H62072   1.417   1.865   9.381 -0.6962  0.0758  1.5911
  460MOL0     H62073   1.311   1.816   9.513 -1.6947 -1.2610 -0.3807
  460MOL0     H62074   1.239   1.748   9.226  0.3703 -0.1663  1.3232
  460MOL0     H62075   1.136   1.740   9.376 -0.5205 -0.2225  0.2800
  460MOL0     H62076   1.232   2.004   9.265  1.8043 -1.0132  0.7440
  460MOL0     H62077   1.121   1.983   9.406  0.6128  2.1497 -0.9650
  460MOL0     H62078   1.022   2.067   9.216 -1.2280 -0.2970 -0.7851
  460MOL0     H62079   1.029   1.920   9.122 -1.7761 -1.4316 -0.2408
  460MOL0     H62080   1.882   1.595   9.498 -2.0344  0.1739  1.2091
  460MOL0     H62081   2.128   1.584   9.412  1.0046  1.5301 -1.1552
  460MOL0     H62082   2.590   2.035   9.452 -0.2003  0.4251  0.0942
  460MOL0     H62083   2.835   1.987   9.455  2.3575 -2.0495  0.8864
  460MOL0     H62084   2.740   2.021   9.987 -0.3816 -1.1808 -0.2530
  460MOL0     H62085   2.515   2.063  10.127  0.4649 -0.0821  0.7669
  460MOL0     H62086   2.216   2.025  10.484  0.4439  0.1263 -0.5363
  460MOL0     H62087   2.013   2.089  10.570 -2.3202 -0.8356  0.7776
  460MOL0     H62088   1.821   2.204  10.589  0.7856 -0.0376 -0.6941
  460MOL0     H62089   1.766   2.046  10.631 -2.5364 -0.7200 -0.3924
  460MOL0     H62090   1.590   2.243  10.480 -2.4994 -1.1506 -1.0977
  460MOL0     H62091   1.596   2.236  10.655 -0.2847  0.3585 -0.4128
  460MOL0     H62092   1.536   2.002  10.651 -0.2471 -2.8657 -0.9687
  460MOL0     H62093   1.517   2.013  10.477  2.7798  2.2724 -1.0787
  460MOL0     H62094   1.369   2.210  10.667  1.0955 -1.3388  2.2727
  460MOL0     H62095   1.336   2.168  10.498  0.4516 -1.6921 -1.1914
  460MOL0     H62096   1.124   1.873  10.692  0.1092  1.0210 -0.4404
  460MOL0     H62097   1.811   1.980  10.204 -1.5545 -0.6970  1.7170
  460MOL0     H62098   2.066   1.920  10.009 -0.9145  0.6957 -0.4077
  460MOL0     H62099   2.082   1.769  10.092 -0.2175 -0.5222 -0.0137
  460MOL0     H62100   1.917   1.840  10.052 -1.0673  3.1064  0.3211
  461MOL0     O62101   1.744   9.033   8.997  0.1071 -0.3480  0.0114
  461MOL0     C62102   1.698   9.008   8.889 -0.2046 -0.4830  0.0247
  461MOL0     O62103   1.765   8.951   8.785  0.3229  0.2757  0.0873
  461MOL0     C62104   1.899   8.964   8.772 -1.0710 -0.1931  0.4071
  461MOL0     C62105   1.983   8.855   8.760  0.0854  0.1831  0.1258
  461MOL0     C62106   2.117   8.868   8.739 -0.3362 -0.2254 -0.3091
  461MOL0     C62107   2.176   8.995   8.733 -0.9028  0.5965 -0.3698
  461MOL0     O62108   2.313   8.984   8.713  0.1104 -0.1283  0.0715
  461MOL0     C62109   2.377   9.100   8.650  0.5648 -0.2725  0.2600
  461MOL0     C62110   2.521   9.051   8.616 -0.1874  0.4618 -0.2458
  461MOL0     C62111   2.606   9.134   8.522 -0.7384  0.3868  0.3075
  461MOL0     C62112   2.610   9.275   8.583  0.0688 -0.5363 -0.4627
  461MOL0     C62113   2.681   9.380   8.488  0.0375 -0.3038 -0.6255
  461MOL0     C62114   2.826   9.363   8.492 -0.2024 -0.4220 -0.4568
  461MOL0     C62115   2.909   9.441   8.390 -0.5384  0.0113 -0.6118
  461MOL0     C62116   3.057   9.402   8.411  0.2937  0.0349 -0.4014
  461MOL0     N62117   3.145   9.498   8.341 -0.1046 -0.2566 -0.0930
  461MOL0     C62118   3.169   9.627   8.362  0.5638  0.2396 -0.5635
  461MOL0     C62119   3.288   9.654   8.308  0.2162 -0.9828 -0.3242
  461MOL0     C62120   3.338   9.790   8.277  0.3098  0.3407 -0.7086
  461MOL0     C62121   3.316   9.900   8.395 -0.5578  0.3106  0.2844
  461MOL0     C62122   3.323  10.039   8.337  0.4191  0.3798 -0.2144
  461MOL0     C62123   3.465  10.112   8.350 -0.0467  0.4025  0.2381
  461MOL0     O62124   3.565  10.023   8.300  0.1236  0.4520  0.1923
  461MOL0     C62125   3.700  10.066   8.323  0.2922  1.2955 -0.5343
  461MOL0     C62126   3.741  10.200   8.355  0.5939 -0.2823  0.5734
  461MOL0     C62127   3.874  10.228   8.378  0.2087 -0.6075  0.1799
  461MOL0     C62128   3.981  10.134   8.350  0.4612 -0.3292  0.2924
  461MOL0     C62129   4.127  10.176   8.347 -0.9172 -0.5116 -0.0428
  461MOL0     O62130   4.213  10.081   8.293 -0.4283 -0.3973  0.1084
  461MOL0     C62131   4.344  10.103   8.272 -0.4254  0.1730 -0.5161
  461MOL0     C62132   4.428  10.198   8.351  0.2336  0.1918 -0.1726
  461MOL0     C62133   4.562  10.209   8.317 -0.2844  0.3886  0.0539
  461MOL0     C62134   4.609  10.128   8.213 -0.2410  0.6241 -0.3817
  461MOL0     O62135   4.739  10.147   8.185 -0.8065  0.0580  0.4142
  461MOL0     C62136   4.786  10.147   8.045 -0.5455  0.1328 -0.0788
  461MOL0     C62137   4.897  10.252   8.041  0.5974 -0.5084  0.3203
  461MOL0     C62138   4.981  10.258   7.915 -0.7735 -0.8423  0.4083
  461MOL0     C62139   5.131  10.270   7.958  0.1335 -0.2106 -1.2819
  461MOL0     C62140   5.226  10.314   7.855  0.1945 -0.7020 -0.3649
  461MOL0     C62141   5.372  10.325   7.898  0.6002  0.1313  0.0397
  461MOL0     C62142   5.455  10.394   7.782 -0.3306 -0.7539 -0.0705
  461MOL0     C62143   5.603  10.376   7.793 -0.1968 -0.1708  0.3291
  461MOL0    Cl62144   5.653  10.206   7.791 -0.1997 -0.1843  0.6831
  461MOL0     C62145   4.528  10.035   8.144  0.9324 -0.0110 -0.3532
  461MOL0     C62146   4.401  10.038   8.164  1.3854  0.3334  0.5176
  461MOL0     O62147   4.158  10.294   8.375 -0.2550  0.5322 -0.0260
  461MOL0     C62148   3.939  10.001   8.318 -0.7229  0.0803  0.1954
  461MOL0     C62149   3.804   9.970   8.306 -0.4048 -0.7065  0.4020
  461MOL0     N62150   3.330   9.539   8.248  0.1995 -0.9817  1.6647
  461MOL0     N62151   3.247   9.443   8.266  0.1776 -0.0513 -0.6031
  461MOL0     C62152   2.093   9.107   8.756 -0.3723 -0.1071 -0.8457
  461MOL0     C62153   1.958   9.096   8.771 -0.1517 -0.1041 -0.1806
  461MOL0     C62154   1.547   9.026   8.883 -0.6289  0.5410  0.2321
  461MOL0     C62155   1.492   9.132   8.960 -0.2633  0.2119  0.1967
  461MOL0     C62156   1.356   9.154   8.964  0.6921  0.6142  0.0893
  461MOL0     C62157   1.269   9.086   8.891 -0.2516  0.5537 -1.0420
  461MOL0     O62158   1.137   9.113   8.882  0.1238 -0.0258  0.1436
  461MOL0     C62159   1.101   9.247   8.842 -0.2941 -0.0676 -0.2124
  461MOL0     C62160   0.955   9.249   8.799  0.8951  0.3125  0.0890
  461MOL0     C62161   0.863   9.180   8.909 -0.0416 -0.3753 -0.2870
  461MOL0     C62162   0.748   9.277   8.938  1.1113  0.4399 -0.2116
  461MOL0     C62163   0.645   9.192   9.009 -0.5283  0.6088 -0.6336
  461MOL0     C62164   0.545   9.147   9.053 -0.4891 -0.3955  0.0014
  461MOL0     C62165   1.318   8.977   8.814 -0.1456  0.3662 -0.1445
  461MOL0     C62166   1.454   8.948   8.807 -0.1808 -0.6021  0.1510
  461MOL0     C62167   1.515   8.825   8.730 -0.1111 -0.1342 -0.6094
  461MOL0     H62168   1.940   8.756   8.763  0.2405  0.0623 -1.0030
  461MOL0     H62169   2.186   8.793   8.699  1.3224  2.0087 -1.8925
  461MOL0     H62170   2.327   9.151   8.568  3.2975  2.1883 -0.0310
  461MOL0     H62171   2.367   9.184   8.719  2.6721 -1.9608  2.8345
  461MOL0     H62172   2.513   8.950   8.575  0.2538  0.7295 -1.0105
  461MOL0     H62173   2.586   9.032   8.702  0.9696 -1.8699 -1.5455
  461MOL0     H62174   2.563   9.122   8.422 -2.7851  0.3759  1.1416
  461MOL0     H62175   2.707   9.093   8.512 -1.0118 -0.3094  0.3884
  461MOL0     H62176   2.515   9.322   8.610  0.8952  2.6979 -2.6538
  461MOL0     H62177   2.681   9.271   8.666 -0.0690  3.7200  0.0814
  461MOL0     H62178   2.654   9.382   8.382  0.5575  1.0112 -0.7442
  461MOL0     H62179   2.660   9.480   8.525  0.6178  0.2107 -1.6379
  461MOL0     H62180   2.864   9.393   8.590  1.4466 -3.1412 -0.1561
  461MOL0     H62181   2.850   9.258   8.473 -1.6318 -0.3440 -3.0292
  461MOL0     H62182   2.913   9.548   8.413  1.1715 -0.1575  0.0013
  461MOL0     H62183   2.883   9.423   8.285 -1.8280  2.4126 -0.7797
  461MOL0     H62184   3.085   9.400   8.517  0.8792  0.9613 -0.5260
  461MOL0     H62185   3.069   9.296   8.385  0.7903 -0.8007  2.8257
  461MOL0     H62186   3.107   9.706   8.403  0.8670  1.0584 -1.6175
  461MOL0     H62187   3.446   9.781   8.264  0.6104  0.2256  1.3943
  461MOL0     H62188   3.282   9.819   8.188  0.6439  0.7535 -0.7883
  461MOL0     H62189   3.226   9.888   8.456  1.2741  1.8691  3.5787
  461MOL0     H62190   3.406   9.898   8.456 -0.5112  0.9595  0.2488
  461MOL0     H62191   3.255  10.093   8.404 -1.7903 -2.7635  0.3261
  461MOL0     H62192   3.293  10.036   8.232 -0.0202  0.8472 -0.1085
  461MOL0     H62193   3.478  10.131   8.457 -1.8898  3.8068 -0.0221
  461MOL0     H62194   3.468  10.206   8.294  0.2921  1.2503  1.6154
  461MOL0     H62195   3.666  10.276   8.371 -1.7932 -2.1951 -0.9224
  461MOL0     H62196   3.898  10.323   8.426 -3.4816  1.0349 -0.8525
  461MOL0     H62197   4.389  10.252   8.436 -0.1191 -0.6549  0.2121
  461MOL0     H62198   4.629  10.276   8.369 -1.6902  1.5817  0.3911
  461MOL0     H62199   4.824  10.049   8.018 -0.5640  0.0244  0.2768
  461MOL0     H62200   4.710  10.179   7.973  1.5242  2.6605 -1.3033
  461MOL0     H62201   4.851  10.350   8.052 -1.7214 -1.2078 -2.3166
  461MOL0     H62202   4.962  10.228   8.126  2.6531 -0.3833 -1.1288
  461MOL0     H62203   4.963  10.171   7.852  0.2662 -0.7314 -0.0579
  461MOL0     H62204   4.957  10.349   7.858  0.7156 -0.1030  0.8884
  461MOL0     H62205   5.167  10.176   8.002  0.8981  0.0877 -1.2492
  461MOL0     H62206   5.139  10.343   8.039 -1.2105 -2.3084  0.8556
  461MOL0     H62207   5.198  10.412   7.816 -1.3504 -0.1738  1.8941
  461MOL0     H62208   5.225  10.242   7.772 -1.7002 -1.2791  0.1103
  461MOL0     H62209   5.377  10.391   7.985  0.2884 -1.8727  1.6507
  461MOL0     H62210   5.412  10.227   7.926  0.1246 -0.1589 -0.2685
  461MOL0     H62211   5.440  10.501   7.796  2.7337 -0.3223  0.4093
  461MOL0     H62212   5.409  10.368   7.686 -2.9786 -0.0034  0.9119
  461MOL0     H62213   5.644  10.435   7.710 -0.1663 -0.1382  0.3673
  461MOL0     H62214   5.641  10.427   7.882 -1.4430  1.6995 -0.1372
  461MOL0     H62215   4.565   9.973   8.063 -2.9275 -0.4559 -1.9732
  461MOL0     H62216   4.334   9.983   8.099  2.4237  0.3997 -0.6411
  461MOL0     H62217   4.018   9.926   8.309  1.9251  2.7667 -0.3465
  461MOL0     H62218   3.769   9.872   8.275 -1.8415  0.0568 -0.5076
  461MOL0     H62219   2.143   9.203   8.764 -2.1492  0.7611  0.9737
  461MOL0     H62220   1.905   9.188   8.796  0.3789 -0.2294  1.5450
  461MOL0     H62221   1.554   9.204   9.013  2.8753 -2.0071 -0.1990
  461MOL0     H62222   1.323   9.240   9.021  0.1770 -0.2418  1.1231
  461MOL0     H62223   1.171   9.283   8.766  0.0840  1.0379  0.6457
  461MOL0     H62224   1.109   9.311   8.930 -2.9154  1.5394 -1.0212
  461MOL0     H62225   0.943   9.193   8.706 -1.0576  2.3836 -1.0025
  461MOL0     H62226   0.911   9.345   8.768 -1.5581 -0.2471  1.5756
  461MOL0     H62227   0.915   9.171   9.005  0.9574  1.6161 -0.5869
  461MOL0     H62228   0.830   9.083   8.871 -1.6751  0.1910 -0.3996
  461MOL0     H62229   0.781   9.361   9.000  2.1677 -0.0957 -0.0343
  461MOL0     H62230   0.699   9.301   8.843 -1.6025 -0.9874  0.7215
  461MOL0     H62231   0.452   9.117   9.095 -1.7472  4.1118  1.0155
  461MOL0     H62232   1.250   8.922   8.749  0.0551 -2.0540  1.5687
  461MOL0     H62233   1.577   8.762   8.794  3.5277  3.2098 -0.4627
  461MOL0     H62234   1.429   8.766   8.698 -0.5734 -0.6960  1.5348
  461MOL0     H62235   1.574   8.862   8.645 -1.6227  2.5605 -0.6104
  462MOL0     O62236   9.429   8.719   0.692 -0.8078  0.0349 -0.4848
  462MOL0     C62237   9.394   8.729   0.576  0.1017 -0.4004  0.3847
  462MOL0     O62238   9.477   8.777   0.478  0.6135 -0.2237  0.3512
  462MOL0     C62239   9.601   8.827   0.509 -0.7333 -1.4471  0.7114
  462MOL0     C62240   9.646   8.920   0.410 -0.1069 -0.1282 -0.8116
  462MOL0     C62241   9.773   8.978   0.426 -0.2320  0.4627 -0.4688
  462MOL0     C62242   9.856   8.963   0.541  0.0145  0.4409 -0.2139
  462MOL0     O62243   9.971   9.033   0.561  0.5324 -0.0385  0.2490
  462MOL0     C62244  10.082   8.969   0.497  0.3377 -0.4115  0.2863
  462MOL0     C62245  10.087   8.976   0.351 -0.1647  0.1854 -0.1439
  462MOL0     C62246  10.221   8.927   0.298 -0.2172  1.0306 -0.5308
  462MOL0     C62247  10.217   8.903   0.152  0.1059  0.5635  0.3964
  462MOL0     C62248  10.336   8.815   0.119 -0.7018  0.3942  0.0357
  462MOL0     C62249  10.321   8.761  -0.025 -0.2314  0.3852  0.7716
  462MOL0     C62250  10.443   8.680  -0.071  0.1751  0.0626  0.3455
  462MOL0     C62251  10.533   8.758  -0.163  0.2330  1.3565 -0.3973
  462MOL0     N62252  10.611   8.677  -0.253  0.7496 -0.5394 -0.3371
  462MOL0     C62253  10.557   8.614  -0.364  0.0957  0.2398 -0.6119
  462MOL0     C62254  10.663   8.540  -0.415 -0.4845  0.4898 -0.4141
  462MOL0     C62255  10.664   8.431  -0.524  0.4913 -0.8900  0.1693
  462MOL0     C62256  10.648   8.500  -0.674  0.5864  0.4907 -0.5437
  462MOL0     C62257  10.558   8.394  -0.753  0.8365 -0.1524 -0.0608
  462MOL0     C62258  10.518   8.438  -0.898 -0.0065  0.1626 -0.8815
  462MOL0     O62259  10.416   8.542  -0.890  0.2034  0.2619  0.0277
  462MOL0     C62260  10.298   8.499  -0.945  0.6497 -0.4631 -1.3362
  462MOL0     C62261  10.188   8.522  -0.864 -0.5319  1.0092 -0.7710
  462MOL0     C62262  10.065   8.471  -0.908  0.8309  0.6865 -0.7437
  462MOL0     C62263  10.049   8.413  -1.033  0.4202  0.6867  0.4169
  462MOL0     C62264   9.910   8.361  -1.070 -0.9616  0.2570  0.3023
  462MOL0     O62265   9.817   8.358  -0.979 -0.5928  0.4958 -0.2951
  462MOL0     C62266   9.686   8.379  -1.009  0.3695  0.9715  0.9183
  462MOL0     C62267   9.591   8.284  -0.974 -0.0764 -0.7734  0.5406
  462MOL0     C62268   9.458   8.313  -0.983  0.5174 -0.1124 -0.3324
  462MOL0     C62269   9.398   8.439  -1.016 -0.2380 -0.0432  0.3180
  462MOL0     O62270   9.261   8.472  -1.022 -0.6294  1.3287 -0.4181
  462MOL0     C62271   9.176   8.384  -0.946 -0.0485  0.6354  0.5120
  462MOL0     C62272   9.041   8.456  -0.938 -0.6627  0.1089 -0.3867
  462MOL0     C62273   8.952   8.393  -0.833  0.0880 -0.8845 -0.4836
  462MOL0     C62274   8.823   8.470  -0.846  0.5477 -0.2666  0.7433
  462MOL0     C62275   8.702   8.420  -0.768  0.1392  0.6938 -0.1035
  462MOL0     C62276   8.588   8.517  -0.725 -0.0396  0.0683  0.3138
  462MOL0     C62277   8.627   8.633  -0.648  0.4873 -0.0641  0.2362
  462MOL0     C62278   8.505   8.723  -0.607  0.8117  0.0107 -0.4776
  462MOL0    Cl62279   8.404   8.645  -0.479 -0.6140 -0.3375  0.0302
  462MOL0     C62280   9.495   8.539  -1.056  0.0987 -0.2269  1.0067
  462MOL0     C62281   9.636   8.506  -1.056 -0.4686  0.2241 -0.5583
  462MOL0     O62282   9.892   8.333  -1.192 -0.2229  0.3637 -0.5808
  462MOL0     C62283  10.158   8.408  -1.118  0.2367  0.1220  0.2394
  462MOL0     C62284  10.286   8.445  -1.067 -0.8205  0.7492 -0.6781
  462MOL0     N62285  10.772   8.554  -0.332  0.1993  0.0647 -1.4809
  462MOL0     N62286  10.737   8.631  -0.232 -0.0384 -0.1297 -0.0930
  462MOL0     C62287   9.800   8.881   0.641  0.0159 -0.6139 -0.3674
  462MOL0     C62288   9.690   8.810   0.618  0.4037  0.2022  0.1006
  462MOL0     C62289   9.263   8.691   0.538  0.9814  0.2006  0.1951
  462MOL0     C62290   9.202   8.756   0.423 -0.0826 -0.0364 -0.5161
  462MOL0     C62291   9.062   8.744   0.393 -0.5033 -0.6215 -0.3079
  462MOL0     C62292   8.981   8.670   0.473 -0.0763 -0.8033 -0.8194
  462MOL0     O62293   8.849   8.675   0.444  0.0297 -0.0966 -0.6425
  462MOL0     C62294   8.762   8.583   0.507  0.1722 -0.3015 -0.3240
  462MOL0     C62295   8.618   8.609   0.459 -0.2265  1.0537  0.7812
  462MOL0     C62296   8.602   8.633   0.305  0.4470 -0.0121 -0.4812
  462MOL0     C62297   8.455   8.605   0.260 -0.2974 -0.1838  0.0546
  462MOL0     C62298   8.398   8.696   0.160 -0.4138  0.0965  0.2292
  462MOL0     C62299   8.340   8.776   0.093 -1.1621 -1.2380 -0.4711
  462MOL0     C62300   9.037   8.605   0.580  0.2098  0.8657 -1.2937
  462MOL0     C62301   9.170   8.619   0.620 -0.6432  0.1096 -0.2169
  462MOL0     C62302   9.209   8.546   0.752  0.0341  0.8796 -0.8895
  462MOL0     H62303   9.584   8.945   0.324 -1.0090 -0.2702 -0.2106
  462MOL0     H62304   9.814   9.048   0.354  1.5926  0.5617  0.6061
  462MOL0     H62305  10.179   9.010   0.528  1.6476 -0.2437 -3.5106
  462MOL0     H62306  10.081   8.862   0.520 -2.6718 -1.1171 -2.3702
  462MOL0     H62307  10.086   9.080   0.318  2.3374  0.2398 -0.2176
  462MOL0     H62308   9.997   8.930   0.308 -1.0127  2.7068 -1.2714
  462MOL0     H62309  10.248   8.835   0.350  0.2163 -0.4150 -3.1320
  462MOL0     H62310  10.307   8.992   0.315  2.3820 -1.9038 -1.3597
  462MOL0     H62311  10.119   8.861   0.129  0.0007  1.1982 -0.3571
  462MOL0     H62312  10.227   9.000   0.102 -0.6445  0.2300 -0.4374
  462MOL0     H62313  10.429   8.872   0.114  0.9168 -2.1473 -1.3212
  462MOL0     H62314  10.348   8.739   0.196  1.7635  0.2158 -0.4377
  462MOL0     H62315  10.232   8.698  -0.014  0.1002  0.1828  2.6659
  462MOL0     H62316  10.299   8.844  -0.092 -0.2075 -0.4261 -0.2666
  462MOL0     H62317  10.404   8.602  -0.137  0.5832  0.4072 -0.3192
  462MOL0     H62318  10.490   8.627   0.012 -2.9032 -2.3912  0.7010
  462MOL0     H62319  10.478   8.832  -0.222  0.5916  0.7682 -1.4961
  462MOL0     H62320  10.601   8.808  -0.094  0.7657 -1.8938  1.6576
  462MOL0     H62321  10.455   8.615  -0.401 -0.5393 -2.2935  0.7939
  462MOL0     H62322  10.758   8.375  -0.514 -0.7652 -3.3623 -0.8725
  462MOL0     H62323  10.576   8.370  -0.501  1.4495 -1.8986  1.2641
  462MOL0     H62324  10.588   8.592  -0.670 -2.8781 -1.1984 -4.8412
  462MOL0     H62325  10.742   8.529  -0.722 -0.0813  2.4365 -0.8007
  462MOL0     H62326  10.469   8.376  -0.692  2.7026  0.9694  3.2523
  462MOL0     H62327  10.606   8.296  -0.763 -1.5849 -1.3997 -0.2233
  462MOL0     H62328  10.493   8.343  -0.947  1.5314 -2.2886  2.6570
  462MOL0     H62329  10.603   8.472  -0.958  0.3598 -1.1357 -1.1399
  462MOL0     H62330  10.196   8.562  -0.764 -1.9526  1.0209 -0.6427
  462MOL0     H62331   9.976   8.498  -0.853  0.2888  0.2593 -1.3965
  462MOL0     H62332   9.626   8.182  -0.960  0.3565 -0.9785 -1.5991
  462MOL0     H62333   9.396   8.230  -0.952 -0.5637  0.5602 -0.6757
  462MOL0     H62334   9.167   8.283  -0.989 -0.0531  0.4616  0.9147
  462MOL0     H62335   9.209   8.375  -0.842 -0.9324 -0.7949  0.6943
  462MOL0     H62336   9.074   8.555  -0.908 -1.7232  0.7077 -1.1101
  462MOL0     H62337   8.991   8.461  -1.035 -0.8710  0.6572 -0.2536
  462MOL0     H62338   8.933   8.286  -0.849  0.7500 -0.6864 -3.2286
  462MOL0     H62339   9.007   8.402  -0.739  3.2932 -1.5031 -2.1491
  462MOL0     H62340   8.794   8.475  -0.951 -1.0206 -1.5621  1.0743
  462MOL0     H62341   8.848   8.573  -0.818 -0.9879  1.3153 -2.9812
  462MOL0     H62342   8.729   8.371  -0.674 -0.9617  0.5174  0.1427
  462MOL0     H62343   8.652   8.344  -0.829 -0.6278  0.8585  0.3070
  462MOL0     H62344   8.526   8.549  -0.809  0.1994 -1.4267 -0.4730
  462MOL0     H62345   8.516   8.465  -0.661 -0.6912  0.2924 -0.2161
  462MOL0     H62346   8.693   8.697  -0.707 -0.7658 -0.1536 -1.3471
  462MOL0     H62347   8.677   8.595  -0.559 -1.9661  1.7100  2.5515
  462MOL0     H62348   8.533   8.825  -0.579 -4.9571  1.4363  1.4832
  462MOL0     H62349   8.435   8.739  -0.690 -0.0107 -0.6583  0.0781
  462MOL0     H62350   9.465   8.640  -1.083 -1.2045 -0.6407  0.8214
  462MOL0     H62351   9.698   8.591  -1.081  0.7703 -0.5146 -0.0781
  462MOL0     H62352  10.140   8.385  -1.223 -0.3863  3.5306 -0.5110
  462MOL0     H62353  10.378   8.452  -1.123  0.2756  0.0919  0.9413
  462MOL0     H62354   9.854   8.878   0.735 -1.2212  0.1340  0.3895
  462MOL0     H62355   9.658   8.736   0.690  0.0354  2.1099  1.9996
  462MOL0     H62356   9.262   8.814   0.353  0.3539  0.2484  0.0924
  462MOL0     H62357   9.020   8.809   0.317 -0.3741  1.1931  1.1032
  462MOL0     H62358   8.754   8.598   0.615 -3.5912 -2.6681 -0.0682
  462MOL0     H62359   8.783   8.479   0.478  0.9301  0.1711 -1.5467
  462MOL0     H62360   8.572   8.695   0.510  0.5454  0.8577  1.8509
  462MOL0     H62361   8.561   8.522   0.492  0.9050  0.0993  0.2722
  462MOL0     H62362   8.675   8.575   0.248  0.2458 -0.4991 -0.2515
  462MOL0     H62363   8.634   8.735   0.283  1.0371 -0.6161 -2.6136
  462MOL0     H62364   8.448   8.505   0.218  1.3635  0.9182 -3.1784
  462MOL0     H62365   8.398   8.609   0.353  0.4313  0.3714  0.4916
  462MOL0     H62366   8.288   8.848   0.033 -1.8513  0.0246  1.5509
  462MOL0     H62367   8.975   8.537   0.637  0.5931  1.0266 -0.6769
  462MOL0     H62368   9.178   8.441   0.748  2.3125  0.1858 -1.4979
  462MOL0     H62369   9.313   8.530   0.778 -0.6342 -2.2155  0.3169
  462MOL0     H62370   9.164   8.594   0.840  1.1081 -1.1937  0.8708
  463MOL0     O62371   2.864   1.801   4.200  0.2999 -0.4087  0.2746
  463MOL0     C62372   2.885   1.689   4.167 -0.1736  0.6477 -0.3064
  463MOL0     O62373   3.003   1.627   4.181  0.1495  0.6505 -0.1805
  463MOL0     C62374   3.109   1.699   4.244  0.2364  0.0214 -0.1406
  463MOL0     C62375   3.128   1.715   4.380 -0.1086  0.3379 -1.1124
  463MOL0     C62376   3.245   1.767   4.430 -0.5553 -0.6160  0.2316
  463MOL0     C62377   3.346   1.839   4.350  0.8975 -0.0512  0.6695
  463MOL0     O62378   3.458   1.894   4.412  0.7205 -0.1646  0.6137
  463MOL0     C62379   3.556   1.950   4.326  0.4022  0.1517  0.7369
  463MOL0     C62380   3.540   2.112   4.324 -0.5835  0.4137  0.5371
  463MOL0     C62381   3.600   2.182   4.206 -0.4813 -1.0786 -0.0427
  463MOL0     C62382   3.619   2.332   4.224  0.0584  1.3784  0.4000
  463MOL0     C62383   3.738   2.359   4.314 -0.4481 -0.0370 -0.3757
  463MOL0     C62384   3.879   2.332   4.259  0.2698 -0.6198  0.1862
  463MOL0     C62385   3.988   2.379   4.360  0.8809  0.8919  0.1965
  463MOL0     C62386   3.988   2.277   4.481  0.3549  1.0637 -0.7719
  463MOL0     N62387   4.007   2.136   4.442 -0.2632 -0.3837 -0.1077
  463MOL0     C62388   4.129   2.074   4.468  0.0172  0.2755  0.3026
  463MOL0     C62389   4.101   1.942   4.446  0.4120  0.3937  0.4644
  463MOL0     C62390   4.197   1.828   4.463 -0.2116  0.3574 -0.0856
  463MOL0     C62391   4.175   1.753   4.589 -0.7017  0.2705 -0.6846
  463MOL0     C62392   4.288   1.654   4.625  0.2763 -0.3160 -0.0989
  463MOL0     C62393   4.281   1.600   4.767  0.4394 -0.3139  0.4192
  463MOL0     O62394   4.367   1.492   4.800 -0.3035 -0.2443  0.2565
  463MOL0     C62395   4.505   1.523   4.809  0.4989 -0.1934  0.0301
  463MOL0     C62396   4.558   1.651   4.818 -0.4758 -0.4063 -0.8557
  463MOL0     C62397   4.704   1.662   4.826  0.9895 -0.2552  0.2211
  463MOL0     C62398   4.785   1.548   4.827 -1.0043  0.4200 -0.3465
  463MOL0     C62399   4.929   1.567   4.844  0.2729 -0.3597  0.0154
  463MOL0     O62400   5.007   1.458   4.842 -0.3763 -0.0577 -0.0204
  463MOL0     C62401   5.140   1.476   4.862  0.3517 -0.3188  0.3802
  463MOL0     C62402   5.235   1.484   4.767 -0.1023  0.0962 -0.3288
  463MOL0     C62403   5.373   1.514   4.795  0.4597 -0.7137  0.3507
  463MOL0     C62404   5.414   1.545   4.921  0.5568  0.1687  0.1187
  463MOL0     O62405   5.546   1.559   4.936  0.2091  0.1645  0.6202
  463MOL0     C62406   5.596   1.588   5.067  0.8367  0.8278  0.0041
  463MOL0     C62407   5.745   1.622   5.048 -0.2977  0.1762 -0.2915
  463MOL0     C62408   5.828   1.613   5.173  0.6520  0.2003 -0.4218
  463MOL0     C62409   5.980   1.634   5.132  0.3048  0.1225  0.4045
  463MOL0     C62410   6.060   1.635   5.268  0.4967 -0.6154 -0.2669
  463MOL0     C62411   6.069   1.766   5.329 -0.4872  0.4923 -0.3442
  463MOL0     C62412   6.132   1.767   5.469 -0.5814  0.4378 -0.2129
  463MOL0     C62413   6.120   1.886   5.560  0.6066  0.7933 -0.1120
  463MOL0    Cl62414   6.214   2.027   5.511 -0.1573 -0.0678  0.5812
  463MOL0     C62415   5.315   1.547   5.021  0.3436 -0.3284 -0.2766
  463MOL0     C62416   5.183   1.515   4.990 -0.5763  0.6980  0.5114
  463MOL0     O62417   4.972   1.681   4.846 -0.0662 -0.0075 -0.7193
  463MOL0     C62418   4.728   1.422   4.801  0.0517  0.5352 -0.4663
  463MOL0     C62419   4.590   1.414   4.789  0.5348  0.6876  0.0771
  463MOL0     N62420   3.970   1.924   4.403 -0.6110  0.3527 -0.4423
  463MOL0     N62421   3.917   2.041   4.401  0.7096  0.1590  0.6144
  463MOL0     C62422   3.316   1.828   4.214 -0.3605  1.1912  0.2869
  463MOL0     C62423   3.202   1.766   4.163 -1.2809 -0.0306  0.7781
  463MOL0     C62424   2.787   1.611   4.082  0.3467 -1.4145  0.2242
  463MOL0     C62425   2.830   1.519   3.988 -0.3237  0.3075  0.3585
  463MOL0     C62426   2.753   1.454   3.893 -0.8539  0.9395 -0.9923
  463MOL0     C62427   2.617   1.472   3.902 -0.5737 -0.2095 -0.3313
  463MOL0     O62428   2.525   1.414   3.819 -0.8362 -0.0738 -0.4104
  463MOL0     C62429   2.569   1.301   3.741 -0.3083 -0.3110  0.1516
  463MOL0     C62430   2.467   1.246   3.641  0.3077  0.2353 -0.3941
  463MOL0     C62431   2.333   1.230   3.715 -0.1443 -0.2566 -0.6511
  463MOL0     C62432   2.234   1.137   3.630  0.4607  0.2269 -0.0829
  463MOL0     C62433   2.105   1.132   3.701  0.1091 -1.4854  0.2292
  463MOL0     C62434   1.988   1.145   3.729 -1.1692  0.3661 -0.4802
  463MOL0     C62435   2.564   1.561   3.994  0.2860  0.8823  0.0295
  463MOL0     C62436   2.646   1.627   4.084  0.0830  0.8094 -0.5853
  463MOL0     C62437   2.580   1.709   4.190 -0.0353 -0.1304  0.3905
  463MOL0     H62438   3.065   1.667   4.453  1.7017  2.1492  1.8425
  463MOL0     H62439   3.270   1.777   4.535  0.1904  0.6635 -0.0380
  463MOL0     H62440   3.655   1.911   4.351  0.7433  0.7305  0.3227
  463MOL0     H62441   3.554   1.916   4.223 -0.1156 -2.7618  1.6308
  463MOL0     H62442   3.578   2.153   4.418  0.4696  1.7743 -0.4307
  463MOL0     H62443   3.431   2.119   4.317 -0.8314 -3.0736 -1.4210
  463MOL0     H62444   3.539   2.175   4.115  1.6740  0.8285 -1.7519
  463MOL0     H62445   3.695   2.138   4.172 -0.6695  0.7838 -3.4722
  463MOL0     H62446   3.631   2.378   4.126  0.7570 -0.1045 -0.2396
  463MOL0     H62447   3.524   2.367   4.264 -1.0164 -0.6150 -0.3037
  463MOL0     H62448   3.730   2.462   4.348 -0.8830 -0.5974  1.3030
  463MOL0     H62449   3.726   2.294   4.401  1.6272 -1.7715 -1.2998
  463MOL0     H62450   3.889   2.228   4.225 -2.6181 -1.2953  1.1054
  463MOL0     H62451   3.887   2.387   4.164 -0.5735 -0.4598  0.2014
  463MOL0     H62452   3.959   2.475   4.402  3.5592  1.4707  0.9229
  463MOL0     H62453   4.087   2.383   4.315  0.9202 -5.9266 -1.4909
  463MOL0     H62454   4.077   2.302   4.538  1.1005 -0.2248 -1.3330
  463MOL0     H62455   3.898   2.289   4.542  0.5969  0.7963 -0.3639
  463MOL0     H62456   4.216   2.130   4.502 -0.7767  0.2400  2.5997
  463MOL0     H62457   4.185   1.752   4.386 -1.0460 -0.0679  0.4504
  463MOL0     H62458   4.299   1.867   4.455 -0.2641  0.9547  1.5882
  463MOL0     H62459   4.170   1.821   4.674  1.5987  1.4647 -1.4214
  463MOL0     H62460   4.080   1.698   4.580 -0.0774 -0.7211 -1.4199
  463MOL0     H62461   4.382   1.704   4.599 -0.5619  1.7322  0.6457
  463MOL0     H62462   4.269   1.563   4.568 -0.5555 -0.6601  0.6969
  463MOL0     H62463   4.184   1.551   4.784  1.0845 -1.9209 -0.2987
  463MOL0     H62464   4.295   1.678   4.842  0.7938 -0.1586  0.1906
  463MOL0     H62465   4.506   1.746   4.820 -1.5821 -1.0066  0.8284
  463MOL0     H62466   4.738   1.763   4.842  1.1083 -0.4905  1.5772
  463MOL0     H62467   5.213   1.462   4.664  1.3532  1.4673 -0.9781
  463MOL0     H62468   5.448   1.513   4.717  0.8301 -0.9371  0.7030
  463MOL0     H62469   5.537   1.672   5.106 -1.5489  0.5701 -2.7469
  463MOL0     H62470   5.587   1.494   5.122  2.5375 -0.3466 -1.5993
  463MOL0     H62471   5.794   1.558   4.974  1.1155  0.9726 -0.0755
  463MOL0     H62472   5.759   1.723   5.007  0.5901 -0.3074 -1.2473
  463MOL0     H62473   5.790   1.688   5.243  0.7435 -1.2778  1.2898
  463MOL0     H62474   5.823   1.515   5.221  1.1512 -0.6517 -2.0564
  463MOL0     H62475   5.994   1.722   5.070  3.6463 -1.1174 -0.8214
  463MOL0     H62476   6.011   1.549   5.070 -1.8317 -0.7398  0.4069
  463MOL0     H62477   6.165   1.628   5.241  0.6897  2.2793 -0.6165
  463MOL0     H62478   6.022   1.560   5.338  2.0787  0.1022  1.4414
  463MOL0     H62479   6.129   1.833   5.266 -0.4335  1.3549  0.5919
  463MOL0     H62480   5.963   1.790   5.336 -1.4382 -2.7178 -1.7106
  463MOL0     H62481   6.241   1.755   5.468 -0.7063 -1.3852  1.2912
  463MOL0     H62482   6.094   1.679   5.523 -0.2702  0.7906  0.5884
  463MOL0     H62483   6.011   1.901   5.556  0.5520  0.9313  1.5151
  463MOL0     H62484   6.148   1.860   5.662  1.2507 -2.2768 -0.9931
  463MOL0     H62485   5.334   1.570   5.125 -2.2214 -3.1040  0.9448
  463MOL0     H62486   5.099   1.525   5.058  1.4667 -1.0562  3.5407
  463MOL0     H62487   4.793   1.335   4.796  0.2503  0.5949  0.7722
  463MOL0     H62488   4.545   1.319   4.760 -0.1444 -0.1468  3.4669
  463MOL0     H62489   3.385   1.869   4.141 -0.5469  4.9936  2.0296
  463MOL0     H62490   3.177   1.752   4.058 -1.2853 -0.7280  0.8641
  463MOL0     H62491   2.937   1.504   3.985 -0.5376 -1.5385  0.7177
  463MOL0     H62492   2.795   1.393   3.814 -3.0951 -1.6229 -0.3744
  463MOL0     H62493   2.591   1.226   3.817 -0.7442 -0.2690  0.3203
  463MOL0     H62494   2.657   1.324   3.680 -0.6126  1.6063  0.3662
  463MOL0     H62495   2.499   1.144   3.617  1.5655  0.2633  1.0087
  463MOL0     H62496   2.460   1.308   3.551  1.0220  1.4417  0.3553
  463MOL0     H62497   2.283   1.326   3.735  1.9921  0.2980  3.1696
  463MOL0     H62498   2.359   1.182   3.810  1.9129  1.1919 -0.4068
  463MOL0     H62499   2.224   1.174   3.528  1.4387  1.7506  0.3436
  463MOL0     H62500   2.277   1.036   3.632 -1.3348 -0.5663  1.1944
  463MOL0     H62501   1.885   1.165   3.749 -0.5631  4.5538 -0.6374
  463MOL0     H62502   2.456   1.570   3.991  0.2550  0.4783 -0.0959
  463MOL0     H62503   2.576   1.810   4.149 -1.4951 -0.8890 -1.5050
  463MOL0     H62504   2.480   1.671   4.212  0.2566 -0.0781  1.8817
  463MOL0     H62505   2.637   1.704   4.283 -0.2812  0.7866  0.5965
  464MOL0     O62506   8.388   1.277   6.317  0.1717 -0.1449 -0.1275
  464MOL0     C62507   8.386   1.405   6.311  0.3232  0.9279  0.3056
  464MOL0     O62508   8.499   1.487   6.348 -0.3150  0.1855  0.8790
  464MOL0     C62509   8.623   1.435   6.355 -1.1759  0.1349 -0.0559
  464MOL0     C62510   8.719   1.497   6.274 -0.0513 -0.5870  0.8250
  464MOL0     C62511   8.856   1.456   6.274 -0.2995  0.3385  0.9030
  464MOL0     C62512   8.890   1.342   6.341 -0.2065  0.4067 -0.3296
  464MOL0     O62513   9.010   1.282   6.318 -0.1433  0.0418 -0.2867
  464MOL0     C62514   9.027   1.147   6.360  0.4302 -0.1727  0.0735
  464MOL0     C62515   9.153   1.099   6.301  0.0994  0.2699 -0.1642
  464MOL0     C62516   9.276   1.176   6.359 -0.5662  0.2098  0.5372
  464MOL0     C62517   9.413   1.131   6.305  0.4939 -0.5731  0.7953
  464MOL0     C62518   9.529   1.227   6.339  0.4156 -0.0532 -0.6444
  464MOL0     C62519   9.524   1.340   6.248  0.7222  0.4098  0.4752
  464MOL0     C62520   9.611   1.461   6.294 -0.3301  0.6563  0.4176
  464MOL0     C62521   9.608   1.586   6.200 -0.1469 -0.5506 -0.4476
  464MOL0     N62522   9.727   1.675   6.218  0.1696 -0.4706  0.1619
  464MOL0     C62523   9.850   1.652   6.180 -0.0590 -0.0663  0.1018
  464MOL0     C62524   9.918   1.768   6.192 -0.2554  0.0636  0.0642
  464MOL0     C62525  10.057   1.797   6.148 -0.5542  0.5532 -0.8848
  464MOL0     C62526  10.154   1.795   6.254 -0.2099  0.4049  0.0480
  464MOL0     C62527  10.161   1.662   6.329  0.3684  0.3595  0.3886
  464MOL0     C62528  10.281   1.666   6.423 -1.1072 -0.3215 -0.2715
  464MOL0     O62529  10.402   1.684   6.350 -0.0110  0.2821 -0.4148
  464MOL0     C62530  10.500   1.754   6.413  0.6093 -0.0367  0.3541
  464MOL0     C62531  10.532   1.753   6.556 -0.3596  0.1341  0.4588
  464MOL0     C62532  10.634   1.830   6.593  0.0888  0.7586 -0.5429
  464MOL0     C62533  10.703   1.926   6.511 -1.1275  0.8822 -0.6314
  464MOL0     C62534  10.817   2.016   6.558 -0.0529  0.9256  0.4441
  464MOL0     O62535  10.855   2.118   6.473 -0.4751  0.4298 -0.8179
  464MOL0     C62536  10.944   2.213   6.517  0.3045 -0.4387 -1.1019
  464MOL0     C62537  11.060   2.234   6.444  0.3085  0.7492  0.2987
  464MOL0     C62538  11.139   2.349   6.458 -0.2315 -0.7071 -0.1996
  464MOL0     C62539  11.109   2.432   6.567 -0.8448  0.0240  0.0473
  464MOL0     O62540  11.183   2.543   6.569 -0.7939 -0.0299 -0.5166
  464MOL0     C62541  11.180   2.611   6.700  0.9453  0.0880  0.1922
  464MOL0     C62542  11.298   2.712   6.704  0.0567 -0.7492 -0.6543
  464MOL0     C62543  11.266   2.828   6.801 -0.0109  0.1193  0.1076
  464MOL0     C62544  11.297   2.807   6.956  0.2807 -1.0654  0.1672
  464MOL0     C62545  11.455   2.805   6.983  0.9136 -0.5835  0.4565
  464MOL0     C62546  11.486   2.878   7.109 -0.1869 -0.1998  0.1675
  464MOL0     C62547  11.630   2.882   7.139 -0.5586  1.0905  0.1229
  464MOL0     C62548  11.704   2.988   7.055  0.2075 -0.9151 -0.0523
  464MOL0    Cl62549  11.878   2.986   7.109  0.0628 -0.1811 -0.2549
  464MOL0     C62550  11.002   2.402   6.648  0.1766  0.4374  0.0600
  464MOL0     C62551  10.914   2.297   6.626 -0.3760  0.5777  0.2958
  464MOL0     O62552  10.859   1.997   6.672  0.7035 -0.1695 -0.7748
  464MOL0     C62553  10.672   1.926   6.379 -0.2683 -1.4334  0.8438
  464MOL0     C62554  10.567   1.843   6.331 -0.6883 -0.2448  0.1407
  464MOL0     N62555   9.834   1.864   6.247  0.1056  0.7681 -0.6875
  464MOL0     N62556   9.725   1.801   6.267  0.1940  0.5437 -0.3193
  464MOL0     C62557   8.794   1.280   6.431 -0.4665 -0.3263  0.3977
  464MOL0     C62558   8.671   1.330   6.438 -0.0776  0.0134  0.0085
  464MOL0     C62559   8.266   1.468   6.261  0.0751  0.1405 -0.0573
  464MOL0     C62560   8.285   1.579   6.169  0.2750 -0.3615  0.3838
  464MOL0     C62561   8.174   1.615   6.087  0.0395 -0.2160 -0.1604
  464MOL0     C62562   8.044   1.579   6.125  0.0411 -0.2046  0.1411
  464MOL0     O62563   7.935   1.601   6.043  0.0277  0.3381  0.5286
  464MOL0     C62564   7.892   1.737   6.028  0.0179 -0.4700 -0.6422
  464MOL0     C62565   7.744   1.744   6.011  0.5578  0.5389  0.6193
  464MOL0     C62566   7.668   1.709   6.137  0.2476 -0.6957 -0.1333
  464MOL0     C62567   7.519   1.710   6.105 -0.0045  0.7130 -1.0264
  464MOL0     C62568   7.440   1.629   6.198  0.3115 -0.1703 -0.6699
  464MOL0     C62569   7.385   1.556   6.279 -0.3033  0.1532 -0.3762
  464MOL0     C62570   8.032   1.481   6.221  0.2747 -0.1991  0.2499
  464MOL0     C62571   8.138   1.436   6.296 -0.7956  0.4210 -0.4916
  464MOL0     C62572   8.121   1.336   6.409  1.0374 -0.1836  0.1142
  464MOL0     H62573   8.690   1.577   6.207  0.7016 -1.3711 -0.4708
  464MOL0     H62574   8.931   1.508   6.214 -0.6506 -1.2086 -0.9731
  464MOL0     H62575   9.031   1.145   6.469 -2.0121  1.0737  0.2736
  464MOL0     H62576   8.938   1.094   6.324  0.8014 -0.5745 -0.2551
  464MOL0     H62577   9.156   1.130   6.196  0.6575  3.1379  0.6136
  464MOL0     H62578   9.161   0.991   6.319  2.6228  0.6217  1.2104
  464MOL0     H62579   9.276   1.168   6.468 -0.0778  0.5962  0.5703
  464MOL0     H62580   9.258   1.282   6.340  0.6054  0.4376  0.6225
  464MOL0     H62581   9.436   1.031   6.344  0.2811 -0.9032  0.0797
  464MOL0     H62582   9.407   1.117   6.197  0.0623 -1.6721  0.9463
  464MOL0     H62583   9.526   1.259   6.444  1.0120  0.1806 -0.6911
  464MOL0     H62584   9.631   1.187   6.336 -0.0780 -1.3205 -1.0968
  464MOL0     H62585   9.567   1.295   6.158  1.5079 -0.4649  1.2636
  464MOL0     H62586   9.422   1.375   6.231  0.9961  0.9658 -0.0574
  464MOL0     H62587   9.714   1.427   6.305 -1.1780 -1.9016  1.3149
  464MOL0     H62588   9.586   1.490   6.397 -1.6728 -2.5154  1.1156
  464MOL0     H62589   9.595   1.562   6.094  0.1183  2.5364 -1.2824
  464MOL0     H62590   9.521   1.649   6.219 -0.6302 -1.0277 -1.0181
  464MOL0     H62591   9.889   1.556   6.147 -1.4264 -2.2497  4.2353
  464MOL0     H62592  10.084   1.734   6.063  0.3341  1.1366 -1.0476
  464MOL0     H62593  10.061   1.898   6.105  1.6357  0.5811 -0.7255
  464MOL0     H62594  10.255   1.824   6.226 -0.6990  0.4480 -1.7697
  464MOL0     H62595  10.124   1.871   6.327 -2.7293  1.1845 -1.6574
  464MOL0     H62596  10.149   1.576   6.264 -1.0181  0.2982  0.7025
  464MOL0     H62597  10.077   1.659   6.398  1.4648 -3.0173  1.7995
  464MOL0     H62598  10.279   1.574   6.481  3.4969  0.1757  1.0582
  464MOL0     H62599  10.288   1.749   6.494  1.8531  0.7476 -1.6544
  464MOL0     H62600  10.480   1.693   6.630 -1.3542  2.5017  1.7946
  464MOL0     H62601  10.675   1.824   6.694 -0.7324 -2.6581 -0.2919
  464MOL0     H62602  11.085   2.151   6.378  1.7104 -0.9645  2.7920
  464MOL0     H62603  11.213   2.377   6.384 -2.2433  0.4587 -1.8854
  464MOL0     H62604  11.085   2.665   6.712  1.5827  0.8902  2.0147
  464MOL0     H62605  11.186   2.543   6.785 -0.5056 -0.6713 -0.2735
  464MOL0     H62606  11.394   2.663   6.724  1.5938  2.4508  0.4753
  464MOL0     H62607  11.309   2.761   6.607 -0.8418  1.2127  0.1839
  464MOL0     H62608  11.316   2.922   6.775  0.9128  0.1281  1.7992
  464MOL0     H62609  11.157   2.841   6.794 -0.1643  0.7057  2.5464
  464MOL0     H62610  11.244   2.721   6.999  0.1991 -1.3148 -0.4311
  464MOL0     H62611  11.248   2.888   7.012 -1.4828 -3.0702  1.6662
  464MOL0     H62612  11.503   2.859   6.900 -0.4431  1.0560  0.6794
  464MOL0     H62613  11.485   2.701   6.998 -0.0016 -1.2457 -1.8738
  464MOL0     H62614  11.445   2.976   7.138  0.6351 -0.1899  1.3662
  464MOL0     H62615  11.430   2.815   7.178 -2.5429  2.5706  1.0210
  464MOL0     H62616  11.684   2.788   7.125  0.1224  1.3791  0.7665
  464MOL0     H62617  11.652   2.903   7.244 -0.4864  1.0917  0.1076
  464MOL0     H62618  11.692   2.965   6.949  1.5741  2.5806 -1.1057
  464MOL0     H62619  11.660   3.082   7.092 -1.9749 -1.4481 -1.1551
  464MOL0     H62620  10.978   2.468   6.731  0.7070  2.6381 -1.4237
  464MOL0     H62621  10.824   2.279   6.684 -1.2274 -2.3430 -1.7107
  464MOL0     H62622  10.701   2.004   6.309 -2.3558 -0.2138  1.2512
  464MOL0     H62623  10.546   1.853   6.225 -0.7581 -0.3321  0.1468
  464MOL0     H62624   8.817   1.195   6.494 -0.9576 -0.6944  0.0841
  464MOL0     H62625   8.605   1.293   6.516  0.3312  2.4272  1.5895
  464MOL0     H62626   8.383   1.617   6.142 -0.4961 -0.5811 -3.3004
  464MOL0     H62627   8.203   1.686   6.010  0.3525  1.6431  1.5905
  464MOL0     H62628   7.946   1.789   5.949 -1.1704 -2.0499 -2.5869
  464MOL0     H62629   7.920   1.794   6.117 -0.4574 -2.1676  0.6549
  464MOL0     H62630   7.712   1.666   5.941  1.0940 -0.2664  1.2375
  464MOL0     H62631   7.707   1.839   5.974  1.2419  0.8890  0.8089
  464MOL0     H62632   7.674   1.785   6.215 -0.5065 -0.7154 -0.0516
  464MOL0     H62633   7.707   1.614   6.174  1.9676  0.0729  0.1323
  464MOL0     H62634   7.480   1.811   6.114  0.5495  0.8113  0.6270
  464MOL0     H62635   7.502   1.659   6.010  0.4293 -2.0279  0.2545
  464MOL0     H62636   7.337   1.485   6.343  0.3787 -1.6141 -1.7526
  464MOL0     H62637   7.929   1.460   6.248  0.0301  0.9021  0.2338
  464MOL0     H62638   8.176   1.365   6.499  0.9776  0.6707 -0.1216
  464MOL0     H62639   8.016   1.340   6.441  1.2478 -0.6005  0.8871
  464MOL0     H62640   8.139   1.230   6.386 -3.4510 -0.9806 -0.6973
  465MOL0     O62641   7.701   0.240   4.574  0.4676 -0.2499 -0.4278
  465MOL0     C62642   7.602   0.177   4.593 -0.2327  0.0099  0.3275
  465MOL0     O62643   7.581   0.093   4.699 -0.4910 -0.3870  0.2060
  465MOL0     C62644   7.690   0.066   4.775 -0.1060 -0.5461  0.6595
  465MOL0     C62645   7.767  -0.049   4.761  0.2465 -0.7913  0.2157
  465MOL0     C62646   7.887  -0.059   4.840  0.3179 -0.8389  0.0766
  465MOL0     C62647   7.922   0.040   4.933  0.3384  0.7225  0.2978
  465MOL0     O62648   8.021   0.025   5.033 -0.6127 -0.7614 -0.0310
  465MOL0     C62649   8.122  -0.070   5.003  0.1415  0.1237 -0.6268
  465MOL0     C62650   8.219  -0.022   4.896  0.3566 -0.5169 -0.0169
  465MOL0     C62651   8.358   0.011   4.945 -0.9150 -0.3926 -0.9839
  465MOL0     C62652   8.364   0.156   5.016  0.3141 -0.3052  0.1227
  465MOL0     C62653   8.492   0.208   5.052 -0.7024 -0.2046  0.6787
  465MOL0     C62654   8.587   0.096   5.104 -0.2084  0.0028  0.3183
  465MOL0     C62655   8.719   0.143   5.135  0.3783 -0.9098  0.1459
  465MOL0     C62656   8.797   0.206   5.016  0.1234  0.3093 -0.0225
  465MOL0     N62657   8.939   0.214   5.055 -0.4387  0.4219  1.0406
  465MOL0     C62658   9.041   0.160   4.976 -0.3035  0.6235  0.1361
  465MOL0     C62659   9.149   0.198   5.046  0.0930  0.1537 -0.2257
  465MOL0     C62660   9.290   0.171   5.010 -0.4765  0.1272  0.2297
  465MOL0     C62661   9.335   0.028   5.037 -0.2606  0.3455  0.1829
  465MOL0     C62662   9.461  -0.029   4.980  0.5274  0.4485  0.0486
  465MOL0     C62663   9.586   0.008   5.056  0.0852 -0.3991 -0.1445
  465MOL0     O62664   9.688  -0.036   4.967 -0.4605  0.0338  0.2922
  465MOL0     C62665   9.806  -0.083   5.020 -0.3455  0.5764  0.0211
  465MOL0     C62666   9.882  -0.158   4.931  0.6366  0.2733  0.6477
  465MOL0     C62667  10.006  -0.208   4.968 -0.1140  0.1241 -0.7717
  465MOL0     C62668  10.058  -0.187   5.096  0.2651  0.0745  0.2515
  465MOL0     C62669  10.188  -0.248   5.133  0.7322  0.8372 -0.1505
  465MOL0     O62670  10.214  -0.272   5.261  1.0351 -0.3343 -0.5451
  465MOL0     C62671  10.331  -0.321   5.300  0.4509  1.0488 -0.4603
  465MOL0     C62672  10.393  -0.267   5.416 -0.9314 -0.7018  0.5720
  465MOL0     C62673  10.496  -0.329   5.485 -1.0936 -0.3535  0.5450
  465MOL0     C62674  10.568  -0.433   5.429  0.6396 -0.4119  0.6017
  465MOL0     O62675  10.685  -0.482   5.483  0.2745  0.3556  0.0286
  465MOL0     C62676  10.799  -0.528   5.416  0.5218 -0.1671 -0.2041
  465MOL0     C62677  10.930  -0.533   5.494 -0.4231  0.2453 -0.8131
  465MOL0     C62678  11.018  -0.408   5.461  0.5216 -0.6250  0.1031
  465MOL0     C62679  11.136  -0.398   5.551  0.0119  0.6764 -0.4961
  465MOL0     C62680  11.236  -0.306   5.496  0.0955  0.3651  0.3538
  465MOL0     C62681  11.364  -0.315   5.584 -0.2224 -0.2995  0.3539
  465MOL0     C62682  11.427  -0.448   5.555  1.0505 -0.2131  0.5963
  465MOL0     C62683  11.571  -0.463   5.585 -0.5951  0.5521  0.3442
  465MOL0    Cl62684  11.600  -0.461   5.761  0.2186  0.7525 -0.0638
  465MOL0     C62685  10.518  -0.480   5.307 -0.1125 -0.0265  0.0875
  465MOL0     C62686  10.405  -0.431   5.241  0.0096  0.6584  0.0088
  465MOL0     O62687  10.266  -0.266   5.039  0.3711 -0.1143 -0.1180
  465MOL0     C62688   9.981  -0.110   5.186  0.3906 -0.3644  0.8208
  465MOL0     C62689   9.855  -0.061   5.148 -0.1061  0.2765 -0.6363
  465MOL0     N62690   9.108   0.257   5.169  0.4272  0.2746  0.1118
  465MOL0     N62691   8.975   0.267   5.171 -0.2961 -0.2596  0.5369
  465MOL0     C62692   7.834   0.150   4.946  0.7458 -0.7167 -0.5589
  465MOL0     C62693   7.721   0.166   4.872 -0.2835  1.2960 -0.9991
  465MOL0     C62694   7.488   0.206   4.502 -0.6822  0.1008  0.2711
  465MOL0     C62695   7.429   0.096   4.445 -0.3889  0.8671  0.1252
  465MOL0     C62696   7.319   0.096   4.364 -0.2391 -0.6833  0.6457
  465MOL0     C62697   7.261   0.225   4.335 -0.0639  0.3104 -0.1835
  465MOL0     O62698   7.160   0.223   4.244  0.4689  0.8326 -0.1982
  465MOL0     C62699   7.079   0.333   4.209  0.2687 -0.0138  0.7470
  465MOL0     C62700   6.949   0.321   4.290  0.0759 -0.2993  1.3828
  465MOL0     C62701   6.857   0.208   4.228 -0.0309  0.0196  0.5925
  465MOL0     C62702   6.820   0.224   4.075  0.6160  0.1123  1.1140
  465MOL0     C62703   6.695   0.164   4.036  0.5320  0.7864  0.2634
  465MOL0     C62704   6.590   0.122   3.989  0.1011 -0.4340  0.7963
  465MOL0     C62705   7.327   0.338   4.392 -0.7812 -0.4921  0.5215
  465MOL0     C62706   7.431   0.328   4.482 -0.3012 -0.3557 -0.0445
  465MOL0     C62707   7.476   0.450   4.553  0.1662  0.2510 -0.0282
  465MOL0     H62708   7.736  -0.121   4.686 -0.3537  0.1757 -0.4835
  465MOL0     H62709   7.942  -0.147   4.809  1.2233  0.6404 -2.9279
  465MOL0     H62710   8.173  -0.088   5.098 -0.4660  1.7341  0.0362
  465MOL0     H62711   8.070  -0.161   4.971 -0.5761  0.4928 -0.5465
  465MOL0     H62712   8.186   0.066   4.840  0.9284 -0.7380 -0.7316
  465MOL0     H62713   8.232  -0.109   4.830  0.9198 -0.3296 -0.1583
  465MOL0     H62714   8.428   0.018   4.861  1.3114  0.7546  0.8550
  465MOL0     H62715   8.404  -0.065   5.009 -0.6660  1.3104  0.9528
  465MOL0     H62716   8.314   0.225   4.947 -1.2955  0.6612  2.1622
  465MOL0     H62717   8.298   0.149   5.102 -0.4082 -2.6824 -0.5719
  465MOL0     H62718   8.534   0.268   4.971 -3.6013  3.8341  1.8409
  465MOL0     H62719   8.463   0.287   5.123 -0.8758  0.5629 -0.2193
  465MOL0     H62720   8.539   0.045   5.189 -0.3700  2.6290  1.9114
  465MOL0     H62721   8.603   0.016   5.031  0.0141  2.3952 -2.4566
  465MOL0     H62722   8.762   0.051   5.176 -0.5208 -0.9734  0.9966
  465MOL0     H62723   8.710   0.220   5.213  0.4999 -1.7223  0.9823
  465MOL0     H62724   8.783   0.132   4.937  1.2828 -2.8254  2.4926
  465MOL0     H62725   8.745   0.302   5.006 -3.6952 -1.5022  0.6235
  465MOL0     H62726   9.040   0.115   4.877  0.8265 -0.1075  0.4316
  465MOL0     H62727   9.289   0.182   4.901  1.7877 -2.0650 -0.1135
  465MOL0     H62728   9.359   0.243   5.054  0.0620  0.9346 -1.8121
  465MOL0     H62729   9.315   0.010   5.143 -2.3465 -2.0800 -0.5411
  465MOL0     H62730   9.255  -0.032   4.993 -1.3493  1.1080  1.0586
  465MOL0     H62731   9.463   0.003   4.875 -2.5390  0.8722  0.0424
  465MOL0     H62732   9.448  -0.138   4.982 -2.5625  0.7552  1.2399
  465MOL0     H62733   9.588  -0.036   5.156 -2.4793 -0.0986  0.1017
  465MOL0     H62734   9.596   0.117   5.065 -1.3214 -0.3012  0.5085
  465MOL0     H62735   9.839  -0.176   4.833 -0.4956  3.5298  0.4327
  465MOL0     H62736  10.071  -0.264   4.902 -0.6158 -0.1567 -1.0376
  465MOL0     H62737  10.363  -0.179   5.472  1.4359  0.5252  0.0449
  465MOL0     H62738  10.531  -0.280   5.575  1.4957  0.0923 -0.6027
  465MOL0     H62739  10.773  -0.629   5.381  1.2185 -0.4941  0.2011
  465MOL0     H62740  10.826  -0.472   5.326  1.3594 -0.5734 -0.2174
  465MOL0     H62741  10.890  -0.534   5.596 -0.7769 -1.8526 -0.9496
  465MOL0     H62742  10.980  -0.628   5.477  2.9639  1.8113 -0.5007
  465MOL0     H62743  11.056  -0.424   5.360  0.8976  1.2980 -0.1063
  465MOL0     H62744  10.968  -0.311   5.465  2.6509  0.4969  0.9949
  465MOL0     H62745  11.177  -0.499   5.561  0.2746  0.9355  1.1582
  465MOL0     H62746  11.100  -0.362   5.648  0.5278  0.1749 -0.1155
  465MOL0     H62747  11.203  -0.205   5.519 -0.6164 -0.0266  1.1110
  465MOL0     H62748  11.259  -0.326   5.391 -3.4578 -1.8612 -0.1901
  465MOL0     H62749  11.438  -0.242   5.549 -1.6930  1.1244  0.0684
  465MOL0     H62750  11.349  -0.314   5.692  2.5294 -3.3201  0.9108
  465MOL0     H62751  11.403  -0.480   5.453  0.8372  1.9444 -0.0863
  465MOL0     H62752  11.369  -0.525   5.606  1.0419 -0.1072  0.7479
  465MOL0     H62753  11.611  -0.554   5.539 -2.5261 -0.1509 -0.0454
  465MOL0     H62754  11.633  -0.384   5.540 -0.5541  1.8935  2.6430
  465MOL0     H62755  10.567  -0.566   5.264  1.4990  1.4680 -1.2092
  465MOL0     H62756  10.363  -0.482   5.155  0.2210 -1.8412  1.2993
  465MOL0     H62757  10.004  -0.094   5.291 -0.6203 -1.8904  1.3150
  465MOL0     H62758   9.798  -0.019   5.231  0.5171 -1.3567  0.6677
  465MOL0     H62759   7.853   0.228   5.019 -0.2332  0.3600 -1.4074
  465MOL0     H62760   7.649   0.244   4.891 -1.8690  0.6135 -3.6689
  465MOL0     H62761   7.462  -0.006   4.461  0.0646  1.0839  0.5878
  465MOL0     H62762   7.282   0.001   4.325  0.7250 -0.0349 -2.1197
  465MOL0     H62763   7.050   0.345   4.104 -1.7113 -2.5187  0.9069
  465MOL0     H62764   7.130   0.424   4.244  1.3416 -0.6595  0.8806
  465MOL0     H62765   6.900   0.418   4.277  0.9205  0.1449  1.4957
  465MOL0     H62766   6.960   0.310   4.399  2.7879  0.1939  1.2301
  465MOL0     H62767   6.765   0.210   4.287 -0.1289 -2.7253  0.7033
  465MOL0     H62768   6.899   0.108   4.248  0.3033 -0.2850 -1.4336
  465MOL0     H62769   6.804   0.332   4.068 -2.9319 -0.3986 -1.2350
  465MOL0     H62770   6.905   0.198   4.012  0.3023  1.3134  0.1492
  465MOL0     H62771   6.497   0.091   3.947  0.7410 -0.5008 -0.6431
  465MOL0     H62772   7.288   0.437   4.369 -0.6723 -1.0786 -2.7354
  465MOL0     H62773   7.426   0.459   4.650 -2.6247  1.7101 -1.4812
  465MOL0     H62774   7.585   0.443   4.564  0.0872 -1.8784 -0.1425
  465MOL0     H62775   7.450   0.539   4.494  0.2382  0.4266  0.2039
  466MOL0     O62776   9.641   7.837  10.997  0.0208  0.5234  1.1140
  466MOL0     C62777   9.607   7.736  10.927 -0.8299 -0.7477 -0.3763
  466MOL0     O62778   9.699   7.652  10.874 -0.1658 -0.0393  0.1228
  466MOL0     C62779   9.833   7.665  10.905  1.0514 -0.0366  0.1763
  466MOL0     C62780   9.917   7.652  10.795 -0.0400 -0.6808 -0.6674
  466MOL0     C62781  10.058   7.649  10.814 -0.9031 -0.2378 -0.3043
  466MOL0     C62782  10.104   7.655  10.948 -1.2366  0.2570 -0.0439
  466MOL0     O62783  10.242   7.643  10.974 -0.8377 -0.0850  0.6134
  466MOL0     C62784  10.316   7.524  10.930  0.0808 -0.4420  0.9130
  466MOL0     C62785  10.466   7.550  10.942  0.0870  0.1186  0.2855
  466MOL0     C62786  10.550   7.425  10.902  0.3787 -0.4101 -0.4541
  466MOL0     C62787  10.693   7.402  10.945 -0.9328  0.0238  0.3366
  466MOL0     C62788  10.801   7.504  10.903 -0.2758  0.3947  0.3853
  466MOL0     C62789  10.848   7.493  10.757 -0.0850 -0.7433  0.4144
  466MOL0     C62790  10.988   7.554  10.720  0.4898  0.0128  0.3723
  466MOL0     C62791  11.026   7.664  10.820  0.0261 -0.3309 -0.1689
  466MOL0     N62792  11.146   7.733  10.777  0.2636  0.3698 -0.5451
  466MOL0     C62793  11.178   7.802  10.666  0.2566 -0.1697 -0.1656
  466MOL0     C62794  11.304   7.841  10.684 -0.0598  0.0338  0.1065
  466MOL0     C62795  11.377   7.925  10.580 -0.1014 -0.3567  0.1917
  466MOL0     C62796  11.526   7.955  10.631  0.0695 -0.0067 -0.2218
  466MOL0     C62797  11.590   8.061  10.541  0.1368  0.4878  0.0240
  466MOL0     C62798  11.715   8.101  10.615 -0.4659 -0.1896  0.3071
  466MOL0     O62799  11.776   8.214  10.541  0.3028  0.8255  0.7158
  466MOL0     C62800  11.894   8.265  10.576 -0.7605  0.7821  0.1250
  466MOL0     C62801  11.935   8.376  10.500  0.3341  0.5102 -0.2590
  466MOL0     C62802  12.048   8.450  10.527 -0.3465 -0.6016 -1.1932
  466MOL0     C62803  12.132   8.405  10.628  0.1217 -0.2332  0.0774
  466MOL0     C62804  12.256   8.492  10.657  0.3265 -0.6188 -0.2707
  466MOL0     O62805  12.253   8.618  10.609 -0.3048  0.0786  0.3510
  466MOL0     C62806  12.342   8.705  10.659  0.6062  0.7724 -0.0226
  466MOL0     C62807  12.449   8.740  10.576  0.4215 -0.4074 -0.5349
  466MOL0     C62808  12.552   8.833  10.620 -0.5206 -0.1029  1.4844
  466MOL0     C62809  12.534   8.873  10.752 -0.7068  0.2689 -0.2330
  466MOL0     O62810  12.625   8.966  10.794 -0.0030  0.6143  1.2112
  466MOL0     C62811  12.702   8.942  10.909  0.8680 -0.3519  0.1431
  466MOL0     C62812  12.795   9.058  10.936 -0.5277  0.1301  0.0371
  466MOL0     C62813  12.935   9.027  10.881 -0.3046  0.2026 -0.7069
  466MOL0     C62814  13.042   9.146  10.895 -0.0363  0.9794  0.3984
  466MOL0     C62815  13.173   9.136  10.802  0.5771 -0.0785 -0.8294
  466MOL0     C62816  13.253   9.260  10.797  0.5355  0.5747 -0.3852
  466MOL0     C62817  13.181   9.363  10.714  0.2021 -0.8423 -0.1781
  466MOL0     C62818  13.281   9.471  10.669  0.5164 -0.4141  0.0909
  466MOL0    Cl62819  13.424   9.500  10.791 -0.4819 -0.1650  0.1587
  466MOL0     C62820  12.421   8.847  10.838 -0.2667  0.0600  0.0678
  466MOL0     C62821  12.323   8.764  10.777 -0.1970 -0.0858 -0.4907
  466MOL0     O62822  12.344   8.450  10.731 -0.2087  0.0874  0.2263
  466MOL0     C62823  12.106   8.286  10.702  0.7475  0.3617 -0.1598
  466MOL0     C62824  11.985   8.216  10.671  0.7539 -0.5970 -1.0675
  466MOL0     N62825  11.355   7.781  10.797  0.3582 -0.4759  0.4826
  466MOL0     N62826  11.259   7.721  10.851 -0.4771  0.3603 -0.6415
  466MOL0     C62827  10.020   7.670  11.055  0.3895 -0.7887  0.7145
  466MOL0     C62828   9.882   7.682  11.035  0.7491 -0.3516 -1.7551
  466MOL0     C62829   9.458   7.713  10.883  0.4356 -0.2109  0.5487
  466MOL0     C62830   9.436   7.594  10.815  0.3097  0.1467  1.1317
  466MOL0     C62831   9.309   7.555  10.770 -0.1712  0.0731 -0.1157
  466MOL0     C62832   9.199   7.628  10.805 -0.4035  0.3682  0.3758
  466MOL0     O62833   9.076   7.578  10.768  0.7581 -0.0976  0.1933
  466MOL0     C62834   8.954   7.653  10.779  0.1942 -0.6732  0.3722
  466MOL0     C62835   8.853   7.586  10.686  0.1299 -0.3387  0.8047
  466MOL0     C62836   8.874   7.604  10.536 -0.1112  0.0859 -0.0420
  466MOL0     C62837   8.763   7.551  10.452 -0.0337 -0.6820  0.0741
  466MOL0     C62838   8.627   7.601  10.485 -0.3674 -0.5799  0.9754
  466MOL0     C62839   8.523   7.650  10.508  0.3285  0.3474  0.1067
  466MOL0     C62840   9.210   7.746  10.878  0.1619  0.3524 -0.2660
  466MOL0     C62841   9.337   7.790  10.923  0.6162  0.5602 -0.4306
  466MOL0     C62842   9.347   7.916  11.009  0.1528  0.5709  0.6617
  466MOL0     H62843   9.872   7.658  10.696  0.6242  2.4900 -0.8745
  466MOL0     H62844  10.137   7.637  10.741 -1.6591 -3.9898 -0.7177
  466MOL0     H62845  10.288   7.435  10.988  1.2216 -1.3972  0.0489
  466MOL0     H62846  10.299   7.497  10.825  0.4209 -0.7088  0.9263
  466MOL0     H62847  10.483   7.575  11.048 -1.4995 -0.4763  0.7095
  466MOL0     H62848  10.492   7.634  10.877  1.9106  0.3837  1.2800
  466MOL0     H62849  10.548   7.425  10.793 -1.7320 -1.2867 -0.4712
  466MOL0     H62850  10.496   7.343  10.951  4.1042 -1.5008  2.3006
  466MOL0     H62851  10.705   7.394  11.053  0.4913 -1.1881  0.1105
  466MOL0     H62852  10.727   7.305  10.909  5.6926  1.4306  1.5305
  466MOL0     H62853  10.759   7.604  10.915 -1.7551  0.1145 -1.9616
  466MOL0     H62854  10.880   7.481  10.976  1.2912  1.5646 -0.8675
  466MOL0     H62855  10.828   7.388  10.732 -2.4484  0.2979 -2.7357
  466MOL0     H62856  10.774   7.548  10.698  1.3461 -0.1414 -0.8624
  466MOL0     H62857  10.986   7.595  10.618 -0.4502 -0.9215 -0.0094
  466MOL0     H62858  11.067   7.482  10.742  0.2523 -0.7206 -1.0952
  466MOL0     H62859  10.944   7.735  10.835 -0.5348 -0.5572 -1.9282
  466MOL0     H62860  11.032   7.618  10.919 -3.5352  0.0932  0.3950
  466MOL0     H62861  11.109   7.840  10.592  0.6784 -0.2086 -0.5861
  466MOL0     H62862  11.395   7.859  10.494  2.2215  1.1871 -0.6015
  466MOL0     H62863  11.321   8.014  10.551 -0.7531 -0.2316  1.7034
  466MOL0     H62864  11.538   7.975  10.737 -0.0733 -1.4088  0.0778
  466MOL0     H62865  11.592   7.873  10.600  0.7781  0.9963 -1.5083
  466MOL0     H62866  11.529   8.150  10.522 -1.7173 -0.4433  1.2554
  466MOL0     H62867  11.617   8.006  10.451  1.2115  0.1142  0.5504
  466MOL0     H62868  11.784   8.016  10.612 -1.0571 -0.6826  0.7210
  466MOL0     H62869  11.698   8.134  10.718  0.6399  0.8019  0.1988
  466MOL0     H62870  11.878   8.406  10.412  0.7572 -3.6455 -2.1923
  466MOL0     H62871  12.075   8.533  10.463  0.9420  0.7451  0.9857
  466MOL0     H62872  12.451   8.697  10.476  4.5471 -0.1454 -0.7411
  466MOL0     H62873  12.643   8.860  10.569 -0.2997  1.9029  2.8018
  466MOL0     H62874  12.633   8.930  10.993 -1.8177  0.1310 -1.8353
  466MOL0     H62875  12.760   8.849  10.909  0.6243 -0.5241  1.3024
  466MOL0     H62876  12.769   9.149  10.881  1.7468 -0.6402 -2.4886
  466MOL0     H62877  12.791   9.075  11.044  2.0349  1.8437 -0.0535
  466MOL0     H62878  12.974   8.935  10.925 -2.0403  1.3110  3.7637
  466MOL0     H62879  12.926   9.011  10.773  1.2658  2.0137 -1.1637
  466MOL0     H62880  13.065   9.147  11.001  0.1398 -3.0450  0.5382
  466MOL0     H62881  12.989   9.238  10.866  0.2731  0.3518 -2.4897
  466MOL0     H62882  13.151   9.091  10.704  0.3475 -0.7255 -0.4915
  466MOL0     H62883  13.237   9.061  10.849 -0.4138 -0.1737  0.4364
  466MOL0     H62884  13.265   9.297  10.899 -0.4964 -0.6552  0.2165
  466MOL0     H62885  13.350   9.236  10.752  0.7677  0.1685  0.3082
  466MOL0     H62886  13.099   9.405  10.773  2.1026  1.0760  1.2220
  466MOL0     H62887  13.143   9.312  10.624 -0.7102 -0.6501  0.0824
  466MOL0     H62888  13.324   9.432  10.576  1.2381 -0.9900  0.6544
  466MOL0     H62889  13.235   9.564  10.633  0.5455 -0.1678  0.6707
  466MOL0     H62890  12.407   8.893  10.936  1.3262 -0.5379  0.6117
  466MOL0     H62891  12.233   8.729  10.826  1.0513 -3.0355 -0.1210
  466MOL0     H62892  12.181   8.239  10.767 -0.1281 -4.0405 -1.9639
  466MOL0     H62893  11.955   8.131  10.732  0.6054  0.4991  0.4454
  466MOL0     H62894  10.063   7.680  11.154  0.7044 -2.2676  0.7497
  466MOL0     H62895   9.816   7.694  11.119  1.9874  0.6311 -0.8878
  466MOL0     H62896   9.521   7.537  10.778 -0.1569 -0.0914  0.3934
  466MOL0     H62897   9.294   7.475  10.698 -1.5028 -0.5013  0.7521
  466MOL0     H62898   8.964   7.761  10.765 -1.6688 -0.0890  2.8583
  466MOL0     H62899   8.917   7.656  10.882  0.4813  0.3404  0.4563
  466MOL0     H62900   8.761   7.641  10.706 -0.2436  1.1295 -3.7128
  466MOL0     H62901   8.849   7.480  10.714  1.8583 -0.0655  2.2762
  466MOL0     H62902   8.956   7.534  10.514  1.0017  1.5696 -0.7357
  466MOL0     H62903   8.887   7.711  10.518  1.8945  0.4304  2.7949
  466MOL0     H62904   8.795   7.567  10.349  0.4571  0.9085  0.4536
  466MOL0     H62905   8.771   7.442  10.450  1.1594 -0.6449 -3.3105
  466MOL0     H62906   8.419   7.676  10.516 -0.2476 -0.3450 -3.5109
  466MOL0     H62907   9.123   7.799  10.915 -0.5209 -2.1849  2.0554
  466MOL0     H62908   9.362   8.000  10.940 -1.5792  1.3018  1.1260
  466MOL0     H62909   9.249   7.934  11.053 -0.8529  2.0540 -1.9099
  466MOL0     H62910   9.422   7.910  11.089  1.0395  1.8008 -0.0299
  467MOL0     O62911   7.355  10.319   1.273 -0.9192  0.3533 -0.7495
  467MOL0     C62912   7.352  10.431   1.236 -0.1823  0.1969 -0.4921
  467MOL0     O62913   7.451  10.507   1.192 -0.5090  0.1134  0.0323
  467MOL0     C62914   7.572  10.453   1.192 -0.3439  0.4623 -0.7915
  467MOL0     C62915   7.642  10.459   1.303 -0.1871  0.1249 -0.2966
  467MOL0     C62916   7.777  10.411   1.299 -0.2759  0.7505  0.4232
  467MOL0     C62917   7.821  10.346   1.195 -0.4492  0.6924 -1.0358
  467MOL0     O62918   7.956  10.309   1.196 -0.1343 -0.0864 -0.0548
  467MOL0     C62919   8.008  10.231   1.090  0.4921 -0.9172  0.0235
  467MOL0     C62920   8.158  10.226   1.107 -0.4130  0.3255 -0.1180
  467MOL0     C62921   8.195  10.155   1.246  0.5739 -0.1484 -0.2577
  467MOL0     C62922   8.329  10.221   1.286  0.4390 -0.3375  0.7953
  467MOL0     C62923   8.359  10.188   1.428  0.0874  0.4771 -0.8823
  467MOL0     C62924   8.477  10.100   1.446  0.1232  0.0892 -0.1679
  467MOL0     C62925   8.602  10.162   1.374 -0.1259 -0.4188  0.1116
  467MOL0     C62926   8.731  10.111   1.442  0.4464 -0.6003 -0.3359
  467MOL0     N62927   8.855  10.151   1.383  0.6621  0.3641  0.4343
  467MOL0     C62928   8.911  10.084   1.283 -0.2630 -0.0524  0.5091
  467MOL0     C62929   8.994  10.179   1.226 -0.1875  0.3940 -0.2315
  467MOL0     C62930   9.077  10.153   1.108 -0.0935  0.9517  0.5327
  467MOL0     C62931   9.223  10.143   1.137 -0.0337  0.0359  0.7093
  467MOL0     C62932   9.258  10.000   1.171 -0.0724  0.5789 -0.0943
  467MOL0     C62933   9.410   9.970   1.181  0.1919 -0.5640  0.1467
  467MOL0     O62934   9.477  10.035   1.291 -0.7921  1.3580 -0.3168
  467MOL0     C62935   9.612  10.022   1.294  0.4029  0.3202  0.3829
  467MOL0     C62936   9.677   9.910   1.255  0.8293 -0.0700 -0.6774
  467MOL0     C62937   9.819   9.903   1.246  0.7367  0.2797  0.1481
  467MOL0     C62938   9.893  10.005   1.301 -0.8347 -0.1336  0.2317
  467MOL0     C62939  10.041  10.016   1.286  0.9789  0.7369  0.4961
  467MOL0     O62940  10.096  10.127   1.335 -0.3253 -0.0802 -0.1455
  467MOL0     C62941  10.237  10.141   1.326  0.4841 -0.0345  0.1010
  467MOL0     C62942  10.322  10.080   1.419  0.2711  0.6685 -0.7880
  467MOL0     C62943  10.462  10.099   1.410  1.4722 -0.6013 -1.1288
  467MOL0     C62944  10.516  10.188   1.325  0.3510 -0.1408  0.7914
  467MOL0     O62945  10.651  10.212   1.318 -0.0319  0.6176 -0.1857
  467MOL0     C62946  10.749  10.150   1.400  0.0637 -0.2342  0.2335
  467MOL0     C62947  10.876  10.232   1.399  0.1465  0.7123 -0.1718
  467MOL0     C62948  10.998  10.154   1.458  1.2216 -0.0164  0.0794
  467MOL0     C62949  11.110  10.246   1.482 -0.1896  0.1750 -0.0077
  467MOL0     C62950  11.236  10.157   1.500 -0.8807 -0.7478  0.4598
  467MOL0     C62951  11.348  10.253   1.555  0.6783 -0.8266  0.4412
  467MOL0     C62952  11.496  10.209   1.537  0.6413  0.3350  0.2600
  467MOL0     C62953  11.518  10.100   1.648  0.2021 -0.2956  0.0171
  467MOL0    Cl62954  11.545  10.182   1.809  0.3089  0.4931 -0.0992
  467MOL0     C62955  10.426  10.257   1.244  0.4318  0.4005  0.0375
  467MOL0     C62956  10.289  10.240   1.240  0.4969  1.3701  0.0401
  467MOL0     O62957  10.104   9.921   1.248  0.4467  0.1810  0.4263
  467MOL0     C62958   9.825  10.116   1.351  0.0123 -0.4752 -0.9669
  467MOL0     C62959   9.691  10.123   1.353  0.3062  0.3734  0.2368
  467MOL0     N62960   8.993  10.289   1.303  0.2657 -0.1529  0.4162
  467MOL0     N62961   8.919  10.267   1.399  0.4739 -0.5219 -0.3233
  467MOL0     C62962   7.746  10.326   1.078 -0.1652  0.8840 -1.5427
  467MOL0     C62963   7.621  10.374   1.079 -0.6169 -0.2604 -0.5384
  467MOL0     C62964   7.215  10.486   1.225  0.1217  0.7538  0.4136
  467MOL0     C62965   7.101  10.398   1.238  0.4878  0.0281 -0.5455
  467MOL0     C62966   6.968  10.437   1.227  0.1509  0.4551 -0.2348
  467MOL0     C62967   6.944  10.575   1.193 -0.2908  0.1143 -0.6032
  467MOL0     O62968   6.816  10.607   1.200  0.0841  0.0855  0.3466
  467MOL0     C62969   6.771  10.711   1.108 -0.1478 -0.1788  0.3662
  467MOL0     C62970   6.621  10.678   1.081 -0.1079  0.1301  0.3615
  467MOL0     C62971   6.520  10.790   1.121 -0.7655  0.5004  0.5638
  467MOL0     C62972   6.533  10.916   1.036  0.3652 -1.1948  0.8714
  467MOL0     C62973   6.431  11.023   1.036  0.0064 -0.5279  0.2450
  467MOL0     C62974   6.348  11.115   1.033  0.9713 -0.1335 -0.6563
  467MOL0     C62975   7.050  10.661   1.200  0.4802 -0.1678 -0.5797
  467MOL0     C62976   7.187  10.618   1.206  0.9439  0.4038 -0.0334
  467MOL0     C62977   7.288  10.725   1.215 -0.8872 -0.1058  0.2256
  467MOL0     H62978   7.597  10.489   1.397  1.5888 -0.6045  0.8398
  467MOL0     H62979   7.833  10.405   1.392 -1.1653 -0.9056  0.9000
  467MOL0     H62980   7.962  10.132   1.102 -1.9256  0.2900  1.3718
  467MOL0     H62981   7.986  10.278   0.994 -1.7137 -1.4452  0.2360
  467MOL0     H62982   8.202  10.325   1.092  5.1317 -1.9386 -1.0662
  467MOL0     H62983   8.185  10.159   1.025  0.8008  0.2385  0.3409
  467MOL0     H62984   8.214  10.048   1.232  3.3938 -0.1485  2.4746
  467MOL0     H62985   8.124  10.167   1.328  2.0671 -0.7841  1.2019
  467MOL0     H62986   8.399  10.194   1.206  2.5385  0.7068  2.1723
  467MOL0     H62987   8.319  10.330   1.283  2.1820 -0.1831 -1.0432
  467MOL0     H62988   8.363  10.282   1.484  1.2499  0.1382 -0.3610
  467MOL0     H62989   8.275  10.125   1.460 -0.0336 -0.6328 -3.2212
  467MOL0     H62990   8.511  10.087   1.550  3.1640  1.1843 -0.9148
  467MOL0     H62991   8.463  10.002   1.399 -1.6644 -0.0285  0.5469
  467MOL0     H62992   8.589  10.270   1.384  0.1957 -0.4840  1.5004
  467MOL0     H62993   8.612  10.152   1.266  0.9614  2.2803 -0.0931
  467MOL0     H62994   8.730  10.136   1.549  0.8836 -1.5634 -0.0958
  467MOL0     H62995   8.727  10.002   1.440 -0.8033 -0.6005  0.7473
  467MOL0     H62996   8.886   9.987   1.242 -0.7598  0.0702  0.5196
  467MOL0     H62997   9.042  10.060   1.062  0.1765  0.5842  1.0630
  467MOL0     H62998   9.063  10.233   1.036  0.9323 -1.3917 -2.5128
  467MOL0     H62999   9.286  10.164   1.050 -1.6332  2.0174 -0.0378
  467MOL0     H63000   9.251  10.203   1.223 -4.0932  0.2624  2.0582
  467MOL0     H63001   9.220   9.939   1.089  2.5462 -0.1677 -0.8470
  467MOL0     H63002   9.215   9.962   1.265  0.8957 -0.6513 -0.1168
  467MOL0     H63003   9.454   9.995   1.084 -2.0175  0.3739 -0.6937
  467MOL0     H63004   9.406   9.861   1.194 -2.3084 -0.7121 -1.2213
  467MOL0     H63005   9.629   9.825   1.207  1.1815  0.4538 -2.0221
  467MOL0     H63006   9.856   9.809   1.206  2.1270  0.3622  1.2066
  467MOL0     H63007  10.284  10.015   1.498  1.2623 -0.7540 -1.4311
  467MOL0     H63008  10.534  10.056   1.479  1.2779  2.1718  0.9826
  467MOL0     H63009  10.726  10.140   1.506 -0.9124  1.6214  0.2315
  467MOL0     H63010  10.775  10.051   1.360  1.1059  0.0916  0.0519
  467MOL0     H63011  10.902  10.246   1.294 -3.3141  2.2225 -0.9591
  467MOL0     H63012  10.861  10.329   1.447 -1.3486  0.2448  0.3564
  467MOL0     H63013  10.974  10.107   1.554  1.7601  1.0501  0.7539
  467MOL0     H63014  11.028  10.080   1.382 -2.3062  1.1863 -2.7523
  467MOL0     H63015  11.093  10.310   1.569 -1.3101  0.5802 -0.5020
  467MOL0     H63016  11.122  10.311   1.395 -1.6885  0.5051  0.0134
  467MOL0     H63017  11.280  10.114   1.410  0.4927 -0.6306  1.0554
  467MOL0     H63018  11.216  10.075   1.569 -1.3061  0.1980  1.5036
  467MOL0     H63019  11.347  10.344   1.493 -0.8245  0.2944  2.0299
  467MOL0     H63020  11.319  10.296   1.651  0.5959 -0.2782  0.1792
  467MOL0     H63021  11.567  10.292   1.536  0.3445  0.8014 -4.1412
  467MOL0     H63022  11.507  10.162   1.439 -3.2057 -2.8109  1.0585
  467MOL0     H63023  11.440  10.024   1.661 -1.0620  0.8511 -0.6410
  467MOL0     H63024  11.616  10.058   1.622  1.4576  1.9295  0.8834
  467MOL0     H63025  10.474  10.333   1.183 -1.5369  0.1961 -1.9434
  467MOL0     H63026  10.217  10.296   1.181  0.7471  1.5520 -0.0960
  467MOL0     H63027   9.877  10.199   1.397  1.8117 -1.7344 -0.6119
  467MOL0     H63028   9.637  10.211   1.385 -0.5647 -0.2043  0.3769
  467MOL0     H63029   7.784  10.270   0.993  2.7693  2.0041 -1.0928
  467MOL0     H63030   7.558  10.348   0.995 -2.3718  1.8943  0.0171
  467MOL0     H63031   7.114  10.292   1.257 -0.7661 -0.0009  0.2490
  467MOL0     H63032   6.885  10.367   1.222  0.9853 -0.4910 -1.4393
  467MOL0     H63033   6.828  10.720   1.015  0.8300  0.9913  1.0487
  467MOL0     H63034   6.781  10.816   1.137  0.2368  0.1650 -0.9283
  467MOL0     H63035   6.592  10.587   1.136  3.0036 -1.4457 -0.3903
  467MOL0     H63036   6.607  10.673   0.973 -3.3896 -1.1185  0.7259
  467MOL0     H63037   6.519  10.802   1.230 -0.1865 -2.3669  0.9706
  467MOL0     H63038   6.425  10.744   1.092 -0.6248 -1.5082  2.9732
  467MOL0     H63039   6.624  10.971   1.063 -0.0153  0.8261 -1.5802
  467MOL0     H63040   6.546  10.898   0.929 -3.2473  1.6175 -0.2466
  467MOL0     H63041   6.275  11.193   1.030 -0.4409 -1.4248 -1.8437
  467MOL0     H63042   7.028  10.765   1.179  1.5920  0.1758 -0.0785
  467MOL0     H63043   7.325  10.730   1.112  0.2508 -2.7069  0.4262
  467MOL0     H63044   7.246  10.822   1.244  1.3562  1.0864 -0.2242
  467MOL0     H63045   7.366  10.704   1.289 -0.8525 -1.0205 -0.0626
  468MOL0     O63046   6.741   2.027   3.394 -0.0703  0.7570  0.2615
  468MOL0     C63047   6.748   1.941   3.477  0.2154  0.5303  0.2020
  468MOL0     O63048   6.837   1.829   3.472  0.0376 -0.1848  0.2818
  468MOL0     C63049   6.923   1.817   3.361  0.0538 -0.9065 -0.3976
  468MOL0     C63050   7.031   1.897   3.342  0.7678 -0.1457 -0.0389
  468MOL0     C63051   7.118   1.865   3.238  0.6392 -0.0552  0.1548
  468MOL0     C63052   7.092   1.756   3.143  0.3410 -0.7259 -0.0294
  468MOL0     O63053   7.174   1.767   3.034 -0.3789 -0.6837  0.2729
  468MOL0     C63054   7.135   1.699   2.916  0.2375 -0.6297 -1.1655
  468MOL0     C63055   7.230   1.735   2.804  0.3815  0.8631 -0.0343
  468MOL0     C63056   7.361   1.663   2.835 -0.1289 -0.7690  0.1249
  468MOL0     C63057   7.469   1.722   2.739 -0.3599 -0.6822  0.2608
  468MOL0     C63058   7.596   1.656   2.768 -0.6859  0.5991 -0.0838
  468MOL0     C63059   7.698   1.714   2.669 -0.0489  0.4108 -0.4525
  468MOL0     C63060   7.822   1.629   2.674  0.0401  0.1514  0.1923
  468MOL0     C63061   7.934   1.683   2.587 -0.8761 -0.1856 -0.5531
  468MOL0     N63062   8.015   1.573   2.539 -0.1763  0.3897 -0.1171
  468MOL0     C63063   8.004   1.505   2.425 -0.4388 -0.5162  1.0002
  468MOL0     C63064   8.100   1.410   2.431 -0.9748 -0.3127 -0.0672
  468MOL0     C63065   8.119   1.297   2.332  0.4802  0.2370  0.0330
  468MOL0     C63066   8.260   1.265   2.293 -0.1908  0.1282  0.6699
  468MOL0     C63067   8.339   1.193   2.402 -0.4832 -0.1376 -0.3993
  468MOL0     C63068   8.482   1.157   2.347 -0.0640 -0.4944 -0.5190
  468MOL0     O63069   8.467   1.043   2.266 -0.0992  0.2787 -0.0943
  468MOL0     C63070   8.577   0.987   2.215  1.0868  0.2960 -0.4949
  468MOL0     C63071   8.708   1.030   2.232 -0.0081  0.0962 -0.1714
  468MOL0     C63072   8.813   0.947   2.186  1.2578  0.5626 -0.5405
  468MOL0     C63073   8.796   0.826   2.123  0.8933 -0.5401 -1.3775
  468MOL0     C63074   8.918   0.773   2.061  0.4749 -0.5307  0.2736
  468MOL0     O63075   9.041   0.835   2.085  0.5353 -0.5912  0.1378
  468MOL0     C63076   9.160   0.793   2.047  0.0049 -0.0891 -0.4345
  468MOL0     C63077   9.194   0.684   1.958 -0.6081 -0.5213 -0.5027
  468MOL0     C63078   9.328   0.641   1.940  0.4585 -0.3995 -0.1061
  468MOL0     C63079   9.435   0.717   2.003 -0.8315 -0.3114 -0.2076
  468MOL0     O63080   9.563   0.677   1.999 -0.0732  0.2350 -0.3359
  468MOL0     C63081   9.597   0.562   1.923 -0.5733 -0.2997  0.0507
  468MOL0     C63082   9.744   0.572   1.923  0.3278 -0.0980 -0.1185
  468MOL0     C63083   9.806   0.682   1.844  0.2384  0.1509 -0.3914
  468MOL0     C63084   9.958   0.675   1.856  0.0834  0.2118  0.8402
  468MOL0     C63085  10.038   0.783   1.776  0.7144 -0.0880 -0.3837
  468MOL0     C63086   9.984   0.823   1.641 -0.1600  0.0385 -0.2712
  468MOL0     C63087  10.049   0.950   1.585 -0.1223  0.5302 -1.0500
  468MOL0     C63088  10.058   0.954   1.436  0.0315  0.5978  0.3919
  468MOL0    Cl63089   9.896   0.900   1.351  0.2440  0.2335  0.1417
  468MOL0     C63090   9.402   0.836   2.074 -0.4922  0.4359  0.4068
  468MOL0     C63091   9.267   0.870   2.094  0.8347  1.1416 -0.6933
  468MOL0     O63092   8.898   0.673   1.995  0.0497  0.2732  0.8111
  468MOL0     C63093   8.662   0.783   2.110 -0.0262  1.2583 -0.2076
  468MOL0     C63094   8.558   0.864   2.156  0.2542  0.9817  0.0957
  468MOL0     N63095   8.165   1.420   2.553  0.6236  0.1906  0.4515
  468MOL0     N63096   8.121   1.528   2.611  0.3811 -0.2541  1.0618
  468MOL0     C63097   6.972   1.683   3.160 -0.9745  0.4089  0.0069
  468MOL0     C63098   6.887   1.718   3.269 -0.4321 -0.0876  0.2133
  468MOL0     C63099   6.650   1.949   3.585 -0.5758  0.6254  0.0284
  468MOL0     C63100   6.691   1.890   3.707  0.2391 -0.7419  1.2358
  468MOL0     C63101   6.605   1.879   3.813  0.0714  0.4781 -0.1972
  468MOL0     C63102   6.472   1.913   3.810 -0.2861 -0.2979  0.6123
  468MOL0     O63103   6.379   1.900   3.912  0.2517 -0.5531  0.2266
  468MOL0     C63104   6.409   1.837   4.033 -0.2593 -0.1963 -0.2476
  468MOL0     C63105   6.273   1.843   4.122 -0.1154  0.9854 -0.6659
  468MOL0     C63106   6.147   1.794   4.056 -0.1443  0.0021 -0.1504
  468MOL0     C63107   6.026   1.780   4.158 -0.0607  0.2671  0.5569
  468MOL0     C63108   5.904   1.760   4.078 -0.9402 -0.1565  0.8254
  468MOL0     C63109   5.807   1.752   4.011  0.5253  0.6802 -0.9364
  468MOL0     C63110   6.436   1.980   3.689  0.3408  0.6523  0.1023
  468MOL0     C63111   6.516   1.995   3.580 -0.5448 -0.4489  0.3271
  468MOL0     C63112   6.445   2.059   3.462 -0.9118 -0.2379 -1.0048
  468MOL0     H63113   7.039   1.989   3.399  0.4419 -1.5996  2.5103
  468MOL0     H63114   7.201   1.930   3.213  0.4116 -0.3052 -1.3236
  468MOL0     H63115   7.144   1.593   2.940  1.0293 -0.2667  0.3034
  468MOL0     H63116   7.036   1.737   2.889  0.2688  0.3498 -0.0204
  468MOL0     H63117   7.235   1.844   2.792  0.6381  1.0642  1.6182
  468MOL0     H63118   7.186   1.700   2.711  1.1012  4.0289 -1.7032
  468MOL0     H63119   7.358   1.557   2.809 -0.0696 -0.1654 -2.7622
  468MOL0     H63120   7.390   1.689   2.937  1.1674  3.4882 -1.0832
  468MOL0     H63121   7.444   1.707   2.634  1.6862  0.9041 -0.5231
  468MOL0     H63122   7.485   1.830   2.750  1.0487 -0.6902 -1.3057
  468MOL0     H63123   7.608   1.666   2.877 -0.0895 -0.8401  0.0061
  468MOL0     H63124   7.582   1.548   2.762 -0.1931  0.5247  0.0727
  468MOL0     H63125   7.657   1.711   2.568  0.3628 -2.0898 -0.6077
  468MOL0     H63126   7.729   1.815   2.697 -1.7427  1.5013 -2.2449
  468MOL0     H63127   7.803   1.527   2.639 -0.3435 -0.0439  0.9610
  468MOL0     H63128   7.855   1.619   2.778 -2.5848 -2.3589  0.9077
  468MOL0     H63129   7.905   1.735   2.495  1.3578  0.8133 -0.7532
  468MOL0     H63130   7.986   1.756   2.651 -1.8571 -0.1681  0.2522
  468MOL0     H63131   7.935   1.521   2.343  2.1685 -0.5371 -1.3609
  468MOL0     H63132   8.068   1.203   2.354 -0.8630  0.4774 -1.7564
  468MOL0     H63133   8.073   1.341   2.242 -1.9741 -0.6230  0.7788
  468MOL0     H63134   8.238   1.188   2.218 -0.1141  0.4136  0.3549
  468MOL0     H63135   8.312   1.350   2.248  1.3367 -0.9949  0.2443
  468MOL0     H63136   8.287   1.104   2.438  0.0894 -0.3259 -0.0285
  468MOL0     H63137   8.352   1.267   2.481 -2.8563  2.4984 -2.2765
  468MOL0     H63138   8.554   1.141   2.428 -0.3382 -2.4548 -0.6002
  468MOL0     H63139   8.515   1.242   2.288 -2.0973  2.0260  1.7196
  468MOL0     H63140   8.733   1.120   2.288  2.0700 -0.3172 -0.3442
  468MOL0     H63141   8.912   0.985   2.208  1.5461 -0.5534  0.1988
  468MOL0     H63142   9.110   0.630   1.914 -1.2203 -1.9203  2.1269
  468MOL0     H63143   9.345   0.553   1.878  2.8576  0.8646 -1.3872
  468MOL0     H63144   9.555   0.475   1.973 -2.9402 -1.2104 -3.1625
  468MOL0     H63145   9.561   0.574   1.820 -0.9446  1.8982  0.3886
  468MOL0     H63146   9.778   0.580   2.027  2.8529 -0.6962 -0.8131
  468MOL0     H63147   9.776   0.479   1.874 -1.1645 -1.4664  1.3876
  468MOL0     H63148   9.780   0.668   1.738  0.5335 -0.3378 -0.4036
  468MOL0     H63149   9.769   0.779   1.876 -2.6763 -0.0631 -2.6187
  468MOL0     H63150   9.993   0.577   1.823  4.7428  2.5342 -2.1878
  468MOL0     H63151   9.990   0.685   1.960  1.6498  0.6977  0.3361
  468MOL0     H63152  10.141   0.748   1.780  0.5303 -0.5738  0.4666
  468MOL0     H63153  10.034   0.876   1.833  2.2024 -0.3935  0.2461
  468MOL0     H63154   9.994   0.737   1.574 -0.6651 -1.5225  1.5730
  468MOL0     H63155   9.877   0.847   1.645 -0.5352 -1.2480 -1.6166
  468MOL0     H63156  10.148   0.958   1.631 -0.4848  1.4093 -0.3889
  468MOL0     H63157   9.983   1.030   1.619 -1.1765 -1.3432  1.7356
  468MOL0     H63158  10.081   1.059   1.416 -0.7997  0.5309 -1.0387
  468MOL0     H63159  10.133   0.876   1.417 -0.1537  0.1664  1.3674
  468MOL0     H63160   9.481   0.898   2.115  0.3177 -1.2156  1.4171
  468MOL0     H63161   9.257   0.957   2.158  0.1865 -0.3293  1.3327
  468MOL0     H63162   8.623   0.690   2.071 -0.5253  1.1111  0.6039
  468MOL0     H63163   8.465   0.812   2.136  1.4405 -1.6657  1.0935
  468MOL0     H63164   6.934   1.617   3.083 -1.4329  2.5866 -1.7590
  468MOL0     H63165   6.794   1.663   3.283  0.6298 -1.5011  2.2328
  468MOL0     H63166   6.790   1.845   3.711  1.6244  1.6387 -1.7634
  468MOL0     H63167   6.640   1.842   3.909 -4.1846  2.5922  2.4757
  468MOL0     H63168   6.494   1.883   4.085 -1.5390 -0.1662  1.9269
  468MOL0     H63169   6.427   1.731   4.013  8.4828  0.5505 -0.1900
  468MOL0     H63170   6.254   1.944   4.160 -1.0891  0.2391  0.9070
  468MOL0     H63171   6.286   1.777   4.208 -2.5787  0.1238 -0.8828
  468MOL0     H63172   6.174   1.694   4.022  1.5497  0.2278  0.4156
  468MOL0     H63173   6.117   1.857   3.972 -0.0401 -1.2266 -1.1296
  468MOL0     H63174   6.034   1.693   4.223  0.5364 -0.0617  0.0561
  468MOL0     H63175   6.020   1.858   4.234  0.5452  0.3539  0.5212
  468MOL0     H63176   5.715   1.742   3.958 -0.5397  2.1012  0.5523
  468MOL0     H63177   6.333   2.015   3.690 -0.2339 -0.9495 -0.1156
  468MOL0     H63178   6.372   2.130   3.503  0.7552  1.4118 -0.7501
  468MOL0     H63179   6.510   2.120   3.397  1.7603  0.7848  2.3632
  468MOL0     H63180   6.395   1.992   3.392  2.3201  1.0248 -4.9326
  469MOL0     O63181   5.568   5.331   5.133 -0.0448 -0.0467 -0.3902
  469MOL0     C63182   5.509   5.371   5.035  0.1283  0.5955  0.6598
  469MOL0     O63183   5.566   5.392   4.909  0.6207 -0.6788 -0.0534
  469MOL0     C63184   5.700   5.357   4.887  0.4848  0.0405 -0.5087
  469MOL0     C63185   5.813   5.395   4.961 -0.5443 -0.1532 -0.9760
  469MOL0     C63186   5.939   5.341   4.929  0.0016 -0.5190 -0.0687
  469MOL0     C63187   5.958   5.277   4.808  0.0429  0.2442  0.0779
  469MOL0     O63188   6.083   5.239   4.771  0.3557  0.0363  0.3476
  469MOL0     C63189   6.109   5.129   4.677  0.7100  0.4484  0.5220
  469MOL0     C63190   6.256   5.073   4.694 -0.0399 -0.0874  0.5259
  469MOL0     C63191   6.364   5.180   4.657 -0.6302  0.2054 -0.3907
  469MOL0     C63192   6.506   5.127   4.679 -0.2975  0.2076 -0.0933
  469MOL0     C63193   6.617   5.237   4.683  0.8292 -0.8881  1.1472
  469MOL0     C63194   6.750   5.177   4.726  0.0305  0.0525  0.3339
  469MOL0     C63195   6.852   5.289   4.728 -0.3426 -0.4155  0.1839
  469MOL0     C63196   6.996   5.235   4.758  0.8855 -0.5515 -0.2436
  469MOL0     N63197   7.077   5.356   4.747  0.2828  0.0576 -0.3104
  469MOL0     C63198   7.136   5.396   4.636 -0.2384 -0.5664  0.0928
  469MOL0     C63199   7.209   5.509   4.664  0.1593 -0.0109  0.4650
  469MOL0     C63200   7.282   5.602   4.573 -0.0436  0.2140  0.3341
  469MOL0     C63201   7.426   5.567   4.557 -0.6773  0.6377 -0.8232
  469MOL0     C63202   7.477   5.626   4.425 -0.6323 -0.4750 -0.5250
  469MOL0     C63203   7.629   5.646   4.427  0.2525  0.1793 -0.0288
  469MOL0     O63204   7.666   5.677   4.293 -0.2873 -0.3369 -0.0104
  469MOL0     C63205   7.803   5.709   4.275  0.2277  0.5559  0.4968
  469MOL0     C63206   7.835   5.782   4.159 -0.3421  0.6846  0.0923
  469MOL0     C63207   7.970   5.818   4.129 -0.3224  0.7084 -1.0427
  469MOL0     C63208   8.075   5.789   4.221 -0.0203 -0.6769 -0.8834
  469MOL0     C63209   8.218   5.826   4.196  0.6309 -1.2628 -1.0305
  469MOL0     O63210   8.311   5.790   4.296 -0.7860  0.7440  0.4698
  469MOL0     C63211   8.450   5.781   4.274 -0.1151  0.1659 -0.6119
  469MOL0     C63212   8.517   5.664   4.327  0.4642 -0.0657 -1.2154
  469MOL0     C63213   8.644   5.640   4.294 -1.6922 -0.3108 -0.2311
  469MOL0     C63214   8.725   5.737   4.223  0.8853  0.5016  0.0973
  469MOL0     O63215   8.857   5.707   4.213 -0.1485  0.5149  0.8346
  469MOL0     C63216   8.947   5.805   4.152 -0.4330  0.0659 -0.3416
  469MOL0     C63217   9.089   5.789   4.202 -0.8287 -0.0917 -0.6913
  469MOL0     C63218   9.162   5.921   4.185 -0.7433 -0.4078  0.0471
  469MOL0     C63219   9.214   5.960   4.036  0.2805 -0.1719  0.0852
  469MOL0     C63220   9.339   5.880   3.994 -0.2615 -0.2295  0.0784
  469MOL0     C63221   9.402   5.938   3.858 -0.3250 -0.6880 -0.7753
  469MOL0     C63222   9.498   5.833   3.798  0.5699  0.3056  0.2895
  469MOL0     C63223   9.555   5.868   3.666 -0.0585  0.1116  0.3735
  469MOL0    Cl63224   9.674   6.008   3.683  0.1539  0.2814  0.3017
  469MOL0     C63225   8.653   5.846   4.159  0.8677  0.2426 -0.5245
  469MOL0     C63226   8.518   5.874   4.196 -0.0223 -0.1449 -0.1681
  469MOL0     O63227   8.248   5.881   4.094  0.2014 -0.5094  0.0428
  469MOL0     C63228   8.037   5.714   4.343 -0.0756  0.0339  0.2946
  469MOL0     C63229   7.907   5.676   4.367  0.4899 -0.1139  0.7275
  469MOL0     N63230   7.180   5.535   4.801  0.8658 -0.7674 -0.4608
  469MOL0     N63231   7.098   5.444   4.844  0.1282 -0.0240 -0.1132
  469MOL0     C63232   5.844   5.248   4.732 -0.2962  0.4550  1.0759
  469MOL0     C63233   5.714   5.282   4.770  0.0418  0.1754  0.2066
  469MOL0     C63234   5.368   5.426   5.054 -0.4134 -0.1432 -0.0312
  469MOL0     C63235   5.322   5.436   5.181  0.5288 -0.3114 -0.4614
  469MOL0     C63236   5.195   5.491   5.206 -0.5380  0.5131 -0.1167
  469MOL0     C63237   5.122   5.562   5.106 -0.3239  0.8462  1.3233
  469MOL0     O63238   5.003   5.629   5.151 -0.7315 -0.7101 -0.1080
  469MOL0     C63239   4.968   5.729   5.064  0.8878 -0.6948 -0.1532
  469MOL0     C63240   4.886   5.832   5.154  0.3245  0.1196 -0.0115
  469MOL0     C63241   4.745   5.794   5.181  0.4490  0.2215 -0.2295
  469MOL0     C63242   4.680   5.928   5.239  0.4414  0.2426 -0.1012
  469MOL0     C63243   4.539   5.921   5.280  0.0608  0.5517  0.0793
  469MOL0     C63244   4.428   5.921   5.308  0.5617 -0.5753  0.1166
  469MOL0     C63245   5.175   5.550   4.971  0.1377 -1.2230 -0.2892
  469MOL0     C63246   5.290   5.478   4.939  0.8796 -0.0241  0.0442
  469MOL0     C63247   5.322   5.464   4.793  0.3571 -0.4903 -0.6422
  469MOL0     H63248   5.794   5.451   5.052  0.4323 -1.1428 -0.1461
  469MOL0     H63249   6.022   5.363   4.996 -0.4792 -1.0258  0.7141
  469MOL0     H63250   6.038   5.052   4.706  0.8044  0.6134  1.2071
  469MOL0     H63251   6.093   5.165   4.575 -0.1886  1.1801  0.9090
  469MOL0     H63252   6.274   4.979   4.642  1.4904  0.9477 -0.9071
  469MOL0     H63253   6.276   5.036   4.796  0.3721 -1.3142  0.0217
  469MOL0     H63254   6.342   5.275   4.706 -0.5967 -0.4388  0.9037
  469MOL0     H63255   6.365   5.189   4.548 -0.3774 -1.4409 -0.5586
  469MOL0     H63256   6.510   5.084   4.780  0.4481 -1.1613 -0.6784
  469MOL0     H63257   6.536   5.042   4.616 -0.7975 -2.5633  3.0972
  469MOL0     H63258   6.621   5.278   4.582 -0.5175 -3.3424  0.0181
  469MOL0     H63259   6.577   5.312   4.751 -1.9862  0.4587 -1.7127
  469MOL0     H63260   6.739   5.123   4.820  0.8171  1.1815  1.1107
  469MOL0     H63261   6.793   5.101   4.660  2.2681 -0.7784  2.5786
  469MOL0     H63262   6.818   5.370   4.794 -2.6497  1.5671 -3.0895
  469MOL0     H63263   6.854   5.340   4.631 -0.9826  0.6408  0.7055
  469MOL0     H63264   7.001   5.196   4.860 -1.4082  0.9744  0.5151
  469MOL0     H63265   7.030   5.164   4.682  0.2913 -0.3331 -0.7205
  469MOL0     H63266   7.118   5.343   4.543  1.0209 -1.3698  0.2806
  469MOL0     H63267   7.220   5.608   4.483  1.5042  1.4915 -0.6947
  469MOL0     H63268   7.292   5.697   4.625  2.0748  1.0977 -1.5264
  469MOL0     H63269   7.477   5.617   4.640  1.4138 -1.3210 -0.8338
  469MOL0     H63270   7.435   5.459   4.569 -0.3219  0.8368  1.0620
  469MOL0     H63271   7.430   5.722   4.406 -2.8988 -1.7786 -1.8707
  469MOL0     H63272   7.463   5.544   4.354 -1.9214 -1.2710  0.5973
  469MOL0     H63273   7.675   5.551   4.457  1.1663  0.1033 -1.5280
  469MOL0     H63274   7.657   5.722   4.500  0.8562  1.7377 -1.8141
  469MOL0     H63275   7.754   5.814   4.093  0.4288  1.9387 -0.2761
  469MOL0     H63276   7.997   5.876   4.042 -0.4982  0.3566 -1.3361
  469MOL0     H63277   8.463   5.586   4.380  1.0894 -1.7573 -2.9477
  469MOL0     H63278   8.690   5.548   4.329 -2.7175  0.7560  4.6745
  469MOL0     H63279   8.943   5.781   4.046  0.6255  1.5374 -0.7383
  469MOL0     H63280   8.908   5.905   4.175  0.4213  0.0195  1.4551
  469MOL0     H63281   9.094   5.757   4.306  0.8168 -1.7197 -1.2199
  469MOL0     H63282   9.130   5.701   4.151 -0.1648  0.4866 -1.1757
  469MOL0     H63283   9.106   6.003   4.230 -2.4877 -0.6306 -1.6051
  469MOL0     H63284   9.248   5.916   4.253  0.5053  0.9443 -1.3268
  469MOL0     H63285   9.238   6.066   4.028  2.3156 -0.6521 -0.8723
  469MOL0     H63286   9.145   5.936   3.954  1.9107 -1.0615 -1.0833
  469MOL0     H63287   9.301   5.779   3.978  1.6840 -0.5339 -3.7451
  469MOL0     H63288   9.416   5.878   4.071 -0.6785 -2.1109  0.5026
  469MOL0     H63289   9.327   5.951   3.779  0.2376  0.4089 -1.1333
  469MOL0     H63290   9.444   6.033   3.890 -3.8252  0.6784  0.3289
  469MOL0     H63291   9.442   5.739   3.791 -0.5914  1.0541 -0.9603
  469MOL0     H63292   9.573   5.811   3.875  1.3411 -2.6243 -1.1450
  469MOL0     H63293   9.602   5.775   3.629  1.1018 -0.5684  3.2916
  469MOL0     H63294   9.481   5.896   3.590  1.2729 -0.2560 -1.1237
  469MOL0     H63295   8.710   5.918   4.100  0.4858  1.3164  0.4087
  469MOL0     H63296   8.460   5.957   4.160 -1.0347  0.4405  2.5456
  469MOL0     H63297   8.119   5.699   4.412  0.9248 -2.0555 -1.2157
  469MOL0     H63298   7.891   5.623   4.461  1.7715  1.3173  1.8144
  469MOL0     H63299   5.855   5.191   4.641 -1.6369 -0.6721  1.5707
  469MOL0     H63300   5.625   5.249   4.716 -0.1367 -0.0154  0.6104
  469MOL0     H63301   5.373   5.397   5.268  0.2197  0.2480 -0.0251
  469MOL0     H63302   5.146   5.494   5.302 -0.4503 -0.0009 -0.0522
  469MOL0     H63303   4.907   5.705   4.977 -0.4224  1.0070  0.2278
  469MOL0     H63304   5.053   5.781   5.020  1.5630 -1.5408  0.1348
  469MOL0     H63305   4.886   5.932   5.110 -1.5882  0.3133  0.3645
  469MOL0     H63306   4.947   5.852   5.242 -0.1022 -1.0016  0.5514
  469MOL0     H63307   4.739   5.709   5.249  1.9860  1.7952  2.0270
  469MOL0     H63308   4.689   5.762   5.093  0.1313 -1.4472  0.5394
  469MOL0     H63309   4.743   5.965   5.321 -1.3701  0.7040  1.1269
  469MOL0     H63310   4.682   6.010   5.166 -0.2158 -0.1385 -0.5507
  469MOL0     H63311   4.326   5.934   5.338  0.0922 -0.9303 -1.2272
  469MOL0     H63312   5.117   5.605   4.898 -1.1077 -1.1715  0.6984
  469MOL0     H63313   5.244   5.503   4.726 -0.4118 -3.3679 -1.5713
  469MOL0     H63314   5.415   5.518   4.776  1.4248 -2.8666 -3.2208
  469MOL0     H63315   5.333   5.357   4.770  0.9999 -0.6679  0.4440
  470MOL0     O63316   2.710   0.033   4.129  0.2415  0.1167  0.5262
  470MOL0     C63317   2.687  -0.053   4.212  0.1802  0.1196  0.9186
  470MOL0     O63318   2.718  -0.046   4.344 -0.0502  0.3554  0.6799
  470MOL0     C63319   2.789   0.055   4.398  0.1212  0.2642 -0.3215
  470MOL0     C63320   2.768   0.082   4.533  0.5642  0.0458  0.3710
  470MOL0     C63321   2.835   0.189   4.594  0.6092 -0.6621 -0.0959
  470MOL0     C63322   2.925   0.268   4.523 -0.0046 -0.3942 -0.2103
  470MOL0     O63323   2.985   0.361   4.593  0.6071  0.1575 -0.4558
  470MOL0     C63324   3.127   0.376   4.562  0.3447  0.3139 -0.1521
  470MOL0     C63325   3.191   0.452   4.674 -0.0980  0.3520 -0.3934
  470MOL0     C63326   3.344   0.475   4.663  0.7457 -0.6674 -0.8662
  470MOL0     C63327   3.384   0.572   4.553 -0.1505  0.2783 -0.4614
  470MOL0     C63328   3.528   0.605   4.587 -0.2184 -0.3754 -0.2399
  470MOL0     C63329   3.592   0.704   4.494  0.8008 -0.2134  0.1774
  470MOL0     C63330   3.739   0.726   4.526  1.0694 -0.3054 -0.6778
  470MOL0     C63331   3.762   0.814   4.650  0.6861 -0.4190  0.2014
  470MOL0     N63332   3.903   0.838   4.662  0.1167 -0.2244  0.1975
  470MOL0     C63333   3.972   0.915   4.574 -0.1038  0.0394  0.3627
  470MOL0     C63334   4.094   0.872   4.592  0.4799 -0.1763  0.4319
  470MOL0     C63335   4.205   0.928   4.508 -0.7274 -0.0326  0.0745
  470MOL0     C63336   4.324   0.950   4.600 -0.1869 -0.9458 -0.5021
  470MOL0     C63337   4.436   1.035   4.531 -0.2521  0.2313 -0.5740
  470MOL0     C63338   4.556   1.020   4.620 -0.1649 -0.4034 -0.0363
  470MOL0     O63339   4.658   1.108   4.577  0.6500  0.2544 -0.1550
  470MOL0     C63340   4.771   1.113   4.653 -0.5930 -0.3132  0.5191
  470MOL0     C63341   4.885   1.185   4.610 -0.2777  1.1079 -0.3075
  470MOL0     C63342   5.006   1.195   4.682 -0.3088  0.4341 -0.9130
  470MOL0     C63343   5.011   1.111   4.796 -0.1818  0.6045 -0.4451
  470MOL0     C63344   5.134   1.113   4.888 -0.1080 -0.4684  0.8552
  470MOL0     O63345   5.267   1.157   4.839  0.3954  1.0329 -0.5074
  470MOL0     C63346   5.377   1.155   4.919 -0.1544 -0.7129 -0.2066
  470MOL0     C63347   5.500   1.126   4.853 -0.4624  1.0700 -0.2148
  470MOL0     C63348   5.617   1.126   4.929  0.7000 -0.3697  0.8590
  470MOL0     C63349   5.617   1.157   5.069  0.6830 -0.1733 -0.4587
  470MOL0     O63350   5.725   1.163   5.148  0.4000 -0.4868  0.5895
  470MOL0     C63351   5.845   1.104   5.092 -0.0133  0.0068  0.0997
  470MOL0     C63352   5.955   1.133   5.202 -0.4250 -0.3226  0.1762
  470MOL0     C63353   6.090   1.080   5.165  0.1445  0.6480 -0.6424
  470MOL0     C63354   6.100   0.936   5.207  0.3394  0.7062  0.3951
  470MOL0     C63355   6.241   0.878   5.166 -0.0168 -0.3393 -0.7145
  470MOL0     C63356   6.277   0.744   5.235  0.7282 -0.5378 -0.4354
  470MOL0     C63357   6.401   0.685   5.167 -0.4111  0.2145  0.4836
  470MOL0     C63358   6.499   0.637   5.276  0.2370 -0.0412  0.6184
  470MOL0    Cl63359   6.551   0.773   5.381 -0.4321  0.1931 -0.4943
  470MOL0     C63360   5.495   1.183   5.135 -0.4907 -0.3335  0.0987
  470MOL0     C63361   5.377   1.186   5.058  0.3604  0.1321  0.0716
  470MOL0     O63362   5.122   1.050   4.992 -0.1840 -0.0114  0.0677
  470MOL0     C63363   4.905   1.027   4.835  0.5355  0.0653  0.2145
  470MOL0     C63364   4.783   1.036   4.770  0.4436 -0.9510 -0.2835
  470MOL0     N63365   4.100   0.768   4.683  0.0894  0.0468 -0.0141
  470MOL0     N63366   3.984   0.753   4.730 -0.4013 -0.2895  0.1534
  470MOL0     C63367   2.953   0.227   4.391 -0.0693  0.0343 -0.5663
  470MOL0     C63368   2.894   0.118   4.323  0.0633  0.5652 -0.3339
  470MOL0     C63369   2.633  -0.172   4.163 -0.5385  0.1687 -0.3712
  470MOL0     C63370   2.705  -0.293   4.176  0.3375  0.3340  0.0437
  470MOL0     C63371   2.657  -0.413   4.136  0.2127 -0.1099 -0.1175
  470MOL0     C63372   2.532  -0.418   4.071 -0.6756 -0.1980  0.5751
  470MOL0     O63373   2.480  -0.532   4.008  0.2503  0.8439 -0.4186
  470MOL0     C63374   2.349  -0.576   4.050 -0.3563  0.2785  0.0485
  470MOL0     C63375   2.327  -0.702   3.969 -0.1123 -0.3402  0.3664
  470MOL0     C63376   2.192  -0.768   3.999 -0.6563 -0.9127  0.5513
  470MOL0     C63377   2.195  -0.853   4.126  1.1123  0.1970 -0.2442
  470MOL0     C63378   2.063  -0.922   4.142 -0.4062  0.0158  0.2045
  470MOL0     C63379   1.963  -0.993   4.165 -0.0045 -0.6893 -0.8142
  470MOL0     C63380   2.458  -0.298   4.054 -0.3621  0.2995  0.2093
  470MOL0     C63381   2.509  -0.175   4.101 -0.2761 -0.3431 -0.1894
  470MOL0     C63382   2.415  -0.059   4.091 -0.1605  0.5454  0.1802
  470MOL0     H63383   2.697   0.020   4.587  0.6391  0.5472  1.0581
  470MOL0     H63384   2.809   0.207   4.698  0.4198  2.5374 -0.6084
  470MOL0     H63385   3.167   0.277   4.539  3.7539  1.7573 -1.0165
  470MOL0     H63386   3.123   0.446   4.478 -1.0729  1.3766  0.7550
  470MOL0     H63387   3.174   0.398   4.767 -0.7749  2.2639  0.6387
  470MOL0     H63388   3.141   0.543   4.705  0.0808 -0.2028  1.6714
  470MOL0     H63389   3.397   0.380   4.659  1.4641 -0.2547 -1.4347
  470MOL0     H63390   3.366   0.529   4.755 -0.0157  0.2655 -1.2152
  470MOL0     H63391   3.393   0.515   4.460  0.4920 -2.4102  1.1322
  470MOL0     H63392   3.310   0.652   4.551  0.6008  1.0583  1.1559
  470MOL0     H63393   3.531   0.650   4.687  0.7202  0.5792 -0.6750
  470MOL0     H63394   3.590   0.515   4.579 -0.3466 -0.4856 -0.0091
  470MOL0     H63395   3.583   0.666   4.391 -1.2002 -0.6442  0.4638
  470MOL0     H63396   3.538   0.799   4.501 -0.3200 -0.7695 -0.4664
  470MOL0     H63397   3.785   0.777   4.440  0.4909  1.7567  0.1744
  470MOL0     H63398   3.783   0.626   4.527 -0.2564 -0.9099  0.0698
  470MOL0     H63399   3.704   0.904   4.629  1.0230  0.1305  1.5347
  470MOL0     H63400   3.725   0.767   4.741 -0.0381  0.5640  0.4277
  470MOL0     H63401   3.943   0.992   4.503  0.7023 -1.2747 -1.5004
  470MOL0     H63402   4.226   0.858   4.427 -1.9678 -0.2804 -0.0585
  470MOL0     H63403   4.178   1.017   4.450  1.1620 -0.8667 -2.2469
  470MOL0     H63404   4.299   1.011   4.687  3.0757  1.6647 -1.1575
  470MOL0     H63405   4.349   0.846   4.622 -0.8953 -1.1229 -0.5106
  470MOL0     H63406   4.413   1.142   4.526  3.0846  1.1393  0.7966
  470MOL0     H63407   4.450   1.000   4.428 -1.9568 -0.7552 -0.5103
  470MOL0     H63408   4.594   0.917   4.619  0.2177 -0.3214 -3.0512
  470MOL0     H63409   4.531   1.047   4.723 -0.3026 -1.6003  0.2562
  470MOL0     H63410   4.867   1.244   4.521  0.8653  1.7832 -0.1081
  470MOL0     H63411   5.101   1.241   4.658  0.2045 -0.0173  0.1808
  470MOL0     H63412   5.499   1.104   4.747 -0.9738 -0.6683  0.1186
  470MOL0     H63413   5.706   1.109   4.869 -1.8745  2.2405 -4.3493
  470MOL0     H63414   5.827   0.999   5.068  5.3405 -1.2318  0.1272
  470MOL0     H63415   5.880   1.138   4.994 -1.4569 -1.9744 -1.1839
  470MOL0     H63416   5.960   1.242   5.196 -1.4085 -0.2462  0.4919
  470MOL0     H63417   5.927   1.097   5.301 -0.3978 -0.1617  0.2441
  470MOL0     H63418   6.116   1.090   5.059 -2.2765  2.5137 -1.1379
  470MOL0     H63419   6.152   1.146   5.226 -0.6193  0.2839  0.5601
  470MOL0     H63420   6.020   0.879   5.159  0.6858 -1.2201  1.9675
  470MOL0     H63421   6.094   0.929   5.316 -1.4029 -1.2642  0.2486
  470MOL0     H63422   6.325   0.945   5.186  1.0968 -1.5368 -1.2333
  470MOL0     H63423   6.240   0.857   5.059  0.8408  2.0972 -1.2755
  470MOL0     H63424   6.291   0.764   5.342  1.7645 -0.0815 -0.6524
  470MOL0     H63425   6.195   0.672   5.225  0.9113 -0.7427 -0.4692
  470MOL0     H63426   6.448   0.765   5.110 -0.3987  2.0782  2.9488
  470MOL0     H63427   6.375   0.600   5.103 -1.3631  0.6401  0.2856
  470MOL0     H63428   6.453   0.568   5.348 -1.1346 -4.3730 -3.8398
  470MOL0     H63429   6.576   0.577   5.228 -1.7874 -2.4462  0.1758
  470MOL0     H63430   5.495   1.210   5.240 -1.4542 -0.0838  0.0431
  470MOL0     H63431   5.288   1.208   5.117  1.1283  0.5268  1.1279
  470MOL0     H63432   4.914   0.953   4.913 -2.4830  0.0793  0.7062
  470MOL0     H63433   4.704   0.970   4.807 -1.0585  1.3821  0.9262
  470MOL0     H63434   3.040   0.268   4.340 -1.3479  0.7708 -2.2641
  470MOL0     H63435   2.923   0.085   4.224  1.8609  0.0083  0.3328
  470MOL0     H63436   2.808  -0.292   4.210  1.2936 -2.4658 -2.3645
  470MOL0     H63437   2.717  -0.503   4.149 -1.1959 -0.8943  1.2689
  470MOL0     H63438   2.277  -0.501   4.017 -0.7123  1.5150  3.3021
  470MOL0     H63439   2.344  -0.583   4.159  1.4184  2.6840  0.3793
  470MOL0     H63440   2.402  -0.776   3.997 -1.4638 -1.7734  0.3208
  470MOL0     H63441   2.344  -0.681   3.863  0.2126 -0.6266  0.3609
  470MOL0     H63442   2.171  -0.842   3.922 -1.0369 -0.0503 -0.1911
  470MOL0     H63443   2.108  -0.699   3.999 -0.8209 -1.0835 -0.8950
  470MOL0     H63444   2.271  -0.931   4.116  1.5006  0.7600 -1.8893
  470MOL0     H63445   2.224  -0.787   4.208  0.5527  1.8938 -1.3756
  470MOL0     H63446   1.878  -1.051   4.193 -0.6033 -0.0973 -1.3596
  470MOL0     H63447   2.365  -0.301   3.998 -0.0210 -1.8977 -0.3376
  470MOL0     H63448   2.395  -0.038   4.196  2.0429 -0.3950  0.8592
  470MOL0     H63449   2.467   0.024   4.042  2.2280 -1.0260 -0.1747
  470MOL0     H63450   2.324  -0.069   4.032 -0.7959  2.7525  0.7242
  471MOL0     O63451   6.251   8.473   0.147 -0.0627 -0.0660  0.2367
  471MOL0     C63452   6.215   8.398   0.234  0.2816 -0.6667 -0.7272
  471MOL0     O63453   6.268   8.392   0.364  0.4061 -0.3845 -0.2303
  471MOL0     C63454   6.376   8.487   0.381 -0.3953  0.2460  0.5472
  471MOL0     C63455   6.502   8.440   0.378  0.1554 -0.2789 -0.7996
  471MOL0     C63456   6.615   8.504   0.412  0.2599  0.2287  0.2712
  471MOL0     C63457   6.605   8.646   0.432 -0.6854  0.5743  0.3567
  471MOL0     O63458   6.707   8.731   0.467  0.5773  0.8138  0.0108
  471MOL0     C63459   6.845   8.682   0.449  0.0501 -0.1694  0.1937
  471MOL0     C63460   6.927   8.802   0.495 -0.4111 -0.2024  1.2003
  471MOL0     C63461   7.062   8.799   0.423 -0.2394  0.5303 -0.3820
  471MOL0     C63462   7.145   8.918   0.479 -0.5297  1.0668 -0.3046
  471MOL0     C63463   7.296   8.909   0.430  0.6123 -0.5864 -0.0310
  471MOL0     C63464   7.376   9.051   0.441  0.3996  0.3752 -0.0843
  471MOL0     C63465   7.505   9.053   0.358 -1.1894  0.0988 -0.0838
  471MOL0     C63466   7.598   8.943   0.376 -0.8769 -0.0650  0.4949
  471MOL0     N63467   7.688   8.960   0.491 -0.7900  0.9925  0.1304
  471MOL0     C63468   7.759   9.067   0.534 -0.2703 -0.4638  0.3268
  471MOL0     C63469   7.838   9.026   0.629 -0.5065 -0.2393 -0.2997
  471MOL0     C63470   7.944   9.109   0.692 -0.5187 -0.1569 -0.3001
  471MOL0     C63471   8.035   9.045   0.798 -0.1278  0.7009  0.2407
  471MOL0     C63472   8.136   9.149   0.848 -0.1893 -0.0100 -0.1939
  471MOL0     C63473   8.259   9.093   0.915  0.2438 -1.0290  0.2249
  471MOL0     O63474   8.309   9.216   0.984  0.1206 -0.0938 -0.5571
  471MOL0     C63475   8.428   9.200   1.052 -0.7925 -0.3769 -0.0679
  471MOL0     C63476   8.490   9.318   1.079  0.3065 -0.3405 -0.5542
  471MOL0     C63477   8.617   9.318   1.150  0.5781 -0.3852 -0.0083
  471MOL0     C63478   8.687   9.198   1.184  0.3877 -0.2250  0.6778
  471MOL0     C63479   8.816   9.191   1.251 -0.4138 -0.0486  0.4328
  471MOL0     O63480   8.889   9.079   1.227 -0.2488 -0.0916 -0.2181
  471MOL0     C63481   9.022   9.071   1.269  0.6235  0.4769  0.1285
  471MOL0     C63482   9.052   8.973   1.363  0.7094 -0.1381  0.2922
  471MOL0     C63483   9.187   8.948   1.394 -0.8835  0.7031 -0.0195
  471MOL0     C63484   9.296   9.028   1.346 -0.5888 -1.1491  1.1235
  471MOL0     O63485   9.429   8.995   1.370 -0.2484  0.7129  0.1152
  471MOL0     C63486   9.510   8.941   1.259 -0.3530 -0.0284 -0.4339
  471MOL0     C63487   9.598   9.051   1.196  0.5740 -0.4271 -0.5178
  471MOL0     C63488   9.717   8.997   1.109 -1.0523  1.1860 -0.5516
  471MOL0     C63489   9.814   9.104   1.064 -0.5286 -0.1406  0.4807
  471MOL0     C63490   9.960   9.051   1.055 -0.5508 -0.0341  0.0040
  471MOL0     C63491  10.051   9.172   1.017  0.3638  0.0123  0.3557
  471MOL0     C63492  10.193   9.128   0.998 -0.7913  0.3508  0.3713
  471MOL0     C63493  10.279   9.236   0.941 -0.2084  0.3064 -0.3865
  471MOL0    Cl63494  10.441   9.167   0.878 -0.1846 -0.0881 -0.0584
  471MOL0     C63495   9.265   9.132   1.256 -0.7657 -0.2134 -0.4097
  471MOL0     C63496   9.126   9.152   1.222  0.0239  0.5589  1.0537
  471MOL0     O63497   8.858   9.289   1.312  0.3376 -0.8323 -0.2188
  471MOL0     C63498   8.615   9.084   1.152  0.4680  0.2873  0.3176
  471MOL0     C63499   8.494   9.083   1.082  0.7926  0.6944 -1.0170
  471MOL0     N63500   7.814   8.891   0.653  0.2779  0.1528  0.1212
  471MOL0     N63501   7.725   8.848   0.561 -0.0957 -0.0286 -0.3533
  471MOL0     C63502   6.480   8.704   0.434  0.4000  0.4900 -0.5675
  471MOL0     C63503   6.364   8.626   0.402  0.4238 -0.2250  0.2301
  471MOL0     C63504   6.107   8.299   0.206  0.1750 -0.3605  0.2126
  471MOL0     C63505   6.010   8.279   0.308 -0.0219  0.0533 -0.1787
  471MOL0     C63506   5.906   8.186   0.296 -0.8378 -0.6592  0.2499
  471MOL0     C63507   5.884   8.117   0.182 -0.0903  0.2263 -0.2292
  471MOL0     O63508   5.776   8.044   0.158  0.3525  0.5419  0.0201
  471MOL0     C63509   5.738   7.967   0.272  0.6966  0.0680 -0.1951
  471MOL0     C63510   5.618   8.038   0.338  0.2490 -0.0173  0.2621
  471MOL0     C63511   5.511   8.084   0.234  0.2024  0.1649 -0.0381
  471MOL0     C63512   5.384   8.033   0.274 -0.1856 -0.5344  0.5692
  471MOL0     C63513   5.281   8.060   0.170 -0.5613  0.2891  0.7604
  471MOL0     C63514   5.182   8.079   0.103  0.8116  0.7684  0.1886
  471MOL0     C63515   5.994   8.124   0.085  0.6828  0.4052 -0.2897
  471MOL0     C63516   6.100   8.215   0.101 -0.2575 -0.1890  0.2851
  471MOL0     C63517   6.210   8.200  -0.009 -0.4776 -0.6528  0.2308
  471MOL0     H63518   6.514   8.334   0.356  0.6847 -0.2079 -0.8740
  471MOL0     H63519   6.706   8.445   0.410 -0.2384 -0.6306  1.5301
  471MOL0     H63520   6.861   8.584   0.496 -4.6352 -0.9239  0.6351
  471MOL0     H63521   6.865   8.654   0.344 -0.8031 -2.5862  0.5988
  471MOL0     H63522   6.939   8.807   0.604  1.2092  0.5097  1.0313
  471MOL0     H63523   6.870   8.891   0.467 -0.9215 -0.9409 -0.1746
  471MOL0     H63524   7.030   8.806   0.318 -1.2312 -0.6742 -0.1828
  471MOL0     H63525   7.111   8.702   0.432  2.8782  1.7847 -2.1207
  471MOL0     H63526   7.092   9.003   0.436  0.7387  2.5144  0.8934
  471MOL0     H63527   7.138   8.930   0.588  3.2426  0.6140  0.1349
  471MOL0     H63528   7.347   8.825   0.478 -0.5763 -1.3767 -0.0917
  471MOL0     H63529   7.295   8.892   0.322 -1.6970 -0.3948 -0.1053
  471MOL0     H63530   7.319   9.134   0.398  1.4189  0.1810 -1.8837
  471MOL0     H63531   7.397   9.072   0.547  0.8940  0.3842 -0.1813
  471MOL0     H63532   7.562   9.145   0.367  0.0892 -0.6951  0.2475
  471MOL0     H63533   7.478   9.041   0.253 -0.4410  0.4948 -0.3296
  471MOL0     H63534   7.542   8.849   0.381 -0.9771  0.0622  3.2651
  471MOL0     H63535   7.664   8.941   0.288  0.1232  2.2402  1.1294
  471MOL0     H63536   7.742   9.171   0.508 -0.2188 -0.3865  0.6086
  471MOL0     H63537   8.007   9.134   0.606 -2.5910 -0.4769 -2.0131
  471MOL0     H63538   7.894   9.197   0.734 -0.8241 -0.6723  0.4473
  471MOL0     H63539   7.969   9.015   0.880  1.3387  1.1760  1.6416
  471MOL0     H63540   8.085   8.961   0.748 -0.5622  1.1921 -1.0663
  471MOL0     H63541   8.097   9.229   0.912  2.0050  0.0790  1.1453
  471MOL0     H63542   8.169   9.206   0.760  0.6942 -0.2978 -0.0613
  471MOL0     H63543   8.334   9.050   0.848 -2.0959 -2.7354 -1.4533
  471MOL0     H63544   8.231   9.017   0.989 -0.5343 -0.2167  0.7886
  471MOL0     H63545   8.445   9.413   1.051 -0.7402  0.1305  2.3635
  471MOL0     H63546   8.657   9.414   1.181 -0.5887 -0.6117  2.4187
  471MOL0     H63547   8.980   8.896   1.390  1.5712 -0.7532  0.8849
  471MOL0     H63548   9.215   8.863   1.455 -0.8801 -0.2392 -1.2983
  471MOL0     H63549   9.574   8.863   1.301  0.5856 -0.7951 -3.1027
  471MOL0     H63550   9.443   8.899   1.183 -2.2893  0.5889  0.8501
  471MOL0     H63551   9.531   9.104   1.128 -1.9936 -0.3943  1.8570
  471MOL0     H63552   9.637   9.120   1.271  1.9848 -1.1449 -0.5533
  471MOL0     H63553   9.776   8.931   1.174  0.9342  2.3366 -1.0925
  471MOL0     H63554   9.675   8.932   1.032 -1.2276 -2.6568  2.5124
  471MOL0     H63555   9.817   9.193   1.128  1.2549  0.7200 -0.6978
  471MOL0     H63556   9.786   9.138   0.963  0.4643 -2.6384 -0.6994
  471MOL0     H63557   9.968   8.974   0.978 -1.4324 -1.1270  0.9694
  471MOL0     H63558   9.981   9.006   1.152 -2.1391 -0.2137  0.2976
  471MOL0     H63559  10.016   9.211   0.921  0.5847  2.9975  1.3875
  471MOL0     H63560  10.035   9.244   1.097  3.5757 -0.7263  1.7950
  471MOL0     H63561  10.199   9.038   0.936 -2.0149  1.5647 -1.5975
  471MOL0     H63562  10.237   9.100   1.094 -0.0188  1.6059  0.4092
  471MOL0     H63563  10.223   9.293   0.867 -0.1234  1.5522  0.4905
  471MOL0     H63564  10.297   9.306   1.023  0.9444  2.0416 -2.0242
  471MOL0     H63565   9.342   9.198   1.218  0.1813 -0.0291  1.7159
  471MOL0     H63566   9.105   9.225   1.145  3.5932  0.7192  0.0983
  471MOL0     H63567   8.655   8.990   1.188 -2.3968 -1.1682 -0.0391
  471MOL0     H63568   8.442   8.989   1.064  1.3756 -0.5247  2.8390
  471MOL0     H63569   6.476   8.807   0.469  4.0326  0.6322 -0.1782
  471MOL0     H63570   6.266   8.674   0.404  1.5135  2.1157  0.4027
  471MOL0     H63571   6.012   8.350   0.390  4.0767  1.8458 -1.5446
  471MOL0     H63572   5.833   8.196   0.375 -0.4342  1.0210  0.4653
  471MOL0     H63573   5.814   7.943   0.346  0.7909  2.3619  0.5340
  471MOL0     H63574   5.706   7.873   0.226  2.2515 -0.9418  0.6833
  471MOL0     H63575   5.660   8.123   0.393 -0.4631 -0.0406  0.8619
  471MOL0     H63576   5.578   7.963   0.407  0.1393 -1.4022 -1.2375
  471MOL0     H63577   5.539   8.028   0.144 -0.9375  0.5770 -0.6637
  471MOL0     H63578   5.511   8.191   0.212 -3.1669  0.6431  1.7448
  471MOL0     H63579   5.392   7.927   0.299  1.2635 -0.2931  1.2281
  471MOL0     H63580   5.349   8.078   0.367  0.9528 -0.4108  0.9508
  471MOL0     H63581   5.085   8.087   0.058  0.5289 -1.4896  0.2631
  471MOL0     H63582   5.985   8.074  -0.010  0.8241  0.0287 -0.1047
  471MOL0     H63583   6.192   8.118  -0.079 -0.1469 -1.2159  0.7854
  471MOL0     H63584   6.215   8.297  -0.058 -0.7649 -0.0421  1.3628
  471MOL0     H63585   6.300   8.177   0.050 -0.2765 -2.5220 -0.7506
  472MOL0     O63586   6.501   6.138  11.057  0.0624  0.5901  0.8656
  472MOL0     C63587   6.526   6.021  11.026  0.1990  0.1311  0.3560
  472MOL0     O63588   6.642   5.954  11.061 -0.1485  0.4104  0.7626
  472MOL0     C63589   6.721   5.982  11.165 -0.8428 -0.1110  0.8812
  472MOL0     C63590   6.855   5.938  11.150 -0.3950  0.0651 -1.0000
  472MOL0     C63591   6.951   5.975  11.246 -0.3181  0.0563 -0.5847
  472MOL0     C63592   6.917   6.047  11.367 -0.4368 -0.8472  0.8270
  472MOL0     O63593   7.012   6.053  11.462 -0.3964  0.7086 -0.3279
  472MOL0     C63594   6.967   6.014  11.592 -0.4831  0.5895 -0.7550
  472MOL0     C63595   7.089   5.944  11.668  0.1358 -0.5666 -0.5976
  472MOL0     C63596   7.146   5.809  11.620  1.6221 -0.2819 -0.2920
  472MOL0     C63597   7.282   5.842  11.562  0.5005  0.5582 -0.5674
  472MOL0     C63598   7.342   5.731  11.472 -0.1596 -0.1252  0.5257
  472MOL0     C63599   7.262   5.689  11.340 -0.5456 -0.9593 -0.7439
  472MOL0     C63600   7.318   5.586  11.241 -0.1472  0.1410 -0.0898
  472MOL0     C63601   7.257   5.441  11.231  0.4191  0.0056 -0.3925
  472MOL0     N63602   7.318   5.373  11.348  0.3294  0.1810 -0.1860
  472MOL0     C63603   7.444   5.320  11.346 -0.1355 -0.8475  0.4114
  472MOL0     C63604   7.469   5.298  11.474 -0.1279 -0.1718 -0.6407
  472MOL0     C63605   7.595   5.243  11.530 -0.2128 -0.8919 -0.1559
  472MOL0     C63606   7.680   5.355  11.606  0.3089 -0.1659  0.4626
  472MOL0     C63607   7.766   5.436  11.504  1.0966  0.3582  0.2621
  472MOL0     C63608   7.875   5.514  11.569 -0.0308  0.5977 -0.5912
  472MOL0     O63609   7.915   5.616  11.471 -0.0768  0.0862 -0.4560
  472MOL0     C63610   8.042   5.666  11.485  0.0115 -0.1884  0.9979
  472MOL0     C63611   8.082   5.739  11.593  0.6956 -0.2226  0.3136
  472MOL0     C63612   8.215   5.781  11.618 -0.0103 -0.5556  0.0526
  472MOL0     C63613   8.308   5.746  11.522 -0.5889 -0.8604 -0.1996
  472MOL0     C63614   8.446   5.810  11.524 -0.3319 -0.1526 -0.3200
  472MOL0     O63615   8.469   5.910  11.616 -0.7258  0.2976  0.1015
  472MOL0     C63616   8.588   5.972  11.613  0.1549 -0.4585  0.4259
  472MOL0     C63617   8.589   6.111  11.589 -0.2191  1.0120  0.3316
  472MOL0     C63618   8.704   6.191  11.598 -0.1535 -0.0194  0.5379
  472MOL0     C63619   8.830   6.130  11.637  0.4264 -0.1439  0.0354
  472MOL0     O63620   8.952   6.196  11.661  0.4876  0.1595 -0.1604
  472MOL0     C63621   8.969   6.328  11.620  0.6129  0.6699  0.4627
  472MOL0     C63622   9.116   6.372  11.602  0.1677 -0.3131  0.1435
  472MOL0     C63623   9.168   6.343  11.460 -0.4384  0.1439  0.9509
  472MOL0     C63624   9.326   6.353  11.445  0.2607  0.3859  0.4275
  472MOL0     C63625   9.384   6.283  11.323 -0.2470 -0.2337  0.6485
  472MOL0     C63626   9.349   6.340  11.185 -0.1430 -0.4429 -0.4533
  472MOL0     C63627   9.395   6.239  11.083 -0.5716  0.1316 -1.0190
  472MOL0     C63628   9.404   6.310  10.948  1.0741  0.5501  0.0544
  472MOL0    Cl63629   9.249   6.318  10.863  0.2658  0.0604  0.2759
  472MOL0     C63630   8.825   5.993  11.668  0.3269 -0.4489  0.3905
  472MOL0     C63631   8.708   5.918  11.656 -0.8998  0.3833  0.7049
  472MOL0     O63632   8.530   5.778  11.437  0.2870  0.0044  0.7333
  472MOL0     C63633   8.275   5.654  11.410 -0.2294 -0.4945 -0.5795
  472MOL0     C63634   8.144   5.631  11.393 -0.2286 -0.0204  0.0707
  472MOL0     N63635   7.360   5.324  11.551  0.1757 -0.4524 -0.0780
  472MOL0     N63636   7.278   5.376  11.477  0.0706 -0.6527  0.0291
  472MOL0     C63637   6.782   6.086  11.380 -0.2089  0.0828  0.6356
  472MOL0     C63638   6.690   6.054  11.275  0.9310  0.2457 -0.2773
  472MOL0     C63639   6.436   5.959  10.921 -0.4100 -0.8816 -0.3589
  472MOL0     C63640   6.503   5.886  10.824  0.6866 -0.3060  0.3169
  472MOL0     C63641   6.440   5.845  10.708 -0.0080 -0.2641  0.5387
  472MOL0     C63642   6.306   5.872  10.677 -0.0531  1.4353 -0.8315
  472MOL0     O63643   6.253   5.807  10.564 -0.7846  0.0331 -0.5779
  472MOL0     C63644   6.137   5.869  10.505  0.8475  0.9078 -0.3322
  472MOL0     C63645   6.004   5.797  10.533  0.3459  0.1015 -0.0393
  472MOL0     C63646   5.879   5.863  10.467 -0.3267  0.0122  0.2188
  472MOL0     C63647   5.847   6.018  10.474 -0.4130  0.2283 -0.0507
  472MOL0     C63648   5.837   6.053  10.617 -0.0486  0.1454  0.4067
  472MOL0     C63649   5.834   6.080  10.737 -0.2531 -0.4389 -0.5974
  472MOL0     C63650   6.239   5.946  10.772  1.0261 -0.5736 -0.6139
  472MOL0     C63651   6.299   5.982  10.896 -0.6047  0.1889 -0.2085
  472MOL0     C63652   6.208   6.046  10.997  0.4725  0.7577  0.4513
  472MOL0     H63653   6.885   5.880  11.063  0.8154 -0.6078 -0.1622
  472MOL0     H63654   7.058   5.963  11.235  0.7278  2.0072  4.4955
  472MOL0     H63655   6.928   6.092  11.657 -0.0920 -1.7156  2.4977
  472MOL0     H63656   6.898   5.929  11.587  2.2406 -2.2232  3.1121
  472MOL0     H63657   7.044   5.923  11.765  1.0823  0.1275  0.0103
  472MOL0     H63658   7.168   6.018  11.685  0.0946 -0.5583 -0.4478
  472MOL0     H63659   7.082   5.779  11.537  1.6080  0.4829 -0.5590
  472MOL0     H63660   7.155   5.738  11.703 -2.1233  0.2783  0.7896
  472MOL0     H63661   7.267   5.936  11.507 -2.1168  0.1885 -0.5947
  472MOL0     H63662   7.353   5.852  11.644 -0.7686  0.4321  0.5693
  472MOL0     H63663   7.446   5.756  11.450 -0.9789  3.4758  0.0666
  472MOL0     H63664   7.339   5.645  11.539  0.5244  0.4633  1.3354
  472MOL0     H63665   7.168   5.656  11.383  0.6421 -0.0195  2.8801
  472MOL0     H63666   7.237   5.781  11.286  0.6374 -0.9217 -1.2802
  472MOL0     H63667   7.428   5.583  11.243 -0.0872  1.5552  2.1015
  472MOL0     H63668   7.291   5.622  11.141 -1.0343 -0.0064  0.0946
  472MOL0     H63669   7.147   5.438  11.227  0.2758 -0.6843  2.1302
  472MOL0     H63670   7.282   5.388  11.139  0.3949 -1.2933  0.3269
  472MOL0     H63671   7.512   5.312  11.262 -1.5433 -1.7232 -0.6989
  472MOL0     H63672   7.553   5.183  11.612 -0.8675  0.8734  0.8686
  472MOL0     H63673   7.653   5.172  11.470 -1.1403 -2.0073  0.2283
  472MOL0     H63674   7.601   5.409  11.659 -0.6825 -0.0633 -1.0450
  472MOL0     H63675   7.748   5.315  11.682  0.6748  1.6969  1.1603
  472MOL0     H63676   7.702   5.504  11.447  1.1309 -0.1640 -0.4168
  472MOL0     H63677   7.800   5.363  11.430  0.1362 -1.2474  1.3360
  472MOL0     H63678   7.951   5.440  11.592 -1.3059 -0.6814 -0.3503
  472MOL0     H63679   7.849   5.560  11.665  1.0442 -0.2917  0.1444
  472MOL0     H63680   8.016   5.775  11.671 -0.8866  0.4897 -1.2740
  472MOL0     H63681   8.243   5.853  11.694 -3.1147  2.0266 -0.9994
  472MOL0     H63682   8.497   6.163  11.564  0.9558  1.8869 -2.6253
  472MOL0     H63683   8.691   6.298  11.587 -0.6435 -0.1753 -0.5410
  472MOL0     H63684   8.921   6.353  11.525  0.1284  1.1205  0.8157
  472MOL0     H63685   8.911   6.386  11.693  1.1302 -0.1664  1.5604
  472MOL0     H63686   9.131   6.478  11.627 -3.2164  0.3766 -0.2386
  472MOL0     H63687   9.176   6.317  11.676  2.2610  3.0643  1.1820
  472MOL0     H63688   9.139   6.238  11.442  0.5816 -0.3868  2.2988
  472MOL0     H63689   9.123   6.406  11.382 -0.0909 -0.1231  0.5279
  472MOL0     H63690   9.368   6.298  11.531 -1.7438  0.9972  1.8709
  472MOL0     H63691   9.358   6.457  11.457  0.5577  0.5235 -1.2978
  472MOL0     H63692   9.348   6.180  11.326  0.7353 -0.6088  0.0610
  472MOL0     H63693   9.493   6.273  11.324 -0.3031 -1.0839 -0.3935
  472MOL0     H63694   9.246   6.366  11.159  0.0209  1.8100  0.9689
  472MOL0     H63695   9.400   6.435  11.168 -0.4239 -0.5556 -2.1068
  472MOL0     H63696   9.321   6.159  11.080 -0.6069  0.1616 -0.9532
  472MOL0     H63697   9.486   6.191  11.119 -0.8842  0.4795  0.3207
  472MOL0     H63698   9.445   6.412  10.949  1.2804  0.5132 -1.5673
  472MOL0     H63699   9.473   6.252  10.887  0.5578  1.5891 -1.6011
  472MOL0     H63700   8.914   5.944  11.706  0.2285  0.2652  1.5996
  472MOL0     H63701   8.720   5.811  11.671  0.8730  0.3685 -0.4785
  472MOL0     H63702   8.351   5.614  11.344 -0.8935 -4.6968  0.9188
  472MOL0     H63703   8.111   5.565  11.314 -0.3999  0.9180 -0.6599
  472MOL0     H63704   6.748   6.162  11.449 -0.2752  1.1881 -0.5699
  472MOL0     H63705   6.587   6.088  11.279  1.5731  2.2198  1.2307
  472MOL0     H63706   6.605   5.850  10.841  0.3577 -1.0780  0.7436
  472MOL0     H63707   6.494   5.779  10.640  0.3678  2.0659 -1.5805
  472MOL0     H63708   6.163   5.861  10.399 -2.8804 -4.6732 -1.2298
  472MOL0     H63709   6.135   5.972  10.543  0.7207 -0.5749  4.2552
  472MOL0     H63710   5.997   5.782  10.641  0.7036 -0.1339 -0.0467
  472MOL0     H63711   6.009   5.695  10.494 -5.6680 -1.2167  1.6675
  472MOL0     H63712   5.790   5.806  10.495 -1.1225  0.8173 -0.6007
  472MOL0     H63713   5.883   5.850  10.359 -0.0137  0.1773  0.2103
  472MOL0     H63714   5.938   6.058  10.427 -1.5188 -1.3279 -3.8971
  472MOL0     H63715   5.755   6.044  10.422 -1.6083  0.5964  2.1276
  472MOL0     H63716   5.844   6.088  10.843  1.1116 -0.3213 -0.7239
  472MOL0     H63717   6.132   5.965  10.762  0.1942 -2.7455  2.6212
  472MOL0     H63718   6.177   6.146  10.965  0.4211  0.7053  0.3382
  472MOL0     H63719   6.122   5.978  10.996  1.5894 -0.6900 -0.4171
  472MOL0     H63720   6.245   6.054  11.099 -2.4049  2.5181  1.5003
  473MOL0     O63721   1.433   4.203   7.706  0.0806 -0.6302 -0.8579
  473MOL0     C63722   1.339   4.283   7.709  0.2827 -0.0069 -0.4204
  473MOL0     O63723   1.346   4.412   7.744  0.5134  0.5616  0.5115
  473MOL0     C63724   1.478   4.464   7.740  0.1402  0.2600 -0.1767
  473MOL0     C63725   1.546   4.475   7.623  0.1881 -1.3916 -0.3008
  473MOL0     C63726   1.664   4.547   7.618 -0.1971 -0.2384 -0.5053
  473MOL0     C63727   1.732   4.584   7.732 -0.2403 -1.2739  0.1256
  473MOL0     O63728   1.856   4.640   7.716  0.1351 -0.1629  0.7575
  473MOL0     C63729   1.955   4.561   7.787 -1.0829  0.1358 -0.0678
  473MOL0     C63730   2.081   4.646   7.812 -0.6151 -0.4322 -0.3250
  473MOL0     C63731   2.043   4.775   7.898  0.0978  0.0399 -0.2681
  473MOL0     C63732   2.166   4.865   7.905 -0.1515 -0.3772  0.1156
  473MOL0     C63733   2.138   5.001   7.963  0.5327 -0.2025 -0.1674
  473MOL0     C63734   2.050   5.102   7.874  0.4857  0.9289  0.3091
  473MOL0     C63735   2.038   5.240   7.943  0.0943  1.1040  0.4192
  473MOL0     C63736   2.003   5.347   7.835 -0.1301  0.5263 -0.4137
  473MOL0     N63737   1.970   5.479   7.888 -0.2946 -0.9397  0.6008
  473MOL0     C63738   1.854   5.546   7.867  0.5445  0.1282  0.1531
  473MOL0     C63739   1.889   5.679   7.880 -0.3098  1.0857  0.4482
  473MOL0     C63740   1.795   5.792   7.866  0.0052 -0.2198  0.1159
  473MOL0     C63741   1.787   5.872   7.995  0.1032 -0.0230  0.3247
  473MOL0     C63742   1.764   6.014   7.983  1.4555 -1.0073  0.2430
  473MOL0     C63743   1.885   6.097   7.958 -0.2431  0.2314  0.6726
  473MOL0     O63744   1.971   6.095   8.073 -0.2115 -0.2465  0.3768
  473MOL0     C63745   2.092   6.032   8.079 -0.2091  0.3118 -0.9079
  473MOL0     C63746   2.189   6.045   7.970  0.8966  0.4955 -0.0950
  473MOL0     C63747   2.321   5.992   7.994  0.3675 -0.4652 -0.7904
  473MOL0     C63748   2.351   5.914   8.114  0.5788  0.3555  0.2506
  473MOL0     C63749   2.484   5.850   8.131 -0.1466 -0.6121 -0.5453
  473MOL0     O63750   2.511   5.773   8.245  0.9652 -0.5754  0.3822
  473MOL0     C63751   2.614   5.697   8.254 -0.6444 -0.1790 -0.4651
  473MOL0     C63752   2.639   5.578   8.177  0.5386  0.4024 -0.0836
  473MOL0     C63753   2.759   5.504   8.205  0.7133  0.0740  0.2973
  473MOL0     C63754   2.855   5.556   8.294  0.1081 -0.0157 -0.3664
  473MOL0     O63755   2.974   5.492   8.317 -0.3225 -0.5693 -0.2836
  473MOL0     C63756   3.091   5.568   8.364 -0.8072 -0.0526  0.4750
  473MOL0     C63757   3.208   5.482   8.303 -0.0214 -0.1411 -0.5291
  473MOL0     C63758   3.219   5.511   8.154 -0.0282  1.0705 -0.4407
  473MOL0     C63759   3.345   5.439   8.103  0.0686 -0.3657 -0.2896
  473MOL0     C63760   3.332   5.285   8.083 -0.0545  0.7905 -0.1778
  473MOL0     C63761   3.207   5.244   8.024  0.9462  0.3290  0.3841
  473MOL0     C63762   3.182   5.309   7.894  0.9276 -1.1121  0.8670
  473MOL0     C63763   3.051   5.259   7.835  0.0825  0.3572 -0.0053
  473MOL0    Cl63764   2.913   5.312   7.940 -0.2063  0.0224  0.0753
  473MOL0     C63765   2.820   5.671   8.370  0.2291 -0.6489  0.1702
  473MOL0     C63766   2.701   5.744   8.348 -0.5149  0.0512 -0.2109
  473MOL0     O63767   2.559   5.866   8.038 -0.2217 -0.6932  0.8935
  473MOL0     C63768   2.255   5.905   8.216 -0.6406 -1.3612  0.9200
  473MOL0     C63769   2.120   5.965   8.199  0.1665  0.0664  0.6572
  473MOL0     N63770   2.018   5.685   7.926  0.4062  0.9912 -0.2424
  473MOL0     N63771   2.064   5.565   7.935  0.1799  0.0558  0.0883
  473MOL0     C63772   1.668   4.570   7.857 -0.3647 -0.0439 -0.2195
  473MOL0     C63773   1.538   4.509   7.863 -0.3808 -0.7732  0.0139
  473MOL0     C63774   1.207   4.248   7.660  0.3125 -0.2294 -1.4348
  473MOL0     C63775   1.128   4.343   7.588 -0.0218  0.1555 -0.1456
  473MOL0     C63776   1.007   4.303   7.543 -0.2233 -0.7990  0.0297
  473MOL0     C63777   0.948   4.183   7.570 -0.0124  0.1903 -1.2940
  473MOL0     O63778   0.829   4.148   7.502  0.2900  0.1441  0.0036
  473MOL0     C63779   0.712   4.194   7.577  0.3790  0.6962  0.0441
  473MOL0     C63780   0.589   4.167   7.496  0.3758 -0.4275  0.1248
  473MOL0     C63781   0.570   4.015   7.458 -0.2454  0.3891 -0.3419
  473MOL0     C63782   0.561   3.920   7.579  0.1423 -0.2693  0.6234
  473MOL0     C63783   0.445   3.946   7.669 -0.0303 -0.8511  0.4491
  473MOL0     C63784   0.341   3.970   7.728  0.7154  0.5492  0.7118
  473MOL0     C63785   1.026   4.086   7.631  0.0596 -0.4187  0.7792
  473MOL0     C63786   1.149   4.118   7.684  0.3729  0.1071  0.3692
  473MOL0     C63787   1.209   4.009   7.769 -0.0475 -0.0804  0.2166
  473MOL0     H63788   1.493   4.443   7.533  0.3627 -1.9516 -0.2107
  473MOL0     H63789   1.711   4.560   7.521 -1.9474  0.5541 -1.2814
  473MOL0     H63790   1.915   4.519   7.880  0.0631 -3.1821 -0.9522
  473MOL0     H63791   1.976   4.472   7.727  0.8618 -0.0231  0.8011
  473MOL0     H63792   2.126   4.673   7.716 -3.2190 -0.9338 -1.8060
  473MOL0     H63793   2.146   4.579   7.868  0.6129 -0.4686 -1.7522
  473MOL0     H63794   2.000   4.758   7.997  2.7980  1.6751  1.3122
  473MOL0     H63795   1.957   4.822   7.848  0.7029 -0.4884 -1.8627
  473MOL0     H63796   2.235   4.819   7.976  0.1400  1.7109  1.2704
  473MOL0     H63797   2.212   4.885   7.807 -0.6738  2.8011  0.4172
  473MOL0     H63798   2.084   4.992   8.057  0.3055  2.1559 -0.0020
  473MOL0     H63799   2.231   5.050   7.995 -1.8628  2.9587  2.5887
  473MOL0     H63800   2.094   5.104   7.773  1.2828  0.2652  0.6305
  473MOL0     H63801   1.948   5.067   7.853  0.6153  1.0660 -0.6175
  473MOL0     H63802   2.138   5.256   7.985  1.3512  0.0471 -2.0050
  473MOL0     H63803   1.956   5.244   8.014 -0.2890  4.4260 -0.0539
  473MOL0     H63804   2.088   5.362   7.768  1.6571  1.0736  1.8268
  473MOL0     H63805   1.910   5.310   7.791 -0.8064  2.4626 -0.7132
  473MOL0     H63806   1.763   5.499   7.832  0.5465  1.2277 -1.4426
  473MOL0     H63807   1.834   5.849   7.781 -1.9849  1.2111  0.0905
  473MOL0     H63808   1.697   5.753   7.836  0.1300 -0.1912 -0.3491
  473MOL0     H63809   1.709   5.825   8.055 -1.7096  2.4324  0.0403
  473MOL0     H63810   1.878   5.862   8.055 -2.2195 -0.9747  4.0475
  473MOL0     H63811   1.713   6.046   8.074  2.9717 -2.8306  1.8192
  473MOL0     H63812   1.698   6.034   7.897  3.0379  0.2730 -0.7294
  473MOL0     H63813   1.860   6.199   7.931  1.2626  0.3182 -0.5040
  473MOL0     H63814   1.945   6.055   7.877 -0.4563  3.2236 -1.1729
  473MOL0     H63815   2.174   6.100   7.878  3.7944 -0.0122 -0.9582
  473MOL0     H63816   2.400   6.023   7.926  0.0503  1.4405 -0.3664
  473MOL0     H63817   2.568   5.541   8.103 -0.9269  1.0829  0.9238
  473MOL0     H63818   2.780   5.406   8.163  0.8157 -1.4596  3.6845
  473MOL0     H63819   3.104   5.675   8.348 -1.3651  0.0413  0.6336
  473MOL0     H63820   3.101   5.556   8.473  1.8496 -1.0950  0.2061
  473MOL0     H63821   3.306   5.497   8.350  0.1626 -1.3963 -0.4981
  473MOL0     H63822   3.183   5.376   8.309  1.0894 -0.4293 -0.8444
  473MOL0     H63823   3.131   5.482   8.096  0.7171 -0.4464 -0.8319
  473MOL0     H63824   3.227   5.619   8.133  0.2030  0.7671 -2.0077
  473MOL0     H63825   3.429   5.466   8.168 -1.8396 -2.1204  3.2384
  473MOL0     H63826   3.369   5.476   8.003 -1.1345 -0.3410 -0.5884
  473MOL0     H63827   3.342   5.233   8.179  0.3178 -2.0913 -1.6613
  473MOL0     H63828   3.412   5.255   8.015  1.1074  0.1958  1.3953
  473MOL0     H63829   3.205   5.137   7.998  1.3697 -0.2166  2.3652
  473MOL0     H63830   3.121   5.266   8.088 -2.0625  2.2760 -3.8609
  473MOL0     H63831   3.264   5.292   7.823 -2.6834 -4.1172 -3.0947
  473MOL0     H63832   3.176   5.418   7.902 -1.2535 -1.0757 -0.5856
  473MOL0     H63833   3.043   5.305   7.736  1.6004 -1.3909 -1.0298
  473MOL0     H63834   3.069   5.151   7.827  2.9923  0.8697 -2.4977
  473MOL0     H63835   2.890   5.703   8.446  1.5896 -0.6402 -1.0570
  473MOL0     H63836   2.675   5.837   8.396  0.9106  1.4079 -1.9421
  473MOL0     H63837   2.298   5.868   8.309  0.8944  2.1001  1.7525
  473MOL0     H63838   2.045   5.958   8.277 -0.3527  0.2557  0.1807
  473MOL0     H63839   1.717   4.590   7.953  1.5305 -1.8887 -0.7188
  473MOL0     H63840   1.477   4.497   7.952  0.1732  1.8376  0.8009
  473MOL0     H63841   1.157   4.447   7.577  0.5576  0.0538  0.3629
  473MOL0     H63842   0.947   4.370   7.481  1.2315  0.4315 -0.1028
  473MOL0     H63843   0.732   4.300   7.595  1.9617  0.8961 -2.3749
  473MOL0     H63844   0.706   4.144   7.674  2.8364 -1.5291 -0.8274
  473MOL0     H63845   0.583   4.223   7.403  0.2110 -3.4064 -1.7928
  473MOL0     H63846   0.508   4.198   7.563  1.1963  2.5054 -0.1026
  473MOL0     H63847   0.653   3.998   7.388 -0.8525  0.8158 -1.1762
  473MOL0     H63848   0.471   4.001   7.415 -0.2879  0.2570 -0.1976
  473MOL0     H63849   0.565   3.826   7.524  4.4350 -0.4677  0.9267
  473MOL0     H63850   0.650   3.912   7.642  1.9162 -1.4088 -1.8429
  473MOL0     H63851   0.249   3.994   7.778  0.1392  0.9191 -0.4764
  473MOL0     H63852   0.973   3.992   7.648 -0.0837 -0.2144  1.5186
  473MOL0     H63853   1.157   3.912   7.766  0.4845 -0.3734  0.2607
  473MOL0     H63854   1.310   3.987   7.731  0.6503  0.8493  1.4480
  473MOL0     H63855   1.219   4.036   7.875  1.3226  1.0205 -0.1646
  474MOL0     O63856   1.528  10.604  10.342 -0.4989 -0.1046 -0.0705
  474MOL0     C63857   1.479  10.594  10.456 -0.1714  1.0933 -0.2450
  474MOL0     O63858   1.519  10.658  10.574  0.4170 -0.4884  0.4567
  474MOL0     C63859   1.648  10.697  10.584  0.5219 -0.0828 -0.1276
  474MOL0     C63860   1.760  10.619  10.549  0.4573 -0.0877  0.1190
  474MOL0     C63861   1.896  10.669  10.555  0.1197 -0.9374  0.2417
  474MOL0     C63862   1.922  10.794  10.622  0.2416 -0.0773 -0.6194
  474MOL0     O63863   2.044  10.845  10.656 -0.2995 -0.4928  0.0704
  474MOL0     C63864   2.148  10.781  10.587  0.5940  0.6538 -0.8390
  474MOL0     C63865   2.293  10.833  10.619 -0.4786 -0.1399 -0.4605
  474MOL0     C63866   2.328  10.833  10.774 -0.2408  0.2716  0.4482
  474MOL0     C63867   2.282  10.699  10.844 -0.4315 -0.5005 -0.3529
  474MOL0     C63868   2.364  10.652  10.967 -1.1851 -0.3868  0.0710
  474MOL0     C63869   2.326  10.727  11.098  0.3098 -0.9200 -0.1990
  474MOL0     C63870   2.417  10.683  11.214 -0.4361 -0.0123  0.4163
  474MOL0     C63871   2.549  10.753  11.202  0.4448 -0.6895  0.1453
  474MOL0     N63872   2.608  10.766  11.335 -0.0372  0.0156 -0.9735
  474MOL0     C63873   2.741  10.744  11.357 -0.1740  0.6632 -0.7488
  474MOL0     C63874   2.756  10.784  11.490 -0.3628  0.2060 -0.3218
  474MOL0     C63875   2.884  10.792  11.564  0.2204  0.1772 -0.4457
  474MOL0     C63876   2.974  10.672  11.560 -0.1108 -0.6101 -0.0463
  474MOL0     C63877   3.100  10.670  11.646  0.8044 -0.6749  0.2948
  474MOL0     C63878   3.224  10.752  11.605  0.0082  0.6058  0.7669
  474MOL0     O63879   3.289  10.675  11.506 -0.7118  0.2537 -0.4089
  474MOL0     C63880   3.429  10.689  11.481  0.1173 -0.8056  0.2820
  474MOL0     C63881   3.501  10.588  11.412  0.1677 -1.0170 -0.4301
  474MOL0     C63882   3.635  10.620  11.372  0.6500 -0.2733 -0.6177
  474MOL0     C63883   3.710  10.719  11.433  0.2173  1.0629 -0.2442
  474MOL0     C63884   3.861  10.717  11.423 -0.4879  0.8630 -0.3549
  474MOL0     O63885   3.931  10.593  11.420 -0.3861 -0.4554 -1.1016
  474MOL0     C63886   4.068  10.594  11.426  0.5443 -0.1226 -0.4555
  474MOL0     C63887   4.147  10.549  11.316  0.7447 -0.4727  0.1350
  474MOL0     C63888   4.288  10.556  11.320 -0.0173  0.2570 -0.6291
  474MOL0     C63889   4.356  10.615  11.433  0.1583 -0.1083  0.3326
  474MOL0     O63890   4.495  10.617  11.417 -0.5063 -0.0044  0.0152
  474MOL0     C63891   4.580  10.647  11.524 -0.0086  0.1398 -0.6515
  474MOL0     C63892   4.705  10.552  11.527 -0.2328  0.0102  0.0945
  474MOL0     C63893   4.816  10.591  11.426 -0.8444 -0.2697 -0.0693
  474MOL0     C63894   4.900  10.708  11.485  0.0286 -1.0021 -0.1214
  474MOL0     C63895   5.037  10.737  11.428  0.1797  0.5828 -0.8116
  474MOL0     C63896   5.050  10.763  11.277 -0.7293  0.1110 -0.5482
  474MOL0     C63897   5.201  10.785  11.247 -0.5717  0.4881  0.9064
  474MOL0     C63898   5.220  10.823  11.097 -0.6203  0.1328  0.5226
  474MOL0    Cl63899   5.179  10.997  11.079 -0.4532  0.4725 -0.1265
  474MOL0     C63900   4.276  10.665  11.534 -0.4316 -0.5632 -0.3398
  474MOL0     C63901   4.134  10.655  11.531 -0.5449 -0.0667  0.5025
  474MOL0     O63902   3.907  10.831  11.411  0.0894  0.3559  0.0380
  474MOL0     C63903   3.640  10.819  11.507  0.1059  0.0845  0.2086
  474MOL0     C63904   3.503  10.803  11.523 -0.2606  0.2101  1.2200
  474MOL0     N63905   2.635  10.834  11.527  0.1429 -0.1129  0.5087
  474MOL0     N63906   2.545  10.825  11.440  0.3066  0.3715 -0.9294
  474MOL0     C63907   1.810  10.866  10.667 -0.3529  0.5879 -0.5321
  474MOL0     C63908   1.677  10.812  10.654 -0.7401  0.5790 -0.8576
  474MOL0     C63909   1.369  10.504  10.470 -0.0286  0.0502  1.1230
  474MOL0     C63910   1.289  10.522  10.586  0.5103  0.2040  0.1120
  474MOL0     C63911   1.160  10.468  10.597 -0.7933  0.2835 -0.2717
  474MOL0     C63912   1.113  10.395  10.490 -0.4389  0.2648  0.0550
  474MOL0     O63913   0.985  10.347  10.512 -0.0848  0.0142 -0.3023
  474MOL0     C63914   0.931  10.270  10.413  0.0139 -0.2791  0.1478
  474MOL0     C63915   0.789  10.226  10.456 -0.4106 -0.9091 -0.4571
  474MOL0     C63916   0.701  10.336  10.498  0.0064  0.3530  0.9326
  474MOL0     C63917   0.559  10.301  10.509 -0.9546  0.1730 -0.7378
  474MOL0     C63918   0.487  10.399  10.591  0.6711  0.4104  0.0669
  474MOL0     C63919   0.421  10.484  10.648 -0.3198 -0.1044  0.1079
  474MOL0     C63920   1.188  10.365  10.375 -0.3821  0.5248  0.5172
  474MOL0     C63921   1.318  10.417  10.362 -0.4784  0.2655 -0.6460
  474MOL0     C63922   1.398  10.371  10.245 -0.6547  0.2498  0.3777
  474MOL0     H63923   1.750  10.519  10.508 -0.6319  0.4581 -1.0374
  474MOL0     H63924   1.973  10.611  10.506  1.2322 -1.1655  2.1622
  474MOL0     H63925   2.141  10.676  10.615 -2.2435  1.1163  0.5129
  474MOL0     H63926   2.132  10.788  10.479 -0.2082  2.8960 -0.6242
  474MOL0     H63927   2.318  10.931  10.578  0.0707 -0.6613 -1.4118
  474MOL0     H63928   2.363  10.762  10.574 -2.3265 -3.5351  1.6095
  474MOL0     H63929   2.282  10.921  10.821 -0.3278 -1.3424  3.6426
  474MOL0     H63930   2.437  10.840  10.776 -0.3358  2.4366  1.3214
  474MOL0     H63931   2.180  10.699  10.881  0.8655 -1.4040  3.7667
  474MOL0     H63932   2.307  10.626  10.766  0.5324 -2.0256  1.2937
  474MOL0     H63933   2.358  10.544  10.988  0.4110 -0.1954  1.8030
  474MOL0     H63934   2.472  10.654  10.949 -0.6311 -2.8805  2.3667
  474MOL0     H63935   2.337  10.834  11.079  2.1143 -0.8778  0.8616
  474MOL0     H63936   2.220  10.706  11.118  0.1503 -0.7416 -0.8261
  474MOL0     H63937   2.428  10.574  11.212 -1.7849 -0.1586 -0.7042
  474MOL0     H63938   2.358  10.704  11.304  0.3428  0.4896  0.8168
  474MOL0     H63939   2.618  10.702  11.133 -0.9777  0.9569 -2.6900
  474MOL0     H63940   2.525  10.856  11.173 -2.6159 -1.0948  0.9160
  474MOL0     H63941   2.816  10.702  11.290 -3.0827  0.6105 -4.3156
  474MOL0     H63942   2.948  10.870  11.520 -1.3215  2.4195  1.0279
  474MOL0     H63943   2.870  10.820  11.669 -0.4804  1.4938 -0.8597
  474MOL0     H63944   2.916  10.582  11.584 -1.1483  0.4268  1.5452
  474MOL0     H63945   3.002  10.666  11.454  1.2916  1.8949  0.1183
  474MOL0     H63946   3.121  10.564  11.659 -0.7956 -1.0969 -0.4085
  474MOL0     H63947   3.069  10.718  11.740  1.3900  1.8059 -0.7025
  474MOL0     H63948   3.285  10.762  11.695 -1.5019  1.5818  1.7212
  474MOL0     H63949   3.197  10.855  11.578 -0.8073  0.9955  2.8925
  474MOL0     H63950   3.451  10.502  11.369 -1.6143 -0.4437  0.3735
  474MOL0     H63951   3.693  10.564  11.299 -2.5967 -2.3044 -1.8384
  474MOL0     H63952   4.094  10.497  11.238 -1.6614  0.8230  0.7922
  474MOL0     H63953   4.349  10.505  11.247  0.7175  1.5312 -0.9437
  474MOL0     H63954   4.600  10.754  11.520  0.8085 -0.0040 -0.6185
  474MOL0     H63955   4.539  10.633  11.624  0.6992  0.3896 -0.3188
  474MOL0     H63956   4.740  10.547  11.631 -0.3012  1.1879  0.1924
  474MOL0     H63957   4.678  10.449  11.503  0.0944  0.0854 -0.6148
  474MOL0     H63958   4.888  10.516  11.394 -2.5980 -0.7608 -3.2364
  474MOL0     H63959   4.765  10.624  11.335 -1.2670  3.0262  1.1857
  474MOL0     H63960   4.919  10.687  11.591  0.0339  2.0844  0.5805
  474MOL0     H63961   4.836  10.796  11.468 -0.0465 -1.2585 -1.2088
  474MOL0     H63962   5.104  10.660  11.467  1.5088  2.6538  1.3402
  474MOL0     H63963   5.082  10.824  11.476  1.8195 -1.2910  1.2713
  474MOL0     H63964   5.020  10.676  11.217  1.3142 -2.6163  2.0922
  474MOL0     H63965   5.001  10.854  11.241 -0.6106  1.2741  2.0136
  474MOL0     H63966   5.249  10.690  11.267 -0.6821 -0.1353 -1.4412
  474MOL0     H63967   5.237  10.870  11.306  0.9253 -0.1099  0.8805
  474MOL0     H63968   5.328  10.819  11.076 -0.3149 -1.0041  2.1811
  474MOL0     H63969   5.166  10.757  11.029  0.3931 -1.1241  0.9113
  474MOL0     H63970   4.328  10.712  11.617 -2.5020 -0.6558  1.0967
  474MOL0     H63971   4.066  10.699  11.603  0.0833  4.9194 -1.5532
  474MOL0     H63972   3.696  10.899  11.555 -0.8166  0.3056  0.9685
  474MOL0     H63973   3.457  10.872  11.593 -1.6792  1.0767 -0.4843
  474MOL0     H63974   1.817  10.964  10.713  0.4410  0.5339 -0.5253
  474MOL0     H63975   1.589  10.860  10.694 -0.1548  1.3441 -0.4582
  474MOL0     H63976   1.333  10.580  10.666  0.2013  0.0200  0.4166
  474MOL0     H63977   1.096  10.491  10.682 -1.0554  4.2910 -1.3432
  474MOL0     H63978   0.992  10.182  10.391  1.1960  0.7358 -0.8043
  474MOL0     H63979   0.927  10.327  10.320  1.8698  1.9739  1.3412
  474MOL0     H63980   0.814  10.169  10.546  1.6337  1.6702  0.7270
  474MOL0     H63981   0.738  10.169  10.378 -2.7922 -1.0342  1.1005
  474MOL0     H63982   0.710  10.411  10.418  0.6724  1.0478  1.6428
  474MOL0     H63983   0.736  10.366  10.597 -1.5104 -3.3874  2.8068
  474MOL0     H63984   0.517  10.285  10.409  2.8557  0.3372 -2.5100
  474MOL0     H63985   0.557  10.209  10.568  2.0237 -0.2176 -1.1372
  474MOL0     H63986   0.377  10.565  10.704  1.5796 -1.1208  3.3825
  474MOL0     H63987   1.155  10.306  10.291 -1.5945 -1.0606  2.0235
  474MOL0     H63988   1.402  10.452  10.171  1.9823 -0.3881 -0.2727
  474MOL0     H63989   1.502  10.353  10.271  0.5678  0.5246 -3.6281
  474MOL0     H63990   1.356  10.276  10.209  0.6728 -0.6639  1.1529
  475MOL0     O63991   3.469  11.044   4.522  0.8089 -0.1890 -0.3931
  475MOL0     C63992   3.503  11.113   4.431  0.0486 -0.0862  0.8544
  475MOL0     O63993   3.628  11.184   4.418 -0.0335  0.4153  0.9442
  475MOL0     C63994   3.725  11.165   4.511 -0.1792 -0.0734 -0.5094
  475MOL0     C63995   3.740  11.262   4.610  0.7235  0.2234 -0.1880
  475MOL0     C63996   3.839  11.255   4.712  1.2026 -0.2413  0.2734
  475MOL0     C63997   3.938  11.161   4.695  0.0313 -0.0646 -0.1431
  475MOL0     O63998   4.051  11.174   4.777 -0.8496  0.4301  1.5518
  475MOL0     C63999   4.167  11.093   4.758  0.0182  0.6624  0.4010
  475MOL0     C64000   4.289  11.145   4.833  0.2605  0.2817  0.9535
  475MOL0     C64001   4.323  11.294   4.805 -0.0102  0.3269  0.1301
  475MOL0     C64002   4.421  11.356   4.917  0.0174  0.3442  1.5022
  475MOL0     C64003   4.492  11.482   4.870  0.5641  0.1838 -0.9684
  475MOL0     C64004   4.607  11.461   4.775 -0.3559 -0.3670  0.1424
  475MOL0     C64005   4.694  11.588   4.748 -0.1881  0.0127 -0.1083
  475MOL0     C64006   4.811  11.548   4.653  0.0123 -0.4920 -0.2365
  475MOL0     N64007   4.929  11.495   4.719  0.0210 -0.6107  0.4036
  475MOL0     C64008   4.940  11.357   4.747  0.0372 -0.2191 -0.0096
  475MOL0     C64009   5.061  11.342   4.803 -0.2764  0.3804  0.7408
  475MOL0     C64010   5.097  11.212   4.886  0.3323 -0.6648 -0.2994
  475MOL0     C64011   5.197  11.131   4.816  0.5318  0.4275 -0.0915
  475MOL0     C64012   5.346  11.166   4.834 -0.1512  1.0355 -0.1054
  475MOL0     C64013   5.419  11.094   4.716 -0.5240 -0.0140  0.3381
  475MOL0     O64014   5.419  10.953   4.741  0.0207  0.2201  0.8170
  475MOL0     C64015   5.465  10.870   4.641  0.2199 -0.4426 -0.0786
  475MOL0     C64016   5.503  10.905   4.506 -0.0447  0.4076  0.1998
  475MOL0     C64017   5.550  10.814   4.418 -0.7432  0.6696 -0.3776
  475MOL0     C64018   5.560  10.676   4.436 -1.2448 -0.6604 -0.2967
  475MOL0     C64019   5.613  10.581   4.336  0.5448  0.0330 -0.0696
  475MOL0     O64020   5.601  10.450   4.355 -0.6427  0.4261  0.4382
  475MOL0     C64021   5.646  10.362   4.261  0.8984 -0.3865 -0.8090
  475MOL0     C64022   5.548  10.290   4.196 -0.8600 -0.3872  0.7742
  475MOL0     C64023   5.591  10.182   4.100  0.4341 -0.3241 -0.0139
  475MOL0     C64024   5.723  10.147   4.092 -0.0565  0.1582 -0.5633
  475MOL0     O64025   5.763  10.040   4.004  0.3697 -0.4644  0.2081
  475MOL0     C64026   5.900  10.012   4.004  0.1777  0.3777 -1.5533
  475MOL0     C64027   5.936   9.899   3.907 -0.3055 -0.3322 -0.4297
  475MOL0     C64028   6.085   9.857   3.919  0.3230  0.5435  0.4440
  475MOL0     C64029   6.156   9.940   3.804 -0.5750 -0.8484 -0.4054
  475MOL0     C64030   6.300   9.940   3.822 -0.8313 -0.1613 -0.5890
  475MOL0     C64031   6.364  10.024   3.716  0.5760 -0.1236 -0.4787
  475MOL0     C64032   6.331   9.957   3.574 -0.2374  0.4889 -0.0828
  475MOL0     C64033   6.426   9.998   3.461 -0.2401  0.0576  0.3597
  475MOL0    Cl64034   6.604   9.963   3.484  0.1140  0.2064 -0.2326
  475MOL0     C64035   5.816  10.227   4.162 -0.0451 -0.2354  0.1977
  475MOL0     C64036   5.775  10.342   4.244  0.2813  0.5781 -0.6678
  475MOL0     O64037   5.647  10.638   4.236  0.6085  0.5407 -0.1039
  475MOL0     C64038   5.519  10.639   4.565 -0.3388 -0.2760 -0.0243
  475MOL0     C64039   5.462  10.734   4.657 -0.1203  0.3979 -0.3318
  475MOL0     N64040   5.112  11.472   4.828 -0.1484  0.2560  0.5087
  475MOL0     N64041   5.031  11.560   4.781  0.5028  0.1798  0.5974
  475MOL0     C64042   3.924  11.060   4.595  0.1618 -0.3488 -0.7449
  475MOL0     C64043   3.816  11.057   4.513  0.2356 -0.0763  0.5077
  475MOL0     C64044   3.399  11.130   4.322 -0.1730  1.2890 -0.4583
  475MOL0     C64045   3.396  11.253   4.260 -0.7962  0.3071  0.2938
  475MOL0     C64046   3.317  11.274   4.146 -0.1720  0.2099 -0.0400
  475MOL0     C64047   3.227  11.174   4.100  0.1419 -0.2387 -0.5678
  475MOL0     O64048   3.137  11.189   3.997  0.6649 -0.2375 -0.6823
  475MOL0     C64049   3.118  11.314   3.934 -0.1583 -0.2826 -0.3090
  475MOL0     C64050   3.028  11.305   3.819  0.1110 -1.0572 -0.5472
  475MOL0     C64051   2.878  11.282   3.863  0.5171 -0.5705  0.3728
  475MOL0     C64052   2.791  11.234   3.740 -0.5501  0.4799 -0.3067
  475MOL0     C64053   2.819  11.094   3.706 -0.0065 -0.7069 -0.1954
  475MOL0     C64054   2.845  10.983   3.658 -0.1725 -0.2477  0.4928
  475MOL0     C64055   3.217  11.060   4.180  0.3704  0.2474  0.6144
  475MOL0     C64056   3.304  11.031   4.278 -0.0833 -0.2895  0.3964
  475MOL0     C64057   3.298  10.888   4.333 -0.2812 -0.3761 -0.2406
  475MOL0     H64058   3.668  11.343   4.623 -2.5045 -1.9900 -2.7851
  475MOL0     H64059   3.849  11.326   4.792  0.3466 -0.4633  0.5942
  475MOL0     H64060   4.146  10.997   4.806  0.5848  0.6513  0.6227
  475MOL0     H64061   4.198  11.071   4.655  1.3972 -4.5132  1.6528
  475MOL0     H64062   4.373  11.083   4.799  0.8672  0.9439  1.1999
  475MOL0     H64063   4.271  11.123   4.938 -0.6579 -0.4489  0.6525
  475MOL0     H64064   4.239  11.362   4.787 -0.5837 -0.5604 -0.6619
  475MOL0     H64065   4.376  11.293   4.710 -1.9140  2.9047 -1.0979
  475MOL0     H64066   4.368  11.387   5.008 -0.1403  5.2192  0.0586
  475MOL0     H64067   4.486  11.275   4.951 -2.0226 -2.8617 -1.4891
  475MOL0     H64068   4.430  11.560   4.825  0.6723  0.6114 -0.3893
  475MOL0     H64069   4.536  11.518   4.964  1.4691 -1.4039 -0.7519
  475MOL0     H64070   4.674  11.384   4.815  0.2006 -1.7012 -3.0334
  475MOL0     H64071   4.570  11.430   4.677 -0.8870 -0.8345  0.4924
  475MOL0     H64072   4.738  11.624   4.842 -0.6218 -0.7264  0.3901
  475MOL0     H64073   4.634  11.660   4.692  3.6929  1.1391 -3.2691
  475MOL0     H64074   4.777  11.476   4.577 -0.0016  0.6248 -1.3186
  475MOL0     H64075   4.850  11.636   4.602  2.5451 -0.6132  1.3149
  475MOL0     H64076   4.870  11.277   4.724  0.7302 -1.1811  1.1359
  475MOL0     H64077   5.128  11.226   4.990  2.3458 -3.0924 -0.4908
  475MOL0     H64078   5.009  11.146   4.884 -0.7907  0.7216  0.9290
  475MOL0     H64079   5.178  11.028   4.850  2.5600 -1.2602 -3.5606
  475MOL0     H64080   5.178  11.138   4.709 -2.7244 -1.3829  0.2596
  475MOL0     H64081   5.385  11.126   4.928 -1.2412 -2.9685 -1.1359
  475MOL0     H64082   5.355  11.274   4.819 -0.1771  0.9966 -0.4100
  475MOL0     H64083   5.522  11.128   4.705 -0.7157  0.0195 -1.6532
  475MOL0     H64084   5.364  11.123   4.626 -1.2110 -1.3165  0.3177
  475MOL0     H64085   5.504  11.005   4.464 -0.3032  0.1669 -0.3937
  475MOL0     H64086   5.604  10.854   4.333  3.3274 -0.3797  1.4840
  475MOL0     H64087   5.445  10.325   4.199 -0.9232 -0.0369 -2.0583
  475MOL0     H64088   5.518  10.135   4.035  0.9001 -0.3473 -0.5260
  475MOL0     H64089   5.971  10.094   3.997  2.2196 -1.3298 -1.7814
  475MOL0     H64090   5.919   9.970   4.103  3.2421  3.0841 -0.8427
  475MOL0     H64091   5.881   9.810   3.937 -0.0876 -0.5895 -0.7826
  475MOL0     H64092   5.907   9.936   3.808  1.5062 -1.7585 -1.5741
  475MOL0     H64093   6.139   9.878   4.011  3.0582  1.3879 -1.2348
  475MOL0     H64094   6.091   9.750   3.898 -1.6635  0.4022  0.3581
  475MOL0     H64095   6.125  10.045   3.811  0.4978 -0.5949  1.3113
  475MOL0     H64096   6.136   9.894   3.707 -1.8412  0.8446 -0.9974
  475MOL0     H64097   6.338   9.837   3.825  0.3298  0.2880  0.2747
  475MOL0     H64098   6.322   9.974   3.923  1.3445 -3.0962  0.0544
  475MOL0     H64099   6.323  10.125   3.719  2.2056  0.5491  0.7339
  475MOL0     H64100   6.473  10.032   3.726  0.3795  0.4509  1.7499
  475MOL0     H64101   6.233   9.997   3.548 -0.5723 -0.7626 -0.8530
  475MOL0     H64102   6.345   9.849   3.584  1.5144  0.4775 -1.8467
  475MOL0     H64103   6.394   9.946   3.370 -0.6603  0.0384  0.5194
  475MOL0     H64104   6.417  10.104   3.439 -0.5580  0.0485  0.4402
  475MOL0     H64105   5.925  10.224   4.162  0.0513  1.4029 -1.1836
  475MOL0     H64106   5.844  10.404   4.301 -1.6070  1.6882  0.5161
  475MOL0     H64107   5.509  10.533   4.586 -2.3546  0.1040  1.2755
  475MOL0     H64108   5.405  10.697   4.742 -2.0246 -1.4948 -2.2897
  475MOL0     H64109   3.995  10.978   4.591 -0.4501 -0.8544 -1.2633
  475MOL0     H64110   3.821  10.985   4.432  1.2517  1.5784 -0.9667
  475MOL0     H64111   3.473  11.327   4.278 -0.4053 -0.8429  4.3337
  475MOL0     H64112   3.332  11.370   4.097  1.9523 -0.0176  0.0561
  475MOL0     H64113   3.213  11.356   3.901 -0.1419  0.8203  1.0254
  475MOL0     H64114   3.075  11.374   4.016 -0.4477 -1.7378  0.6375
  475MOL0     H64115   3.054  11.217   3.759 -1.3022 -0.8471 -1.5191
  475MOL0     H64116   3.038  11.398   3.764  0.7581 -0.2074  0.9469
  475MOL0     H64117   2.832  11.375   3.897  1.6012  0.1888 -0.1707
  475MOL0     H64118   2.874  11.211   3.946  1.6857  0.7569  1.6153
  475MOL0     H64119   2.688  11.238   3.777 -0.3965 -0.1217  0.1819
  475MOL0     H64120   2.797  11.299   3.651  1.9068 -1.1627 -1.4474
  475MOL0     H64121   2.864  10.891   3.606 -2.0436 -0.2967 -0.1829
  475MOL0     H64122   3.149  10.985   4.143  0.6690  1.0742 -1.8497
  475MOL0     H64123   3.246  10.886   4.429  0.0510 -0.0984 -0.0507
  475MOL0     H64124   3.244  10.828   4.259 -0.1172 -1.8318  0.7969
  475MOL0     H64125   3.398  10.846   4.341 -0.0371  0.2116 -0.1130
  476MOL0     O64126   0.120   2.965   6.379 -0.2216  0.1428  0.1745
  476MOL0     C64127   0.182   2.995   6.275  0.3371 -0.6174 -0.2130
  476MOL0     O64128   0.134   2.988   6.144 -0.2774 -0.1142 -0.2115
  476MOL0     C64129   0.002   2.953   6.126 -0.5723 -0.5485  0.7974
  476MOL0     C64130  -0.075   3.040   6.052 -0.2930 -0.2235  0.4955
  476MOL0     C64131  -0.201   3.001   6.008 -0.5952  0.5075 -0.5326
  476MOL0     C64132  -0.269   2.895   6.081  0.0218 -0.4757 -0.4001
  476MOL0     O64133  -0.402   2.870   6.066  0.2093  0.3797  0.5185
  476MOL0     C64134  -0.490   2.991   6.052 -0.2238  0.0192  0.1709
  476MOL0     C64135  -0.626   2.959   6.012  0.1187  0.2839  0.0674
  476MOL0     C64136  -0.710   2.881   6.122 -1.0556 -0.2307 -0.0997
  476MOL0     C64137  -0.851   2.907   6.091 -0.3946 -0.4855 -0.0285
  476MOL0     C64138  -0.941   2.816   6.172 -0.0848 -0.7862 -0.2638
  476MOL0     C64139  -1.090   2.843   6.130  0.6167 -0.6996  0.6510
  476MOL0     C64140  -1.189   2.747   6.198 -0.8829 -1.3844  0.6316
  476MOL0     C64141  -1.202   2.612   6.118  0.7251 -1.0383  0.2750
  476MOL0     N64142  -1.251   2.620   5.982  0.0199 -0.2774 -0.5631
  476MOL0     C64143  -1.186   2.579   5.867 -0.6603  0.4447  1.1369
  476MOL0     C64144  -1.267   2.611   5.761 -0.2794 -0.4918 -0.4540
  476MOL0     C64145  -1.227   2.616   5.610 -0.6565 -0.0382 -0.4940
  476MOL0     C64146  -1.091   2.693   5.592 -0.2841 -0.7000 -0.3037
  476MOL0     C64147  -1.088   2.846   5.615 -0.2627  0.2065 -0.8272
  476MOL0     C64148  -0.951   2.897   5.655 -0.6992  0.5963  0.1983
  476MOL0     O64149  -0.872   2.893   5.533  0.0013 -0.5788 -0.3419
  476MOL0     C64150  -0.749   2.952   5.546  0.5521  0.3659  0.6527
  476MOL0     C64151  -0.659   2.934   5.445  0.4003  0.1563  1.0848
  476MOL0     C64152  -0.524   2.998   5.447  0.9575  0.8077 -0.1212
  476MOL0     C64153  -0.486   3.064   5.562 -0.2862 -0.8946  1.2289
  476MOL0     C64154  -0.364   3.150   5.570 -0.2628 -0.0423 -0.6931
  476MOL0     O64155  -0.335   3.201   5.691  0.0517 -0.0744 -0.0550
  476MOL0     C64156  -0.230   3.294   5.695  0.3916  0.2542 -0.7808
  476MOL0     C64157  -0.247   3.430   5.671 -0.5655 -1.0884 -0.5930
  476MOL0     C64158  -0.143   3.524   5.686  1.2077  1.0547  0.2677
  476MOL0     C64159  -0.014   3.474   5.724  0.0420 -0.5714 -0.0017
  476MOL0     O64160   0.100   3.541   5.753  0.0999 -0.0461 -0.3861
  476MOL0     C64161   0.109   3.680   5.797 -0.7035 -0.3929  0.0812
  476MOL0     C64162   0.257   3.717   5.814  0.2680  0.4348  0.5183
  476MOL0     C64163   0.270   3.852   5.875 -1.1503 -0.1136  0.9397
  476MOL0     C64164   0.415   3.901   5.847 -0.3071  0.4850  0.0966
  476MOL0     C64165   0.449   4.028   5.923  0.0076 -0.7719 -0.3432
  476MOL0     C64166   0.599   4.063   5.893 -0.0101 -0.3221  0.3617
  476MOL0     C64167   0.634   4.211   5.946  0.2672 -0.3573 -0.6534
  476MOL0     C64168   0.744   4.268   5.861 -0.3862  0.3159 -0.0395
  476MOL0    Cl64169   0.903   4.197   5.905  0.0743  0.2100  0.5661
  476MOL0     C64170  -0.001   3.338   5.748 -0.0433 -0.7739  0.1023
  476MOL0     C64171  -0.104   3.249   5.728  0.7931  0.9769 -0.2110
  476MOL0     O64172  -0.296   3.161   5.469  0.2760  0.4806  0.5523
  476MOL0     C64173  -0.578   3.075   5.667  0.7504  0.6495 -1.0827
  476MOL0     C64174  -0.709   3.021   5.657  0.2876  0.2698 -0.0521
  476MOL0     N64175  -1.392   2.661   5.816 -0.8121 -0.3323  0.3367
  476MOL0     N64176  -1.380   2.653   5.947  0.4507  0.0454 -0.0533
  476MOL0     C64177  -0.198   2.825   6.168 -0.2095  0.1945 -0.9206
  476MOL0     C64178  -0.061   2.847   6.186 -0.2055 -0.4473  0.1308
  476MOL0     C64179   0.326   3.021   6.285 -0.1124 -0.3886  0.0559
  476MOL0     C64180   0.376   3.060   6.406  0.4176  0.6441 -0.4339
  476MOL0     C64181   0.508   3.096   6.429 -0.6971 -0.0209  0.4666
  476MOL0     C64182   0.607   3.090   6.334  0.3778 -0.6145 -0.0555
  476MOL0     O64183   0.735   3.124   6.365 -0.1296  0.3766  1.0105
  476MOL0     C64184   0.822   3.132   6.251  0.2969 -0.7949  0.4085
  476MOL0     C64185   0.957   3.205   6.290 -0.7456  1.0824 -0.2782
  476MOL0     C64186   1.050   3.187   6.172 -0.1579  0.3813 -0.4890
  476MOL0     C64187   1.187   3.229   6.228 -0.2813  0.3209  0.3337
  476MOL0     C64188   1.192   3.366   6.263 -0.1718 -0.4195  0.5954
  476MOL0     C64189   1.191   3.484   6.283 -0.5350  0.2352 -0.6146
  476MOL0     C64190   0.562   3.037   6.210  0.2694  0.1141 -0.5420
  476MOL0     C64191   0.422   3.014   6.183 -0.6794  0.5850  0.5397
  476MOL0     C64192   0.396   2.973   6.044 -0.2544  0.5063  0.5759
  476MOL0     H64193  -0.034   3.131   6.009  0.7313 -0.5113  0.8301
  476MOL0     H64194  -0.239   3.061   5.927  4.0808  1.7281 -2.1412
  476MOL0     H64195  -0.499   3.040   6.150 -0.1820 -0.3237  0.3512
  476MOL0     H64196  -0.455   3.052   5.969  1.4233 -1.0901  0.0064
  476MOL0     H64197  -0.619   2.896   5.923  1.3219  0.2967  0.1385
  476MOL0     H64198  -0.668   3.057   5.990  0.5248  0.4039 -0.1963
  476MOL0     H64199  -0.680   2.925   6.218 -0.2145 -1.2227  0.1164
  476MOL0     H64200  -0.670   2.780   6.135 -0.6407 -0.3635 -2.1452
  476MOL0     H64201  -0.867   3.015   6.102 -0.1817  0.3508 -5.2196
  476MOL0     H64202  -0.868   2.895   5.983 -0.0931 -0.6456 -0.0577
  476MOL0     H64203  -0.920   2.714   6.141  0.5944 -0.3594 -1.2589
  476MOL0     H64204  -0.928   2.825   6.281  0.0558 -1.7732 -0.1933
  476MOL0     H64205  -1.116   2.947   6.151  2.9153 -0.1163  0.9562
  476MOL0     H64206  -1.106   2.827   6.023  1.9057 -0.4004  0.3898
  476MOL0     H64207  -1.290   2.790   6.207 -0.3271 -0.3886  2.8784
  476MOL0     H64208  -1.156   2.730   6.301 -0.4436  0.7935  0.9075
  476MOL0     H64209  -1.104   2.565   6.105  0.8745 -0.1369 -2.5703
  476MOL0     H64210  -1.260   2.546   6.183  1.2695 -1.8938 -0.0828
  476MOL0     H64211  -1.085   2.538   5.869  0.1189  2.2613  1.2732
  476MOL0     H64212  -1.225   2.510   5.584  0.6413 -0.4575  1.1270
  476MOL0     H64213  -1.302   2.677   5.560 -0.6056  2.4163  2.1491
  476MOL0     H64214  -1.025   2.654   5.670 -0.2992  0.7432  0.4543
  476MOL0     H64215  -1.056   2.673   5.490 -2.1755 -1.8993 -0.7680
  476MOL0     H64216  -1.157   2.868   5.697 -1.2218  0.0432 -1.5675
  476MOL0     H64217  -1.128   2.904   5.531  0.0399  2.2571  0.3799
  476MOL0     H64218  -0.906   2.836   5.733 -0.3645 -2.0833 -1.9355
  476MOL0     H64219  -0.965   2.997   5.697  0.5811  0.7500  0.2867
  476MOL0     H64220  -0.697   2.875   5.362 -1.3084 -0.6947  2.4135
  476MOL0     H64221  -0.455   2.987   5.364  1.6072  1.7209  0.2798
  476MOL0     H64222  -0.343   3.468   5.637 -1.0540 -1.2912  0.5205
  476MOL0     H64223  -0.170   3.625   5.655 -1.3713  0.5285  0.5516
  476MOL0     H64224   0.073   3.739   5.713  1.5331  0.7665 -0.1405
  476MOL0     H64225   0.048   3.698   5.887 -1.7544  2.1368 -1.0510
  476MOL0     H64226   0.309   3.644   5.876 -1.5414  1.7099  3.7994
  476MOL0     H64227   0.306   3.718   5.716 -1.9137 -0.4879 -0.6844
  476MOL0     H64228   0.200   3.926   5.836  1.1795  1.2743 -0.8603
  476MOL0     H64229   0.249   3.852   5.982  1.5733  1.0866  1.5712
  476MOL0     H64230   0.424   3.902   5.738 -1.0421 -1.7496 -0.0485
  476MOL0     H64231   0.491   3.826   5.874 -0.2737  0.3833 -0.2660
  476MOL0     H64232   0.430   4.018   6.031  0.3253  1.7535  0.0031
  476MOL0     H64233   0.391   4.114   5.889  1.5351 -0.1668 -1.5118
  476MOL0     H64234   0.662   3.992   5.948  0.4969 -0.4258 -0.3471
  476MOL0     H64235   0.601   4.057   5.784 -1.2579  1.7595  0.1765
  476MOL0     H64236   0.663   4.215   6.051 -1.3022  0.0985 -0.2084
  476MOL0     H64237   0.551   4.282   5.948 -2.0291 -2.9086  0.9026
  476MOL0     H64238   0.716   4.254   5.757 -2.7417 -0.5092  0.6473
  476MOL0     H64239   0.752   4.375   5.886  3.2739 -0.3536  2.5035
  476MOL0     H64240   0.099   3.300   5.771 -0.8110 -4.4879 -1.9013
  476MOL0     H64241  -0.100   3.142   5.745 -1.8920  0.8596  0.1344
  476MOL0     H64242  -0.562   3.134   5.757  3.7797 -0.8681 -0.4652
  476MOL0     H64243  -0.778   3.027   5.741  0.9554 -1.7688  0.7147
  476MOL0     H64244  -0.243   2.734   6.207  2.0779 -3.0096 -4.8964
  476MOL0     H64245   0.007   2.776   6.231  0.4280 -0.5396 -0.9265
  476MOL0     H64246   0.308   3.066   6.490 -0.4430 -0.9702 -0.9705
  476MOL0     H64247   0.528   3.127   6.531 -2.0131  0.1300  0.7023
  476MOL0     H64248   0.785   3.179   6.159  0.5984  1.5162  1.3920
  476MOL0     H64249   0.857   3.028   6.241  2.0125 -0.2882  0.7549
  476MOL0     H64250   0.995   3.168   6.386 -1.7762  0.4564 -0.1022
  476MOL0     H64251   0.948   3.312   6.314 -1.9251  0.8325  0.4535
  476MOL0     H64252   1.023   3.246   6.084 -2.0606 -0.9819 -0.8633
  476MOL0     H64253   1.076   3.086   6.141  2.4370  0.3393  1.4584
  476MOL0     H64254   1.209   3.166   6.315 -4.4544  1.1624  2.2467
  476MOL0     H64255   1.256   3.206   6.147  0.1282  3.4277 -0.3201
  476MOL0     H64256   1.182   3.587   6.310 -2.6849  0.0856 -0.6327
  476MOL0     H64257   0.642   3.016   6.139  1.3578 -1.7973  1.1250
  476MOL0     H64258   0.357   2.871   6.048 -0.1736  0.4607  0.2250
  476MOL0     H64259   0.331   3.041   5.987  2.7825  1.8668 -1.5590
  476MOL0     H64260   0.489   2.962   5.988 -1.1315 -0.9655 -0.6685
  477MOL0     O64261   1.914   9.656   7.793  0.5144 -0.1314 -0.5638
  477MOL0     C64262   1.819   9.731   7.812  0.7101 -0.2165  0.1181
  477MOL0     O64263   1.827   9.850   7.873 -0.8054  0.0434 -0.8576
  477MOL0     C64264   1.949   9.887   7.922 -0.6583 -0.0023 -0.0781
  477MOL0     C64265   1.984   9.844   8.055 -0.1618  0.3119  0.0264
  477MOL0     C64266   2.101   9.890   8.111 -0.2507 -0.0508 -0.1026
  477MOL0     C64267   2.193   9.970   8.036  0.5520 -0.2900  0.4362
  477MOL0     O64268   2.301  10.009   8.102 -0.0207 -0.1760  0.0595
  477MOL0     C64269   2.411  10.058   8.030 -0.3902 -0.5544  0.3909
  477MOL0     C64270   2.474   9.948   7.941  0.3877  0.3651  0.2685
  477MOL0     C64271   2.577  10.018   7.852  1.1674  0.1778  0.2091
  477MOL0     C64272   2.702   9.938   7.835 -0.2559 -1.0443  0.3710
  477MOL0     C64273   2.805  10.022   7.751 -1.0559  0.3011 -0.8708
  477MOL0     C64274   2.935   9.936   7.745 -0.4491 -0.0137  0.0317
  477MOL0     C64275   3.031   9.999   7.646  0.2794 -0.8783  0.3956
  477MOL0     C64276   3.173   9.936   7.637 -0.2472 -0.2849 -0.1545
  477MOL0     N64277   3.258  10.024   7.545  0.3416  0.8692 -0.9873
  477MOL0     C64278   3.294  10.153   7.562 -0.4185 -0.3317 -0.1563
  477MOL0     C64279   3.361  10.186   7.453 -0.9886 -0.2356  0.8634
  477MOL0     C64280   3.425  10.317   7.435  0.3431  0.0704  0.2701
  477MOL0     C64281   3.526  10.347   7.540  0.2688  0.3119 -0.1491
  477MOL0     C64282   3.609  10.474   7.503 -0.1048 -0.4469  0.0180
  477MOL0     C64283   3.652  10.557   7.622 -0.2978 -0.2821 -0.8796
  477MOL0     O64284   3.755  10.657   7.589 -0.2571 -0.0165 -0.1306
  477MOL0     C64285   3.886  10.627   7.578 -0.7497  0.2332 -1.0720
  477MOL0     C64286   3.966  10.729   7.523 -0.8573  0.2449 -0.6405
  477MOL0     C64287   4.107  10.713   7.514 -0.1522 -0.3280  0.7598
  477MOL0     C64288   4.165  10.588   7.543  0.4897 -0.5496 -0.2608
  477MOL0     C64289   4.320  10.569   7.524  0.0474 -0.4342  0.5215
  477MOL0     O64290   4.372  10.445   7.532  0.1126  0.6449 -0.0462
  477MOL0     C64291   4.492  10.432   7.478 -0.1435  0.5118  0.0069
  477MOL0     C64292   4.604  10.436   7.550  0.1248  0.4924  0.3391
  477MOL0     C64293   4.724  10.437   7.489  0.2484  0.1417 -0.4000
  477MOL0     C64294   4.730  10.443   7.348 -0.2726  0.1889 -0.2004
  477MOL0     O64295   4.855  10.449   7.296 -0.1305  0.0329 -0.2131
  477MOL0     C64296   4.899  10.362   7.189 -0.4614 -0.4376  0.1611
  477MOL0     C64297   5.052  10.378   7.178 -0.6227 -0.3954  0.7331
  477MOL0     C64298   5.109  10.315   7.048  0.5949  0.5521  0.0186
  477MOL0     C64299   5.263  10.314   7.049  0.5575 -0.0688  0.0999
  477MOL0     C64300   5.330  10.451   7.052 -0.5227 -0.0827 -0.3568
  477MOL0     C64301   5.483  10.427   7.041  0.2984  0.3159 -0.1019
  477MOL0     C64302   5.547  10.558   7.064 -0.1107 -0.1907 -0.3459
  477MOL0     C64303   5.702  10.538   7.031  0.5810 -0.0930 -0.2301
  477MOL0    Cl64304   5.767  10.703   6.986  0.2130  0.2339  0.2931
  477MOL0     C64305   4.615  10.440   7.272 -0.1991  0.2331 -0.8425
  477MOL0     C64306   4.495  10.422   7.340 -0.3575 -0.1904  0.2488
  477MOL0     O64307   4.377  10.675   7.486  0.4983 -0.1615  0.3677
  477MOL0     C64308   4.090  10.493   7.599 -0.7758  0.0838  0.7057
  477MOL0     C64309   3.950  10.508   7.617 -0.0666  0.1989 -0.4406
  477MOL0     N64310   3.373  10.078   7.369  0.2452 -0.4334 -0.2187
  477MOL0     N64311   3.309   9.979   7.433  0.6154  0.4925 -0.4365
  477MOL0     C64312   2.160  10.007   7.899  0.5048 -0.1416 -0.3016
  477MOL0     C64313   2.037   9.967   7.848  0.0072 -0.9581 -0.1578
  477MOL0     C64314   1.681   9.693   7.758 -0.0229 -0.2946 -0.7486
  477MOL0     C64315   1.581   9.803   7.747 -0.3335 -0.0878  0.1222
  477MOL0     C64316   1.447   9.772   7.705 -0.2281 -0.1391  1.0810
  477MOL0     C64317   1.414   9.638   7.668 -0.9932  0.3433  0.2150
  477MOL0     O64318   1.290   9.618   7.617 -0.0595  0.7263  0.6501
  477MOL0     C64319   1.248   9.485   7.573 -0.1465  0.5216  0.0435
  477MOL0     C64320   1.114   9.475   7.493 -0.3206 -0.7121  0.0944
  477MOL0     C64321   1.003   9.543   7.583 -0.0555  0.6829  0.7087
  477MOL0     C64322   0.863   9.512   7.528  0.7258  0.3697  0.0335
  477MOL0     C64323   0.759   9.564   7.613 -0.2961  0.2435 -0.0461
  477MOL0     C64324   0.674   9.588   7.697  0.3730 -0.4604 -0.2444
  477MOL0     C64325   1.513   9.536   7.675  0.3077 -0.1594 -0.3051
  477MOL0     C64326   1.635   9.559   7.723 -1.1644  0.1220  0.1073
  477MOL0     C64327   1.727   9.440   7.740 -0.7108 -0.1114 -1.0938
  477MOL0     H64328   1.922   9.771   8.108 -1.8026 -0.0270 -2.2162
  477MOL0     H64329   2.138   9.851   8.205  2.2298 -0.0503 -1.0209
  477MOL0     H64330   2.372  10.141   7.971 -0.7426  0.1825  1.6146
  477MOL0     H64331   2.486  10.108   8.093  0.1226 -0.1570 -0.5152
  477MOL0     H64332   2.401   9.901   7.875  1.0100  0.0274 -0.1854
  477MOL0     H64333   2.525   9.870   7.999  0.7157 -1.2800 -2.0960
  477MOL0     H64334   2.611  10.113   7.896  1.0531 -0.6169  2.1314
  477MOL0     H64335   2.530  10.035   7.755 -0.7350  0.1306  1.0659
  477MOL0     H64336   2.756   9.925   7.930  1.1391  0.8298 -0.1106
  477MOL0     H64337   2.686   9.845   7.781 -0.3700 -0.6830 -0.2198
  477MOL0     H64338   2.763  10.036   7.651 -0.2762 -2.3223 -1.6532
  477MOL0     H64339   2.831  10.114   7.803  1.1126 -0.9213  0.3723
  477MOL0     H64340   2.976   9.929   7.846 -2.5899  1.6465  1.1232
  477MOL0     H64341   2.913   9.832   7.722 -0.6340  0.1079 -0.3478
  477MOL0     H64342   3.038  10.106   7.671 -0.8572 -0.5472 -0.5947
  477MOL0     H64343   2.987   9.998   7.546  3.4354 -1.8936 -1.1015
  477MOL0     H64344   3.206   9.942   7.741 -1.6207 -0.4842  0.3011
  477MOL0     H64345   3.184   9.832   7.605  1.4178  0.3430 -1.8582
  477MOL0     H64346   3.263  10.216   7.645 -1.7162  1.6049 -2.0182
  477MOL0     H64347   3.472  10.308   7.336  0.2541 -1.4657  0.3379
  477MOL0     H64348   3.337  10.382   7.434 -1.3526 -2.0616 -1.5836
  477MOL0     H64349   3.471  10.352   7.634  1.5116  1.3789  0.5561
  477MOL0     H64350   3.587  10.257   7.553 -2.2260 -1.9057 -2.4332
  477MOL0     H64351   3.541  10.535   7.442 -0.6008 -2.0204 -1.0687
  477MOL0     H64352   3.698  10.449   7.445  0.2474  3.6604 -1.5745
  477MOL0     H64353   3.685  10.494   7.705  1.6249  1.0403 -0.5717
  477MOL0     H64354   3.562  10.596   7.670  0.8423  0.3776  0.7971
  477MOL0     H64355   3.919  10.823   7.499  1.5711  1.9037  0.6810
  477MOL0     H64356   4.145  10.802   7.464 -1.2210  2.7352  4.8077
  477MOL0     H64357   4.594  10.419   7.657  1.5846 -2.8679  0.0703
  477MOL0     H64358   4.818  10.423   7.543 -0.8122 -1.6568  1.1198
  477MOL0     H64359   4.877  10.256   7.201  1.5238 -1.0507 -1.0915
  477MOL0     H64360   4.858  10.402   7.095 -0.8699 -1.1444  0.0322
  477MOL0     H64361   5.073  10.485   7.180  1.1731 -0.7102  0.1904
  477MOL0     H64362   5.099  10.342   7.270 -0.9847 -0.1595  1.0112
  477MOL0     H64363   5.082  10.209   7.043  1.0670  0.3726  1.0767
  477MOL0     H64364   5.067  10.360   6.957  2.0684 -1.0461 -1.5348
  477MOL0     H64365   5.297  10.260   6.960  0.3490  0.0479 -0.0514
  477MOL0     H64366   5.290  10.262   7.141 -0.5904 -4.1546 -1.6547
  477MOL0     H64367   5.306  10.498   7.147  1.9427 -0.0986  0.3464
  477MOL0     H64368   5.289  10.516   6.974 -2.2639  0.1942  0.7408
  477MOL0     H64369   5.513  10.352   7.115 -0.3913 -0.5173 -0.6425
  477MOL0     H64370   5.514  10.381   6.946 -0.3116  0.6034 -0.4407
  477MOL0     H64371   5.528  10.594   7.166  1.0952  1.9799 -0.8419
  477MOL0     H64372   5.497  10.631   7.001 -0.9422  0.8282  1.4206
  477MOL0     H64373   5.741  10.493   7.123 -1.4817 -2.7066 -0.5154
  477MOL0     H64374   5.725  10.473   6.946  0.1415 -2.6992  1.5400
  477MOL0     H64375   4.618  10.449   7.164 -0.6859  1.4295 -0.7796
  477MOL0     H64376   4.401  10.420   7.285 -0.5723 -3.7904  0.5676
  477MOL0     H64377   4.145  10.404   7.627 -0.6131  0.5506  1.9316
  477MOL0     H64378   3.895  10.425   7.660  1.4754 -1.0158 -0.7469
  477MOL0     H64379   2.219  10.076   7.839  0.0485  2.4775  2.0323
  477MOL0     H64380   2.010   9.994   7.747 -0.7200 -3.2464 -0.6438
  477MOL0     H64381   1.589   9.904   7.785 -0.1526 -0.5192  1.2706
  477MOL0     H64382   1.383   9.859   7.696 -3.7372 -2.4143  2.0487
  477MOL0     H64383   1.222   9.433   7.666 -0.6044  1.4096  0.4181
  477MOL0     H64384   1.320   9.427   7.514 -1.3530 -0.0905 -0.8818
  477MOL0     H64385   1.090   9.375   7.457  1.5343 -1.0194 -0.3770
  477MOL0     H64386   1.123   9.538   7.405 -0.2769 -1.8640 -0.7502
  477MOL0     H64387   1.017   9.651   7.589 -0.1613  0.8885 -1.8378
  477MOL0     H64388   1.005   9.499   7.683 -2.8075 -2.1485 -0.3188
  477MOL0     H64389   0.843   9.551   7.428  1.8419  2.6768  0.6329
  477MOL0     H64390   0.855   9.403   7.521 -0.4929  0.4013  0.6367
  477MOL0     H64391   0.607   9.619   7.775 -0.0563 -2.9800  0.4833
  477MOL0     H64392   1.482   9.434   7.654 -1.0829 -0.1466  1.4865
  477MOL0     H64393   1.694   9.345   7.697  0.7773 -0.6543 -1.1000
  477MOL0     H64394   1.823   9.456   7.690 -0.4858  1.4528 -0.2186
  477MOL0     H64395   1.742   9.424   7.847 -4.7744  0.6713 -0.2584
  478MOL0     O64396   4.634   7.400   3.202  0.4312  0.2422  0.3511
  478MOL0     C64397   4.637   7.286   3.240  0.2597 -0.2348  0.0171
  478MOL0     O64398   4.719   7.198   3.192 -0.1993  0.1953 -0.3660
  478MOL0     C64399   4.794   7.233   3.083 -0.0369  1.0090 -0.9522
  478MOL0     C64400   4.741   7.233   2.954  0.1605  0.3873  1.1955
  478MOL0     C64401   4.822   7.274   2.845 -0.1946  0.7508  0.7347
  478MOL0     C64402   4.954   7.315   2.866  0.0594  0.5729  0.5076
  478MOL0     O64403   5.026   7.351   2.762  0.2371 -0.4845 -0.3225
  478MOL0     C64404   5.170   7.381   2.762 -0.4856 -0.0648 -0.2828
  478MOL0     C64405   5.202   7.520   2.810 -0.5482 -0.8542  0.1312
  478MOL0     C64406   5.342   7.546   2.779 -0.1070  0.5739 -0.5232
  478MOL0     C64407   5.391   7.670   2.855 -0.8243 -0.6692  0.0861
  478MOL0     C64408   5.544   7.667   2.873 -0.0639  0.3739  0.2885
  478MOL0     C64409   5.589   7.761   2.986  0.1793 -0.3545  0.1215
  478MOL0     C64410   5.739   7.760   2.991 -1.0237 -0.3377  0.2516
  478MOL0     C64411   5.782   7.653   3.084 -0.5394 -0.6128  0.9652
  478MOL0     N64412   5.919   7.660   3.128 -0.1697  0.0570  0.0638
  478MOL0     C64413   5.973   7.764   3.201 -0.3155 -0.9390  0.2725
  478MOL0     C64414   6.103   7.728   3.223  0.3851 -0.4532  0.1414
  478MOL0     C64415   6.195   7.814   3.298 -0.4385  0.6630 -0.5894
  478MOL0     C64416   6.340   7.749   3.306 -0.0472 -0.0981 -0.4915
  478MOL0     C64417   6.406   7.724   3.167 -0.2300 -0.6956  0.3460
  478MOL0     C64418   6.559   7.753   3.160 -0.7268 -0.5117 -0.0183
  478MOL0     O64419   6.576   7.895   3.152  0.2496  0.2937 -0.1000
  478MOL0     C64420   6.700   7.946   3.152  0.1474  0.2443  0.4890
  478MOL0     C64421   6.818   7.876   3.155 -0.1874  0.4749 -0.1463
  478MOL0     C64422   6.938   7.950   3.133  0.1147  0.8588 -0.5291
  478MOL0     C64423   6.938   8.093   3.145  1.0857  0.4468  0.6555
  478MOL0     C64424   7.059   8.177   3.143  0.1863 -0.1078  0.4323
  478MOL0     O64425   7.170   8.125   3.076  0.0355 -0.0868 -0.8997
  478MOL0     C64426   7.285   8.185   3.037  0.0682  0.7231 -0.5711
  478MOL0     C64427   7.327   8.313   3.062 -0.3288  0.1928  0.9483
  478MOL0     C64428   7.455   8.348   3.025  0.0364 -0.0256 -0.7897
  478MOL0     C64429   7.537   8.257   2.956  0.3685 -0.3635  0.5740
  478MOL0     O64430   7.663   8.306   2.913  0.0118 -0.0688  0.1957
  478MOL0     C64431   7.760   8.221   2.860  0.5351 -0.9479 -0.7084
  478MOL0     C64432   7.898   8.296   2.882  0.2231  0.8174 -0.2096
  478MOL0     C64433   8.008   8.221   2.809 -0.7105 -0.0890 -0.0542
  478MOL0     C64434   8.145   8.245   2.868 -0.6199 -0.6284  0.3475
  478MOL0     C64435   8.203   8.385   2.861  0.0869  0.4758 -0.0461
  478MOL0     C64436   8.349   8.396   2.916  0.0582 -0.2879  0.8133
  478MOL0     C64437   8.395   8.536   2.952 -0.0416  0.3168 -0.7824
  478MOL0     C64438   8.394   8.558   3.102 -0.1680  0.6084 -0.6382
  478MOL0    Cl64439   8.249   8.513   3.205  0.1218 -0.1429 -0.0762
  478MOL0     C64440   7.499   8.133   2.936 -0.4199  0.1983 -0.2525
  478MOL0     C64441   7.371   8.092   2.984  0.0972 -0.1843  0.2434
  478MOL0     O64442   7.054   8.287   3.190 -0.0678 -0.1300 -0.3258
  478MOL0     C64443   6.817   8.158   3.142 -0.0260 -0.7097  0.5294
  478MOL0     C64444   6.695   8.087   3.139  0.3144 -0.7325  0.0691
  478MOL0     N64445   6.124   7.610   3.143  0.2903 -0.1519  0.7017
  478MOL0     N64446   6.019   7.568   3.091  0.7582  0.4843  0.5553
  478MOL0     C64447   5.008   7.299   2.995 -0.0387  0.0641 -0.0244
  478MOL0     C64448   4.928   7.262   3.099 -0.3338  0.2667  0.8774
  478MOL0     C64449   4.556   7.238   3.358 -0.4476 -0.3182 -0.0312
  478MOL0     C64450   4.591   7.263   3.497  0.6224 -0.0137 -0.2042
  478MOL0     C64451   4.512   7.228   3.607 -0.3720 -0.7305  0.3033
  478MOL0     C64452   4.392   7.162   3.585  0.2084  0.5084 -0.1671
  478MOL0     O64453   4.307   7.142   3.690  0.5118 -0.3935  0.9001
  478MOL0     C64454   4.176   7.092   3.668 -0.4445  0.7270  0.4018
  478MOL0     C64455   4.106   7.160   3.776  0.6694 -1.0623  0.1803
  478MOL0     C64456   3.960   7.137   3.766 -0.4840  0.4112 -0.4156
  478MOL0     C64457   3.886   7.233   3.674 -0.2883  0.2980  0.2144
  478MOL0     C64458   3.744   7.195   3.644  0.0687 -0.3888 -0.0815
  478MOL0     C64459   3.629   7.163   3.604  0.0498  0.0289  0.2108
  478MOL0     C64460   4.364   7.119   3.449  0.3103 -1.0434 -0.9291
  478MOL0     C64461   4.442   7.161   3.344 -0.0469  0.2713  0.0617
  478MOL0     C64462   4.394   7.110   3.205 -0.3819 -0.2653  0.3074
  478MOL0     H64463   4.634   7.222   2.947 -0.3638  4.3560  0.5969
  478MOL0     H64464   4.798   7.277   2.739  3.0579  1.9167 -0.1190
  478MOL0     H64465   5.231   7.312   2.821 -0.8194  0.1332  0.2992
  478MOL0     H64466   5.201   7.379   2.657 -1.5708  0.8589 -0.6509
  478MOL0     H64467   5.186   7.529   2.918 -1.7673 -2.2220  0.1120
  478MOL0     H64468   5.136   7.590   2.759 -0.4605  1.1030  2.5423
  478MOL0     H64469   5.351   7.562   2.671  1.0157 -0.7952 -0.6520
  478MOL0     H64470   5.388   7.452   2.810 -1.2385 -0.8024 -2.7420
  478MOL0     H64471   5.361   7.753   2.790  0.5490 -1.2565 -1.3730
  478MOL0     H64472   5.348   7.684   2.954  0.8933 -3.2118  1.3104
  478MOL0     H64473   5.570   7.564   2.898 -1.4008 -0.7002 -2.3305
  478MOL0     H64474   5.604   7.691   2.784  0.3820  0.8882  0.7212
  478MOL0     H64475   5.561   7.863   2.960  0.1495 -0.3839  0.0401
  478MOL0     H64476   5.537   7.748   3.082  0.3333 -1.9881  0.0177
  478MOL0     H64477   5.793   7.852   3.015  1.4630 -1.4782 -0.5673
  478MOL0     H64478   5.783   7.749   2.892 -1.4773  0.5998 -0.0663
  478MOL0     H64479   5.719   7.658   3.173 -0.4783 -0.1138  0.9801
  478MOL0     H64480   5.764   7.559   3.031 -0.7087 -2.1285  3.5087
  478MOL0     H64481   5.925   7.851   3.245  1.3895 -0.7044  1.7921
  478MOL0     H64482   6.208   7.912   3.251  3.3471  0.9954  0.8337
  478MOL0     H64483   6.148   7.825   3.396 -1.9173 -1.8847 -0.9274
  478MOL0     H64484   6.406   7.815   3.363  1.0244 -1.1955 -0.4088
  478MOL0     H64485   6.338   7.657   3.365  1.3593 -0.6218 -1.2174
  478MOL0     H64486   6.343   7.776   3.094 -0.1390 -1.3667 -0.2309
  478MOL0     H64487   6.395   7.619   3.138  1.8738 -0.5980 -1.0400
  478MOL0     H64488   6.602   7.710   3.070 -1.9745 -2.4580  0.2512
  478MOL0     H64489   6.622   7.712   3.240  1.8548 -1.9897 -2.6316
  478MOL0     H64490   6.827   7.769   3.168  2.4906  0.9167  2.9067
  478MOL0     H64491   7.036   7.908   3.115 -0.0261  0.4389 -0.3391
  478MOL0     H64492   7.262   8.385   3.110 -4.0171 -1.4229 -1.2261
  478MOL0     H64493   7.504   8.442   3.049  0.7082 -0.3826 -0.7251
  478MOL0     H64494   7.762   8.133   2.925  0.0254 -0.9899 -0.7451
  478MOL0     H64495   7.730   8.184   2.762  2.7348 -2.4972 -0.8709
  478MOL0     H64496   7.881   8.395   2.838 -1.8889  0.4092 -0.3919
  478MOL0     H64497   7.915   8.303   2.990  1.2881  0.0053 -0.3032
  478MOL0     H64498   7.979   8.116   2.802  0.5704 -0.3597 -2.6261
  478MOL0     H64499   8.020   8.260   2.708 -0.5877 -1.6996 -0.6873
  478MOL0     H64500   8.212   8.181   2.809 -0.6213  0.9098 -1.4160
  478MOL0     H64501   8.143   8.211   2.972 -1.4501 -0.5232  0.3675
  478MOL0     H64502   8.150   8.446   2.936 -0.7869 -0.1563 -0.1413
  478MOL0     H64503   8.206   8.417   2.757  3.2475  1.1104  0.1349
  478MOL0     H64504   8.364   8.326   2.999 -1.7136 -1.8173 -0.0919
  478MOL0     H64505   8.412   8.361   2.833 -0.9031 -1.0912  0.4075
  478MOL0     H64506   8.333   8.609   2.899  1.0510 -1.1960 -4.4397
  478MOL0     H64507   8.496   8.554   2.915  0.1624 -1.2324 -1.0549
  478MOL0     H64508   8.477   8.500   3.143 -1.4309  0.8080  2.4458
  478MOL0     H64509   8.414   8.661   3.132  1.9148 -0.2141  1.0586
  478MOL0     H64510   7.564   8.071   2.875 -0.6276  1.5990 -1.9944
  478MOL0     H64511   7.335   7.990   2.976 -1.0630  0.3136 -1.4374
  478MOL0     H64512   6.809   8.266   3.130  2.8657 -0.5797 -1.2938
  478MOL0     H64513   6.606   8.149   3.139  1.4043  0.9217  0.7539
  478MOL0     H64514   5.109   7.338   3.009 -0.1277  1.7383 -3.0933
  478MOL0     H64515   4.975   7.247   3.196 -1.3454 -0.3381  1.2858
  478MOL0     H64516   4.684   7.317   3.511  1.7739 -1.9451 -0.0420
  478MOL0     H64517   4.544   7.261   3.706  0.4504 -0.5700 -0.0073
  478MOL0     H64518   4.178   6.983   3.672  0.4969  0.6166 -1.5985
  478MOL0     H64519   4.130   7.123   3.574 -1.6231 -1.1817  0.3078
  478MOL0     H64520   4.124   7.268   3.779 -1.9307 -0.5801  1.5581
  478MOL0     H64521   4.150   7.125   3.870  2.4598  2.1749  0.6827
  478MOL0     H64522   3.923   7.130   3.869  2.2647 -3.5449  0.5287
  478MOL0     H64523   3.944   7.033   3.734 -3.0780  0.6149  0.0171
  478MOL0     H64524   3.892   7.333   3.717 -0.3478  0.4720 -0.1729
  478MOL0     H64525   3.947   7.236   3.583 -0.3892  1.1178  0.1688
  478MOL0     H64526   3.535   7.139   3.560 -1.6609  0.6170  3.2608
  478MOL0     H64527   4.271   7.067   3.431  0.2525 -0.6831 -1.7270
  478MOL0     H64528   4.317   7.172   3.157  1.8797  2.2079 -0.3572
  478MOL0     H64529   4.477   7.109   3.133  0.8886 -0.8684  1.7232
  478MOL0     H64530   4.351   7.009   3.212 -0.2786 -0.2984  0.4635
  479MOL0     O64531   3.886   6.853   1.250  0.3530  0.3033 -0.1487
  479MOL0     C64532   3.775   6.817   1.228  0.0029 -0.0859  0.3841
  479MOL0     O64533   3.747   6.718   1.138  0.1637 -0.4368  0.4945
  479MOL0     C64534   3.848   6.659   1.071 -0.2438  0.7802  0.0602
  479MOL0     C64535   3.866   6.523   1.083 -0.3017  0.9120 -0.8733
  479MOL0     C64536   3.960   6.453   1.010 -0.5052 -0.0310 -0.2140
  479MOL0     C64537   4.041   6.515   0.920  0.0194 -1.0601 -0.0340
  479MOL0     O64538   4.128   6.447   0.841 -0.4768 -0.4404 -0.1204
  479MOL0     C64539   4.254   6.418   0.908 -0.6599 -0.2085  0.2342
  479MOL0     C64540   4.365   6.402   0.803 -0.0701 -0.7808  0.1497
  479MOL0     C64541   4.403   6.535   0.754 -0.1456 -0.3066  1.0240
  479MOL0     C64542   4.492   6.529   0.624  0.6650 -0.3496  0.1810
  479MOL0     C64543   4.558   6.663   0.590 -0.9730 -0.4016  0.2082
  479MOL0     C64544   4.696   6.699   0.658  0.1197 -0.3555 -0.2807
  479MOL0     C64545   4.757   6.832   0.620 -0.1981 -0.2363  0.5430
  479MOL0     C64546   4.909   6.841   0.664  0.3284 -1.0569  0.7176
  479MOL0     N64547   4.967   6.977   0.632 -0.6412 -0.0044 -0.1378
  479MOL0     C64548   4.932   7.060   0.531 -0.6381  0.1123  0.6238
  479MOL0     C64549   4.988   7.180   0.559 -0.4032  0.0053 -0.0513
  479MOL0     C64550   4.971   7.307   0.490 -0.2327  0.3481  0.0682
  479MOL0     C64551   5.076   7.311   0.375 -0.0933 -0.1880  0.0099
  479MOL0     C64552   5.094   7.452   0.307 -0.0241  0.5210 -0.3349
  479MOL0     C64553   5.140   7.574   0.384  0.7336  0.4419  0.0882
  479MOL0     O64554   5.285   7.566   0.397  0.3084 -0.1899  0.1068
  479MOL0     C64555   5.368   7.595   0.294  0.0161 -0.9345 -0.6760
  479MOL0     C64556   5.497   7.542   0.287  0.2809  0.2784 -0.6032
  479MOL0     C64557   5.591   7.578   0.191  0.5888  0.0743 -0.2016
  479MOL0     C64558   5.554   7.673   0.094 -0.8620  0.3211  0.3472
  479MOL0     C64559   5.655   7.719  -0.002 -0.1924  0.0385  0.4071
  479MOL0     O64560   5.611   7.815  -0.099  0.0984 -0.6716  0.0848
  479MOL0     C64561   5.705   7.882  -0.166  1.0341  0.6986 -0.4493
  479MOL0     C64562   5.727   8.019  -0.137  1.0289 -0.0754  0.1008
  479MOL0     C64563   5.822   8.102  -0.205  1.0366 -0.0427  0.0911
  479MOL0     C64564   5.896   8.040  -0.310  0.2681 -0.4061  0.4132
  479MOL0     O64565   5.989   8.101  -0.387  0.1052 -0.0993 -0.2923
  479MOL0     C64566   5.971   8.244  -0.397 -0.1770  0.2801 -1.4559
  479MOL0     C64567   6.084   8.305  -0.487  1.0202  0.0696 -0.0658
  479MOL0     C64568   6.218   8.355  -0.431 -0.2639 -0.2650 -0.6788
  479MOL0     C64569   6.298   8.238  -0.378 -0.2844  0.5498  0.6287
  479MOL0     C64570   6.425   8.277  -0.310 -0.2743 -1.0076  0.4605
  479MOL0     C64571   6.526   8.355  -0.391 -0.5063  0.9243  0.1841
  479MOL0     C64572   6.668   8.351  -0.324 -0.6025  0.4344 -0.7125
  479MOL0     C64573   6.759   8.451  -0.391 -1.0210 -0.1543  0.4606
  479MOL0    Cl64574   6.700   8.619  -0.395  0.0805 -0.2309 -0.1493
  479MOL0     C64575   5.884   7.900  -0.332 -0.0512 -0.0776  0.2057
  479MOL0     C64576   5.792   7.819  -0.262  0.2066 -0.5716  0.1001
  479MOL0     O64577   5.767   7.671  -0.005 -0.0962  0.2351  0.3308
  479MOL0     C64578   5.422   7.717   0.090 -0.4733 -0.5088 -0.6436
  479MOL0     C64579   5.331   7.688   0.188  0.6402 -0.4077  0.1324
  479MOL0     N64580   5.064   7.175   0.677  0.1392  0.5419  0.0470
  479MOL0     N64581   5.047   7.053   0.720  1.0228 -0.5982 -0.2585
  479MOL0     C64582   4.027   6.657   0.906 -0.6894  0.4700  0.4914
  479MOL0     C64583   3.923   6.731   0.974 -0.5870  0.0400 -0.3495
  479MOL0     C64584   3.661   6.886   1.295  0.1409  0.2492  0.3004
  479MOL0     C64585   3.678   6.972   1.403 -0.7038 -0.5598  0.7537
  479MOL0     C64586   3.568   7.028   1.468  1.0094 -0.2202 -0.7305
  479MOL0     C64587   3.437   6.994   1.452  0.6693 -0.2832 -0.5067
  479MOL0     O64588   3.327   7.048   1.527  0.3817  0.3838  0.0935
  479MOL0     C64589   3.350   7.145   1.630  0.2612  0.3706 -0.0424
  479MOL0     C64590   3.217   7.218   1.665  0.4356 -1.6262  0.9403
  479MOL0     C64591   3.175   7.296   1.534 -0.6333  0.2112 -0.0167
  479MOL0     C64592   3.052   7.364   1.557  0.4025 -0.3895 -0.4891
  479MOL0     C64593   3.077   7.484   1.629 -0.4494  0.7197 -0.7507
  479MOL0     C64594   3.107   7.582   1.688 -0.0487 -0.3209 -0.3709
  479MOL0     C64595   3.417   6.916   1.343 -0.3260  1.2290 -1.0958
  479MOL0     C64596   3.521   6.868   1.258 -0.0531  0.6249  1.5064
  479MOL0     C64597   3.476   6.800   1.127  0.6011  0.7696  0.1719
  479MOL0     H64598   3.793   6.483   1.152 -0.6808  1.9675 -0.6466
  479MOL0     H64599   3.957   6.344   1.011  0.3642 -0.0901 -1.8199
  479MOL0     H64600   4.274   6.488   0.989  0.4456 -1.6518  1.2498
  479MOL0     H64601   4.237   6.318   0.950  1.3785  0.2189  2.2664
  479MOL0     H64602   4.335   6.350   0.711  0.6414  0.1966 -0.6617
  479MOL0     H64603   4.446   6.342   0.845  0.8848  0.5900  0.3228
  479MOL0     H64604   4.468   6.591   0.820  2.8841  1.4202 -2.9919
  479MOL0     H64605   4.312   6.589   0.726  1.6044  2.3470  0.1175
  479MOL0     H64606   4.578   6.461   0.626  2.5501  1.6316 -3.6619
  479MOL0     H64607   4.428   6.498   0.541  0.9289  1.4184 -0.7340
  479MOL0     H64608   4.588   6.661   0.485  2.9627 -4.9024  1.0821
  479MOL0     H64609   4.479   6.734   0.616 -0.1139  0.3034  0.9396
  479MOL0     H64610   4.683   6.697   0.767 -1.7052 -1.5247 -0.4950
  479MOL0     H64611   4.766   6.617   0.644 -0.6349 -1.1454  0.4465
  479MOL0     H64612   4.708   6.918   0.665 -1.6358 -0.3109 -0.7944
  479MOL0     H64613   4.742   6.850   0.513  2.1020  1.7883  0.4691
  479MOL0     H64614   4.908   6.830   0.773 -1.2511  0.9464  0.9593
  479MOL0     H64615   4.966   6.758   0.621  0.9992  0.2174 -0.9970
  479MOL0     H64616   4.873   7.021   0.448  3.1663 -3.7098 -0.6827
  479MOL0     H64617   4.872   7.315   0.443  0.3672 -0.0342 -1.2796
  479MOL0     H64618   4.980   7.392   0.559 -5.0003  2.0897 -0.9957
  479MOL0     H64619   5.176   7.291   0.414  1.2371  1.3048 -2.4256
  479MOL0     H64620   5.055   7.237   0.298 -0.5474 -1.5945  1.4252
  479MOL0     H64621   5.000   7.482   0.260  1.2042  0.8064 -2.7668
  479MOL0     H64622   5.159   7.429   0.223  0.4796 -2.6684  0.8118
  479MOL0     H64623   5.087   7.568   0.480  2.0356  1.1281  0.8979
  479MOL0     H64624   5.102   7.665   0.337 -0.7612 -2.0318 -3.9846
  479MOL0     H64625   5.515   7.469   0.367 -5.0484 -0.4340  0.3202
  479MOL0     H64626   5.693   7.549   0.215 -0.0836 -0.9429  1.6791
  479MOL0     H64627   5.664   8.066  -0.062 -1.9828 -2.6151 -0.6440
  479MOL0     H64628   5.841   8.206  -0.179  0.9998  0.2767 -1.1269
  479MOL0     H64629   5.869   8.270  -0.427 -0.9903 -0.1299  0.7366
  479MOL0     H64630   5.992   8.280  -0.296 -2.3606 -4.0870  0.8506
  479MOL0     H64631   6.110   8.230  -0.562 -0.8873  0.1719 -0.8920
  479MOL0     H64632   6.040   8.390  -0.541  3.6435  2.5916  1.4857
  479MOL0     H64633   6.269   8.412  -0.509 -2.6567  1.0836 -1.3485
  479MOL0     H64634   6.200   8.427  -0.350  1.0031 -1.1497  0.4438
  479MOL0     H64635   6.310   8.172  -0.464 -2.3978  0.7220  0.1455
  479MOL0     H64636   6.231   8.189  -0.306 -1.3536 -0.1227 -0.7669
  479MOL0     H64637   6.484   8.196  -0.267  0.0267 -2.1865 -2.0133
  479MOL0     H64638   6.398   8.342  -0.226  0.0641 -0.9294  0.5102
  479MOL0     H64639   6.514   8.325  -0.496 -1.8094  1.2282  0.2231
  479MOL0     H64640   6.489   8.457  -0.380  1.0065  1.3681  1.3997
  479MOL0     H64641   6.706   8.249  -0.312 -2.0022 -0.1931 -1.4004
  479MOL0     H64642   6.655   8.382  -0.219  2.5698  0.0090 -0.0895
  479MOL0     H64643   6.858   8.450  -0.343 -0.3887  1.2177 -0.7120
  479MOL0     H64644   6.776   8.410  -0.491  0.3964  0.2921  0.4913
  479MOL0     H64645   5.952   7.852  -0.402 -0.5589  1.2650 -1.2418
  479MOL0     H64646   5.764   7.716  -0.280 -2.7037  0.1626 -0.0718
  479MOL0     H64647   5.388   7.775   0.005  1.0244  0.7381 -0.4429
  479MOL0     H64648   5.235   7.737   0.180 -0.3421 -2.4621 -1.5502
  479MOL0     H64649   4.088   6.699   0.827 -0.7657  0.1614  0.2652
  479MOL0     H64650   3.921   6.834   0.942  0.3005  0.1315 -0.1480
  479MOL0     H64651   3.770   7.004   1.451 -1.8828 -0.1044  2.8195
  479MOL0     H64652   3.595   7.096   1.548 -2.8100  0.8008 -0.1302
  479MOL0     H64653   3.413   7.223   1.585 -0.4108  0.0808 -1.5643
  479MOL0     H64654   3.405   7.106   1.716 -0.6242 -0.2340  0.2690
  479MOL0     H64655   3.234   7.289   1.747 -2.4828  0.0189  0.2392
  479MOL0     H64656   3.130   7.157   1.689  0.4941 -1.6865  0.9991
  479MOL0     H64657   3.170   7.233   1.444  0.3219  2.2830 -1.6128
  479MOL0     H64658   3.253   7.369   1.509  0.2529 -0.9267 -0.6781
  479MOL0     H64659   2.998   7.391   1.466 -1.7370  0.8432  1.0519
  479MOL0     H64660   2.989   7.299   1.619  1.0530 -2.1355 -1.5910
  479MOL0     H64661   3.117   7.674   1.741  0.0185 -1.6234  2.0235
  479MOL0     H64662   3.314   6.896   1.315 -0.0029 -0.2116 -1.3121
  479MOL0     H64663   3.483   6.691   1.122  2.9646  0.9287 -1.7447
  479MOL0     H64664   3.371   6.821   1.102 -0.2752 -0.8220  2.1657
  479MOL0     H64665   3.548   6.829   1.049  1.0318 -2.2953 -0.6866
  480MOL0     O64666  10.871   6.755   1.260 -0.1086  0.0185  0.2864
  480MOL0     C64667  10.846   6.851   1.191  0.1167  0.3073 -0.4362
  480MOL0     O64668  10.919   6.891   1.091 -0.1603 -0.3404  0.5493
  480MOL0     C64669  11.029   6.815   1.054 -0.3453 -1.0010  0.6166
  480MOL0     C64670  11.151   6.844   1.114 -0.1881  0.1599  0.7547
  480MOL0     C64671  11.263   6.782   1.067 -0.3375 -0.0246  0.4645
  480MOL0     C64672  11.254   6.696   0.952  0.6493 -0.2119  0.4768
  480MOL0     O64673  11.356   6.621   0.912 -0.0961 -0.7793  0.0929
  480MOL0     C64674  11.493   6.675   0.889 -0.5659  0.3129 -0.5659
  480MOL0     C64675  11.583   6.628   0.999 -0.1989  0.2503 -0.5107
  480MOL0     C64676  11.721   6.693   0.988 -0.2441 -0.9082  0.3331
  480MOL0     C64677  11.836   6.633   1.071  0.6177 -0.0616 -0.9122
  480MOL0     C64678  11.967   6.713   1.063  0.4376 -0.5367 -0.2496
  480MOL0     C64679  12.072   6.640   1.153  0.2757 -0.6105  0.0679
  480MOL0     C64680  12.219   6.684   1.142 -0.1274 -0.4502 -0.2442
  480MOL0     C64681  12.299   6.602   1.253  0.3227  0.1867 -0.7354
  480MOL0     N64682  12.444   6.620   1.236 -0.7998 -0.7975 -0.3726
  480MOL0     C64683  12.532   6.583   1.134 -0.1396 -1.2030 -0.3850
  480MOL0     C64684  12.655   6.595   1.186  0.5942 -0.3476 -0.6340
  480MOL0     C64685  12.776   6.551   1.113 -0.2850 -0.1107 -1.1039
  480MOL0     C64686  12.826   6.411   1.149  0.6866  0.4285  0.6837
  480MOL0     C64687  12.890   6.415   1.282 -0.0880 -1.0599  0.2375
  480MOL0     C64688  12.958   6.283   1.314  0.1437  0.0169  0.4712
  480MOL0     O64689  13.060   6.253   1.222  0.3823 -0.1538  0.2385
  480MOL0     C64690  13.165   6.345   1.216  0.7039 -0.6069  1.2261
  480MOL0     C64691  13.231   6.398   1.319 -0.4050 -0.9813 -0.0479
  480MOL0     C64692  13.338   6.485   1.294 -0.1760 -0.2900 -0.7983
  480MOL0     C64693  13.382   6.516   1.161  0.4333  0.4368 -0.0737
  480MOL0     C64694  13.489   6.618   1.139 -0.4901  0.3792  0.4003
  480MOL0     O64695  13.543   6.618   1.005  0.1104 -0.2666 -0.3710
  480MOL0     C64696  13.657   6.684   0.968 -0.4203 -0.3886  0.9347
  480MOL0     C64697  13.689   6.672   0.836  0.0453  0.6729  0.2919
  480MOL0     C64698  13.802   6.731   0.781 -1.2738  0.3491 -0.3993
  480MOL0     C64699  13.897   6.802   0.858  0.2622  0.4575  0.5528
  480MOL0     O64700  13.999   6.849   0.783  0.5799 -0.3717 -0.4658
  480MOL0     C64701  14.109   6.884   0.855  0.1196 -1.2328  0.5088
  480MOL0     C64702  14.217   6.901   0.747  0.3969  0.1398 -0.7800
  480MOL0     C64703  14.338   6.971   0.807 -1.0086 -0.1693  0.6639
  480MOL0     C64704  14.451   6.996   0.707  0.1455 -0.1940  0.0182
  480MOL0     C64705  14.574   7.058   0.763  0.4867  0.1069  0.8592
  480MOL0     C64706  14.669   7.111   0.650  0.5583 -0.3013  0.5366
  480MOL0     C64707  14.765   7.224   0.699 -0.8425  0.6715  0.3686
  480MOL0     C64708  14.889   7.245   0.606  0.5264 -0.0252 -0.5068
  480MOL0    Cl64709  14.982   7.099   0.617  0.1103 -0.4291 -0.4787
  480MOL0     C64710  13.870   6.821   1.004  0.1945  0.7262  0.1059
  480MOL0     C64711  13.756   6.750   1.052  0.5958  0.3783 -0.0755
  480MOL0     O64712  13.515   6.686   1.231  0.3662 -0.7341 -0.1593
  480MOL0     C64713  13.311   6.457   1.060  0.6893 -0.0476 -0.0097
  480MOL0     C64714  13.203   6.374   1.084 -0.3935 -0.5290  0.1276
  480MOL0     N64715  12.647   6.643   1.313 -0.6671  0.7605 -0.3918
  480MOL0     N64716  12.523   6.651   1.344 -0.5879 -0.3869  0.2944
  480MOL0     C64717  11.128   6.681   0.888  0.7835 -0.2526  0.1696
  480MOL0     C64718  11.013   6.737   0.936  0.0940  0.2814  0.2004
  480MOL0     C64719  10.725   6.926   1.218 -1.3553 -0.5435  0.3109
  480MOL0     C64720  10.689   7.027   1.124  0.8114 -0.2309  0.1677
  480MOL0     C64721  10.568   7.097   1.135  0.1686  0.5903  0.5935
  480MOL0     C64722  10.472   7.063   1.235  0.6491 -1.1067 -0.1881
  480MOL0     O64723  10.350   7.118   1.257 -0.0592  0.0464  0.3400
  480MOL0     C64724  10.295   7.192   1.156  0.2811  0.6678  0.2665
  480MOL0     C64725  10.151   7.213   1.192 -0.4192 -0.6868  1.0532
  480MOL0     C64726  10.134   7.318   1.302 -0.0048  0.2247 -0.1822
  480MOL0     C64727   9.989   7.315   1.363  0.3407 -0.0469  0.1897
  480MOL0     C64728   9.940   7.443   1.400  0.1211  1.1889  0.1575
  480MOL0     C64729   9.894   7.546   1.435 -0.5306 -0.7102 -0.1161
  480MOL0     C64730  10.503   6.968   1.327 -0.5758 -0.8282  0.5440
  480MOL0     C64731  10.630   6.904   1.323 -0.3119  0.2958  0.7073
  480MOL0     C64732  10.651   6.809   1.426  0.9078 -0.8348 -0.6111
  480MOL0     H64733  11.162   6.905   1.203  1.0557 -1.3796  1.7181
  480MOL0     H64734  11.348   6.795   1.133 -0.8075  1.4286  0.8183
  480MOL0     H64735  11.531   6.626   0.798 -0.4098  1.3881 -1.0954
  480MOL0     H64736  11.498   6.782   0.866 -3.8734  0.5057 -0.8505
  480MOL0     H64737  11.599   6.521   0.990  1.4074  0.4627 -0.4342
  480MOL0     H64738  11.539   6.643   1.098  1.2185  1.7249 -0.0561
  480MOL0     H64739  11.716   6.801   1.007 -0.4524 -0.7230 -0.7284
  480MOL0     H64740  11.753   6.685   0.884 -1.5752  0.6614 -0.2306
  480MOL0     H64741  11.806   6.632   1.177  1.6044  1.1339 -0.5901
  480MOL0     H64742  11.853   6.530   1.041 -2.5487 -0.6296 -1.0391
  480MOL0     H64743  12.000   6.728   0.960 -0.1632  0.5780 -0.2926
  480MOL0     H64744  11.944   6.807   1.115 -2.1614 -2.3848  2.2860
  480MOL0     H64745  12.043   6.657   1.257 -1.7518  0.7842 -0.6727
  480MOL0     H64746  12.069   6.533   1.130  2.7107 -0.8360  0.5517
  480MOL0     H64747  12.225   6.790   1.171 -1.5324 -0.0682 -1.2494
  480MOL0     H64748  12.250   6.661   1.040  1.0464 -6.0963  1.0205
  480MOL0     H64749  12.264   6.621   1.354 -1.2153 -0.5691 -1.1090
  480MOL0     H64750  12.272   6.497   1.239 -1.6557  0.4247  0.8443
  480MOL0     H64751  12.516   6.552   1.031  1.4904  0.1207 -1.0847
  480MOL0     H64752  12.747   6.550   1.008  0.0897  2.2905 -1.3032
  480MOL0     H64753  12.850   6.632   1.122  0.1095 -0.3968 -1.7262
  480MOL0     H64754  12.743   6.340   1.150  0.1179  1.0135 -1.2475
  480MOL0     H64755  12.888   6.377   1.066 -2.2889  0.5844 -1.7470
  480MOL0     H64756  12.817   6.440   1.359  0.5801  1.4236  0.1497
  480MOL0     H64757  12.965   6.493   1.296 -2.4762  1.1709  1.2332
  480MOL0     H64758  12.890   6.198   1.329 -0.4645  0.3710 -0.2100
  480MOL0     H64759  13.002   6.302   1.412 -0.5904  0.2697  0.7591
  480MOL0     H64760  13.209   6.365   1.420 -0.2656 -1.1594 -0.0743
  480MOL0     H64761  13.406   6.523   1.370 -0.0709 -2.5380  0.3258
  480MOL0     H64762  13.625   6.623   0.764  0.8688  0.4101 -0.2815
  480MOL0     H64763  13.824   6.716   0.676 -2.0562  1.0511 -0.6775
  480MOL0     H64764  14.101   6.981   0.905 -3.1869  0.1509 -2.2369
  480MOL0     H64765  14.138   6.809   0.928  1.0307 -0.3686  1.0662
  480MOL0     H64766  14.240   6.803   0.704  1.4926 -1.0152  2.1273
  480MOL0     H64767  14.178   6.958   0.662  3.1418 -0.7862 -2.8178
  480MOL0     H64768  14.313   7.072   0.843 -2.3007  1.2359 -3.5336
  480MOL0     H64769  14.385   6.907   0.882  0.7252 -3.1573 -2.6940
  480MOL0     H64770  14.406   7.065   0.635  0.7001  1.0322  0.8209
  480MOL0     H64771  14.471   6.903   0.654 -0.7872 -0.3342 -0.1134
  480MOL0     H64772  14.634   6.983   0.816 -1.1962 -1.7955  0.2176
  480MOL0     H64773  14.540   7.140   0.827 -1.1950  0.0164  0.1427
  480MOL0     H64774  14.725   7.038   0.591  0.7621  0.4910 -0.2692
  480MOL0     H64775  14.613   7.165   0.574 -0.9336 -0.0364  1.7884
  480MOL0     H64776  14.800   7.187   0.796  3.8563 -0.4352 -1.4592
  480MOL0     H64777  14.719   7.322   0.711 -0.3690  0.8305  0.9422
  480MOL0     H64778  14.843   7.280   0.513 -0.7293  1.2899  0.5567
  480MOL0     H64779  14.948   7.327   0.647  2.1865 -1.4446  0.0608
  480MOL0     H64780  13.938   6.876   1.068 -2.3628  3.0633  1.0238
  480MOL0     H64781  13.720   6.758   1.154 -2.2080 -0.4323 -0.9157
  480MOL0     H64782  13.337   6.478   0.957  2.7817 -0.3948  0.3970
  480MOL0     H64783  13.154   6.328   0.999  2.5472  1.3395 -2.8529
  480MOL0     H64784  11.128   6.615   0.802  1.4218 -1.8146  1.3239
  480MOL0     H64785  10.920   6.729   0.880 -0.5500  1.4325  1.0760
  480MOL0     H64786  10.757   7.068   1.050 -1.9521  0.8310 -1.9902
  480MOL0     H64787  10.550   7.188   1.079 -0.9728  0.2824  0.4264
  480MOL0     H64788  10.291   7.131   1.065 -2.6668 -0.6284  1.1260
  480MOL0     H64789  10.354   7.282   1.140  2.4746 -0.7374  0.0762
  480MOL0     H64790  10.112   7.122   1.237 -1.0458 -0.0045  1.9323
  480MOL0     H64791  10.096   7.237   1.100 -0.8739 -0.2419  1.4326
  480MOL0     H64792  10.153   7.419   1.264  1.2204  0.1637  0.2458
  480MOL0     H64793  10.209   7.302   1.379  2.6924 -0.3238 -2.7340
  480MOL0     H64794   9.937   7.267   1.279  0.5802  1.2457 -0.7200
  480MOL0     H64795   9.985   7.254   1.454  2.0621  0.0051  0.3331
  480MOL0     H64796   9.857   7.633   1.484  1.2060  0.9303 -1.5784
  480MOL0     H64797  10.430   6.946   1.403 -2.1484  2.6715  0.2569
  480MOL0     H64798  10.562   6.807   1.490  1.3761 -0.2038  0.0706
  480MOL0     H64799  10.655   6.709   1.382 -0.3406 -0.7161 -1.0474
  480MOL0     H64800  10.739   6.836   1.485  0.0786 -2.5196  1.5587
  481MOL0     O64801   5.826   4.590   9.006  0.0104 -0.6250  0.1848
  481MOL0     C64802   5.784   4.697   9.055 -0.0911 -0.1024 -0.2283
  481MOL0     O64803   5.654   4.717   9.098 -0.0723 -0.0052 -0.9061
  481MOL0     C64804   5.571   4.604   9.128  0.5418 -0.2083 -0.2987
  481MOL0     C64805   5.427   4.621   9.120 -0.2102 -0.2519  0.0021
  481MOL0     C64806   5.344   4.522   9.175  0.0709  0.3471 -0.2037
  481MOL0     C64807   5.396   4.409   9.249 -0.4323  0.2592  0.4345
  481MOL0     O64808   5.325   4.303   9.305 -0.1647 -0.5071 -0.4487
  481MOL0     C64809   5.220   4.338   9.400 -0.3173  0.0314 -0.3539
  481MOL0     C64810   5.164   4.223   9.476 -0.2583  0.3886 -0.3081
  481MOL0     C64811   5.261   4.184   9.594 -0.2696  0.3429  0.8842
  481MOL0     C64812   5.393   4.125   9.551  0.7259  0.4681  0.2263
  481MOL0     C64813   5.458   4.028   9.653 -0.4437  0.1344  0.3702
  481MOL0     C64814   5.495   4.104   9.776  0.1926 -0.4765  0.8717
  481MOL0     C64815   5.562   4.005   9.875  0.2096  0.3824  1.0855
  481MOL0     C64816   5.558   4.073  10.011  0.3372 -0.0590  0.6006
  481MOL0     N64817   5.640   3.991  10.098  0.7504  0.9869 -0.0414
  481MOL0     C64818   5.590   3.908  10.194 -1.2286 -0.3249  0.5799
  481MOL0     C64819   5.696   3.882  10.276 -0.5265  0.0058  0.1302
  481MOL0     C64820   5.682   3.824  10.414 -0.5675 -0.3924 -0.1177
  481MOL0     C64821   5.717   3.666  10.411 -0.0036  0.1317 -0.8021
  481MOL0     C64822   5.691   3.588  10.539 -0.1285 -0.1263 -0.4812
  481MOL0     C64823   5.586   3.658  10.630  0.6909  0.1619 -0.6579
  481MOL0     O64824   5.610   3.591  10.757 -0.7821 -0.1983  0.7527
  481MOL0     C64825   5.517   3.569  10.850 -0.7014 -0.0414  0.0866
  481MOL0     C64826   5.568   3.517  10.974 -0.6601  0.6014  0.2890
  481MOL0     C64827   5.471   3.504  11.079 -0.7501 -0.3381 -1.2780
  481MOL0     C64828   5.333   3.531  11.056  0.3615  0.5080  0.2831
  481MOL0     C64829   5.227   3.499  11.157 -0.0518  0.0190  0.4102
  481MOL0     O64830   5.100   3.508  11.108  0.3107 -0.6050 -0.1039
  481MOL0     C64831   4.989   3.429  11.144 -0.7661  1.1989  0.5205
  481MOL0     C64832   4.996   3.316  11.232  0.0115  0.4325  0.1034
  481MOL0     C64833   4.896   3.225  11.236  0.0303 -0.2753 -0.5937
  481MOL0     C64834   4.772   3.245  11.172 -0.6191  0.2073  0.0001
  481MOL0     O64835   4.677   3.157  11.205  0.6497  0.7606  0.3977
  481MOL0     C64836   4.563   3.154  11.116 -0.5288 -0.5712 -0.6292
  481MOL0     C64837   4.473   3.030  11.138 -0.2580  0.7385  0.3525
  481MOL0     C64838   4.546   2.895  11.154  0.6453  1.0220 -0.7524
  481MOL0     C64839   4.463   2.771  11.131  0.6592  1.0192 -0.4767
  481MOL0     C64840   4.541   2.635  11.142 -0.2916  0.3137 -0.1614
  481MOL0     C64841   4.689   2.643  11.094  0.2344  0.2819 -0.2960
  481MOL0     C64842   4.749   2.508  11.088  0.1410 -0.2626  0.2794
  481MOL0     C64843   4.899   2.512  11.067  0.0404  0.0615  0.4922
  481MOL0    Cl64844   4.998   2.600  11.190 -0.1638  0.1208 -0.3132
  481MOL0     C64845   4.759   3.360  11.097  0.0419 -0.0598 -0.1143
  481MOL0     C64846   4.875   3.444  11.068 -0.0897  0.0188 -0.1728
  481MOL0     O64847   5.255   3.471  11.274  0.1218  0.8490  0.4999
  481MOL0     C64848   5.302   3.592  10.941 -0.2291 -0.4323 -0.1799
  481MOL0     C64849   5.392   3.618  10.840  0.0128 -0.7517 -0.2317
  481MOL0     N64850   5.812   3.935  10.211  0.0104  0.1768  0.0529
  481MOL0     N64851   5.771   3.995  10.105  0.9242  0.2959  0.1235
  481MOL0     C64852   5.534   4.386   9.239  0.2950  0.2821  0.7641
  481MOL0     C64853   5.619   4.496   9.201  0.4829  0.6586 -0.4021
  481MOL0     C64854   5.867   4.825   9.054  0.0785  0.0474 -0.9143
  481MOL0     C64855   5.808   4.948   9.027  0.1633 -0.2167  0.6435
  481MOL0     C64856   5.879   5.064   9.016 -1.0905 -0.2556  0.1045
  481MOL0     C64857   6.014   5.067   9.031 -0.0887 -0.5349  0.4347
  481MOL0     O64858   6.084   5.186   9.027  0.7030  0.0928 -0.2216
  481MOL0     C64859   6.031   5.317   9.004 -0.3102  0.4907  0.6409
  481MOL0     C64860   6.142   5.420   9.017  0.4283 -0.8271 -0.3432
  481MOL0     C64861   6.264   5.379   8.938  0.3269  0.2057  0.9007
  481MOL0     C64862   6.361   5.494   8.920 -0.3060 -0.4211 -0.0951
  481MOL0     C64863   6.494   5.459   8.981  0.0181 -0.0615 -0.5062
  481MOL0     C64864   6.599   5.435   9.048  0.5041 -0.3376  0.0810
  481MOL0     C64865   6.081   4.955   9.052  1.0588 -0.3693  0.3469
  481MOL0     C64866   6.012   4.830   9.064 -1.1687 -0.0638 -0.1360
  481MOL0     C64867   6.108   4.712   9.083 -0.0693  0.1505  0.2466
  481MOL0     H64868   5.385   4.707   9.070 -0.6545  0.8478  2.1272
  481MOL0     H64869   5.241   4.557   9.179  0.5662  1.7636  1.2478
  481MOL0     H64870   5.254   4.419   9.466 -0.0573 -0.7195  0.4440
  481MOL0     H64871   5.134   4.368   9.339 -0.8791 -1.4589 -0.3398
  481MOL0     H64872   5.156   4.136   9.410 -1.3752  2.4909 -3.0712
  481MOL0     H64873   5.069   4.248   9.523  0.5777  0.4422  1.4503
  481MOL0     H64874   5.201   4.108   9.645 -3.0242  1.0076 -1.1064
  481MOL0     H64875   5.291   4.268   9.657  2.0233 -0.3142  0.7571
  481MOL0     H64876   5.376   4.057   9.468  2.2474  1.4625 -0.9444
  481MOL0     H64877   5.469   4.200   9.526 -0.0101  1.4966  0.9875
  481MOL0     H64878   5.382   3.954   9.680  0.4536 -0.8920  0.1722
  481MOL0     H64879   5.546   3.974   9.615 -1.5012 -2.0495  0.8642
  481MOL0     H64880   5.553   4.193   9.750  0.6887 -0.8893  0.5406
  481MOL0     H64881   5.405   4.144   9.823 -1.5393  0.5809 -2.9589
  481MOL0     H64882   5.667   3.991   9.846 -0.6519 -1.3847 -1.5586
  481MOL0     H64883   5.523   3.903   9.877  0.3529  0.3313  1.3717
  481MOL0     H64884   5.599   4.173   9.999 -0.7069  0.2814 -0.3627
  481MOL0     H64885   5.457   4.086  10.049 -0.2775  3.1735 -1.7445
  481MOL0     H64886   5.483   3.901  10.208 -1.6662  2.7480 -0.5025
  481MOL0     H64887   5.733   3.884  10.490  0.4776  1.4000 -2.1405
  481MOL0     H64888   5.574   3.826  10.431 -0.2316 -1.8179  2.8477
  481MOL0     H64889   5.647   3.620  10.341  0.7975  0.5017 -1.8890
  481MOL0     H64890   5.814   3.647  10.363 -0.4701 -1.3017 -1.2309
  481MOL0     H64891   5.782   3.594  10.600 -1.5459 -2.3925  2.0199
  481MOL0     H64892   5.675   3.481  10.523  0.4093 -0.7275  2.5259
  481MOL0     H64893   5.491   3.641  10.580 -0.2987 -0.5916  1.3741
  481MOL0     H64894   5.601   3.766  10.639 -1.8068  0.7035 -2.0297
  481MOL0     H64895   5.670   3.480  10.980  0.6544  3.6849 -0.8997
  481MOL0     H64896   5.494   3.454  11.173 -0.6172  0.4317 -0.8866
  481MOL0     H64897   5.084   3.295  11.293  0.3797  1.0142 -0.2149
  481MOL0     H64898   4.916   3.129  11.284 -0.9677 -0.4053 -0.4099
  481MOL0     H64899   4.501   3.242  11.136 -0.3870 -0.7411  0.6389
  481MOL0     H64900   4.594   3.151  11.011 -0.5451  0.7116 -0.6858
  481MOL0     H64901   4.404   3.034  11.223 -1.2272  0.2520 -0.3917
  481MOL0     H64902   4.412   3.023  11.047  0.0854  2.8133 -0.0931
  481MOL0     H64903   4.629   2.888  11.082  0.5091 -0.4348 -0.8083
  481MOL0     H64904   4.588   2.897  11.255  0.0745 -0.5880 -0.4509
  481MOL0     H64905   4.419   2.765  11.031 -2.5757  0.3997  0.8606
  481MOL0     H64906   4.387   2.779  11.209  0.3535  1.4952 -0.8215
  481MOL0     H64907   4.486   2.563  11.080 -0.6199  1.8829 -1.7493
  481MOL0     H64908   4.540   2.610  11.249 -1.7680  0.3999 -0.1341
  481MOL0     H64909   4.705   2.701  11.002 -0.7740  1.3936  0.2194
  481MOL0     H64910   4.744   2.692  11.174 -0.9245 -2.2564  2.2330
  481MOL0     H64911   4.705   2.455  11.003 -0.6764 -1.7546  1.5830
  481MOL0     H64912   4.728   2.447  11.175  2.6714  0.0635  1.2071
  481MOL0     H64913   4.917   2.404  11.067  0.2410  0.0935  0.6141
  481MOL0     H64914   4.912   2.553  10.967  0.7677 -2.6091 -0.5934
  481MOL0     H64915   4.657   3.383  11.067 -0.2658  0.8646  1.5082
  481MOL0     H64916   4.872   3.519  10.989 -1.7539 -0.9405 -1.0937
  481MOL0     H64917   5.207   3.635  10.911 -0.0233 -1.6097 -2.8304
  481MOL0     H64918   5.349   3.646  10.745 -0.2825 -0.6550 -0.0707
  481MOL0     H64919   5.563   4.288   9.276  0.6392  0.5814  1.3062
  481MOL0     H64920   5.727   4.494   9.212  0.4005  2.2285  1.2692
  481MOL0     H64921   5.702   4.968   9.020  0.1275 -1.0190 -2.0695
  481MOL0     H64922   5.831   5.161   9.009  1.7476  1.6477  3.6402
  481MOL0     H64923   5.949   5.342   9.071 -0.6341 -0.8117  0.7379
  481MOL0     H64924   5.997   5.307   8.900  1.4555  3.0439 -0.3077
  481MOL0     H64925   6.161   5.428   9.124  4.3914  0.1114 -0.9666
  481MOL0     H64926   6.100   5.515   8.983  2.6814  0.2234 -0.3526
  481MOL0     H64927   6.227   5.359   8.837 -1.7138  3.0822  0.9637
  481MOL0     H64928   6.308   5.288   8.982 -0.3056  0.4671  2.1015
  481MOL0     H64929   6.366   5.512   8.812  0.1269 -2.6329 -0.4912
  481MOL0     H64930   6.327   5.588   8.964 -0.3896 -1.0779  1.2761
  481MOL0     H64931   6.676   5.406   9.116 -1.1153 -1.7541  1.4363
  481MOL0     H64932   6.189   4.960   9.047  1.0719 -0.8574  0.0670
  481MOL0     H64933   6.056   4.629   9.131 -2.5694 -0.5283 -3.1997
  481MOL0     H64934   6.139   4.672   8.986  1.6073 -0.2598  0.9159
  481MOL0     H64935   6.190   4.747   9.146 -0.3744 -1.7444  1.7695
  482MOL0     O64936   2.967   3.119   1.474  0.0839 -0.1664  0.4940
  482MOL0     C64937   2.915   3.176   1.377 -0.6350  0.0323 -0.3497
  482MOL0     O64938   2.981   3.258   1.283  0.0779 -0.1344  0.0903
  482MOL0     C64939   3.106   3.300   1.313  0.0857  0.4293  0.4932
  482MOL0     C64940   3.208   3.289   1.221  0.4572  0.0584 -0.8713
  482MOL0     C64941   3.337   3.342   1.245  0.7137  0.5960  0.2441
  482MOL0     C64942   3.371   3.399   1.368 -0.1530 -0.5632 -1.0603
  482MOL0     O64943   3.492   3.451   1.397  0.0545 -0.4497 -0.4636
  482MOL0     C64944   3.525   3.494   1.534  0.5431  0.5299 -1.0165
  482MOL0     C64945   3.672   3.526   1.548  0.2422  0.3624  0.1446
  482MOL0     C64946   3.701   3.567   1.695 -0.3556  0.1330 -0.1297
  482MOL0     C64947   3.849   3.629   1.699  0.4399  0.2518 -0.0231
  482MOL0     C64948   3.943   3.523   1.762 -0.3879  0.3405 -0.2531
  482MOL0     C64949   4.085   3.574   1.728 -0.3294  0.2201  0.1800
  482MOL0     C64950   4.206   3.482   1.766 -0.5883  0.4443 -0.3297
  482MOL0     C64951   4.338   3.560   1.782  0.2143 -0.0019 -0.1184
  482MOL0     N64952   4.382   3.606   1.652 -0.8652 -0.2826 -0.6777
  482MOL0     C64953   4.492   3.547   1.583  0.1185 -0.3910  0.2255
  482MOL0     C64954   4.515   3.628   1.469 -0.0885 -0.1921 -0.7074
  482MOL0     C64955   4.615   3.607   1.364 -0.8093  0.2430  0.1429
  482MOL0     C64956   4.743   3.700   1.386 -0.1690  0.2235 -0.6749
  482MOL0     C64957   4.854   3.673   1.289  1.3079  0.2431 -0.4158
  482MOL0     C64958   4.983   3.748   1.309 -0.3522 -0.0670 -0.7915
  482MOL0     O64959   4.964   3.897   1.303  0.6884  0.4396 -0.6025
  482MOL0     C64960   5.075   3.974   1.283  0.8570  0.1612 -0.3671
  482MOL0     C64961   5.048   4.094   1.217 -0.2945  0.2382 -0.6430
  482MOL0     C64962   5.147   4.184   1.197 -0.2916 -0.0690 -0.3140
  482MOL0     C64963   5.279   4.159   1.250  0.8261 -0.6606 -0.1977
  482MOL0     C64964   5.385   4.261   1.225  0.1814 -0.1016  0.3188
  482MOL0     O64965   5.377   4.348   1.116  0.1910  0.5610 -0.2770
  482MOL0     C64966   5.488   4.379   1.039  0.4765  0.0416  0.0730
  482MOL0     C64967   5.606   4.295   1.036 -0.1209 -1.1104  0.6231
  482MOL0     C64968   5.706   4.326   0.946  0.5818 -0.3323  0.1791
  482MOL0     C64969   5.703   4.441   0.867  0.8221  0.1489 -0.0511
  482MOL0     O64970   5.819   4.465   0.796  0.5377  0.9147  0.4416
  482MOL0     C64971   5.813   4.405   0.660 -0.2350 -0.1432 -0.5684
  482MOL0     C64972   5.955   4.333   0.646 -0.4971  0.3171 -0.7723
  482MOL0     C64973   5.960   4.187   0.691  0.4177  0.0978  0.9744
  482MOL0     C64974   6.105   4.136   0.704 -0.5222  0.2477  0.0916
  482MOL0     C64975   6.087   3.994   0.753 -0.2709  1.0238  0.8368
  482MOL0     C64976   6.217   3.907   0.736  0.8494  0.1641 -0.2410
  482MOL0     C64977   6.335   3.973   0.809  0.4655  0.1281 -0.0844
  482MOL0     C64978   6.463   3.911   0.768 -0.1562  0.5269  0.8284
  482MOL0    Cl64979   6.467   3.727   0.816  0.1209 -0.0603 -0.3614
  482MOL0     C64980   5.598   4.531   0.879 -1.4631  0.1932 -0.1778
  482MOL0     C64981   5.492   4.499   0.970  0.4867  0.0228  0.6471
  482MOL0     O64982   5.479   4.254   1.304 -0.0306  0.3723 -0.4378
  482MOL0     C64983   5.297   4.043   1.331  0.1068 -0.3081  1.4839
  482MOL0     C64984   5.195   3.948   1.342 -0.3597 -0.2596  0.0095
  482MOL0     N64985   4.417   3.728   1.473 -0.1327  0.5271  0.3178
  482MOL0     N64986   4.351   3.722   1.581  0.2900 -0.6002  0.1815
  482MOL0     C64987   3.264   3.405   1.463  0.2334  0.3650 -0.2353
  482MOL0     C64988   3.137   3.353   1.433  0.7254 -0.9544 -0.2203
  482MOL0     C64989   2.776   3.157   1.342 -1.0246  0.2289 -0.3995
  482MOL0     C64990   2.733   3.132   1.202 -0.3231  0.4723  0.1165
  482MOL0     C64991   2.600   3.105   1.176  0.7099  0.0886 -0.0787
  482MOL0     C64992   2.502   3.108   1.277 -0.6098 -0.3251 -0.3204
  482MOL0     O64993   2.367   3.082   1.259  0.1210  0.8645 -0.1148
  482MOL0     C64994   2.317   3.029   1.136 -0.0559 -0.5391 -0.5690
  482MOL0     C64995   2.157   3.048   1.141  0.2073  0.3429 -0.0472
  482MOL0     C64996   2.090   2.948   1.047  0.0272  0.5237  0.4086
  482MOL0     C64997   1.948   2.911   1.074  0.1013  0.3240 -0.2160
  482MOL0     C64998   1.930   2.829   1.188 -0.5477  0.0977 -0.0751
  482MOL0     C64999   1.914   2.759   1.278  0.0029  0.8712 -0.2957
  482MOL0     C65000   2.543   3.155   1.408  0.8296  0.2212  0.0129
  482MOL0     C65001   2.678   3.175   1.437 -0.3908  0.2628 -0.5627
  482MOL0     C65002   2.708   3.212   1.581  0.2579  0.2386  0.1897
  482MOL0     H65003   3.193   3.243   1.124  0.0199  1.1015 -1.3176
  482MOL0     H65004   3.400   3.341   1.157  1.8766  3.8964  0.8871
  482MOL0     H65005   3.470   3.585   1.560 -1.9688 -1.0817 -0.2912
  482MOL0     H65006   3.499   3.417   1.606 -0.2586  2.3868  0.7903
  482MOL0     H65007   3.684   3.598   1.467 -1.8258 -0.2266 -0.7379
  482MOL0     H65008   3.723   3.432   1.527 -1.6051 -0.6759  0.0761
  482MOL0     H65009   3.695   3.473   1.751 -1.2681  1.6535  2.5234
  482MOL0     H65010   3.625   3.638   1.728 -0.3947 -0.1476  0.3926
  482MOL0     H65011   3.888   3.661   1.602 -0.4410  2.8993  0.4155
  482MOL0     H65012   3.856   3.717   1.764 -0.3172  1.5900 -1.6678
  482MOL0     H65013   3.916   3.514   1.867  2.2933  4.4304  1.0243
  482MOL0     H65014   3.936   3.426   1.711  2.4114  0.6293 -1.3890
  482MOL0     H65015   4.097   3.605   1.624  0.2448  3.2737  1.0525
  482MOL0     H65016   4.105   3.663   1.789 -1.1166  0.0755  0.6615
  482MOL0     H65017   4.226   3.412   1.683  0.4887 -0.0272  0.3049
  482MOL0     H65018   4.187   3.422   1.855 -3.1544  0.2543 -0.9155
  482MOL0     H65019   4.318   3.652   1.839 -0.1085  0.3089 -0.7238
  482MOL0     H65020   4.406   3.500   1.843 -0.7299  0.9174  1.9335
  482MOL0     H65021   4.544   3.462   1.626  1.5006  1.2191  1.8552
  482MOL0     H65022   4.644   3.502   1.350 -0.8233 -0.0872  2.2573
  482MOL0     H65023   4.573   3.628   1.265  1.2512 -3.0298 -1.6599
  482MOL0     H65024   4.720   3.807   1.378  2.1368  0.9792  1.5372
  482MOL0     H65025   4.783   3.699   1.488 -1.3862  1.7489 -0.1435
  482MOL0     H65026   4.808   3.697   1.193 -1.3546  2.2501  1.2184
  482MOL0     H65027   4.881   3.567   1.292  0.2562 -0.1712 -2.9845
  482MOL0     H65028   5.049   3.729   1.225  1.7777  0.4944  0.6807
  482MOL0     H65029   5.039   3.730   1.401 -1.5689  2.1618  0.4676
  482MOL0     H65030   4.947   4.120   1.184 -0.0660  1.8698 -0.1676
  482MOL0     H65031   5.123   4.278   1.148 -1.9159 -0.2929  0.0143
  482MOL0     H65032   5.603   4.207   1.098 -0.8134 -0.5850  1.3541
  482MOL0     H65033   5.788   4.258   0.928 -0.6723 -2.2164  1.3652
  482MOL0     H65034   5.727   4.338   0.659 -1.1038  0.6372  3.3052
  482MOL0     H65035   5.805   4.486   0.586 -0.2836  1.1702  0.8095
  482MOL0     H65036   5.992   4.334   0.543  1.4295 -0.2662 -0.1303
  482MOL0     H65037   6.027   4.386   0.709 -0.6362 -2.3244  1.8157
  482MOL0     H65038   5.912   4.174   0.788 -3.1795  1.5422 -0.4330
  482MOL0     H65039   5.911   4.129   0.612 -1.2706 -0.5595  2.4327
  482MOL0     H65040   6.152   4.201   0.778 -0.9802 -0.8744  1.4029
  482MOL0     H65041   6.155   4.144   0.606  1.5573 -4.2492  0.5428
  482MOL0     H65042   6.002   3.943   0.706 -1.1630  1.3394  2.0640
  482MOL0     H65043   6.060   3.993   0.859  1.9893 -2.6903  1.5955
  482MOL0     H65044   6.200   3.801   0.760  1.3303  0.0727 -0.3026
  482MOL0     H65045   6.236   3.899   0.629 -2.0255 -0.6654 -0.7921
  482MOL0     H65046   6.334   3.957   0.917 -3.2367 -1.6415 -0.2244
  482MOL0     H65047   6.346   4.076   0.773 -2.5254  0.0804 -1.4411
  482MOL0     H65048   6.474   3.923   0.660 -3.6289 -1.6724  0.0594
  482MOL0     H65049   6.552   3.959   0.810  0.6264 -0.4045  0.2748
  482MOL0     H65050   5.588   4.624   0.824  3.1117 -0.1658 -1.9788
  482MOL0     H65051   5.412   4.572   0.976 -0.3207 -0.7568 -0.1744
  482MOL0     H65052   5.395   4.013   1.366  1.4040  0.6964 -1.0335
  482MOL0     H65053   5.211   3.863   1.407 -1.2025  1.1392  2.1848
  482MOL0     H65054   3.278   3.451   1.560  0.0263  2.4191 -1.1275
  482MOL0     H65055   3.056   3.350   1.505  0.0526 -1.8334 -0.9933
  482MOL0     H65056   2.804   3.125   1.120  0.1761 -0.6954  0.6226
  482MOL0     H65057   2.574   3.064   1.079  0.6570  0.7740 -0.3643
  482MOL0     H65058   2.340   2.922   1.138  0.1722 -0.4885  1.1875
  482MOL0     H65059   2.358   3.076   1.046 -1.4373  1.2587 -0.3109
  482MOL0     H65060   2.127   3.152   1.120 -1.0416 -0.0032 -0.0683
  482MOL0     H65061   2.126   3.020   1.242  4.1732 -2.9362  0.5153
  482MOL0     H65062   2.153   2.858   1.040  1.9299  1.9202 -2.8879
  482MOL0     H65063   2.086   2.990   0.946 -1.1860 -2.4409 -0.8901
  482MOL0     H65064   1.892   3.004   1.085  0.5058  0.5321  0.0982
  482MOL0     H65065   1.909   2.860   0.986 -0.5791 -0.1719  0.3667
  482MOL0     H65066   1.888   2.686   1.351  2.0809  0.7911  0.4370
  482MOL0     H65067   2.472   3.151   1.489 -1.0138 -2.2764 -1.5563
  482MOL0     H65068   2.784   3.291   1.582  0.6324 -0.1064 -0.4543
  482MOL0     H65069   2.616   3.241   1.634  0.2320 -1.3532  1.0674
  482MOL0     H65070   2.748   3.126   1.634 -1.0019 -0.8456 -0.5595
  483MOL0     O65071   9.338   9.649   2.583 -0.4701  0.5835 -0.2682
  483MOL0     C65072   9.333   9.524   2.567 -0.7457 -0.4870 -0.3870
  483MOL0     O65073   9.439   9.439   2.566 -0.2257 -0.1681 -0.2730
  483MOL0     C65074   9.551   9.495   2.611 -0.3575 -0.2549 -0.1771
  483MOL0     C65075   9.595   9.467   2.745  0.3497 -0.4712 -0.4373
  483MOL0     C65076   9.713   9.512   2.794  0.6763 -0.6545 -0.5591
  483MOL0     C65077   9.801   9.586   2.706 -0.2869  0.2312 -0.5899
  483MOL0     O65078   9.932   9.618   2.741 -0.2091 -0.6082 -0.1838
  483MOL0     C65079   9.971   9.623   2.881 -0.3064  0.1836 -0.5151
  483MOL0     C65080  10.115   9.661   2.877  0.3876  0.0456  0.9982
  483MOL0     C65081  10.138   9.809   2.860  0.0612 -0.0358  0.7010
  483MOL0     C65082  10.122   9.855   2.705  1.1158  0.3280 -0.4008
  483MOL0     C65083  10.149  10.005   2.689  0.4534  1.1461  0.3636
  483MOL0     C65084  10.291  10.025   2.661 -0.7653  0.4113 -0.3176
  483MOL0     C65085  10.325   9.977   2.515 -0.1826 -0.3892  0.3807
  483MOL0     C65086  10.475   9.972   2.494 -0.3783  0.7791  0.0021
  483MOL0     N65087  10.541   9.872   2.579 -0.5073  0.2998 -0.9109
  483MOL0     C65088  10.562   9.737   2.547  0.5035 -0.1549 -0.6540
  483MOL0     C65089  10.671   9.705   2.611 -0.4865  0.0819 -1.0475
  483MOL0     C65090  10.736   9.564   2.623  0.2517 -0.6605 -0.2602
  483MOL0     C65091  10.831   9.547   2.507  0.4640  0.5687 -0.3587
  483MOL0     C65092  10.836   9.395   2.476  0.2450 -0.8200 -0.3602
  483MOL0     C65093  10.872   9.309   2.599 -0.6147  0.3831  0.7379
  483MOL0     O65094  10.919   9.183   2.554 -0.7644  0.0083 -0.7742
  483MOL0     C65095  10.828   9.087   2.580 -0.0369  0.0957 -0.5967
  483MOL0     C65096  10.747   9.024   2.487 -0.1165 -0.4345  0.9518
  483MOL0     C65097  10.678   8.909   2.527  0.1055 -0.2383  0.1668
  483MOL0     C65098  10.695   8.857   2.661  0.4169  0.5331 -0.0078
  483MOL0     C65099  10.620   8.731   2.702  0.0457  0.3044  0.1961
  483MOL0     O65100  10.522   8.678   2.617 -0.2834 -0.2838 -0.7247
  483MOL0     C65101  10.445   8.576   2.670 -0.4013  0.3510 -0.3907
  483MOL0     C65102  10.391   8.569   2.801  0.1924  0.4051 -0.3579
  483MOL0     C65103  10.305   8.476   2.842  0.2204 -0.6149 -0.3161
  483MOL0     C65104  10.266   8.372   2.759 -0.4683 -0.0520  0.3555
  483MOL0     O65105  10.180   8.270   2.797 -0.2697 -0.2635  0.4065
  483MOL0     C65106  10.149   8.246   2.935  0.4017 -0.5192  0.2276
  483MOL0     C65107  10.046   8.133   2.930  1.1068 -0.0861  0.0529
  483MOL0     C65108   9.951   8.149   3.049 -0.0512  0.1265 -0.4777
  483MOL0     C65109  10.028   8.109   3.179  0.0590 -0.1393  0.1738
  483MOL0     C65110   9.950   8.133   3.305 -0.2961 -0.8185  0.5632
  483MOL0     C65111   9.834   8.041   3.325 -0.1636  0.1800 -0.1949
  483MOL0     C65112   9.880   7.894   3.348 -0.3543 -0.2927 -0.2540
  483MOL0     C65113   9.776   7.808   3.425  0.4240  0.0085  0.3646
  483MOL0    Cl65114   9.841   7.658   3.482 -0.3127 -0.0778 -0.2454
  483MOL0     C65115  10.317   8.368   2.624  0.3271 -0.4626  0.6895
  483MOL0     C65116  10.407   8.471   2.589  0.6929 -0.2720  0.1172
  483MOL0     O65117  10.656   8.689   2.817 -0.0510  0.0094 -0.6565
  483MOL0     C65118  10.775   8.929   2.749  1.2923 -0.4708 -0.4075
  483MOL0     C65119  10.849   9.040   2.711  0.4844 -0.0999  0.4905
  483MOL0     N65120  10.712   9.813   2.691 -0.4752 -0.6414  0.9037
  483MOL0     N65121  10.635   9.908   2.674 -0.8960 -0.3014  0.1810
  483MOL0     C65122   9.761   9.609   2.571  0.8121 -0.6269  0.6674
  483MOL0     C65123   9.633   9.559   2.528  0.5509 -0.0803 -0.1351
  483MOL0     C65124   9.203   9.458   2.540  0.7061 -0.3777  0.6561
  483MOL0     C65125   9.090   9.533   2.574 -0.3886  0.0994  0.7110
  483MOL0     C65126   8.965   9.477   2.549 -0.2723  0.5314 -0.2174
  483MOL0     C65127   8.940   9.351   2.513  0.8413 -0.4605  0.5785
  483MOL0     O65128   8.814   9.307   2.494  0.1707 -0.1433  0.0868
  483MOL0     C65129   8.698   9.340   2.575 -0.3140 -0.1518  0.4791
  483MOL0     C65130   8.580   9.388   2.483  0.2311 -0.3112 -0.5083
  483MOL0     C65131   8.535   9.276   2.397  0.5879  0.1525  0.3575
  483MOL0     C65132   8.407   9.317   2.315 -1.0840 -0.3247  0.9033
  483MOL0     C65133   8.278   9.284   2.375  0.2852 -0.3172 -0.1935
  483MOL0     C65134   8.189   9.255   2.454  0.0157  0.2636  0.2413
  483MOL0     C65135   9.054   9.266   2.494  0.9172 -0.5589  0.6740
  483MOL0     C65136   9.182   9.317   2.505 -0.2727  1.0832  0.2603
  483MOL0     C65137   9.291   9.213   2.493 -0.7543 -0.6088 -0.1939
  483MOL0     H65138   9.536   9.403   2.810 -0.0485 -0.6352 -0.9437
  483MOL0     H65139   9.742   9.502   2.898 -0.0168  1.9214 -0.0508
  483MOL0     H65140   9.903   9.690   2.936 -1.6044  0.1997 -2.0542
  483MOL0     H65141   9.973   9.524   2.926  0.9539  1.0434  1.4285
  483MOL0     H65142  10.167   9.608   2.797  0.3231 -2.4985  2.5357
  483MOL0     H65143  10.153   9.622   2.973 -2.5777 -3.0477  1.1139
  483MOL0     H65144  10.237   9.830   2.901  1.3445 -2.4528 -0.9142
  483MOL0     H65145  10.066   9.862   2.923 -1.5325 -3.0832  1.6451
  483MOL0     H65146  10.189   9.790   2.647 -0.9255 -3.2498  0.9255
  483MOL0     H65147  10.020   9.838   2.668  2.0758 -0.7749 -2.7455
  483MOL0     H65148  10.095  10.045   2.603  0.9109 -0.4486 -0.7210
  483MOL0     H65149  10.123  10.045   2.788  2.9839  1.2668  1.0550
  483MOL0     H65150  10.310  10.133   2.662  0.4050  0.2331  1.3722
  483MOL0     H65151  10.356   9.991   2.742  1.6497  1.1177 -1.8333
  483MOL0     H65152  10.285  10.051   2.446  1.1934  0.0814  0.0579
  483MOL0     H65153  10.288   9.879   2.482  0.3534 -0.5176  0.1542
  483MOL0     H65154  10.490   9.958   2.387 -2.8898 -2.0591 -0.1146
  483MOL0     H65155  10.524  10.068   2.513  0.9004 -0.1653  1.8116
  483MOL0     H65156  10.513   9.675   2.472 -1.5414  1.6683 -0.9362
  483MOL0     H65157  10.792   9.552   2.716  0.5667 -0.6397 -0.4485
  483MOL0     H65158  10.662   9.484   2.629  1.1518 -1.9293 -3.7628
  483MOL0     H65159  10.803   9.597   2.414 -3.3737  1.6083  1.1479
  483MOL0     H65160  10.934   9.578   2.523  0.2117  2.0365 -1.4007
  483MOL0     H65161  10.914   9.384   2.400 -0.1161  1.5760 -1.1883
  483MOL0     H65162  10.740   9.369   2.430  0.2239 -2.7416  0.7017
  483MOL0     H65163  10.797   9.304   2.678 -0.4512 -0.1807  0.8611
  483MOL0     H65164  10.963   9.355   2.639 -0.4520  1.3896 -0.6667
  483MOL0     H65165  10.737   9.062   2.386 -0.5037 -0.4416  0.9876
  483MOL0     H65166  10.614   8.854   2.459  0.7949 -1.3152  0.3705
  483MOL0     H65167  10.424   8.647   2.869 -1.9862  1.2373 -0.1927
  483MOL0     H65168  10.263   8.492   2.941 -0.2986 -0.0404 -0.6212
  483MOL0     H65169  10.244   8.224   2.985  0.6153  0.3954  0.2395
  483MOL0     H65170  10.113   8.336   2.985  2.4816  1.0810 -0.9814
  483MOL0     H65171   9.984   8.148   2.841  0.8969  0.5081  0.2916
  483MOL0     H65172  10.089   8.033   2.923  1.9926  0.3952 -2.0252
  483MOL0     H65173   9.901   8.246   3.046  0.9089  0.6104 -1.1992
  483MOL0     H65174   9.862   8.085   3.048  0.4859 -0.8364  2.2464
  483MOL0     H65175  10.117   8.172   3.189  0.9213 -1.5558  1.9580
  483MOL0     H65176  10.058   8.004   3.175  0.1496 -0.1045 -0.0525
  483MOL0     H65177   9.926   8.240   3.297 -0.5295 -0.6820  2.6444
  483MOL0     H65178  10.010   8.126   3.396 -0.6748  0.5341  0.9392
  483MOL0     H65179   9.797   8.079   3.421  0.9349  0.3843  0.1631
  483MOL0     H65180   9.756   8.030   3.250 -0.9607 -0.8299  0.7500
  483MOL0     H65181   9.975   7.890   3.402 -0.4574 -0.1107 -0.0526
  483MOL0     H65182   9.903   7.853   3.250  2.7847  1.0489 -0.1879
  483MOL0     H65183   9.734   7.862   3.510  0.8578  3.4712 -1.4583
  483MOL0     H65184   9.686   7.800   3.364  0.1513  0.3496  0.7166
  483MOL0     H65185  10.284   8.290   2.556  0.7548  1.1597 -1.4858
  483MOL0     H65186  10.446   8.471   2.488  1.6255  0.5206  0.4711
  483MOL0     H65187  10.779   8.890   2.851  0.8901 -0.5450 -0.4172
  483MOL0     H65188  10.928   9.077   2.775  0.6003  0.4642  0.0319
  483MOL0     H65189   9.830   9.669   2.512  0.0774  0.9605  1.3624
  483MOL0     H65190   9.594   9.581   2.429 -1.7948  0.0540  0.7594
  483MOL0     H65191   9.096   9.635   2.613  1.7031  1.0814 -1.8721
  483MOL0     H65192   8.874   9.536   2.561 -0.0314  0.4846  2.4703
  483MOL0     H65193   8.716   9.416   2.652 -0.3175  0.2334  0.1010
  483MOL0     H65194   8.666   9.252   2.631  1.3423 -0.2895  1.2786
  483MOL0     H65195   8.617   9.470   2.420 -1.0453  0.6351 -0.0704
  483MOL0     H65196   8.496   9.434   2.536 -0.8412  0.8826 -3.0560
  483MOL0     H65197   8.522   9.184   2.454  0.8634  0.8206  1.5273
  483MOL0     H65198   8.618   9.267   2.327 -0.4495 -2.1731 -0.6938
  483MOL0     H65199   8.409   9.421   2.280 -2.6607 -0.6820 -0.3973
  483MOL0     H65200   8.408   9.264   2.219 -0.3491 -0.4809  0.9958
  483MOL0     H65201   8.102   9.242   2.516  0.9662 -2.0519  1.2418
  483MOL0     H65202   9.045   9.161   2.467  0.1845  0.0443 -1.6925
  483MOL0     H65203   9.254   9.131   2.430  0.0280  0.5104 -2.1986
  483MOL0     H65204   9.378   9.259   2.444 -0.8557 -0.0473  0.1525
  483MOL0     H65205   9.323   9.183   2.593  0.1893 -1.2774 -0.6805
  484MOL0     O65206   9.209   1.384   0.708  0.6704 -0.2903  0.4617
  484MOL0     C65207   9.178   1.330   0.812  0.2836 -0.3720 -0.0576
  484MOL0     O65208   9.265   1.261   0.887 -0.8517 -0.1993  0.7382
  484MOL0     C65209   9.399   1.274   0.859  0.2717  0.8664  0.7716
  484MOL0     C65210   9.463   1.396   0.831 -0.0494 -0.1153 -1.0495
  484MOL0     C65211   9.602   1.401   0.814 -0.2146 -0.5414  0.4240
  484MOL0     C65212   9.674   1.280   0.818 -0.1416  0.0874  0.0307
  484MOL0     O65213   9.810   1.251   0.814 -0.5479 -0.0346  0.5230
  484MOL0     C65214   9.907   1.344   0.752  1.0624  0.4593 -0.2830
  484MOL0     C65215  10.050   1.278   0.762 -0.0972 -0.8986  0.3678
  484MOL0     C65216  10.077   1.153   0.678 -0.0198 -0.9809 -0.1310
  484MOL0     C65217  10.040   1.025   0.745 -0.0294  0.8498 -0.2565
  484MOL0     C65218  10.076   0.914   0.655 -0.3401 -0.7393  0.2999
  484MOL0     C65219   9.974   0.905   0.533 -0.0788 -0.1605  0.0907
  484MOL0     C65220  10.027   0.808   0.425  0.1348  1.1385  0.0249
  484MOL0     C65221  10.164   0.825   0.360 -0.4261  0.6338 -0.3690
  484MOL0     N65222  10.182   0.957   0.296  0.3093 -0.5417  0.7024
  484MOL0     C65223  10.245   1.056   0.361  0.4421  0.2122 -0.7025
  484MOL0     C65224  10.225   1.162   0.281 -1.2825 -0.0056  0.3504
  484MOL0     C65225  10.310   1.286   0.292 -0.4161 -0.4415  0.1119
  484MOL0     C65226  10.426   1.302   0.188  0.5755  0.9078 -0.1674
  484MOL0     C65227  10.482   1.443   0.195  0.6789  0.4312 -0.2593
  484MOL0     C65228  10.591   1.470   0.093 -0.0825 -0.1403 -0.0748
  484MOL0     O65229  10.696   1.384   0.129  0.6321 -0.3374  0.1895
  484MOL0     C65230  10.812   1.384   0.061  0.3638  0.2801 -0.7732
  484MOL0     C65231  10.914   1.295   0.117  1.0865  0.2132  0.0366
  484MOL0     C65232  11.037   1.276   0.046 -0.2077  0.4121  0.1589
  484MOL0     C65233  11.062   1.342  -0.078 -1.1754  0.4371  0.1664
  484MOL0     C65234  11.197   1.332  -0.142 -0.5264  0.0761  0.6746
  484MOL0     O65235  11.241   1.430  -0.227  0.5352 -0.5883  0.1212
  484MOL0     C65236  11.371   1.434  -0.258 -0.1733 -0.1167  0.0502
  484MOL0     C65237  11.424   1.337  -0.343  0.2204  0.8354  0.3370
  484MOL0     C65238  11.557   1.343  -0.386  0.0051  0.2332 -0.2661
  484MOL0     C65239  11.648   1.442  -0.328  0.1476 -0.2139 -0.1403
  484MOL0     O65240  11.775   1.460  -0.377 -0.5542  0.2868  0.1611
  484MOL0     C65241  11.875   1.513  -0.282  0.1405 -0.7072  0.4094
  484MOL0     C65242  12.017   1.505  -0.349 -0.4126  0.6796  0.0413
  484MOL0     C65243  12.134   1.566  -0.253  0.7498  0.0109  0.4679
  484MOL0     C65244  12.273   1.551  -0.313 -0.6050 -0.1279 -0.1223
  484MOL0     C65245  12.386   1.601  -0.222  0.3356  0.1714 -0.0348
  484MOL0     C65246  12.516   1.604  -0.302 -0.1418 -0.8506 -0.2484
  484MOL0     C65247  12.618   1.688  -0.214 -0.1754  0.9338  0.1903
  484MOL0     C65248  12.746   1.696  -0.289  0.0330  0.0829 -0.3154
  484MOL0    Cl65249  12.822   1.540  -0.279 -0.0127  0.0333 -0.1623
  484MOL0     C65250  11.587   1.524  -0.230  0.1408  0.0891  0.0748
  484MOL0     C65251  11.454   1.519  -0.194 -0.2139 -0.1799 -0.1954
  484MOL0     O65252  11.247   1.223  -0.124 -0.8091 -0.5185 -0.3799
  484MOL0     C65253  10.962   1.425  -0.124  0.3169  0.4709 -1.0111
  484MOL0     C65254  10.839   1.443  -0.060 -0.2623 -0.0667  0.2006
  484MOL0     N65255  10.142   1.129   0.179 -0.2457  0.2211 -0.2474
  484MOL0     N65256  10.113   1.008   0.194 -0.2037  0.8817  0.7916
  484MOL0     C65257   9.604   1.159   0.843 -0.0422  0.6084 -0.3438
  484MOL0     C65258   9.469   1.151   0.861 -0.2684 -0.8001  0.2519
  484MOL0     C65259   9.036   1.318   0.842  0.2714 -0.1113 -0.8045
  484MOL0     C65260   8.951   1.412   0.780 -0.4941 -0.7998 -1.1863
  484MOL0     C65261   8.825   1.424   0.825 -0.2677  0.0792 -0.2422
  484MOL0     C65262   8.761   1.347   0.919  0.1265  0.5556 -0.5635
  484MOL0     O65263   8.631   1.387   0.949  0.4151  0.5659  0.3061
  484MOL0     C65264   8.551   1.294   1.015  0.6023 -0.5097 -0.5852
  484MOL0     C65265   8.401   1.333   0.998 -0.0167  0.6677 -0.7971
  484MOL0     C65266   8.353   1.444   1.094  0.0510  1.0702  0.5383
  484MOL0     C65267   8.198   1.476   1.088 -0.4316 -0.1552  0.6088
  484MOL0     C65268   8.166   1.545   0.963 -0.1650 -0.5026  0.1964
  484MOL0     C65269   8.130   1.605   0.864  0.7558 -0.9101 -0.6651
  484MOL0     C65270   8.837   1.247   0.976 -0.7026  0.4399  0.3923
  484MOL0     C65271   8.974   1.225   0.934 -0.8152  0.8905 -0.1714
  484MOL0     C65272   9.042   1.111   1.004 -1.1897 -0.3101  0.1322
  484MOL0     H65273   9.393   1.479   0.825 -0.2340 -0.3575 -2.7300
  484MOL0     H65274   9.650   1.497   0.798  1.7780 -1.3291  1.2386
  484MOL0     H65275   9.880   1.361   0.648 -4.0064 -1.2346  0.4715
  484MOL0     H65276   9.891   1.442   0.798 -0.3074  1.1563 -2.1350
  484MOL0     H65277  10.072   1.275   0.869  1.4073  1.6839  0.2429
  484MOL0     H65278  10.111   1.365   0.734  0.1586 -1.9046 -2.5336
  484MOL0     H65279  10.178   1.158   0.636 -0.9002 -1.5870 -2.4644
  484MOL0     H65280  10.018   1.154   0.586  1.5311 -1.7620 -1.1855
  484MOL0     H65281  10.107   1.019   0.832 -0.7334  2.3414  0.4286
  484MOL0     H65282   9.933   1.022   0.768 -0.0012  2.6906  0.2450
  484MOL0     H65283  10.177   0.927   0.614 -0.6739 -0.6316 -0.5031
  484MOL0     H65284  10.081   0.818   0.708 -0.1958 -1.4891 -1.0329
  484MOL0     H65285   9.875   0.878   0.572 -0.2096  1.1883  0.7413
  484MOL0     H65286   9.960   1.002   0.484  0.0489 -0.6653 -0.9821
  484MOL0     H65287   9.950   0.787   0.350 -2.0759 -0.0316  2.4529
  484MOL0     H65288  10.047   0.714   0.478  0.0673  0.1298 -1.6905
  484MOL0     H65289  10.246   0.810   0.430  1.7666  0.3707 -2.8163
  484MOL0     H65290  10.179   0.753   0.279 -0.9714 -1.0161  0.9341
  484MOL0     H65291  10.304   1.043   0.451  0.1021 -0.7823 -0.6037
  484MOL0     H65292  10.245   1.374   0.288 -0.5441 -0.5721 -1.2710
  484MOL0     H65293  10.364   1.284   0.387  2.5175 -3.0878 -1.4031
  484MOL0     H65294  10.498   1.223   0.207 -0.7620 -0.0465  1.1813
  484MOL0     H65295  10.390   1.283   0.086  2.2446 -0.6709 -0.5156
  484MOL0     H65296  10.527   1.450   0.294  1.8647 -0.5955 -0.7021
  484MOL0     H65297  10.402   1.517   0.191  0.9297  0.8375  1.3769
  484MOL0     H65298  10.619   1.576   0.098 -2.2931  0.4773  0.3981
  484MOL0     H65299  10.559   1.456  -0.011 -1.7623 -0.4216  0.4581
  484MOL0     H65300  10.892   1.256   0.216 -2.1160  2.5127  0.4075
  484MOL0     H65301  11.119   1.216   0.085 -1.1842 -0.2858  1.1907
  484MOL0     H65302  11.364   1.257  -0.385  0.1059  1.1926 -0.2013
  484MOL0     H65303  11.601   1.273  -0.456  0.3153 -0.2951  0.4437
  484MOL0     H65304  11.860   1.615  -0.248 -0.7233 -0.7623  0.2251
  484MOL0     H65305  11.875   1.440  -0.200  2.7977 -0.8326  0.3948
  484MOL0     H65306  12.029   1.400  -0.373 -3.9898 -0.2924  1.8117
  484MOL0     H65307  12.021   1.570  -0.437  1.1274 -0.2550 -0.6220
  484MOL0     H65308  12.114   1.672  -0.232  0.1676 -0.0573  0.2635
  484MOL0     H65309  12.127   1.505  -0.162 -1.9746 -2.6823 -1.3650
  484MOL0     H65310  12.275   1.608  -0.407 -0.2826  1.8668  1.0311
  484MOL0     H65311  12.292   1.444  -0.326 -0.2708  0.1051 -1.7973
  484MOL0     H65312  12.394   1.532  -0.137 -0.1385  0.8262  0.5621
  484MOL0     H65313  12.361   1.697  -0.176 -1.6558  0.0204 -0.6793
  484MOL0     H65314  12.557   1.505  -0.326  0.2052 -0.4218 -1.4821
  484MOL0     H65315  12.497   1.648  -0.400 -3.4962  1.5283  1.2580
  484MOL0     H65316  12.644   1.635  -0.122 -0.0364 -1.2792 -1.0300
  484MOL0     H65317  12.588   1.788  -0.182 -2.6310 -0.0314  1.1201
  484MOL0     H65318  12.739   1.734  -0.391 -0.5462 -1.3244 -0.8286
  484MOL0     H65319  12.805   1.769  -0.232  1.1198  0.0457 -1.3618
  484MOL0     H65320  11.640   1.608  -0.186  0.4490 -0.1355  0.1299
  484MOL0     H65321  11.404   1.582  -0.122 -0.5978 -1.3313  0.5742
  484MOL0     H65322  10.974   1.485  -0.214  2.2158  1.8414  0.0886
  484MOL0     H65323  10.764   1.500  -0.115 -0.2130 -1.6377 -1.5939
  484MOL0     H65324   9.667   1.071   0.846 -0.1172  0.4269 -2.3884
  484MOL0     H65325   9.416   1.062   0.895  0.2296 -0.6243  1.5368
  484MOL0     H65326   8.980   1.469   0.692 -1.4841 -0.1801 -1.1202
  484MOL0     H65327   8.766   1.502   0.776  3.3164  3.5178  0.4081
  484MOL0     H65328   8.576   1.278   1.120  1.3792  0.5096 -0.6010
  484MOL0     H65329   8.566   1.198   0.964  0.3027  0.3914 -2.4453
  484MOL0     H65330   8.343   1.242   1.021 -0.2364  0.6401 -1.4428
  484MOL0     H65331   8.391   1.364   0.893 -0.2957  0.1291 -0.9348
  484MOL0     H65332   8.406   1.537   1.074  0.3654  1.0250  1.1377
  484MOL0     H65333   8.386   1.408   1.192 -2.1653 -1.0415  0.6062
  484MOL0     H65334   8.137   1.386   1.104  1.9698 -2.0274 -0.2327
  484MOL0     H65335   8.164   1.536   1.173 -2.9250  1.2107 -1.2113
  484MOL0     H65336   8.087   1.654   0.779 -0.4327 -1.9985 -0.7252
  484MOL0     H65337   8.799   1.173   1.046  1.7072 -1.5439 -0.2370
  484MOL0     H65338   8.974   1.027   1.021  1.0596 -1.9960  1.3419
  484MOL0     H65339   9.117   1.072   0.934  0.8239 -1.1909  2.6545
  484MOL0     H65340   9.087   1.141   1.099 -0.6868 -1.9503  0.4388
  485MOL0     O65341   9.093   6.168   2.522  0.0911  0.5978  1.0696
  485MOL0     C65342   9.019   6.251   2.476 -0.3544 -0.3206 -0.8712
  485MOL0     O65343   9.058   6.377   2.447 -0.0804  0.7346  0.0991
  485MOL0     C65344   9.189   6.412   2.472  0.2547  0.2014  0.4503
  485MOL0     C65345   9.218   6.480   2.588  0.6555 -0.2451 -0.8422
  485MOL0     C65346   9.345   6.506   2.627 -0.6074 -0.3643 -0.1308
  485MOL0     C65347   9.451   6.480   2.541 -0.0770  0.7707 -0.0682
  485MOL0     O65348   9.581   6.496   2.593  0.6050  0.4197  0.0237
  485MOL0     C65349   9.683   6.505   2.495 -1.4638 -0.0835 -0.4241
  485MOL0     C65350   9.782   6.594   2.558  1.3298 -0.3899  0.4697
  485MOL0     C65351   9.911   6.570   2.485  0.2458 -0.3707 -0.2905
  485MOL0     C65352  10.033   6.652   2.525 -0.4070 -0.1509  0.5049
  485MOL0     C65353  10.158   6.584   2.477  0.3037  0.5156 -0.0146
  485MOL0     C65354  10.288   6.668   2.521  0.6866 -0.0001 -1.0255
  485MOL0     C65355  10.418   6.593   2.492 -0.1089  0.0684  0.5408
  485MOL0     C65356  10.469   6.609   2.357  0.7588 -0.1763 -0.6858
  485MOL0     N65357  10.594   6.523   2.349 -0.3131 -0.0996 -0.3854
  485MOL0     C65358  10.715   6.576   2.319 -0.5924  0.0782  0.2186
  485MOL0     C65359  10.793   6.466   2.318  0.2638  0.2288 -0.5555
  485MOL0     C65360  10.942   6.466   2.326 -1.3513 -0.5300 -0.3893
  485MOL0     C65361  11.007   6.363   2.228  0.9001  0.5352  0.7037
  485MOL0     C65362  11.148   6.388   2.187 -0.0392  1.3658  0.6483
  485MOL0     C65363  11.236   6.397   2.304  0.0820  0.4055  0.2649
  485MOL0     O65364  11.251   6.541   2.315  0.0815 -0.5329 -0.2017
  485MOL0     C65365  11.386   6.585   2.315 -0.0996  0.9566 -1.0700
  485MOL0     C65366  11.426   6.679   2.216  0.6210 -0.4697 -0.8662
  485MOL0     C65367  11.553   6.736   2.222  0.5715  0.9092 -1.0539
  485MOL0     C65368  11.641   6.701   2.325 -0.5002 -0.2752  0.0432
  485MOL0     C65369  11.773   6.771   2.348 -0.2570  0.3183 -0.0482
  485MOL0     O65370  11.802   6.880   2.266 -0.1917 -0.7620  0.2282
  485MOL0     C65371  11.900   6.971   2.298  0.4463  0.2364  0.4996
  485MOL0     C65372  11.855   7.093   2.337  0.5813 -0.6822 -0.5421
  485MOL0     C65373  11.942   7.199   2.363  0.9151  0.8965 -0.2456
  485MOL0     C65374  12.083   7.173   2.360  0.2941 -0.0938  0.7889
  485MOL0     O65375  12.165   7.275   2.401 -0.9775  0.7376  0.6234
  485MOL0     C65376  12.300   7.299   2.337  0.0417  0.5407  1.0289
  485MOL0     C65377  12.394   7.369   2.426  0.4525  0.1250 -0.1842
  485MOL0     C65378  12.441   7.274   2.539 -0.1817 -0.3269 -0.0043
  485MOL0     C65379  12.526   7.358   2.633  0.3500  0.9473 -0.2174
  485MOL0     C65380  12.554   7.295   2.775 -0.2731  0.4013 -0.3409
  485MOL0     C65381  12.644   7.171   2.769 -0.6890 -0.1698 -0.4099
  485MOL0     C65382  12.780   7.198   2.698 -0.2377  0.5680  0.3935
  485MOL0     C65383  12.875   7.079   2.724 -0.1801 -0.0740  0.4455
  485MOL0    Cl65384  13.042   7.130   2.694  0.4649 -0.3041  0.2032
  485MOL0     C65385  12.123   7.042   2.320  0.4641 -0.0797 -0.2961
  485MOL0     C65386  12.036   6.943   2.282 -0.4128 -0.1781  0.7980
  485MOL0     O65387  11.849   6.727   2.437  0.4427 -0.5632 -0.3499
  485MOL0     C65388  11.604   6.599   2.419  0.3247  0.1283 -0.0122
  485MOL0     C65389  11.477   6.542   2.413 -0.3225 -0.2090 -0.4514
  485MOL0     N65390  10.721   6.352   2.352  0.5700 -0.0811 -0.4438
  485MOL0     N65391  10.593   6.386   2.369 -0.5723  0.0780 -0.1103
  485MOL0     C65392   9.424   6.413   2.423  0.3581 -0.5433 -0.4318
  485MOL0     C65393   9.290   6.381   2.386 -0.5743 -0.0695  0.4900
  485MOL0     C65394   8.886   6.217   2.432  0.7795  0.5177  0.0984
  485MOL0     C65395   8.824   6.308   2.349 -0.5283  0.9749 -0.3138
  485MOL0     C65396   8.699   6.286   2.305  0.4250  0.6725  0.4225
  485MOL0     C65397   8.630   6.164   2.336  0.1123 -0.4247 -0.2397
  485MOL0     O65398   8.498   6.152   2.284  0.3338 -0.1350 -0.1188
  485MOL0     C65399   8.410   6.039   2.315  0.1744 -0.7566 -0.3665
  485MOL0     C65400   8.273   6.066   2.241  0.3346  0.7010  0.3920
  485MOL0     C65401   8.169   5.958   2.288  0.0293 -0.9326  0.5133
  485MOL0     C65402   8.041   5.974   2.199  0.3085  0.1830  0.2120
  485MOL0     C65403   7.969   6.101   2.234 -0.2179  0.6064  0.0306
  485MOL0     C65404   7.894   6.190   2.270  0.1051 -0.1382  0.2329
  485MOL0     C65405   8.696   6.069   2.412 -0.3293  0.5132 -0.5975
  485MOL0     C65406   8.813   6.098   2.464 -1.0407 -0.5631 -0.2040
  485MOL0     C65407   8.858   5.995   2.570  0.1976  0.5139 -0.3095
  485MOL0     H65408   9.140   6.507   2.659  1.0284  3.2849 -1.5773
  485MOL0     H65409   9.355   6.544   2.729 -0.7126  1.7199 -0.8408
  485MOL0     H65410   9.735   6.410   2.484 -0.4271  0.1828  1.7034
  485MOL0     H65411   9.645   6.547   2.401 -2.1190 -2.6354 -1.3769
  485MOL0     H65412   9.786   6.582   2.667  1.2375  0.7976  0.6148
  485MOL0     H65413   9.750   6.698   2.550 -1.1755 -0.8856  2.7152
  485MOL0     H65414   9.902   6.589   2.378 -1.0466  2.4972  0.2237
  485MOL0     H65415   9.932   6.465   2.509 -0.2814 -0.3753  0.1866
  485MOL0     H65416  10.024   6.755   2.487 -2.9042 -0.9770 -1.4190
  485MOL0     H65417  10.042   6.652   2.634 -1.7644 -1.2648  0.6325
  485MOL0     H65418  10.164   6.484   2.520  0.2221  0.7884  0.6510
  485MOL0     H65419  10.156   6.573   2.368  0.8070 -4.0512  0.2646
  485MOL0     H65420  10.282   6.765   2.470 -1.0118  0.2127 -0.4499
  485MOL0     H65421  10.283   6.694   2.627  0.1779 -2.1584 -0.4764
  485MOL0     H65422  10.402   6.486   2.508 -3.6305 -0.2771 -3.6844
  485MOL0     H65423  10.499   6.626   2.559  0.9999  1.8078 -1.5465
  485MOL0     H65424  10.402   6.560   2.286 -1.0047  0.1601  0.6786
  485MOL0     H65425  10.494   6.712   2.332  2.0839 -0.1310  0.6505
  485MOL0     H65426  10.739   6.682   2.317 -4.2132  1.0917  1.8174
  485MOL0     H65427  10.975   6.568   2.303  0.3248 -1.0209 -0.3009
  485MOL0     H65428  10.970   6.451   2.431 -1.9280  0.5134 -0.0766
  485MOL0     H65429  10.998   6.258   2.260 -4.7506 -0.4373 -2.7184
  485MOL0     H65430  10.945   6.374   2.138  0.1268  0.6155  1.2367
  485MOL0     H65431  11.149   6.470   2.115  2.8906 -1.1160 -2.4173
  485MOL0     H65432  11.173   6.294   2.138  0.2584  1.3686  0.7918
  485MOL0     H65433  11.333   6.346   2.297 -0.4035 -0.9340  2.3302
  485MOL0     H65434  11.193   6.358   2.396  0.3715  0.9140  0.6229
  485MOL0     H65435  11.357   6.700   2.134 -1.1212  0.6040  0.7877
  485MOL0     H65436  11.585   6.816   2.156 -1.2444  1.0299 -1.8593
  485MOL0     H65437  11.748   7.100   2.351  0.6636 -0.3306 -0.0376
  485MOL0     H65438  11.896   7.287   2.406  1.1401  0.2472  1.3980
  485MOL0     H65439  12.341   7.201   2.311 -0.8678  0.1309  1.0926
  485MOL0     H65440  12.286   7.347   2.240  1.9898 -1.4728 -0.3545
  485MOL0     H65441  12.484   7.401   2.374 -0.4606  1.2349 -1.1204
  485MOL0     H65442  12.345   7.455   2.472 -0.5885 -1.1069  1.1215
  485MOL0     H65443  12.350   7.235   2.585 -0.2295  1.5157  1.5952
  485MOL0     H65444  12.497   7.189   2.499 -0.7514 -0.8357  0.2560
  485MOL0     H65445  12.470   7.450   2.655 -0.2240  0.5689 -0.0540
  485MOL0     H65446  12.617   7.375   2.575 -0.3735  0.5476 -1.5032
  485MOL0     H65447  12.461   7.273   2.828  0.2911  0.2928  0.6267
  485MOL0     H65448  12.598   7.372   2.839 -1.8005 -0.6999  2.1893
  485MOL0     H65449  12.672   7.147   2.872 -1.6423  3.0827  0.7210
  485MOL0     H65450  12.596   7.081   2.730 -0.7865  0.5206 -1.9566
  485MOL0     H65451  12.824   7.294   2.725  1.4198 -0.0224 -0.0439
  485MOL0     H65452  12.765   7.197   2.590  1.1318  0.0910  0.1796
  485MOL0     H65453  12.863   7.046   2.827 -0.5013 -0.8033  0.1838
  485MOL0     H65454  12.837   6.997   2.662 -2.6154  0.0964  1.6032
  485MOL0     H65455  12.231   7.036   2.321  0.6321  1.9571 -1.1237
  485MOL0     H65456  12.058   6.845   2.242 -1.8458  0.1598 -0.9371
  485MOL0     H65457  11.668   6.575   2.503  0.8021 -2.4923 -1.0324
  485MOL0     H65458  11.441   6.475   2.490  0.1321  1.3059  1.1589
  485MOL0     H65459   9.506   6.395   2.353  0.3145  1.8467 -1.1875
  485MOL0     H65460   9.271   6.322   2.297 -0.8197 -0.0807  0.5490
  485MOL0     H65461   8.881   6.396   2.323  1.6184 -0.3290 -0.2862
  485MOL0     H65462   8.628   6.351   2.255 -1.3682 -1.5633 -0.1247
  485MOL0     H65463   8.401   6.025   2.423 -0.8086 -2.6428 -0.6426
  485MOL0     H65464   8.453   5.948   2.274  0.4480  0.1323 -2.1545
  485MOL0     H65465   8.297   6.054   2.135 -0.0113 -1.1524  0.4899
  485MOL0     H65466   8.229   6.166   2.248  1.1744  1.1861 -0.7323
  485MOL0     H65467   8.141   5.981   2.392 -0.8288 -1.1218  0.3372
  485MOL0     H65468   8.216   5.861   2.273 -0.1796 -1.5491  3.2452
  485MOL0     H65469   8.077   5.976   2.096  2.5051 -0.5569  0.9051
  485MOL0     H65470   7.973   5.892   2.225  0.5659 -0.9804 -2.5104
  485MOL0     H65471   7.830   6.273   2.292  1.7035  1.5616 -1.1983
  485MOL0     H65472   8.646   5.977   2.443 -0.3466  0.3262 -1.1612
  485MOL0     H65473   8.776   5.924   2.585 -1.7849  3.2094  3.1742
  485MOL0     H65474   8.952   5.947   2.544 -0.5443 -1.2819  0.1762
  485MOL0     H65475   8.863   6.050   2.664  1.2667 -1.7550  1.0331
  486MOL0     O65476   9.504   9.541   9.693  0.1204  0.0081 -0.6459
  486MOL0     C65477   9.446   9.449   9.639 -0.3398  0.3688  0.1993
  486MOL0     O65478   9.509   9.334   9.580  0.3796 -0.2929  0.0116
  486MOL0     C65479   9.643   9.329   9.612 -0.0955  0.9196  1.1356
  486MOL0     C65480   9.738   9.411   9.556 -0.3408 -0.1450 -0.1770
  486MOL0     C65481   9.865   9.398   9.601  0.0876 -0.6744  0.0618
  486MOL0     C65482   9.909   9.316   9.708 -0.3537 -0.4524  0.1945
  486MOL0     O65483  10.038   9.348   9.745  0.2237 -0.4853  0.0424
  486MOL0     C65484  10.112   9.252   9.812 -0.7257 -0.4570  0.9294
  486MOL0     C65485  10.131   9.120   9.737  0.4760 -0.2531 -1.0361
  486MOL0     C65486  10.245   9.040   9.791 -1.0881 -0.4169  0.1299
  486MOL0     C65487  10.382   9.100   9.789 -0.1209 -0.5859 -1.0900
  486MOL0     C65488  10.506   9.007   9.775  1.0792 -0.0163 -0.7376
  486MOL0     C65489  10.640   9.066   9.789 -0.3907 -0.6755  0.0294
  486MOL0     C65490  10.705   9.104   9.648  0.7068  0.7503  0.0670
  486MOL0     C65491  10.816   9.196   9.676 -0.3103 -0.6876 -0.7399
  486MOL0     N65492  10.893   9.259   9.564  0.0060  0.0551  0.3929
  486MOL0     C65493  11.014   9.228   9.509 -0.5802 -0.1573 -0.1538
  486MOL0     C65494  11.032   9.322   9.414 -0.3720 -0.4125 -0.1853
  486MOL0     C65495  11.146   9.325   9.323  0.2356 -0.2924 -0.2277
  486MOL0     C65496  11.275   9.376   9.382  0.4192  0.1439 -0.8750
  486MOL0     C65497  11.391   9.418   9.285 -0.0065 -0.3349 -0.5684
  486MOL0     C65498  11.445   9.566   9.305  0.5085 -0.1456  0.0265
  486MOL0     O65499  11.558   9.574   9.394 -0.2245 -0.3477 -0.2652
  486MOL0     C65500  11.689   9.555   9.367 -0.0213 -0.0306  0.5075
  486MOL0     C65501  11.733   9.539   9.240  0.1276  0.6010 -0.0074
  486MOL0     C65502  11.869   9.525   9.199  1.4644  0.0950  0.2066
  486MOL0     C65503  11.964   9.540   9.298 -0.6937  0.5463 -0.2233
  486MOL0     C65504  12.107   9.544   9.263 -0.3329 -0.9178 -0.3892
  486MOL0     O65505  12.138   9.567   9.135  0.1176 -0.4531 -0.2069
  486MOL0     C65506  12.261   9.616   9.102 -0.2836  0.0616  0.3470
  486MOL0     C65507  12.261   9.749   9.063 -0.1106  0.4947 -0.8016
  486MOL0     C65508  12.382   9.790   9.011  0.0144 -0.4852  0.9586
  486MOL0     C65509  12.496   9.714   9.004 -0.1994  0.4855  0.0688
  486MOL0     O65510  12.612   9.762   8.938 -0.1823 -0.1596 -0.2370
  486MOL0     C65511  12.736   9.713   8.981 -0.3949  0.1131  0.4034
  486MOL0     C65512  12.847   9.783   8.898 -0.1383  0.3447  0.1176
  486MOL0     C65513  12.917   9.901   8.970  0.3095  0.3710  0.2105
  486MOL0     C65514  12.991   9.976   8.871 -0.5787  0.1551 -0.5817
  486MOL0     C65515  13.092  10.076   8.924  0.6086  0.5201  0.2763
  486MOL0     C65516  13.230  10.015   8.968 -0.6282 -1.1022 -0.6592
  486MOL0     C65517  13.306   9.954   8.851 -0.3586  0.1013  0.0554
  486MOL0     C65518  13.410   9.847   8.898 -0.2725  0.5137  0.1446
  486MOL0    Cl65519  13.322   9.702   8.977 -0.2521 -0.0859  0.2476
  486MOL0     C65520  12.491   9.583   9.047  0.8366 -0.2032  0.7673
  486MOL0     C65521  12.381   9.536   9.107  0.7022 -0.6857 -0.6188
  486MOL0     O65522  12.193   9.537   9.353  0.3451  0.0567 -0.3944
  486MOL0     C65523  11.920   9.553   9.429 -0.7803 -0.0865 -0.4116
  486MOL0     C65524  11.784   9.558   9.462  0.0401  0.0417  0.1542
  486MOL0     N65525  10.917   9.398   9.402 -0.3566  1.2328  0.0360
  486MOL0     N65526  10.834   9.361   9.493  0.0076 -0.2360  0.5552
  486MOL0     C65527   9.821   9.228   9.755 -0.6140  0.3955  0.8280
  486MOL0     C65528   9.690   9.226   9.708  0.1083  0.4178  0.5930
  486MOL0     C65529   9.300   9.463   9.622 -0.4235 -0.2104  0.6718
  486MOL0     C65530   9.242   9.591   9.647 -0.2346 -0.3291 -1.1550
  486MOL0     C65531   9.115   9.618   9.616 -0.5574 -0.3870 -0.3244
  486MOL0     C65532   9.027   9.524   9.575 -0.3551  0.0600 -0.0636
  486MOL0     O65533   8.902   9.573   9.544 -0.5761  0.1805 -0.5551
  486MOL0     C65534   8.803   9.487   9.494  0.2149  0.6993  0.2346
  486MOL0     C65535   8.696   9.582   9.449  0.8500 -0.0798  0.0619
  486MOL0     C65536   8.572   9.521   9.394  0.0820 -0.1606  0.0716
  486MOL0     C65537   8.596   9.431   9.277 -0.2874  0.0415  0.2642
  486MOL0     C65538   8.655   9.497   9.168  0.1822  0.3908 -0.8847
  486MOL0     C65539   8.685   9.544   9.067 -0.0979  0.2720  0.7093
  486MOL0     C65540   9.069   9.390   9.566 -0.8626 -0.0897  0.8002
  486MOL0     C65541   9.207   9.357   9.599  0.3406  0.0024 -0.0082
  486MOL0     C65542   9.253   9.208   9.596  0.0662  0.2342  0.4593
  486MOL0     H65543   9.712   9.492   9.489 -2.6702  0.1017  0.9028
  486MOL0     H65544   9.940   9.469   9.568 -1.3652  1.6148  1.4479
  486MOL0     H65545  10.212   9.292   9.827 -0.0083 -1.0546 -1.7356
  486MOL0     H65546  10.066   9.237   9.911  0.7042  1.9671  2.0439
  486MOL0     H65547  10.149   9.136   9.630  0.8453 -0.2516 -0.9736
  486MOL0     H65548  10.038   9.063   9.751  0.6816 -0.7406 -1.6032
  486MOL0     H65549  10.267   8.944   9.743  1.9432 -1.0792  2.5238
  486MOL0     H65550  10.214   9.014   9.892 -1.6124  0.8263  0.3083
  486MOL0     H65551  10.388   9.168   9.704  1.6576  1.7038  0.7491
  486MOL0     H65552  10.384   9.165   9.877  1.4563 -1.5897 -0.3521
  486MOL0     H65553  10.489   8.930   9.850  2.1350 -1.3315 -1.8018
  486MOL0     H65554  10.499   8.954   9.679  1.7115 -0.3561 -0.5955
  486MOL0     H65555  10.640   9.147   9.862  3.4827 -0.7984  0.3705
  486MOL0     H65556  10.692   8.977   9.829 -4.4594 -3.3682 -0.0888
  486MOL0     H65557  10.632   9.151   9.581 -1.8136 -2.7539  0.0813
  486MOL0     H65558  10.734   9.008   9.606  1.7225  0.4670  1.3637
  486MOL0     H65559  10.782   9.273   9.746  2.5115 -1.1010  1.2790
  486MOL0     H65560  10.887   9.140   9.737  1.2009  1.4092 -0.4504
  486MOL0     H65561  11.074   9.141   9.532  1.5677  1.2283 -0.2854
  486MOL0     H65562  11.157   9.224   9.283  0.2442 -1.1393  1.8029
  486MOL0     H65563  11.124   9.391   9.238 -0.9232  0.4435  0.6173
  486MOL0     H65564  11.255   9.455   9.455  1.4917 -1.1494  0.8908
  486MOL0     H65565  11.310   9.297   9.449  2.3726  0.3963 -1.5161
  486MOL0     H65566  11.354   9.405   9.183  0.6391 -1.3321 -0.6929
  486MOL0     H65567  11.475   9.352   9.308 -0.8375 -1.0776  0.4175
  486MOL0     H65568  11.360   9.617   9.351  3.4077  1.5706  4.0090
  486MOL0     H65569  11.465   9.621   9.213 -3.1616  1.4249 -0.0079
  486MOL0     H65570  11.665   9.528   9.156 -0.1314  1.4959  0.0826
  486MOL0     H65571  11.899   9.517   9.095  0.5522  0.7332 -0.1125
  486MOL0     H65572  12.166   9.800   9.063 -1.2266 -1.4772 -0.3362
  486MOL0     H65573  12.373   9.884   8.958 -2.0666 -1.2163 -0.1038
  486MOL0     H65574  12.755   9.733   9.087 -1.0018  0.5980  0.4243
  486MOL0     H65575  12.732   9.606   8.956 -0.3891  0.1973  0.0388
  486MOL0     H65576  12.919   9.708   8.865 -2.0021 -0.3012 -2.9286
  486MOL0     H65577  12.810   9.813   8.800  2.4086  0.4500 -0.8760
  486MOL0     H65578  12.849   9.963   9.030 -0.0334 -0.9874  1.2871
  486MOL0     H65579  12.990   9.861   9.041  1.7782 -1.2501 -2.0828
  486MOL0     H65580  12.911  10.028   8.817  0.9131  1.9225 -1.2014
  486MOL0     H65581  13.037   9.905   8.802  0.3628 -2.2910  2.3592
  486MOL0     H65582  13.033  10.119   9.005 -2.6501 -2.5697 -0.2181
  486MOL0     H65583  13.113  10.148   8.844 -1.2306 -0.1999 -0.9011
  486MOL0     H65584  13.301  10.087   9.009  1.3370 -3.8096  0.9855
  486MOL0     H65585  13.205   9.944   9.048  1.2548 -0.6991  0.3346
  486MOL0     H65586  13.360  10.039   8.808 -1.9503  0.5447 -1.2028
  486MOL0     H65587  13.237   9.912   8.777  0.6503 -2.3058  0.3864
  486MOL0     H65588  13.464   9.803   8.814 -1.1272  1.1154 -0.7490
  486MOL0     H65589  13.473   9.881   8.981 -0.6579 -1.1198  1.1637
  486MOL0     H65590  12.571   9.510   9.043  2.6250  1.7168 -2.2966
  486MOL0     H65591  12.369   9.435   9.144  1.3652 -1.2417 -1.8697
  486MOL0     H65592  12.003   9.565   9.498 -0.8346  0.5835 -0.4487
  486MOL0     H65593  11.750   9.553   9.565 -1.9896 -0.3120 -0.4912
  486MOL0     H65594   9.854   9.158   9.831  1.1776 -2.0096 -1.9152
  486MOL0     H65595   9.622   9.155   9.753  1.1728  0.6107  2.6171
  486MOL0     H65596   9.299   9.670   9.695 -0.3152 -1.6715  1.3286
  486MOL0     H65597   9.067   9.709   9.650 -0.6791  0.4153 -2.5158
  486MOL0     H65598   8.776   9.415   9.572  1.0654  1.3165  1.1205
  486MOL0     H65599   8.843   9.428   9.412 -0.4557  2.4404 -1.4186
  486MOL0     H65600   8.738   9.650   9.374 -2.3517  2.6883  0.5335
  486MOL0     H65601   8.663   9.634   9.540  1.3175 -2.7569  1.8878
  486MOL0     H65602   8.504   9.602   9.366 -1.3559 -1.7558 -1.3547
  486MOL0     H65603   8.529   9.465   9.477 -0.1404 -1.3961 -0.8392
  486MOL0     H65604   8.661   9.351   9.313 -1.5029  0.5223  3.9778
  486MOL0     H65605   8.505   9.377   9.248 -0.3309 -0.6245  1.5636
  486MOL0     H65606   8.717   9.563   8.967  0.2109 -3.2710 -0.0170
  486MOL0     H65607   9.001   9.309   9.542 -0.2806 -0.5437  0.6543
  486MOL0     H65608   9.320   9.183   9.679 -0.6033 -3.4960  0.0513
  486MOL0     H65609   9.166   9.141   9.591  0.7900 -0.7764  1.0286
  486MOL0     H65610   9.305   9.181   9.503 -0.1489  0.2478  0.3354
  487MOL0     O65611   7.548   9.865   0.173 -0.8097  0.5332  0.3454
  487MOL0     C65612   7.557   9.930   0.273 -0.0273 -1.2375 -0.0149
  487MOL0     O65613   7.645   9.910   0.379 -0.1924 -0.8570  0.5968
  487MOL0     C65614   7.762   9.852   0.352  0.5187 -0.3944  0.3001
  487MOL0     C65615   7.855   9.897   0.266  0.8178 -0.4934 -0.2219
  487MOL0     C65616   7.980   9.841   0.264  0.3011 -1.1285  0.3551
  487MOL0     C65617   8.008   9.729   0.341 -0.4179  0.0019 -0.1972
  487MOL0     O65618   8.134   9.669   0.318 -0.6383  0.5844 -0.1329
  487MOL0     C65619   8.167   9.545   0.390  0.5868 -0.0017 -0.1158
  487MOL0     C65620   8.240   9.565   0.533 -0.2598 -0.1245  1.0151
  487MOL0     C65621   8.275   9.421   0.585  0.5790 -0.6096 -0.9768
  487MOL0     C65622   8.374   9.430   0.695  0.3133 -0.1441 -0.2581
  487MOL0     C65623   8.511   9.447   0.642  0.1454  0.3513  0.6406
  487MOL0     C65624   8.599   9.476   0.767 -0.7041  0.3675 -0.3279
  487MOL0     C65625   8.746   9.487   0.729  0.1012 -0.1247  0.0515
  487MOL0     C65626   8.830   9.474   0.860 -0.0211 -0.0354  0.7515
  487MOL0     N65627   8.964   9.501   0.815 -0.2662  0.0224 -0.1676
  487MOL0     C65628   9.021   9.614   0.758  0.5895 -0.4273  0.0058
  487MOL0     C65629   9.146   9.573   0.726  0.1130  0.1884 -0.1238
  487MOL0     C65630   9.253   9.657   0.669  0.2962 -0.5043 -0.0211
  487MOL0     C65631   9.215   9.741   0.549  0.2244 -0.2358 -0.1843
  487MOL0     C65632   9.199   9.659   0.424 -0.3053 -0.3931  0.6133
  487MOL0     C65633   9.123   9.734   0.306 -0.3056  0.0367 -0.4030
  487MOL0     O65634   8.991   9.785   0.351 -0.9357 -0.0868 -0.2606
  487MOL0     C65635   8.889   9.813   0.260 -0.7689  0.3965  0.4656
  487MOL0     C65636   8.762   9.837   0.307  0.4515  0.0569  0.5439
  487MOL0     C65637   8.662   9.874   0.221 -0.1662  0.0047  1.1703
  487MOL0     C65638   8.686   9.897   0.079  0.0245  0.5656 -0.2025
  487MOL0     C65639   8.583   9.930  -0.023  0.1251  0.7719  0.6043
  487MOL0     O65640   8.453   9.897   0.006 -0.4578  0.4294 -0.4670
  487MOL0     C65641   8.359   9.961  -0.067  0.3314  0.1283 -0.1149
  487MOL0     C65642   8.303   9.922  -0.188 -0.4437  0.3284 -0.1664
  487MOL0     C65643   8.225  10.007  -0.266  0.3094  0.2760  0.3666
  487MOL0     C65644   8.187  10.130  -0.218  0.3310 -0.5214 -0.8408
  487MOL0     O65645   8.118  10.217  -0.294  0.6494 -0.4420 -0.3051
  487MOL0     C65646   8.042  10.183  -0.404 -0.3473  0.6440  0.1528
  487MOL0     C65647   7.930  10.284  -0.418 -0.6425 -0.2534  0.2949
  487MOL0     C65648   7.964  10.439  -0.441  0.1925  0.3836  1.0429
  487MOL0     C65649   7.832  10.519  -0.417 -0.0891  0.5048  0.0922
  487MOL0     C65650   7.730  10.511  -0.539 -0.4693  1.1181 -0.2534
  487MOL0     C65651   7.597  10.575  -0.502  0.2668  0.6986 -0.3727
  487MOL0     C65652   7.479  10.547  -0.602 -0.4580 -0.7326  0.3364
  487MOL0     C65653   7.360  10.639  -0.605 -0.3565  0.1964  0.7394
  487MOL0    Cl65654   7.275  10.645  -0.445 -0.3866 -0.1646 -0.5236
  487MOL0     C65655   8.231  10.169  -0.090 -0.4741  0.7690  0.0274
  487MOL0     C65656   8.313  10.084  -0.021 -0.0342  1.2915  0.2988
  487MOL0     O65657   8.616  10.014  -0.112  0.3336 -0.3874 -0.6329
  487MOL0     C65658   8.816   9.875   0.032 -0.1623  0.2390 -0.8015
  487MOL0     C65659   8.914   9.829   0.116 -0.3567  0.4461 -0.4081
  487MOL0     N65660   9.169   9.445   0.763 -0.3337  0.8533 -0.2560
  487MOL0     N65661   9.057   9.404   0.813 -0.0048  0.8652 -0.6960
  487MOL0     C65662   7.908   9.673   0.426 -0.1236  0.7393 -0.3768
  487MOL0     C65663   7.786   9.736   0.425  0.3964 -1.0383 -0.4392
  487MOL0     C65664   7.457  10.036   0.298 -0.2340 -0.4876  0.2841
  487MOL0     C65665   7.384  10.032   0.420 -0.5358  1.3678  0.4951
  487MOL0     C65666   7.306  10.136   0.456  0.5263 -1.0189  0.6035
  487MOL0     C65667   7.276  10.239   0.373  0.6174 -0.0673 -0.8130
  487MOL0     O65668   7.187  10.338   0.408  0.8353 -0.1132 -0.4689
  487MOL0     C65669   7.148  10.420   0.303  0.5542 -0.4820 -0.1052
  487MOL0     C65670   7.032  10.500   0.365  0.3577 -0.4220  0.2479
  487MOL0     C65671   6.986  10.625   0.272 -0.1507  0.4987 -0.2158
  487MOL0     C65672   6.876  10.703   0.362 -0.0466  0.2236  0.0444
  487MOL0     C65673   6.848  10.830   0.310  0.5986 -0.3989 -0.8314
  487MOL0     C65674   6.840  10.946   0.275 -0.0565 -0.4897 -0.4565
  487MOL0     C65675   7.349  10.244   0.251  0.5936 -0.3734  0.3461
  487MOL0     C65676   7.436  10.147   0.215 -0.4475 -0.3705 -0.3157
  487MOL0     C65677   7.508  10.148   0.088 -0.4485 -0.9468 -0.0274
  487MOL0     H65678   7.822   9.976   0.201  0.9070 -1.4713 -1.4865
  487MOL0     H65679   8.041   9.893   0.191 -0.7925 -0.9319 -0.4426
  487MOL0     H65680   8.084   9.474   0.398  1.1914 -0.6921  0.0950
  487MOL0     H65681   8.233   9.485   0.327  0.1007 -0.0865 -0.5530
  487MOL0     H65682   8.175   9.618   0.603 -0.7054  0.7494 -0.0256
  487MOL0     H65683   8.330   9.623   0.511 -0.4441 -0.2995 -0.2922
  487MOL0     H65684   8.311   9.363   0.500  1.0990  1.6928 -2.4223
  487MOL0     H65685   8.187   9.366   0.620  2.7820 -2.7863  1.6404
  487MOL0     H65686   8.344   9.519   0.750  0.6273 -0.2195  0.0381
  487MOL0     H65687   8.365   9.346   0.765  0.7288  2.5818  3.3328
  487MOL0     H65688   8.542   9.358   0.587 -1.2005  0.3874 -0.2237
  487MOL0     H65689   8.508   9.533   0.574 -4.3490  0.7760  1.0701
  487MOL0     H65690   8.557   9.567   0.813 -0.6064  0.5922 -0.6818
  487MOL0     H65691   8.595   9.394   0.839  0.0187 -1.2771 -2.0850
  487MOL0     H65692   8.760   9.590   0.695  2.1405  0.1342  1.4643
  487MOL0     H65693   8.768   9.420   0.646 -1.0619 -0.1607 -0.2428
  487MOL0     H65694   8.799   9.556   0.926  3.6631 -0.0276  2.7265
  487MOL0     H65695   8.812   9.379   0.913 -0.5896 -0.1559  0.3594
  487MOL0     H65696   8.979   9.714   0.758  0.7648 -0.3277 -1.8382
  487MOL0     H65697   9.299   9.721   0.745 -0.5918 -1.8701  1.7369
  487MOL0     H65698   9.332   9.587   0.639  0.0226 -1.4483  1.3718
  487MOL0     H65699   9.122   9.797   0.561  1.8221  2.3211  1.1328
  487MOL0     H65700   9.297   9.812   0.539  0.1249  0.0148  0.7010
  487MOL0     H65701   9.133   9.574   0.438  1.4533 -2.1678 -1.1581
  487MOL0     H65702   9.293   9.626   0.379 -0.4829  2.9978 -2.8286
  487MOL0     H65703   9.118   9.654   0.232  1.2769  0.9271 -1.5352
  487MOL0     H65704   9.170   9.823   0.263 -1.3837  0.2120 -1.2529
  487MOL0     H65705   8.755   9.836   0.415 -1.7536  1.8448  0.4903
  487MOL0     H65706   8.564   9.907   0.253  0.3290  1.1563  1.5719
  487MOL0     H65707   8.337   9.831  -0.236  0.9249  1.7848 -2.1912
  487MOL0     H65708   8.198   9.975  -0.366 -1.6951  3.6113 -0.3310
  487MOL0     H65709   8.103  10.183  -0.494 -1.6708  0.8270 -0.7725
  487MOL0     H65710   8.000  10.082  -0.398  5.2728 -2.1057 -0.5104
  487MOL0     H65711   7.863  10.249  -0.497 -2.4206 -0.4117  1.7721
  487MOL0     H65712   7.876  10.277  -0.322  1.3524  0.9906  1.5777
  487MOL0     H65713   8.044  10.468  -0.371  0.6927  3.7214 -0.7439
  487MOL0     H65714   7.995  10.462  -0.543 -0.5302 -1.9360  0.2408
  487MOL0     H65715   7.860  10.624  -0.402 -0.7833  0.7371 -0.1819
  487MOL0     H65716   7.790  10.479  -0.324 -0.6286  0.2335 -0.2596
  487MOL0     H65717   7.705  10.413  -0.581 -0.5689  0.3324  1.5314
  487MOL0     H65718   7.781  10.570  -0.616 -1.1387  0.8277 -0.9345
  487MOL0     H65719   7.562  10.540  -0.405  0.2696  0.4271 -0.4689
  487MOL0     H65720   7.609  10.684  -0.497 -0.4746  0.7532  0.7190
  487MOL0     H65721   7.436  10.449  -0.581  0.1364 -1.3064 -1.0179
  487MOL0     H65722   7.517  10.540  -0.704 -2.7866  0.1260 -0.6498
  487MOL0     H65723   7.403  10.736  -0.633 -1.9295  0.5407 -0.5918
  487MOL0     H65724   7.289  10.613  -0.683 -3.3473  3.0668  2.2411
  487MOL0     H65725   8.209  10.271  -0.057  1.0278  1.2894 -0.4976
  487MOL0     H65726   8.344  10.101   0.082 -1.6049 -0.8936  1.1993
  487MOL0     H65727   8.841   9.887  -0.073 -1.0364  0.6059 -0.9778
  487MOL0     H65728   9.011   9.807   0.071  0.7318 -2.6904  2.8982
  487MOL0     H65729   7.924   9.589   0.493 -0.2301 -1.1320 -2.5763
  487MOL0     H65730   7.709   9.699   0.493 -1.0986  1.0130 -0.9354
  487MOL0     H65731   7.409   9.950   0.487 -2.3276 -0.0236 -0.4593
  487MOL0     H65732   7.262  10.125   0.555 -0.4906 -1.4917  0.1119
  487MOL0     H65733   7.113  10.368   0.214 -1.3979 -2.2192  1.5720
  487MOL0     H65734   7.226  10.494   0.282  1.9605 -1.0503  2.6454
  487MOL0     H65735   7.063  10.533   0.464  2.3529 -1.5189  0.0324
  487MOL0     H65736   6.948  10.430   0.371  1.1614 -1.6215 -1.5485
  487MOL0     H65737   6.951  10.594   0.174 -1.0875  1.4841 -0.2230
  487MOL0     H65738   7.079  10.682   0.264  0.3328 -0.2334  0.1189
  487MOL0     H65739   6.783  10.647   0.348  1.1099 -1.2842 -2.3977
  487MOL0     H65740   6.906  10.707   0.467  1.0974 -0.2770 -0.2471
  487MOL0     H65741   6.843  11.043   0.230  0.1985 -0.8739 -1.2706
  487MOL0     H65742   7.350  10.321   0.175  0.8142 -1.1199 -0.4134
  487MOL0     H65743   7.468  10.072   0.020  0.5794 -1.5866  0.0588
  487MOL0     H65744   7.505  10.244   0.034  1.0174 -0.1598  1.2108
  487MOL0     H65745   7.615  10.143   0.108 -0.4503  0.2835  0.4228
  488MOL0     O65746   9.978   4.142   8.846 -0.1241  0.1908  0.5886
  488MOL0     C65747  10.045   4.114   8.938  0.5320 -0.4772 -1.4431
  488MOL0     O65748  10.177   4.137   8.954  0.2765 -0.0690 -0.0160
  488MOL0     C65749  10.255   4.182   8.853  0.2991 -0.1004  0.0091
  488MOL0     C65750  10.242   4.156   8.715 -0.5988  0.5960  0.4891
  488MOL0     C65751  10.339   4.221   8.625 -0.9483 -0.3574 -0.5234
  488MOL0     C65752  10.444   4.303   8.676  0.4346 -0.1192  0.6266
  488MOL0     O65753  10.530   4.378   8.595  0.7383 -0.2714 -0.6853
  488MOL0     C65754  10.463   4.430   8.470 -0.3044  0.5498  0.4920
  488MOL0     C65755  10.518   4.573   8.442  0.4958  0.5937  0.5290
  488MOL0     C65756  10.507   4.671   8.553  0.2132 -0.6725  0.5739
  488MOL0     C65757  10.479   4.811   8.498  0.3036 -0.3369 -0.3682
  488MOL0     C65758  10.449   4.902   8.615 -0.0242 -0.4332 -0.5344
  488MOL0     C65759  10.445   5.049   8.566 -1.1493 -0.2506 -0.0978
  488MOL0     C65760  10.416   5.153   8.672  0.0095  0.1828 -0.8265
  488MOL0     C65761  10.379   5.288   8.620  0.3517  0.7705  0.2774
  488MOL0     N65762  10.492   5.379   8.605  0.3238 -0.2129 -0.2577
  488MOL0     C65763  10.582   5.404   8.704  0.1493  0.9339 -0.2172
  488MOL0     C65764  10.675   5.479   8.647  0.0296 -0.3536 -0.0191
  488MOL0     C65765  10.802   5.515   8.717 -0.7613  0.6417 -0.4029
  488MOL0     C65766  10.891   5.611   8.637 -0.4384  0.6640 -0.0757
  488MOL0     C65767  11.013   5.654   8.721 -0.4381 -0.3231 -0.5273
  488MOL0     C65768  11.086   5.773   8.656 -0.0802 -0.3909 -1.3476
  488MOL0     O65769  11.134   5.856   8.758 -0.0770  0.0154 -0.5550
  488MOL0     C65770  11.263   5.838   8.820  0.1217 -0.5303 -0.1405
  488MOL0     C65771  11.363   5.745   8.776  0.7219  0.4136 -1.1085
  488MOL0     C65772  11.494   5.755   8.822  0.2384  1.0746 -0.1435
  488MOL0     C65773  11.531   5.857   8.904  0.4305  0.1181 -0.5908
  488MOL0     C65774  11.667   5.860   8.967 -0.0042  0.8490 -0.2386
  488MOL0     O65775  11.695   5.948   9.067 -0.2590  0.1553  0.5153
  488MOL0     C65776  11.823   5.952   9.109 -0.2325  0.0720  0.6827
  488MOL0     C65777  11.867   5.848   9.197 -0.3741 -0.1147 -0.7636
  488MOL0     C65778  12.002   5.836   9.240  0.2990  0.1820  0.5428
  488MOL0     C65779  12.104   5.914   9.189  1.0997 -0.3840  0.1163
  488MOL0     O65780  12.238   5.915   9.220 -0.2975  0.5282  0.1205
  488MOL0     C65781  12.281   5.881   9.355  0.3015  0.0843 -0.8232
  488MOL0     C65782  12.260   6.005   9.448  0.9169 -0.3789 -0.9206
  488MOL0     C65783  12.316   6.137   9.384  0.4440  0.1967 -0.6764
  488MOL0     C65784  12.387   6.233   9.495 -0.8934 -0.4184  0.3750
  488MOL0     C65785  12.284   6.297   9.588  0.6199  0.3275  0.9438
  488MOL0     C65786  12.347   6.401   9.676 -0.2978  0.5417 -0.1262
  488MOL0     C65787  12.256   6.446   9.787 -0.2710  0.3419 -0.0186
  488MOL0     C65788  12.304   6.562   9.866 -0.2659 -0.9331  0.0334
  488MOL0    Cl65789  12.192   6.609   9.997  0.0043 -0.1722 -0.1881
  488MOL0     C65790  12.056   6.018   9.105 -0.3645  0.4268 -0.9954
  488MOL0     C65791  11.922   6.043   9.068 -0.1885 -0.2524  0.0456
  488MOL0     O65792  11.750   5.779   8.922  0.2037 -0.3306 -0.1852
  488MOL0     C65793  11.433   5.956   8.940 -0.2707  0.6075 -0.4278
  488MOL0     C65794  11.300   5.943   8.897  0.7124  0.2450  0.3404
  488MOL0     N65795  10.651   5.479   8.510 -0.0851 -0.1439  0.3017
  488MOL0     N65796  10.541   5.423   8.479 -0.2451 -0.4349  0.1054
  488MOL0     C65797  10.460   4.313   8.811  0.4119  0.0023 -0.0332
  488MOL0     C65798  10.364   4.255   8.901  0.3440 -0.6009 -0.3184
  488MOL0     C65799   9.969   4.078   9.063 -0.1029 -0.3380 -0.6422
  488MOL0     C65800  10.032   4.104   9.184 -0.0768 -0.7578  0.0668
  488MOL0     C65801   9.971   4.082   9.307  0.0380  0.0049 -0.5154
  488MOL0     C65802   9.841   4.033   9.316 -0.5368 -0.0129  0.1272
  488MOL0     O65803   9.794   3.997   9.444  0.0428  0.8023 -0.9745
  488MOL0     C65804   9.648   3.984   9.456 -0.3701  0.1767 -0.7525
  488MOL0     C65805   9.599   3.837   9.444 -0.0376 -0.1208 -0.6327
  488MOL0     C65806   9.455   3.821   9.497 -0.2826 -0.3503  0.3607
  488MOL0     C65807   9.409   3.677   9.523  0.1848  0.5949 -0.0468
  488MOL0     C65808   9.426   3.600   9.402 -0.2024  1.2534 -0.2313
  488MOL0     C65809   9.436   3.526   9.308  0.1058 -0.9891 -0.0248
  488MOL0     C65810   9.768   4.015   9.197  0.2116 -0.1446  0.7358
  488MOL0     C65811   9.831   4.031   9.071  2.0488 -0.5232  0.7967
  488MOL0     C65812   9.753   4.007   8.949 -0.2935  0.6587 -0.2129
  488MOL0     H65813  10.163   4.090   8.680 -1.4691  0.1237  3.1390
  488MOL0     H65814  10.336   4.224   8.517 -0.1083  2.5276 -0.5668
  488MOL0     H65815  10.485   4.355   8.393 -0.7682 -0.1523  1.0309
  488MOL0     H65816  10.354   4.438   8.469 -0.5372 -1.7512 -0.2911
  488MOL0     H65817  10.479   4.610   8.346  1.6083 -0.7595 -0.4926
  488MOL0     H65818  10.626   4.558   8.428  0.2279  0.1492 -1.4137
  488MOL0     H65819  10.601   4.672   8.609 -0.6407  3.2989  2.3010
  488MOL0     H65820  10.425   4.636   8.618 -1.2416 -2.1230 -1.8890
  488MOL0     H65821  10.563   4.850   8.440  1.3822  1.1015  1.9916
  488MOL0     H65822  10.393   4.802   8.432 -0.0546 -3.5381  0.3548
  488MOL0     H65823  10.357   4.876   8.669 -0.2160  1.9227  0.4128
  488MOL0     H65824  10.534   4.880   8.680  0.1290 -4.3027 -1.8088
  488MOL0     H65825  10.540   5.077   8.518  0.3426 -3.7443  0.4961
  488MOL0     H65826  10.375   5.058   8.483 -0.1883 -0.9547 -0.9977
  488MOL0     H65827  10.501   5.160   8.740 -2.0097 -0.3171  1.9214
  488MOL0     H65828  10.342   5.098   8.730 -0.1425  1.2841  0.0532
  488MOL0     H65829  10.322   5.276   8.528 -1.2742  1.9037  1.0820
  488MOL0     H65830  10.314   5.332   8.696 -0.3067 -0.4635  0.4488
  488MOL0     H65831  10.592   5.367   8.806  0.3231  0.0736 -0.5429
  488MOL0     H65832  10.777   5.562   8.812  0.4849 -0.3854  0.4740
  488MOL0     H65833  10.852   5.418   8.729  0.1842  0.9613 -1.5116
  488MOL0     H65834  10.929   5.566   8.545 -4.5479 -1.2716 -1.0774
  488MOL0     H65835  10.832   5.696   8.604 -0.3151 -0.7893 -4.7862
  488MOL0     H65836  11.080   5.568   8.732  0.5335  0.5812  0.9546
  488MOL0     H65837  10.982   5.691   8.819 -0.6180 -0.3486 -0.5744
  488MOL0     H65838  11.018   5.827   8.589 -1.0689  1.2286  0.8567
  488MOL0     H65839  11.159   5.724   8.591  3.4640 -1.4289  2.9900
  488MOL0     H65840  11.331   5.670   8.704 -1.7034 -2.7166  2.7458
  488MOL0     H65841  11.566   5.681   8.787  0.7609  1.4949  0.0404
  488MOL0     H65842  11.788   5.778   9.223  0.7426 -1.0882  0.1025
  488MOL0     H65843  12.029   5.760   9.312 -0.2965  0.0478  0.6326
  488MOL0     H65844  12.230   5.791   9.390  3.1172 -2.9555 -3.7436
  488MOL0     H65845  12.386   5.851   9.356  0.0087 -1.0432  1.2600
  488MOL0     H65846  12.154   6.006   9.474  0.9552  0.7515 -0.7453
  488MOL0     H65847  12.319   5.977   9.536  3.3575  1.2653 -1.9216
  488MOL0     H65848  12.390   6.117   9.306 -0.6478  0.0458 -1.7040
  488MOL0     H65849  12.241   6.196   9.330 -1.0087  0.0500  1.0866
  488MOL0     H65850  12.446   6.310   9.445 -2.8488  1.9625  1.4657
  488MOL0     H65851  12.450   6.173   9.561 -0.9834 -0.1107  0.7478
  488MOL0     H65852  12.232   6.221   9.648  0.8011  0.8582  1.7716
  488MOL0     H65853  12.219   6.359   9.525  1.2246  1.6878  1.6349
  488MOL0     H65854  12.439   6.358   9.718 -0.7525  0.4853  0.8536
  488MOL0     H65855  12.371   6.483   9.609 -1.5276 -0.0476 -1.3245
  488MOL0     H65856  12.234   6.364   9.855  1.2448  2.1486  2.8854
  488MOL0     H65857  12.161   6.471   9.740  0.4035  2.2016 -0.5140
  488MOL0     H65858  12.408   6.562   9.900  0.3648 -0.5235 -1.7914
  488MOL0     H65859  12.288   6.644   9.796  0.1533 -3.2005 -2.9312
  488MOL0     H65860  12.125   6.083   9.052  0.8449 -0.9721 -1.1853
  488MOL0     H65861  11.902   6.119   8.994  1.3523  0.3018  0.1482
  488MOL0     H65862  11.468   6.030   9.012  2.4408 -0.3461 -0.6300
  488MOL0     H65863  11.222   6.012   8.927 -0.5624 -0.7925 -0.4662
  488MOL0     H65864  10.543   4.372   8.847  0.2090  1.8919 -2.3997
  488MOL0     H65865  10.368   4.266   9.009  0.3886 -3.1960 -0.0034
  488MOL0     H65866  10.135   4.139   9.192 -0.0526 -1.2622  3.0450
  488MOL0     H65867  10.024   4.112   9.397  2.7409  2.6262 -2.7593
  488MOL0     H65868   9.599   4.048   9.382  0.0528  0.3838 -0.8570
  488MOL0     H65869   9.621   4.023   9.555  0.9320  2.5004 -1.2218
  488MOL0     H65870   9.671   3.779   9.502  0.0934  1.5883  1.0315
  488MOL0     H65871   9.608   3.795   9.344  1.4253  0.2951 -0.6915
  488MOL0     H65872   9.385   3.871   9.428 -1.1736 -2.3583 -0.2758
  488MOL0     H65873   9.447   3.871   9.594 -4.0740  0.5893 -0.2711
  488MOL0     H65874   9.464   3.627   9.603 -0.6314 -1.4561 -0.6991
  488MOL0     H65875   9.306   3.671   9.560  0.9600 -0.9907  2.0379
  488MOL0     H65876   9.445   3.464   9.221 -1.1386 -1.1100 -0.0802
  488MOL0     H65877   9.666   3.980   9.208  0.0694  0.2529  0.7077
  488MOL0     H65878   9.809   3.945   8.879  2.0658  1.8563  0.5252
  488MOL0     H65879   9.657   3.961   8.977  0.5721  0.4981  2.9192
  488MOL0     H65880   9.733   4.109   8.915 -4.9590  0.0621  0.0048
  489MOL0     O65881   1.668   3.847   6.679 -0.1711 -0.4729  0.3073
  489MOL0     C65882   1.584   3.885   6.760 -0.4593 -0.0082  0.9682
  489MOL0     O65883   1.613   3.959   6.863 -0.2122  0.5668 -0.4281
  489MOL0     C65884   1.741   3.957   6.915 -0.5567  0.2612 -0.2198
  489MOL0     C65885   1.844   4.042   6.865 -0.7269  0.0425 -0.3997
  489MOL0     C65886   1.973   4.039   6.909  0.0722 -0.7072 -0.0683
  489MOL0     C65887   2.006   3.946   7.004  0.1363 -0.4718 -0.3404
  489MOL0     O65888   2.130   3.940   7.049 -0.3681 -0.3268 -0.0049
  489MOL0     C65889   2.146   3.997   7.185 -0.6721  0.2761 -0.3627
  489MOL0     C65890   2.272   4.071   7.201  0.3442 -0.3203  0.4962
  489MOL0     C65891   2.401   3.988   7.187  0.7311 -0.0793 -0.8835
  489MOL0     C65892   2.428   3.898   7.306  0.5050  0.2501  0.4231
  489MOL0     C65893   2.566   3.825   7.275 -0.1505  0.4351  0.2280
  489MOL0     C65894   2.597   3.721   7.384 -0.0726  0.3627  0.1940
  489MOL0     C65895   2.742   3.663   7.381 -0.2213 -0.0699 -0.0402
  489MOL0     C65896   2.742   3.523   7.433 -0.3865  0.4717 -1.0015
  489MOL0     N65897   2.880   3.488   7.473  0.3796  0.0692 -0.1248
  489MOL0     C65898   2.955   3.526   7.581  0.1143 -0.0653 -0.1573
  489MOL0     C65899   3.076   3.466   7.559 -0.3094  0.1323  0.1818
  489MOL0     C65900   3.202   3.490   7.653  0.3438  0.3050  0.3780
  489MOL0     C65901   3.335   3.460   7.567  1.2441 -0.5606  0.8362
  489MOL0     C65902   3.464   3.477   7.662  0.6395 -0.2522 -0.2478
  489MOL0     C65903   3.583   3.422   7.600 -0.7761  0.7808 -0.1025
  489MOL0     O65904   3.705   3.474   7.665  0.4995  0.2229  0.2886
  489MOL0     C65905   3.822   3.437   7.611  1.1835 -0.6133 -0.6955
  489MOL0     C65906   3.835   3.340   7.511 -0.0625  0.3370 -0.2493
  489MOL0     C65907   3.964   3.304   7.471  0.3856  0.1633 -0.1609
  489MOL0     C65908   4.079   3.354   7.531 -0.3569 -0.4284  0.2620
  489MOL0     C65909   4.218   3.311   7.498 -0.7543  0.1142  0.5463
  489MOL0     O65910   4.232   3.211   7.409 -0.1616 -0.0025  0.8420
  489MOL0     C65911   4.356   3.177   7.369  0.1817  0.4011 -0.6213
  489MOL0     C65912   4.393   3.187   7.238 -0.7665  0.5497  0.8931
  489MOL0     C65913   4.525   3.160   7.189 -0.0033  0.3497 -0.1535
  489MOL0     C65914   4.622   3.119   7.287 -0.1514  0.0691 -0.8692
  489MOL0     O65915   4.755   3.093   7.252  0.0858 -0.0678  0.0715
  489MOL0     C65916   4.801   3.100   7.117 -0.1558 -0.2504  0.1679
  489MOL0     C65917   4.951   3.081   7.127  0.5829 -1.0637 -0.0010
  489MOL0     C65918   5.006   3.053   6.985 -0.1614  0.1030 -0.3122
  489MOL0     C65919   5.154   3.072   6.984 -0.8906 -0.2213  0.1164
  489MOL0     C65920   5.221   3.038   6.855  0.7777  0.2731 -0.5008
  489MOL0     C65921   5.378   3.051   6.858  0.1528  0.1870 -0.1824
  489MOL0     C65922   5.442   3.004   6.731  0.1940 -0.3804 -0.0653
  489MOL0     C65923   5.471   3.124   6.643  0.5829 -0.3345 -0.5532
  489MOL0    Cl65924   5.320   3.178   6.551  0.0875  0.1225  0.3977
  489MOL0     C65925   4.588   3.105   7.423  0.1200  0.1871 -0.1025
  489MOL0     C65926   4.455   3.130   7.467  0.2285 -0.4261 -0.0248
  489MOL0     O65927   4.308   3.381   7.549 -0.6600  0.6550 -0.3513
  489MOL0     C65928   4.061   3.452   7.628  0.7480 -0.1157  0.5033
  489MOL0     C65929   3.928   3.488   7.668 -0.7476  0.5135  0.0497
  489MOL0     N65930   3.068   3.393   7.436 -0.2918  0.5058 -0.3243
  489MOL0     N65931   2.953   3.422   7.388  0.2769 -0.6553  0.1239
  489MOL0     C65932   1.907   3.865   7.056  0.1551 -0.0467 -0.4721
  489MOL0     C65933   1.776   3.873   7.016 -0.2326  0.0231 -0.5971
  489MOL0     C65934   1.439   3.844   6.732 -0.2761 -0.8975 -0.0843
  489MOL0     C65935   1.412   3.789   6.603  0.3453 -0.2503 -0.4694
  489MOL0     C65936   1.278   3.748   6.569 -0.4381 -0.6833 -0.0871
  489MOL0     C65937   1.171   3.773   6.654  0.6728  0.4620 -0.0710
  489MOL0     O65938   1.047   3.715   6.631 -0.3415  0.0971 -0.0790
  489MOL0     C65939   1.024   3.581   6.678 -1.1713 -0.3660 -0.3028
  489MOL0     C65940   0.948   3.507   6.578  0.1981 -0.2421 -0.5197
  489MOL0     C65941   0.798   3.550   6.571  1.0112 -0.1975 -0.2014
  489MOL0     C65942   0.718   3.466   6.467  0.2371  1.2500  0.5578
  489MOL0     C65943   0.588   3.515   6.439  1.0066  0.5202 -0.1509
  489MOL0     C65944   0.480   3.572   6.413 -0.4079 -0.3114 -0.0513
  489MOL0     C65945   1.202   3.829   6.783 -1.2841  0.6897  0.7812
  489MOL0     C65946   1.331   3.858   6.826  0.1045 -0.2098  0.6086
  489MOL0     C65947   1.348   3.905   6.970 -0.4870 -0.4336  0.3747
  489MOL0     H65948   1.827   4.102   6.777 -0.5496  1.3046  0.3998
  489MOL0     H65949   2.043   4.112   6.869  1.8694 -1.0451  2.2469
  489MOL0     H65950   2.074   4.078   7.205 -1.0098 -0.3293  0.9879
  489MOL0     H65951   2.145   3.918   7.261  2.3710 -0.1289 -0.6297
  489MOL0     H65952   2.280   4.118   7.300  3.0959  0.1080  0.1473
  489MOL0     H65953   2.268   4.155   7.132 -0.7893 -0.7350  0.0402
  489MOL0     H65954   2.485   4.056   7.169 -0.5353  2.8152  2.7750
  489MOL0     H65955   2.382   3.923   7.101 -3.8239 -1.1221  0.6782
  489MOL0     H65956   2.436   3.945   7.405 -0.0475 -0.3259  0.7499
  489MOL0     H65957   2.343   3.830   7.316 -0.3995  1.2841  0.0095
  489MOL0     H65958   2.567   3.784   7.173  2.3452  2.4169 -0.6702
  489MOL0     H65959   2.654   3.890   7.267  0.0358  0.0054 -2.3588
  489MOL0     H65960   2.569   3.761   7.481  0.0167  0.0392  0.3524
  489MOL0     H65961   2.536   3.635   7.355 -0.4295  1.0322 -1.1241
  489MOL0     H65962   2.806   3.731   7.438  0.2600  0.8026 -1.5533
  489MOL0     H65963   2.785   3.662   7.281  3.0787  2.1781  1.2062
  489MOL0     H65964   2.683   3.526   7.525  1.0975 -0.7289  0.0347
  489MOL0     H65965   2.696   3.460   7.357 -2.7226 -0.4033  1.0050
  489MOL0     H65966   2.929   3.592   7.663 -1.4360  1.1418 -1.5703
  489MOL0     H65967   3.203   3.592   7.692  1.0533 -0.9548  3.9741
  489MOL0     H65968   3.200   3.433   7.746 -2.1818  2.1592  1.5683
  489MOL0     H65969   3.329   3.361   7.521 -1.1217  1.0246 -2.7112
  489MOL0     H65970   3.331   3.535   7.487 -0.7728 -1.7503 -0.2758
  489MOL0     H65971   3.447   3.430   7.759 -0.0482 -0.3006 -0.3831
  489MOL0     H65972   3.473   3.584   7.682 -0.8713 -0.5015  2.1764
  489MOL0     H65973   3.583   3.444   7.492 -2.2985 -2.4621 -0.8746
  489MOL0     H65974   3.579   3.313   7.604 -0.0123  0.7702  0.5520
  489MOL0     H65975   3.763   3.279   7.457  0.5739  0.3212 -1.1056
  489MOL0     H65976   3.969   3.235   7.387 -2.4831  0.0064 -0.2923
  489MOL0     H65977   4.315   3.208   7.165 -0.0027  0.0660 -0.0897
  489MOL0     H65978   4.535   3.165   7.081  0.0749 -0.2054 -0.1749
  489MOL0     H65979   4.765   3.015   7.058  0.4472  0.4679 -1.3037
  489MOL0     H65980   4.780   3.194   7.066  0.6678 -0.7916 -1.2430
  489MOL0     H65981   4.984   3.175   7.172  0.6541 -1.4210  0.7141
  489MOL0     H65982   4.976   3.000   7.197  0.8596  1.2113  2.6891
  489MOL0     H65983   4.974   2.952   6.959  0.7277  0.5550 -3.6498
  489MOL0     H65984   4.947   3.109   6.912 -1.7343 -1.6600 -0.4661
  489MOL0     H65985   5.201   3.013   7.063 -2.2838 -1.6472 -0.0655
  489MOL0     H65986   5.177   3.177   7.004  1.3156 -0.3080 -1.5991
  489MOL0     H65987   5.191   3.116   6.784  2.3609  1.2488 -0.1387
  489MOL0     H65988   5.196   2.941   6.812 -4.1588  1.4051 -0.7671
  489MOL0     H65989   5.414   3.149   6.891  0.5581 -0.0666  0.1314
  489MOL0     H65990   5.412   2.978   6.931  1.2313 -1.2458 -2.0266
  489MOL0     H65991   5.374   2.933   6.683 -1.8925 -0.6929  3.0428
  489MOL0     H65992   5.541   2.963   6.754  0.6578  0.0999 -1.1189
  489MOL0     H65993   5.513   3.202   6.707  0.4008 -0.8961  0.2585
  489MOL0     H65994   5.549   3.097   6.571  1.5762  0.1445  0.3318
  489MOL0     H65995   4.652   3.078   7.507 -1.0590  0.5970  0.9517
  489MOL0     H65996   4.425   3.116   7.571  0.5342 -0.8726  0.0102
  489MOL0     H65997   4.140   3.494   7.691 -0.0584  1.0778  0.7594
  489MOL0     H65998   3.920   3.555   7.753 -1.9809 -0.1518  0.4880
  489MOL0     H65999   1.928   3.798   7.138 -2.5199  0.5058  0.7693
  489MOL0     H66000   1.699   3.813   7.064  1.1989 -0.9620  0.5749
  489MOL0     H66001   1.494   3.786   6.532  1.7652 -3.7456  1.0738
  489MOL0     H66002   1.264   3.713   6.467 -3.8084 -0.6750  0.2694
  489MOL0     H66003   0.972   3.586   6.774 -0.0363 -1.1177  0.3738
  489MOL0     H66004   1.118   3.526   6.691 -0.5616  0.9872  1.4707
  489MOL0     H66005   0.965   3.405   6.615  0.6481  1.2849  4.1609
  489MOL0     H66006   0.989   3.513   6.478  1.5692 -0.0254  0.0388
  489MOL0     H66007   0.806   3.657   6.549  1.5532 -0.4565 -1.3118
  489MOL0     H66008   0.763   3.540   6.675  1.5141 -0.1994 -0.0298
  489MOL0     H66009   0.773   3.454   6.374  1.2382  0.7461  1.1923
  489MOL0     H66010   0.698   3.365   6.504  0.8276  1.8557  2.6797
  489MOL0     H66011   0.388   3.624   6.397 -0.6075  0.6631  3.4600
  489MOL0     H66012   1.120   3.831   6.855 -2.8315  3.7076 -0.8369
  489MOL0     H66013   1.249   3.900   7.016 -1.6032 -0.5194 -1.8957
  489MOL0     H66014   1.418   3.842   7.025  3.7540 -0.0942 -4.0008
  489MOL0     H66015   1.377   4.010   6.966 -0.8031 -0.3421 -4.0599
  490MOL0     O66016   9.769   3.502   4.508  0.6932 -0.3618 -0.4581
  490MOL0     C66017   9.744   3.595   4.429  0.0321  0.3000  0.9441
  490MOL0     O66018   9.831   3.692   4.389 -0.5130  0.5172  0.3046
  490MOL0     C66019   9.951   3.714   4.458  0.6340 -0.6822  1.0571
  490MOL0     C66020   9.956   3.707   4.598  0.7528 -0.4543 -0.1759
  490MOL0     C66021  10.079   3.723   4.656 -0.1449  0.0963 -0.1906
  490MOL0     C66022  10.197   3.735   4.585 -0.2417  0.2046 -0.0856
  490MOL0     O66023  10.315   3.722   4.664 -0.2956  0.0974  0.5835
  490MOL0     C66024  10.432   3.786   4.613  0.6649 -0.3480 -0.2154
  490MOL0     C66025  10.521   3.818   4.727 -0.1205 -0.6075 -0.4027
  490MOL0     C66026  10.661   3.867   4.683  0.5523  0.2865  0.5767
  490MOL0     C66027  10.741   3.929   4.791  0.3838 -0.5329  0.3435
  490MOL0     C66028  10.875   3.975   4.742 -0.1679 -0.1403  0.1427
  490MOL0     C66029  10.962   4.067   4.832 -0.3437  0.9483  0.2064
  490MOL0     C66030  11.114   4.063   4.811 -0.4331 -0.3972 -0.9638
  490MOL0     C66031  11.175   4.187   4.858  0.5090  0.0001 -0.5976
  490MOL0     N66032  11.321   4.187   4.857 -0.2194  0.6151 -0.6569
  490MOL0     C66033  11.397   4.179   4.974  0.1403  0.5092 -0.1763
  490MOL0     C66034  11.527   4.197   4.928  1.0237  0.6285 -0.0484
  490MOL0     C66035  11.651   4.199   5.014 -0.3792  0.4694  0.3033
  490MOL0     C66036  11.652   4.088   5.126  0.1193 -0.2713 -0.7751
  490MOL0     C66037  11.781   4.094   5.225 -0.0343  0.8916 -0.2031
  490MOL0     C66038  11.905   4.143   5.144 -0.0111  0.9571  0.5858
  490MOL0     O66039  11.926   4.038   5.039 -0.0529  0.4647 -0.0451
  490MOL0     C66040  12.060   4.005   5.033  0.1078 -0.0407 -0.2455
  490MOL0     C66041  12.100   3.882   5.083 -0.6530  0.8599 -0.4223
  490MOL0     C66042  12.236   3.849   5.103  0.0218  0.2896 -0.3777
  490MOL0     C66043  12.336   3.931   5.041 -0.0968 -0.0866 -0.6290
  490MOL0     C66044  12.487   3.919   5.042  0.3690  0.5876 -0.3668
  490MOL0     O66045  12.534   3.834   5.137 -0.2386  0.0070  1.3024
  490MOL0     C66046  12.676   3.837   5.149  0.5720 -1.1646  0.1541
  490MOL0     C66047  12.752   3.964   5.159  0.5320 -0.3656 -0.1307
  490MOL0     C66048  12.885   3.967   5.187  0.7845  0.0123  0.6710
  490MOL0     C66049  12.951   3.858   5.214  0.4347  0.8455 -0.1665
  490MOL0     O66050  13.080   3.879   5.252  0.4904  0.2067 -0.2113
  490MOL0     C66051  13.128   3.809   5.368 -0.5219  0.0760 -0.2944
  490MOL0     C66052  13.134   3.901   5.496  0.4059  0.0205 -0.9484
  490MOL0     C66053  13.158   3.815   5.621  0.4607 -0.5768  0.7068
  490MOL0     C66054  13.096   3.868   5.747  0.4742 -0.3357 -0.1555
  490MOL0     C66055  13.161   3.803   5.868  0.2288 -0.1104  0.2787
  490MOL0     C66056  13.120   3.852   6.007  0.3743 -0.7794 -0.2005
  490MOL0     C66057  13.205   3.795   6.119  0.3543  0.3350  0.3074
  490MOL0     C66058  13.146   3.829   6.253 -0.0366  0.3962  1.0472
  490MOL0    Cl66059  12.994   3.759   6.283 -0.5144  0.1013  0.3341
  490MOL0     C66060  12.893   3.736   5.188  0.0693  0.2394  0.2869
  490MOL0     C66061  12.757   3.723   5.158  0.5762  0.8935  0.5133
  490MOL0     O66062  12.554   3.992   4.966  0.2775  0.0245  0.0764
  490MOL0     C66063  12.288   4.045   4.973  0.1624 -0.1573 -0.6922
  490MOL0     C66064  12.151   4.081   4.968  0.2937  0.7950  0.1918
  490MOL0     N66065  11.517   4.225   4.789 -1.1252  0.3338 -0.5417
  490MOL0     N66066  11.399   4.225   4.748  0.1469  0.0180  0.0008
  490MOL0     C66067  10.186   3.747   4.445 -0.1744 -0.4426  0.5731
  490MOL0     C66068  10.065   3.743   4.383  0.0108 -0.1099 -1.0345
  490MOL0     C66069   9.610   3.604   4.360  0.7356  1.0334 -0.3396
  490MOL0     C66070   9.573   3.705   4.270  0.7703  0.7073  1.1137
  490MOL0     C66071   9.439   3.721   4.220  0.2085  0.1806  0.0427
  490MOL0     C66072   9.344   3.623   4.253 -0.3322  0.1086  0.2537
  490MOL0     O66073   9.226   3.613   4.173 -0.0731 -0.2121  0.0457
  490MOL0     C66074   9.126   3.523   4.215 -0.2187  0.6942 -0.2864
  490MOL0     C66075   8.988   3.587   4.173 -0.1292  0.2677  0.2651
  490MOL0     C66076   8.955   3.534   4.027  0.4751 -0.1718  0.3801
  490MOL0     C66077   8.829   3.600   3.967 -0.0012  0.6015  0.2055
  490MOL0     C66078   8.846   3.574   3.826 -1.0292  0.1075 -0.7294
  490MOL0     C66079   8.875   3.566   3.713 -0.0927  0.6478  0.6260
  490MOL0     C66080   9.374   3.516   4.340 -0.3351 -0.0091  0.0097
  490MOL0     C66081   9.510   3.509   4.394  1.3015  0.1764 -0.9540
  490MOL0     C66082   9.508   3.405   4.512  0.3897 -0.5333 -0.3792
  490MOL0     H66083   9.864   3.693   4.653 -0.6106  1.6300 -1.7743
  490MOL0     H66084  10.084   3.712   4.764  0.9259 -0.9124 -0.3325
  490MOL0     H66085  10.473   3.718   4.537 -2.4899 -0.2942 -2.1830
  490MOL0     H66086  10.407   3.881   4.566 -0.5258  0.0914  1.2354
  490MOL0     H66087  10.532   3.725   4.785  0.6647  0.5636  1.4069
  490MOL0     H66088  10.469   3.896   4.783 -0.4554  1.8562 -3.8519
  490MOL0     H66089  10.644   3.948   4.611  1.6478 -0.9423 -1.1391
  490MOL0     H66090  10.709   3.784   4.631 -1.2130 -1.3776  1.4523
  490MOL0     H66091  10.688   4.017   4.829 -3.3010 -2.6033  0.5088
  490MOL0     H66092  10.768   3.865   4.876  0.4023 -0.4258  0.4186
  490MOL0     H66093  10.941   3.887   4.733  2.1101  1.4968 -0.0152
  490MOL0     H66094  10.866   4.037   4.652  1.9110  1.0412  0.6891
  490MOL0     H66095  10.925   4.169   4.817  1.7631  1.6563 -0.5762
  490MOL0     H66096  10.946   4.036   4.936  0.2717  0.3299  0.1219
  490MOL0     H66097  11.130   4.048   4.704 -0.6666 -2.8984 -0.7032
  490MOL0     H66098  11.159   3.973   4.854  2.0377  0.2075 -2.0540
  490MOL0     H66099  11.137   4.268   4.794 -1.6941 -0.1759  0.3928
  490MOL0     H66100  11.138   4.224   4.954 -0.2039  2.2696 -1.6663
  490MOL0     H66101  11.370   4.169   5.078  0.8813 -0.1368 -0.0403
  490MOL0     H66102  11.735   4.184   4.945  0.0162 -0.9936  1.0685
  490MOL0     H66103  11.648   4.299   5.058 -4.7973  1.1065 -0.9782
  490MOL0     H66104  11.568   4.104   5.193 -0.5166  1.2472 -1.8814
  490MOL0     H66105  11.648   3.986   5.085  0.3126 -0.3249 -0.6639
  490MOL0     H66106  11.797   3.994   5.266 -2.6622  0.9026  1.0509
  490MOL0     H66107  11.763   4.165   5.307  0.6896  0.8029  0.0406
  490MOL0     H66108  11.983   4.143   5.220 -0.8457  1.6343  1.4722
  490MOL0     H66109  11.906   4.239   5.093 -2.0299 -0.1060 -1.6259
  490MOL0     H66110  12.026   3.812   5.118  0.8300 -0.2317  0.6784
  490MOL0     H66111  12.260   3.754   5.148  5.1665  1.5406  0.1208
  490MOL0     H66112  12.699   4.058   5.156 -0.5840 -0.9246  1.0781
  490MOL0     H66113  12.935   4.062   5.200  1.0469  0.0220 -0.3194
  490MOL0     H66114  13.049   3.737   5.393 -2.1447  2.0121  0.4434
  490MOL0     H66115  13.225   3.765   5.345 -0.0080  1.3627 -0.6896
  490MOL0     H66116  13.213   3.972   5.468 -0.9355  2.4552  1.0275
  490MOL0     H66117  13.045   3.963   5.498 -0.4339 -0.9732 -3.2195
  490MOL0     H66118  13.102   3.723   5.602 -1.1541  0.1239  1.8511
  490MOL0     H66119  13.264   3.787   5.626  0.7678  0.5505  0.7922
  490MOL0     H66120  12.987   3.863   5.753  0.4503 -0.9514 -1.0219
  490MOL0     H66121  13.112   3.976   5.754 -0.4918 -0.2879  2.8409
  490MOL0     H66122  13.267   3.829   5.862 -0.0997  1.0669 -3.8157
  490MOL0     H66123  13.135   3.697   5.861  0.9997 -0.2334 -1.0738
  490MOL0     H66124  13.121   3.961   6.016 -2.9148 -0.7048  0.8893
  490MOL0     H66125  13.016   3.819   6.019 -1.2566  3.3379 -1.2760
  490MOL0     H66126  13.306   3.837   6.115  1.2096 -1.5570  1.0874
  490MOL0     H66127  13.219   3.687   6.113  0.6059  0.2432  2.0893
  490MOL0     H66128  13.220   3.802   6.328 -0.7313 -0.3850  1.4744
  490MOL0     H66129  13.125   3.936   6.262 -2.0708  0.2286 -0.6947
  490MOL0     H66130  12.953   3.646   5.180 -1.2408 -0.6078 -0.3124
  490MOL0     H66131  12.710   3.629   5.133 -0.0995  0.9818  1.4165
  490MOL0     H66132  12.364   4.106   4.927  3.1413 -2.0717  1.3499
  490MOL0     H66133  12.120   4.163   4.904 -1.8760 -0.3422 -0.3488
  490MOL0     H66134  10.265   3.773   4.376  0.4435 -0.8435  1.1222
  490MOL0     H66135  10.047   3.756   4.277 -0.7244  1.3369 -0.7493
  490MOL0     H66136   9.645   3.776   4.231 -0.8207  2.3543  1.0169
  490MOL0     H66137   9.401   3.784   4.140 -2.9036 -0.0836  1.1776
  490MOL0     H66138   9.124   3.511   4.324 -0.8635 -1.3224 -0.4773
  490MOL0     H66139   9.140   3.426   4.168  1.9966  1.1350 -0.6243
  490MOL0     H66140   8.995   3.696   4.172  3.1250  0.1573 -0.1271
  490MOL0     H66141   8.907   3.572   4.244  0.2489  2.1484  1.1440
  490MOL0     H66142   8.941   3.426   4.023  0.9306 -0.2141 -0.2657
  490MOL0     H66143   9.039   3.556   3.960 -0.1309  2.0444  0.2539
  490MOL0     H66144   8.735   3.556   4.002  0.3503 -0.7759 -0.5341
  490MOL0     H66145   8.831   3.707   3.991  0.0362  0.7195 -0.3076
  490MOL0     H66146   8.878   3.563   3.606  1.4347  1.2187  0.6262
  490MOL0     H66147   9.312   3.431   4.364 -1.7098  0.3555 -2.0028
  490MOL0     H66148   9.524   3.460   4.605  1.2648 -1.8311  0.2648
  490MOL0     H66149   9.437   3.325   4.534  2.1659 -3.1900 -3.5058
  490MOL0     H66150   9.602   3.355   4.491  2.6894  2.7454  1.2193
  491MOL0     O66151   3.069   7.840   5.426  1.4528  0.2106 -0.7746
  491MOL0     C66152   3.141   7.820   5.331  0.0941 -0.0515  1.0054
  491MOL0     O66153   3.096   7.760   5.213  0.5351 -0.2554  0.3101
  491MOL0     C66154   2.958   7.749   5.199 -0.0087 -0.3293 -0.1932
  491MOL0     C66155   2.869   7.850   5.235 -0.0142 -0.7979  0.7553
  491MOL0     C66156   2.734   7.833   5.202 -0.8255 -0.0612 -0.5683
  491MOL0     C66157   2.685   7.714   5.148 -0.3592  0.3289  0.3240
  491MOL0     O66158   2.551   7.713   5.126  0.0588  0.2610 -0.1672
  491MOL0     C66159   2.496   7.600   5.063  0.1204  0.6446  0.2023
  491MOL0     C66160   2.347   7.605   5.054  0.1653 -0.6498 -0.3382
  491MOL0     C66161   2.285   7.492   4.977 -0.6766  0.2781 -0.1896
  491MOL0     C66162   2.131   7.518   4.973  0.7550 -0.2754  0.1292
  491MOL0     C66163   2.062   7.395   4.898 -0.4078  0.4855  0.7516
  491MOL0     C66164   1.922   7.413   4.869  0.1996  0.9428  0.7749
  491MOL0     C66165   1.857   7.283   4.829  0.1677 -0.3146 -0.0603
  491MOL0     C66166   1.725   7.305   4.755  0.3416 -0.4141 -0.1645
  491MOL0     N66167   1.752   7.372   4.629 -0.0628  0.5673 -0.6637
  491MOL0     C66168   1.802   7.312   4.520  0.2968  0.2522  0.3553
  491MOL0     C66169   1.833   7.411   4.435 -0.1205 -0.0894 -0.0842
  491MOL0     C66170   1.901   7.382   4.297 -0.0433 -0.1080  0.0706
  491MOL0     C66171   2.047   7.345   4.312  0.1608  0.3344  0.4116
  491MOL0     C66172   2.134   7.460   4.366 -0.2569  0.5541 -0.1885
  491MOL0     C66173   2.274   7.405   4.418 -0.0097 -0.2918 -0.5144
  491MOL0     O66174   2.324   7.306   4.318 -0.7074  0.1436  0.4952
  491MOL0     C66175   2.462   7.282   4.318  0.3682 -0.4292  0.0411
  491MOL0     C66176   2.518   7.247   4.201  0.6332  0.2921 -0.1545
  491MOL0     C66177   2.655   7.227   4.191  0.7597  0.3698  0.3187
  491MOL0     C66178   2.737   7.247   4.305 -0.1970 -0.0504  0.4713
  491MOL0     C66179   2.879   7.213   4.309  0.5786 -0.1649  0.4181
  491MOL0     O66180   2.939   7.254   4.419  0.5049 -0.4998 -0.1970
  491MOL0     C66181   3.074   7.222   4.446 -0.6216 -1.0294  0.0377
  491MOL0     C66182   3.141   7.106   4.414  0.8508  0.5927  0.4787
  491MOL0     C66183   3.272   7.090   4.449 -0.0496 -0.3843 -0.2467
  491MOL0     C66184   3.344   7.173   4.532 -0.4260  0.2112 -0.5027
  491MOL0     O66185   3.473   7.140   4.574 -0.4694 -0.7305  0.4358
  491MOL0     C66186   3.569   7.242   4.578  0.7681  0.1347  0.1785
  491MOL0     C66187   3.690   7.162   4.631  0.5371  0.1538 -0.1340
  491MOL0     C66188   3.830   7.228   4.620  0.6222 -0.4566  0.5031
  491MOL0     C66189   3.938   7.138   4.676  0.5555 -0.1592  0.5530
  491MOL0     C66190   4.080   7.195   4.666  0.1553 -0.7607  0.0239
  491MOL0     C66191   4.179   7.077   4.697  0.0913 -0.3799 -0.0693
  491MOL0     C66192   4.323   7.109   4.651 -0.4579  0.6417 -0.0192
  491MOL0     C66193   4.406   7.187   4.759 -0.1212 -0.1041  0.0834
  491MOL0    Cl66194   4.529   7.264   4.656  0.2915  0.0994 -0.0844
  491MOL0     C66195   3.284   7.292   4.561  0.2474 -0.5410 -0.4599
  491MOL0     C66196   3.152   7.324   4.523  0.5539  0.4552  0.1138
  491MOL0     O66197   2.925   7.144   4.221 -0.4327  0.3113 -0.2131
  491MOL0     C66198   2.671   7.287   4.426  0.1097 -0.9292 -0.2905
  491MOL0     C66199   2.535   7.302   4.434 -0.1096 -0.1506 -0.4143
  491MOL0     N66200   1.794   7.531   4.492 -0.6700 -0.0076 -0.7307
  491MOL0     N66201   1.747   7.502   4.608  1.1315 -0.2838 -0.4333
  491MOL0     C66202   2.774   7.607   5.124  0.6150 -0.3021  0.7315
  491MOL0     C66203   2.911   7.628   5.152 -0.2550 -0.2346 -0.1026
  491MOL0     C66204   3.284   7.873   5.336 -0.1975  0.4351 -0.1305
  491MOL0     C66205   3.350   7.863   5.203  0.7860 -0.1604 -0.4435
  491MOL0     C66206   3.478   7.908   5.193 -0.2296  0.3216 -0.1999
  491MOL0     C66207   3.555   7.937   5.306  0.0394  0.3080 -0.1171
  491MOL0     O66208   3.686   7.967   5.276 -0.1298 -0.7875  0.8825
  491MOL0     C66209   3.764   8.007   5.384  0.5552  0.1681  0.6870
  491MOL0     C66210   3.886   8.074   5.337 -0.3974  0.2343  0.9605
  491MOL0     C66211   3.977   7.983   5.257  0.0115  0.0307 -0.4169
  491MOL0     C66212   4.110   8.038   5.222 -0.3414  0.2259  0.3792
  491MOL0     C66213   4.092   8.149   5.125 -0.8241  0.0871  0.4435
  491MOL0     C66214   4.097   8.245   5.055  0.1467 -0.4963 -0.5282
  491MOL0     C66215   3.492   7.935   5.438  0.1426 -0.9059  0.7300
  491MOL0     C66216   3.356   7.905   5.456 -1.1932 -0.5284  0.3210
  491MOL0     C66217   3.293   7.927   5.594  0.2883  0.2242 -0.0172
  491MOL0     H66218   2.903   7.949   5.262  1.6442 -1.5624  1.6265
  491MOL0     H66219   2.669   7.910   5.241 -1.8891 -1.6920  1.0580
  491MOL0     H66220   2.538   7.577   4.965 -0.5935 -0.5903  0.1540
  491MOL0     H66221   2.518   7.522   5.137 -0.3462  0.9310  0.6481
  491MOL0     H66222   2.325   7.706   5.019 -1.9746 -0.9331  0.0151
  491MOL0     H66223   2.317   7.605   5.160 -0.2210  1.8139 -0.3803
  491MOL0     H66224   2.308   7.397   5.026  1.1142  1.5046  1.5079
  491MOL0     H66225   2.339   7.482   4.882 -0.8778 -0.0671 -0.2710
  491MOL0     H66226   2.090   7.525   5.074 -1.2181 -3.8841 -0.2601
  491MOL0     H66227   2.107   7.611   4.921  1.5569 -0.3324 -0.3593
  491MOL0     H66228   2.099   7.395   4.795 -0.6190  0.4700  0.6755
  491MOL0     H66229   2.093   7.302   4.946  0.3926  0.1896 -0.3186
  491MOL0     H66230   1.871   7.445   4.961 -1.9583  0.6782 -0.2729
  491MOL0     H66231   1.906   7.494   4.798 -0.2423  2.0305  2.0575
  491MOL0     H66232   1.849   7.214   4.913 -1.2682 -0.8252 -0.5787
  491MOL0     H66233   1.921   7.226   4.760  1.3797  1.6072 -0.5841
  491MOL0     H66234   1.672   7.210   4.737 -1.1918  0.0447  1.5905
  491MOL0     H66235   1.662   7.375   4.811 -2.0038 -1.6079 -1.1792
  491MOL0     H66236   1.807   7.203   4.515 -0.3432  0.2784 -1.7648
  491MOL0     H66237   1.861   7.299   4.238  3.0690 -0.2423 -2.0672
  491MOL0     H66238   1.900   7.474   4.238 -0.4700 -0.1304  0.0356
  491MOL0     H66239   2.069   7.257   4.373 -0.3559  1.6460  2.5983
  491MOL0     H66240   2.090   7.322   4.214  0.9276  3.8371 -0.1808
  491MOL0     H66241   2.084   7.510   4.450  2.3479 -0.7644  2.3065
  491MOL0     H66242   2.153   7.522   4.278 -1.1606  0.7936 -0.2250
  491MOL0     H66243   2.263   7.349   4.511  0.0575  0.3344 -0.1260
  491MOL0     H66244   2.343   7.490   4.419 -2.0742  1.4972 -0.9866
  491MOL0     H66245   2.447   7.233   4.121  3.2004 -0.1799 -2.5229
  491MOL0     H66246   2.704   7.189   4.102 -0.6957  1.5301 -1.0243
  491MOL0     H66247   3.084   7.030   4.362 -0.1613 -0.1200  2.5237
  491MOL0     H66248   3.323   6.995   4.436  0.4628 -0.1675  0.1628
  491MOL0     H66249   3.577   7.275   4.474  2.3196  0.3459  0.3348
  491MOL0     H66250   3.543   7.327   4.642  1.0684  0.3144  0.0646
  491MOL0     H66251   3.681   7.140   4.738  0.2328 -1.1190 -0.4065
  491MOL0     H66252   3.695   7.067   4.577 -2.3577 -1.0859  1.5311
  491MOL0     H66253   3.865   7.252   4.519  4.9115 -1.3773  1.5994
  491MOL0     H66254   3.831   7.323   4.674  1.1098  0.4132 -0.9877
  491MOL0     H66255   3.928   7.042   4.623 -1.5625  1.4786 -2.2759
  491MOL0     H66256   3.908   7.124   4.780  0.3833 -2.1865  0.2686
  491MOL0     H66257   4.092   7.289   4.721  2.6869  0.0590 -1.7097
  491MOL0     H66258   4.091   7.227   4.562  0.1377  0.6260  0.4232
  491MOL0     H66259   4.184   7.056   4.805  2.3142 -0.8387 -0.2169
  491MOL0     H66260   4.162   6.985   4.642 -0.9191 -2.9452  4.0837
  491MOL0     H66261   4.324   7.164   4.557  1.7947  1.1528  0.2581
  491MOL0     H66262   4.375   7.014   4.639 -1.4845 -0.2940  2.2312
  491MOL0     H66263   4.345   7.267   4.802  1.8335  3.1338 -2.6768
  491MOL0     H66264   4.458   7.124   4.832  0.1553  1.4538  1.2905
  491MOL0     H66265   3.338   7.367   4.618 -1.3909  0.4102 -0.0912
  491MOL0     H66266   3.111   7.418   4.559  1.3481  1.4446 -1.4495
  491MOL0     H66267   2.727   7.275   4.518  2.5634 -3.5272 -1.9347
  491MOL0     H66268   2.489   7.331   4.528 -0.8948 -0.1527 -0.7865
  491MOL0     H66269   2.728   7.526   5.070 -2.8280  1.4841  0.7111
  491MOL0     H66270   2.986   7.553   5.127 -0.4800 -1.3558  2.2885
  491MOL0     H66271   3.293   7.827   5.118 -0.5776 -1.7686  1.0838
  491MOL0     H66272   3.517   7.908   5.092 -3.6025  2.4806 -1.6707
  491MOL0     H66273   3.786   7.919   5.445 -1.8588  0.3013  1.8784
  491MOL0     H66274   3.713   8.080   5.446 -3.7300 -1.5949 -0.4141
  491MOL0     H66275   3.939   8.117   5.423  1.1954  0.4797 -0.0942
  491MOL0     H66276   3.870   8.162   5.275  3.2339  0.0947 -0.4206
  491MOL0     H66277   3.918   7.965   5.166 -2.6184  0.6172  1.0673
  491MOL0     H66278   3.989   7.893   5.318 -0.5601 -0.0857 -0.4696
  491MOL0     H66279   4.165   8.078   5.308 -3.1950  1.0881  1.9284
  491MOL0     H66280   4.180   7.968   5.175 -1.1283  0.5804 -1.4246
  491MOL0     H66281   4.098   8.330   4.990 -3.0485 -0.6862 -0.9841
  491MOL0     H66282   3.557   7.963   5.521 -0.6614  0.5495  0.9074
  491MOL0     H66283   3.199   7.981   5.587 -1.2534 -1.6951  3.3388
  491MOL0     H66284   3.272   7.833   5.648 -0.4326  0.7228  0.5850
  491MOL0     H66285   3.367   7.982   5.653  1.7691  1.7338 -3.0626
  492MOL0     O66286  10.630   9.939   1.961  0.3476 -0.8858  0.1833
  492MOL0     C66287  10.600   9.902   1.847 -0.0353  0.3468 -0.3853
  492MOL0     O66288  10.696   9.857   1.752 -0.0163 -0.6619  0.0166
  492MOL0     C66289  10.820   9.847   1.797 -0.3670  0.5211  0.0999
  492MOL0     C66290  10.864   9.740   1.880  0.0111 -0.3249  0.0226
  492MOL0     C66291  10.994   9.733   1.926 -0.2314 -0.1823  0.0054
  492MOL0     C66292  11.081   9.847   1.913 -0.3956  0.1585  0.0450
  492MOL0     O66293  11.207   9.850   1.979  0.0646  0.1776 -0.4199
  492MOL0     C66294  11.267   9.723   2.017 -0.3285 -0.3100 -0.0141
  492MOL0     C66295  11.416   9.721   2.054 -0.5661 -0.0853  0.4951
  492MOL0     C66296  11.494   9.816   1.960 -0.2361  0.2755 -0.0450
  492MOL0     C66297  11.646   9.798   1.984  0.4546 -0.2239  0.0095
  492MOL0     C66298  11.722   9.910   1.918 -0.7790  0.1049 -0.9767
  492MOL0     C66299  11.874   9.875   1.913 -0.4447  0.1682 -0.0718
  492MOL0     C66300  11.924   9.797   1.796  0.3667 -0.5903  0.4121
  492MOL0     C66301  11.966   9.889   1.685 -0.3281 -0.9174  0.3242
  492MOL0     N66302  12.095   9.948   1.714 -0.8241  0.3813 -0.2394
  492MOL0     C66303  12.221   9.888   1.727 -0.4864  0.8299  0.5707
  492MOL0     C66304  12.318   9.970   1.689 -0.6120  0.0708  0.4526
  492MOL0     C66305  12.473   9.949   1.693  0.0278  0.4679 -0.6650
  492MOL0     C66306  12.521   9.937   1.836  0.3174  0.1592  0.1046
  492MOL0     C66307  12.664   9.895   1.847  0.0475 -0.2218  0.6598
  492MOL0     C66308  12.698   9.877   1.991  0.0823 -0.7024  1.1886
  492MOL0     O66309  12.786   9.775   2.017  0.7603  0.2814  0.2298
  492MOL0     C66310  12.918   9.782   1.995 -0.5604 -0.5716  0.3893
  492MOL0     C66311  13.002   9.668   2.010 -0.3004  0.3373  0.4654
  492MOL0     C66312  13.141   9.675   2.000 -1.0470 -0.0486 -0.4438
  492MOL0     C66313  13.202   9.795   1.980  0.4549 -0.3720  0.4733
  492MOL0     C66314  13.354   9.815   2.012  0.8868 -0.0551  0.2757
  492MOL0     O66315  13.400   9.940   1.979 -0.0668  0.1744 -0.5405
  492MOL0     C66316  13.532   9.967   1.998 -0.7352  1.1334  0.0643
  492MOL0     C66317  13.576  10.035   2.115  0.2200 -0.0524  0.7368
  492MOL0     C66318  13.704  10.069   2.127 -0.1854 -0.0310 -0.3347
  492MOL0     C66319  13.808  10.023   2.046  1.1081 -0.4396  0.5652
  492MOL0     O66320  13.933  10.059   2.076 -0.1481  1.2595  0.1502
  492MOL0     C66321  14.037   9.993   1.992 -0.5939 -0.3394 -0.5997
  492MOL0     C66322  14.174  10.026   2.061 -0.3248 -0.7633  0.2739
  492MOL0     C66323  14.297   9.956   2.015 -0.0619 -0.3786  0.1610
  492MOL0     C66324  14.296   9.943   1.863 -0.4239 -0.6496 -0.4010
  492MOL0     C66325  14.437   9.909   1.809  0.4615  1.1226  0.4072
  492MOL0     C66326  14.428   9.902   1.652 -0.6600  0.0816  0.1418
  492MOL0     C66327  14.564   9.858   1.589 -0.3139 -0.4115  1.1359
  492MOL0     C66328  14.674   9.971   1.617 -0.3101 -0.2965  0.2515
  492MOL0    Cl66329  14.802   9.973   1.499  0.2559  0.0969  0.0710
  492MOL0     C66330  13.765   9.963   1.923 -1.0371 -0.0607  0.1413
  492MOL0     C66331  13.631   9.929   1.904  0.1717 -0.1350  0.1525
  492MOL0     O66332  13.416   9.718   2.059  0.1208 -0.5777  0.5198
  492MOL0     C66333  13.118   9.910   1.951  0.4806 -0.2903 -0.3525
  492MOL0     C66334  12.978   9.903   1.959  0.3549 -0.7302  0.6994
  492MOL0     N66335  12.256  10.090   1.663 -0.4122 -0.4162 -0.6746
  492MOL0     N66336  12.130  10.079   1.688 -0.8211 -0.2274 -0.6792
  492MOL0     C66337  11.030   9.958   1.846  0.0217 -0.7899 -1.2052
  492MOL0     C66338  10.901   9.965   1.798  0.3735 -0.2680 -0.4874
  492MOL0     C66339  10.452   9.903   1.819  1.2853 -0.9887 -0.6461
  492MOL0     C66340  10.366   9.970   1.911 -0.1141  0.4094 -0.5967
  492MOL0     C66341  10.227   9.979   1.892  1.2542  0.4442  0.3217
  492MOL0     C66342  10.173   9.914   1.785 -0.1475  0.2576  0.8234
  492MOL0     O66343  10.036   9.920   1.761 -0.8686 -0.2624 -0.0295
  492MOL0     C66344   9.989  10.003   1.660 -0.4062  0.2669 -0.3360
  492MOL0     C66345   9.897  10.105   1.742  0.6627  0.4748 -0.4381
  492MOL0     C66346   9.767  10.052   1.819 -0.2348  0.5273  0.0284
  492MOL0     C66347   9.708  10.166   1.906 -0.6922 -0.0848 -0.7948
  492MOL0     C66348   9.598  10.124   1.990 -0.5545  0.0075 -0.1124
  492MOL0     C66349   9.489  10.095   2.039 -0.6036  0.0722 -0.0628
  492MOL0     C66350  10.246   9.839   1.699 -0.5806 -0.3850 -0.1226
  492MOL0     C66351  10.388   9.835   1.709 -0.5234 -0.4040 -0.9328
  492MOL0     C66352  10.467   9.771   1.601  0.0799 -0.8160 -0.7475
  492MOL0     H66353  10.795   9.658   1.892  0.2175 -0.5829 -0.5214
  492MOL0     H66354  11.026   9.641   1.975  0.0255 -0.1801 -0.1561
  492MOL0     H66355  11.199   9.679   2.090 -2.0690  1.5908 -0.3758
  492MOL0     H66356  11.258   9.646   1.940 -2.0926 -1.2205  1.0592
  492MOL0     H66357  11.452   9.619   2.044  0.9097  0.5562 -1.2333
  492MOL0     H66358  11.429   9.760   2.156  1.0971  0.1399  0.2270
  492MOL0     H66359  11.457   9.914   1.990  0.0593  0.2995  0.2437
  492MOL0     H66360  11.464   9.794   1.857 -0.0305 -1.2059  0.1801
  492MOL0     H66361  11.666   9.799   2.092  0.4662 -0.1949  0.0071
  492MOL0     H66362  11.681   9.701   1.946  1.8823  0.1999  0.2021
  492MOL0     H66363  11.687   9.924   1.815 -0.4131 -1.7661 -1.3777
  492MOL0     H66364  11.705  10.003   1.973 -2.4770 -1.5716  1.5477
  492MOL0     H66365  11.925   9.971   1.923 -0.4068  0.0001  1.7973
  492MOL0     H66366  11.910   9.830   2.006  2.3944  1.2222 -0.5461
  492MOL0     H66367  11.832   9.746   1.766  0.6834  0.0771 -1.8354
  492MOL0     H66368  12.003   9.727   1.825  3.9481  3.2402  0.7103
  492MOL0     H66369  11.979   9.833   1.592  4.8089  0.2657  0.0094
  492MOL0     H66370  11.892   9.967   1.668  0.2507 -0.4013  0.1513
  492MOL0     H66371  12.239   9.788   1.767 -2.7819 -0.0461 -0.4038
  492MOL0     H66372  12.498   9.859   1.636  2.0853  0.9027 -0.5148
  492MOL0     H66373  12.522  10.035   1.647 -0.3862  1.3488  0.4669
  492MOL0     H66374  12.512  10.034   1.887  1.3492  0.4187 -0.1847
  492MOL0     H66375  12.457   9.862   1.883 -0.9607  1.4856  0.5524
  492MOL0     H66376  12.720   9.968   1.787 -0.7590 -2.2520 -2.9080
  492MOL0     H66377  12.689   9.797   1.805  0.4229  0.3602 -0.5174
  492MOL0     H66378  12.604   9.847   2.039  0.9311 -3.0587  1.5438
  492MOL0     H66379  12.727   9.975   2.028  1.9902 -1.4009  1.6324
  492MOL0     H66380  12.956   9.574   2.036  2.9395 -1.8276 -0.9499
  492MOL0     H66381  13.197   9.587   2.031 -0.3264  1.1187  1.7340
  492MOL0     H66382  13.503  10.078   2.184 -0.3147  0.3106 -0.0432
  492MOL0     H66383  13.715  10.133   2.215 -0.7722 -0.4620  0.0574
  492MOL0     H66384  14.019   9.886   2.003 -1.0099 -0.0472  3.2026
  492MOL0     H66385  14.041  10.017   1.886  2.3458  1.5043 -0.1914
  492MOL0     H66386  14.188  10.132   2.036 -5.2698  0.2375  0.6455
  492MOL0     H66387  14.168  10.022   2.170 -1.9303 -2.1065  0.1774
  492MOL0     H66388  14.391  10.000   2.049 -0.5513  1.1289 -0.3333
  492MOL0     H66389  14.295   9.855   2.056  1.2422 -1.0116 -1.2457
  492MOL0     H66390  14.264  10.042   1.830 -0.3138 -0.6294 -0.4443
  492MOL0     H66391  14.226   9.865   1.831 -0.2870 -0.2421 -1.7638
  492MOL0     H66392  14.482   9.815   1.843 -1.2656  0.2614  0.4732
  492MOL0     H66393  14.510   9.988   1.825  3.1176 -1.0013 -0.5882
  492MOL0     H66394  14.349   9.832   1.624 -0.8350  0.0010  0.8095
  492MOL0     H66395  14.389  10.002   1.631 -2.4437 -0.8766 -1.3837
  492MOL0     H66396  14.549   9.840   1.482  2.5587 -1.2436  0.7699
  492MOL0     H66397  14.581   9.755   1.621 -1.7568 -0.1415  2.9538
  492MOL0     H66398  14.619  10.066   1.620 -3.2336 -1.8717  2.3912
  492MOL0     H66399  14.723   9.977   1.715 -0.5157  3.1345  0.2717
  492MOL0     H66400  13.832   9.942   1.840 -1.5314  2.7481 -1.0920
  492MOL0     H66401  13.594   9.895   1.808  0.2423  2.8120 -1.0184
  492MOL0     H66402  13.154  10.011   1.933 -0.2269 -0.0342 -0.3933
  492MOL0     H66403  12.922   9.996   1.953 -1.4329 -1.4918  3.6646
  492MOL0     H66404  11.092  10.048   1.843 -0.2186 -0.3051  2.7643
  492MOL0     H66405  10.852  10.053   1.757 -0.8949 -0.7304 -0.0056
  492MOL0     H66406  10.411  10.026   1.992  0.6199  2.5699 -2.3962
  492MOL0     H66407  10.158  10.050   1.936 -0.2042  1.0501 -2.7016
  492MOL0     H66408   9.926   9.958   1.583 -3.4461  0.3358  1.9245
  492MOL0     H66409  10.066  10.062   1.608  1.6589 -2.2592 -0.3211
  492MOL0     H66410   9.851  10.188   1.688 -0.2924  0.9220  1.0019
  492MOL0     H66411   9.958  10.150   1.821 -1.2406  1.1526  0.7049
  492MOL0     H66412   9.802   9.964   1.873  1.6839  1.3493  0.2048
  492MOL0     H66413   9.683  10.026   1.754 -0.6894  2.8463 -0.4072
  492MOL0     H66414   9.791  10.212   1.960 -1.9817  2.6151 -0.9857
  492MOL0     H66415   9.679  10.245   1.837  3.2606  0.1080 -2.4941
  492MOL0     H66416   9.401  10.090   2.100 -1.5486  0.5225 -1.3581
  492MOL0     H66417  10.201   9.788   1.614  1.8775  0.1189 -1.8392
  492MOL0     H66418  10.396   9.726   1.530 -1.7304  1.2549 -0.3828
  492MOL0     H66419  10.519   9.848   1.545 -0.2325 -0.6202 -0.7750
  492MOL0     H66420  10.527   9.692   1.647  0.2971  0.4972  1.3771
  493MOL0     O66421  11.157   7.716   4.368 -0.3673 -0.2764  0.1268
  493MOL0     C66422  11.104   7.761   4.468  0.0506  0.5356  0.5904
  493MOL0     O66423  11.162   7.817   4.576 -0.3234  0.4641 -0.0418
  493MOL0     C66424  11.289   7.862   4.564  0.1241  0.4147 -0.1045
  493MOL0     C66425  11.394   7.774   4.550  0.0537 -0.6403 -1.0825
  493MOL0     C66426  11.524   7.817   4.552 -0.4480  0.2393  0.0742
  493MOL0     C66427  11.557   7.952   4.567 -0.1671 -0.3695 -0.5209
  493MOL0     O66428  11.693   7.984   4.555  0.1701 -0.3962 -0.4728
  493MOL0     C66429  11.744   8.107   4.596  0.1584  0.5880  0.1116
  493MOL0     C66430  11.877   8.082   4.655 -1.0457  0.0960 -0.0525
  493MOL0     C66431  11.969   8.015   4.560 -0.5604  0.0113  0.4459
  493MOL0     C66432  12.105   7.966   4.622 -0.5261 -0.3871  0.2516
  493MOL0     C66433  12.208   8.088   4.627  0.1268  0.8450 -0.4490
  493MOL0     C66434  12.344   8.056   4.685 -0.3641 -0.2656 -0.1910
  493MOL0     C66435  12.439   8.170   4.653  0.2473 -0.7873  0.0631
  493MOL0     C66436  12.504   8.160   4.512 -0.0620  0.7652 -0.3169
  493MOL0     N66437  12.644   8.117   4.520 -0.8589 -0.9622 -0.1321
  493MOL0     C66438  12.683   7.983   4.528  0.3091 -0.3145 -0.3776
  493MOL0     C66439  12.817   7.989   4.546 -0.7719 -0.3703 -0.5644
  493MOL0     C66440  12.894   7.857   4.570 -0.4865  0.2890  0.7350
  493MOL0     C66441  12.936   7.859   4.711 -0.4676 -0.1711 -0.3019
  493MOL0     C66442  13.072   7.937   4.728 -0.5731 -0.4311 -0.0631
  493MOL0     C66443  13.191   7.849   4.688  0.5889 -0.5401 -0.0581
  493MOL0     O66444  13.304   7.930   4.693  0.0618 -0.1085 -0.4368
  493MOL0     C66445  13.434   7.869   4.700 -0.9632  0.0428  0.8158
  493MOL0     C66446  13.553   7.946   4.727  0.1954  0.1377 -0.2772
  493MOL0     C66447  13.683   7.890   4.717  1.0146  0.1736  0.1313
  493MOL0     C66448  13.698   7.754   4.686  0.0160 -0.8015 -0.8258
  493MOL0     C66449  13.834   7.698   4.688  0.5549 -0.3151 -0.4224
  493MOL0     O66450  13.930   7.782   4.728  0.6144  0.0836 -0.6038
  493MOL0     C66451  14.066   7.744   4.708  0.1083  0.4944  0.2692
  493MOL0     C66452  14.125   7.669   4.600 -0.1724 -0.9769 -0.1346
  493MOL0     C66453  14.266   7.639   4.607 -0.3078  0.4940 -0.6511
  493MOL0     C66454  14.345   7.692   4.715 -0.1406  0.2452 -0.1771
  493MOL0     O66455  14.480   7.651   4.715  0.3152 -0.2877 -0.3234
  493MOL0     C66456  14.564   7.678   4.825  0.4253 -0.3742 -0.4841
  493MOL0     C66457  14.679   7.583   4.827 -1.0008  0.4079 -0.1249
  493MOL0     C66458  14.810   7.648   4.871 -1.0607  0.4431  0.0309
  493MOL0     C66459  14.928   7.549   4.847  0.4736  0.1149 -1.1239
  493MOL0     C66460  15.059   7.607   4.902 -0.3264  0.0057  0.2362
  493MOL0     C66461  15.170   7.509   4.923 -0.0124  0.4213 -0.4671
  493MOL0     C66462  15.286   7.561   5.018  0.1364 -0.8473  0.1447
  493MOL0     C66463  15.241   7.582   5.164 -0.1880  0.5934 -0.3266
  493MOL0    Cl66464  15.395   7.636   5.254 -0.0088  0.1492  0.0536
  493MOL0     C66465  14.281   7.778   4.816 -0.1623  0.9761  1.1323
  493MOL0     C66466  14.145   7.794   4.817 -0.3175  0.4564 -0.7823
  493MOL0     O66467  13.849   7.579   4.677  0.4521  0.0996 -0.3632
  493MOL0     C66468  13.579   7.676   4.670 -0.6207  0.4346 -0.6768
  493MOL0     C66469  13.452   7.733   4.670 -0.6422  0.2454 -0.0952
  493MOL0     N66470  12.858   8.117   4.555  0.7555 -0.3271  0.4163
  493MOL0     N66471  12.754   8.194   4.544  0.1091  0.3984 -0.3426
  493MOL0     C66472  11.455   8.041   4.577  0.8564 -0.5566 -0.2369
  493MOL0     C66473  11.325   7.996   4.583 -0.0981  0.7249 -0.3737
  493MOL0     C66474  10.958   7.756   4.470  0.5423 -0.1600  0.2732
  493MOL0     C66475  10.892   7.846   4.554  0.5562 -0.5822 -0.1470
  493MOL0     C66476  10.755   7.857   4.559 -0.0609  0.6689  0.0939
  493MOL0     C66477  10.667   7.775   4.488  0.1082 -0.6900  0.0569
  493MOL0     O66478  10.537   7.777   4.516  0.7184 -0.1744 -0.2177
  493MOL0     C66479  10.446   7.689   4.443  0.1938  0.7287  0.2873
  493MOL0     C66480  10.306   7.705   4.496 -0.6602 -0.3163 -0.1865
  493MOL0     C66481  10.295   7.663   4.642 -0.0186 -0.0910  0.7513
  493MOL0     C66482  10.151   7.667   4.700  0.1264 -0.2376  1.0228
  493MOL0     C66483  10.070   7.545   4.666 -0.3334  0.5107  0.1273
  493MOL0     C66484  10.007   7.442   4.661  0.5566  0.3943  0.3117
  493MOL0     C66485  10.730   7.678   4.401 -0.2470  0.2000  0.5377
  493MOL0     C66486  10.869   7.674   4.393 -0.6979 -0.4621  0.0125
  493MOL0     C66487  10.917   7.562   4.319  0.3582  0.2655  1.5610
  493MOL0     H66488  11.377   7.668   4.530 -1.9643 -0.7411  0.7696
  493MOL0     H66489  11.601   7.751   4.513 -1.3231 -0.4070 -0.6127
  493MOL0     H66490  11.751   8.173   4.509  2.0529 -0.5669 -0.6813
  493MOL0     H66491  11.677   8.155   4.669  0.4165 -1.4830  1.7983
  493MOL0     H66492  11.866   8.025   4.747  0.3481  0.9901  0.6904
  493MOL0     H66493  11.923   8.179   4.675 -0.4932  0.1500 -1.4661
  493MOL0     H66494  11.991   8.073   4.469 -0.5370  2.4757  1.9376
  493MOL0     H66495  11.924   7.919   4.532 -0.1093 -0.2262  0.5413
  493MOL0     H66496  12.091   7.921   4.720 -2.5742 -2.4567 -0.8716
  493MOL0     H66497  12.149   7.883   4.565  0.6425  0.8337 -0.6780
  493MOL0     H66498  12.205   8.124   4.524  0.0103  0.4666 -0.5817
  493MOL0     H66499  12.156   8.163   4.688 -4.8494 -1.3373 -1.4967
  493MOL0     H66500  12.329   8.043   4.792  1.1094 -0.1863  0.0469
  493MOL0     H66501  12.379   7.962   4.641  0.4379  1.1650 -2.8391
  493MOL0     H66502  12.523   8.171   4.724 -0.5138  3.4400  1.1923
  493MOL0     H66503  12.392   8.269   4.664 -0.0988 -1.0264  0.7978
  493MOL0     H66504  12.452   8.085   4.452  0.6008 -0.7505  0.9361
  493MOL0     H66505  12.501   8.250   4.450  0.7483  2.0142  1.3596
  493MOL0     H66506  12.620   7.896   4.512 -1.1170  0.9787 -2.3125
  493MOL0     H66507  12.820   7.778   4.556 -0.8548  0.8309 -0.6167
  493MOL0     H66508  12.979   7.840   4.503 -0.1206 -0.0598  1.2844
  493MOL0     H66509  12.874   7.918   4.779 -0.6012  2.2183 -2.3474
  493MOL0     H66510  12.954   7.760   4.754  1.2645  0.5054  0.6227
  493MOL0     H66511  13.073   7.970   4.833  3.6036  0.4509 -0.2363
  493MOL0     H66512  13.071   8.028   4.668 -1.3349 -1.4935 -1.7250
  493MOL0     H66513  13.185   7.794   4.593  1.9052 -0.1692 -0.3857
  493MOL0     H66514  13.195   7.764   4.757  1.5822 -1.0394 -0.6946
  493MOL0     H66515  13.533   8.049   4.752 -3.3643 -0.0137 -1.9475
  493MOL0     H66516  13.765   7.957   4.743  1.2327  0.2714 -0.7816
  493MOL0     H66517  14.070   7.646   4.509 -3.1311 -0.1169  1.3088
  493MOL0     H66518  14.325   7.573   4.544  0.9863  0.7121  0.2956
  493MOL0     H66519  14.608   7.779   4.819 -2.6724  1.1401  0.3184
  493MOL0     H66520  14.518   7.675   4.924  1.6412 -2.6278  0.0788
  493MOL0     H66521  14.661   7.495   4.889  3.0862  0.6938  1.7946
  493MOL0     H66522  14.685   7.544   4.725  0.3372 -0.7794  0.3640
  493MOL0     H66523  14.825   7.742   4.817 -0.5043  1.0699  1.2560
  493MOL0     H66524  14.803   7.676   4.976  0.7685 -2.1454  0.9571
  493MOL0     H66525  14.933   7.520   4.742  0.2349  3.2818 -2.1102
  493MOL0     H66526  14.907   7.458   4.905  1.4833 -0.4042 -1.5537
  493MOL0     H66527  15.029   7.649   4.999  1.4853  2.9645 -0.3749
  493MOL0     H66528  15.091   7.695   4.846 -0.6358  0.2152  0.3834
  493MOL0     H66529  15.138   7.411   4.958  1.8431 -1.1420 -2.7884
  493MOL0     H66530  15.205   7.496   4.820  0.5329  0.0254 -0.2356
  493MOL0     H66531  15.322   7.652   4.971 -2.0356 -0.9116 -1.8549
  493MOL0     H66532  15.367   7.487   5.020  0.0331 -0.9882 -0.5988
  493MOL0     H66533  15.164   7.658   5.181 -1.0410 -0.6256  1.6387
  493MOL0     H66534  15.203   7.489   5.207 -0.7434  0.9599 -0.0002
  493MOL0     H66535  14.336   7.807   4.905  1.9283 -1.4568  0.7728
  493MOL0     H66536  14.099   7.841   4.904 -2.1409 -1.2822 -0.7160
  493MOL0     H66537  13.593   7.569   4.658 -1.5300  0.5302 -3.2866
  493MOL0     H66538  13.369   7.671   4.638 -0.6219  0.6206 -0.9077
  493MOL0     H66539  11.475   8.145   4.600 -3.3165  1.0016 -2.5595
  493MOL0     H66540  11.239   8.057   4.608 -0.7222 -0.2655 -0.0178
  493MOL0     H66541  10.949   7.915   4.614  1.9347  0.2838 -2.3266
  493MOL0     H66542  10.714   7.933   4.626  0.4546 -0.0874  1.2886
  493MOL0     H66543  10.487   7.588   4.459  2.5122  1.4322 -0.7744
  493MOL0     H66544  10.440   7.719   4.338 -1.9858  2.1710  0.7546
  493MOL0     H66545  10.241   7.636   4.441 -0.7537 -1.9197  1.7851
  493MOL0     H66546  10.274   7.809   4.488 -2.5705 -0.4622  3.3392
  493MOL0     H66547  10.357   7.731   4.703 -0.6628  2.1239 -0.9484
  493MOL0     H66548  10.327   7.559   4.648 -0.5303 -0.4336 -1.6529
  493MOL0     H66549  10.164   7.660   4.808 -0.7071  0.3521  1.1799
  493MOL0     H66550  10.089   7.751   4.667  0.5504 -0.8387 -1.4702
  493MOL0     H66551   9.947   7.353   4.661 -0.3695  0.9609 -1.6727
  493MOL0     H66552  10.668   7.612   4.340  0.6753 -2.4978  2.3548
  493MOL0     H66553  10.842   7.489   4.286 -0.5877  2.6371 -2.1279
  493MOL0     H66554  10.971   7.603   4.233 -0.0681 -0.8485  0.7385
  493MOL0     H66555  10.993   7.505   4.373  1.9257 -1.2545 -1.9290
  494MOL0     O66556   3.662   2.852   4.644 -0.2615 -0.0517  0.9021
  494MOL0     C66557   3.645   2.744   4.582  0.4760 -0.6851 -0.5154
  494MOL0     O66558   3.741   2.648   4.562 -0.0069 -0.2695 -0.1275
  494MOL0     C66559   3.873   2.683   4.548  0.5402 -0.3328 -0.3771
  494MOL0     C66560   3.917   2.730   4.428 -0.0738  0.2955 -0.0431
  494MOL0     C66561   4.052   2.779   4.422  0.4717 -0.2215  0.7036
  494MOL0     C66562   4.133   2.779   4.536 -0.1825  0.9467 -0.1667
  494MOL0     O66563   4.268   2.810   4.527 -0.2023  0.0343  0.2113
  494MOL0     C66564   4.338   2.816   4.657 -0.4644 -0.2995  0.5655
  494MOL0     C66565   4.488   2.858   4.628  0.9906 -0.4980  0.0989
  494MOL0     C66566   4.572   2.740   4.568  0.0593  0.3384 -0.3843
  494MOL0     C66567   4.722   2.796   4.558  0.2798 -0.2184  1.8128
  494MOL0     C66568   4.815   2.698   4.498 -0.3676  0.6173 -0.6935
  494MOL0     C66569   4.954   2.764   4.467 -0.6278 -1.0755 -0.2466
  494MOL0     C66570   5.055   2.669   4.418 -0.1258  0.0703 -0.0235
  494MOL0     C66571   5.190   2.747   4.411 -0.4418  0.8991 -0.8664
  494MOL0     N66572   5.305   2.660   4.375 -0.4230 -0.0132 -0.0160
  494MOL0     C66573   5.370   2.644   4.253  0.5002  0.9124 -0.4296
  494MOL0     C66574   5.496   2.604   4.287 -0.5847 -0.7469 -1.0238
  494MOL0     C66575   5.603   2.592   4.188  0.4200  0.6823 -0.9346
  494MOL0     C66576   5.649   2.723   4.127  0.4444 -0.0215 -0.3065
  494MOL0     C66577   5.709   2.824   4.223 -0.5858 -0.3106 -0.2999
  494MOL0     C66578   5.816   2.760   4.313 -0.0578 -0.8099 -0.0745
  494MOL0     O66579   5.868   2.875   4.388  0.4943 -0.0926 -0.4830
  494MOL0     C66580   5.991   2.882   4.434  0.1682  0.1541 -0.1922
  494MOL0     C66581   6.012   2.963   4.543  0.1145 -0.0060  0.1112
  494MOL0     C66582   6.145   2.974   4.598 -0.2321 -0.0691 -0.2886
  494MOL0     C66583   6.247   2.899   4.543 -0.3802  0.1021  0.4835
  494MOL0     C66584   6.386   2.909   4.587 -1.0882  0.2494  0.5969
  494MOL0     O66585   6.476   2.865   4.487 -0.2605 -0.4716 -0.5280
  494MOL0     C66586   6.613   2.882   4.478 -0.0661  0.0120  0.4361
  494MOL0     C66587   6.691   2.974   4.551  0.1549 -0.3318 -1.3801
  494MOL0     C66588   6.819   2.990   4.523 -0.7977  0.3008 -0.1589
  494MOL0     C66589   6.881   2.914   4.423 -1.0171 -0.6005 -0.7300
  494MOL0     O66590   7.008   2.937   4.385  0.1109 -0.5701  0.0145
  494MOL0     C66591   7.112   2.959   4.483 -0.8224  0.2720 -0.4501
  494MOL0     C66592   7.249   2.951   4.412  0.6827 -0.1389 -0.4431
  494MOL0     C66593   7.262   3.067   4.310  0.6744  0.2923 -0.0526
  494MOL0     C66594   7.304   3.201   4.382  0.2895 -0.2418  0.1676
  494MOL0     C66595   7.348   3.311   4.280  0.2236 -0.5076  0.1043
  494MOL0     C66596   7.399   3.433   4.357 -0.6616 -0.6327  0.1465
  494MOL0     C66597   7.475   3.537   4.274 -0.1352 -0.2999 -0.4306
  494MOL0     C66598   7.488   3.674   4.345 -0.9844  0.4326 -0.3407
  494MOL0    Cl66599   7.621   3.766   4.272  0.0744  0.1314  0.2174
  494MOL0     C66600   6.812   2.823   4.356  0.1721  0.5864  0.4917
  494MOL0     C66601   6.676   2.795   4.388  0.0783  0.3504 -0.1595
  494MOL0     O66602   6.422   2.966   4.693 -0.0563 -0.3187 -0.1180
  494MOL0     C66603   6.219   2.821   4.434 -0.6958  1.0748  0.4376
  494MOL0     C66604   6.097   2.820   4.373  0.0453  0.4551  0.3550
  494MOL0     N66605   5.499   2.574   4.421 -0.0282 -0.5315  0.6339
  494MOL0     N66606   5.386   2.613   4.475  0.4463  0.0921 -0.6340
  494MOL0     C66607   4.070   2.739   4.655 -0.6559  0.1089 -0.4444
  494MOL0     C66608   3.947   2.688   4.665  0.2142  0.1605  0.0252
  494MOL0     C66609   3.500   2.714   4.548  0.4037  0.0668  0.2529
  494MOL0     C66610   3.458   2.575   4.544 -0.2719  0.1957 -0.0500
  494MOL0     C66611   3.328   2.537   4.507 -0.3238  0.2256  1.0320
  494MOL0     C66612   3.237   2.633   4.473  0.4144  0.0700 -0.6707
  494MOL0     O66613   3.112   2.582   4.449  0.0552  0.5075 -0.2114
  494MOL0     C66614   3.031   2.654   4.359 -0.2211 -0.2872  0.3904
  494MOL0     C66615   2.927   2.565   4.284  0.0401  0.3579  0.0296
  494MOL0     C66616   2.810   2.519   4.381  0.5480  0.0101  0.5896
  494MOL0     C66617   2.715   2.409   4.325  0.0096  0.5309 -0.7576
  494MOL0     C66618   2.639   2.452   4.206  0.2244  0.3327 -0.2793
  494MOL0     C66619   2.563   2.490   4.112  0.7643  0.6952  0.2657
  494MOL0     C66620   3.272   2.766   4.480  0.2964 -0.6217  0.5170
  494MOL0     C66621   3.396   2.806   4.524  0.1970 -0.1244 -0.5779
  494MOL0     C66622   3.409   2.951   4.549  0.3261  0.0860  0.1428
  494MOL0     H66623   3.848   2.722   4.345 -0.0495  0.7961 -0.1195
  494MOL0     H66624   4.089   2.820   4.328 -0.1779  2.8480  1.7025
  494MOL0     H66625   4.287   2.895   4.713 -1.6125  0.3286 -1.2647
  494MOL0     H66626   4.338   2.728   4.721  0.0936 -0.9915 -0.3526
  494MOL0     H66627   4.524   2.881   4.729 -3.0334  2.7509  1.0625
  494MOL0     H66628   4.491   2.944   4.561 -1.2962 -1.3587 -1.2036
  494MOL0     H66629   4.524   2.713   4.473  2.5063  0.5291 -1.7643
  494MOL0     H66630   4.567   2.653   4.634  2.2453 -0.2225 -0.8872
  494MOL0     H66631   4.725   2.886   4.497 -0.7656  0.5038  2.7800
  494MOL0     H66632   4.743   2.827   4.661 -1.3944  1.1471  1.7798
  494MOL0     H66633   4.810   2.608   4.560  1.2155  1.3563  0.5611
  494MOL0     H66634   4.760   2.673   4.407  0.1536  1.3315 -1.2184
  494MOL0     H66635   4.936   2.834   4.385 -0.8579  2.6960  2.7232
  494MOL0     H66636   4.993   2.835   4.542 -0.9473 -0.1848 -0.9106
  494MOL0     H66637   5.018   2.637   4.320 -0.7756  2.3293 -0.5632
  494MOL0     H66638   5.065   2.583   4.485  0.3162  0.1782  0.0497
  494MOL0     H66639   5.207   2.829   4.339  1.5994 -0.7330 -2.3618
  494MOL0     H66640   5.211   2.799   4.505  2.2677 -0.4022 -0.6441
  494MOL0     H66641   5.335   2.675   4.155  1.8651  0.9562 -0.9385
  494MOL0     H66642   5.683   2.539   4.240  3.4825  3.7651 -2.0908
  494MOL0     H66643   5.568   2.524   4.110  0.0824  1.3076 -1.3378
  494MOL0     H66644   5.736   2.695   4.068  0.9806 -2.2622  1.4174
  494MOL0     H66645   5.573   2.778   4.069 -0.0012  1.4731  1.5777
  494MOL0     H66646   5.641   2.881   4.287  0.5925 -0.2595  0.9503
  494MOL0     H66647   5.757   2.889   4.149 -0.0419 -0.3648  0.0042
  494MOL0     H66648   5.895   2.707   4.258  1.9049  1.2173  0.6324
  494MOL0     H66649   5.756   2.697   4.379 -0.4530  0.8679  1.2294
  494MOL0     H66650   5.929   3.004   4.601  0.7985  0.6612  0.6428
  494MOL0     H66651   6.166   3.029   4.690 -0.4462  1.5709 -1.1693
  494MOL0     H66652   6.645   3.039   4.625  1.0875 -0.7630 -0.3979
  494MOL0     H66653   6.873   3.069   4.574 -2.1828  1.5497 -0.5499
  494MOL0     H66654   7.096   3.057   4.530  1.3776  0.3825  0.1538
  494MOL0     H66655   7.110   2.885   4.563 -0.8262  1.3131  0.5423
  494MOL0     H66656   7.329   2.957   4.486  1.6098  3.7093 -1.5425
  494MOL0     H66657   7.249   2.852   4.364 -1.5409 -0.9789  1.1063
  494MOL0     H66658   7.350   3.053   4.247  1.6340  1.4091  0.9737
  494MOL0     H66659   7.179   3.072   4.239  1.7905 -0.5399 -1.4720
  494MOL0     H66660   7.390   3.180   4.447  0.3122 -0.9949 -0.0977
  494MOL0     H66661   7.224   3.241   4.445  1.2063  2.0942 -0.0353
  494MOL0     H66662   7.263   3.330   4.214  1.0030  2.1468 -0.2365
  494MOL0     H66663   7.434   3.272   4.225  0.3063  0.5457 -0.5340
  494MOL0     H66664   7.322   3.490   4.410 -1.2765  0.1716 -1.5507
  494MOL0     H66665   7.470   3.398   4.433  2.8643  1.4126 -1.9042
  494MOL0     H66666   7.427   3.542   4.176  2.5884  1.7352 -1.8127
  494MOL0     H66667   7.572   3.491   4.250 -1.2344 -1.4121 -3.1751
  494MOL0     H66668   7.396   3.727   4.319 -0.3585  0.5047 -2.6188
  494MOL0     H66669   7.502   3.660   4.452 -1.3437 -2.0360 -0.5725
  494MOL0     H66670   6.854   2.757   4.281 -1.1087  0.6324 -0.2952
  494MOL0     H66671   6.612   2.729   4.329 -1.8003  2.5985 -0.7915
  494MOL0     H66672   6.304   2.773   4.387 -2.3118 -1.6536  0.1084
  494MOL0     H66673   6.098   2.762   4.282  1.2166  0.2728  0.4704
  494MOL0     H66674   4.125   2.731   4.748 -2.1251 -1.0919  0.3461
  494MOL0     H66675   3.902   2.647   4.754  0.1940  1.8034  0.8021
  494MOL0     H66676   3.531   2.498   4.567  0.1555  0.5426 -0.2177
  494MOL0     H66677   3.300   2.432   4.496 -0.6664  0.4913 -1.0531
  494MOL0     H66678   3.076   2.705   4.274  1.3186  1.0104  1.9229
  494MOL0     H66679   2.976   2.729   4.416 -1.7244  0.5548 -2.0457
  494MOL0     H66680   2.980   2.476   4.249  2.1041  2.3130 -2.2334
  494MOL0     H66681   2.894   2.625   4.199 -1.3528  1.5144  1.3151
  494MOL0     H66682   2.758   2.613   4.403  0.8112  0.0697  0.9798
  494MOL0     H66683   2.849   2.482   4.476  0.9552  2.7905  1.5886
  494MOL0     H66684   2.775   2.319   4.306  0.5836  1.4941 -3.9968
  494MOL0     H66685   2.635   2.388   4.397  0.7733  0.9662  0.2454
  494MOL0     H66686   2.493   2.518   4.036 -2.3283 -0.5550  2.4329
  494MOL0     H66687   3.199   2.843   4.455  0.2095 -1.1958 -1.1500
  494MOL0     H66688   3.399   2.962   4.658  0.8672  0.2048  0.1848
  494MOL0     H66689   3.497   2.997   4.504 -0.3053  0.1287 -1.0635
  494MOL0     H66690   3.324   3.010   4.514  0.9206  1.8832  1.5666
  495MOL0     O66691   9.927   2.953   1.918 -0.7699  0.0216  0.3154
  495MOL0     C66692   9.948   2.833   1.916  0.3486  0.4207  0.5465
  495MOL0     O66693   9.982   2.764   1.810 -0.1137 -0.1083 -0.0272
  495MOL0     C66694  10.033   2.831   1.700 -0.4221  0.0924 -0.6849
  495MOL0     C66695   9.952   2.880   1.601 -0.0849  0.4547  0.2192
  495MOL0     C66696  10.004   2.933   1.483 -0.4903  0.5083 -0.0832
  495MOL0     C66697  10.149   2.938   1.471 -0.5497  0.0645  0.5945
  495MOL0     O66698  10.208   2.972   1.352  0.1927 -0.2655 -0.0280
  495MOL0     C66699  10.135   2.928   1.237 -0.4874  0.4522  0.4446
  495MOL0     C66700  10.242   2.922   1.115  0.5285  0.0342  0.2330
  495MOL0     C66701  10.352   2.819   1.139 -0.7639 -0.1481 -0.0933
  495MOL0     C66702  10.444   2.770   1.021 -0.3130 -0.1494 -0.5723
  495MOL0     C66703  10.566   2.857   1.013  1.0881  0.5189  0.0375
  495MOL0     C66704  10.679   2.835   1.109  0.0840 -0.6791 -0.5056
  495MOL0     C66705  10.790   2.942   1.062  0.4211  0.1740  0.1115
  495MOL0     C66706  10.863   2.895   0.948  0.0370 -0.2705  0.7017
  495MOL0     N66707  10.985   2.975   0.920  0.3396  0.6383  0.6339
  495MOL0     C66708  11.098   2.990   1.001  0.5641  0.1335 -0.3230
  495MOL0     C66709  11.160   3.094   0.947  0.0404 -0.1723  0.3472
  495MOL0     C66710  11.301   3.149   0.967 -0.2770  0.6450 -0.2516
  495MOL0     C66711  11.413   3.042   0.946 -0.1749  0.0934  0.3770
  495MOL0     C66712  11.472   3.062   0.811  0.7114  0.2392  0.3952
  495MOL0     C66713  11.578   2.969   0.775  0.0825 -0.2033 -0.3483
  495MOL0     O66714  11.697   3.007   0.851 -0.3430 -0.4225  0.2001
  495MOL0     C66715  11.799   2.910   0.837 -0.0097  0.1796  0.2092
  495MOL0     C66716  11.781   2.778   0.772 -0.5432 -0.4404 -0.2047
  495MOL0     C66717  11.896   2.698   0.760 -0.2571  0.3748 -0.1990
  495MOL0     C66718  12.021   2.743   0.805  0.7130 -0.7356 -0.4901
  495MOL0     C66719  12.136   2.649   0.804  0.3021  0.1352  0.1143
  495MOL0     O66720  12.113   2.527   0.749 -0.1045 -0.2442 -0.0028
  495MOL0     C66721  12.208   2.435   0.743  0.2766 -0.0397  0.1334
  495MOL0     C66722  12.336   2.457   0.705 -0.5309 -0.2335  0.5590
  495MOL0     C66723  12.423   2.350   0.702  0.1278 -0.7648  0.6841
  495MOL0     C66724  12.381   2.219   0.733 -0.5757 -0.1412 -0.4797
  495MOL0     O66725  12.475   2.123   0.730  0.5840  1.0573  0.5157
  495MOL0     C66726  12.429   1.984   0.753 -0.2390 -0.5156 -0.7061
  495MOL0     C66727  12.542   1.888   0.745 -0.7243 -0.3902  0.7026
  495MOL0     C66728  12.485   1.747   0.773 -0.5881  0.0590 -0.2878
  495MOL0     C66729  12.583   1.626   0.778  0.5139  0.5489 -0.3164
  495MOL0     C66730  12.507   1.494   0.805 -0.7688  0.3286 -0.2937
  495MOL0     C66731  12.575   1.360   0.782 -0.2402  0.5371  0.4409
  495MOL0     C66732  12.605   1.327   0.638  0.9731  0.8444 -0.0658
  495MOL0     C66733  12.686   1.196   0.634  0.1736 -0.5634  0.3343
  495MOL0    Cl66734  12.735   1.150   0.472 -0.3469  0.3431 -0.2308
  495MOL0     C66735  12.250   2.200   0.768  0.2588  0.6595 -0.8285
  495MOL0     C66736  12.157   2.308   0.774 -0.1070 -0.1321  0.1239
  495MOL0     O66737  12.241   2.696   0.842  0.1035  0.0024 -0.1279
  495MOL0     C66738  12.031   2.870   0.871  0.3805  0.4945 -0.4561
  495MOL0     C66739  11.921   2.950   0.884 -0.9217 -0.1221 -0.5836
  495MOL0     N66740  11.080   3.148   0.840  0.8445  0.5111 -0.1697
  495MOL0     N66741  10.978   3.071   0.824 -0.0466  0.7075  0.6084
  495MOL0     C66742  10.232   2.894   1.579 -0.2331 -0.0668  0.8268
  495MOL0     C66743  10.177   2.840   1.685  0.4529 -1.3133 -0.4642
  495MOL0     C66744   9.929   2.753   2.038  0.1349  0.4159 -0.2417
  495MOL0     C66745   9.951   2.610   2.041 -0.8877 -0.3607  0.2155
  495MOL0     C66746   9.923   2.527   2.151  0.5199 -0.6454 -0.3468
  495MOL0     C66747   9.870   2.583   2.271  0.2895  0.1641 -0.4004
  495MOL0     O66748   9.825   2.493   2.361  0.1199  0.1682  0.2608
  495MOL0     C66749   9.729   2.527   2.466  0.4451 -0.0412 -0.0072
  495MOL0     C66750   9.718   2.400   2.552  0.0007 -0.2343  0.6475
  495MOL0     C66751   9.604   2.303   2.501  0.3667 -0.1970  0.4870
  495MOL0     C66752   9.472   2.305   2.580  0.3771 -0.4413  0.3805
  495MOL0     C66753   9.393   2.425   2.552  0.0505  0.4414 -0.0770
  495MOL0     C66754   9.313   2.517   2.535  0.0649 -0.1569  0.4247
  495MOL0     C66755   9.836   2.713   2.265 -0.1963  0.5096 -0.5213
  495MOL0     C66756   9.863   2.794   2.150 -0.6264  0.2946 -0.7895
  495MOL0     C66757   9.790   2.925   2.146 -0.2211 -0.0578 -0.2410
  495MOL0     H66758   9.844   2.876   1.612 -0.1046 -1.7774 -0.2751
  495MOL0     H66759   9.933   2.974   1.412 -0.1085 -0.5121 -1.0843
  495MOL0     H66760  10.096   2.826   1.246  4.0307 -1.5841 -0.3355
  495MOL0     H66761  10.049   2.991   1.210 -3.0824 -1.8968  2.5577
  495MOL0     H66762  10.282   3.022   1.094  0.3099  0.2023  0.6072
  495MOL0     H66763  10.181   2.892   1.030 -0.2889  0.7983  0.5412
  495MOL0     H66764  10.312   2.728   1.185  1.6753 -0.8872  0.7516
  495MOL0     H66765  10.424   2.866   1.207 -0.1897  0.7413 -1.2957
  495MOL0     H66766  10.477   2.667   1.039  0.4872 -0.2330 -2.3391
  495MOL0     H66767  10.374   2.771   0.937  0.8347 -1.6129 -1.5922
  495MOL0     H66768  10.599   2.841   0.909  0.6844  2.4623 -0.4270
  495MOL0     H66769  10.525   2.958   1.023 -1.1036  0.0249 -2.5304
  495MOL0     H66770  10.652   2.845   1.214  0.8238 -3.1368 -0.0117
  495MOL0     H66771  10.717   2.733   1.110  0.3186 -0.5957 -0.7216
  495MOL0     H66772  10.860   2.958   1.144  0.4148 -1.6541  0.5142
  495MOL0     H66773  10.739   3.035   1.035 -3.3279 -1.9968 -1.0709
  495MOL0     H66774  10.900   2.794   0.965  0.0075 -0.1952  1.2452
  495MOL0     H66775  10.804   2.892   0.856 -0.2809  1.1392  0.8273
  495MOL0     H66776  11.132   2.917   1.074  0.6653 -0.1408 -0.6397
  495MOL0     H66777  11.310   3.242   0.909 -4.8796  2.6243  1.7412
  495MOL0     H66778  11.320   3.175   1.072 -0.6675  0.0590 -0.0337
  495MOL0     H66779  11.487   3.064   1.023  0.8571  1.0847 -0.8609
  495MOL0     H66780  11.364   2.944   0.956  0.4764  0.0012  5.3658
  495MOL0     H66781  11.505   3.166   0.806 -1.5255  1.2060  2.9847
  495MOL0     H66782  11.393   3.043   0.738  1.0044 -0.1322  0.1738
  495MOL0     H66783  11.597   2.964   0.668 -1.2588  0.1824 -0.6236
  495MOL0     H66784  11.536   2.870   0.796  0.2336 -0.4378 -1.1322
  495MOL0     H66785  11.689   2.741   0.727 -1.4715  2.4986 -0.9081
  495MOL0     H66786  11.888   2.602   0.712 -1.1860 -0.8289  2.2177
  495MOL0     H66787  12.368   2.557   0.677 -2.9885  0.9539  1.6697
  495MOL0     H66788  12.528   2.363   0.678  0.0678 -1.0977  0.2054
  495MOL0     H66789  12.378   1.970   0.849  0.2959  1.4418 -0.0734
  495MOL0     H66790  12.375   1.962   0.661  0.6237 -1.2577 -1.0403
  495MOL0     H66791  12.592   1.892   0.648  1.0243  2.4145  1.6158
  495MOL0     H66792  12.627   1.913   0.808 -0.7209 -0.7973  0.8685
  495MOL0     H66793  12.429   1.750   0.867 -0.1047  0.3262 -0.0048
  495MOL0     H66794  12.419   1.718   0.691  0.4927 -1.8449 -0.5340
  495MOL0     H66795  12.652   1.651   0.859  0.6098 -0.3306 -0.1200
  495MOL0     H66796  12.643   1.623   0.687  1.2297 -0.3753  0.1766
  495MOL0     H66797  12.421   1.490   0.739 -0.0456 -0.1882 -1.2322
  495MOL0     H66798  12.464   1.501   0.906  0.4173  0.1716  0.2484
  495MOL0     H66799  12.674   1.347   0.827 -1.1681 -0.1899  2.3821
  495MOL0     H66800  12.502   1.291   0.824  0.5650  0.3869  1.6622
  495MOL0     H66801  12.666   1.408   0.597  2.7904  0.5254  1.8590
  495MOL0     H66802  12.512   1.305   0.584  0.1884 -0.1036  1.6122
  495MOL0     H66803  12.771   1.192   0.703  0.8406 -0.2831 -0.4481
  495MOL0     H66804  12.617   1.128   0.685 -2.8866  1.8741 -0.2243
  495MOL0     H66805  12.215   2.102   0.800 -1.2607  1.0518 -1.2268
  495MOL0     H66806  12.055   2.299   0.810 -0.0781 -0.1810  0.1957
  495MOL0     H66807  12.125   2.906   0.913  1.0975  0.3999 -1.8933
  495MOL0     H66808  11.927   3.047   0.932  2.0429 -0.0290 -0.9549
  495MOL0     H66809  10.340   2.903   1.584 -0.1498 -1.4921  2.1901
  495MOL0     H66810  10.230   2.798   1.770 -1.5123  0.5423  1.8337
  495MOL0     H66811  10.009   2.570   1.959 -1.5281  0.1764 -0.5049
  495MOL0     H66812   9.940   2.420   2.140  2.5987 -0.2676 -1.3448
  495MOL0     H66813   9.630   2.563   2.434 -1.8592 -3.2744  2.8416
  495MOL0     H66814   9.773   2.600   2.535  0.9302  0.7199 -1.0761
  495MOL0     H66815   9.700   2.430   2.656 -2.3084  3.0270 -0.5341
  495MOL0     H66816   9.814   2.349   2.555 -0.7470 -1.6452  2.3592
  495MOL0     H66817   9.656   2.207   2.499  0.9596 -0.0691 -4.7540
  495MOL0     H66818   9.585   2.329   2.396  1.7627 -0.1669  0.2218
  495MOL0     H66819   9.412   2.222   2.543 -1.6434  0.7948  0.7093
  495MOL0     H66820   9.483   2.282   2.686  1.4559 -0.5329  0.2638
  495MOL0     H66821   9.243   2.594   2.510  0.6752  0.2679  0.0211
  495MOL0     H66822   9.773   2.744   2.348 -2.2938  2.4714 -2.6975
  495MOL0     H66823   9.729   2.932   2.056 -0.7030 -1.1644 -0.0220
  495MOL0     H66824   9.709   2.921   2.219 -0.2302  0.5145 -0.2176
  495MOL0     H66825   9.865   3.003   2.163  0.3354 -0.8476  1.2008
  496MOL0     O66826  10.056   8.021   8.621  0.1450 -0.3139 -0.2414
  496MOL0     C66827   9.947   8.070   8.589 -0.7734 -1.1276  0.7305
  496MOL0     O66828   9.923   8.208   8.583  0.7021 -0.3972 -0.4268
  496MOL0     C66829  10.025   8.294   8.624  0.2236 -0.1998 -0.2526
  496MOL0     C66830  10.075   8.279   8.753 -0.4256  0.5564 -0.1895
  496MOL0     C66831  10.194   8.356   8.790 -0.3953  0.0790 -0.2105
  496MOL0     C66832  10.252   8.440   8.695  0.0603 -0.3434  0.0360
  496MOL0     O66833  10.360   8.516   8.713 -0.2939  0.0725 -0.8934
  496MOL0     C66834  10.345   8.631   8.804 -0.0380 -0.0686 -0.4604
  496MOL0     C66835  10.403   8.611   8.945  0.6238 -0.8484  0.7967
  496MOL0     C66836  10.553   8.628   8.950  0.1636 -0.2938  0.5316
  496MOL0     C66837  10.593   8.773   8.968 -0.5868  0.3775  0.1796
  496MOL0     C66838  10.740   8.785   9.023 -0.2588 -0.5959 -0.0394
  496MOL0     C66839  10.843   8.719   8.926  0.9081 -0.4987 -0.6965
  496MOL0     C66840  10.990   8.739   8.981 -0.5373  0.1319 -0.0239
  496MOL0     C66841  11.092   8.660   8.896 -0.4379 -1.0708  0.7484
  496MOL0     N66842  11.225   8.701   8.930 -0.3554 -0.1981  0.1176
  496MOL0     C66843  11.300   8.644   9.023  0.1556  0.6455  0.0111
  496MOL0     C66844  11.422   8.707   9.013 -0.2289  0.5979 -0.1990
  496MOL0     C66845  11.546   8.678   9.101 -1.1600  1.8038  0.3010
  496MOL0     C66846  11.677   8.765   9.072 -0.1953 -0.6272 -0.5242
  496MOL0     C66847  11.793   8.711   9.148  0.3306  0.3034  0.0850
  496MOL0     C66848  11.910   8.802   9.128 -0.6945 -0.1938  0.9265
  496MOL0     O66849  11.993   8.729   9.220 -0.4623 -0.2176 -0.2299
  496MOL0     C66850  12.127   8.759   9.228 -0.2835 -0.2711 -0.6218
  496MOL0     C66851  12.205   8.832   9.134  0.0159  0.7426 -0.4022
  496MOL0     C66852  12.342   8.851   9.141  0.0869  0.5280  0.6870
  496MOL0     C66853  12.421   8.790   9.240 -0.0600  0.8376  0.6891
  496MOL0     C66854  12.575   8.789   9.231  0.7466  0.0283 -0.7507
  496MOL0     O66855  12.639   8.762   9.352  0.4679 -0.0643 -0.9639
  496MOL0     C66856  12.779   8.769   9.375 -0.2107 -0.2388  0.7864
  496MOL0     C66857  12.873   8.836   9.294 -0.1415  0.2785  0.6565
  496MOL0     C66858  13.008   8.831   9.336 -0.1663 -0.2057  0.1338
  496MOL0     C66859  13.057   8.771   9.454  0.6326 -0.5173 -0.5755
  496MOL0     O66860  13.189   8.756   9.501  0.9491  0.8940 -0.3640
  496MOL0     C66861  13.285   8.817   9.423  0.3000  0.1047 -0.2014
  496MOL0     C66862  13.324   8.745   9.292 -1.0218 -0.4236  0.9286
  496MOL0     C66863  13.384   8.845   9.193 -1.0863 -1.2746  0.4332
  496MOL0     C66864  13.522   8.884   9.224 -0.6852 -0.9433 -0.4608
  496MOL0     C66865  13.575   8.998   9.127  0.5359  0.7646 -0.1265
  496MOL0     C66866  13.722   9.029   9.114 -0.8635  0.9667 -0.7193
  496MOL0     C66867  13.811   8.900   9.111  1.0440 -0.1522  0.3831
  496MOL0     C66868  13.963   8.909   9.113  0.0685  1.0926 -0.2406
  496MOL0    Cl66869  14.038   8.985   8.961  0.1468 -0.2878 -0.1337
  496MOL0     C66870  12.959   8.710   9.533 -0.2289  0.5313 -0.1790
  496MOL0     C66871  12.821   8.718   9.493 -0.6840  0.2508 -1.0206
  496MOL0     O66872  12.633   8.823   9.132  0.4814  0.5249  0.4355
  496MOL0     C66873  12.346   8.724   9.342  0.5154 -0.3236  0.0959
  496MOL0     C66874  12.202   8.713   9.334 -0.3632 -0.5961  0.6747
  496MOL0     N66875  11.414   8.807   8.920 -1.3868  0.4725 -0.1987
  496MOL0     N66876  11.297   8.805   8.868  0.5865 -1.2165 -0.5489
  496MOL0     C66877  10.197   8.444   8.571 -0.1006  0.1848  0.3170
  496MOL0     C66878  10.087   8.380   8.529 -0.1222 -0.1541 -0.7992
  496MOL0     C66879   9.839   7.975   8.535 -0.0058 -0.0858  0.3817
  496MOL0     C66880   9.769   8.037   8.427  0.2046 -0.0096  0.6970
  496MOL0     C66881   9.665   7.962   8.356 -0.1516 -0.4150  0.4081
  496MOL0     C66882   9.624   7.840   8.406  0.4194 -0.2139  0.4843
  496MOL0     O66883   9.524   7.774   8.343 -0.2523 -0.5279  0.4464
  496MOL0     C66884   9.395   7.832   8.377  0.0672 -0.1933  0.2392
  496MOL0     C66885   9.291   7.726   8.380  1.0426  0.4054 -0.1279
  496MOL0     C66886   9.251   7.701   8.237 -0.1801 -0.9068  0.4714
  496MOL0     C66887   9.161   7.585   8.220  0.3977  0.7064 -0.2392
  496MOL0     C66888   9.060   7.586   8.328 -0.1870 -0.2003 -0.5558
  496MOL0     C66889   8.961   7.595   8.396 -0.1783 -0.7580  0.3205
  496MOL0     C66890   9.698   7.772   8.509 -0.8463 -0.3929 -0.5448
  496MOL0     C66891   9.808   7.842   8.572  0.4476  0.1173  0.2174
  496MOL0     C66892   9.889   7.763   8.678 -0.7809 -0.1262  0.2872
  496MOL0     H66893  10.033   8.212   8.827  4.6273  0.1842  2.8400
  496MOL0     H66894  10.226   8.348   8.894 -3.4835 -1.2912  0.7752
  496MOL0     H66895  10.382   8.720   8.754  1.1616  1.1181  2.3473
  496MOL0     H66896  10.240   8.661   8.813  0.7184  3.5975 -2.2143
  496MOL0     H66897  10.373   8.511   8.980  1.2685  0.0098  4.1370
  496MOL0     H66898  10.360   8.683   9.015  2.1232 -2.2140  3.2592
  496MOL0     H66899  10.607   8.580   8.869  1.1824 -0.5586  1.3473
  496MOL0     H66900  10.584   8.580   9.043 -1.1820  0.0965  1.2105
  496MOL0     H66901  10.570   8.816   8.870  1.9648 -3.0215 -2.1659
  496MOL0     H66902  10.537   8.822   9.047 -0.2079  3.4643 -1.2922
  496MOL0     H66903  10.766   8.890   9.044 -2.0485  0.0901 -0.9922
  496MOL0     H66904  10.750   8.731   9.118  0.1796  0.7697  0.7198
  496MOL0     H66905  10.822   8.613   8.941  1.7115 -0.5735 -0.0287
  496MOL0     H66906  10.829   8.748   8.821 -1.9346  1.2441  0.0632
  496MOL0     H66907  10.998   8.706   9.085 -1.4739  0.4259  0.1538
  496MOL0     H66908  11.016   8.845   8.974  1.5039  0.1414  4.4947
  496MOL0     H66909  11.070   8.553   8.895  0.8272 -1.3504 -0.1850
  496MOL0     H66910  11.082   8.693   8.792 -2.1124 -0.9897  0.9138
  496MOL0     H66911  11.254   8.570   9.088 -1.9000  1.3091 -0.6204
  496MOL0     H66912  11.511   8.710   9.200 -2.7922  4.2898 -0.9776
  496MOL0     H66913  11.569   8.571   9.093 -2.6377  1.5860 -2.4777
  496MOL0     H66914  11.690   8.762   8.964  1.1520 -1.6896 -0.3628
  496MOL0     H66915  11.660   8.869   9.103  0.6413 -0.7999  0.5953
  496MOL0     H66916  11.826   8.613   9.110  1.2358  0.7767 -0.4036
  496MOL0     H66917  11.761   8.705   9.252 -0.7507  0.1894 -0.2467
  496MOL0     H66918  11.892   8.905   9.158  2.3673  1.3501 -1.8361
  496MOL0     H66919  11.942   8.802   9.023  0.0216  1.7413  1.1067
  496MOL0     H66920  12.157   8.884   9.052  0.3681  0.0414 -1.0608
  496MOL0     H66921  12.395   8.907   9.065 -3.8512  4.6321  0.5133
  496MOL0     H66922  12.850   8.880   9.197  2.2180  2.4867  0.9945
  496MOL0     H66923  13.068   8.877   9.258 -0.7863  2.6052  1.1814
  496MOL0     H66924  13.249   8.917   9.395  0.3153 -0.2088 -1.4057
  496MOL0     H66925  13.377   8.834   9.479  0.9733 -0.2908 -1.1541
  496MOL0     H66926  13.400   8.668   9.309  2.9682  2.5818 -1.5223
  496MOL0     H66927  13.230   8.708   9.250  0.1549 -1.3101 -1.0610
  496MOL0     H66928  13.393   8.804   9.092  0.3417  0.0398 -0.0087
  496MOL0     H66929  13.328   8.938   9.198 -3.7148 -2.7519  0.1696
  496MOL0     H66930  13.585   8.795   9.213  1.1337  0.0779  1.0138
  496MOL0     H66931  13.543   8.926   9.323  0.6501  0.3808 -1.2586
  496MOL0     H66932  13.517   9.081   9.168  0.3977  0.1898  0.8642
  496MOL0     H66933  13.543   8.966   9.027  1.3863  0.7095 -0.3853
  496MOL0     H66934  13.733   9.093   9.026  0.6995  0.3431 -1.0185
  496MOL0     H66935  13.740   9.079   9.209 -0.2287  1.5392 -1.1327
  496MOL0     H66936  13.784   8.844   9.021 -0.0734 -0.9791  1.1981
  496MOL0     H66937  13.794   8.830   9.194 -0.6829 -1.8373 -1.3057
  496MOL0     H66938  14.004   8.962   9.200 -0.7477  1.4873 -0.0909
  496MOL0     H66939  14.000   8.806   9.116 -0.4383  0.8701 -1.2820
  496MOL0     H66940  12.993   8.681   9.632  0.5554  0.5671 -0.4379
  496MOL0     H66941  12.754   8.676   9.567 -0.5530 -2.5382 -2.3385
  496MOL0     H66942  12.411   8.684   9.419  1.2123 -2.2425 -1.3817
  496MOL0     H66943  12.148   8.659   9.411  1.9933 -0.7803  2.3008
  496MOL0     H66944  10.247   8.501   8.494  0.7375  0.6228  1.1748
  496MOL0     H66945  10.052   8.385   8.427 -0.1444  0.8558 -0.7558
  496MOL0     H66946   9.793   8.139   8.398 -0.5703 -0.3241 -1.2432
  496MOL0     H66947   9.623   8.015   8.271 -0.1114 -0.7294  0.1874
  496MOL0     H66948   9.372   7.922   8.319  0.1338  0.0794  0.6296
  496MOL0     H66949   9.399   7.869   8.480 -1.2759  0.7225 -0.0122
  496MOL0     H66950   9.207   7.775   8.432 -0.2992 -0.2829 -1.5609
  496MOL0     H66951   9.331   7.638   8.431  3.2226 -0.0734 -2.4917
  496MOL0     H66952   9.336   7.689   8.170  0.3649  1.4015  0.6810
  496MOL0     H66953   9.191   7.785   8.201  1.1239 -0.2049 -0.0878
  496MOL0     H66954   9.110   7.597   8.124  1.6743  1.4189 -0.8413
  496MOL0     H66955   9.214   7.490   8.217 -0.8706 -0.0290 -0.1047
  496MOL0     H66956   8.861   7.600   8.434 -0.9838 -1.1948 -1.6310
  496MOL0     H66957   9.658   7.676   8.539 -1.1334  0.1265  0.7805
  496MOL0     H66958   9.964   7.827   8.725  0.4344 -1.4284  0.1851
  496MOL0     H66959   9.818   7.716   8.746 -0.2026 -1.1575  0.1998
  496MOL0     H66960   9.945   7.690   8.620 -0.6304  1.8532 -2.2190
  497MOL0     O66961   4.308   0.270   1.092 -0.1341  0.5200 -0.3076
  497MOL0     C66962   4.317   0.388   1.085  0.4646 -0.6984 -0.4387
  497MOL0     O66963   4.426   0.457   1.121  0.6134  0.0473 -0.1655
  497MOL0     C66964   4.537   0.382   1.149  0.3347  0.5747 -0.3569
  497MOL0     C66965   4.609   0.408   1.267 -0.5745 -0.0953  0.0027
  497MOL0     C66966   4.738   0.357   1.296 -0.3367 -1.2322 -0.4890
  497MOL0     C66967   4.807   0.277   1.200  0.1342  0.2944 -0.0646
  497MOL0     O66968   4.938   0.237   1.222 -0.0712  0.6302  0.0768
  497MOL0     C66969   5.024   0.280   1.114  0.5001 -0.2298 -0.8114
  497MOL0     C66970   5.166   0.240   1.161 -0.5391 -0.8905  0.2238
  497MOL0     C66971   5.261   0.270   1.038 -0.3817  0.5659  0.0969
  497MOL0     C66972   5.405   0.232   1.092 -0.1796 -0.0012  0.0854
  497MOL0     C66973   5.498   0.270   0.983  0.6319 -0.8008  1.6186
  497MOL0     C66974   5.627   0.188   0.998 -0.1576  0.2354  0.2604
  497MOL0     C66975   5.714   0.218   1.126  0.4115 -0.4641 -0.2232
  497MOL0     C66976   5.858   0.181   1.111 -0.2872 -0.0210  0.7489
  497MOL0     N66977   5.943   0.309   1.107 -1.0423  0.0343 -0.2689
  497MOL0     C66978   5.979   0.369   0.989  0.4211 -0.4276  0.0565
  497MOL0     C66979   6.096   0.433   1.019 -0.5044 -0.1300  1.5658
  497MOL0     C66980   6.187   0.490   0.902 -0.0340  0.0135  0.1944
  497MOL0     C66981   6.238   0.373   0.809  0.4807 -0.2965  0.1426
  497MOL0     C66982   6.302   0.256   0.884  0.1881 -1.1372 -0.4689
  497MOL0     C66983   6.361   0.151   0.795  0.0296 -0.2054 -0.8224
  497MOL0     O66984   6.437   0.056   0.869  0.1457  0.9070 -1.0161
  497MOL0     C66985   6.576   0.064   0.864 -0.0965 -0.4511 -0.6727
  497MOL0     C66986   6.646  -0.042   0.926 -0.3743 -0.2660 -0.1323
  497MOL0     C66987   6.785  -0.033   0.944 -0.3001 -0.7065 -0.2796
  497MOL0     C66988   6.861   0.071   0.898 -0.8075 -0.1236 -0.6838
  497MOL0     C66989   7.002   0.083   0.937 -0.6163 -0.3935  0.0531
  497MOL0     O66990   7.085   0.162   0.869  0.6833 -0.5883 -0.1787
  497MOL0     C66991   7.218   0.161   0.896  0.3368  0.2677 -0.2046
  497MOL0     C66992   7.296   0.096   0.808 -0.3974  0.5928  0.1049
  497MOL0     C66993   7.434   0.104   0.829 -0.5553 -0.5439  0.0434
  497MOL0     C66994   7.493   0.163   0.945 -0.0393  0.4024 -0.1636
  497MOL0     O66995   7.625   0.161   0.977 -0.6109  0.6582  0.3423
  497MOL0     C66996   7.724   0.164   0.868 -0.2383  0.1740  0.2971
  497MOL0     C66997   7.862   0.194   0.926 -0.1359  0.1416 -0.3463
  497MOL0     C66998   7.854   0.321   1.013 -0.2025 -0.4544  0.0969
  497MOL0     C66999   7.990   0.363   1.060 -0.2719  0.7466  0.9714
  497MOL0     C67000   7.975   0.478   1.156 -0.8665 -0.5503 -0.5492
  497MOL0     C67001   8.108   0.532   1.208  0.2592 -0.5970  0.7690
  497MOL0     C67002   8.157   0.466   1.332  0.5098 -0.1713  0.0092
  497MOL0     C67003   8.291   0.531   1.377 -0.3714 -0.0906  0.9603
  497MOL0    Cl67004   8.354   0.431   1.513  0.2273  0.0725  0.2780
  497MOL0     C67005   7.404   0.210   1.038 -0.1209 -0.3282 -0.3241
  497MOL0     C67006   7.266   0.215   1.017 -0.8496 -0.6831  0.4910
  497MOL0     O67007   7.035   0.013   1.032  0.1610 -0.0317 -0.1403
  497MOL0     C67008   6.793   0.180   0.835 -0.1125 -0.1855  0.3121
  497MOL0     C67009   6.649   0.173   0.822 -0.4097 -0.0780 -0.3310
  497MOL0     N67010   6.114   0.432   1.153 -0.3723  0.1750 -0.4656
  497MOL0     N67011   6.028   0.347   1.205 -0.0880 -0.2938  0.3843
  497MOL0     C67012   4.737   0.247   1.080  0.0741 -0.2928 -0.1716
  497MOL0     C67013   4.605   0.294   1.055  0.7013  0.7016 -0.3341
  497MOL0     C67014   4.217   0.459   1.010 -0.0400 -0.5140 -0.5644
  497MOL0     C67015   4.256   0.559   0.926 -0.7345  0.1907 -0.5035
  497MOL0     C67016   4.168   0.614   0.831 -0.1703 -0.3502 -1.4567
  497MOL0     C67017   4.033   0.589   0.832 -0.1148 -0.5405  0.7699
  497MOL0     O67018   3.937   0.664   0.770 -0.1791  0.2413  0.5560
  497MOL0     C67019   3.976   0.778   0.698 -0.7462  0.0363  0.6564
  497MOL0     C67020   3.848   0.857   0.666  0.4230 -0.6982 -0.4558
  497MOL0     C67021   3.736   0.761   0.621 -0.6115  0.4568 -0.2373
  497MOL0     C67022   3.623   0.836   0.560  1.0025 -1.0325  0.7785
  497MOL0     C67023   3.512   0.752   0.506 -1.1032  0.1148 -0.4415
  497MOL0     C67024   3.424   0.681   0.465  0.9400 -0.5317 -0.2927
  497MOL0     C67025   3.994   0.485   0.912  0.6557  0.1189 -0.4567
  497MOL0     C67026   4.077   0.424   1.002  0.3100  0.4340 -0.4188
  497MOL0     C67027   4.021   0.336   1.109 -0.6139  0.2264  0.5959
  497MOL0     H67028   4.548   0.476   1.327 -1.4927 -0.2431 -0.7410
  497MOL0     H67029   4.793   0.389   1.384 -2.0333 -0.4124  0.3052
  497MOL0     H67030   5.009   0.230   1.018 -1.6692 -1.0670 -0.0816
  497MOL0     H67031   5.021   0.387   1.091  1.5039  0.2602  1.0544
  497MOL0     H67032   5.174   0.134   1.188  2.6655 -1.2824 -1.7571
  497MOL0     H67033   5.194   0.298   1.249  0.5337 -1.0671  0.0172
  497MOL0     H67034   5.256   0.372   0.999 -1.2206  1.0816  1.4953
  497MOL0     H67035   5.237   0.191   0.967  3.3864 -0.6464 -0.0685
  497MOL0     H67036   5.421   0.286   1.185 -0.5075 -1.3924  0.9726
  497MOL0     H67037   5.410   0.125   1.114 -4.2086 -0.5302 -0.7142
  497MOL0     H67038   5.459   0.257   0.882  2.4279  0.0668  0.7693
  497MOL0     H67039   5.522   0.375   1.002 -1.3041 -0.1092  0.6117
  497MOL0     H67040   5.600   0.082   1.003 -1.5078  0.5642  0.4367
  497MOL0     H67041   5.694   0.204   0.913  0.1269  1.8607  0.7540
  497MOL0     H67042   5.674   0.159   1.208  1.4675 -0.3733  0.3796
  497MOL0     H67043   5.689   0.321   1.156 -0.9822 -0.4618 -1.2833
  497MOL0     H67044   5.880   0.122   1.200 -0.0443 -0.8470  0.1592
  497MOL0     H67045   5.879   0.116   1.025  0.2451  0.0731  0.8018
  497MOL0     H67046   5.941   0.364   0.888 -0.0088 -3.1724  0.2719
  497MOL0     H67047   6.126   0.556   0.840 -0.0660 -2.0072 -2.0319
  497MOL0     H67048   6.264   0.556   0.942  0.5537  0.0264 -0.9340
  497MOL0     H67049   6.165   0.332   0.740  1.7307 -2.4687  0.0323
  497MOL0     H67050   6.306   0.423   0.739  2.1148  0.2481  2.0020
  497MOL0     H67051   6.225   0.211   0.947 -0.7191 -0.1868 -0.8661
  497MOL0     H67052   6.381   0.303   0.942 -1.4892  1.6281 -0.2490
  497MOL0     H67053   6.428   0.195   0.721  0.6533  1.1639  0.4994
  497MOL0     H67054   6.277   0.099   0.748 -1.2151  0.8717  0.1172
  497MOL0     H67055   6.594  -0.124   0.975  0.3527 -1.1887 -0.8809
  497MOL0     H67056   6.835  -0.120   0.986 -1.7722 -1.0104  0.9736
  497MOL0     H67057   7.255   0.051   0.719  2.2378 -0.3701 -0.7215
  497MOL0     H67058   7.506   0.059   0.761 -1.1254 -0.6344 -0.5179
  497MOL0     H67059   7.723   0.067   0.818 -3.0730  0.0411  0.4660
  497MOL0     H67060   7.689   0.240   0.797  2.3660  1.5080  0.3334
  497MOL0     H67061   7.892   0.110   0.990 -0.7107  0.4463  0.3404
  497MOL0     H67062   7.930   0.194   0.841 -1.6171 -2.9273 -1.6766
  497MOL0     H67063   7.802   0.397   0.953 -0.2311 -2.9302 -3.3225
  497MOL0     H67064   7.787   0.306   1.098  1.1257 -2.7410  0.8225
  497MOL0     H67065   8.048   0.408   0.979  1.2842 -0.3282  1.4439
  497MOL0     H67066   8.054   0.280   1.092 -1.7211 -0.9388 -0.2750
  497MOL0     H67067   7.918   0.439   1.242  0.1225  0.3813  0.5662
  497MOL0     H67068   7.923   0.558   1.102 -0.8566 -1.3797 -1.8272
  497MOL0     H67069   8.176   0.530   1.122 -0.2912 -0.0954  0.3082
  497MOL0     H67070   8.093   0.635   1.240  0.2186 -0.2609 -0.2769
  497MOL0     H67071   8.184   0.360   1.321  2.0743  0.0691  1.1878
  497MOL0     H67072   8.092   0.461   1.420  1.4683 -1.4939  0.6792
  497MOL0     H67073   8.354   0.536   1.287  0.9851  0.8452  1.9277
  497MOL0     H67074   8.268   0.633   1.409 -3.3496  0.0352 -1.0805
  497MOL0     H67075   7.445   0.252   1.129  0.5706  1.3588 -1.3602
  497MOL0     H67076   7.212   0.275   1.089  0.6600 -0.3753  1.4133
  497MOL0     H67077   6.858   0.266   0.820  1.6578 -1.5304 -0.0586
  497MOL0     H67078   6.600   0.262   0.783  2.5769  1.7216 -0.2938
  497MOL0     H67079   4.788   0.182   1.009  0.0289  2.0636 -2.4940
  497MOL0     H67080   4.553   0.250   0.970  0.3944  0.2867  0.0603
  497MOL0     H67081   4.359   0.588   0.906 -0.0325 -0.3664  2.0413
  497MOL0     H67082   4.191   0.694   0.762  1.6756  2.3741  2.0075
  497MOL0     H67083   4.022   0.741   0.606  1.5027  1.1608  1.2701
  497MOL0     H67084   4.041   0.841   0.760 -1.6034 -0.3647  2.0070
  497MOL0     H67085   3.869   0.927   0.585  0.3342 -1.6343 -1.3004
  497MOL0     H67086   3.828   0.903   0.763  1.4893 -3.3253  1.1188
  497MOL0     H67087   3.695   0.713   0.711  1.0131  1.8491  1.3176
  497MOL0     H67088   3.774   0.686   0.550 -0.8451  1.3753 -1.3581
  497MOL0     H67089   3.579   0.907   0.631 -4.1713 -1.7484 -1.2274
  497MOL0     H67090   3.654   0.890   0.470 -1.7596 -1.6009 -0.6464
  497MOL0     H67091   3.348   0.628   0.412 -0.2507  1.4517 -0.6920
  497MOL0     H67092   3.890   0.455   0.907  0.6102 -0.0017  0.9618
  497MOL0     H67093   4.055   0.367   1.208  1.4833 -0.3586  0.1168
  497MOL0     H67094   3.912   0.347   1.116 -0.3689  4.6152  0.4021
  497MOL0     H67095   4.053   0.234   1.087  0.6075  0.4207  1.3575
  498MOL0     O67096   0.392   5.429   7.479  0.1002 -0.1765  0.1578
  498MOL0     C67097   0.337   5.401   7.375  1.2256 -0.2837 -0.5456
  498MOL0     O67098   0.399   5.375   7.261 -0.0463  0.3101 -0.0085
  498MOL0     C67099   0.534   5.393   7.249  0.3406  0.0055 -0.2003
  498MOL0     C67100   0.604   5.298   7.171  0.0458  0.5077 -0.1338
  498MOL0     C67101   0.742   5.318   7.147  0.3913  0.0864 -0.4761
  498MOL0     C67102   0.807   5.434   7.182  0.1585 -0.2918 -0.7279
  498MOL0     O67103   0.944   5.460   7.172  0.3662 -0.2630  0.4797
  498MOL0     C67104   1.018   5.354   7.104 -0.6562 -0.6988  0.6728
  498MOL0     C67105   1.172   5.378   7.109  0.2473 -0.8786  0.5490
  498MOL0     C67106   1.203   5.532   7.071 -0.1860  0.2939  0.5535
  498MOL0     C67107   1.341   5.570   7.112 -0.5391 -0.6783  0.0836
  498MOL0     C67108   1.442   5.534   7.001 -0.0756  0.2799  0.6727
  498MOL0     C67109   1.581   5.593   7.034  0.0908 -0.3650 -0.1013
  498MOL0     C67110   1.695   5.546   6.943  0.0281 -0.5816 -0.0033
  498MOL0     C67111   1.817   5.507   7.029  0.9044  0.1702  0.7987
  498MOL0     N67112   1.932   5.476   6.944 -0.4608  0.3247  0.1974
  498MOL0     C67113   2.020   5.573   6.895  0.2266  0.2302 -0.4052
  498MOL0     C67114   2.115   5.503   6.836 -0.7747  0.2250 -0.0114
  498MOL0     C67115   2.245   5.549   6.769 -0.7780  0.1212 -0.4605
  498MOL0     C67116   2.364   5.455   6.812 -0.3842  0.1718 -1.1789
  498MOL0     C67117   2.490   5.535   6.773 -0.2658  0.4124 -0.5761
  498MOL0     C67118   2.620   5.461   6.802 -0.6124 -0.8637  0.0142
  498MOL0     O67119   2.628   5.428   6.942 -1.1268  0.6957  0.3437
  498MOL0     C67120   2.734   5.362   6.994 -0.1307 -0.2969 -0.1631
  498MOL0     C67121   2.843   5.320   6.915  0.1456 -0.4779  0.3371
  498MOL0     C67122   2.934   5.232   6.973  0.2315 -0.0570 -0.4644
  498MOL0     C67123   2.923   5.186   7.105 -0.1298 -0.3359  0.2965
  498MOL0     C67124   3.023   5.094   7.157 -0.0544  0.3148 -0.0212
  498MOL0     O67125   3.103   5.041   7.067 -0.0420  0.6748  1.5184
  498MOL0     C67126   3.200   4.961   7.116  0.5387  0.2780  0.0404
  498MOL0     C67127   3.313   5.019   7.165  0.1302 -0.0953 -0.9474
  498MOL0     C67128   3.411   4.944   7.223 -0.2319 -0.7331 -0.0417
  498MOL0     C67129   3.409   4.804   7.205  0.1647 -0.9511 -0.6710
  498MOL0     O67130   3.507   4.724   7.250 -0.6166  0.5688  0.3383
  498MOL0     C67131   3.629   4.793   7.301 -0.0418  0.1572  0.4784
  498MOL0     C67132   3.729   4.693   7.338  0.6731  0.2248  0.6878
  498MOL0     C67133   3.831   4.667   7.224 -0.3370  0.4316  0.1622
  498MOL0     C67134   3.779   4.628   7.093 -0.0579 -0.5599 -0.0595
  498MOL0     C67135   3.880   4.545   7.014 -0.3337  0.0603  0.5493
  498MOL0     C67136   4.010   4.617   6.981 -0.2319  0.9644 -0.4414
  498MOL0     C67137   4.082   4.530   6.881 -0.6921  0.7861 -0.8566
  498MOL0     C67138   4.201   4.606   6.821 -0.2002 -0.4348 -0.9677
  498MOL0    Cl67139   4.319   4.640   6.955  0.0601  0.3595  0.3645
  498MOL0     C67140   3.291   4.741   7.160  0.4316 -0.0767 -0.0589
  498MOL0     C67141   3.193   4.825   7.111  1.3300 -0.5602  0.7951
  498MOL0     O67142   3.010   5.056   7.272 -0.4485 -0.3927  0.1277
  498MOL0     C67143   2.818   5.238   7.183 -0.2253 -0.4605 -0.0341
  498MOL0     C67144   2.725   5.332   7.128 -0.2891 -0.3256  0.1187
  498MOL0     N67145   2.087   5.365   6.849  0.2251 -0.1397  0.0814
  498MOL0     N67146   1.974   5.356   6.911 -0.5030 -0.2652  0.3675
  498MOL0     C67147   0.732   5.540   7.247  0.4641 -0.2752  0.0435
  498MOL0     C67148   0.595   5.519   7.287 -0.9207  0.0816  0.0641
  498MOL0     C67149   0.183   5.389   7.374  0.8702  0.7284  0.2980
  498MOL0     C67150   0.113   5.333   7.261 -0.3800  0.2726  0.2841
  498MOL0     C67151  -0.030   5.350   7.249 -0.1717  0.7304  0.3963
  498MOL0     C67152  -0.104   5.404   7.348  0.3676 -0.1728  0.0363
  498MOL0     O67153  -0.244   5.407   7.322 -0.6727 -1.0513  0.2088
  498MOL0     C67154  -0.323   5.469   7.421 -0.4732  0.3716  0.0412
  498MOL0     C67155  -0.472   5.433   7.402  0.2302  1.0064 -0.5542
  498MOL0     C67156  -0.488   5.283   7.382 -1.5028 -0.1137 -0.6698
  498MOL0     C67157  -0.598   5.257   7.275 -0.7293 -0.1699 -0.4245
  498MOL0     C67158  -0.731   5.293   7.329  0.1366  0.2763  0.7738
  498MOL0     C67159  -0.845   5.313   7.370 -0.8038  0.8748  0.1281
  498MOL0     C67160  -0.033   5.462   7.455 -0.2674  0.4474  0.1334
  498MOL0     C67161   0.102   5.461   7.473 -1.5525 -0.5195  0.2831
  498MOL0     C67162   0.167   5.563   7.570 -0.7532 -0.4478  0.0952
  498MOL0     H67163   0.564   5.201   7.141  1.2528 -0.3315  0.8828
  498MOL0     H67164   0.800   5.236   7.106 -0.7803 -0.7310 -0.5764
  498MOL0     H67165   0.997   5.256   7.149 -1.3243 -1.2615 -0.7769
  498MOL0     H67166   0.981   5.337   7.002  1.4941 -4.3380  0.3158
  498MOL0     H67167   1.219   5.331   7.022  0.9312  1.4857 -0.4412
  498MOL0     H67168   1.216   5.351   7.205 -0.4393 -1.7367  0.6284
  498MOL0     H67169   1.133   5.602   7.119 -0.1121  0.3532  0.5760
  498MOL0     H67170   1.180   5.552   6.966 -1.4028  0.3122  0.8091
  498MOL0     H67171   1.354   5.678   7.114 -0.4188 -0.5750 -2.4047
  498MOL0     H67172   1.369   5.527   7.208  1.3032  2.5678  1.1353
  498MOL0     H67173   1.464   5.429   6.985  0.6360  0.5742 -0.3663
  498MOL0     H67174   1.411   5.570   6.902  4.1853 -1.2779 -1.4608
  498MOL0     H67175   1.563   5.701   7.028 -1.8181 -0.6694 -0.5514
  498MOL0     H67176   1.608   5.575   7.138 -3.4370  0.5139  1.1096
  498MOL0     H67177   1.721   5.620   6.867  1.0838 -0.6268  0.3094
  498MOL0     H67178   1.671   5.455   6.885  0.9037 -0.6557 -0.2567
  498MOL0     H67179   1.844   5.591   7.093  2.2671  0.1059  0.3554
  498MOL0     H67180   1.792   5.430   7.102  1.4248 -0.2724  0.5178
  498MOL0     H67181   2.011   5.681   6.896 -0.3222  0.2582 -2.7932
  498MOL0     H67182   2.239   5.557   6.660  1.7843  2.3703 -0.5400
  498MOL0     H67183   2.279   5.649   6.800  2.8400 -0.7561 -1.1191
  498MOL0     H67184   2.368   5.434   6.919  0.1415  2.7950 -0.6133
  498MOL0     H67185   2.357   5.357   6.763 -1.0135 -0.9849  1.0705
  498MOL0     H67186   2.493   5.627   6.832  0.2666  1.7181 -2.5409
  498MOL0     H67187   2.473   5.577   6.673 -0.5644  0.0722 -0.6677
  498MOL0     H67188   2.696   5.535   6.778 -1.0304 -0.3922  0.1308
  498MOL0     H67189   2.651   5.382   6.733 -2.9949  1.1887 -3.7305
  498MOL0     H67190   2.851   5.338   6.808 -0.9558 -0.2905  0.2699
  498MOL0     H67191   3.012   5.204   6.902 -0.4933 -1.2885 -0.8104
  498MOL0     H67192   3.316   5.127   7.173  0.8785 -0.2404  1.6808
  498MOL0     H67193   3.474   5.003   7.288 -1.0836 -0.5524  0.6511
  498MOL0     H67194   3.670   4.860   7.224 -0.7597 -0.4506 -0.4599
  498MOL0     H67195   3.613   4.849   7.394  1.5518 -2.6591  2.5781
  498MOL0     H67196   3.795   4.732   7.415 -0.3390  1.3154  1.0260
  498MOL0     H67197   3.679   4.600   7.367 -0.6638  0.6112 -0.2799
  498MOL0     H67198   3.888   4.758   7.201  0.3690  0.0562  0.4056
  498MOL0     H67199   3.902   4.593   7.262  0.5698  0.7911 -0.7784
  498MOL0     H67200   3.755   4.721   7.041 -0.0654  0.6832  2.0495
  498MOL0     H67201   3.690   4.564   7.091 -0.5418  0.0693 -3.1597
  498MOL0     H67202   3.829   4.532   6.918  1.0733  3.9920 -0.9556
  498MOL0     H67203   3.888   4.439   7.040 -0.6993 -0.0326  0.2851
  498MOL0     H67204   3.981   4.713   6.936 -2.8778  0.8823  0.9031
  498MOL0     H67205   4.062   4.620   7.077 -1.3608 -2.9836  0.4669
  498MOL0     H67206   4.010   4.511   6.801 -0.6805  2.4988 -1.3132
  498MOL0     H67207   4.114   4.440   6.935 -1.3747  1.7729  1.2896
  498MOL0     H67208   4.249   4.557   6.736  1.8026 -3.4980  1.6284
  498MOL0     H67209   4.156   4.699   6.788  1.1321  0.3672 -0.5809
  498MOL0     H67210   3.266   4.636   7.147 -0.6752  0.1151  0.4187
  498MOL0     H67211   3.101   4.784   7.071  1.3114  0.5282 -0.3548
  498MOL0     H67212   2.812   5.203   7.285  0.2568  1.1787  0.5963
  498MOL0     H67213   2.644   5.374   7.187 -0.9826  0.8581 -1.6139
  498MOL0     H67214   0.780   5.633   7.275  1.1710 -0.9898  1.2655
  498MOL0     H67215   0.540   5.590   7.347 -1.2117 -2.3542  2.9265
  498MOL0     H67216   0.159   5.277   7.180 -1.9041  3.7003 -3.2839
  498MOL0     H67217  -0.082   5.297   7.170  3.3571 -1.5095 -0.6918
  498MOL0     H67218  -0.309   5.577   7.415  1.5562  0.0913 -1.4167
  498MOL0     H67219  -0.305   5.439   7.524 -1.4393  1.2351  0.4825
  498MOL0     H67220  -0.522   5.489   7.323 -0.3870 -1.8655 -2.3266
  498MOL0     H67221  -0.514   5.451   7.502 -1.8097  1.7416 -1.4849
  498MOL0     H67222  -0.532   5.228   7.466 -1.2244 -2.1460 -1.7885
  498MOL0     H67223  -0.394   5.235   7.356  0.8586  3.6394  0.1995
  498MOL0     H67224  -0.568   5.315   7.187  0.9700  1.0966  0.9192
  498MOL0     H67225  -0.601   5.153   7.242  0.8833 -0.3668  0.0023
  498MOL0     H67226  -0.945   5.342   7.396 -1.2222 -1.1643  0.9587
  498MOL0     H67227  -0.089   5.528   7.521 -1.8478 -0.4824 -0.2242
  498MOL0     H67228   0.252   5.619   7.532 -1.2755  1.4219  1.5358
  498MOL0     H67229   0.090   5.634   7.601  0.2521  0.3129  0.9243
  498MOL0     H67230   0.205   5.522   7.664 -1.5322  0.3501  0.7819
  499MOL0     O67231   3.509   6.622   9.696 -0.7955 -1.0447  1.1365
  499MOL0     C67232   3.522   6.716   9.775  0.9252 -1.2693  0.0594
  499MOL0     O67233   3.645   6.776   9.803 -0.1992  0.4685 -0.5328
  499MOL0     C67234   3.763   6.746   9.739 -0.4034 -0.3024  0.0977
  499MOL0     C67235   3.806   6.618   9.694 -0.3981  0.4443  0.0985
  499MOL0     C67236   3.918   6.609   9.609  0.9000 -0.4157  0.6111
  499MOL0     C67237   3.999   6.718   9.568  1.2261  0.3177 -0.5694
  499MOL0     O67238   4.100   6.709   9.477 -0.7042  0.3047  0.3870
  499MOL0     C67239   4.063   6.637   9.357  0.0799  0.5970  0.3752
  499MOL0     C67240   4.133   6.511   9.318 -0.0367 -0.1273  0.0640
  499MOL0     C67241   4.270   6.539   9.249 -0.9344 -0.3650 -0.5032
  499MOL0     C67242   4.355   6.649   9.316  0.6395  0.7183 -0.3105
  499MOL0     C67243   4.496   6.627   9.267 -0.0249  0.7079 -0.5186
  499MOL0     C67244   4.580   6.756   9.281  0.1961  0.1229  0.1289
  499MOL0     C67245   4.715   6.739   9.202 -0.3446  0.4038  0.5312
  499MOL0     C67246   4.818   6.838   9.258 -0.3638 -0.3771 -0.0606
  499MOL0     N67247   4.958   6.786   9.219 -0.3132  0.0156  0.0476
  499MOL0     C67248   5.008   6.766   9.093  0.4763 -0.2474  0.2729
  499MOL0     C67249   5.133   6.710   9.108  0.4798  0.9848 -1.2278
  499MOL0     C67250   5.227   6.672   9.002  0.3515  0.4371  0.1696
  499MOL0     C67251   5.371   6.717   9.022  0.1129 -0.2199 -0.1329
  499MOL0     C67252   5.447   6.595   9.091 -0.7809  0.0871 -0.3968
  499MOL0     C67253   5.595   6.589   9.078 -0.3951 -0.3096  0.0489
  499MOL0     O67254   5.638   6.619   8.945  0.0011 -0.2029 -1.1108
  499MOL0     C67255   5.754   6.695   8.937 -0.5569 -0.3127 -0.0309
  499MOL0     C67256   5.873   6.669   9.006  0.3340  1.1841  0.6711
  499MOL0     C67257   5.984   6.748   8.989 -0.5131  0.0560 -0.2521
  499MOL0     C67258   5.982   6.870   8.920 -0.4426 -0.1377 -0.4061
  499MOL0     C67259   6.110   6.946   8.915 -0.2808  0.8809 -0.4242
  499MOL0     O67260   6.099   7.086   8.918  0.4647  0.3742  1.0407
  499MOL0     C67261   6.219   7.152   8.921 -0.7286  0.1498 -1.3057
  499MOL0     C67262   6.284   7.168   9.037  0.9806 -0.6278 -0.6368
  499MOL0     C67263   6.414   7.227   9.042  1.5958  0.2022 -0.7312
  499MOL0     C67264   6.473   7.269   8.922 -0.2145  0.1252  0.8454
  499MOL0     O67265   6.596   7.330   8.922  0.5105 -0.1938 -1.0317
  499MOL0     C67266   6.693   7.290   9.015 -0.1623  0.5448 -0.1572
  499MOL0     C67267   6.835   7.331   8.963 -0.5491  0.6072  0.6510
  499MOL0     C67268   6.943   7.341   9.069 -0.2201  0.9640 -0.4778
  499MOL0     C67269   7.089   7.333   9.019 -0.0242 -0.1585  0.2894
  499MOL0     C67270   7.192   7.378   9.128  0.0304 -0.5213 -0.5631
  499MOL0     C67271   7.331   7.374   9.077 -0.4458  0.9840  0.7354
  499MOL0     C67272   7.381   7.225   9.072 -0.4531 -0.0773  0.6528
  499MOL0     C67273   7.515   7.225   8.995 -0.8815  0.8549 -0.7977
  499MOL0    Cl67274   7.645   7.288   9.098  0.3186 -0.4821 -0.2499
  499MOL0     C67275   6.392   7.269   8.800 -0.2482 -0.0226 -0.8452
  499MOL0     C67276   6.268   7.204   8.804  0.8402  1.1407 -0.1588
  499MOL0     O67277   6.216   6.879   8.928 -0.3036 -0.0616  0.3108
  499MOL0     C67278   5.867   6.909   8.861 -0.0757 -0.1854  0.2851
  499MOL0     C67279   5.752   6.831   8.875  0.1911  0.3875 -0.4927
  499MOL0     N67280   5.147   6.692   9.243 -0.6824  0.5287  0.2380
  499MOL0     N67281   5.050   6.739   9.309  0.4665  0.7029 -0.4235
  499MOL0     C67282   3.963   6.841   9.629  0.4909 -0.4412  0.7236
  499MOL0     C67283   3.846   6.859   9.712 -0.3059 -0.0225  0.2835
  499MOL0     C67284   3.394   6.794   9.810 -0.6269  0.2203 -0.5785
  499MOL0     C67285   3.265   6.733   9.794  0.2423  0.2523  0.7990
  499MOL0     C67286   3.141   6.803   9.814  0.9395 -0.1376  0.2984
  499MOL0     C67287   3.142   6.934   9.858  0.7884 -0.2416  0.1836
  499MOL0     O67288   3.032   7.018   9.877 -0.4205 -0.2839  0.2802
  499MOL0     C67289   2.909   6.976   9.832  0.8961  0.1337 -0.1463
  499MOL0     C67290   2.824   7.107   9.805  0.7579 -0.0749 -0.4108
  499MOL0     C67291   2.808   7.175   9.941 -0.3391 -0.6162  0.3217
  499MOL0     C67292   2.698   7.280   9.936 -0.0339 -0.3453  0.1225
  499MOL0     C67293   2.721   7.378   9.829 -0.6881  0.3501 -0.0609
  499MOL0     C67294   2.734   7.458   9.736  0.7571  0.6123 -0.4587
  499MOL0     C67295   3.264   6.993   9.886  0.6355 -0.2379  0.3729
  499MOL0     C67296   3.386   6.927   9.867 -0.4611  0.6522 -0.1795
  499MOL0     C67297   3.501   7.010   9.909 -0.1818  0.2787  0.2681
  499MOL0     H67298   3.755   6.526   9.722  0.8243 -0.2546  0.0946
  499MOL0     H67299   3.928   6.503   9.586 -0.6731  0.1381 -3.3228
  499MOL0     H67300   3.959   6.603   9.350  0.0862  0.8643 -1.8526
  499MOL0     H67301   4.070   6.705   9.272 -1.3531 -0.0105 -0.2829
  499MOL0     H67302   4.066   6.450   9.257  1.7747 -0.6311 -1.5419
  499MOL0     H67303   4.149   6.446   9.405 -2.5011 -0.2434  0.4868
  499MOL0     H67304   4.236   6.566   9.148 -0.5874 -1.7129 -0.9975
  499MOL0     H67305   4.330   6.449   9.233  0.1105  0.6876 -3.0855
  499MOL0     H67306   4.325   6.753   9.296 -2.5362  0.0898  0.6158
  499MOL0     H67307   4.339   6.632   9.423  2.3450  0.6355 -0.0393
  499MOL0     H67308   4.549   6.552   9.328 -2.6089  0.2574  1.3259
  499MOL0     H67309   4.495   6.587   9.165 -1.3532  1.4082 -0.7999
  499MOL0     H67310   4.527   6.846   9.250 -1.7079 -1.0807 -0.2399
  499MOL0     H67311   4.611   6.768   9.386  4.9991 -2.6569 -0.6945
  499MOL0     H67312   4.707   6.756   9.094  3.3783  2.6947  0.4454
  499MOL0     H67313   4.759   6.640   9.213 -1.3450 -0.3957 -2.0195
  499MOL0     H67314   4.786   6.934   9.217 -2.3370 -0.9634 -0.0290
  499MOL0     H67315   4.809   6.847   9.367 -1.7732  1.7015 -0.2831
  499MOL0     H67316   4.954   6.789   9.002  0.4139  0.4423  0.4797
  499MOL0     H67317   5.229   6.564   8.989 -0.6606  0.4486 -0.1851
  499MOL0     H67318   5.185   6.725   8.916  0.9195 -0.5092 -0.7054
  499MOL0     H67319   5.417   6.748   8.928  1.7875 -0.4908  0.5615
  499MOL0     H67320   5.382   6.803   9.089  0.3031  0.7796 -1.4166
  499MOL0     H67321   5.424   6.499   9.043  0.4734  0.9647 -2.9420
  499MOL0     H67322   5.424   6.586   9.198 -0.4550  4.5694  0.2624
  499MOL0     H67323   5.619   6.489   9.116 -1.4500  0.1116  1.9374
  499MOL0     H67324   5.648   6.652   9.150 -0.4710 -1.4059  1.1023
  499MOL0     H67325   5.879   6.573   9.057  1.3362 -0.6698 -2.6201
  499MOL0     H67326   6.075   6.727   9.045 -0.6881  3.6323  1.6487
  499MOL0     H67327   6.245   7.130   9.131  0.1349  2.8376  0.5253
  499MOL0     H67328   6.467   7.243   9.135  0.6033 -0.2089 -0.0730
  499MOL0     H67329   6.670   7.344   9.107 -0.7190 -2.0063  1.2988
  499MOL0     H67330   6.692   7.183   9.039 -4.1839  1.2526  3.9485
  499MOL0     H67331   6.858   7.249   8.894  1.0755  2.0913 -0.6732
  499MOL0     H67332   6.839   7.427   8.909  3.4972  0.4224  0.2647
  499MOL0     H67333   6.933   7.441   9.112 -0.1372  1.0236 -0.5972
  499MOL0     H67334   6.925   7.273   9.153  0.3690  2.6446  1.0861
  499MOL0     H67335   7.105   7.386   8.924  0.0259  1.8783  1.3682
  499MOL0     H67336   7.102   7.225   9.008 -2.7964 -0.8029  2.3438
  499MOL0     H67337   7.183   7.321   9.221 -0.1787 -2.9320 -1.9976
  499MOL0     H67338   7.173   7.484   9.149  0.9671 -0.7424  1.6989
  499MOL0     H67339   7.346   7.424   8.981  1.1722  0.6961  0.8214
  499MOL0     H67340   7.399   7.431   9.141 -0.2266  1.2401  0.2711
  499MOL0     H67341   7.315   7.161   9.012  0.6859 -1.7947  1.1547
  499MOL0     H67342   7.379   7.181   9.172 -1.3423 -1.2879  0.1406
  499MOL0     H67343   7.542   7.124   8.962  0.4971  1.2690 -0.9754
  499MOL0     H67344   7.502   7.285   8.904  0.0681  1.0156 -0.8340
  499MOL0     H67345   6.430   7.298   8.703  2.1688 -2.4460 -0.7409
  499MOL0     H67346   6.207   7.197   8.715  0.2880  1.4276  0.1914
  499MOL0     H67347   5.851   7.005   8.812 -2.3751 -1.4293 -1.6066
  499MOL0     H67348   5.661   6.873   8.833  0.5496 -0.1021 -1.8389
  499MOL0     H67349   4.024   6.929   9.613  2.3722 -1.0367  3.8995
  499MOL0     H67350   3.821   6.953   9.759  1.1531 -0.8464  2.9184
  499MOL0     H67351   3.265   6.631   9.755 -0.7997  0.9238 -1.0527
  499MOL0     H67352   3.049   6.748   9.799 -0.3976  2.2275 -0.6871
  499MOL0     H67353   2.867   6.911   9.909 -0.4654 -0.3767 -1.2908
  499MOL0     H67354   2.915   6.922   9.738  1.7534 -0.3739  0.1825
  499MOL0     H67355   2.725   7.085   9.764  0.1696  2.3158 -0.4301
  499MOL0     H67356   2.883   7.172   9.740 -0.4394  0.6043 -0.8403
  499MOL0     H67357   2.899   7.229   9.968 -1.8917  2.9678 -0.9828
  499MOL0     H67358   2.776   7.096  10.010 -2.1485  1.3294  1.8685
  499MOL0     H67359   2.597   7.236   9.930  0.2074 -0.7031 -3.3243
  499MOL0     H67360   2.708   7.344  10.024  0.1781  0.6776 -0.6337
  499MOL0     H67361   2.751   7.515   9.647 -1.4447 -0.0021 -1.3346
  499MOL0     H67362   3.269   7.092   9.929 -0.4428  0.1202 -0.2953
  499MOL0     H67363   3.569   6.956   9.976  0.3621 -0.9041 -1.1842
  499MOL0     H67364   3.560   7.043   9.823 -0.2515  0.3689  0.2544
  499MOL0     H67365   3.468   7.099   9.964 -1.7825  0.6024 -1.1553
  500MOL0     O67366   4.142   3.681   2.480 -0.1224 -0.4330 -0.2685
  500MOL0     C67367   4.126   3.638   2.591 -0.8583 -0.7049  0.6581
  500MOL0     O67368   4.232   3.619   2.688 -0.0809  0.3511  0.0986
  500MOL0     C67369   4.363   3.668   2.657  0.5355  0.2705 -0.3425
  500MOL0     C67370   4.401   3.773   2.567 -0.6645  0.1821 -0.5703
  500MOL0     C67371   4.537   3.818   2.555 -0.1089 -0.5474  0.1993
  500MOL0     C67372   4.637   3.751   2.619 -0.2664  0.6980  0.0343
  500MOL0     O67373   4.757   3.818   2.605 -1.1569  0.2337 -0.2951
  500MOL0     C67374   4.861   3.755   2.684 -0.4625 -0.7993 -0.7793
  500MOL0     C67375   4.996   3.815   2.635 -0.5657  0.0961 -0.2567
  500MOL0     C67376   5.031   3.780   2.493 -0.0356  0.4773 -0.1119
  500MOL0     C67377   5.177   3.801   2.486  0.3515 -0.1117  0.2667
  500MOL0     C67378   5.228   3.800   2.350  0.3156  0.5450  0.2073
  500MOL0     C67379   5.369   3.855   2.345  0.2292  0.9676 -0.2220
  500MOL0     C67380   5.410   3.864   2.201  0.4111  0.4232 -0.0848
  500MOL0     C67381   5.476   3.731   2.156 -0.3602 -0.1214 -0.8067
  500MOL0     N67382   5.615   3.734   2.119 -0.3717  0.0092  0.0566
  500MOL0     C67383   5.668   3.771   1.995  0.4112 -0.1097  0.3315
  500MOL0     C67384   5.789   3.716   1.992 -0.0225  0.1516  0.4533
  500MOL0     C67385   5.882   3.714   1.875  0.0034  0.3817  0.2995
  500MOL0     C67386   6.010   3.641   1.910  0.6185  0.1128 -0.7796
  500MOL0     C67387   6.105   3.734   1.985  0.0344 -0.4427  0.1422
  500MOL0     C67388   6.242   3.681   1.997 -0.8974 -0.2227  0.6707
  500MOL0     O67389   6.311   3.681   1.864  0.0874 -0.3897 -0.1179
  500MOL0     C67390   6.448   3.660   1.868  0.2244  0.1750 -0.5499
  500MOL0     C67391   6.522   3.668   1.752 -0.0133  0.5376  0.1757
  500MOL0     C67392   6.662   3.652   1.758  0.8265  0.2063  0.7141
  500MOL0     C67393   6.725   3.622   1.879  0.1506 -0.6892  0.5451
  500MOL0     C67394   6.876   3.609   1.882  0.3327  0.3334  0.0217
  500MOL0     O67395   6.940   3.601   2.002 -0.4560 -1.1905  0.1781
  500MOL0     C67396   7.071   3.567   2.024 -0.0760  0.3409 -0.0633
  500MOL0     C67397   7.147   3.496   1.932 -0.0841  0.1231  0.4380
  500MOL0     C67398   7.286   3.488   1.944  0.5164  0.3940  0.9015
  500MOL0     C67399   7.351   3.544   2.056 -0.8020  0.4153  0.0151
  500MOL0     O67400   7.495   3.539   2.081  0.1354  0.6594  0.3900
  500MOL0     C67401   7.574   3.493   1.965  0.3112  0.1789  0.4541
  500MOL0     C67402   7.715   3.553   1.990  0.3534 -0.6831  0.0234
  500MOL0     C67403   7.809   3.516   1.873 -0.2889 -0.1528 -0.4822
  500MOL0     C67404   7.950   3.560   1.904 -0.8583  0.4368  0.0255
  500MOL0     C67405   8.050   3.508   1.802  0.8107  0.1538 -0.4740
  500MOL0     C67406   8.190   3.539   1.842 -0.6242 -0.2588 -0.3591
  500MOL0     C67407   8.305   3.463   1.767 -0.7970 -0.8612  0.3471
  500MOL0     C67408   8.327   3.512   1.622 -0.9400 -0.6164  0.1215
  500MOL0    Cl67409   8.472   3.416   1.559  0.1229  0.4831 -0.4131
  500MOL0     C67410   7.273   3.611   2.151 -0.3548 -0.2237  0.2093
  500MOL0     C67411   7.134   3.632   2.128 -0.2983  0.8659 -0.0879
  500MOL0     O67412   6.926   3.586   1.776  0.1220  0.6433 -0.8325
  500MOL0     C67413   6.647   3.600   1.993  0.3094 -0.2519 -0.0327
  500MOL0     C67414   6.510   3.619   1.991 -0.3693  0.3722 -0.9951
  500MOL0     N67415   5.808   3.660   2.113  0.1016 -0.0872  0.5605
  500MOL0     N67416   5.704   3.674   2.194  0.6221 -0.5673 -0.1310
  500MOL0     C67417   4.604   3.647   2.704 -0.4286 -0.1611  0.0398
  500MOL0     C67418   4.472   3.606   2.715 -0.7779 -0.0101 -0.0543
  500MOL0     C67419   3.989   3.583   2.641  0.2033  0.6256 -0.0666
  500MOL0     C67420   3.884   3.581   2.547 -0.7603  0.0516  0.4664
  500MOL0     C67421   3.755   3.533   2.585 -0.2755  0.6522  0.6992
  500MOL0     C67422   3.731   3.479   2.710  0.1801  0.2370  0.6619
  500MOL0     O67423   3.612   3.421   2.745  0.0955 -0.2579 -0.1444
  500MOL0     C67424   3.596   3.279   2.726  0.1412  0.0468 -0.0589
  500MOL0     C67425   3.456   3.241   2.710  0.7950 -1.0388 -0.0340
  500MOL0     C67426   3.376   3.230   2.843 -0.0679 -0.3447 -0.0268
  500MOL0     C67427   3.224   3.262   2.833 -0.1818 -0.4653 -0.6301
  500MOL0     C67428   3.163   3.239   2.963  0.2572 -1.0051  0.2017
  500MOL0     C67429   3.103   3.215   3.064  0.2052  0.2545 -0.1565
  500MOL0     C67430   3.841   3.475   2.796  0.2119 -0.3975  0.2764
  500MOL0     C67431   3.966   3.523   2.770  0.5250 -0.3884 -0.3086
  500MOL0     C67432   4.061   3.539   2.888 -0.7737 -0.2467 -0.0844
  500MOL0     H67433   4.321   3.824   2.516 -1.2400  0.6719  0.7570
  500MOL0     H67434   4.568   3.901   2.493  1.1305  0.0232  1.5176
  500MOL0     H67435   4.853   3.777   2.791  2.7900 -1.7262 -0.2341
  500MOL0     H67436   4.857   3.647   2.667 -2.5854 -0.4341 -3.1752
  500MOL0     H67437   5.069   3.768   2.701  1.0380  1.5182 -0.9467
  500MOL0     H67438   4.997   3.924   2.644 -0.7293 -0.0289  1.7021
  500MOL0     H67439   4.968   3.841   2.428  0.3911  1.7518  0.6424
  500MOL0     H67440   5.009   3.674   2.478  1.4424 -0.5535  3.7724
  500MOL0     H67441   5.205   3.896   2.531 -2.7711  0.2222  1.7454
  500MOL0     H67442   5.232   3.721   2.537  0.0422 -0.9909 -0.7389
  500MOL0     H67443   5.237   3.698   2.312  2.7056  0.4649  0.8219
  500MOL0     H67444   5.167   3.864   2.285  2.3523  0.4661 -1.9304
  500MOL0     H67445   5.376   3.954   2.392  3.3918  0.3361  0.8896
  500MOL0     H67446   5.425   3.790   2.413 -2.4319  1.2764  2.4870
  500MOL0     H67447   5.484   3.942   2.178  0.5042 -0.1805 -2.0168
  500MOL0     H67448   5.329   3.895   2.135  0.5638  1.5200  0.2153
  500MOL0     H67449   5.466   3.664   2.242 -1.3725  1.1403  0.1059
  500MOL0     H67450   5.422   3.696   2.068 -0.0096 -0.2632 -0.9682
  500MOL0     H67451   5.619   3.836   1.924  0.8606  0.2338  0.3277
  500MOL0     H67452   5.848   3.657   1.788  0.6264  0.5853 -0.0869
  500MOL0     H67453   5.910   3.812   1.834 -0.1278 -0.2344 -1.3052
  500MOL0     H67454   5.988   3.546   1.960  1.3842 -1.0883 -2.6074
  500MOL0     H67455   6.057   3.624   1.813 -0.1442  1.2592 -1.3677
  500MOL0     H67456   6.049   3.770   2.071 -1.5550 -0.5823 -0.7917
  500MOL0     H67457   6.123   3.816   1.914 -0.3659 -1.3772 -1.0740
  500MOL0     H67458   6.247   3.581   2.042  1.1508 -0.6216 -0.3061
  500MOL0     H67459   6.303   3.751   2.056 -0.4711  0.5858 -0.6985
  500MOL0     H67460   6.480   3.686   1.654  1.5735 -2.0577 -1.1035
  500MOL0     H67461   6.713   3.653   1.662 -0.1945 -0.3816  0.1471
  500MOL0     H67462   7.102   3.450   1.845 -2.3039  4.1553 -0.8163
  500MOL0     H67463   7.348   3.435   1.872 -2.1545 -1.3175 -0.2899
  500MOL0     H67464   7.589   3.384   1.959  3.9261  0.6215 -2.9372
  500MOL0     H67465   7.547   3.532   1.867 -0.6436  0.5984  0.8713
  500MOL0     H67466   7.698   3.660   2.002 -2.4164 -1.1548  1.1865
  500MOL0     H67467   7.747   3.521   2.090 -4.8193 -0.3060  2.1109
  500MOL0     H67468   7.803   3.409   1.855  1.0354 -0.3681  0.2156
  500MOL0     H67469   7.779   3.567   1.781  0.2844 -1.3299 -1.3430
  500MOL0     H67470   7.978   3.515   1.999 -2.2332 -0.6161 -0.0404
  500MOL0     H67471   7.955   3.669   1.912  1.0784  0.3003  1.6162
  500MOL0     H67472   8.010   3.561   1.715 -2.0753  2.7053  2.1180
  500MOL0     H67473   8.036   3.400   1.795  0.5691  0.1319  0.2345
  500MOL0     H67474   8.198   3.648   1.829 -0.3866  0.1373  2.3138
  500MOL0     H67475   8.195   3.517   1.949 -1.8741  1.1582  0.0221
  500MOL0     H67476   8.282   3.357   1.753  2.1408 -1.3673 -1.5890
  500MOL0     H67477   8.402   3.487   1.812 -0.8672  0.9738 -0.3812
  500MOL0     H67478   8.243   3.508   1.553 -0.3609 -1.1797 -0.5715
  500MOL0     H67479   8.364   3.615   1.617  1.1279 -1.3470 -3.5884
  500MOL0     H67480   7.311   3.661   2.239  3.0212  1.0749 -1.7985
  500MOL0     H67481   7.073   3.683   2.202  2.6355 -0.7255  3.7546
  500MOL0     H67482   6.692   3.572   2.088  1.7417  0.4221 -0.4877
  500MOL0     H67483   6.473   3.612   2.092  0.3772  1.0853 -0.6600
  500MOL0     H67484   4.675   3.572   2.738 -0.5538 -0.7187 -0.8830
  500MOL0     H67485   4.447   3.511   2.760 -0.9888 -0.3887 -0.9463
  500MOL0     H67486   3.901   3.633   2.453 -4.1932  0.9492  0.1941
  500MOL0     H67487   3.679   3.532   2.507 -0.0935 -0.8352  0.5255
  500MOL0     H67488   3.635   3.229   2.816  1.2933  1.2951  0.1756
  500MOL0     H67489   3.662   3.254   2.643 -0.4990  2.0561 -1.2456
  500MOL0     H67490   3.459   3.147   2.653 -1.5663 -0.2875 -1.5580
  500MOL0     H67491   3.412   3.306   2.633 -0.5159  1.4418  2.6191
  500MOL0     H67492   3.420   3.294   2.920  1.8256  1.8921 -2.7674
  500MOL0     H67493   3.380   3.123   2.867 -3.9333 -0.9882 -1.5822
  500MOL0     H67494   3.227   3.365   2.796  1.7864 -0.1466  0.2889
  500MOL0     H67495   3.183   3.192   2.761  1.7725  1.4133 -3.8348
  500MOL0     H67496   3.048   3.188   3.152 -0.4990 -0.1217 -0.7055
  500MOL0     H67497   3.828   3.430   2.894 -1.4547  1.8374  1.1501
  500MOL0     H67498   4.141   3.465   2.881 -0.5129 -0.0913  1.1664
  500MOL0     H67499   4.096   3.642   2.897 -0.1862 -0.4421 -0.1559
  500MOL0     H67500   4.006   3.518   2.980 -3.3181  1.7586 -1.0076
  501MOL0     O67501   9.979   7.133   7.085 -0.1328 -0.4095  0.3548
  501MOL0     C67502   9.985   7.049   6.987  0.5241 -1.2192 -0.4439
  501MOL0     O67503  10.072   7.057   6.889  0.0349 -0.3294 -0.0531
  501MOL0     C67504  10.183   7.136   6.910 -0.4238 -0.1045  0.7930
  501MOL0     C67505  10.300   7.102   6.978  1.3620  0.1918  0.6895
  501MOL0     C67506  10.407   7.186   6.990 -0.0214  0.3929 -0.6669
  501MOL0     C67507  10.399   7.319   6.941 -0.5782  0.6103  0.6982
  501MOL0     O67508  10.501   7.413   6.971  0.4345 -0.2362 -0.2501
  501MOL0     C67509  10.634   7.381   7.005 -0.5456  0.1812  0.3313
  501MOL0     C67510  10.728   7.502   7.030  0.9027  0.0119 -0.6526
  501MOL0     C67511  10.702   7.564   7.173  0.7310  0.8525  0.0343
  501MOL0     C67512  10.777   7.695   7.188 -0.3468 -0.1864  0.2719
  501MOL0     C67513  10.754   7.755   7.329 -0.3047 -0.4135  0.1227
  501MOL0     C67514  10.612   7.761   7.376 -0.0120  0.1281  0.3558
  501MOL0     C67515  10.588   7.820   7.516 -0.0778  0.3039 -0.4917
  501MOL0     C67516  10.555   7.971   7.527 -0.4933 -0.1897  1.1062
  501MOL0     N67517  10.663   8.060   7.487  0.1594  0.0098  0.0599
  501MOL0     C67518  10.769   8.091   7.562 -0.1502  0.4450 -1.1646
  501MOL0     C67519  10.841   8.180   7.494 -0.0686  0.2356 -0.4566
  501MOL0     C67520  10.980   8.232   7.522  0.1810 -0.1603 -0.0237
  501MOL0     C67521  11.080   8.143   7.439  0.7479 -0.5805 -1.1334
  501MOL0     C67522  11.193   8.232   7.375 -0.3156  0.5274 -0.7169
  501MOL0     C67523  11.284   8.312   7.468  0.0443  0.5279  0.4144
  501MOL0     O67524  11.345   8.224   7.567 -0.7684  0.5625 -0.2440
  501MOL0     C67525  11.450   8.284   7.635  0.8470 -0.2022 -0.1908
  501MOL0     C67526  11.415   8.375   7.741  0.4833 -0.8873  0.3439
  501MOL0     C67527  11.517   8.447   7.813  0.0733 -0.2293 -0.0404
  501MOL0     C67528  11.655   8.432   7.774  0.2792  0.2400  0.4198
  501MOL0     C67529  11.768   8.499   7.840  0.1452 -0.3059 -0.1031
  501MOL0     O67530  11.739   8.595   7.929  0.0483  0.1601 -0.0031
  501MOL0     C67531  11.835   8.661   7.991  0.9422  0.7177  0.2378
  501MOL0     C67532  11.848   8.804   7.973 -0.0879  0.0086  0.2176
  501MOL0     C67533  11.943   8.862   8.050  0.0430 -0.5558 -0.5683
  501MOL0     C67534  12.035   8.794   8.135  0.2037 -0.0837 -0.5453
  501MOL0     O67535  12.131   8.849   8.210  0.0704  0.0866 -0.0361
  501MOL0     C67536  12.145   8.993   8.206 -0.4194  0.6986 -0.4032
  501MOL0     C67537  12.265   9.042   8.291 -0.0679  0.6533  0.0847
  501MOL0     C67538  12.259   9.195   8.313  0.1073  1.1352 -0.3915
  501MOL0     C67539  12.374   9.251   8.397 -0.4816 -0.1941  0.2924
  501MOL0     C67540  12.363   9.408   8.393 -0.3583 -0.1504 -0.1850
  501MOL0     C67541  12.491   9.488   8.448 -0.2243  0.3642 -0.8795
  501MOL0     C67542  12.446   9.635   8.473 -0.3568  1.2642 -0.2081
  501MOL0     C67543  12.560   9.734   8.492 -0.4170 -0.1350  0.1911
  501MOL0    Cl67544  12.675   9.688   8.620 -0.3948  0.1759  0.0321
  501MOL0     C67545  12.028   8.651   8.135 -0.3181  0.8619  0.6670
  501MOL0     C67546  11.931   8.589   8.059  0.2351 -0.3404 -0.0667
  501MOL0     O67547  11.885   8.477   7.803  1.0468 -0.1409 -0.0440
  501MOL0     C67548  11.681   8.339   7.670 -0.0029 -0.1328  0.8109
  501MOL0     C67549  11.584   8.274   7.600 -0.7061 -0.0753 -0.2715
  501MOL0     N67550  10.765   8.200   7.381  0.6140  0.1084 -0.1159
  501MOL0     N67551  10.663   8.129   7.376  0.9904 -0.3859 -0.5244
  501MOL0     C67552  10.277   7.358   6.878  0.2949 -0.9779 -0.5554
  501MOL0     C67553  10.173   7.268   6.869  0.1941 -0.5914 -0.3484
  501MOL0     C67554   9.878   6.953   6.969 -0.2513  1.6756  0.2526
  501MOL0     C67555   9.739   6.984   6.976  0.1470 -0.0570 -0.4329
  501MOL0     C67556   9.644   6.886   6.968 -0.3096 -0.5816 -0.2865
  501MOL0     C67557   9.670   6.758   6.931  0.4304  0.1416  0.2252
  501MOL0     O67558   9.558   6.678   6.918  0.1051 -0.4325 -0.2151
  501MOL0     C67559   9.578   6.537   6.890  0.2311 -0.1542 -0.1258
  501MOL0     C67560   9.440   6.475   6.877 -0.3836  0.1545 -0.3017
  501MOL0     C67561   9.366   6.517   6.752  0.7624 -0.9082  0.2191
  501MOL0     C67562   9.244   6.436   6.728  0.1953  1.2607 -0.1238
  501MOL0     C67563   9.128   6.503   6.793 -0.1776 -0.0210  0.7431
  501MOL0     C67564   9.036   6.564   6.834  0.1599  0.2041 -0.2962
  501MOL0     C67565   9.802   6.729   6.911 -0.2952  1.5590 -0.1969
  501MOL0     C67566   9.909   6.819   6.933 -0.1339  0.1986 -0.0326
  501MOL0     C67567  10.050   6.768   6.925  0.4639 -0.3853 -0.1703
  501MOL0     H67568  10.314   7.001   7.017  1.4095  0.1354  0.5255
  501MOL0     H67569  10.496   7.157   7.045 -0.8356  2.0037  1.6746
  501MOL0     H67570  10.623   7.325   7.098 -1.6386 -0.8599 -0.4040
  501MOL0     H67571  10.665   7.301   6.937 -4.2275 -1.7629  0.7248
  501MOL0     H67572  10.700   7.578   6.958 -2.1809 -0.5208 -0.1736
  501MOL0     H67573  10.834   7.475   7.030  0.2644 -3.0562  0.8088
  501MOL0     H67574  10.728   7.487   7.247 -0.1610 -0.0513 -0.5709
  501MOL0     H67575  10.596   7.583   7.188  0.7985  1.2747 -0.0015
  501MOL0     H67576  10.883   7.685   7.164 -0.9897 -0.7248 -2.8241
  501MOL0     H67577  10.734   7.765   7.115  1.4064  0.3485 -0.2969
  501MOL0     H67578  10.820   7.701   7.398  0.3903 -0.7443 -0.7821
  501MOL0     H67579  10.792   7.858   7.326  0.0501 -0.5568 -0.7457
  501MOL0     H67580  10.547   7.802   7.298 -3.4165 -3.6931  0.9077
  501MOL0     H67581  10.584   7.656   7.386  0.2611 -0.0626 -0.7184
  501MOL0     H67582  10.674   7.808   7.581 -0.6126  0.4971  0.2577
  501MOL0     H67583  10.504   7.762   7.555  0.3928 -1.5905 -2.1403
  501MOL0     H67584  10.473   8.004   7.464  0.8235  0.8574 -0.1282
  501MOL0     H67585  10.533   7.999   7.631  3.4533  0.1819  2.0264
  501MOL0     H67586  10.804   8.048   7.656 -1.4115  2.2384  0.2191
  501MOL0     H67587  10.988   8.336   7.487  0.5247 -1.3679 -4.0377
  501MOL0     H67588  11.005   8.220   7.628  1.0528 -0.6225 -0.2776
  501MOL0     H67589  11.131   8.063   7.495  3.7850 -0.1498 -3.0321
  501MOL0     H67590  11.022   8.093   7.361  0.8768 -2.3823 -0.1267
  501MOL0     H67591  11.148   8.301   7.304  1.2846  0.1027 -2.2117
  501MOL0     H67592  11.259   8.182   7.304 -1.9090 -0.3082 -1.6718
  501MOL0     H67593  11.226   8.393   7.514  0.6461  1.9226 -1.1924
  501MOL0     H67594  11.360   8.357   7.403 -0.4269 -2.3110 -2.3092
  501MOL0     H67595  11.316   8.392   7.783 -0.7295 -0.6261 -2.4120
  501MOL0     H67596  11.494   8.508   7.899  0.5503 -2.7440  2.0146
  501MOL0     H67597  11.782   8.865   7.912 -0.1492 -0.5600 -0.2889
  501MOL0     H67598  11.946   8.969   8.032  0.1507 -0.4919 -0.1871
  501MOL0     H67599  12.167   9.029   8.105  1.5759  0.2759 -0.1589
  501MOL0     H67600  12.053   9.040   8.242  0.5122  1.4230  1.1538
  501MOL0     H67601  12.258   8.990   8.387 -0.5935  0.5364 -0.0110
  501MOL0     H67602  12.360   9.010   8.248  0.7667  3.1611 -0.1041
  501MOL0     H67603  12.247   9.248   8.218  2.4526  1.6773 -0.4609
  501MOL0     H67604  12.170   9.221   8.372 -0.7171  2.7400 -2.2383
  501MOL0     H67605  12.465   9.225   8.342 -1.2049  1.4087 -1.7776
  501MOL0     H67606  12.363   9.214   8.500 -2.6705 -0.6363 -0.0565
  501MOL0     H67607  12.278   9.445   8.452 -0.3931  1.3309 -1.1222
  501MOL0     H67608  12.352   9.440   8.289  1.6481 -3.8250 -1.7203
  501MOL0     H67609  12.529   9.448   8.542  0.2501 -1.0383 -1.6489
  501MOL0     H67610  12.577   9.490   8.381  0.0900  0.4900 -0.4746
  501MOL0     H67611  12.387   9.637   8.565 -0.9091 -1.2739 -0.4109
  501MOL0     H67612  12.393   9.663   8.381  0.5586  0.0708 -1.1423
  501MOL0     H67613  12.613   9.725   8.397 -1.9530 -1.5941 -0.5815
  501MOL0     H67614  12.522   9.836   8.505  1.9190  0.6978  1.0504
  501MOL0     H67615  12.105   8.594   8.186  1.3270  1.7280 -0.7376
  501MOL0     H67616  11.933   8.481   8.056 -3.2989 -0.4911 -2.0969
  501MOL0     H67617  11.784   8.329   7.635 -0.2626 -2.5401  0.5805
  501MOL0     H67618  11.587   8.200   7.521 -2.4405 -1.7172  1.1113
  501MOL0     H67619  10.269   7.463   6.852  2.2231 -0.7435 -0.3468
  501MOL0     H67620  10.085   7.295   6.811  0.1062 -2.6624 -1.2673
  501MOL0     H67621   9.705   7.086   6.992 -1.8812 -0.3161 -2.6427
  501MOL0     H67622   9.542   6.916   6.991  0.1012  0.4615  0.2333
  501MOL0     H67623   9.641   6.487   6.964 -0.4976 -0.5390  0.2457
  501MOL0     H67624   9.630   6.531   6.795 -3.1797 -2.2885 -2.0517
  501MOL0     H67625   9.379   6.491   6.966  1.8801 -0.2170  1.3988
  501MOL0     H67626   9.446   6.366   6.875 -0.3660  0.1262 -3.2902
  501MOL0     H67627   9.437   6.522   6.669  0.6524  0.7484  0.1835
  501MOL0     H67628   9.331   6.621   6.759 -1.0799 -1.5583  1.3854
  501MOL0     H67629   9.235   6.395   6.626 -2.2275 -0.4719  0.6654
  501MOL0     H67630   9.257   6.341   6.781  2.0030  1.2114 -0.6115
  501MOL0     H67631   8.960   6.614   6.891  0.9111 -1.7858  2.6842
  501MOL0     H67632   9.828   6.625   6.894  0.9979  1.4788  1.8639
  501MOL0     H67633  10.034   6.665   6.893  0.5707 -0.8367  1.1497
  501MOL0     H67634  10.115   6.808   6.847  3.3083 -1.9436  1.2279
  501MOL0     H67635  10.108   6.776   7.018 -0.1096  1.2141  0.0804
  502MOL0     O67636   5.400   5.100   7.773 -0.1662  0.0101  0.3592
  502MOL0     C67637   5.393   5.215   7.813 -0.0641 -0.5345  0.2532
  502MOL0     O67638   5.496   5.305   7.784  0.2979 -0.0742 -0.8510
  502MOL0     C67639   5.601   5.277   7.701  0.0027  0.4393  0.2239
  502MOL0     C67640   5.734   5.269   7.748 -0.0516  0.1492 -0.7719
  502MOL0     C67641   5.838   5.246   7.658 -1.0024  0.2933 -0.4976
  502MOL0     C67642   5.817   5.230   7.522 -0.3822 -0.0360 -0.4186
  502MOL0     O67643   5.916   5.212   7.428 -0.1823 -0.1021  0.3847
  502MOL0     C67644   6.055   5.222   7.456 -0.2197 -0.0950  0.6253
  502MOL0     C67645   6.123   5.080   7.485  1.1076  0.8669  0.7621
  502MOL0     C67646   6.273   5.097   7.544  0.9443 -0.0704  0.5297
  502MOL0     C67647   6.357   4.976   7.526  0.2303  0.8826  0.6384
  502MOL0     C67648   6.504   5.010   7.519 -0.7656 -0.1187 -0.8610
  502MOL0     C67649   6.592   4.890   7.492  0.1240 -0.1184 -0.6081
  502MOL0     C67650   6.740   4.920   7.469  0.6418  0.3526  0.4628
  502MOL0     C67651   6.816   4.784   7.428  0.3453 -0.3911 -0.9984
  502MOL0     N67652   6.947   4.818   7.370 -0.2931  0.9824 -0.0558
  502MOL0     C67653   6.981   4.793   7.243  0.1308 -0.0977  0.7430
  502MOL0     C67654   7.104   4.856   7.223  0.4294 -0.2647 -0.2761
  502MOL0     C67655   7.170   4.863   7.088 -0.9017 -0.2128  0.4860
  502MOL0     C67656   7.313   4.911   7.103  0.5186 -0.3023  0.2800
  502MOL0     C67657   7.382   4.882   6.974 -0.9098 -0.4339 -0.3191
  502MOL0     C67658   7.536   4.920   6.968 -0.0373 -0.0769  0.2021
  502MOL0     O67659   7.533   5.061   6.981  0.2131 -0.4448 -0.4899
  502MOL0     C67660   7.640   5.122   6.930 -0.5134  0.1262 -0.1616
  502MOL0     C67661   7.722   5.069   6.824  0.0232  0.2120  0.5435
  502MOL0     C67662   7.834   5.141   6.786  0.2504 -0.8198 -0.2890
  502MOL0     C67663   7.874   5.259   6.858  0.0903  0.2071  0.3877
  502MOL0     C67664   8.011   5.328   6.826  0.2258  0.8228  0.3148
  502MOL0     O67665   8.083   5.263   6.740 -0.7776 -0.1469  0.0304
  502MOL0     C67666   8.193   5.322   6.694 -0.3360  0.2276  0.5905
  502MOL0     C67667   8.324   5.301   6.759  0.3156  0.4741  1.0171
  502MOL0     C67668   8.440   5.356   6.706 -0.4565  0.5244  0.1321
  502MOL0     C67669   8.443   5.426   6.584 -0.2867 -0.0619  0.4184
  502MOL0     O67670   8.553   5.485   6.534  0.2317  0.1395 -0.9153
  502MOL0     C67671   8.534   5.616   6.474  0.4580 -0.7678 -0.6018
  502MOL0     C67672   8.657   5.698   6.504 -0.0979  0.3837 -0.2549
  502MOL0     C67673   8.659   5.749   6.654  0.5212  0.1567 -0.1558
  502MOL0     C67674   8.783   5.832   6.691  0.0130 -0.5930 -0.1301
  502MOL0     C67675   8.761   5.900   6.830 -0.1786 -0.4125 -0.3666
  502MOL0     C67676   8.849   6.022   6.855 -0.3176 -0.1414  0.4924
  502MOL0     C67677   8.999   6.007   6.825  0.0712 -0.1260 -0.3310
  502MOL0     C67678   9.088   6.121   6.860 -0.1221  0.7683 -0.3674
  502MOL0    Cl67679   9.257   6.088   6.851  0.1864  0.2225 -0.3660
  502MOL0     C67680   8.322   5.429   6.522  0.3576 -1.0376  0.4465
  502MOL0     C67681   8.198   5.392   6.572 -0.0317  0.3184  0.3960
  502MOL0     O67682   8.037   5.433   6.878 -0.4885 -0.3759 -0.5339
  502MOL0     C67683   7.797   5.305   6.963  0.1382 -0.2005 -0.4344
  502MOL0     C67684   7.682   5.235   6.999  0.8950 -0.0497 -1.1161
  502MOL0     N67685   7.142   4.921   7.347 -0.0645 -0.1668  0.6328
  502MOL0     N67686   7.045   4.888   7.431  0.9528 -0.0786  0.1551
  502MOL0     C67687   5.680   5.231   7.476 -0.4569  0.2705 -0.6700
  502MOL0     C67688   5.577   5.253   7.569  0.3547  0.1073  0.6742
  502MOL0     C67689   5.261   5.251   7.870 -0.2812 -0.3697  0.3565
  502MOL0     C67690   5.229   5.384   7.864  0.2569  0.1281  0.2634
  502MOL0     C67691   5.100   5.430   7.888  0.1779 -0.0503  0.8433
  502MOL0     C67692   5.004   5.332   7.919 -0.4845 -0.6977  0.3540
  502MOL0     O67693   4.882   5.388   7.939  0.2598  0.0595  0.3014
  502MOL0     C67694   4.769   5.311   7.909  0.3007 -0.3109 -0.4886
  502MOL0     C67695   4.645   5.403   7.908 -0.0993 -0.0775  0.1835
  502MOL0     C67696   4.626   5.470   8.042  0.2703 -1.5123 -0.5282
  502MOL0     C67697   4.485   5.521   8.069  0.9735  0.4637  0.0069
  502MOL0     C67698   4.405   5.403   8.096 -0.4876  0.4776  0.1627
  502MOL0     C67699   4.343   5.305   8.131  0.4699 -0.3329  0.3833
  502MOL0     C67700   5.031   5.202   7.951  0.0786 -1.0616  0.5932
  502MOL0     C67701   5.158   5.166   7.919 -0.5299  0.0566  0.0823
  502MOL0     C67702   5.187   5.026   7.951 -0.0660  0.4845 -0.3051
  502MOL0     H67703   5.752   5.281   7.855  1.7573  2.5327 -1.2883
  502MOL0     H67704   5.938   5.242   7.700 -0.6485 -0.0724 -1.3457
  502MOL0     H67705   6.111   5.272   7.376 -1.2036 -0.0053 -0.0214
  502MOL0     H67706   6.076   5.286   7.543 -1.3957  2.3947 -0.8062
  502MOL0     H67707   6.121   5.026   7.390 -0.2607 -0.1303  1.3254
  502MOL0     H67708   6.061   5.017   7.549  1.0497  0.6305  0.4754
  502MOL0     H67709   6.280   5.116   7.651 -0.9354 -0.2486  0.7294
  502MOL0     H67710   6.316   5.180   7.487  3.3448 -0.3230  1.8756
  502MOL0     H67711   6.327   4.899   7.597  0.9909 -3.0119 -2.8626
  502MOL0     H67712   6.333   4.934   7.428  0.0298  1.4783  0.4237
  502MOL0     H67713   6.535   5.083   7.444 -0.0497  0.3849 -0.1031
  502MOL0     H67714   6.531   5.055   7.616 -3.5604 -1.8108  0.8244
  502MOL0     H67715   6.587   4.822   7.578  3.0674 -0.9747 -1.0004
  502MOL0     H67716   6.560   4.834   7.403 -0.5947 -0.2454 -0.2821
  502MOL0     H67717   6.796   4.960   7.554  1.4488  1.8852 -0.7405
  502MOL0     H67718   6.749   4.993   7.388  0.4295  3.3273  2.9399
  502MOL0     H67719   6.826   4.735   7.526 -0.5171 -1.7363 -1.5479
  502MOL0     H67720   6.764   4.715   7.361  0.4133 -1.3108 -0.1448
  502MOL0     H67721   6.929   4.744   7.162  1.6030 -1.1616  0.4081
  502MOL0     H67722   7.162   4.762   7.048 -2.6482  0.3243 -0.6203
  502MOL0     H67723   7.125   4.928   7.013  3.9106  0.2368 -2.4511
  502MOL0     H67724   7.314   5.013   7.142 -1.4579 -0.3512  0.5815
  502MOL0     H67725   7.344   4.848   7.187 -0.3889 -1.2479 -0.0799
  502MOL0     H67726   7.333   4.934   6.891 -1.3854  1.7340  1.2137
  502MOL0     H67727   7.384   4.775   6.953  1.2630 -0.0090 -2.8342
  502MOL0     H67728   7.566   4.893   6.866  1.7208  2.7295 -0.1307
  502MOL0     H67729   7.601   4.867   7.039  1.0940 -1.9017 -2.0395
  502MOL0     H67730   7.700   4.982   6.762 -0.1974 -2.3126  3.8706
  502MOL0     H67731   7.909   5.108   6.715 -0.5031  0.9902 -2.0367
  502MOL0     H67732   8.328   5.221   6.832  2.0891  0.6929  1.2188
  502MOL0     H67733   8.537   5.343   6.754 -0.8983 -2.8892  0.3129
  502MOL0     H67734   8.526   5.617   6.365  3.1327  0.3047 -0.8721
  502MOL0     H67735   8.441   5.661   6.511  1.6214  0.8431  0.5038
  502MOL0     H67736   8.756   5.655   6.485  1.8435  4.6435 -0.9551
  502MOL0     H67737   8.664   5.787   6.442  0.2176  0.5432  0.0065
  502MOL0     H67738   8.577   5.819   6.671  1.9530  1.9803 -0.4138
  502MOL0     H67739   8.669   5.661   6.718 -0.0817 -0.5899 -1.0734
  502MOL0     H67740   8.802   5.916   6.625  0.9558  0.2451  1.1600
  502MOL0     H67741   8.870   5.766   6.686 -0.8729 -2.7040  5.1816
  502MOL0     H67742   8.778   5.828   6.910  1.2805  1.0733  0.7076
  502MOL0     H67743   8.655   5.929   6.839 -0.2662 -0.9833  0.5874
  502MOL0     H67744   8.812   6.102   6.790  2.4696  1.8547  1.1689
  502MOL0     H67745   8.831   6.059   6.957 -3.9701  4.2578 -1.3817
  502MOL0     H67746   9.023   5.993   6.719  0.8721  1.6665 -0.4111
  502MOL0     H67747   9.032   5.927   6.891 -2.1268 -0.6330  0.2444
  502MOL0     H67748   9.062   6.201   6.790 -1.2114 -0.7291 -1.7458
  502MOL0     H67749   9.069   6.162   6.959 -4.2199  1.5581 -1.3104
  502MOL0     H67750   8.323   5.468   6.420 -1.2627 -1.7023  0.1557
  502MOL0     H67751   8.101   5.401   6.523 -1.8970 -1.2307  3.5089
  502MOL0     H67752   7.836   5.386   7.024 -2.1156  1.4129 -1.0284
  502MOL0     H67753   7.630   5.287   7.078  1.8091  0.5931 -0.9181
  502MOL0     H67754   5.662   5.199   7.373  2.0055  0.3928 -1.1812
  502MOL0     H67755   5.476   5.248   7.531  0.7665  1.0762 -0.5990
  502MOL0     H67756   5.303   5.460   7.842 -1.1755  1.4770 -0.1399
  502MOL0     H67757   5.079   5.536   7.891 -1.6740 -0.2925 -1.0848
  502MOL0     H67758   4.751   5.245   7.995  1.9596  0.2050  0.3089
  502MOL0     H67759   4.774   5.247   7.821 -0.0451 -1.4212  0.2789
  502MOL0     H67760   4.559   5.339   7.891 -1.3382  0.6272  3.2433
  502MOL0     H67761   4.653   5.465   7.818  0.9559 -1.2317 -0.5609
  502MOL0     H67762   4.691   5.557   8.053 -0.9675 -0.5168 -0.9043
  502MOL0     H67763   4.643   5.398   8.122  0.5456 -1.1009 -0.2126
  502MOL0     H67764   4.486   5.587   8.156  4.1166 -0.8794  1.1129
  502MOL0     H67765   4.445   5.579   7.985 -0.8097 -1.2783 -0.4364
  502MOL0     H67766   4.292   5.216   8.164 -1.0350 -0.2014 -1.4068
  502MOL0     H67767   4.965   5.129   7.996 -0.3508 -1.3653 -0.4906
  502MOL0     H67768   5.178   4.969   7.858  0.6597  0.1565 -0.1771
  502MOL0     H67769   5.287   5.012   7.994  0.6348 -0.0337 -2.0065
  502MOL0     H67770   5.112   4.984   8.019  0.0461  0.3834 -0.2438
  503MOL0     O67771   5.213   1.815   2.388 -0.1785 -0.0947  0.2854
  503MOL0     C67772   5.164   1.808   2.498 -0.5205  0.5466  0.3083
  503MOL0     O67773   5.225   1.853   2.614  0.2487 -0.4634  0.0074
  503MOL0     C67774   5.350   1.914   2.597  0.3156  0.0093 -0.3436
  503MOL0     C67775   5.367   2.050   2.571 -0.8983 -0.1437 -0.2870
  503MOL0     C67776   5.492   2.111   2.567 -0.3771  0.2935  0.5366
  503MOL0     C67777   5.614   2.038   2.591  0.4241  0.1505 -0.3449
  503MOL0     O67778   5.742   2.083   2.588 -0.3561 -0.3726 -0.0971
  503MOL0     C67779   5.759   2.199   2.499 -0.4994 -1.1756  0.2336
  503MOL0     C67780   5.906   2.201   2.451 -0.1176 -0.9615  0.1403
  503MOL0     C67781   5.923   2.335   2.375 -0.2528  0.5139  0.0645
  503MOL0     C67782   6.076   2.344   2.332 -0.7117  0.1386 -0.3726
  503MOL0     C67783   6.171   2.381   2.447 -0.7038  0.5659  0.6443
  503MOL0     C67784   6.302   2.307   2.419  0.4348  0.2388  0.2267
  503MOL0     C67785   6.417   2.343   2.517  0.5020 -0.3406  0.6459
  503MOL0     C67786   6.533   2.248   2.501  0.3491 -0.2959  0.0387
  503MOL0     N67787   6.618   2.271   2.382  0.3834 -0.0664  0.0491
  503MOL0     C67788   6.726   2.356   2.378 -0.4139 -0.3467  0.4409
  503MOL0     C67789   6.800   2.320   2.264  0.9291  0.3577  0.2684
  503MOL0     C67790   6.937   2.385   2.218  0.8848  0.0372  0.4019
  503MOL0     C67791   7.059   2.290   2.203  1.1719  0.2706 -0.3845
  503MOL0     C67792   7.178   2.373   2.166 -0.3893 -0.2500  0.5469
  503MOL0     C67793   7.304   2.284   2.170 -0.1533 -0.5656  0.6395
  503MOL0     O67794   7.422   2.368   2.148 -0.2340 -0.1684 -0.4324
  503MOL0     C67795   7.541   2.309   2.102 -0.1210  0.0390 -1.0508
  503MOL0     C67796   7.552   2.168   2.085  0.4163 -0.5519  0.0185
  503MOL0     C67797   7.669   2.122   2.022 -0.1870 -0.0462 -0.3123
  503MOL0     C67798   7.775   2.200   1.994  0.0438 -0.2384  0.7772
  503MOL0     C67799   7.889   2.158   1.912 -0.4102 -0.0955  1.0965
  503MOL0     O67800   7.996   2.244   1.887 -0.2179  0.6798 -0.1055
  503MOL0     C67801   8.114   2.194   1.834 -0.2952  0.4531  0.0021
  503MOL0     C67802   8.172   2.072   1.864 -0.2281  0.9914  0.1545
  503MOL0     C67803   8.296   2.028   1.821 -0.7318 -0.2184 -0.1194
  503MOL0     C67804   8.368   2.117   1.739  1.4189 -0.3773 -0.1486
  503MOL0     O67805   8.489   2.082   1.690 -0.8025  0.3434  0.3609
  503MOL0     C67806   8.592   2.182   1.682 -0.3142  0.3881 -0.0888
  503MOL0     C67807   8.723   2.115   1.708 -0.3049  0.2228  0.1620
  503MOL0     C67808   8.847   2.207   1.681 -0.3023  0.4373 -0.2214
  503MOL0     C67809   8.858   2.320   1.776  0.2908  0.1280 -0.3861
  503MOL0     C67810   8.990   2.396   1.753  0.6479 -0.0530 -0.1723
  503MOL0     C67811   9.018   2.518   1.843 -0.6702  0.6496 -0.1946
  503MOL0     C67812   8.938   2.627   1.784 -0.3174  0.6026 -0.7909
  503MOL0     C67813   8.961   2.747   1.877 -0.8208 -0.4216 -0.0154
  503MOL0    Cl67814   9.126   2.796   1.896  0.1085 -0.3154  0.3260
  503MOL0     C67815   8.311   2.246   1.707 -0.5229 -0.0260 -0.2663
  503MOL0     C67816   8.189   2.277   1.756 -1.3520  0.4127 -0.3471
  503MOL0     O67817   7.877   2.044   1.866 -0.1396 -0.1993 -0.0347
  503MOL0     C67818   7.759   2.341   2.005 -0.1926  0.5427 -0.5637
  503MOL0     C67819   7.641   2.392   2.064 -0.2337  0.1119  0.1425
  503MOL0     N67820   6.736   2.212   2.215  0.3873 -0.1262 -0.3502
  503MOL0     N67821   6.637   2.181   2.282  0.4268 -0.5456 -0.4432
  503MOL0     C67822   5.592   1.908   2.642  0.7204  0.2003  0.8354
  503MOL0     C67823   5.459   1.844   2.632 -0.1014  0.7855  0.1441
  503MOL0     C67824   5.032   1.742   2.499  0.4952 -0.2662  0.2144
  503MOL0     C67825   4.960   1.723   2.375  0.0623 -0.6545 -0.3679
  503MOL0     C67826   4.849   1.639   2.364 -0.3842 -0.1463  0.6241
  503MOL0     C67827   4.795   1.570   2.474  0.2716 -0.1341 -0.6037
  503MOL0     O67828   4.682   1.496   2.457  0.2725 -0.9009 -0.4167
  503MOL0     C67829   4.576   1.513   2.554  0.9125 -0.0127  0.5927
  503MOL0     C67830   4.451   1.466   2.481  0.4674 -0.1695 -0.2086
  503MOL0     C67831   4.453   1.317   2.452 -0.2511 -0.6690  0.3868
  503MOL0     C67832   4.371   1.277   2.333  0.1619 -0.4021 -0.0621
  503MOL0     C67833   4.236   1.247   2.383 -0.4251 -0.2775  0.7081
  503MOL0     C67834   4.120   1.229   2.408 -0.0806 -0.5870 -0.0883
  503MOL0     C67835   4.864   1.591   2.597  0.3073  1.0790  0.1922
  503MOL0     C67836   4.982   1.673   2.613 -0.3078 -0.0599 -0.0032
  503MOL0     C67837   5.055   1.669   2.746 -0.2600 -0.1730  0.9252
  503MOL0     H67838   5.274   2.106   2.558 -0.5488  0.0362 -2.4062
  503MOL0     H67839   5.484   2.218   2.549 -2.4125  0.4977  2.2923
  503MOL0     H67840   5.696   2.196   2.410 -2.3054  1.9076  1.2662
  503MOL0     H67841   5.740   2.294   2.550 -0.1683  0.5801 -2.6799
  503MOL0     H67842   5.933   2.120   2.384  0.6930  0.3648 -1.1987
  503MOL0     H67843   5.971   2.205   2.539  2.3056  1.1624 -1.5940
  503MOL0     H67844   5.903   2.425   2.433 -2.1201  0.8142 -0.9551
  503MOL0     H67845   5.857   2.344   2.288 -0.2759  2.2894  0.2315
  503MOL0     H67846   6.112   2.252   2.284  1.6015 -0.0165  1.4686
  503MOL0     H67847   6.092   2.417   2.252 -0.0258 -1.3250 -1.6139
  503MOL0     H67848   6.182   2.490   2.451 -0.7660  0.5904  0.1622
  503MOL0     H67849   6.144   2.348   2.548  3.7699  0.2070  1.9453
  503MOL0     H67850   6.286   2.199   2.422 -1.8195  0.4995 -0.5778
  503MOL0     H67851   6.344   2.322   2.319  1.7202 -2.7268  0.2212
  503MOL0     H67852   6.379   2.323   2.617  0.0881  1.7718  0.9583
  503MOL0     H67853   6.446   2.449   2.522 -0.2299 -0.0450 -0.6088
  503MOL0     H67854   6.585   2.264   2.596 -1.0675 -1.1337  1.0053
  503MOL0     H67855   6.498   2.145   2.492 -0.2677 -0.1752  0.9576
  503MOL0     H67856   6.738   2.437   2.448 -0.7041  0.6775 -0.6594
  503MOL0     H67857   6.923   2.435   2.122 -0.8160 -1.2664 -0.0923
  503MOL0     H67858   6.956   2.455   2.300 -0.8797 -1.8072  2.5406
  503MOL0     H67859   7.066   2.240   2.300 -0.5181  1.3956  0.3831
  503MOL0     H67860   7.041   2.218   2.123  0.2696 -2.6120  2.2174
  503MOL0     H67861   7.188   2.463   2.228  1.0560 -0.2639  0.3673
  503MOL0     H67862   7.166   2.415   2.066 -0.7791  0.3907  0.8533
  503MOL0     H67863   7.306   2.229   2.075 -0.3029  0.9441 -0.2755
  503MOL0     H67864   7.314   2.211   2.251  2.0784  0.2213  1.1642
  503MOL0     H67865   7.471   2.100   2.110  0.2639 -0.7666 -1.0048
  503MOL0     H67866   7.684   2.016   2.005  1.8933  0.3297 -1.1245
  503MOL0     H67867   8.113   2.016   1.936 -1.1791  0.1264 -1.2469
  503MOL0     H67868   8.351   1.936   1.837 -0.6070 -0.5690 -2.2646
  503MOL0     H67869   8.585   2.229   1.583 -0.0087 -0.3181 -0.4508
  503MOL0     H67870   8.578   2.261   1.756 -0.6489  1.9243 -1.7287
  503MOL0     H67871   8.737   2.076   1.809 -0.9928  1.5090  0.7762
  503MOL0     H67872   8.734   2.026   1.644  3.2647 -0.0835  0.9880
  503MOL0     H67873   8.930   2.137   1.693 -5.0114 -5.6185  2.6959
  503MOL0     H67874   8.853   2.249   1.580 -0.4240  1.3123  0.1226
  503MOL0     H67875   8.867   2.282   1.878 -2.3146  1.3627  0.3683
  503MOL0     H67876   8.770   2.384   1.768 -0.6442 -1.3172 -3.0510
  503MOL0     H67877   9.008   2.414   1.647 -0.7635 -1.3877 -0.6746
  503MOL0     H67878   9.065   2.325   1.787  1.2299  1.4187  1.8085
  503MOL0     H67879   8.995   2.499   1.948 -1.3789  2.0844 -0.0661
  503MOL0     H67880   9.122   2.551   1.839 -0.2079 -0.8054 -1.8990
  503MOL0     H67881   8.832   2.597   1.782 -1.0605  2.4952  2.2836
  503MOL0     H67882   8.965   2.655   1.682  1.1805  0.7892 -0.3684
  503MOL0     H67883   8.901   2.834   1.847 -1.0671 -0.3648  0.6142
  503MOL0     H67884   8.917   2.729   1.975  0.9945 -1.2249  0.6932
  503MOL0     H67885   8.379   2.318   1.662 -1.5488 -0.4153 -2.6073
  503MOL0     H67886   8.141   2.372   1.732  0.1086  0.8502 -1.6966
  503MOL0     H67887   7.840   2.408   1.978  1.0691 -0.8163 -0.2839
  503MOL0     H67888   7.626   2.500   2.068  2.1670  0.6615 -2.3486
  503MOL0     H67889   5.672   1.853   2.689 -0.8733 -1.6136  1.5540
  503MOL0     H67890   5.451   1.743   2.672 -0.2550  0.6588 -0.2065
  503MOL0     H67891   4.990   1.781   2.289 -2.6284  1.0691 -0.2571
  503MOL0     H67892   4.792   1.631   2.272  3.2060  0.1921 -1.8282
  503MOL0     H67893   4.566   1.619   2.578  0.5132  0.1196 -0.1548
  503MOL0     H67894   4.603   1.454   2.642  0.1246  1.0846  1.6025
  503MOL0     H67895   4.447   1.523   2.388 -3.0831 -1.8767 -1.3168
  503MOL0     H67896   4.359   1.491   2.535  1.4824  2.0645  0.5879
  503MOL0     H67897   4.428   1.259   2.541  0.3244  0.4630  1.3113
  503MOL0     H67898   4.556   1.295   2.422 -0.6630 -2.2292  0.0418
  503MOL0     H67899   4.378   1.349   2.252  2.5066  0.2634  0.6599
  503MOL0     H67900   4.403   1.183   2.286 -0.5970 -0.3166 -0.7801
  503MOL0     H67901   4.016   1.213   2.428 -0.4173  1.3581 -0.0993
  503MOL0     H67902   4.819   1.550   2.688 -3.8329  0.8515 -1.7319
  503MOL0     H67903   5.031   1.757   2.806  2.1174  1.8742 -0.9116
  503MOL0     H67904   5.022   1.581   2.802  0.9187 -0.0251  1.8922
  503MOL0     H67905   5.161   1.648   2.727 -0.5789  0.0934 -1.4486
  504MOL0     O67906   4.145   5.969   8.526  0.2823  0.1127 -0.1108
  504MOL0     C67907   4.055   6.050   8.515  0.1715 -0.4504 -0.1431
  504MOL0     O67908   4.071   6.182   8.470  0.0913  0.3936 -0.2423
  504MOL0     C67909   4.197   6.240   8.454  0.2863  1.3136 -0.3808
  504MOL0     C67910   4.217   6.320   8.341 -0.1267 -0.6039 -0.2518
  504MOL0     C67911   4.343   6.365   8.314 -0.7572  0.1202 -0.4427
  504MOL0     C67912   4.452   6.343   8.402  0.4992 -0.4128 -0.0822
  504MOL0     O67913   4.574   6.403   8.365  0.6744  0.1203 -0.1711
  504MOL0     C67914   4.682   6.408   8.462 -0.0640 -0.3305  0.9920
  504MOL0     C67915   4.781   6.292   8.458  1.0305  0.6307 -0.5192
  504MOL0     C67916   4.853   6.282   8.323  0.7383  0.2468  0.0071
  504MOL0     C67917   4.959   6.161   8.337  0.2775  0.1958  0.0388
  504MOL0     C67918   5.052   6.177   8.213 -0.4959  0.1699  0.6141
  504MOL0     C67919   5.166   6.077   8.230 -0.2089  0.2694  0.3277
  504MOL0     C67920   5.125   5.943   8.189  0.0193 -0.3775 -0.6756
  504MOL0     C67921   5.253   5.864   8.165  0.1319  0.6026 -0.5153
  504MOL0     N67922   5.353   5.856   8.277  0.1320  0.0867 -0.0035
  504MOL0     C67923   5.483   5.870   8.265  0.0112 -0.3873  0.2074
  504MOL0     C67924   5.533   5.893   8.389  0.2804  0.2296  0.0672
  504MOL0     C67925   5.670   5.940   8.416  0.1538  1.1073  0.8335
  504MOL0     C67926   5.676   6.100   8.399 -0.1930 -0.3707 -0.2864
  504MOL0     C67927   5.816   6.151   8.408  0.7401  0.2309 -0.6149
  504MOL0     C67928   5.907   6.134   8.291  0.4709 -0.6701  0.5474
  504MOL0     O67929   6.005   6.032   8.309  0.9901 -0.4576  0.6143
  504MOL0     C67930   6.133   6.070   8.348  0.2281 -0.1003 -0.0229
  504MOL0     C67931   6.173   6.059   8.479 -0.3401  0.6788  0.0236
  504MOL0     C67932   6.299   6.101   8.521 -0.0327 -0.0472  0.1114
  504MOL0     C67933   6.384   6.166   8.435  0.0602  0.5609 -0.2366
  504MOL0     C67934   6.524   6.198   8.463 -0.3143 -0.4765  0.8477
  504MOL0     O67935   6.561   6.218   8.594 -0.0120 -0.1831 -0.0087
  504MOL0     C67936   6.685   6.264   8.633 -0.0108 -0.0952 -0.6613
  504MOL0     C67937   6.811   6.224   8.580  0.6164 -0.3752  0.3168
  504MOL0     C67938   6.926   6.276   8.641  0.3411 -0.0364 -0.5654
  504MOL0     C67939   6.913   6.349   8.764  0.3406 -0.3244 -0.3588
  504MOL0     O67940   7.028   6.409   8.816  0.1739  0.4466 -0.2941
  504MOL0     C67941   7.046   6.426   8.960 -0.5968 -0.0966  1.2022
  504MOL0     C67942   7.198   6.408   8.971 -0.2665 -0.1358 -0.0259
  504MOL0     C67943   7.254   6.442   9.113  0.0233 -0.6182  0.2070
  504MOL0     C67944   7.400   6.441   9.114  0.2266 -0.5965 -0.7875
  504MOL0     C67945   7.466   6.304   9.087  0.0400  0.5906 -0.1796
  504MOL0     C67946   7.614   6.304   9.117 -0.2449  0.6651 -0.7148
  504MOL0     C67947   7.693   6.393   9.036 -0.4963 -0.2876 -0.6066
  504MOL0     C67948   7.844   6.385   9.092  0.3878 -0.6437 -0.1139
  504MOL0    Cl67949   7.947   6.239   9.029 -0.4627  0.0069 -0.2224
  504MOL0     C67950   6.790   6.366   8.827 -0.0502 -0.0929  1.6520
  504MOL0     C67951   6.678   6.326   8.757 -0.8635  0.4460 -0.6239
  504MOL0     O67952   6.606   6.214   8.370 -0.1698  0.3608  0.2992
  504MOL0     C67953   6.336   6.192   8.306 -0.2141 -0.3226 -0.6219
  504MOL0     C67954   6.217   6.137   8.261  0.4019  0.9213 -0.3397
  504MOL0     N67955   5.429   5.870   8.480 -0.6474 -0.2106  0.1247
  504MOL0     N67956   5.323   5.841   8.409  0.4854 -0.6314  0.8043
  504MOL0     C67957   4.428   6.258   8.513 -0.9165 -0.1085 -0.2556
  504MOL0     C67958   4.305   6.201   8.534  1.0467  0.1014 -0.8693
  504MOL0     C67959   3.909   6.018   8.539  0.2627  0.7295  0.0254
  504MOL0     C67960   3.820   6.103   8.481 -0.0432 -1.0994  0.3422
  504MOL0     C67961   3.684   6.077   8.500  0.5563  0.2340  0.6365
  504MOL0     C67962   3.636   5.978   8.575  0.7423  0.2887 -0.1389
  504MOL0     O67963   3.501   5.960   8.599  0.3799  0.7983 -0.2322
  504MOL0     C67964   3.459   5.992   8.735  0.5592  1.0216 -0.4297
  504MOL0     C67965   3.470   6.139   8.779 -1.0588  0.2033  0.4391
  504MOL0     C67966   3.361   6.231   8.720 -0.0690 -0.0413 -0.5734
  504MOL0     C67967   3.223   6.226   8.791 -0.0028 -0.2985  0.2174
  504MOL0     C67968   3.225   6.269   8.935  0.5035  0.0836 -0.0811
  504MOL0     C67969   3.208   6.307   9.049 -0.9057 -0.1916  0.2245
  504MOL0     C67970   3.725   5.895   8.633 -0.7693  0.8375  0.0583
  504MOL0     C67971   3.862   5.906   8.613 -0.3857 -0.4161  1.0618
  504MOL0     C67972   3.950   5.819   8.700  1.0556 -0.0330 -0.2532
  504MOL0     H67973   4.131   6.345   8.279 -0.9408 -2.1119  0.2203
  504MOL0     H67974   4.359   6.423   8.223  0.9119  2.5918  1.3140
  504MOL0     H67975   4.731   6.506   8.457 -3.0536  1.3146  1.6714
  504MOL0     H67976   4.636   6.412   8.561  1.8189 -0.6984  1.9307
  504MOL0     H67977   4.728   6.198   8.479 -0.0194  1.2784 -0.2045
  504MOL0     H67978   4.846   6.309   8.545  3.3280  0.7362 -2.1792
  504MOL0     H67979   4.901   6.380   8.319 -0.6014  0.9321 -4.8759
  504MOL0     H67980   4.793   6.272   8.232 -2.6933  2.7470  1.7501
  504MOL0     H67981   5.025   6.190   8.419  0.2922  0.8092 -0.1789
  504MOL0     H67982   4.918   6.060   8.343 -2.5319  1.2925  1.2595
  504MOL0     H67983   5.003   6.173   8.115  2.7560  0.7617 -1.1478
  504MOL0     H67984   5.090   6.279   8.220 -0.8577  0.2679  1.3216
  504MOL0     H67985   5.255   6.104   8.172  1.4821 -0.6097  2.4080
  504MOL0     H67986   5.210   6.082   8.330  2.6687 -3.8239 -0.4835
  504MOL0     H67987   5.067   5.954   8.097 -1.0248  1.5376  0.1471
  504MOL0     H67988   5.065   5.890   8.264  0.5055 -1.3754 -0.9804
  504MOL0     H67989   5.212   5.765   8.142  0.2653  0.4065  0.0716
  504MOL0     H67990   5.304   5.885   8.070  2.4661  1.2638  0.8213
  504MOL0     H67991   5.538   5.874   8.171  1.6543  3.4500  1.1605
  504MOL0     H67992   5.687   5.918   8.522 -3.2491 -2.3404  0.8943
  504MOL0     H67993   5.738   5.891   8.346  0.2064 -0.1454  1.7225
  504MOL0     H67994   5.643   6.145   8.305  3.9789  2.9049 -0.5020
  504MOL0     H67995   5.614   6.150   8.473 -0.0136  0.8371 -0.9321
  504MOL0     H67996   5.865   6.092   8.486  0.5985 -0.6777 -1.2003
  504MOL0     H67997   5.801   6.251   8.448  2.5861 -0.7155  2.8355
  504MOL0     H67998   5.961   6.225   8.264  1.8545 -0.5730  3.3427
  504MOL0     H67999   5.846   6.118   8.202 -2.7493 -0.9468  2.6518
  504MOL0     H68000   6.106   6.035   8.561 -0.6931  2.7736  0.4268
  504MOL0     H68001   6.312   6.088   8.627 -1.3601 -2.7351  0.0263
  504MOL0     H68002   6.811   6.171   8.485 -0.3358  0.0922  0.0434
  504MOL0     H68003   7.028   6.284   8.603  1.1808 -1.1950  1.3191
  504MOL0     H68004   7.016   6.528   8.985 -1.7792  0.1216 -0.8915
  504MOL0     H68005   6.992   6.353   9.021 -1.2621 -3.8799 -3.3429
  504MOL0     H68006   7.216   6.300   8.983 -0.3286 -0.0093  1.3887
  504MOL0     H68007   7.252   6.432   8.879  0.6017  0.1940  0.5546
  504MOL0     H68008   7.220   6.544   9.134  1.1077  0.2736 -2.0401
  504MOL0     H68009   7.215   6.366   9.181  0.7993  0.4604  1.9258
  504MOL0     H68010   7.441   6.466   9.212  0.0091 -1.5310 -0.4540
  504MOL0     H68011   7.439   6.504   9.033  0.8811  1.5884  1.1005
  504MOL0     H68012   7.448   6.269   8.985  0.7761  2.7363 -1.1087
  504MOL0     H68013   7.414   6.234   9.153 -0.0260 -0.6607 -1.4956
  504MOL0     H68014   7.609   6.330   9.223 -1.3463  1.9169 -1.0530
  504MOL0     H68015   7.651   6.202   9.098  1.2287  1.2949 -1.3824
  504MOL0     H68016   7.661   6.495   9.061 -1.0695 -0.9677  1.6827
  504MOL0     H68017   7.686   6.377   8.928  1.5611 -0.6597 -0.7310
  504MOL0     H68018   7.900   6.469   9.049  0.5268 -0.5633  0.2268
  504MOL0     H68019   7.858   6.388   9.200 -1.4031 -4.2197  0.3488
  504MOL0     H68020   6.784   6.427   8.917 -1.6645  1.7945  0.3685
  504MOL0     H68021   6.587   6.345   8.814 -1.5998 -0.5427 -1.4359
  504MOL0     H68022   6.397   6.244   8.232 -0.4639  0.8688 -0.0151
  504MOL0     H68023   6.178   6.152   8.161 -0.9113  0.7142  0.1314
  504MOL0     H68024   4.509   6.234   8.582 -0.2879  0.5081 -0.7553
  504MOL0     H68025   4.290   6.149   8.628  2.4173 -0.1665 -0.7841
  504MOL0     H68026   3.842   6.186   8.415  1.4643  0.3219  2.5037
  504MOL0     H68027   3.606   6.137   8.454 -1.8907 -2.8064  0.5742
  504MOL0     H68028   3.519   5.931   8.803  0.2604  1.0950 -0.0990
  504MOL0     H68029   3.357   5.953   8.728  0.7898  0.0659  1.0421
  504MOL0     H68030   3.567   6.175   8.745 -0.0660 -1.5905  1.2486
  504MOL0     H68031   3.471   6.146   8.888  0.0469  0.5233  0.4162
  504MOL0     H68032   3.339   6.201   8.616 -2.0989  1.2041 -0.5700
  504MOL0     H68033   3.395   6.335   8.725  1.8150 -0.5584 -1.6766
  504MOL0     H68034   3.152   6.298   8.749  2.0554  3.2437  2.2814
  504MOL0     H68035   3.186   6.124   8.781  1.1235 -0.5930 -1.3118
  504MOL0     H68036   3.189   6.345   9.147  0.3059 -1.6941  1.1008
  504MOL0     H68037   3.699   5.809   8.695  1.6486  0.5029  0.7286
  504MOL0     H68038   3.950   5.720   8.652  0.3497  0.0485 -0.4314
  504MOL0     H68039   4.055   5.849   8.709  0.8005  1.3654 -1.5899
  504MOL0     H68040   3.905   5.814   8.800  1.3979 -1.2454 -0.1298
  505MOL0     O68041   7.571  11.105   0.344  0.2715 -0.0914 -0.0185
  505MOL0     C68042   7.510  11.204   0.381  0.0811  0.4197 -0.9143
  505MOL0     O68043   7.570  11.306   0.455 -0.0896  0.1935 -0.5741
  505MOL0     C68044   7.701  11.296   0.507 -0.2374  0.6635  0.0184
  505MOL0     C68045   7.791  11.406   0.502  0.4766 -0.4820 -0.5844
  505MOL0     C68046   7.924  11.393   0.553 -0.0275 -0.2612  0.4248
  505MOL0     C68047   7.964  11.279   0.616 -0.3391 -0.3448  0.3132
  505MOL0     O68048   8.091  11.277   0.671  0.1181 -0.0741  0.0648
  505MOL0     C68049   8.148  11.155   0.728 -0.3608 -0.3992 -0.1532
  505MOL0     C68050   8.287  11.194   0.790  0.8478 -0.2805 -0.0269
  505MOL0     C68051   8.390  11.182   0.676  0.3401  0.0703 -0.9328
  505MOL0     C68052   8.528  11.230   0.717  0.3259  0.8638 -0.1098
  505MOL0     C68053   8.537  11.380   0.719  0.2445 -0.6531  0.2989
  505MOL0     C68054   8.681  11.417   0.745  0.2842 -0.5910 -0.0434
  505MOL0     C68055   8.702  11.445   0.894  0.6157 -0.8307  0.7902
  505MOL0     C68056   8.843  11.491   0.927 -0.4524 -0.1213  0.0691
  505MOL0     N68057   8.950  11.393   0.896 -0.0176  0.2790 -0.2651
  505MOL0     C68058   8.966  11.270   0.942 -0.2100 -0.2200  0.1913
  505MOL0     C68059   9.080  11.221   0.894 -0.2528  0.3331 -0.1362
  505MOL0     C68060   9.117  11.074   0.903  0.4439 -1.0994 -0.1780
  505MOL0     C68061   9.272  11.054   0.915  0.7613  0.0443  0.2862
  505MOL0     C68062   9.301  10.902   0.902 -1.3237 -0.4937 -0.3852
  505MOL0     C68063   9.446  10.858   0.884 -0.1501  0.3813  0.4858
  505MOL0     O68064   9.519  10.903   1.001  0.6340 -0.1463  0.0696
  505MOL0     C68065   9.650  10.865   1.015 -0.4338  1.0427 -0.4398
  505MOL0     C68066   9.715  10.899   1.137  0.5755  0.2651  0.0533
  505MOL0     C68067   9.841  10.856   1.153 -0.6385 -0.3202  0.3280
  505MOL0     C68068   9.923  10.783   1.064 -0.3260  0.7613 -0.2200
  505MOL0     C68069  10.063  10.739   1.104  0.2010 -1.1804  0.0625
  505MOL0     O68070  10.128  10.651   1.031  0.2755  0.7438  0.0954
  505MOL0     C68071  10.264  10.655   1.031  0.0690 -0.0925  0.3321
  505MOL0     C68072  10.350  10.760   1.045 -0.3007 -0.3672  0.9628
  505MOL0     C68073  10.487  10.752   1.010  0.1042 -0.6286 -0.1997
  505MOL0     C68074  10.543  10.631   0.973  0.0849  0.1556 -0.0075
  505MOL0     O68075  10.670  10.635   0.922  0.7357 -0.5402  0.1591
  505MOL0     C68076  10.767  10.657   1.019  0.3895 -0.1334  0.2470
  505MOL0     C68077  10.792  10.538   1.117 -0.3723 -0.2198 -0.5493
  505MOL0     C68078  10.820  10.411   1.038  0.0502 -0.4567  0.5374
  505MOL0     C68079  10.969  10.423   0.994  0.3959  0.3857 -0.0350
  505MOL0     C68080  11.073  10.405   1.106 -1.4154  0.8825 -1.1606
  505MOL0     C68081  11.216  10.403   1.052  0.3750 -0.6573  0.5309
  505MOL0     C68082  11.317  10.378   1.160  0.2842 -0.4624  0.2695
  505MOL0     C68083  11.453  10.444   1.126  0.2623  0.0660 -0.1873
  505MOL0    Cl68084  11.583  10.362   1.223 -0.0631  0.5484  0.7160
  505MOL0     C68085  10.459  10.516   0.952  0.6136 -0.1867 -0.6230
  505MOL0     C68086  10.322  10.538   0.981  0.2986 -0.8186 -0.0482
  505MOL0     O68087  10.100  10.786   1.209  0.0467 -0.3844 -0.7235
  505MOL0     C68088   9.869  10.743   0.943  1.1833  0.1394  0.7180
  505MOL0     C68089   9.735  10.790   0.916 -0.0267  1.0796 -0.0232
  505MOL0     N68090   9.153  11.323   0.831  0.2907  0.2343  0.7105
  505MOL0     N68091   9.069  11.426   0.837 -0.2804  0.3481  0.1247
  505MOL0     C68092   7.877  11.172   0.621 -0.3301 -0.5938 -0.2798
  505MOL0     C68093   7.745  11.178   0.567  0.5842 -0.9342 -0.5803
  505MOL0     C68094   7.363  11.206   0.376 -0.0984  0.7640  1.1944
  505MOL0     C68095   7.299  11.313   0.435 -0.5524 -0.6372  0.2206
  505MOL0     C68096   7.163  11.324   0.423  0.9781  0.4081  0.7847
  505MOL0     C68097   7.085  11.232   0.350 -0.2673  0.1548  0.2568
  505MOL0     O68098   6.951  11.244   0.339  0.1381  0.3159 -0.2909
  505MOL0     C68099   6.887  11.365   0.365  0.3936 -0.0537  0.0403
  505MOL0     C68100   6.735  11.335   0.356  0.8609 -0.2779 -0.1418
  505MOL0     C68101   6.697  11.348   0.205 -0.0361  0.0324  0.0236
  505MOL0     C68102   6.547  11.325   0.174  0.4829 -0.0439 -0.5931
  505MOL0     C68103   6.508  11.194   0.226  0.1423 -0.0230  0.4293
  505MOL0     C68104   6.477  11.079   0.261 -0.9677 -0.3236  0.7402
  505MOL0     C68105   7.143  11.111   0.311  0.5700 -0.0455 -0.0231
  505MOL0     C68106   7.282  11.098   0.324  0.1570 -0.2528 -0.0648
  505MOL0     C68107   7.335  10.976   0.261  0.1472 -0.2961  0.2862
  505MOL0     H68108   7.758  11.500   0.458 -0.2066 -0.6140 -0.3661
  505MOL0     H68109   7.990  11.478   0.540 -2.3648  1.6185  0.1401
  505MOL0     H68110   8.079  11.112   0.800 -0.9912  1.1436  0.2175
  505MOL0     H68111   8.160  11.078   0.651 -0.2630 -0.4225 -0.1132
  505MOL0     H68112   8.309  11.135   0.880 -1.3809  0.1660  0.8863
  505MOL0     H68113   8.273  11.295   0.829 -1.9028 -1.1303  1.4121
  505MOL0     H68114   8.364  11.259   0.603  0.9622 -0.1321 -1.3715
  505MOL0     H68115   8.386  11.078   0.643 -1.8116 -0.1847 -0.0642
  505MOL0     H68116   8.563  11.206   0.818 -1.4020  1.6701  0.7264
  505MOL0     H68117   8.596  11.193   0.640 -1.0647  3.2773 -2.7074
  505MOL0     H68118   8.520  11.410   0.615 -0.3680 -1.9451  0.0072
  505MOL0     H68119   8.468  11.433   0.785  0.8616 -0.2061  0.5946
  505MOL0     H68120   8.748  11.338   0.709  0.5078  0.0177 -1.0211
  505MOL0     H68121   8.705  11.506   0.686 -1.3179  2.6354  3.7363
  505MOL0     H68122   8.683  11.353   0.951  0.5697 -3.5131 -3.1732
  505MOL0     H68123   8.635  11.527   0.922  1.6942  0.4215 -0.1399
  505MOL0     H68124   8.872  11.577   0.865 -1.0921  1.4947  1.9024
  505MOL0     H68125   8.860  11.506   1.034 -0.0034 -1.9237  0.2760
  505MOL0     H68126   8.901  11.214   1.008 -0.7929  0.2502  0.0273
  505MOL0     H68127   9.069  11.028   0.990 -0.1320 -2.8184 -1.3525
  505MOL0     H68128   9.078  11.018   0.818  0.2810 -1.6378  0.2425
  505MOL0     H68129   9.319  11.107   0.831  0.1699  0.6267  0.3201
  505MOL0     H68130   9.306  11.085   1.014 -1.1741  0.9623  0.6946
  505MOL0     H68131   9.246  10.867   0.814 -0.6172  0.9145 -1.4388
  505MOL0     H68132   9.262  10.852   0.991 -0.4099 -0.0419  0.2891
  505MOL0     H68133   9.495  10.905   0.798  2.2912 -2.2664  0.2977
  505MOL0     H68134   9.454  10.750   0.867  0.6851  0.6510 -0.9836
  505MOL0     H68135   9.661  10.956   1.212 -0.0606 -0.7633  0.4015
  505MOL0     H68136   9.867  10.898   1.249 -4.0500  1.4346  0.6187
  505MOL0     H68137  10.312  10.855   1.080 -0.7272  0.1470 -0.8313
  505MOL0     H68138  10.551  10.839   1.019 -0.5647 -0.3380  3.6003
  505MOL0     H68139  10.856  10.685   0.964  1.9735  0.0934  2.7543
  505MOL0     H68140  10.750  10.754   1.067  2.4815  0.1925  0.4103
  505MOL0     H68141  10.879  10.571   1.174  0.9023 -1.1496 -1.8750
  505MOL0     H68142  10.710  10.526   1.189  2.5185  2.1893  3.6126
  505MOL0     H68143  10.806  10.328   1.108  0.2099  1.9118  3.5807
  505MOL0     H68144  10.744  10.413   0.959  0.5092  3.2253  0.0237
  505MOL0     H68145  10.986  10.513   0.934 -0.2936 -0.8049 -2.1271
  505MOL0     H68146  10.985  10.344   0.920 -2.0946  1.7300 -2.1942
  505MOL0     H68147  11.061  10.303   1.146  0.6799  0.9357 -0.2197
  505MOL0     H68148  11.068  10.480   1.185  0.8695  0.8723 -0.9331
  505MOL0     H68149  11.225  10.332   0.969 -1.1568  3.0094 -3.1407
  505MOL0     H68150  11.237  10.498   1.003 -0.8248 -0.7133 -0.1324
  505MOL0     H68151  11.329  10.270   1.173  2.9259 -0.1776  0.8926
  505MOL0     H68152  11.285  10.422   1.255  0.1528 -1.4201  0.6751
  505MOL0     H68153  11.478  10.438   1.020  0.0481  2.5742 -0.4285
  505MOL0     H68154  11.451  10.552   1.141  0.5554  0.4128 -2.3334
  505MOL0     H68155  10.487  10.421   0.908 -0.3009 -1.2395  0.9686
  505MOL0     H68156  10.249  10.458   0.976 -0.1911 -0.6092  2.3494
  505MOL0     H68157   9.932  10.674   0.887  0.7979  0.2574  0.1271
  505MOL0     H68158   9.689  10.741   0.830 -0.1169 -1.4235  1.3547
  505MOL0     H68159   7.912  11.080   0.667 -0.2620 -0.2191  0.4315
  505MOL0     H68160   7.673  11.097   0.560 -0.2219 -0.2413 -0.3626
  505MOL0     H68161   7.346  11.398   0.484  1.3379 -2.3057  1.4894
  505MOL0     H68162   7.117  11.412   0.466  0.1264  0.3896 -0.0426
  505MOL0     H68163   6.925  11.436   0.291  2.1627  0.4048  1.3403
  505MOL0     H68164   6.908  11.398   0.467 -1.4541 -3.7072  1.8138
  505MOL0     H68165   6.676  11.410   0.410  3.0188  0.4743  1.2982
  505MOL0     H68166   6.718  11.237   0.402 -0.4753  0.3154  0.6892
  505MOL0     H68167   6.762  11.272   0.160  2.5953  2.5229 -0.7543
  505MOL0     H68168   6.731  11.442   0.159 -2.2711  0.6147 -0.5666
  505MOL0     H68169   6.483  11.402   0.220 -0.6838  1.3289 -4.2051
  505MOL0     H68170   6.524  11.325   0.067  1.6224 -5.2003 -1.0953
  505MOL0     H68171   6.462  10.981   0.300 -4.0956 -1.3946 -2.5527
  505MOL0     H68172   7.086  11.036   0.259  1.7024 -3.3762  3.0743
  505MOL0     H68173   7.248  10.925   0.218  0.4469  1.2176 -2.3693
  505MOL0     H68174   7.397  10.990   0.172  2.4228 -2.9470  1.3083
  505MOL0     H68175   7.390  10.913   0.332  0.4761 -0.7832 -0.3900
  506MOL0     O68176   8.295   7.412   9.143 -0.2348 -0.1654 -0.4372
  506MOL0     C68177   8.199   7.405   9.071 -0.1522 -0.0420  0.0336
  506MOL0     O68178   8.166   7.294   8.988 -0.1250 -0.3238  0.1446
  506MOL0     C68179   8.258   7.199   8.980  0.4386 -0.2171  0.4202
  506MOL0     C68180   8.309   7.140   9.094  0.3169  0.8500  0.0486
  506MOL0     C68181   8.397   7.038   9.083  0.4234 -0.5459 -0.6242
  506MOL0     C68182   8.427   6.978   8.965  0.2920 -0.5124 -0.2386
  506MOL0     O68183   8.521   6.878   8.979 -0.1978  0.5232 -0.5393
  506MOL0     C68184   8.503   6.773   8.887 -0.3955  0.0144 -0.2359
  506MOL0     C68185   8.590   6.652   8.920 -1.1438 -0.6148  0.2760
  506MOL0     C68186   8.732   6.697   8.925 -0.2684  0.3098  0.5836
  506MOL0     C68187   8.804   6.581   8.971 -0.5517  0.0080  0.2235
  506MOL0     C68188   8.953   6.612   8.965 -0.6873  0.2175 -0.2015
  506MOL0     C68189   9.047   6.483   8.991  0.1200  0.1064  0.5720
  506MOL0     C68190   9.194   6.511   8.962  0.0418 -0.1524  0.0776
  506MOL0     C68191   9.242   6.646   9.022  0.0796  0.2918 -0.4793
  506MOL0     N68192   9.385   6.659   9.038  0.0772  0.4395 -0.0912
  506MOL0     C68193   9.456   6.593   9.141 -0.3377  0.4828 -0.1037
  506MOL0     C68194   9.587   6.648   9.133  0.2765  0.3079 -0.1645
  506MOL0     C68195   9.708   6.603   9.210  0.7566  0.2526  0.6987
  506MOL0     C68196   9.833   6.671   9.166 -0.2346 -0.2652 -0.1998
  506MOL0     C68197   9.954   6.595   9.225  0.3698 -0.3186 -1.1423
  506MOL0     C68198  10.076   6.648   9.164 -0.9955  0.2512 -1.0794
  506MOL0     O68199  10.185   6.559   9.198  0.0883 -0.1477  0.2575
  506MOL0     C68200  10.313   6.603   9.204 -0.7121  0.1792  0.7208
  506MOL0     C68201  10.351   6.730   9.177 -0.5218 -1.1206 -1.0723
  506MOL0     C68202  10.486   6.774   9.195  0.1746 -0.1181  0.7249
  506MOL0     C68203  10.582   6.677   9.231 -0.7481  0.7310 -0.5745
  506MOL0     C68204  10.715   6.715   9.272 -0.9022  0.2985  0.0051
  506MOL0     O68205  10.746   6.848   9.295  0.5842  0.3213 -0.8977
  506MOL0     C68206  10.875   6.896   9.291  0.9001  0.6644 -1.2520
  506MOL0     C68207  10.961   6.904   9.399 -0.1023  0.0279  0.3015
  506MOL0     C68208  11.092   6.950   9.394  0.1125  0.2266 -0.1835
  506MOL0     C68209  11.140   6.969   9.268 -1.0826 -0.2054 -0.3986
  506MOL0     O68210  11.272   7.020   9.255  0.1547  0.6692 -0.1149
  506MOL0     C68211  11.363   6.914   9.225 -0.2647  0.2948  0.3722
  506MOL0     C68212  11.497   6.963   9.162 -0.2402 -0.8738  0.4385
  506MOL0     C68213  11.587   6.843   9.117  0.5936  0.5211 -0.0754
  506MOL0     C68214  11.692   6.811   9.215 -0.7010  0.4365  0.2333
  506MOL0     C68215  11.745   6.671   9.195 -0.6547  0.0532  0.0131
  506MOL0     C68216  11.834   6.608   9.298 -0.8251  0.3645 -0.2156
  506MOL0     C68217  11.862   6.460   9.262  0.1664  0.1312 -0.0138
  506MOL0     C68218  11.923   6.400   9.389  0.2619 -0.5753  0.1222
  506MOL0    Cl68219  11.964   6.227   9.361  0.0321  0.0282 -0.4262
  506MOL0     C68220  11.063   6.966   9.156  1.0782 -0.2448 -0.3407
  506MOL0     C68221  10.921   6.934   9.168 -0.8110 -0.0516 -0.1708
  506MOL0     O68222  10.800   6.628   9.263  0.2613 -0.3862  0.3205
  506MOL0     C68223  10.549   6.543   9.225 -0.3925  0.2177  0.7828
  506MOL0     C68224  10.412   6.500   9.212  0.7481 -0.6796  0.6745
  506MOL0     N68225   9.592   6.733   9.025 -0.3311 -0.2382  0.1194
  506MOL0     N68226   9.474   6.737   8.974 -0.6524  0.5335  0.6937
  506MOL0     C68227   8.375   7.037   8.844  0.0952 -0.1947 -0.9749
  506MOL0     C68228   8.290   7.138   8.856  0.2234 -0.7689 -0.1544
  506MOL0     C68229   8.133   7.534   9.035  0.1845 -0.4396 -0.1936
  506MOL0     C68230   8.011   7.525   8.960 -0.3513  0.2021  0.0716
  506MOL0     C68231   7.934   7.636   8.926  0.1021  0.4227  0.0839
  506MOL0     C68232   7.976   7.763   8.962 -0.1056 -0.1855 -0.4909
  506MOL0     O68233   7.886   7.862   8.937 -0.5335 -0.1953  0.3650
  506MOL0     C68234   7.928   7.993   8.988 -0.0904  0.0790 -0.3203
  506MOL0     C68235   7.814   8.102   8.972 -0.7005 -0.1157 -0.9366
  506MOL0     C68236   7.685   8.040   9.026 -0.0523 -0.4073  0.7532
  506MOL0     C68237   7.559   8.129   9.018  0.2874  0.1978 -0.1968
  506MOL0     C68238   7.511   8.141   8.880 -0.3271  0.5629  0.1651
  506MOL0     C68239   7.462   8.140   8.768 -0.2921 -0.2703  0.8216
  506MOL0     C68240   8.106   7.776   9.015 -0.9970 -0.1602 -0.4778
  506MOL0     C68241   8.187   7.659   9.053 -0.0820  0.3193 -0.1089
  506MOL0     C68242   8.335   7.682   9.083 -0.2333  0.2218  0.9089
  506MOL0     H68243   8.270   7.166   9.192 -0.9320  0.7112 -0.3912
  506MOL0     H68244   8.438   6.998   9.175 -0.0553  1.1968  0.4072
  506MOL0     H68245   8.398   6.746   8.894 -1.1311  2.9116  1.6812
  506MOL0     H68246   8.516   6.803   8.783  3.0104  1.1170  0.3876
  506MOL0     H68247   8.575   6.569   8.851 -1.1624  0.2430 -0.7729
  506MOL0     H68248   8.573   6.606   9.018  3.3055 -0.4386  1.3010
  506MOL0     H68249   8.747   6.786   8.986 -1.0765 -0.3861  1.8379
  506MOL0     H68250   8.759   6.723   8.822  3.0185 -1.2389  0.9052
  506MOL0     H68251   8.774   6.557   9.073  1.4120  0.3567  0.9328
  506MOL0     H68252   8.796   6.494   8.905 -0.9981 -0.4200  0.8268
  506MOL0     H68253   8.987   6.654   8.870 -0.4578 -0.6864 -0.5259
  506MOL0     H68254   8.973   6.694   9.035  1.1985 -0.9075  0.6614
  506MOL0     H68255   9.036   6.457   9.096 -2.6828  0.8467  0.5345
  506MOL0     H68256   9.017   6.391   8.939 -1.0365 -0.7000  2.5697
  506MOL0     H68257   9.216   6.512   8.855 -0.3410  0.0835 -0.0001
  506MOL0     H68258   9.262   6.434   8.999  0.8823 -1.2238 -3.3027
  506MOL0     H68259   9.201   6.732   8.968 -2.3543 -1.0869 -0.9691
  506MOL0     H68260   9.199   6.667   9.120  0.7993  1.1817 -0.3322
  506MOL0     H68261   9.412   6.512   9.199 -0.2509 -0.0849 -0.8206
  506MOL0     H68262   9.694   6.611   9.318  1.1425  2.2445  0.6459
  506MOL0     H68263   9.703   6.497   9.185  0.8138 -0.5603  3.7499
  506MOL0     H68264   9.829   6.670   9.057 -0.0493  0.9381 -0.2309
  506MOL0     H68265   9.827   6.776   9.195 -1.7885 -0.4138  0.1158
  506MOL0     H68266   9.952   6.489   9.200 -1.3644 -0.0212 -2.4395
  506MOL0     H68267   9.965   6.615   9.332  1.3870  3.7492 -1.8177
  506MOL0     H68268  10.091   6.748   9.203  2.4264  0.5259 -2.7519
  506MOL0     H68269  10.076   6.657   9.055 -0.8991 -2.2116 -1.3412
  506MOL0     H68270  10.284   6.809   9.144  0.0863  1.0588  2.3460
  506MOL0     H68271  10.504   6.878   9.168 -0.5973 -0.3087 -0.6141
  506MOL0     H68272  10.934   6.858   9.493  1.0638  1.6169  1.4762
  506MOL0     H68273  11.157   6.947   9.482  1.9570 -1.2827 -1.5143
  506MOL0     H68274  11.393   6.865   9.317 -0.3520 -1.5895 -0.5641
  506MOL0     H68275  11.320   6.841   9.156 -2.5585  3.0699 -1.3914
  506MOL0     H68276  11.484   7.025   9.073  3.9446  1.3725  1.1084
  506MOL0     H68277  11.545   7.032   9.232 -0.2058 -0.4752  0.0210
  506MOL0     H68278  11.526   6.755   9.094 -0.5012  0.8922  1.2448
  506MOL0     H68279  11.641   6.859   9.024  1.4537 -1.0687  0.1153
  506MOL0     H68280  11.649   6.828   9.314 -1.9438  0.8193 -0.3596
  506MOL0     H68281  11.782   6.870   9.196 -0.0921 -0.0941  1.3987
  506MOL0     H68282  11.798   6.679   9.099  0.9279  1.5345  0.9718
  506MOL0     H68283  11.664   6.597   9.186 -0.2048 -0.5628  0.8787
  506MOL0     H68284  11.927   6.664   9.284 -1.4409  1.5735  0.3251
  506MOL0     H68285  11.788   6.620   9.397 -2.0314  1.2247 -0.8437
  506MOL0     H68286  11.934   6.448   9.180  0.5947  0.4832  0.3088
  506MOL0     H68287  11.769   6.405   9.244 -0.5320  0.7621  1.5194
  506MOL0     H68288  12.015   6.454   9.414 -1.7392  3.6233 -0.6904
  506MOL0     H68289  11.851   6.417   9.469  0.1307  2.0338 -0.4594
  506MOL0     H68290  11.102   6.989   9.057  1.6445  4.3939  0.7267
  506MOL0     H68291  10.861   6.931   9.077  2.1071 -1.4736 -2.2212
  506MOL0     H68292  10.626   6.467   9.229 -1.3701 -0.8150  0.5450
  506MOL0     H68293  10.378   6.398   9.225  2.6879 -1.2601  1.5353
  506MOL0     H68294   8.411   7.001   8.748  1.0556  1.5284 -1.3074
  506MOL0     H68295   8.251   7.184   8.765  1.3106 -2.2016 -1.3944
  506MOL0     H68296   7.958   7.431   8.952 -0.9993  0.5960 -0.2868
  506MOL0     H68297   7.830   7.625   8.896 -0.0946  0.3846  0.7573
  506MOL0     H68298   8.006   8.035   8.925 -1.8292  3.3590 -0.5022
  506MOL0     H68299   7.956   7.987   9.094  1.9641 -0.5196 -0.8475
  506MOL0     H68300   7.789   8.131   8.870 -1.9723  0.0817 -0.5815
  506MOL0     H68301   7.844   8.188   9.032  2.0120 -1.1185 -0.6972
  506MOL0     H68302   7.710   8.019   9.130 -0.5420 -0.6392  0.8254
  506MOL0     H68303   7.670   7.945   8.975 -0.5159  1.0313 -2.0343
  506MOL0     H68304   7.484   8.080   9.081  0.9282  0.9627  1.2006
  506MOL0     H68305   7.577   8.228   9.059 -2.2299  0.7435 -0.2373
  506MOL0     H68306   7.407   8.140   8.676  1.7993 -0.7855 -0.4875
  506MOL0     H68307   8.152   7.874   9.024  0.7428 -0.9424 -0.2623
  506MOL0     H68308   8.397   7.650   8.998 -2.0278  0.6983 -0.6381
  506MOL0     H68309   8.363   7.786   9.101  0.6272  0.0063  0.8734
  506MOL0     H68310   8.373   7.645   9.178 -0.5139  0.2978  1.0485
  507MOL0     O68311   3.678   5.379   5.881  0.6908 -0.3597 -0.3931
  507MOL0     C68312   3.637   5.303   5.790 -0.2044 -0.8538  0.1646
  507MOL0     O68313   3.703   5.193   5.747 -0.3682  0.3336  0.3154
  507MOL0     C68314   3.830   5.165   5.792  0.0762 -0.8907  0.1021
  507MOL0     C68315   3.854   5.054   5.874 -0.4245  0.0425 -0.7303
  507MOL0     C68316   3.987   5.019   5.908  0.4086 -0.0416  0.6146
  507MOL0     C68317   4.093   5.105   5.869  0.2814  0.6549 -0.6112
  507MOL0     O68318   4.219   5.072   5.910  0.6549  0.3317  0.7220
  507MOL0     C68319   4.301   5.005   5.813  0.6131  1.0533  0.3739
  507MOL0     C68320   4.429   5.085   5.790  0.2520 -0.1709  0.2986
  507MOL0     C68321   4.517   5.024   5.677  0.1434 -0.2893 -0.0609
  507MOL0     C68322   4.598   4.902   5.712  0.5266  0.0140  0.5935
  507MOL0     C68323   4.685   4.878   5.590 -0.5450 -0.1702  0.1287
  507MOL0     C68324   4.781   4.751   5.620 -0.2349 -0.4329  0.8120
  507MOL0     C68325   4.887   4.737   5.508  0.4426 -0.2014 -0.1027
  507MOL0     C68326   4.997   4.844   5.509 -0.1048 -0.4710  0.2580
  507MOL0     N68327   5.049   4.877   5.643 -0.1120  0.0750 -0.0830
  507MOL0     C68328   5.163   4.834   5.701 -0.1352  0.6378  0.8285
  507MOL0     C68329   5.160   4.884   5.827  0.6338  0.1910  0.1052
  507MOL0     C68330   5.263   4.861   5.935 -0.5368  0.0727 -0.0768
  507MOL0     C68331   5.306   4.982   6.020  0.0474 -0.0650 -0.1871
  507MOL0     C68332   5.407   4.937   6.124 -0.0776 -0.3035  0.1018
  507MOL0     C68333   5.536   4.972   6.071  0.4034 -0.4120  0.2328
  507MOL0     O68334   5.636   4.942   6.171 -0.3894  0.0720 -0.2477
  507MOL0     C68335   5.768   4.971   6.135 -0.0116  0.2660  0.2557
  507MOL0     C68336   5.868   4.917   6.215  0.4560  0.5367 -0.1947
  507MOL0     C68337   6.000   4.947   6.181 -0.0358 -0.1238 -0.0255
  507MOL0     C68338   6.030   5.027   6.073  0.1724 -0.1921  0.0634
  507MOL0     C68339   6.171   5.073   6.056  0.1194  0.6279 -0.3530
  507MOL0     O68340   6.245   5.089   6.171 -0.4083  0.5658  0.5980
  507MOL0     C68341   6.347   5.183   6.165  0.0626 -0.4999  0.1137
  507MOL0     C68342   6.448   5.168   6.247 -0.4156  0.4568 -0.0466
  507MOL0     C68343   6.548   5.263   6.254 -0.0537 -0.1395  0.7232
  507MOL0     C68344   6.532   5.390   6.200  0.5962 -0.0582  0.1776
  507MOL0     O68345   6.628   5.490   6.212 -0.1117  0.0723 -0.6625
  507MOL0     C68346   6.692   5.503   6.338 -0.6863  0.3525  1.2621
  507MOL0     C68347   6.811   5.598   6.340  0.1502 -0.2290  0.8712
  507MOL0     C68348   6.766   5.740   6.299 -0.0091  0.3233 -0.5416
  507MOL0     C68349   6.706   5.823   6.412 -0.8407 -0.0243  0.2555
  507MOL0     C68350   6.691   5.966   6.362 -0.2848  0.5626  0.1466
  507MOL0     C68351   6.810   6.066   6.374  0.3718 -0.8028  0.0329
  507MOL0     C68352   6.903   6.027   6.500  0.4202  0.1745 -0.1669
  507MOL0     C68353   6.995   6.135   6.553  0.4489 -0.4486  1.0566
  507MOL0    Cl68354   7.062   6.066   6.704  0.0338  0.0512  0.1132
  507MOL0     C68355   6.419   5.417   6.123 -0.1803  0.0254 -0.0338
  507MOL0     C68356   6.325   5.319   6.115 -0.1290 -1.0332  0.0712
  507MOL0     O68357   6.208   5.120   5.945 -0.1988 -0.3039  0.4627
  507MOL0     C68358   5.933   5.076   5.990  0.1907  0.3765 -0.4130
  507MOL0     C68359   5.802   5.046   6.022  0.2691 -0.0001  0.1517
  507MOL0     N68360   5.038   4.950   5.850  0.3545 -0.1620 -0.9655
  507MOL0     N68361   4.982   4.958   5.732  0.6922  0.3385  0.1177
  507MOL0     C68362   4.068   5.217   5.791 -0.1157 -0.2574  0.3790
  507MOL0     C68363   3.933   5.239   5.748 -0.3060 -0.4913  0.1303
  507MOL0     C68364   3.520   5.348   5.708  0.2318  0.5483  0.4527
  507MOL0     C68365   3.463   5.250   5.624  0.2738 -0.0472 -0.3125
  507MOL0     C68366   3.340   5.260   5.566  0.0705 -0.4170 -0.0943
  507MOL0     C68367   3.255   5.365   5.582 -0.4236  0.5437 -0.4309
  507MOL0     O68368   3.134   5.361   5.524  0.0372  0.2643 -0.0407
  507MOL0     C68369   3.023   5.404   5.603  1.6246 -0.2146  0.5023
  507MOL0     C68370   2.884   5.370   5.533 -1.0336  0.0494  0.9268
  507MOL0     C68371   2.870   5.427   5.387  0.3983 -0.4597 -0.2380
  507MOL0     C68372   2.919   5.331   5.273 -0.0129  0.7323  0.5437
  507MOL0     C68373   2.887   5.409   5.144  0.7183 -0.5816 -0.0424
  507MOL0     C68374   2.872   5.460   5.035 -0.1552 -0.4782  0.4169
  507MOL0     C68375   3.311   5.464   5.670  0.8185  0.8053 -0.5656
  507MOL0     C68376   3.435   5.461   5.739  0.8926  0.5520 -1.1439
  507MOL0     C68377   3.464   5.565   5.847 -0.2316 -0.4841  0.0177
  507MOL0     H68378   3.772   4.991   5.909 -1.6056  3.4178  3.5201
  507MOL0     H68379   4.014   4.938   5.976 -2.1325 -1.2615  0.3066
  507MOL0     H68380   4.319   4.907   5.858 -3.8754 -0.1553  0.0775
  507MOL0     H68381   4.254   4.998   5.714  0.8523  0.2550  0.3121
  507MOL0     H68382   4.481   5.108   5.883 -2.2328 -0.0557  1.7364
  507MOL0     H68383   4.405   5.185   5.753 -2.8958 -1.0865 -0.4723
  507MOL0     H68384   4.587   5.103   5.649 -1.7986  1.4828 -0.0973
  507MOL0     H68385   4.467   5.010   5.580  2.1321 -0.0601 -1.1791
  507MOL0     H68386   4.649   4.908   5.809 -0.0848 -0.7405  0.9628
  507MOL0     H68387   4.538   4.811   5.718  0.4897 -0.3668 -3.0708
  507MOL0     H68388   4.626   4.862   5.499  1.7474  0.0044 -1.4817
  507MOL0     H68389   4.743   4.970   5.575 -3.3472  1.5724 -0.8014
  507MOL0     H68390   4.827   4.769   5.718  0.0244 -1.8078  0.9540
  507MOL0     H68391   4.731   4.654   5.622  0.3349 -0.7394  0.4591
  507MOL0     H68392   4.837   4.733   5.411 -1.7120  3.0218  0.7074
  507MOL0     H68393   4.941   4.643   5.524  1.0482  0.3494  1.3515
  507MOL0     H68394   5.075   4.822   5.436 -2.4783 -3.0745 -1.7268
  507MOL0     H68395   4.945   4.928   5.462 -0.7728 -1.8723 -1.5854
  507MOL0     H68396   5.242   4.771   5.662 -0.2093  1.2753 -0.3980
  507MOL0     H68397   5.234   4.786   6.009 -0.2209 -1.7702 -1.7337
  507MOL0     H68398   5.355   4.827   5.885  2.0948  0.6651  3.9310
  507MOL0     H68399   5.347   5.062   5.958  3.0617 -0.6112  0.9214
  507MOL0     H68400   5.222   5.026   6.075  1.5814  1.2179  1.2400
  507MOL0     H68401   5.408   4.831   6.151  1.8917 -0.1700  0.7543
  507MOL0     H68402   5.395   5.001   6.212 -2.5008  1.3852 -1.3324
  507MOL0     H68403   5.535   5.076   6.040  0.9881 -1.0205 -2.0260
  507MOL0     H68404   5.546   4.918   5.976 -2.4519  0.7924 -0.8559
  507MOL0     H68405   5.841   4.854   6.299 -1.4244 -1.6671 -2.3294
  507MOL0     H68406   6.078   4.904   6.242 -3.2921 -2.8367  2.6501
  507MOL0     H68407   6.478   5.081   6.306  0.0478  1.1870  0.8131
  507MOL0     H68408   6.634   5.245   6.319  2.3201  2.7918 -1.3608
  507MOL0     H68409   6.626   5.540   6.417 -0.3715  0.2918  1.5594
  507MOL0     H68410   6.730   5.404   6.365  0.2367  0.0572 -0.9431
  507MOL0     H68411   6.854   5.602   6.441  0.8831 -0.0990  0.5617
  507MOL0     H68412   6.886   5.557   6.271  0.8010  0.9258  0.8701
  507MOL0     H68413   6.847   5.797   6.251  3.4847 -1.1500  3.0575
  507MOL0     H68414   6.689   5.717   6.225 -1.1683 -1.0572  1.0222
  507MOL0     H68415   6.767   5.816   6.502 -2.7018 -2.0802  1.4548
  507MOL0     H68416   6.603   5.791   6.427 -0.8759 -0.5945 -1.0215
  507MOL0     H68417   6.615   6.008   6.427  0.7523  1.7692  0.6148
  507MOL0     H68418   6.651   5.966   6.260 -1.9272 -0.1613  0.7619
  507MOL0     H68419   6.870   6.050   6.284 -1.6350  0.7478 -1.6764
  507MOL0     H68420   6.783   6.172   6.386  2.2130 -0.3284  0.3424
  507MOL0     H68421   6.960   5.940   6.468 -0.5647 -0.7427  0.5135
  507MOL0     H68422   6.830   6.005   6.578 -0.3835  0.6258 -0.7725
  507MOL0     H68423   7.069   6.149   6.473 -0.0692  1.1530  0.8192
  507MOL0     H68424   6.925   6.219   6.558  0.6726 -0.1857  0.1036
  507MOL0     H68425   6.394   5.505   6.066 -1.4114 -2.1332 -3.0977
  507MOL0     H68426   6.240   5.346   6.054 -1.2269 -1.3179  1.4409
  507MOL0     H68427   5.951   5.148   5.911 -0.2702  1.9740  0.8940
  507MOL0     H68428   5.723   5.079   5.955 -3.3569 -0.7216  3.6520
  507MOL0     H68429   4.149   5.280   5.754  1.2503 -1.0543  1.8898
  507MOL0     H68430   3.908   5.314   5.672 -0.3459 -2.2363 -1.6570
  507MOL0     H68431   3.531   5.171   5.595  0.3545  0.5254 -1.7420
  507MOL0     H68432   3.303   5.183   5.498 -0.2281  1.1218 -1.7686
  507MOL0     H68433   3.018   5.514   5.604 -0.1930 -0.0300 -4.0304
  507MOL0     H68434   3.032   5.358   5.702  1.2405 -0.1032  0.5922
  507MOL0     H68435   2.808   5.397   5.607 -0.7779 -0.7729  1.5132
  507MOL0     H68436   2.876   5.261   5.520 -0.6478 -0.2421  2.7458
  507MOL0     H68437   2.931   5.517   5.377 -0.8209  0.2570 -1.5866
  507MOL0     H68438   2.769   5.466   5.372  0.3734  0.0514  1.1023
  507MOL0     H68439   3.023   5.300   5.268  0.9037  3.6238 -0.6457
  507MOL0     H68440   2.870   5.234   5.282  1.0458  0.3471  3.0669
  507MOL0     H68441   2.866   5.519   4.945  1.4857 -1.8496 -0.6443
  507MOL0     H68442   3.237   5.543   5.678 -1.8138 -1.3825 -2.0158
  507MOL0     H68443   3.567   5.600   5.831 -0.0857 -0.1249  1.6414
  507MOL0     H68444   3.405   5.655   5.828 -0.6748 -1.0025 -1.1392
  507MOL0     H68445   3.461   5.517   5.945 -0.0973 -0.8657 -0.1634
  508MOL0     O68446   8.576   4.723   3.554  0.1296 -0.3724  0.0299
  508MOL0     C68447   8.525   4.731   3.666 -0.4819  0.4455 -0.7057
  508MOL0     O68448   8.587   4.780   3.779 -0.7119 -0.7251 -0.5399
  508MOL0     C68449   8.720   4.825   3.776  0.2949  0.9079 -0.2252
  508MOL0     C68450   8.753   4.920   3.871 -0.5333 -0.1100 -0.9743
  508MOL0     C68451   8.891   4.954   3.894 -0.8128 -0.0644 -0.2432
  508MOL0     C68452   8.992   4.878   3.818 -0.8730  0.3128  0.4477
  508MOL0     O68453   9.132   4.900   3.820  0.2544 -0.2790  0.3051
  508MOL0     C68454   9.175   4.953   3.943  0.0015  0.2850  0.7907
  508MOL0     C68455   9.324   4.908   3.962 -0.4000 -0.3628  0.3221
  508MOL0     C68456   9.418   5.011   4.001  1.4158 -0.5487  0.4142
  508MOL0     C68457   9.559   4.968   4.013 -1.1020  0.5414 -0.1201
  508MOL0     C68458   9.647   5.087   4.051 -0.4066 -0.0748  0.3979
  508MOL0     C68459   9.795   5.046   4.083 -0.3984  0.6731 -1.0635
  508MOL0     C68460   9.885   5.168   4.114 -1.0252  0.3471 -0.4823
  508MOL0     C68461   9.850   5.230   4.253  0.2189 -0.6588 -0.1061
  508MOL0     N68462   9.892   5.153   4.370 -0.1643  0.4974 -0.1614
  508MOL0     C68463  10.024   5.125   4.407 -0.3721  0.6547 -0.1300
  508MOL0     C68464  10.011   5.079   4.532  0.3175 -0.2708  0.2144
  508MOL0     C68465  10.125   5.034   4.619  0.0548  0.3099 -0.4445
  508MOL0     C68466  10.189   5.153   4.685  0.4077  0.4319  0.0648
  508MOL0     C68467  10.300   5.108   4.783  1.0639  0.0437 -0.2601
  508MOL0     C68468  10.443   5.114   4.716 -0.3285  0.2864 -0.1597
  508MOL0     O68469  10.507   5.244   4.724 -0.3960  0.9421 -0.0114
  508MOL0     C68470  10.563   5.284   4.844  0.4178 -1.4013  0.4237
  508MOL0     C68471  10.603   5.417   4.827 -0.6725 -0.5261 -0.7594
  508MOL0     C68472  10.680   5.478   4.922  0.9602  0.4363 -0.8094
  508MOL0     C68473  10.725   5.418   5.039  1.1331 -0.0928  0.0967
  508MOL0     C68474  10.782   5.472   5.168  0.5590 -0.0707  0.3019
  508MOL0     O68475  10.790   5.612   5.164 -0.1066 -0.2914 -0.1078
  508MOL0     C68476  10.817   5.688   5.276  0.4395  0.3285 -0.0062
  508MOL0     C68477  10.766   5.657   5.403 -0.4362 -0.1024  0.3008
  508MOL0     C68478  10.812   5.735   5.512 -0.1977 -0.0412 -0.6507
  508MOL0     C68479  10.888   5.850   5.494  0.9032 -0.6260  0.4508
  508MOL0     O68480  10.916   5.949   5.586  0.5281  0.3673  0.1276
  508MOL0     C68481  10.816   5.988   5.673  0.7301  0.3235  0.2832
  508MOL0     C68482  10.847   6.095   5.777 -0.1140 -0.1504  0.6869
  508MOL0     C68483  10.983   6.060   5.846  0.2612  0.3461 -0.4833
  508MOL0     C68484  11.031   6.166   5.943  0.0164  0.4519 -0.1162
  508MOL0     C68485  11.157   6.106   6.015  0.5340  0.7996  0.0308
  508MOL0     C68486  11.245   6.185   6.108  0.1224  0.3431  0.5881
  508MOL0     C68487  11.321   6.303   6.051 -0.1064  0.4522 -0.1635
  508MOL0     C68488  11.410   6.366   6.156  0.5032 -0.6699  0.3854
  508MOL0    Cl68489  11.574   6.312   6.127  0.2119 -0.3094  0.1167
  508MOL0     C68490  10.929   5.882   5.367  0.6231 -0.1249 -0.6935
  508MOL0     C68491  10.889   5.807   5.259  0.2517  1.0473 -0.1289
  508MOL0     O68492  10.836   5.401   5.246  0.7476  0.1435 -0.5590
  508MOL0     C68493  10.682   5.280   5.053 -0.6566  0.0980 -0.3656
  508MOL0     C68494  10.605   5.213   4.958 -0.7429  0.1482 -0.0552
  508MOL0     N68495   9.886   5.088   4.581 -0.1902  0.3820  0.4150
  508MOL0     N68496   9.803   5.130   4.483 -0.1762  0.3798 -0.0190
  508MOL0     C68497   8.955   4.780   3.725  0.2185  0.4493 -1.1792
  508MOL0     C68498   8.818   4.754   3.708 -0.2117 -0.6025 -0.0813
  508MOL0     C68499   8.380   4.686   3.677 -0.0961 -0.7989 -0.6212
  508MOL0     C68500   8.310   4.727   3.797  0.3343  0.4001 -0.4371
  508MOL0     C68501   8.177   4.695   3.812 -0.0649  0.8212 -0.0349
  508MOL0     C68502   8.107   4.623   3.713 -0.8088 -0.7062 -0.5710
  508MOL0     O68503   7.980   4.587   3.737 -0.3561  0.4412  0.1543
  508MOL0     C68504   7.883   4.624   3.633 -0.6237  0.1562  0.6678
  508MOL0     C68505   7.735   4.607   3.673 -0.0343  0.7304 -0.7150
  508MOL0     C68506   7.717   4.470   3.741  0.3608 -0.4742  0.1888
  508MOL0     C68507   7.577   4.446   3.791  0.6758 -0.6862 -0.4945
  508MOL0     C68508   7.486   4.403   3.678 -0.3191  0.4930 -1.2719
  508MOL0     C68509   7.440   4.383   3.571 -0.5908 -0.3102  0.9361
  508MOL0     C68510   8.170   4.590   3.598 -0.3053 -0.2965 -0.3173
  508MOL0     C68511   8.309   4.621   3.574 -0.0805 -0.0187 -0.5945
  508MOL0     C68512   8.356   4.564   3.439  0.1160 -0.0360  0.4184
  508MOL0     H68513   8.683   4.966   3.940 -0.4588 -0.2306 -0.8190
  508MOL0     H68514   8.909   5.031   3.969  1.3160  1.7440 -2.4122
  508MOL0     H68515   9.183   5.062   3.945  0.4081  0.3133  4.7815
  508MOL0     H68516   9.119   4.916   4.030  0.6164 -1.4574  0.4871
  508MOL0     H68517   9.352   4.862   3.866  0.6605 -3.1989  1.8649
  508MOL0     H68518   9.333   4.836   4.044 -0.1584  0.7668  1.3079
  508MOL0     H68519   9.388   5.051   4.098  3.8982 -0.9597  1.4461
  508MOL0     H68520   9.408   5.097   3.934 -0.2230  1.0619  2.5787
  508MOL0     H68521   9.563   4.892   4.092 -0.2422 -0.2470 -0.9084
  508MOL0     H68522   9.591   4.917   3.922  2.9476 -0.6952  1.7662
  508MOL0     H68523   9.653   5.160   3.969  2.1665  0.2999  0.8094
  508MOL0     H68524   9.600   5.141   4.133 -1.9109 -3.1128  1.6772
  508MOL0     H68525   9.792   4.980   4.171 -4.6692 -0.2323 -1.7068
  508MOL0     H68526   9.841   4.993   3.999  1.1595  2.4275 -1.3954
  508MOL0     H68527   9.864   5.240   4.034  0.4301  0.7673 -0.5245
  508MOL0     H68528   9.985   5.125   4.120 -1.1324  0.2820  3.4307
  508MOL0     H68529   9.889   5.333   4.257 -0.8288 -0.2977  2.7006
  508MOL0     H68530   9.742   5.241   4.266 -0.0744 -1.1521 -1.8487
  508MOL0     H68531  10.117   5.132   4.351  0.0099 -1.8213  0.0966
  508MOL0     H68532  10.100   4.954   4.689  2.0921  0.4280  0.4687
  508MOL0     H68533  10.205   5.003   4.551 -1.6094 -1.0705 -1.9014
  508MOL0     H68534  10.226   5.228   4.615  0.9463  0.2974  0.1946
  508MOL0     H68535  10.105   5.188   4.745  0.2882  0.6207 -0.2132
  508MOL0     H68536  10.286   5.004   4.813 -1.0435  0.1205 -0.8407
  508MOL0     H68537  10.302   5.179   4.866 -2.7071 -1.1790  1.0554
  508MOL0     H68538  10.440   5.088   4.610  0.1513  0.7478 -0.2949
  508MOL0     H68539  10.506   5.044   4.772 -0.4036 -0.9317 -1.5526
  508MOL0     H68540  10.574   5.475   4.740  0.1451 -0.0112 -0.6992
  508MOL0     H68541  10.704   5.583   4.911 -0.0801  0.6868 -0.8604
  508MOL0     H68542  10.695   5.576   5.413 -1.8395  1.1348  0.8890
  508MOL0     H68543  10.801   5.699   5.614  3.9676 -1.2325 -0.4004
  508MOL0     H68544  10.731   6.028   5.618  1.3472 -1.2344 -1.9008
  508MOL0     H68545  10.786   5.901   5.732 -0.3564  0.0635 -0.6428
  508MOL0     H68546  10.859   6.191   5.724 -2.0927  0.3909  1.1258
  508MOL0     H68547  10.779   6.097   5.862 -1.7709  0.1592 -0.5947
  508MOL0     H68548  10.962   5.968   5.902 -1.1873  0.7072 -0.3989
  508MOL0     H68549  11.064   6.033   5.777 -0.4469 -3.7319  0.0016
  508MOL0     H68550  10.949   6.181   6.014 -0.0653  0.6252 -0.2480
  508MOL0     H68551  11.054   6.258   5.890  0.9986  0.6625  0.6475
  508MOL0     H68552  11.232   6.068   5.945  1.1996  1.0699  0.5842
  508MOL0     H68553  11.129   6.017   6.071  1.8155  2.3475  3.3983
  508MOL0     H68554  11.190   6.224   6.195  0.9062  1.0040  0.7990
  508MOL0     H68555  11.312   6.108   6.146 -1.1363 -0.3314  1.5035
  508MOL0     H68556  11.247   6.380   6.024 -1.3275 -0.7038 -0.2377
  508MOL0     H68557  11.373   6.281   5.957 -1.2201  4.4268 -1.9371
  508MOL0     H68558  11.403   6.474   6.142  2.3066 -0.3550  1.6030
  508MOL0     H68559  11.385   6.343   6.260  3.7138 -4.2175  0.6043
  508MOL0     H68560  10.971   5.981   5.349  0.4003  0.0341 -0.3427
  508MOL0     H68561  10.896   5.835   5.154 -3.9562 -0.5417 -1.0088
  508MOL0     H68562  10.709   5.217   5.138  1.9212 -1.1004 -1.9464
  508MOL0     H68563  10.586   5.107   4.970  1.4572 -0.6901 -2.8171
  508MOL0     H68564   9.033   4.728   3.669  0.8506 -0.2949  0.3381
  508MOL0     H68565   8.787   4.668   3.649 -0.7761 -0.5955  0.2008
  508MOL0     H68566   8.357   4.777   3.882 -0.8550  0.6195  0.1185
  508MOL0     H68567   8.123   4.719   3.903  1.1481 -2.3229  1.6787
  508MOL0     H68568   7.891   4.551   3.552 -2.0215  1.8076 -1.0747
  508MOL0     H68569   7.898   4.724   3.590 -1.1515  0.6403  1.5998
  508MOL0     H68570   7.664   4.629   3.593 -2.4803 -1.3065  0.7134
  508MOL0     H68571   7.724   4.684   3.749  0.4822  1.0800 -0.9895
  508MOL0     H68572   7.782   4.473   3.829  2.8813  0.1486 -1.5855
  508MOL0     H68573   7.748   4.382   3.683 -2.7120 -1.1974 -0.5033
  508MOL0     H68574   7.578   4.365   3.864 -1.3923  1.2394  1.8558
  508MOL0     H68575   7.550   4.535   3.849 -0.5610  0.1316 -2.2238
  508MOL0     H68576   7.411   4.376   3.469  1.8544  1.3891  0.0190
  508MOL0     H68577   8.115   4.538   3.520 -3.3459  2.8041 -0.4846
  508MOL0     H68578   8.458   4.532   3.461  0.4983 -0.2335 -1.4931
  508MOL0     H68579   8.307   4.475   3.397 -0.8743  0.2669  0.8907
  508MOL0     H68580   8.356   4.632   3.353  0.8094 -1.8796 -1.1010
  509MOL0     O68581   5.374   9.547   3.671 -0.1498  0.2039 -0.3014
  509MOL0     C68582   5.342   9.650   3.616 -0.5935 -0.7485 -0.2382
  509MOL0     O68583   5.431   9.725   3.530  1.0015 -0.1561  0.6468
  509MOL0     C68584   5.565   9.677   3.518  0.1395 -0.8717 -0.9357
  509MOL0     C68585   5.592   9.544   3.473 -0.6430  0.1931  0.0745
  509MOL0     C68586   5.725   9.489   3.466 -0.0881 -1.3259 -0.1631
  509MOL0     C68587   5.831   9.572   3.511  0.8851 -0.0414  0.4688
  509MOL0     O68588   5.957   9.525   3.493 -0.3715  0.2048 -0.2043
  509MOL0     C68589   6.064   9.561   3.583  0.2894  0.2820 -0.5977
  509MOL0     C68590   6.199   9.533   3.526 -0.6884  0.1867 -0.6717
  509MOL0     C68591   6.303   9.539   3.639 -0.0006 -0.1852 -1.2709
  509MOL0     C68592   6.445   9.499   3.582 -0.0751 -0.2061 -0.5054
  509MOL0     C68593   6.562   9.507   3.684 -0.0906  0.2613 -0.3716
  509MOL0     C68594   6.686   9.425   3.628  0.4526 -0.0965 -0.1622
  509MOL0     C68595   6.752   9.494   3.507 -0.2485 -0.0611  0.1153
  509MOL0     C68596   6.871   9.415   3.446 -0.2567  0.1494 -0.0063
  509MOL0     N68597   6.910   9.459   3.314  0.0561  0.1175  0.7548
  509MOL0     C68598   6.851   9.421   3.191 -0.2647 -0.7762  0.1910
  509MOL0     C68599   6.910   9.490   3.087  0.5725  0.3201  0.1258
  509MOL0     C68600   6.876   9.492   2.940  0.3102 -0.1461  0.1413
  509MOL0     C68601   6.856   9.641   2.897 -0.6136 -0.1371 -0.0243
  509MOL0     C68602   6.854   9.652   2.739  0.7044 -0.6129  0.4486
  509MOL0     C68603   6.730   9.586   2.686  0.1677 -0.1585 -1.1533
  509MOL0     O68604   6.716   9.601   2.544 -0.1196  0.4147 -0.2268
  509MOL0     C68605   6.699   9.733   2.498 -0.3014  0.2725 -0.0595
  509MOL0     C68606   6.729   9.764   2.362 -0.0006 -0.2460  0.1868
  509MOL0     C68607   6.719   9.888   2.307 -0.6155  0.3082  0.2875
  509MOL0     C68608   6.679  10.003   2.388  0.3330  0.0329  0.1708
  509MOL0     C68609   6.656  10.137   2.323  0.0338  0.1693  0.6163
  509MOL0     O68610   6.709  10.156   2.199 -0.0515  0.2449 -0.0591
  509MOL0     C68611   6.714  10.285   2.148 -0.6678  0.3373 -0.0451
  509MOL0     C68612   6.606  10.360   2.112 -0.4365  0.1611  0.8603
  509MOL0     C68613   6.634  10.486   2.045 -0.5665 -0.4045  0.1794
  509MOL0     C68614   6.762  10.532   2.025  0.4364 -0.1321 -0.5441
  509MOL0     O68615   6.762  10.647   1.952 -0.0181 -0.3034  0.9238
  509MOL0     C68616   6.889  10.691   1.893  0.4069 -1.0816 -0.0814
  509MOL0     C68617   6.880  10.837   1.842  0.6163 -0.3400  0.1421
  509MOL0     C68618   6.991  10.871   1.740  0.0850  0.2608  0.7134
  509MOL0     C68619   7.129  10.904   1.814 -0.0691  0.8031 -0.4912
  509MOL0     C68620   7.237  10.980   1.738 -0.6913  0.0980 -0.9369
  509MOL0     C68621   7.375  10.985   1.804 -0.1034  0.4075  0.0699
  509MOL0     C68622   7.473  11.065   1.720  0.2209  0.6964  0.4772
  509MOL0     C68623   7.621  11.069   1.762 -0.9857  0.5889 -0.7787
  509MOL0    Cl68624   7.652  11.152   1.905  0.1709 -0.2455 -0.0136
  509MOL0     C68625   6.874  10.448   2.062 -0.0497 -0.0549 -0.4379
  509MOL0     C68626   6.845  10.328   2.129 -0.0712  0.6522 -0.1447
  509MOL0     O68627   6.584  10.214   2.383 -0.2580  0.0165  0.1653
  509MOL0     C68628   6.630   9.968   2.517 -0.3615 -0.2072 -0.3119
  509MOL0     C68629   6.650   9.840   2.566  0.4608 -0.4027  0.1139
  509MOL0     N68630   7.013   9.568   3.149  0.4822  0.3146 -0.7572
  509MOL0     N68631   7.009   9.550   3.275  0.7567  0.4209 -0.1461
  509MOL0     C68632   5.801   9.708   3.558  1.0168 -0.6324  0.7189
  509MOL0     C68633   5.676   9.760   3.562 -0.2742  0.3296 -0.3549
  509MOL0     C68634   5.202   9.703   3.636  0.3485  0.7204 -0.1016
  509MOL0     C68635   5.163   9.809   3.544  0.1478  0.4824  0.5690
  509MOL0     C68636   5.046   9.879   3.564  0.2804 -0.3841 -0.3124
  509MOL0     C68637   4.951   9.846   3.670  0.1937 -0.7549 -0.0207
  509MOL0     O68638   4.837   9.917   3.670  0.0650 -0.4358  0.7208
  509MOL0     C68639   4.758   9.923   3.792 -0.2302 -0.6925  0.0414
  509MOL0     C68640   4.631   9.997   3.763 -0.2762  0.0221  0.2592
  509MOL0     C68641   4.538   9.977   3.876  0.4113 -0.4318 -0.6293
  509MOL0     C68642   4.395  10.044   3.876  0.1537  0.7017  0.8922
  509MOL0     C68643   4.424  10.189   3.890  0.2795  0.0578  0.4667
  509MOL0     C68644   4.455  10.306   3.910 -0.6281  0.1030 -0.8926
  509MOL0     C68645   4.991   9.749   3.764  0.5385 -0.0546  0.2725
  509MOL0     C68646   5.112   9.672   3.743 -0.0201  0.1558  0.0881
  509MOL0     C68647   5.133   9.576   3.854  0.3785 -0.2652 -0.1614
  509MOL0     H68648   5.505   9.487   3.445 -2.0063  1.3898  1.6709
  509MOL0     H68649   5.745   9.390   3.427  2.5298 -1.1555  0.5539
  509MOL0     H68650   6.058   9.663   3.620 -1.2326 -0.5492  1.6287
  509MOL0     H68651   6.046   9.495   3.669 -2.0516  0.8365 -0.5950
  509MOL0     H68652   6.241   9.600   3.451  5.1117  1.3540  2.9726
  509MOL0     H68653   6.196   9.429   3.494  0.6063 -0.0254 -0.1806
  509MOL0     H68654   6.278   9.472   3.721  0.5983  1.5012  0.3511
  509MOL0     H68655   6.296   9.641   3.678 -0.5645 -0.4943 -0.5404
  509MOL0     H68656   6.444   9.395   3.547 -1.4420 -0.0962 -0.8227
  509MOL0     H68657   6.469   9.560   3.494  2.4314  0.4256  0.5176
  509MOL0     H68658   6.593   9.611   3.699 -0.4064  0.4043 -0.6928
  509MOL0     H68659   6.530   9.473   3.783  0.4180  0.0941 -0.2599
  509MOL0     H68660   6.753   9.428   3.714 -3.5407  1.5115  3.1984
  509MOL0     H68661   6.653   9.322   3.614  0.2363 -0.4691  2.5418
  509MOL0     H68662   6.790   9.592   3.537  3.1733 -1.4449  0.6989
  509MOL0     H68663   6.669   9.511   3.437  0.1934  4.9749  0.4107
  509MOL0     H68664   6.960   9.418   3.510 -0.3866  3.3908  0.1737
  509MOL0     H68665   6.851   9.308   3.440 -1.5999  0.3598  0.3628
  509MOL0     H68666   6.776   9.344   3.181  0.4539 -1.6310  1.2351
  509MOL0     H68667   6.961   9.449   2.888  1.9178  2.5197  0.3846
  509MOL0     H68668   6.784   9.434   2.926 -0.4037  1.0990 -0.5093
  509MOL0     H68669   6.768   9.680   2.948 -1.3072 -0.7856 -0.6957
  509MOL0     H68670   6.941   9.703   2.929 -0.3623 -0.6900  0.4012
  509MOL0     H68671   6.944   9.607   2.698  1.5423  1.2305  0.1368
  509MOL0     H68672   6.852   9.755   2.702  0.2707  0.2942  2.8163
  509MOL0     H68673   6.648   9.631   2.742  1.2014  0.3064  0.0420
  509MOL0     H68674   6.723   9.480   2.713 -2.1767  0.0640 -0.6669
  509MOL0     H68675   6.764   9.677   2.307  0.7974  1.3133 -1.8456
  509MOL0     H68676   6.750   9.897   2.203 -1.9667 -2.9727 -0.5318
  509MOL0     H68677   6.504  10.338   2.142  0.3238 -0.3820  3.1877
  509MOL0     H68678   6.549  10.553   2.031  0.2843  0.2581 -2.3170
  509MOL0     H68679   6.969  10.679   1.967  0.7715  0.6182 -0.1580
  509MOL0     H68680   6.918  10.628   1.807 -0.5341  0.8237 -1.8779
  509MOL0     H68681   6.782  10.845   1.794  0.1498 -1.4408  0.8665
  509MOL0     H68682   6.867  10.909   1.924 -0.2146 -0.3957  0.0641
  509MOL0     H68683   6.999  10.799   1.659  1.0307  1.7939 -0.6093
  509MOL0     H68684   6.969  10.967   1.692  0.5955 -0.0514 -0.1792
  509MOL0     H68685   7.175  10.813   1.854  2.2854  2.2381  0.2653
  509MOL0     H68686   7.094  10.961   1.901  1.3582 -0.0814  0.7133
  509MOL0     H68687   7.199  11.081   1.727  0.0977  0.3167 -1.8842
  509MOL0     H68688   7.247  10.943   1.635 -0.9588  2.2216 -1.7741
  509MOL0     H68689   7.374  11.027   1.905  0.0546  2.2279 -0.6563
  509MOL0     H68690   7.413  10.883   1.817  2.1194  1.0658 -0.8432
  509MOL0     H68691   7.447  11.171   1.712  2.7744  1.3479 -0.0255
  509MOL0     H68692   7.479  11.018   1.622 -1.3036  2.5732 -0.5958
  509MOL0     H68693   7.653  10.967   1.782  2.9580  1.7440 -0.3789
  509MOL0     H68694   7.677  11.114   1.679  1.3804 -2.5447 -1.0753
  509MOL0     H68695   6.977  10.475   2.040 -0.3022  0.6936 -0.7354
  509MOL0     H68696   6.927  10.260   2.151 -0.3760  0.9241  1.9881
  509MOL0     H68697   6.562  10.026   2.579  2.7576  0.9948  2.2610
  509MOL0     H68698   6.616   9.816   2.666 -0.2119 -3.6078 -0.7850
  509MOL0     H68699   5.883   9.776   3.579  0.2459  1.1810 -1.7415
  509MOL0     H68700   5.654   9.858   3.603  0.0974  0.1046  0.3998
  509MOL0     H68701   5.216   9.829   3.452  0.6431  2.1732  1.1818
  509MOL0     H68702   5.010   9.957   3.498 -0.8711 -1.1584 -0.6185
  509MOL0     H68703   4.806   9.971   3.878  0.4910 -0.8228 -0.2848
  509MOL0     H68704   4.725   9.822   3.818 -2.2713  0.0389  0.5513
  509MOL0     H68705   4.576   9.964   3.674  0.0246  1.2770 -0.4360
  509MOL0     H68706   4.639  10.106   3.753 -2.5511  0.1790 -0.4702
  509MOL0     H68707   4.588  10.014   3.965  0.3450  0.0083 -0.7753
  509MOL0     H68708   4.517   9.870   3.887 -2.5280  0.0502 -0.8089
  509MOL0     H68709   4.346  10.032   3.779  0.0239  0.8655  0.9371
  509MOL0     H68710   4.331  10.003   3.955 -1.6444 -1.9591 -1.7375
  509MOL0     H68711   4.496  10.404   3.924 -0.6458 -0.2228  2.1331
  509MOL0     H68712   4.924   9.730   3.847  0.1640 -2.8650 -0.5367
  509MOL0     H68713   5.191   9.631   3.929 -1.5662 -1.1334  2.0932
  509MOL0     H68714   5.038   9.544   3.896  0.1281  0.9300  0.2223
  509MOL0     H68715   5.191   9.491   3.817 -1.5985 -0.0824 -4.2110
  510MOL0     O68716   6.253   9.304   6.397 -0.4303  0.3017  0.0482
  510MOL0     C68717   6.173   9.273   6.485 -0.0587  0.0205 -0.8952
  510MOL0     O68718   6.203   9.179   6.582 -0.7903 -0.3144  0.1550
  510MOL0     C68719   6.319   9.113   6.564  0.1865  0.2146  0.4759
  510MOL0     C68720   6.426   9.149   6.645  0.5763  0.0573  0.2847
  510MOL0     C68721   6.548   9.084   6.624  0.2693 -0.2229  0.3722
  510MOL0     C68722   6.562   8.975   6.535  0.1756  0.3287 -0.9444
  510MOL0     O68723   6.675   8.903   6.501  0.1957 -0.7801 -0.3549
  510MOL0     C68724   6.807   8.940   6.551  0.1659 -0.5361  0.3707
  510MOL0     C68725   6.836   8.872   6.686 -0.3978 -0.4194 -0.4557
  510MOL0     C68726   6.983   8.872   6.719  0.0639  0.3400  0.1854
  510MOL0     C68727   7.031   9.017   6.751  0.3394  1.5622  0.1030
  510MOL0     C68728   7.190   9.016   6.752  0.0511  0.1799  0.2213
  510MOL0     C68729   7.255   9.149   6.766  0.7036 -0.6435  0.4622
  510MOL0     C68730   7.408   9.126   6.747  0.0480 -0.3299 -0.7573
  510MOL0     C68731   7.469   9.266   6.752  0.7117 -0.6128 -0.1398
  510MOL0     N68732   7.599   9.270   6.684  0.2675  0.7329 -0.2838
  510MOL0     C68733   7.629   9.251   6.553  0.2910 -0.0999  0.7146
  510MOL0     C68734   7.762   9.286   6.541  0.3223 -0.1031  0.3317
  510MOL0     C68735   7.842   9.297   6.416 -0.4328 -0.9667  0.4596
  510MOL0     C68736   7.778   9.394   6.317  0.2376  0.2982 -0.3889
  510MOL0     C68737   7.871   9.455   6.210  0.3644  0.2802 -0.0335
  510MOL0     C68738   7.922   9.351   6.110  0.0378 -0.5719  0.3160
  510MOL0     O68739   8.018   9.261   6.175  0.0869 -0.1522 -0.1653
  510MOL0     C68740   8.146   9.312   6.207 -0.0851 -0.8313  1.2615
  510MOL0     C68741   8.229   9.381   6.116 -0.5365 -0.4744 -0.2613
  510MOL0     C68742   8.338   9.447   6.159  0.1282  0.9665 -0.0523
  510MOL0     C68743   8.387   9.428   6.290 -0.7429  0.2882 -0.2795
  510MOL0     C68744   8.506   9.497   6.345  0.3225 -0.1576  1.3151
  510MOL0     O68745   8.548   9.450   6.464  0.3425  0.3502  0.9759
  510MOL0     C68746   8.660   9.485   6.538  0.1850 -0.2738 -0.4403
  510MOL0     C68747   8.667   9.469   6.673 -0.7648  0.6231  0.1155
  510MOL0     C68748   8.787   9.475   6.745  0.9242 -0.3443 -0.2568
  510MOL0     C68749   8.906   9.511   6.692  0.7034 -0.9647  0.3179
  510MOL0     O68750   9.024   9.526   6.756  0.3745 -0.8326 -0.1509
  510MOL0     C68751   9.029   9.576   6.891 -0.0139  1.0968  0.0667
  510MOL0     C68752   9.174   9.582   6.936 -0.4274 -1.1606 -0.7886
  510MOL0     C68753   9.182   9.651   7.079 -0.3077  0.6597  0.5999
  510MOL0     C68754   9.315   9.609   7.154  0.3611 -0.5453  0.4042
  510MOL0     C68755   9.438   9.652   7.070 -0.2442 -0.1890  0.0971
  510MOL0     C68756   9.569   9.609   7.134 -0.2187  0.3036  0.4715
  510MOL0     C68757   9.700   9.642   7.041  0.5040  0.9035 -0.1185
  510MOL0     C68758   9.714   9.796   7.021  0.3450  0.0677  0.6735
  510MOL0    Cl68759   9.892   9.827   6.981 -0.3693 -0.2970  0.2423
  510MOL0     C68760   8.903   9.535   6.551  0.3268 -0.2586  0.0474
  510MOL0     C68761   8.775   9.524   6.473  0.6020  0.1176 -0.1867
  510MOL0     O68762   8.550   9.591   6.286  0.4086  0.1775 -0.2268
  510MOL0     C68763   8.307   9.349   6.381 -0.4192 -0.7237 -0.2585
  510MOL0     C68764   8.195   9.289   6.333 -1.0524  0.3378 -0.7864
  510MOL0     N68765   7.803   9.324   6.663  0.4464  1.3036 -0.1070
  510MOL0     N68766   7.712   9.314   6.746  0.1846 -0.3498 -0.1581
  510MOL0     C68767   6.451   8.931   6.474  1.3269 -0.8663  0.0607
  510MOL0     C68768   6.333   8.996   6.481 -0.3238 -0.2518 -0.2890
  510MOL0     C68769   6.043   9.331   6.486 -0.2563  0.0300 -0.1011
  510MOL0     C68770   5.941   9.248   6.533 -0.2396 -0.3989  1.0130
  510MOL0     C68771   5.809   9.288   6.524  0.0878  0.1425 -0.1476
  510MOL0     C68772   5.779   9.413   6.475  0.0729 -0.4872 -0.1657
  510MOL0     O68773   5.654   9.472   6.486  0.2005 -0.0156 -0.1111
  510MOL0     C68774   5.553   9.431   6.388 -1.0850 -0.2807  0.2743
  510MOL0     C68775   5.599   9.494   6.262  1.5194 -0.5394 -0.1129
  510MOL0     C68776   5.482   9.470   6.164  0.4108  0.6385  0.1626
  510MOL0     C68777   5.487   9.562   6.035 -0.4890  0.8911 -0.7387
  510MOL0     C68778   5.611   9.543   5.962 -0.3718 -0.5682 -0.6923
  510MOL0     C68779   5.722   9.541   5.913  0.6075 -0.4476  0.1601
  510MOL0     C68780   5.883   9.499   6.425  0.4554 -0.7619 -1.2868
  510MOL0     C68781   6.013   9.454   6.425  0.6646 -0.4680 -0.7375
  510MOL0     C68782   6.111   9.560   6.383  0.0592  0.1204 -0.4801
  510MOL0     H68783   6.419   9.223   6.725 -1.8708 -0.9032  1.0455
  510MOL0     H68784   6.623   9.115   6.696 -0.5881  0.1882  1.0929
  510MOL0     H68785   6.875   8.916   6.469 -0.5260 -0.9573 -0.0932
  510MOL0     H68786   6.816   9.048   6.564  1.6530 -0.7573  1.4124
  510MOL0     H68787   6.805   8.768   6.694  1.7175 -1.2860 -2.3685
  510MOL0     H68788   6.785   8.921   6.770  3.2238  1.3450  0.9921
  510MOL0     H68789   7.039   8.826   6.637  0.7152 -0.4739  1.0763
  510MOL0     H68790   7.003   8.801   6.799 -1.8777 -0.3352  0.1311
  510MOL0     H68791   6.985   9.080   6.674 -3.1768 -1.1425 -0.2673
  510MOL0     H68792   6.995   9.047   6.850  0.1422 -1.6200  1.1089
  510MOL0     H68793   7.230   8.943   6.822  0.8627  0.6555  0.2682
  510MOL0     H68794   7.219   8.979   6.653  0.5461  0.8892  0.0924
  510MOL0     H68795   7.225   9.224   6.693  3.2424  0.0840  0.0714
  510MOL0     H68796   7.230   9.192   6.863 -1.5672  0.5195 -0.5644
  510MOL0     H68797   7.424   9.083   6.648 -2.2294 -0.5083 -1.1098
  510MOL0     H68798   7.435   9.062   6.832  0.1859  1.8887  0.9716
  510MOL0     H68799   7.402   9.328   6.691  0.6331 -0.0950  0.4603
  510MOL0     H68800   7.460   9.309   6.853 -0.4298 -0.0400 -0.4647
  510MOL0     H68801   7.567   9.222   6.469  0.0062  2.0995  0.1173
  510MOL0     H68802   7.933   9.345   6.454 -0.6725 -0.1644  0.0434
  510MOL0     H68803   7.863   9.211   6.352  1.8258  0.8851 -1.5136
  510MOL0     H68804   7.707   9.327   6.269  2.4178 -2.9677  0.6374
  510MOL0     H68805   7.739   9.477   6.377  1.6047 -0.0254  1.0321
  510MOL0     H68806   7.954   9.507   6.258 -0.8397  3.5719 -1.2380
  510MOL0     H68807   7.804   9.534   6.173 -0.6319  0.6839  2.4903
  510MOL0     H68808   7.967   9.392   6.019  0.5393 -0.6372  0.5342
  510MOL0     H68809   7.835   9.290   6.084 -1.9593  0.9198  2.9718
  510MOL0     H68810   8.198   9.398   6.013 -4.6341 -1.3799  0.6297
  510MOL0     H68811   8.392   9.513   6.093  2.1253  1.2963  1.8281
  510MOL0     H68812   8.578   9.430   6.723 -1.1659  0.8627 -0.4009
  510MOL0     H68813   8.777   9.454   6.851  1.2271  0.6248 -0.0190
  510MOL0     H68814   8.983   9.674   6.876 -2.4699 -0.2151 -2.0299
  510MOL0     H68815   8.969   9.514   6.959  0.4473 -0.4599 -0.8804
  510MOL0     H68816   9.230   9.489   6.949 -0.0562 -0.8020  0.2486
  510MOL0     H68817   9.234   9.643   6.867 -0.2087 -1.0672 -0.5176
  510MOL0     H68818   9.188   9.760   7.072  1.7982  0.6838  1.8059
  510MOL0     H68819   9.094   9.614   7.132 -0.9984  1.6492  0.1761
  510MOL0     H68820   9.316   9.501   7.169  1.3746 -0.4358  1.1582
  510MOL0     H68821   9.302   9.668   7.245  0.8291  1.2496 -0.6481
  510MOL0     H68822   9.435   9.761   7.058  0.4522 -0.0823  0.8212
  510MOL0     H68823   9.443   9.614   6.968  0.5009  0.1169  0.0097
  510MOL0     H68824   9.586   9.679   7.217  3.1152  1.6597 -1.1684
  510MOL0     H68825   9.567   9.502   7.158  0.5398 -0.2370 -1.6381
  510MOL0     H68826   9.689   9.585   6.948 -2.0143 -0.7520  1.0783
  510MOL0     H68827   9.781   9.597   7.100 -1.7396 -2.2949  0.8225
  510MOL0     H68828   9.648   9.821   6.937  0.9212 -0.3629  0.0886
  510MOL0     H68829   9.685   9.839   7.118 -2.4904 -1.2045  0.4735
  510MOL0     H68830   8.998   9.564   6.507 -0.8014  2.2976 -0.9194
  510MOL0     H68831   8.775   9.546   6.366  1.8155 -0.8093 -0.3928
  510MOL0     H68832   8.335   9.331   6.485  0.0362 -3.3185 -0.7554
  510MOL0     H68833   8.136   9.227   6.401 -1.7710 -0.6581 -2.2715
  510MOL0     H68834   6.433   8.845   6.410  0.3224 -2.0161  1.8050
  510MOL0     H68835   6.245   8.963   6.427  1.5427 -0.7754 -3.2203
  510MOL0     H68836   5.962   9.150   6.573 -2.7210 -1.1535  0.6374
  510MOL0     H68837   5.738   9.218   6.566  0.4417 -0.3936 -0.4365
  510MOL0     H68838   5.458   9.469   6.427 -0.3838  1.7318  0.1538
  510MOL0     H68839   5.552   9.322   6.382  0.7119 -0.5455  2.9207
  510MOL0     H68840   5.691   9.449   6.224  0.5159 -1.3716 -1.6895
  510MOL0     H68841   5.606   9.602   6.279 -0.2940 -0.1932 -1.2691
  510MOL0     H68842   5.381   9.483   6.202 -1.0798  2.8693 -3.9814
  510MOL0     H68843   5.494   9.366   6.130  0.4778  0.2617  1.2899
  510MOL0     H68844   5.402   9.551   5.968 -0.5034  2.1261 -0.9546
  510MOL0     H68845   5.489   9.666   6.069  2.3273  1.2833 -1.8561
  510MOL0     H68846   5.824   9.545   5.881  1.4153  0.4897  2.6525
  510MOL0     H68847   5.853   9.598   6.394 -1.4568 -0.9174 -0.1307
  510MOL0     H68848   6.170   9.588   6.470 -0.9980  0.9903 -0.0223
  510MOL0     H68849   6.182   9.523   6.308 -0.0243 -2.9932  0.8243
  510MOL0     H68850   6.066   9.655   6.353 -3.5133 -0.1887  3.0711
  511MOL0     O68851   6.203   8.731   4.165  0.2873  0.2647  0.1995
  511MOL0     C68852   6.136   8.762   4.265  0.5264 -0.4391 -0.9049
  511MOL0     O68853   6.195   8.783   4.387 -0.3930  0.4718  0.5711
  511MOL0     C68854   6.332   8.777   4.396 -0.6477  0.4939 -0.4884
  511MOL0     C68855   6.416   8.859   4.320 -0.3972  0.4414  0.5040
  511MOL0     C68856   6.548   8.876   4.365  0.4185  0.2105 -0.1671
  511MOL0     C68857   6.598   8.799   4.475  0.4482  0.1460  0.8641
  511MOL0     O68858   6.733   8.803   4.513 -0.4490  0.1528  0.4941
  511MOL0     C68859   6.818   8.883   4.431 -0.4635 -0.3201  0.5315
  511MOL0     C68860   6.965   8.861   4.473  0.6756 -0.2833  0.5205
  511MOL0     C68861   7.013   8.726   4.432  0.3452  0.1077  0.9451
  511MOL0     C68862   7.160   8.697   4.486  0.8473 -0.6120 -0.5813
  511MOL0     C68863   7.229   8.572   4.424  0.5993 -0.4114 -0.3355
  511MOL0     C68864   7.349   8.524   4.507  0.7108  0.0802  0.4553
  511MOL0     C68865   7.432   8.428   4.415  0.7213  0.0668  0.3767
  511MOL0     C68866   7.513   8.491   4.303  0.6758  0.1069  0.9680
  511MOL0     N68867   7.626   8.574   4.346 -0.0937  0.3810 -0.1965
  511MOL0     C68868   7.760   8.543   4.375  0.8511  0.7227 -0.0392
  511MOL0     C68869   7.821   8.657   4.395  0.2597  0.1807 -0.3994
  511MOL0     C68870   7.964   8.668   4.434  0.4468  0.2472 -0.5189
  511MOL0     C68871   8.001   8.576   4.550  0.2129 -0.7732 -0.1686
  511MOL0     C68872   8.115   8.628   4.641 -0.0142 -0.4492 -0.3803
  511MOL0     C68873   8.244   8.645   4.558  0.3366 -0.3860 -0.6043
  511MOL0     O68874   8.356   8.670   4.642  0.1969  0.0796  0.1417
  511MOL0     C68875   8.484   8.647   4.603 -0.4606  0.7942 -0.0312
  511MOL0     C68876   8.580   8.658   4.703 -0.6145  0.3630  0.3165
  511MOL0     C68877   8.710   8.621   4.685 -0.6474 -0.7750 -0.0231
  511MOL0     C68878   8.758   8.579   4.561 -0.1914  0.0580 -1.2848
  511MOL0     C68879   8.895   8.538   4.538 -0.2054 -0.1325  0.6526
  511MOL0     O68880   8.980   8.542   4.644 -0.3295  0.5798 -0.2441
  511MOL0     C68881   9.092   8.468   4.638  0.3687  0.4538 -0.0559
  511MOL0     C68882   9.217   8.540   4.651  0.0612 -0.6203  0.0020
  511MOL0     C68883   9.335   8.471   4.667 -0.3819  0.7992  0.3019
  511MOL0     C68884   9.343   8.332   4.640 -0.5489  0.3229 -0.1198
  511MOL0     O68885   9.458   8.263   4.637 -0.2278 -0.2681  0.3284
  511MOL0     C68886   9.567   8.311   4.719  0.5355  0.6030 -0.2512
  511MOL0     C68887   9.673   8.204   4.738  0.0835  0.1194  0.9185
  511MOL0     C68888   9.791   8.258   4.807 -0.1374  0.1564 -0.6419
  511MOL0     C68889   9.896   8.147   4.805 -0.1243 -0.3312 -0.5025
  511MOL0     C68890  10.037   8.202   4.834  0.6416  0.2225  0.1351
  511MOL0     C68891  10.140   8.095   4.809 -1.0990 -0.1194 -0.2346
  511MOL0     C68892  10.291   8.146   4.815  0.9729 -1.3274  0.3920
  511MOL0     C68893  10.394   8.046   4.772 -0.0745  0.0788 -0.4960
  511MOL0    Cl68894  10.546   8.127   4.746  0.0140 -0.4191 -0.3344
  511MOL0     C68895   9.222   8.265   4.619 -0.3643  0.4314  0.8255
  511MOL0     C68896   9.094   8.329   4.625 -0.5522 -0.0227  0.3729
  511MOL0     O68897   8.919   8.501   4.423  0.2659  0.0971 -0.0730
  511MOL0     C68898   8.660   8.562   4.455  0.2665  0.5018  0.7931
  511MOL0     C68899   8.530   8.603   4.474 -0.2259 -0.0189  0.2258
  511MOL0     N68900   7.725   8.755   4.394 -1.0167  0.1289  0.0978
  511MOL0     N68901   7.611   8.708   4.375 -0.9088 -0.0302  0.3117
  511MOL0     C68902   6.514   8.723   4.554  1.4396  0.2506 -0.1983
  511MOL0     C68903   6.381   8.711   4.508 -0.0285 -0.1098  0.7277
  511MOL0     C68904   5.992   8.805   4.261  0.3904 -0.3574 -0.4123
  511MOL0     C68905   5.910   8.775   4.374  0.7951  0.0049  0.1768
  511MOL0     C68906   5.778   8.812   4.385  0.5578 -0.4631  0.0418
  511MOL0     C68907   5.718   8.893   4.286  1.1541  0.4741 -0.2752
  511MOL0     O68908   5.582   8.912   4.308 -0.2772  0.2627  0.5136
  511MOL0     C68909   5.509   8.946   4.196 -0.3517  0.8151 -0.4546
  511MOL0     C68910   5.368   8.962   4.252 -0.2393  0.0397  0.2400
  511MOL0     C68911   5.250   8.996   4.152 -0.7516  0.4977  0.2939
  511MOL0     C68912   5.261   8.936   4.013 -1.3270 -0.0524 -0.1014
  511MOL0     C68913   5.264   8.790   4.043  1.0842 -1.0540  0.3022
  511MOL0     C68914   5.265   8.668   4.053 -0.1919 -0.0213 -0.6218
  511MOL0     C68915   5.803   8.925   4.172  0.5198  0.1383 -0.6241
  511MOL0     C68916   5.939   8.880   4.161 -0.0364 -0.2148 -0.3370
  511MOL0     C68917   6.020   8.922   4.045  0.9701 -0.1958  0.3162
  511MOL0     H68918   6.394   8.923   4.236 -3.8520  0.3930  1.2459
  511MOL0     H68919   6.613   8.948   4.317 -0.7470  1.7391  0.4842
  511MOL0     H68920   6.811   8.863   4.324  3.4661 -0.7314  0.2170
  511MOL0     H68921   6.792   8.989   4.440 -0.6943 -0.3659  0.4134
  511MOL0     H68922   6.968   8.867   4.583 -0.5828 -0.4733  0.5789
  511MOL0     H68923   7.025   8.940   4.427 -1.5684  1.0666 -0.2765
  511MOL0     H68924   7.009   8.720   4.322 -0.1095 -0.1637  0.9727
  511MOL0     H68925   6.948   8.648   4.472 -1.4076  1.0011 -0.0696
  511MOL0     H68926   7.217   8.791   4.476  0.0878 -0.2476 -1.7691
  511MOL0     H68927   7.160   8.676   4.593  0.7976 -2.5674 -0.9387
  511MOL0     H68928   7.157   8.490   4.415 -1.3901  1.4025 -2.5229
  511MOL0     H68929   7.247   8.590   4.317 -2.4734  2.9734 -0.4872
  511MOL0     H68930   7.415   8.604   4.539 -1.7074  2.3740  0.0719
  511MOL0     H68931   7.312   8.477   4.599 -2.1542  2.0948  0.4776
  511MOL0     H68932   7.368   8.350   4.374  0.7205 -0.1919  0.8595
  511MOL0     H68933   7.498   8.373   4.482  0.7000  0.4654  0.7322
  511MOL0     H68934   7.551   8.411   4.238  2.7930  0.7819  1.3044
  511MOL0     H68935   7.454   8.552   4.234  3.6606  0.4264 -1.5013
  511MOL0     H68936   7.794   8.440   4.376 -0.3915  0.1514 -3.4870
  511MOL0     H68937   8.018   8.646   4.341 -1.9589  0.3692 -2.0102
  511MOL0     H68938   7.985   8.768   4.472 -0.1545  0.2833 -0.2795
  511MOL0     H68939   7.911   8.574   4.612 -0.2951 -1.1842 -0.8902
  511MOL0     H68940   8.016   8.473   4.515  0.3698 -0.8715  0.1835
  511MOL0     H68941   8.125   8.558   4.724  0.1748 -3.0666 -2.4558
  511MOL0     H68942   8.080   8.722   4.684 -2.7494 -0.5779 -2.0836
  511MOL0     H68943   8.226   8.731   4.493  2.6357  2.5510  2.2776
  511MOL0     H68944   8.261   8.553   4.503 -0.4032 -0.9805  0.1378
  511MOL0     H68945   8.544   8.677   4.804  2.7109 -2.3848  2.2432
  511MOL0     H68946   8.772   8.614   4.774  0.1584 -0.4122 -0.5542
  511MOL0     H68947   9.204   8.647   4.655  0.9455 -0.4562 -0.9886
  511MOL0     H68948   9.424   8.527   4.696 -1.9168  1.4787  4.2687
  511MOL0     H68949   9.610   8.399   4.671 -0.7325  1.9868  1.0563
  511MOL0     H68950   9.534   8.333   4.821  4.0964 -2.2640  1.7536
  511MOL0     H68951   9.643   8.123   4.806 -1.4206 -0.2075 -0.0765
  511MOL0     H68952   9.713   8.160   4.646  1.0178  2.0408  0.3591
  511MOL0     H68953   9.824   8.355   4.771  0.5906  1.1875  2.4643
  511MOL0     H68954   9.768   8.281   4.912  0.0041  0.8522 -0.7608
  511MOL0     H68955   9.894   8.085   4.715 -1.5838  0.4217 -1.0125
  511MOL0     H68956   9.868   8.075   4.882  0.1556 -0.9152 -0.9415
  511MOL0     H68957  10.042   8.223   4.941 -0.8565 -1.8598  0.6582
  511MOL0     H68958  10.041   8.290   4.770 -0.5604 -0.1609 -0.4943
  511MOL0     H68959  10.132   8.023   4.890  0.1810  2.4324  2.3679
  511MOL0     H68960  10.130   8.053   4.709  0.0038  0.4068 -0.5872
  511MOL0     H68961  10.312   8.186   4.915  0.0417 -0.6282  0.3125
  511MOL0     H68962  10.309   8.232   4.750  1.3881 -1.5191  0.2485
  511MOL0     H68963  10.403   7.967   4.847 -0.8774  0.4711  0.0247
  511MOL0     H68964  10.355   8.000   4.681 -2.6074 -0.5722  0.8415
  511MOL0     H68965   9.230   8.157   4.609 -1.0964  0.4185  0.3253
  511MOL0     H68966   8.998   8.287   4.597 -0.7265 -0.4787  1.6080
  511MOL0     H68967   8.682   8.530   4.353  0.3350  1.9147  0.3434
  511MOL0     H68968   8.470   8.606   4.383  1.8509  1.5594 -1.2056
  511MOL0     H68969   6.555   8.673   4.641  0.3540 -5.2993 -2.4483
  511MOL0     H68970   6.313   8.648   4.564  1.2874 -2.0022  0.3122
  511MOL0     H68971   5.952   8.723   4.460 -1.5299  0.3648  1.6345
  511MOL0     H68972   5.714   8.780   4.467 -2.1084  2.8350 -0.5710
  511MOL0     H68973   5.509   8.866   4.121 -2.1595  0.3772 -0.0472
  511MOL0     H68974   5.549   9.033   4.143  0.3167 -0.6280 -2.4871
  511MOL0     H68975   5.370   9.048   4.320 -2.1147  0.4622 -0.1917
  511MOL0     H68976   5.334   8.867   4.294 -1.4459  0.6245  0.6280
  511MOL0     H68977   5.236   9.103   4.138  2.6086  0.8648 -1.3212
  511MOL0     H68978   5.156   8.959   4.195 -0.5207 -0.5290 -0.0619
  511MOL0     H68979   5.183   8.978   3.949  0.3683 -0.6414 -2.7094
  511MOL0     H68980   5.356   8.961   3.965 -0.1276 -0.7601  1.7958
  511MOL0     H68981   5.263   8.561   4.057 -1.0646 -0.0417 -1.2886
  511MOL0     H68982   5.763   8.974   4.084  0.9062  2.0439  0.2146
  511MOL0     H68983   6.096   8.991   4.082 -0.3959  1.2216  0.5769
  511MOL0     H68984   6.077   8.839   4.003  1.9464 -0.4794  2.0906
  511MOL0     H68985   5.962   8.982   3.974  1.6677  1.4768  1.1054
  512MOL0     O68986   4.247   3.931  10.565  0.6134 -0.5163 -0.0910
  512MOL0     C68987   4.274   4.023  10.637  0.4052 -0.2089 -1.0226
  512MOL0     O68988   4.205   4.136  10.657 -0.4009 -0.1218  0.1977
  512MOL0     C68989   4.081   4.154  10.609 -1.0333 -0.5751  0.6879
  512MOL0     C68990   4.067   4.262  10.517 -0.3056 -0.2747 -0.8985
  512MOL0     C68991   3.940   4.288  10.460 -0.6693  0.2675 -0.6843
  512MOL0     C68992   3.831   4.201  10.490 -0.4392 -0.0368 -0.0824
  512MOL0     O68993   3.719   4.231  10.428 -0.9497 -0.0894 -0.2104
  512MOL0     C68994   3.604   4.145  10.438  0.0799 -0.7034  0.7357
  512MOL0     C68995   3.500   4.211  10.349 -0.1313 -0.0590 -0.2119
  512MOL0     C68996   3.375   4.132  10.357 -0.5583  0.6332 -0.2341
  512MOL0     C68997   3.260   4.175  10.269  1.0995  0.0712  0.7148
  512MOL0     C68998   3.150   4.064  10.278  0.2895 -0.2608  0.0283
  512MOL0     C68999   3.040   4.109  10.193 -0.7004  1.0133 -0.2312
  512MOL0     C69000   2.969   3.990  10.130 -0.8182 -0.2173 -0.0821
  512MOL0     C69001   2.848   4.041  10.047  0.1989 -0.3912  0.0114
  512MOL0     N69002   2.880   4.133   9.940  0.1340  0.0634  0.7904
  512MOL0     C69003   2.954   4.087   9.832 -0.1346 -0.3609  0.1216
  512MOL0     C69004   2.947   4.181   9.737  0.7138  0.0458  0.9537
  512MOL0     C69005   3.019   4.176   9.605 -0.2726  0.3653  0.1465
  512MOL0     C69006   3.166   4.196   9.634  0.0516  0.3188  0.1900
  512MOL0     C69007   3.202   4.334   9.690  0.0939  1.1763 -0.4876
  512MOL0     C69008   3.341   4.334   9.745 -0.2825 -0.1320 -0.3897
  512MOL0     O69009   3.354   4.449   9.830  0.3013  1.0836 -0.1840
  512MOL0     C69010   3.487   4.455   9.862 -0.5367 -0.2129  1.2500
  512MOL0     C69011   3.523   4.432   9.992 -0.0250  0.2162  0.9475
  512MOL0     C69012   3.647   4.463  10.038  0.0203  0.2638  0.7733
  512MOL0     C69013   3.749   4.512   9.947  0.2558  0.2391 -0.4031
  512MOL0     C69014   3.890   4.537  10.002 -0.2270 -0.6634  0.7778
  512MOL0     O69015   3.987   4.556   9.916 -0.2127 -0.1870  0.6111
  512MOL0     C69016   4.121   4.564   9.960  0.2701 -0.1939  0.4153
  512MOL0     C69017   4.191   4.677   9.943 -1.0105 -0.1313  0.5002
  512MOL0     C69018   4.325   4.686   9.976 -0.3407  0.2065  0.9080
  512MOL0     C69019   4.390   4.575  10.015  0.3865 -0.5686 -0.2571
  512MOL0     O69020   4.522   4.592  10.043 -0.0767  0.3011  0.6500
  512MOL0     C69021   4.604   4.470  10.015  0.9771 -0.3036  0.0093
  512MOL0     C69022   4.750   4.499  10.048 -0.6851 -0.4975 -0.2606
  512MOL0     C69023   4.821   4.604   9.962 -0.8051 -0.5248 -0.8493
  512MOL0     C69024   4.973   4.636  10.000 -0.3764  0.0560 -0.0217
  512MOL0     C69025   5.013   4.761   9.923 -0.1672 -0.6188  0.6745
  512MOL0     C69026   5.061   4.726   9.783 -0.1094  0.3989  0.5440
  512MOL0     C69027   5.196   4.659   9.772  0.0629 -0.2767 -0.3942
  512MOL0     C69028   5.253   4.665   9.634  0.0088 -0.0664 -0.3824
  512MOL0    Cl69029   5.301   4.841   9.600  0.5477  0.1500  0.3778
  512MOL0     C69030   4.321   4.456  10.039 -0.7938  0.2701  1.2507
  512MOL0     C69031   4.189   4.450  10.011  0.1993 -0.6580  0.7589
  512MOL0     O69032   3.910   4.527  10.121 -0.3826  0.7783  0.3748
  512MOL0     C69033   3.709   4.525   9.811  0.7097 -0.4723 -0.7035
  512MOL0     C69034   3.581   4.496   9.765 -0.6419 -0.9675  0.2978
  512MOL0     N69035   2.865   4.281   9.788 -0.6575  0.3187  0.3142
  512MOL0     N69036   2.823   4.253   9.907  0.9929 -0.0019  0.3189
  512MOL0     C69037   3.855   4.094  10.574 -0.0426 -0.0724 -0.0981
  512MOL0     C69038   3.978   4.074  10.640 -0.0503  0.9766  0.2116
  512MOL0     C69039   4.412   4.010  10.698 -0.0918 -0.2018 -0.0658
  512MOL0     C69040   4.524   3.968  10.625 -0.3577  0.5195  0.7778
  512MOL0     C69041   4.653   3.961  10.672 -0.7527  0.4097  0.1538
  512MOL0     C69042   4.679   3.993  10.810 -0.1360 -0.0748 -0.4378
  512MOL0     O69043   4.802   3.999  10.874  0.2499  0.7912 -0.4306
  512MOL0     C69044   4.911   3.930  10.811  0.6895  0.2254  1.1037
  512MOL0     C69045   5.042   3.951  10.876 -0.2400  0.9458  0.1387
  512MOL0     C69046   5.045   3.904  11.021 -0.2967  0.1427  0.1434
  512MOL0     C69047   5.197   3.913  11.079  0.1683 -0.2912  0.0594
  512MOL0     C69048   5.216   4.053  11.102 -0.5159  0.3115 -0.2327
  512MOL0     C69049   5.242   4.169  11.138  0.3488  0.0350  0.8066
  512MOL0     C69050   4.569   4.025  10.895 -0.0384  0.1429 -0.0915
  512MOL0     C69051   4.443   4.027  10.833 -0.0174 -0.5016 -0.1253
  512MOL0     C69052   4.333   4.066  10.935 -0.4238 -0.9130  0.7001
  512MOL0     H69053   4.141   4.340  10.505  0.2955 -0.6993 -0.1039
  512MOL0     H69054   3.926   4.379  10.403  0.1568  2.1827  1.9153
  512MOL0     H69055   3.632   4.051  10.387 -0.2773  1.0695 -3.0829
  512MOL0     H69056   3.577   4.134  10.543 -1.7327 -2.8183  0.1323
  512MOL0     H69057   3.528   4.217  10.243 -1.3634  2.7601 -0.4672
  512MOL0     H69058   3.488   4.317  10.370  0.9575  0.4832 -2.1074
  512MOL0     H69059   3.338   4.136  10.460 -1.6852  2.5488 -0.6630
  512MOL0     H69060   3.397   4.027  10.334 -4.2276 -0.0795 -1.1221
  512MOL0     H69061   3.209   4.266  10.302  1.2256  0.8273 -1.0718
  512MOL0     H69062   3.302   4.199  10.171 -3.4906  4.5074 -0.6550
  512MOL0     H69063   3.200   3.976  10.237  0.3686 -0.7629  1.1879
  512MOL0     H69064   3.113   4.059  10.381  0.2929  1.7105  0.1800
  512MOL0     H69065   2.971   4.169  10.252  0.9784 -0.5952  3.7327
  512MOL0     H69066   3.076   4.175  10.113 -0.3870 -0.2584 -1.1731
  512MOL0     H69067   2.934   3.916  10.202 -4.7668  0.8910 -0.6212
  512MOL0     H69068   3.035   3.939  10.060 -3.0184 -2.0026 -0.9749
  512MOL0     H69069   2.798   3.955  10.000  1.0536 -0.3594 -0.9948
  512MOL0     H69070   2.779   4.084  10.120  1.4293 -0.0925  1.0192
  512MOL0     H69071   3.007   3.994   9.817  3.4532  1.4071  0.7530
  512MOL0     H69072   3.012   4.076   9.562 -2.8213  0.6208 -0.2057
  512MOL0     H69073   2.974   4.245   9.532 -1.2295 -0.2643  0.1149
  512MOL0     H69074   3.205   4.124   9.707  1.4703  0.0687 -0.7745
  512MOL0     H69075   3.235   4.192   9.550 -0.0133  0.1196  0.1452
  512MOL0     H69076   3.131   4.372   9.764  1.9087  1.6607  1.0588
  512MOL0     H69077   3.197   4.402   9.604 -2.3063 -0.4928 -1.8150
  512MOL0     H69078   3.411   4.325   9.662 -0.1122 -0.8565 -0.1742
  512MOL0     H69079   3.342   4.249   9.814  0.5639  0.7517  0.7210
  512MOL0     H69080   3.436   4.409  10.053 -1.8641  0.6163 -1.3454
  512MOL0     H69081   3.674   4.465  10.143  1.2020  1.4136  0.4802
  512MOL0     H69082   4.137   4.761   9.901 -1.6875 -1.5527 -1.6366
  512MOL0     H69083   4.373   4.783   9.974  0.4642 -0.1489  2.0111
  512MOL0     H69084   4.576   4.388  10.082  1.3248  1.4876  2.5072
  512MOL0     H69085   4.575   4.430   9.917 -1.9253 -0.7397  0.9451
  512MOL0     H69086   4.755   4.530  10.153 -1.6147 -0.2175 -0.2942
  512MOL0     H69087   4.821   4.416  10.045  1.2058  1.0256  0.1715
  512MOL0     H69088   4.801   4.565   9.862 -3.5040 -0.9910 -0.1944
  512MOL0     H69089   4.773   4.702   9.973 -2.0979 -1.3973  2.9661
  512MOL0     H69090   5.039   4.551   9.982 -1.7678 -1.4581  1.5569
  512MOL0     H69091   4.977   4.655  10.107  0.0311 -1.4777  0.2608
  512MOL0     H69092   5.097   4.806   9.977 -0.9893  1.3694  0.3790
  512MOL0     H69093   4.940   4.842   9.916  1.8519  1.1469 -2.9155
  512MOL0     H69094   4.982   4.666   9.738 -1.8232  2.3339  0.8089
  512MOL0     H69095   5.069   4.822   9.731  2.8072  1.2466  2.3261
  512MOL0     H69096   5.180   4.555   9.802 -2.3523  0.1985  0.2320
  512MOL0     H69097   5.261   4.694   9.852  0.6140 -2.3705  0.1251
  512MOL0     H69098   5.344   4.606   9.626 -0.5931 -1.5828  2.4620
  512MOL0     H69099   5.188   4.623   9.557 -0.2488  3.7278 -2.4681
  512MOL0     H69100   4.369   4.370  10.086  0.8788  1.4141  1.7201
  512MOL0     H69101   4.134   4.358  10.026 -0.9912  0.2091  1.9748
  512MOL0     H69102   3.764   4.592   9.746 -1.5695 -0.1054 -2.3920
  512MOL0     H69103   3.557   4.521   9.662 -1.8485  0.3151  0.8579
  512MOL0     H69104   3.772   4.030  10.601  0.6143 -1.4538 -1.1881
  512MOL0     H69105   3.993   3.989  10.706  0.0655 -0.2705 -1.3796
  512MOL0     H69106   4.504   3.943  10.521 -0.9450 -0.3016  1.0741
  512MOL0     H69107   4.732   3.923  10.607 -1.2942  2.5848 -1.9673
  512MOL0     H69108   4.931   3.963  10.709 -1.1523 -0.3074  0.5468
  512MOL0     H69109   4.874   3.827  10.802 -1.1041  0.9285 -0.2004
  512MOL0     H69110   5.068   4.058  10.871  0.8551  0.6946  0.1174
  512MOL0     H69111   5.123   3.894  10.829  0.0508  1.0053  0.5628
  512MOL0     H69112   5.023   3.798  11.028  1.8888 -0.3194  0.9279
  512MOL0     H69113   4.968   3.958  11.076 -1.1066  0.6017 -1.3817
  512MOL0     H69114   5.210   3.853  11.170  3.2564 -1.7728 -1.2162
  512MOL0     H69115   5.273   3.875  11.010 -1.3518 -1.8206 -0.8724
  512MOL0     H69116   5.277   4.271  11.143 -0.8583  0.5110  0.0577
  512MOL0     H69117   4.579   4.057  10.998 -1.1324  3.1022 -0.8068
  512MOL0     H69118   4.347   4.016  11.031  1.1679  2.3953  2.3927
  512MOL0     H69119   4.334   4.176  10.944 -0.3309 -0.7945 -0.5930
  512MOL0     H69120   4.232   4.039  10.903 -0.7517  0.7584  0.1993
  513MOL0     O69121   9.094   4.419   9.209  0.3508 -0.3926  0.6391
  513MOL0     C69122   9.020   4.363   9.289 -0.0745 -0.5819 -0.7682
  513MOL0     O69123   9.037   4.233   9.336  0.2069 -0.4493  0.0386
  513MOL0     C69124   9.148   4.160   9.281 -0.4102  0.2265 -0.0173
  513MOL0     C69125   9.115   4.031   9.238 -0.7407 -0.3939 -0.1334
  513MOL0     C69126   9.201   3.954   9.168 -0.5012 -0.5975 -0.1482
  513MOL0     C69127   9.335   4.001   9.144 -0.3055 -0.0510 -0.7625
  513MOL0     O69128   9.438   3.933   9.078 -0.8205 -0.4254 -0.4848
  513MOL0     C69129   9.398   3.818   9.012  0.4769  0.0563  0.1573
  513MOL0     C69130   9.520   3.739   8.965 -0.3415 -0.7056  0.0852
  513MOL0     C69131   9.490   3.593   8.939  0.2051 -0.1435 -0.1170
  513MOL0     C69132   9.578   3.553   8.821  0.2638 -0.3827 -0.4367
  513MOL0     C69133   9.523   3.435   8.743  0.4139  0.4820  0.5298
  513MOL0     C69134   9.623   3.380   8.630  0.7405 -0.0311 -0.9752
  513MOL0     C69135   9.563   3.269   8.538  0.3977  0.4949 -0.4213
  513MOL0     C69136   9.467   3.332   8.431  0.0125 -0.4012  0.6999
  513MOL0     N69137   9.364   3.243   8.381  0.1078 -0.2041  1.1226
  513MOL0     C69138   9.241   3.272   8.334 -0.6632 -0.0667  0.1446
  513MOL0     C69139   9.192   3.155   8.291  0.1055 -0.4574  0.4459
  513MOL0     C69140   9.069   3.127   8.201 -0.2835  0.6012  0.1603
  513MOL0     C69141   9.100   3.031   8.076  0.0785  0.4273  0.0430
  513MOL0     C69142   8.975   2.951   8.030  0.2092 -0.3341  0.3538
  513MOL0     C69143   8.862   3.041   7.966  0.9549  0.0093 -1.0957
  513MOL0     O69144   8.912   3.136   7.866  0.3274  0.3959 -0.0530
  513MOL0     C69145   8.845   3.192   7.764 -0.2365 -0.6440 -0.4920
  513MOL0     C69146   8.889   3.318   7.724  0.4032  0.5606 -0.0175
  513MOL0     C69147   8.812   3.392   7.626 -0.8883  0.2271 -0.8353
  513MOL0     C69148   8.711   3.333   7.569  0.6183 -1.5072  0.5958
  513MOL0     C69149   8.624   3.412   7.466 -1.0507 -0.2595  0.1198
  513MOL0     O69150   8.500   3.356   7.431  0.0512 -0.1196 -0.1130
  513MOL0     C69151   8.433   3.429   7.335 -0.7588  0.0135  0.0059
  513MOL0     C69152   8.312   3.494   7.371 -0.1895  0.7788 -0.5374
  513MOL0     C69153   8.229   3.554   7.276 -1.4006 -0.0197 -0.1836
  513MOL0     C69154   8.270   3.561   7.139 -0.7935  0.5522  0.0035
  513MOL0     O69155   8.189   3.627   7.046 -0.3056  0.8951 -0.2397
  513MOL0     C69156   8.219   3.623   6.907  0.8974  0.2550 -0.9954
  513MOL0     C69157   8.122   3.727   6.837 -0.1451  0.1458  0.5948
  513MOL0     C69158   7.978   3.667   6.841  0.0397  0.1010 -0.3143
  513MOL0     C69159   7.888   3.747   6.751  0.6126 -0.2530 -0.0115
  513MOL0     C69160   7.742   3.707   6.767  0.4115 -0.1065 -0.3047
  513MOL0     C69161   7.641   3.811   6.718 -0.1856  0.1069 -1.1024
  513MOL0     C69162   7.637   3.937   6.802  0.3138  0.3167 -0.2698
  513MOL0     C69163   7.537   4.032   6.739  0.2578 -0.7458 -0.0268
  513MOL0    Cl69164   7.597   4.081   6.578  0.4089 -0.1931  0.5673
  513MOL0     C69165   8.398   3.500   7.107 -0.2866 -0.1603  0.5176
  513MOL0     C69166   8.478   3.434   7.198  0.1346 -0.2793  0.0558
  513MOL0     O69167   8.663   3.523   7.428  0.8854 -0.0780  0.7381
  513MOL0     C69168   8.676   3.199   7.598  0.3055  0.2405  0.0797
  513MOL0     C69169   8.730   3.133   7.710 -0.5738 -0.2887 -0.7417
  513MOL0     N69170   9.287   3.061   8.313  0.1096  0.8773  0.7350
  513MOL0     N69171   9.389   3.108   8.370  0.3852  0.0869 -0.6081
  513MOL0     C69172   9.374   4.126   9.188 -0.7272  0.4937 -0.3477
  513MOL0     C69173   9.277   4.201   9.256 -0.2565 -0.2360 -0.0409
  513MOL0     C69174   8.890   4.437   9.323 -0.2698 -0.5650  0.1421
  513MOL0     C69175   8.774   4.359   9.357 -1.3934 -0.5395  0.1080
  513MOL0     C69176   8.650   4.418   9.387  0.0797  0.4040  0.3042
  513MOL0     C69177   8.630   4.558   9.377  0.6199  0.4813 -0.1954
  513MOL0     O69178   8.516   4.625   9.401 -0.2456  0.0059  0.0724
  513MOL0     C69179   8.397   4.566   9.455 -0.5237  0.5224  0.3788
  513MOL0     C69180   8.311   4.513   9.340 -0.4583  0.4059 -0.4148
  513MOL0     C69181   8.174   4.463   9.387  0.4222 -0.1626  0.3774
  513MOL0     C69182   8.129   4.340   9.305  0.0240 -0.2749 -0.4132
  513MOL0     C69183   8.028   4.361   9.209  0.6014  0.2971 -0.2756
  513MOL0     C69184   7.958   4.372   9.111 -0.7456 -0.3209  0.1631
  513MOL0     C69185   8.733   4.635   9.327  0.0152  0.5386  0.4690
  513MOL0     C69186   8.860   4.574   9.300 -0.3806 -0.2591  0.5101
  513MOL0     C69187   8.955   4.678   9.255 -0.1460  0.1512  0.1356
  513MOL0     H69188   9.016   3.996   9.262 -0.3412 -1.0679  0.5775
  513MOL0     H69189   9.163   3.858   9.134  2.2932 -1.6975 -0.3964
  513MOL0     H69190   9.347   3.750   9.080  2.8573 -5.2064 -2.7164
  513MOL0     H69191   9.328   3.837   8.930  1.7385 -1.1162 -1.2635
  513MOL0     H69192   9.606   3.745   9.033  2.5297 -2.6486 -3.0399
  513MOL0     H69193   9.539   3.792   8.871 -0.8191  2.0459  1.4410
  513MOL0     H69194   9.381   3.583   8.932  0.2494  0.2741 -1.7217
  513MOL0     H69195   9.522   3.529   9.022 -0.0987 -2.3679 -1.6432
  513MOL0     H69196   9.574   3.631   8.745  3.9459  0.6672  0.2262
  513MOL0     H69197   9.682   3.533   8.849 -0.5131  0.0171  3.1799
  513MOL0     H69198   9.510   3.352   8.813 -0.2567 -0.7960 -1.0490
  513MOL0     H69199   9.425   3.450   8.699  0.2659 -2.4062 -0.3268
  513MOL0     H69200   9.655   3.461   8.563 -0.4605  1.7188  0.4827
  513MOL0     H69201   9.713   3.337   8.674  1.3932  2.0514 -0.1780
  513MOL0     H69202   9.514   3.198   8.605  0.0242  1.0634 -0.0785
  513MOL0     H69203   9.629   3.208   8.475 -1.6492  2.0345 -4.4800
  513MOL0     H69204   9.416   3.415   8.481  1.5878  0.7441  0.5020
  513MOL0     H69205   9.535   3.380   8.359  2.8452 -0.4768  3.1350
  513MOL0     H69206   9.190   3.366   8.315  0.7152  0.2626 -2.4434
  513MOL0     H69207   8.993   3.076   8.261  2.4349 -5.5588 -0.8605
  513MOL0     H69208   9.029   3.221   8.161  1.8918  1.1342 -0.9245
  513MOL0     H69209   9.134   3.097   7.996 -3.4367  3.4084  0.7345
  513MOL0     H69210   9.184   2.967   8.103 -0.8426 -1.4038 -1.1830
  513MOL0     H69211   8.941   2.892   8.115  1.5508 -2.3145 -0.3842
  513MOL0     H69212   9.009   2.879   7.954  0.3588  2.0257 -1.9798
  513MOL0     H69213   8.818   3.096   8.050 -0.8017 -3.0119  0.1255
  513MOL0     H69214   8.778   2.983   7.927  1.4374 -1.1372 -0.4961
  513MOL0     H69215   8.984   3.351   7.765 -0.5590  2.4279  0.8147
  513MOL0     H69216   8.851   3.483   7.582  3.8751 -2.3805 -2.7570
  513MOL0     H69217   8.278   3.485   7.474 -0.0472 -3.7349 -0.7024
  513MOL0     H69218   8.130   3.591   7.301  0.3082  4.2442  1.2728
  513MOL0     H69219   8.323   3.637   6.877 -0.2352  0.6197 -5.4433
  513MOL0     H69220   8.195   3.520   6.881  0.0772 -0.7122  2.8992
  513MOL0     H69221   8.123   3.822   6.891 -2.0779 -0.5956  2.0525
  513MOL0     H69222   8.146   3.753   6.733 -1.6781 -2.0124 -0.3820
  513MOL0     H69223   7.985   3.564   6.806 -0.0429 -0.8837  2.3473
  513MOL0     H69224   7.930   3.670   6.939  0.4056  1.2615 -0.1537
  513MOL0     H69225   7.923   3.715   6.652  0.9239 -1.8159  0.5719
  513MOL0     H69226   7.905   3.854   6.765  1.0374  0.1236 -2.8435
  513MOL0     H69227   7.714   3.689   6.871  1.4369 -0.4924 -0.0812
  513MOL0     H69228   7.723   3.609   6.722  1.1984 -1.0798  1.4078
  513MOL0     H69229   7.679   3.846   6.622 -1.0322  1.9668 -0.8074
  513MOL0     H69230   7.542   3.765   6.717  0.9452 -2.5762 -0.4151
  513MOL0     H69231   7.730   3.990   6.827  0.9447 -1.7054  2.0941
  513MOL0     H69232   7.598   3.910   6.901 -0.2269 -0.6153 -0.7264
  513MOL0     H69233   7.444   3.984   6.708  0.7606 -1.4789 -0.4207
  513MOL0     H69234   7.512   4.118   6.802  0.1125 -0.9848  0.2478
  513MOL0     H69235   8.442   3.503   7.008 -1.0512 -0.3951  0.1651
  513MOL0     H69236   8.577   3.393   7.180  0.1064 -0.0678 -0.5992
  513MOL0     H69237   8.588   3.167   7.543 -0.2545  1.1759  0.4082
  513MOL0     H69238   8.707   3.034   7.748 -0.5659  1.1551  3.6382
  513MOL0     H69239   9.473   4.155   9.155  1.1721 -3.1338  1.5735
  513MOL0     H69240   9.296   4.304   9.285 -2.8783  0.0246  0.9774
  513MOL0     H69241   8.795   4.253   9.354  0.1970 -0.3099  1.8458
  513MOL0     H69242   8.566   4.358   9.419  1.1895  0.2490  3.1945
  513MOL0     H69243   8.341   4.642   9.511 -0.2267  3.7565 -3.2720
  513MOL0     H69244   8.430   4.491   9.528 -1.5327 -1.2254 -0.8648
  513MOL0     H69245   8.365   4.434   9.287  1.9275 -1.2167  3.9181
  513MOL0     H69246   8.297   4.595   9.269  0.9681  0.2435 -0.9242
  513MOL0     H69247   8.092   4.536   9.390 -0.5169 -1.2053  1.0034
  513MOL0     H69248   8.178   4.441   9.494  0.3456  3.6000  1.2782
  513MOL0     H69249   8.218   4.302   9.254  0.6163 -1.6738  1.5330
  513MOL0     H69250   8.103   4.257   9.372 -0.1621  2.0772  2.6101
  513MOL0     H69251   7.896   4.385   9.024 -1.2719  0.2523  0.6102
  513MOL0     H69252   8.718   4.741   9.312 -1.1276  0.0381 -2.4557
  513MOL0     H69253   9.044   4.664   9.317  1.5839 -0.0318 -2.2311
  513MOL0     H69254   8.968   4.670   9.147  1.0058  1.3091  0.1579
  513MOL0     H69255   8.921   4.778   9.283  0.9257  1.1442 -1.8436
  514MOL0     O69256   8.364   3.552  11.154  0.0455  0.0783 -0.7867
  514MOL0     C69257   8.351   3.667  11.118 -0.7721  0.0267 -0.3928
  514MOL0     O69258   8.440   3.767  11.140  0.0870  0.8176  1.0900
  514MOL0     C69259   8.571   3.740  11.172  0.7345  0.1022  0.4842
  514MOL0     C69260   8.602   3.698  11.304  1.3121  0.2154  0.7605
  514MOL0     C69261   8.730   3.675  11.344 -0.7509  0.4094  0.5047
  514MOL0     C69262   8.838   3.680  11.256  0.4795 -1.1590  0.4439
  514MOL0     O69263   8.965   3.624  11.279  0.2759  0.5473 -0.4008
  514MOL0     C69264   8.982   3.551  11.397  0.4891  0.4269  0.1365
  514MOL0     C69265   9.102   3.456  11.391  0.0780 -0.0309  0.5044
  514MOL0     C69266   9.232   3.534  11.418  0.1738  0.8627  0.2205
  514MOL0     C69267   9.252   3.554  11.572  0.1539 -0.1347  0.3641
  514MOL0     C69268   9.397   3.584  11.609  0.3711  0.2618  0.4609
  514MOL0     C69269   9.495   3.466  11.588  0.5476 -0.6941 -0.3544
  514MOL0     C69270   9.632   3.502  11.653  0.0879  0.0488  0.2880
  514MOL0     C69271   9.742   3.403  11.625  0.0350 -0.3752  1.3354
  514MOL0     N69272   9.878   3.441  11.679  0.8796 -0.2072 -0.5343
  514MOL0     C69273   9.957   3.539  11.621 -0.0866  0.1545  0.2809
  514MOL0     C69274  10.062   3.545  11.705 -0.9418 -0.2325 -0.5619
  514MOL0     C69275  10.185   3.639  11.706 -0.2252 -0.7716 -0.1142
  514MOL0     C69276  10.301   3.576  11.621  0.6640 -0.7934 -0.4292
  514MOL0     C69277  10.366   3.470  11.714  0.3592 -0.4536 -0.5957
  514MOL0     C69278  10.487   3.403  11.637  1.0392 -0.3158 -0.5689
  514MOL0     O69279  10.540   3.302  11.725  0.2216  0.0562 -0.1699
  514MOL0     C69280  10.626   3.214  11.672 -0.0184  0.2439 -0.0994
  514MOL0     C69281  10.706   3.243  11.556  0.9330 -0.1014  0.5633
  514MOL0     C69282  10.789   3.147  11.505 -0.7178 -0.8598  0.4545
  514MOL0     C69283  10.794   3.020  11.564 -0.5453 -0.1225  0.4364
  514MOL0     C69284  10.881   2.913  11.511  0.0333  1.0856 -0.0721
  514MOL0     O69285  10.970   2.945  11.417 -0.8052  0.2343 -0.0729
  514MOL0     C69286  11.086   2.868  11.415  0.8671  0.2342  0.5783
  514MOL0     C69287  11.205   2.934  11.438  0.1249  0.4760  0.6556
  514MOL0     C69288  11.326   2.863  11.432  0.4569  0.1222  0.1827
  514MOL0     C69289  11.324   2.729  11.419  0.3440  0.8079  0.4738
  514MOL0     O69290  11.444   2.662  11.444 -0.5239 -0.0077  0.0028
  514MOL0     C69291  11.496   2.605  11.321 -0.3396 -0.9738 -1.1600
  514MOL0     C69292  11.645   2.569  11.337  1.2084  0.7686  0.0871
  514MOL0     C69293  11.682   2.438  11.422 -0.0226  0.0481 -0.6613
  514MOL0     C69294  11.834   2.418  11.430 -0.1028 -0.2988  0.5431
  514MOL0     C69295  11.873   2.291  11.499  0.0592 -0.1550  0.6083
  514MOL0     C69296  12.018   2.282  11.554  0.5933  0.5861 -0.0964
  514MOL0     C69297  12.025   2.168  11.658 -0.0310  0.0381 -0.2127
  514MOL0     C69298  12.159   2.158  11.714 -0.5195 -0.0970 -0.8555
  514MOL0    Cl69299  12.158   2.016  11.822 -0.0238 -0.0280 -0.1926
  514MOL0     C69300  11.204   2.665  11.397  0.3322  1.0792 -0.0978
  514MOL0     C69301  11.081   2.731  11.388 -0.2890 -0.0451  0.6311
  514MOL0     O69302  10.872   2.804  11.569 -0.2978 -0.4427  0.3118
  514MOL0     C69303  10.730   2.999  11.690 -0.4005 -0.1051  0.0313
  514MOL0     C69304  10.649   3.102  11.741  0.4747  0.6904 -0.0501
  514MOL0     N69305  10.037   3.451  11.817 -0.3069 -0.0866 -0.0692
  514MOL0     N69306   9.927   3.389  11.796  0.5430  0.4117  0.9971
  514MOL0     C69307   8.809   3.726  11.121 -0.4319 -0.0085  0.4253
  514MOL0     C69308   8.677   3.760  11.082  0.0854 -0.6573  0.7715
  514MOL0     C69309   8.220   3.709  11.046  0.1155  0.4974  0.1235
  514MOL0     C69310   8.108   3.624  11.049 -0.4983 -0.2022 -1.1627
  514MOL0     C69311   7.986   3.652  10.987  0.0732 -0.5085 -0.0987
  514MOL0     C69312   7.967   3.772  10.918  0.8438  0.2446 -0.5091
  514MOL0     O69313   7.849   3.810  10.856 -0.0238 -0.5621  0.0244
  514MOL0     C69314   7.729   3.749  10.887  0.0859 -0.6928 -0.4473
  514MOL0     C69315   7.683   3.816  11.018 -0.0777  0.1420  0.6456
  514MOL0     C69316   7.554   3.896  10.995 -0.5366 -0.1690 -0.6922
  514MOL0     C69317   7.417   3.828  11.010 -0.1412  0.0896  0.0906
  514MOL0     C69318   7.416   3.729  11.114 -0.0811 -0.5131 -0.3779
  514MOL0     C69319   7.394   3.642  11.201 -0.1397  0.3796 -0.1490
  514MOL0     C69320   8.080   3.853  10.915  0.4871 -0.3987 -0.4813
  514MOL0     C69321   8.202   3.829  10.969  0.9235  0.4538 -0.0320
  514MOL0     C69322   8.307   3.937  10.949 -0.4798  0.2207  0.6132
  514MOL0     H69323   8.517   3.680  11.370 -0.7079 -0.7015 -1.9205
  514MOL0     H69324   8.746   3.638  11.444  2.7633  2.5304  0.8739
  514MOL0     H69325   8.983   3.631  11.471  0.2155  1.8346 -1.3086
  514MOL0     H69326   8.897   3.485  11.416  0.8732 -0.0458  0.2356
  514MOL0     H69327   9.105   3.412  11.291 -2.7618  0.4645  0.1323
  514MOL0     H69328   9.090   3.370  11.459  0.2742  1.1036  2.0244
  514MOL0     H69329   9.225   3.626  11.360 -2.3065 -0.1241 -1.1669
  514MOL0     H69330   9.311   3.471  11.377 -0.1967  1.0718 -0.8263
  514MOL0     H69331   9.181   3.633  11.595  0.4803 -0.0196  0.9935
  514MOL0     H69332   9.229   3.474  11.642 -5.4930  1.9456  1.4162
  514MOL0     H69333   9.421   3.675  11.552  0.2712  0.2015  0.3232
  514MOL0     H69334   9.390   3.600  11.717 -1.8693  3.4383 -0.0190
  514MOL0     H69335   9.456   3.370  11.622  1.4234 -1.7533 -2.1533
  514MOL0     H69336   9.512   3.465  11.480  2.1535  0.1594 -0.1353
  514MOL0     H69337   9.622   3.513  11.761 -0.0314  1.7173  0.1319
  514MOL0     H69338   9.663   3.598  11.610 -2.2779  1.0415  0.6626
  514MOL0     H69339   9.728   3.307  11.677  1.3535 -2.1890 -1.4410
  514MOL0     H69340   9.747   3.372  11.521  2.7378 -1.2146  1.6188
  514MOL0     H69341   9.930   3.600  11.535 -1.4872  0.6110  0.9971
  514MOL0     H69342  10.154   3.734  11.660  2.0181 -0.5350 -1.3023
  514MOL0     H69343  10.227   3.659  11.805  1.2806  1.2121 -1.0706
  514MOL0     H69344  10.261   3.539  11.526 -0.7188  2.2840 -1.1629
  514MOL0     H69345  10.384   3.643  11.598 -1.0281  0.6300 -2.9006
  514MOL0     H69346  10.298   3.386  11.732  0.1909 -0.5261 -1.5485
  514MOL0     H69347  10.411   3.509  11.806  1.0485 -0.3957 -0.9474
  514MOL0     H69348  10.560   3.483  11.626  0.7449 -0.1014 -1.0078
  514MOL0     H69349  10.457   3.351  11.545  1.4566 -5.1301  1.7010
  514MOL0     H69350  10.695   3.335  11.500  1.5621 -0.3107  0.0949
  514MOL0     H69351  10.844   3.180  11.417 -1.0774  3.1427  1.5345
  514MOL0     H69352  11.187   3.038  11.463 -0.2671  0.8476 -1.0742
  514MOL0     H69353  11.417   2.922  11.440  1.0053  0.0379 -3.5627
  514MOL0     H69354  11.451   2.515  11.279  1.2474 -2.3779  0.0299
  514MOL0     H69355  11.507   2.677  11.239  0.5228 -2.0330 -2.0049
  514MOL0     H69356  11.683   2.548  11.237 -0.4460  1.4204 -0.7165
  514MOL0     H69357  11.697   2.653  11.385  0.5664  0.4585  1.3528
  514MOL0     H69358  11.626   2.435  11.516 -0.8239  0.9350 -1.0925
  514MOL0     H69359  11.636   2.363  11.356 -0.8472  2.3532 -2.8820
  514MOL0     H69360  11.881   2.505  11.475  2.7972 -0.3863 -1.9179
  514MOL0     H69361  11.872   2.417  11.327  3.9424 -0.9310  1.8542
  514MOL0     H69362  11.847   2.213  11.428  0.2464  1.0232 -0.7996
  514MOL0     H69363  11.799   2.269  11.576 -0.4252  2.5229  1.0162
  514MOL0     H69364  12.087   2.261  11.472 -0.1729 -2.5567 -0.0677
  514MOL0     H69365  12.050   2.367  11.616  1.2949 -2.8229  4.7216
  514MOL0     H69366  12.002   2.072  11.611  0.5220  0.4829 -1.4299
  514MOL0     H69367  11.951   2.200  11.732 -1.0783 -2.2673 -0.1939
  514MOL0     H69368  12.234   2.131  11.638  0.6837  1.9750 -0.4666
  514MOL0     H69369  12.192   2.250  11.763 -1.6172 -0.3157  0.3454
  514MOL0     H69370  11.217   2.557  11.388 -0.3815  0.8513  1.3215
  514MOL0     H69371  10.991   2.680  11.354 -0.5852  0.7436  0.2002
  514MOL0     H69372  10.745   2.908  11.747  1.5220  1.3777  2.0552
  514MOL0     H69373  10.591   3.073  11.828  1.5230 -0.8015  0.1746
  514MOL0     H69374   8.891   3.713  11.051 -0.7532 -3.4007  0.5287
  514MOL0     H69375   8.655   3.783  10.978  2.7734  0.9414  0.4652
  514MOL0     H69376   8.125   3.534  11.107  1.2030  1.6456  1.4906
  514MOL0     H69377   7.905   3.579  10.992 -1.1483  0.7170 -1.0970
  514MOL0     H69378   7.730   3.640  10.889  0.0996 -0.7013 -0.8602
  514MOL0     H69379   7.675   3.770  10.794  0.2623 -0.4099 -0.4878
  514MOL0     H69380   7.767   3.880  11.047  0.4342 -1.0152  1.7854
  514MOL0     H69381   7.665   3.737  11.090 -0.3326  0.9606  1.4955
  514MOL0     H69382   7.555   3.942  10.896 -1.8353  0.3819 -0.4736
  514MOL0     H69383   7.553   3.984  11.060 -1.5512 -1.9790  1.9122
  514MOL0     H69384   7.335   3.900  11.014  0.3984  0.8297 -1.5426
  514MOL0     H69385   7.397   3.771  10.919  2.7180  1.5834 -1.6076
  514MOL0     H69386   7.390   3.563  11.273 -0.3615  0.9840  0.5153
  514MOL0     H69387   8.066   3.949  10.866  1.3986 -0.3124 -0.5874
  514MOL0     H69388   8.271   4.017  10.885  0.5031 -0.0559 -0.3047
  514MOL0     H69389   8.337   3.976  11.047  5.2606  0.0026 -0.7142
  514MOL0     H69390   8.396   3.890  10.906  0.6766  0.7215  2.3540
  515MOL0     O69391   9.698   9.556   5.193  0.2242  0.5840  0.4257
  515MOL0     C69392   9.695   9.504   5.304  0.7332  0.4684 -0.0182
  515MOL0     O69393   9.798   9.438   5.369  0.2353 -0.1359  0.8358
  515MOL0     C69394   9.931   9.461   5.330 -0.5607 -0.3534  0.0707
  515MOL0     C69395   9.979   9.577   5.262 -0.0908 -0.0571 -0.0587
  515MOL0     C69396  10.112   9.588   5.242 -0.3793  0.7604 -0.2720
  515MOL0     C69397  10.202   9.495   5.283 -0.5566  0.1260 -0.6116
  515MOL0     O69398  10.339   9.499   5.278 -0.4335  0.3077  0.0927
  515MOL0     C69399  10.399   9.624   5.299 -0.3423 -0.3552 -0.3481
  515MOL0     C69400  10.550   9.610   5.294  0.1592 -1.8250  0.4467
  515MOL0     C69401  10.604   9.540   5.425  0.4236  0.0605 -0.2922
  515MOL0     C69402  10.743   9.607   5.472 -0.0740 -0.0932 -0.3234
  515MOL0     C69403  10.807   9.501   5.559  0.5287 -0.3194 -0.3422
  515MOL0     C69404  10.939   9.546   5.623  0.1969  0.5774 -0.7067
  515MOL0     C69405  10.917   9.652   5.733 -0.6033  0.9591  0.5536
  515MOL0     C69406  11.033   9.650   5.836  0.0081 -0.5850 -0.0385
  515MOL0     N69407  11.039   9.522   5.918  0.2496 -0.2354 -0.8342
  515MOL0     C69408  10.932   9.452   5.978  0.2929 -0.2629  0.7290
  515MOL0     C69409  10.981   9.330   6.001  0.4097 -0.1223  0.4637
  515MOL0     C69410  10.897   9.214   6.046 -0.5518 -0.3915  0.4144
  515MOL0     C69411  10.824   9.246   6.186  0.4041 -0.2661  0.2076
  515MOL0     C69412  10.756   9.118   6.247  0.0241  0.1004 -0.1463
  515MOL0     C69413  10.862   9.004   6.292  0.5164  0.3877  0.3787
  515MOL0     O69414  10.964   9.061   6.375  0.5387  0.8670  0.4627
  515MOL0     C69415  11.091   9.004   6.371  0.1272 -0.3732 -0.8150
  515MOL0     C69416  11.119   8.863   6.351  0.1112  0.5318 -0.4756
  515MOL0     C69417  11.250   8.811   6.358 -0.2432  0.2900  0.4688
  515MOL0     C69418  11.358   8.895   6.372 -0.3177 -0.1672  0.3128
  515MOL0     C69419  11.500   8.843   6.381 -0.5154  0.3230 -0.2110
  515MOL0     O69420  11.600   8.929   6.417  0.0578 -0.4722  0.5149
  515MOL0     C69421  11.723   8.882   6.420  0.0797  0.7098  0.1628
  515MOL0     C69422  11.819   8.918   6.317  0.5833 -0.9717  0.0501
  515MOL0     C69423  11.951   8.885   6.329 -0.1852 -0.2158  0.3128
  515MOL0     C69424  11.995   8.815   6.443  0.3601  0.1343 -0.2988
  515MOL0     O69425  12.124   8.777   6.475 -0.7209  0.1429 -0.0036
  515MOL0     C69426  12.218   8.791   6.379 -1.0780  0.2439  0.4837
  515MOL0     C69427  12.357   8.742   6.431  0.0847  1.3066 -0.1919
  515MOL0     C69428  12.385   8.777   6.581 -0.4014 -0.6576  0.1369
  515MOL0     C69429  12.495   8.680   6.636 -0.3224  0.0138 -0.7924
  515MOL0     C69430  12.431   8.566   6.715 -0.3477  0.4886 -0.3440
  515MOL0     C69431  12.331   8.591   6.825  0.0072 -0.3032  0.4228
  515MOL0     C69432  12.392   8.677   6.937 -0.9590 -0.0316 -0.5544
  515MOL0     C69433  12.280   8.708   7.038 -0.3236  0.1921  0.2029
  515MOL0    Cl69434  12.338   8.843   7.139  0.0685  0.0285  0.1181
  515MOL0     C69435  11.900   8.773   6.540  0.3256 -0.3389 -0.1764
  515MOL0     C69436  11.773   8.813   6.530  0.6940 -0.5309  1.0143
  515MOL0     O69437  11.521   8.723   6.353 -0.3331 -0.6209  0.5589
  515MOL0     C69438  11.329   9.037   6.374  0.2505 -0.3060  0.4343
  515MOL0     C69439  11.202   9.092   6.381  0.5404  0.0738 -0.0085
  515MOL0     N69440  11.111   9.317   5.961  0.2942  0.5459  0.7819
  515MOL0     N69441  11.144   9.437   5.911  0.6229  0.9350 -0.2452
  515MOL0     C69442  10.158   9.378   5.343  0.1332  0.6646 -0.2850
  515MOL0     C69443  10.022   9.368   5.378 -0.6757  0.9999 -0.2154
  515MOL0     C69444   9.561   9.498   5.367 -0.5608  0.0291  0.5242
  515MOL0     C69445   9.458   9.590   5.323 -0.2753  0.0045 -0.2998
  515MOL0     C69446   9.333   9.586   5.382 -0.5173 -0.5112 -0.0459
  515MOL0     C69447   9.294   9.508   5.491 -0.0480  0.0310  0.4345
  515MOL0     O69448   9.164   9.503   5.524  0.8197  0.0311 -0.0004
  515MOL0     C69449   9.118   9.411   5.631 -0.0698  0.5828  0.3225
  515MOL0     C69450   8.966   9.416   5.616  0.6410  0.2353 -0.2351
  515MOL0     C69451   8.894   9.363   5.493  0.6584  0.5955 -0.3463
  515MOL0     C69452   8.745   9.344   5.488  0.2026  0.2458 -0.0731
  515MOL0     C69453   8.679   9.474   5.491 -0.8500 -0.5929 -1.3085
  515MOL0     C69454   8.624   9.584   5.471  0.0473 -0.0443 -0.2541
  515MOL0     C69455   9.395   9.418   5.527  0.1816  0.1823 -0.1380
  515MOL0     C69456   9.522   9.406   5.472 -1.4785 -1.0181 -0.0759
  515MOL0     C69457   9.618   9.307   5.534 -0.1055  0.4086  0.2933
  515MOL0     H69458   9.919   9.656   5.217 -1.4775  0.5002  2.5944
  515MOL0     H69459  10.141   9.678   5.188 -2.3653  2.0401  0.6635
  515MOL0     H69460  10.363   9.684   5.214 -2.2106  0.9943  1.2885
  515MOL0     H69461  10.376   9.674   5.394 -0.6974 -1.8657  0.3915
  515MOL0     H69462  10.599   9.707   5.284 -0.5905 -1.6954 -3.4862
  515MOL0     H69463  10.580   9.546   5.210  0.6107 -0.7147 -0.2491
  515MOL0     H69464  10.618   9.432   5.409 -2.6711 -0.2801 -1.2266
  515MOL0     H69465  10.525   9.542   5.500  0.9104  1.7369  0.2247
  515MOL0     H69466  10.808   9.621   5.385 -0.1049 -1.5410 -0.6120
  515MOL0     H69467  10.716   9.700   5.522  1.0210  0.1555 -0.1789
  515MOL0     H69468  10.743   9.460   5.637 -1.7855 -2.4310 -3.1351
  515MOL0     H69469  10.822   9.419   5.489  2.0861  0.7222 -1.2927
  515MOL0     H69470  10.986   9.458   5.669 -2.2877  0.5461  2.0977
  515MOL0     H69471  11.005   9.589   5.547  0.7201 -0.4960 -0.8749
  515MOL0     H69472  10.830   9.625   5.793  1.4175 -1.3742  2.6289
  515MOL0     H69473  10.908   9.748   5.681 -2.0827  0.6530  0.1974
  515MOL0     H69474  11.128   9.680   5.791  0.6013 -0.1368  1.4551
  515MOL0     H69475  11.016   9.735   5.902 -2.8259  0.4478 -1.9260
  515MOL0     H69476  10.830   9.481   5.998  0.4606  0.7213  0.1814
  515MOL0     H69477  10.835   9.184   5.961  1.8426 -1.8633 -0.9311
  515MOL0     H69478  10.970   9.134   6.062 -0.7962 -0.3830  1.6515
  515MOL0     H69479  10.893   9.288   6.260 -1.5210  0.2827  1.7745
  515MOL0     H69480  10.754   9.325   6.158  3.0020  1.3374 -2.4378
  515MOL0     H69481  10.687   9.079   6.171  3.4155  0.9746 -4.0482
  515MOL0     H69482  10.711   9.156   6.339  2.6336  0.0825  1.2436
  515MOL0     H69483  10.903   8.953   6.204 -2.1045 -1.4347  0.0893
  515MOL0     H69484  10.810   8.924   6.347  0.0429 -0.2643 -0.9703
  515MOL0     H69485  11.041   8.788   6.343 -2.1537  2.5527  1.0799
  515MOL0     H69486  11.278   8.707   6.343  2.6049  1.0151  0.1176
  515MOL0     H69487  11.780   8.988   6.243  0.9174 -1.2735 -0.4193
  515MOL0     H69488  12.019   8.925   6.255  0.5949 -0.3337  0.9438
  515MOL0     H69489  12.197   8.728   6.292  3.0951 -0.0027 -0.5910
  515MOL0     H69490  12.217   8.896   6.349 -0.4407  0.5607  1.5304
  515MOL0     H69491  12.367   8.634   6.417  0.7728  1.3649 -0.2152
  515MOL0     H69492  12.444   8.785   6.379  1.7438  1.7439  2.7474
  515MOL0     H69493  12.431   8.876   6.585 -0.9889 -0.3621 -0.4344
  515MOL0     H69494  12.302   8.787   6.651  0.7869 -1.0197  1.6645
  515MOL0     H69495  12.570   8.731   6.698  1.4859  0.0212 -2.8687
  515MOL0     H69496  12.566   8.656   6.557 -0.2225 -0.5562 -0.5315
  515MOL0     H69497  12.515   8.509   6.755 -1.1379 -0.9844 -0.7159
  515MOL0     H69498  12.372   8.507   6.644 -0.5762 -0.3700  0.5521
  515MOL0     H69499  12.241   8.640   6.789 -0.9742 -2.0576  0.3430
  515MOL0     H69500  12.295   8.497   6.868  1.4144 -0.4420  1.3651
  515MOL0     H69501  12.425   8.770   6.890 -2.4296 -0.6497 -2.9983
  515MOL0     H69502  12.484   8.637   6.981 -1.3213 -0.9014 -0.5770
  515MOL0     H69503  12.180   8.722   6.996 -2.3852 -3.6121  3.1946
  515MOL0     H69504  12.264   8.613   7.089  0.0573 -0.5418 -1.0254
  515MOL0     H69505  11.955   8.717   6.616  0.6425 -1.0651 -0.9197
  515MOL0     H69506  11.708   8.782   6.611  2.3604 -0.3590  2.4649
  515MOL0     H69507  11.406   9.114   6.366  1.1231 -1.2049  0.0415
  515MOL0     H69508  11.182   9.198   6.387 -0.1162  0.1793 -2.7991
  515MOL0     H69509  10.229   9.298   5.362  0.2777  0.6160 -0.9984
  515MOL0     H69510   9.987   9.282   5.434  0.8027  0.5784  0.1103
  515MOL0     H69511   9.466   9.654   5.235 -3.2749  0.7944 -0.1366
  515MOL0     H69512   9.257   9.662   5.365 -0.2547 -0.3386 -0.4732
  515MOL0     H69513   9.138   9.432   5.737 -2.0721  1.5931  0.5515
  515MOL0     H69514   9.155   9.310   5.611 -1.2381  0.1384  0.2886
  515MOL0     H69515   8.929   9.517   5.631 -0.2061 -0.1256  0.1954
  515MOL0     H69516   8.916   9.368   5.701 -0.4733  2.5466  0.4847
  515MOL0     H69517   8.953   9.273   5.471  0.9668  0.2327  1.7024
  515MOL0     H69518   8.909   9.434   5.411  0.5404  2.2892  1.0345
  515MOL0     H69519   8.711   9.288   5.401 -1.5014 -0.9569  1.2940
  515MOL0     H69520   8.705   9.292   5.575 -0.9375 -1.5108 -1.5861
  515MOL0     H69521   8.594   9.682   5.439  1.1221  0.2072 -0.5352
  515MOL0     H69522   9.373   9.347   5.606 -0.7532  2.4994  1.7742
  515MOL0     H69523   9.701   9.361   5.579  0.4153  2.5178 -2.9037
  515MOL0     H69524   9.570   9.258   5.620  0.1989 -0.2307  0.1098
  515MOL0     H69525   9.650   9.233   5.459  0.8570  1.7029 -0.6188
  516MOL0     O69526   9.865   6.784   2.246 -0.2441 -0.1743  0.1419
  516MOL0     C69527   9.846   6.898   2.295 -0.8559  0.0087 -0.1665
  516MOL0     O69528   9.939   6.995   2.293  0.6219  0.0555 -0.3326
  516MOL0     C69529  10.054   6.975   2.231  0.7710 -0.1257 -0.7137
  516MOL0     C69530  10.050   6.940   2.092  0.3853 -0.4061  0.0173
  516MOL0     C69531  10.173   6.929   2.022  0.5339 -0.0395  0.4018
  516MOL0     C69532  10.294   6.928   2.089 -0.3292 -0.8807  0.2235
  516MOL0     O69533  10.418   6.904   2.040  0.2633 -0.0890  0.3870
  516MOL0     C69534  10.420   6.804   1.939 -0.9502  0.8417  0.3378
  516MOL0     C69535  10.563   6.777   1.888 -0.5053 -0.0241 -0.2897
  516MOL0     C69536  10.666   6.716   1.985 -0.1730 -0.1238  0.2973
  516MOL0     C69537  10.804   6.722   1.916  0.3793  0.4323 -0.3253
  516MOL0     C69538  10.808   6.653   1.769 -0.0362 -0.2376 -0.0073
  516MOL0     C69539  10.949   6.655   1.704  0.3664 -0.3232  0.0738
  516MOL0     C69540  10.941   6.577   1.565  0.4836 -0.3251  0.3632
  516MOL0     C69541  11.064   6.608   1.473  0.6075 -0.3164 -0.9064
  516MOL0     N69542  11.185   6.581   1.541 -0.2696 -0.4628 -0.6999
  516MOL0     C69543  11.222   6.465   1.608 -0.0821 -0.0574  0.0893
  516MOL0     C69544  11.356   6.468   1.619 -0.5385  0.5435 -0.3197
  516MOL0     C69545  11.442   6.349   1.657 -0.4461  0.0505  0.9617
  516MOL0     C69546  11.452   6.241   1.552  0.5618 -0.6284  0.9918
  516MOL0     C69547  11.536   6.121   1.596  0.6645  0.2241 -0.2966
  516MOL0     C69548  11.668   6.169   1.658  0.0313  0.0376  0.0100
  516MOL0     O69549  11.761   6.061   1.679 -0.1602  0.3848  0.0467
  516MOL0     C69550  11.875   6.084   1.750 -0.5519  0.4618 -0.0118
  516MOL0     C69551  11.973   5.978   1.754  0.4395  0.2921  0.5353
  516MOL0     C69552  12.093   5.996   1.817 -0.4254  0.0607  0.2723
  516MOL0     C69553  12.127   6.125   1.874  0.4707  1.2333  0.3852
  516MOL0     C69554  12.254   6.144   1.930  0.0491 -0.2592  0.1174
  516MOL0     O69555  12.291   6.271   1.954  0.0888 -0.3712  0.0560
  516MOL0     C69556  12.410   6.285   2.019  0.1220  0.2335 -0.5274
  516MOL0     C69557  12.437   6.256   2.160 -0.4076 -0.8672 -0.2077
  516MOL0     C69558  12.564   6.297   2.210 -0.1328  0.6728  0.9128
  516MOL0     C69559  12.667   6.346   2.126 -0.7148 -0.5006 -0.9246
  516MOL0     O69560  12.790   6.375   2.190  1.1754 -0.7771  0.0556
  516MOL0     C69561  12.912   6.363   2.104  0.1731  0.0906 -0.3275
  516MOL0     C69562  13.038   6.347   2.189  0.5680  0.4289  0.0255
  516MOL0     C69563  13.150   6.296   2.104 -1.1710  0.1843  0.0222
  516MOL0     C69564  13.260   6.253   2.203 -0.7607 -0.7479  0.9924
  516MOL0     C69565  13.384   6.210   2.122 -0.6667  0.3801 -0.7408
  516MOL0     C69566  13.505   6.164   2.207  0.0189  1.0890 -0.2077
  516MOL0     C69567  13.550   6.260   2.318 -0.0136  0.3619 -0.3578
  516MOL0     C69568  13.685   6.228   2.384  0.7244  0.0054  0.8133
  516MOL0    Cl69569  13.661   6.063   2.460  0.1019  0.1584 -0.4031
  516MOL0     C69570  12.645   6.367   1.989  0.5720  0.1983  0.2559
  516MOL0     C69571  12.514   6.342   1.941  0.3608 -1.5658  0.2252
  516MOL0     O69572  12.324   6.046   1.959  0.3004 -0.1378  0.1331
  516MOL0     C69573  12.035   6.224   1.874 -0.7258  0.2542  0.2474
  516MOL0     C69574  11.912   6.208   1.817  0.2423  0.3850  0.3339
  516MOL0     N69575  11.403   6.585   1.564 -0.2593  1.1035  0.1163
  516MOL0     N69576  11.301   6.653   1.522  0.0882 -0.0502  0.5157
  516MOL0     C69577  10.294   6.952   2.228  0.5683 -0.8203 -0.4346
  516MOL0     C69578  10.175   6.972   2.301 -0.0625 -0.9773  0.3548
  516MOL0     C69579   9.730   6.921   2.387 -0.1173 -0.4580  0.1537
  516MOL0     C69580   9.751   6.998   2.502 -0.0099 -0.1941 -1.2643
  516MOL0     C69581   9.650   7.024   2.593 -0.0840 -1.0481 -1.1951
  516MOL0     C69582   9.524   6.972   2.584  0.4591  0.2092  0.1404
  516MOL0     O69583   9.427   7.010   2.668  0.1829  0.3712  0.3565
  516MOL0     C69584   9.326   6.918   2.710  0.3755  0.6881 -0.1685
  516MOL0     C69585   9.330   6.910   2.853  0.0540 -0.6058 -0.7136
  516MOL0     C69586   9.199   6.892   2.922  0.3937  0.9128  0.0019
  516MOL0     C69587   9.127   6.769   2.875  1.0882 -0.8957 -0.4062
  516MOL0     C69588   9.004   6.752   2.966  0.1638 -0.2001  0.3731
  516MOL0     C69589   8.913   6.756   3.047  0.2195 -0.1883  0.0084
  516MOL0     C69590   9.499   6.892   2.467 -0.0990  0.7036  0.3127
  516MOL0     C69591   9.599   6.865   2.376  0.1080 -0.8008  0.5178
  516MOL0     C69592   9.559   6.795   2.254 -0.1240 -0.5471  0.0235
  516MOL0     H69593   9.956   6.948   2.039  1.0351  0.4685 -1.0499
  516MOL0     H69594  10.172   6.923   1.914 -4.9352  1.7004  0.0492
  516MOL0     H69595  10.391   6.707   1.980  3.0065 -1.7534 -2.2427
  516MOL0     H69596  10.353   6.823   1.856 -0.3476 -1.1137 -0.6641
  516MOL0     H69597  10.608   6.872   1.861  0.9543 -0.3021  1.0020
  516MOL0     H69598  10.554   6.712   1.801 -0.1517 -3.9412  2.3309
  516MOL0     H69599  10.633   6.616   2.015 -1.3830  0.6589  1.6931
  516MOL0     H69600  10.679   6.786   2.068  0.1662  0.4229 -0.2077
  516MOL0     H69601  10.834   6.824   1.893  3.9912 -0.2522  0.7218
  516MOL0     H69602  10.875   6.663   1.975  0.2175  0.3009 -0.2618
  516MOL0     H69603  10.781   6.548   1.784 -0.5089  0.0084  0.9733
  516MOL0     H69604  10.741   6.693   1.692 -0.3281 -0.2939  0.2135
  516MOL0     H69605  10.975   6.760   1.690 -0.9199  0.3409  2.1523
  516MOL0     H69606  11.022   6.616   1.775 -1.6656 -0.4777  2.2039
  516MOL0     H69607  10.851   6.598   1.507 -0.4350  0.8012  2.1360
  516MOL0     H69608  10.946   6.469   1.584  5.3210 -0.3016  0.4740
  516MOL0     H69609  11.054   6.547   1.383 -2.0821  0.6761 -1.3715
  516MOL0     H69610  11.057   6.712   1.439 -1.2893 -0.3233 -0.6819
  516MOL0     H69611  11.166   6.376   1.633  1.2078 -0.6825  0.8205
  516MOL0     H69612  11.543   6.388   1.676 -0.5855  0.9242 -0.0614
  516MOL0     H69613  11.406   6.316   1.755  0.9523 -2.2799  0.7729
  516MOL0     H69614  11.349   6.206   1.535  0.8741 -0.0224 -3.1003
  516MOL0     H69615  11.491   6.280   1.458 -0.7939  2.0322  1.4558
  516MOL0     H69616  11.557   6.046   1.519 -2.3055 -2.2206  1.0876
  516MOL0     H69617  11.481   6.078   1.679 -0.4163  0.6345 -0.7768
  516MOL0     H69618  11.650   6.201   1.762  0.8620 -2.3068  0.9262
  516MOL0     H69619  11.708   6.253   1.601  0.0281  1.2830  1.7327
  516MOL0     H69620  11.953   5.882   1.708  0.7532  0.5786 -0.2117
  516MOL0     H69621  12.168   5.918   1.823 -1.6483 -1.1182  1.0129
  516MOL0     H69622  12.369   6.207   2.229 -0.9441 -2.2530 -1.6624
  516MOL0     H69623  12.597   6.279   2.312  0.7247 -3.1446  0.0973
  516MOL0     H69624  12.907   6.278   2.036 -0.6040 -1.0354  1.0761
  516MOL0     H69625  12.924   6.438   2.025  1.8173  0.0366 -0.1688
  516MOL0     H69626  13.062   6.440   2.243  2.9044 -1.4618  2.5402
  516MOL0     H69627  13.012   6.284   2.275  0.2107 -0.5393 -0.7697
  516MOL0     H69628  13.117   6.213   2.041  1.1280 -0.1592 -0.8126
  516MOL0     H69629  13.193   6.369   2.034  1.5644 -0.0897  1.3187
  516MOL0     H69630  13.228   6.169   2.265  0.2031 -1.1517  0.9515
  516MOL0     H69631  13.295   6.333   2.269  3.8580 -3.4973  2.2835
  516MOL0     H69632  13.420   6.289   2.055 -0.4882  1.9517  1.1154
  516MOL0     H69633  13.351   6.119   2.070  0.2371 -1.8631  2.2904
  516MOL0     H69634  13.488   6.064   2.245 -3.0661  1.0334 -1.4579
  516MOL0     H69635  13.580   6.146   2.129  0.3407 -1.1686  0.5656
  516MOL0     H69636  13.477   6.266   2.399  1.4413 -1.5032  1.1832
  516MOL0     H69637  13.563   6.360   2.274 -1.7644 -0.5124 -3.1076
  516MOL0     H69638  13.765   6.224   2.310 -0.2248 -0.6034 -0.1961
  516MOL0     H69639  13.706   6.307   2.457 -1.5125 -0.3186  1.8976
  516MOL0     H69640  12.724   6.407   1.926  0.4690  3.4657  2.0119
  516MOL0     H69641  12.491   6.364   1.837 -0.7591 -1.9332  0.3802
  516MOL0     H69642  12.049   6.324   1.914 -1.7038 -0.9745  4.1155
  516MOL0     H69643  11.838   6.287   1.821 -1.6685 -1.3010 -0.1195
  516MOL0     H69644  10.387   6.956   2.284 -0.5628  1.2779  1.4584
  516MOL0     H69645  10.182   6.998   2.406 -0.0111  1.0820 -0.1274
  516MOL0     H69646   9.851   7.038   2.517  0.5176 -2.0331  0.5034
  516MOL0     H69647   9.681   7.082   2.680 -3.6336  0.2911 -0.6605
  516MOL0     H69648   9.337   6.813   2.682 -2.1558  0.1723  0.4772
  516MOL0     H69649   9.232   6.948   2.662 -1.0632 -2.3741  0.4579
  516MOL0     H69650   9.382   6.998   2.892  0.4250 -0.1777 -2.1116
  516MOL0     H69651   9.393   6.822   2.870  1.2067  0.0105 -1.6933
  516MOL0     H69652   9.132   6.978   2.908 -1.9896 -0.5435  1.6613
  516MOL0     H69653   9.228   6.880   3.026 -0.2330 -1.9627 -0.0845
  516MOL0     H69654   9.093   6.772   2.771 -1.4628 -1.5406  0.3461
  516MOL0     H69655   9.182   6.675   2.884 -0.5128 -1.8701 -0.4750
  516MOL0     H69656   8.844   6.748   3.129  1.5400  2.0790  1.4735
  516MOL0     H69657   9.399   6.853   2.450 -1.1239  1.9886  2.8292
  516MOL0     H69658   9.461   6.749   2.269 -1.2349  1.2905 -1.1737
  516MOL0     H69659   9.554   6.863   2.169  0.0269 -0.9417 -0.3012
  516MOL0     H69660   9.626   6.716   2.219 -0.9588 -0.8466 -0.9181
  517MOL0     O69661   9.372   6.458   9.438  0.9810  0.0433  0.3063
  517MOL0     C69662   9.287   6.484   9.526 -0.1094  0.9828  0.3708
  517MOL0     O69663   9.312   6.543   9.646 -0.7194  0.2126 -0.2129
  517MOL0     C69664   9.444   6.534   9.701 -0.3198  0.5595  0.0669
  517MOL0     C69665   9.481   6.644   9.783 -0.7508  0.2353  0.3285
  517MOL0     C69666   9.604   6.643   9.848 -0.9227 -0.3553  0.2019
  517MOL0     C69667   9.698   6.540   9.819 -0.5170 -0.1332 -0.0105
  517MOL0     O69668   9.824   6.562   9.870 -0.0254  0.0711  0.1657
  517MOL0     C69669   9.936   6.475   9.825 -0.5949  0.1336  0.6058
  517MOL0     C69670   9.963   6.351   9.910 -0.5295  0.0314 -0.4535
  517MOL0     C69671  10.069   6.256   9.857  0.1610  0.1637  0.7638
  517MOL0     C69672  10.210   6.290   9.910  0.6637 -0.0344 -0.9328
  517MOL0     C69673  10.320   6.183   9.873 -0.0615  0.7968  0.3135
  517MOL0     C69674  10.463   6.218   9.917 -0.2980  0.4004  0.6698
  517MOL0     C69675  10.575   6.117   9.876  0.0046  0.9338  0.4408
  517MOL0     C69676  10.687   6.129   9.977  0.4521 -0.2783 -0.1694
  517MOL0     N69677  10.791   6.031   9.941  0.2100 -0.0917 -0.3654
  517MOL0     C69678  10.795   5.901   9.987 -0.3637  1.0295  0.1964
  517MOL0     C69679  10.918   5.855   9.955  0.1757 -0.4041  0.2906
  517MOL0     C69680  10.975   5.717   9.976  0.2954  0.2427  0.4636
  517MOL0     C69681  11.128   5.723   9.992  0.1216 -0.1845  0.5354
  517MOL0     C69682  11.187   5.755  10.131  0.8198 -0.7828 -0.7309
  517MOL0     C69683  11.340   5.743  10.120  0.6239  0.7936 -0.6804
  517MOL0     O69684  11.396   5.764  10.248 -0.8308 -0.1667  0.2853
  517MOL0     C69685  11.535   5.763  10.258 -0.8703 -0.3390 -0.4186
  517MOL0     C69686  11.608   5.838  10.358  0.3793  0.3186  0.2052
  517MOL0     C69687  11.748   5.833  10.362 -0.2647  0.1121  0.5162
  517MOL0     C69688  11.819   5.769  10.262  0.6066 -0.6005  0.2183
  517MOL0     C69689  11.963   5.768  10.271 -1.1418 -0.2250 -0.5087
  517MOL0     O69690  12.027   5.783  10.393 -0.9482  0.7577 -0.1064
  517MOL0     C69691  12.161   5.777  10.395  0.3221  0.0124  0.4321
  517MOL0     C69692  12.223   5.886  10.455 -0.0200  0.1470  0.4477
  517MOL0     C69693  12.359   5.881  10.493 -0.8441  0.2329  0.7149
  517MOL0     C69694  12.433   5.768  10.467 -0.2784  0.0442 -0.2633
  517MOL0     O69695  12.563   5.774  10.514 -0.6189 -0.0429 -0.2764
  517MOL0     C69696  12.667   5.694  10.468 -0.3881  0.3542 -0.3556
  517MOL0     C69697  12.788   5.705  10.559 -0.2270  0.7833 -0.3500
  517MOL0     C69698  12.904   5.624  10.517  0.6775 -0.1506  1.4204
  517MOL0     C69699  13.032   5.665  10.587  0.0669 -0.6556 -0.3794
  517MOL0     C69700  13.144   5.565  10.537  0.4421 -0.4323  0.8419
  517MOL0     C69701  13.288   5.598  10.579 -0.3972 -0.0369 -0.9274
  517MOL0     C69702  13.325   5.579  10.728 -0.6612  0.7558 -0.2312
  517MOL0     C69703  13.435   5.681  10.764 -0.2865  0.2351 -0.7739
  517MOL0    Cl69704  13.578   5.665  10.647  0.2855 -0.2751 -0.0343
  517MOL0     C69705  12.377   5.661  10.396 -0.6044  0.8779  0.2110
  517MOL0     C69706  12.237   5.660  10.363  0.1831  0.4178 -0.3431
  517MOL0     O69707  12.013   5.741  10.160 -0.6879 -0.2974 -0.3380
  517MOL0     C69708  11.749   5.702  10.157  0.4052 -0.7383  0.4501
  517MOL0     C69709  11.616   5.696  10.159  0.6573  0.5408 -0.7055
  517MOL0     N69710  10.978   5.960   9.888 -0.1073  0.6854 -0.9770
  517MOL0     N69711  10.911   6.066   9.892 -0.3894  0.1866 -0.8061
  517MOL0     C69712   9.659   6.427   9.741  0.0174  0.0642 -0.8855
  517MOL0     C69713   9.537   6.431   9.677  0.5166  0.0759  0.8040
  517MOL0     C69714   9.145   6.471   9.479  0.2711  0.4292 -0.0219
  517MOL0     C69715   9.049   6.553   9.541 -0.2135 -1.6397 -0.2996
  517MOL0     C69716   8.916   6.550   9.521  0.2629  0.2590  0.2730
  517MOL0     C69717   8.861   6.468   9.432  0.6951 -0.1994  0.1779
  517MOL0     O69718   8.734   6.451   9.393  1.6203  0.3982 -0.4450
  517MOL0     C69719   8.624   6.517   9.457 -0.2549 -1.0643 -0.6092
  517MOL0     C69720   8.501   6.489   9.382  0.1251 -0.6762  0.2690
  517MOL0     C69721   8.394   6.600   9.411 -0.1799 -0.3193 -0.2250
  517MOL0     C69722   8.252   6.556   9.353 -0.0015 -0.1488 -0.4757
  517MOL0     C69723   8.226   6.611   9.224 -0.2809  0.5225 -0.5454
  517MOL0     C69724   8.195   6.663   9.120 -0.6441  0.6225 -0.1320
  517MOL0     C69725   8.942   6.379   9.365  0.1985 -0.5558  0.7047
  517MOL0     C69726   9.088   6.380   9.392  0.9265  0.4428 -0.7103
  517MOL0     C69727   9.175   6.290   9.318 -0.3703  0.2148  0.1479
  517MOL0     H69728   9.410   6.725   9.789  0.5054  1.5160 -1.2033
  517MOL0     H69729   9.635   6.724   9.913  0.0202 -2.2850  2.2844
  517MOL0     H69730   9.926   6.439   9.722 -0.3939  4.5173 -1.1699
  517MOL0     H69731  10.027   6.536   9.831  0.1606 -1.0300  1.3375
  517MOL0     H69732   9.882   6.277   9.909  0.2070 -0.7930 -0.8107
  517MOL0     H69733   9.970   6.379  10.016  0.3370  0.6989 -0.6802
  517MOL0     H69734  10.064   6.277   9.750  0.6139  3.5045  1.2785
  517MOL0     H69735  10.036   6.153   9.877  0.7635 -0.2380 -0.2340
  517MOL0     H69736  10.234   6.387   9.866 -0.5953  2.0418  2.6000
  517MOL0     H69737  10.213   6.306  10.018  0.5697 -2.0431 -0.5938
  517MOL0     H69738  10.294   6.090   9.925  2.6010  1.4036  2.9930
  517MOL0     H69739  10.326   6.165   9.765  1.3698  1.3912  0.2788
  517MOL0     H69740  10.491   6.312   9.868 -1.4818 -1.1399 -3.3541
  517MOL0     H69741  10.460   6.220  10.026 -0.0099 -1.7031  0.7571
  517MOL0     H69742  10.608   6.145   9.776  2.5142 -1.3989  0.5083
  517MOL0     H69743  10.543   6.013   9.887 -0.4455  1.0121 -0.0658
  517MOL0     H69744  10.714   6.234   9.962 -4.8303  1.1545 -1.6651
  517MOL0     H69745  10.643   6.110  10.075  0.6805  1.9837  0.4143
  517MOL0     H69746  10.719   5.844  10.039  1.1913 -0.6600  0.7077
  517MOL0     H69747  10.921   5.666  10.056 -1.8737 -0.5080 -1.3666
  517MOL0     H69748  10.956   5.654   9.889 -0.8907  2.2893 -0.8460
  517MOL0     H69749  11.170   5.630   9.953 -0.9249 -0.3065 -0.3548
  517MOL0     H69750  11.164   5.793   9.916  0.9995 -1.2262 -0.0315
  517MOL0     H69751  11.146   5.690  10.209  1.4345  0.0838  0.3461
  517MOL0     H69752  11.152   5.854  10.162 -1.8667 -1.6465 -0.7626
  517MOL0     H69753  11.395   5.801  10.045  3.2013 -1.8445 -1.0340
  517MOL0     H69754  11.346   5.636  10.101 -0.9168  0.2084  1.6962
  517MOL0     H69755  11.562   5.893  10.439  1.2831  1.9790 -0.3633
  517MOL0     H69756  11.803   5.878  10.444 -1.9533  4.0179 -0.2833
  517MOL0     H69757  12.163   5.965  10.498  1.2381  0.6343  1.3616
  517MOL0     H69758  12.397   5.967  10.546  1.4537  0.8801 -1.7549
  517MOL0     H69759  12.646   5.587  10.455  2.4620  0.0458 -4.5373
  517MOL0     H69760  12.705   5.726  10.371  0.5379  2.9216  0.7731
  517MOL0     H69761  12.814   5.811  10.562 -1.6957  1.1441  0.5849
  517MOL0     H69762  12.770   5.679  10.664  1.9628 -1.5467 -0.4378
  517MOL0     H69763  12.891   5.515  10.519 -0.6415 -0.1302 -1.5317
  517MOL0     H69764  12.918   5.647  10.411 -0.6986  0.4677  1.3507
  517MOL0     H69765  13.014   5.664  10.695  1.6081  0.2928 -0.0785
  517MOL0     H69766  13.048   5.769  10.558  0.9608 -0.6623  0.0443
  517MOL0     H69767  13.142   5.561  10.427 -1.2640 -2.6405  0.8871
  517MOL0     H69768  13.116   5.465  10.572  0.9832 -0.2185  1.9058
  517MOL0     H69769  13.347   5.535  10.512  0.0141 -0.5118 -0.1391
  517MOL0     H69770  13.310   5.703  10.555 -1.5546  0.3223 -0.4789
  517MOL0     H69771  13.360   5.478  10.751  0.7147  0.7562 -2.0735
  517MOL0     H69772  13.245   5.608  10.797  1.8963  4.5149  1.4879
  517MOL0     H69773  13.402   5.784  10.749  3.6674  1.6741 -0.9125
  517MOL0     H69774  13.473   5.667  10.866  0.7536  1.1454 -1.0128
  517MOL0     H69775  12.423   5.564  10.381  1.2422  1.5305  1.1924
  517MOL0     H69776  12.194   5.564  10.336 -0.0662  0.0597  1.2379
  517MOL0     H69777  11.784   5.649  10.069  1.6528 -2.7373  2.0452
  517MOL0     H69778  11.560   5.638  10.086  1.9410 -1.9746  0.1874
  517MOL0     H69779   9.725   6.343   9.720  0.2741  0.0242  0.0151
  517MOL0     H69780   9.510   6.348   9.613 -0.3118  1.4179 -0.6612
  517MOL0     H69781   9.083   6.631   9.609  0.5186  0.9531 -3.3707
  517MOL0     H69782   8.859   6.617   9.584 -2.1031  0.4516 -1.9184
  517MOL0     H69783   8.645   6.624   9.453 -3.4496 -0.1811  2.1532
  517MOL0     H69784   8.607   6.485   9.560 -0.3489  1.2047  0.1330
  517MOL0     H69785   8.444   6.399   9.406 -0.8624  0.1454  1.0940
  517MOL0     H69786   8.528   6.485   9.276  1.4750 -0.9353  0.5929
  517MOL0     H69787   8.429   6.698   9.378 -0.2207  0.4210  1.7584
  517MOL0     H69788   8.375   6.607   9.519 -2.2179  1.0770 -0.6047
  517MOL0     H69789   8.244   6.447   9.349  2.6044 -0.4172 -0.3361
  517MOL0     H69790   8.179   6.591   9.427  0.5925 -1.9923  1.0672
  517MOL0     H69791   8.179   6.726   9.036 -0.3100  0.5648 -0.2412
  517MOL0     H69792   8.901   6.322   9.282 -1.8749  5.7101 -3.3271
  517MOL0     H69793   9.223   6.349   9.239  1.0492  2.5946  2.6240
  517MOL0     H69794   9.252   6.254   9.387 -0.3000 -0.4019 -0.2465
  517MOL0     H69795   9.128   6.204   9.270  1.0660 -0.2545 -0.4974
  518MOL0     O69796   9.915   5.500  11.173  0.2655 -0.8377 -0.3967
  518MOL0     C69797   9.855   5.446  11.266 -0.3421  0.4174  0.9314
  518MOL0     O69798   9.913   5.367  11.352 -0.2389 -0.6024  0.3799
  518MOL0     C69799  10.049   5.361  11.356 -0.5766 -0.4591 -0.4084
  518MOL0     C69800  10.114   5.251  11.293 -0.0346 -0.7054  0.5479
  518MOL0     C69801  10.251   5.247  11.306 -0.5708 -1.0084 -0.2835
  518MOL0     C69802  10.332   5.345  11.363 -0.8217  0.6183  0.2069
  518MOL0     O69803  10.466   5.353  11.359 -0.2666 -0.0524 -0.3575
  518MOL0     C69804  10.516   5.347  11.223  0.2748 -0.5675  0.8339
  518MOL0     C69805  10.487   5.481  11.152 -0.6732  0.0128 -0.3006
  518MOL0     C69806  10.531   5.596  11.252 -0.1929 -0.4378  0.0820
  518MOL0     C69807  10.470   5.730  11.197 -0.8104  0.6952  0.2306
  518MOL0     C69808  10.478   5.839  11.303 -0.4316  0.7487 -0.1201
  518MOL0     C69809  10.626   5.864  11.330 -0.6491  0.4828  0.6733
  518MOL0     C69810  10.643   5.974  11.432  0.3140  0.9542 -0.5549
  518MOL0     C69811  10.789   5.997  11.471  0.9118 -0.0180  0.4664
  518MOL0     N69812  10.891   5.983  11.363  0.5996 -0.7746  0.0727
  518MOL0     C69813  10.917   6.076  11.263 -0.3602 -0.3122  0.3942
  518MOL0     C69814  11.016   6.015  11.188  0.2719  0.6041  0.1703
  518MOL0     C69815  11.099   6.073  11.077 -0.4721 -0.1485 -0.6879
  518MOL0     C69816  11.245   6.106  11.134  0.7916 -0.0332 -0.1058
  518MOL0     C69817  11.349   6.163  11.034  1.0093 -0.0131 -0.4856
  518MOL0     C69818  11.492   6.175  11.093  0.7676  0.4160  0.5778
  518MOL0     O69819  11.571   6.230  10.985 -0.3168  0.5910 -0.6907
  518MOL0     C69820  11.709   6.252  11.009  0.3118 -0.4205 -0.2849
  518MOL0     C69821  11.786   6.178  11.105  0.1737 -0.2133 -0.4197
  518MOL0     C69822  11.923   6.183  11.107 -0.4290  0.7991 -1.3893
  518MOL0     C69823  11.997   6.270  11.014  0.2132 -0.2836 -0.6171
  518MOL0     C69824  12.135   6.297  11.025  0.7871 -0.1938  0.4671
  518MOL0     O69825  12.205   6.211  11.101  0.1877  0.3192  0.3038
  518MOL0     C69826  12.345   6.213  11.107  0.0277 -0.7344  0.2998
  518MOL0     C69827  12.410   6.226  11.232  1.3650 -0.1532  0.3676
  518MOL0     C69828  12.556   6.222  11.237  0.2551  0.4848  0.2735
  518MOL0     C69829  12.634   6.201  11.129 -0.2425 -0.9150 -0.3400
  518MOL0     O69830  12.770   6.193  11.145  0.3805 -0.6163 -0.4547
  518MOL0     C69831  12.844   6.274  11.044  0.0859 -0.2153 -0.7365
  518MOL0     C69832  12.983   6.282  11.104  1.0494  0.4745 -0.2449
  518MOL0     C69833  13.072   6.354  11.008  0.8975  0.2738  0.1016
  518MOL0     C69834  13.203   6.366  11.070  0.5375 -0.8210  0.2308
  518MOL0     C69835  13.309   6.426  10.974 -0.2326 -0.0438 -0.0356
  518MOL0     C69836  13.449   6.401  11.030 -0.2638  0.7128  0.2319
  518MOL0     C69837  13.553   6.498  10.970 -0.3483 -0.1857 -0.1384
  518MOL0     C69838  13.662   6.437  10.871 -0.4822 -0.5550 -1.1408
  518MOL0    Cl69839  13.750   6.308  10.965  0.0602 -0.2937  0.3727
  518MOL0     C69840  12.565   6.204  11.001  0.0800 -0.4613 -0.4450
  518MOL0     C69841  12.422   6.210  10.989 -0.2107 -0.6461  0.0618
  518MOL0     O69842  12.180   6.389  10.961  0.1105  0.0663 -0.0310
  518MOL0     C69843  11.913   6.346  10.923 -0.0536 -0.0161 -0.4071
  518MOL0     C69844  11.774   6.336  10.924  0.0698  0.3616  0.2617
  518MOL0     N69845  11.039   5.885  11.231  1.3647  0.6639  0.3478
  518MOL0     N69846  10.959   5.873  11.330 -0.4011  1.2399 -0.4624
  518MOL0     C69847  10.263   5.455  11.421 -0.4648  1.0941 -0.1440
  518MOL0     C69848  10.126   5.455  11.428 -0.0709  0.0519 -0.1498
  518MOL0     C69849   9.705   5.467  11.280 -0.9307 -0.0520  0.7132
  518MOL0     C69850   9.634   5.514  11.164 -0.3399  0.3357 -0.0589
  518MOL0     C69851   9.498   5.539  11.181  0.6575  0.0394 -0.2649
  518MOL0     C69852   9.432   5.520  11.305  0.4479  0.5059 -0.0551
  518MOL0     O69853   9.298   5.555  11.332 -0.6420  0.2067  0.0856
  518MOL0     C69854   9.204   5.618  11.250  0.2108 -0.4805 -0.6292
  518MOL0     C69855   9.208   5.763  11.293 -0.2474 -0.6849 -0.0630
  518MOL0     C69856   9.101   5.846  11.231 -0.1919  0.5102  0.1121
  518MOL0     C69857   9.094   5.981  11.300 -0.4696 -0.5460  0.6161
  518MOL0     C69858   8.988   6.065  11.246  0.2844 -0.3025  0.2485
  518MOL0     C69859   8.893   6.142  11.230  0.2331 -0.8060 -0.4258
  518MOL0     C69860   9.501   5.479  11.414 -0.5813 -0.3820  0.0949
  518MOL0     C69861   9.641   5.455  11.405  1.2664 -0.8453  0.3481
  518MOL0     C69862   9.726   5.454  11.530  0.7951  0.2248 -0.5619
  518MOL0     H69863  10.049   5.180  11.243 -2.0605  0.7080  1.0206
  518MOL0     H69864  10.306   5.163  11.265 -1.2541 -0.6954 -1.9261
  518MOL0     H69865  10.625   5.340  11.218  0.3984  1.2723  0.3668
  518MOL0     H69866  10.474   5.259  11.174  1.1085  0.0028 -0.9849
  518MOL0     H69867  10.383   5.481  11.120 -0.2234 -2.3808 -2.0269
  518MOL0     H69868  10.552   5.483  11.064  0.2583  1.4340  0.3828
  518MOL0     H69869  10.639   5.594  11.264 -0.0251  1.6882 -0.6496
  518MOL0     H69870  10.480   5.579  11.348 -1.5098  0.5594 -0.4063
  518MOL0     H69871  10.524   5.766  11.109  1.2975 -2.2066  0.2051
  518MOL0     H69872  10.365   5.715  11.172 -0.2473 -2.0742 -0.7591
  518MOL0     H69873  10.413   5.919  11.267 -1.4721 -0.5211 -1.1527
  518MOL0     H69874  10.434   5.794  11.393  0.7826  1.2811  0.7828
  518MOL0     H69875  10.670   5.773  11.370 -1.6142 -0.3248 -0.0252
  518MOL0     H69876  10.660   5.893  11.229 -2.1361  0.6963  0.2052
  518MOL0     H69877  10.602   5.951  11.531 -0.3499 -1.3139 -1.3000
  518MOL0     H69878  10.589   6.063  11.396  2.1941  2.3797 -0.0391
  518MOL0     H69879  10.806   6.096  11.515 -1.2915  1.0791 -0.9824
  518MOL0     H69880  10.810   5.926  11.552 -1.6256 -0.3211  0.9482
  518MOL0     H69881  10.866   6.170  11.245  0.9886  0.0815 -1.8007
  518MOL0     H69882  11.090   6.009  10.989 -1.7381 -1.3081  0.2507
  518MOL0     H69883  11.047   6.164  11.045  0.0599 -0.6293 -3.1448
  518MOL0     H69884  11.227   6.177  11.216  1.4288 -0.7515  0.6713
  518MOL0     H69885  11.284   6.009  11.167 -1.2807 -1.6338 -2.0039
  518MOL0     H69886  11.309   6.257  10.995 -1.5420 -0.8428 -0.0549
  518MOL0     H69887  11.340   6.091  10.952  0.1559 -1.6616  0.9790
  518MOL0     H69888  11.521   6.076  11.128 -2.6440 -0.4461  1.3626
  518MOL0     H69889  11.489   6.235  11.184 -2.1763  0.3338  0.6463
  518MOL0     H69890  11.734   6.106  11.168 -1.4377  1.9702  0.9345
  518MOL0     H69891  11.975   6.118  11.177 -0.0171  1.4880 -1.0462
  518MOL0     H69892  12.343   6.232  11.317 -1.9217 -1.5577 -1.9373
  518MOL0     H69893  12.606   6.212  11.333  0.5259 -1.7914 -0.0546
  518MOL0     H69894  12.849   6.240  10.940  1.2830  0.2352 -0.8369
  518MOL0     H69895  12.810   6.378  11.046  2.2832  0.5493  1.0219
  518MOL0     H69896  12.972   6.339  11.197 -1.4997 -0.8147  0.3176
  518MOL0     H69897  13.010   6.177  11.120  0.0694 -0.0026 -1.5872
  518MOL0     H69898  13.081   6.291  10.919  1.8447 -2.7031  2.1471
  518MOL0     H69899  13.035   6.449  10.969 -0.4324 -0.8371 -1.4593
  518MOL0     H69900  13.239   6.267  11.101 -0.0397 -0.5731  1.7889
  518MOL0     H69901  13.201   6.429  11.159  0.3805  0.1992 -0.4774
  518MOL0     H69902  13.279   6.530  10.960 -1.7412 -0.6546 -1.8879
  518MOL0     H69903  13.305   6.378  10.875 -0.6895 -0.9389  0.4034
  518MOL0     H69904  13.458   6.393  11.139 -2.3378 -2.8967  0.2979
  518MOL0     H69905  13.478   6.300  10.999 -0.7781  1.2515 -2.2770
  518MOL0     H69906  13.602   6.556  11.049 -1.2471 -1.2116  1.2107
  518MOL0     H69907  13.489   6.572  10.921 -3.1495 -1.3859  1.4533
  518MOL0     H69908  13.621   6.399  10.777 -0.3068 -3.2811 -0.1930
  518MOL0     H69909  13.735   6.512  10.841 -0.1581 -1.3808 -2.4739
  518MOL0     H69910  12.616   6.207  10.906  2.1396 -1.5277  0.5714
  518MOL0     H69911  12.370   6.214  10.893 -0.9947  0.4420  0.5067
  518MOL0     H69912  11.949   6.422  10.855 -2.3166  0.0335 -1.6632
  518MOL0     H69913  11.716   6.394  10.853  1.0893  0.3267 -0.6222
  518MOL0     H69914  10.325   5.526  11.476  0.3311  0.7903 -0.6335
  518MOL0     H69915  10.082   5.530  11.493 -0.3885  0.1037 -0.4184
  518MOL0     H69916   9.675   5.551  11.070 -3.7058  1.2327 -1.3121
  518MOL0     H69917   9.434   5.575  11.101 -0.7235  0.8301  1.1354
  518MOL0     H69918   9.107   5.582  11.284  0.7208 -0.4192  0.9416
  518MOL0     H69919   9.225   5.614  11.142  0.1211  2.1000 -0.8152
  518MOL0     H69920   9.307   5.805  11.276 -1.1077  1.0332 -1.1617
  518MOL0     H69921   9.198   5.761  11.402 -0.8635  0.6050 -0.0861
  518MOL0     H69922   9.006   5.792  11.234 -0.1777  0.4856  0.1158
  518MOL0     H69923   9.124   5.859  11.125  2.7313  1.2846  0.7504
  518MOL0     H69924   9.072   5.961  11.405 -1.5401  0.7692  0.6775
  518MOL0     H69925   9.191   6.030  11.285 -0.9661 -0.3314 -2.7886
  518MOL0     H69926   8.821   6.218  11.210  3.1760  2.4479  0.2454
  518MOL0     H69927   9.456   5.477  11.513  0.6726  0.4021  0.7137
  518MOL0     H69928   9.747   5.349  11.551  1.7773  0.7357  1.2591
  518MOL0     H69929   9.812   5.521  11.521  1.8454 -0.9459  0.3821
  518MOL0     H69930   9.666   5.496  11.612  0.6006 -1.3259  0.1191
  519MOL0     O69931  10.073   1.477   6.669  0.3368 -0.1370 -0.5517
  519MOL0     C69932  10.041   1.432   6.775 -0.7961  0.4464 -0.5411
  519MOL0     O69933  10.120   1.406   6.882 -0.2614 -0.6287  0.8873
  519MOL0     C69934  10.251   1.439   6.872 -0.4168  0.0165  0.7466
  519MOL0     C69935  10.297   1.555   6.931  0.1452 -0.1016  0.5531
  519MOL0     C69936  10.432   1.597   6.906 -0.5045  1.1310 -0.1239
  519MOL0     C69937  10.519   1.524   6.822 -0.3571 -0.1824 -0.4955
  519MOL0     O69938  10.634   1.581   6.782  0.4474  0.2952  0.8228
  519MOL0     C69939  10.749   1.493   6.786  0.2178 -0.0162  0.8451
  519MOL0     C69940  10.888   1.561   6.776 -0.4763 -0.7942 -0.6529
  519MOL0     C69941  10.901   1.687   6.869  0.0159  0.4880 -0.7336
  519MOL0     C69942  11.027   1.773   6.850  1.2009 -0.3402  0.4194
  519MOL0     C69943  11.027   1.907   6.942  0.2100 -0.1175 -0.7209
  519MOL0     C69944  11.125   2.008   6.883 -0.6291 -0.0279 -0.4765
  519MOL0     C69945  11.140   2.142   6.962  0.0078  0.8160 -0.1833
  519MOL0     C69946  11.012   2.216   6.973  0.0562 -0.0097  0.3292
  519MOL0     N69947  11.025   2.348   7.039  0.3463 -0.4313 -0.4403
  519MOL0     C69948  11.025   2.365   7.172 -0.5297  0.5952 -0.2091
  519MOL0     C69949  11.036   2.498   7.186 -0.7387 -0.8851 -0.8915
  519MOL0     C69950  11.021   2.557   7.321 -0.5239  0.1128  0.2854
  519MOL0     C69951  11.153   2.601   7.392  1.1922 -0.4269 -0.1729
  519MOL0     C69952  11.197   2.735   7.327  0.2726 -0.2972  0.0069
  519MOL0     C69953  11.288   2.811   7.415  0.4433 -0.2248  0.1617
  519MOL0     O69954  11.396   2.733   7.465  0.1750  0.5004 -0.0722
  519MOL0     C69955  11.462   2.792   7.564 -0.4600  0.1487 -1.3707
  519MOL0     C69956  11.562   2.700   7.606  0.7310 -0.5225 -0.1517
  519MOL0     C69957  11.647   2.739   7.710 -0.9996  0.4171  0.0988
  519MOL0     C69958  11.646   2.868   7.770 -0.9520 -0.1631  0.0635
  519MOL0     C69959  11.730   2.907   7.879  0.7094 -0.4621 -0.1677
  519MOL0     O69960  11.849   2.842   7.896  0.4377  0.7532  0.0199
  519MOL0     C69961  11.933   2.857   8.007  0.5792 -2.4759 -0.1495
  519MOL0     C69962  12.062   2.834   7.992  0.1394  0.0246  0.5342
  519MOL0     C69963  12.151   2.833   8.100  0.2082  0.5015  0.0971
  519MOL0     C69964  12.110   2.865   8.230 -0.0134  0.6769  0.5480
  519MOL0     O69965  12.180   2.852   8.347 -0.1432  0.2807  0.8139
  519MOL0     C69966  12.316   2.900   8.347 -0.6621 -0.4405  1.0942
  519MOL0     C69967  12.413   2.802   8.422  0.2504 -0.7831 -0.2710
  519MOL0     C69968  12.562   2.836   8.405  0.1842 -0.6073  0.7956
  519MOL0     C69969  12.611   2.971   8.429  0.3439 -0.4562  0.1652
  519MOL0     C69970  12.730   3.008   8.341  0.0779  0.0341  0.2637
  519MOL0     C69971  12.861   2.923   8.362  0.4049  0.4667 -0.2207
  519MOL0     C69972  12.966   2.969   8.260  0.0586  0.7824 -0.1581
  519MOL0     C69973  13.048   3.089   8.306  0.1876  0.6928  0.1664
  519MOL0    Cl69974  13.188   3.080   8.211 -0.2127  0.0943  0.3374
  519MOL0     C69975  11.975   2.887   8.246  0.5773  0.1696 -0.9556
  519MOL0     C69976  11.882   2.893   8.133 -0.0148  0.4832 -0.4532
  519MOL0     O69977  11.695   3.002   7.952 -0.0989  0.6428  0.2594
  519MOL0     C69978  11.540   2.952   7.727 -0.0376 -0.8343  0.4214
  519MOL0     C69979  11.455   2.923   7.626  0.2835 -0.5039 -0.3807
  519MOL0     N69980  11.057   2.555   7.059 -0.1281  0.4954  0.2783
  519MOL0     N69981  11.059   2.458   6.967 -0.3763 -0.4874 -0.6163
  519MOL0     C69982  10.476   1.406   6.768 -1.2249 -0.5416 -0.7858
  519MOL0     C69983  10.346   1.364   6.792 -0.6049 -0.1536  0.3012
  519MOL0     C69984   9.896   1.388   6.788  0.0087  0.1105  0.3083
  519MOL0     C69985   9.837   1.418   6.908  0.2603 -0.7275  0.4153
  519MOL0     C69986   9.709   1.383   6.922  0.5596  0.1466 -0.0006
  519MOL0     C69987   9.622   1.320   6.829 -0.7708  0.3177 -0.0814
  519MOL0     O69988   9.493   1.283   6.874  0.1438  0.4352  0.2588
  519MOL0     C69989   9.382   1.294   6.785  0.5619 -0.2105  1.0564
  519MOL0     C69990   9.274   1.356   6.876 -0.5083  0.1065  0.1342
  519MOL0     C69991   9.137   1.328   6.810 -0.2696 -0.1697 -0.0518
  519MOL0     C69992   9.112   1.177   6.780  1.0247 -0.7443  0.2366
  519MOL0     C69993   8.970   1.143   6.760  0.0528 -0.4845  0.2476
  519MOL0     C69994   8.862   1.099   6.753 -0.1152 -0.2023 -0.0008
  519MOL0     C69995   9.683   1.288   6.702 -0.9232 -0.5911  0.1699
  519MOL0     C69996   9.819   1.327   6.679  1.5106 -0.6702  1.2084
  519MOL0     C69997   9.885   1.297   6.543  0.7870  0.6342 -0.2042
  519MOL0     H69998  10.219   1.614   6.978 -0.0447  0.2934 -0.2520
  519MOL0     H69999  10.469   1.691   6.945 -1.4771  0.8469  1.5922
  519MOL0     H70000  10.753   1.432   6.876  0.3561  0.3312  1.0771
  519MOL0     H70001  10.744   1.425   6.701 -0.2737  1.1553 -0.0900
  519MOL0     H70002  10.891   1.593   6.672 -1.9689  1.8898  0.0230
  519MOL0     H70003  10.965   1.484   6.783 -0.5937 -0.8051  1.4031
  519MOL0     H70004  10.914   1.648   6.970  2.6435  1.9279 -0.4356
  519MOL0     H70005  10.810   1.747   6.867 -1.2465 -0.9440  3.5214
  519MOL0     H70006  11.116   1.713   6.872  0.1100 -1.6288  1.5391
  519MOL0     H70007  11.026   1.788   6.742 -1.1540  1.7967  0.6495
  519MOL0     H70008  10.930   1.957   6.953  1.6344  2.4361  1.2855
  519MOL0     H70009  11.048   1.871   7.044 -0.0554  0.8534 -0.3108
  519MOL0     H70010  11.224   1.962   6.886  0.0785  1.4654 -0.5112
  519MOL0     H70011  11.091   2.046   6.786  0.0743  2.3340  0.1492
  519MOL0     H70012  11.201   2.216   6.909  0.9607  0.5084  0.4636
  519MOL0     H70013  11.180   2.123   7.062 -0.7728 -1.1188 -0.1995
  519MOL0     H70014  10.980   2.207   6.869 -2.1087 -2.2037  1.0978
  519MOL0     H70015  10.938   2.157   7.027  0.5338 -0.4505  0.5195
  519MOL0     H70016  10.985   2.295   7.244  0.8597  1.2498  1.2677
  519MOL0     H70017  10.959   2.647   7.319 -2.3406 -1.0893  0.0347
  519MOL0     H70018  10.979   2.477   7.384 -2.6568 -1.8131 -3.2743
  519MOL0     H70019  11.127   2.604   7.498 -1.0748 -2.8475 -0.5462
  519MOL0     H70020  11.233   2.527   7.395 -1.0217 -2.9834  3.6722
  519MOL0     H70021  11.114   2.801   7.303  0.2573 -0.0754  0.6346
  519MOL0     H70022  11.253   2.709   7.237  2.1141 -2.1322  1.5664
  519MOL0     H70023  11.223   2.838   7.499  1.0987 -0.9058  0.9043
  519MOL0     H70024  11.323   2.894   7.352 -1.7658 -2.5775 -4.6628
  519MOL0     H70025  11.568   2.597   7.572  0.0124  0.0941 -2.2958
  519MOL0     H70026  11.732   2.675   7.731  0.2744  1.1893 -2.3439
  519MOL0     H70027  12.103   2.816   7.893 -2.3207  0.3923 -0.6131
  519MOL0     H70028  12.258   2.820   8.093  0.4621  3.1424 -3.1656
  519MOL0     H70029  12.355   2.926   8.248 -1.5890 -0.6450  0.6701
  519MOL0     H70030  12.314   2.999   8.392  4.1084  0.4338 -0.0825
  519MOL0     H70031  12.394   2.810   8.529  1.3005  0.7086 -0.1521
  519MOL0     H70032  12.393   2.699   8.394  0.9270 -1.0480  0.2139
  519MOL0     H70033  12.631   2.761   8.445  2.0057  1.4037  1.6278
  519MOL0     H70034  12.579   2.817   8.298 -0.5723 -2.0567  0.9102
  519MOL0     H70035  12.653   2.988   8.528  0.6745 -0.9287  0.1059
  519MOL0     H70036  12.525   3.039   8.419  1.4129  0.6608 -2.8708
  519MOL0     H70037  12.751   3.115   8.348 -3.8417  1.0959 -1.1403
  519MOL0     H70038  12.697   2.989   8.238 -0.8814  3.2565 -0.1197
  519MOL0     H70039  12.899   2.931   8.465 -1.0319 -2.0256  0.5865
  519MOL0     H70040  12.838   2.819   8.338 -0.2261  0.6329 -0.3473
  519MOL0     H70041  12.920   2.991   8.163 -1.4745 -0.9572  0.1156
  519MOL0     H70042  13.030   2.881   8.254 -1.0924 -0.1102  0.3308
  519MOL0     H70043  12.995   3.184   8.302  1.9811  1.6961 -1.7011
  519MOL0     H70044  13.069   3.080   8.413 -3.4309  2.6231  1.2048
  519MOL0     H70045  11.931   2.914   8.341 -0.5916 -0.0941 -1.4058
  519MOL0     H70046  11.782   2.918   8.167  0.0075 -1.0894  0.9134
  519MOL0     H70047  11.535   3.049   7.776 -0.3022 -0.5062 -0.2419
  519MOL0     H70048  11.379   2.997   7.598  1.7922  0.8591 -1.0477
  519MOL0     H70049  10.540   1.347   6.703 -0.7419  1.8836 -2.6795
  519MOL0     H70050  10.302   1.280   6.740  2.3757 -0.0106 -2.7331
  519MOL0     H70051   9.895   1.467   6.985  1.5106 -0.2666 -0.7702
  519MOL0     H70052   9.655   1.401   7.015  0.3859 -0.6694  0.0679
  519MOL0     H70053   9.359   1.191   6.756  0.2688 -0.0521  0.7189
  519MOL0     H70054   9.391   1.363   6.700 -4.1367  0.0598  0.5010
  519MOL0     H70055   9.289   1.462   6.898  2.4426  0.5829 -3.2716
  519MOL0     H70056   9.276   1.307   6.974 -1.4321  0.2167  0.2195
  519MOL0     H70057   9.126   1.389   6.719 -0.5246 -0.1930 -0.0370
  519MOL0     H70058   9.065   1.357   6.886 -0.0930 -1.2009  0.5168
  519MOL0     H70059   9.175   1.148   6.696  2.6182  2.3426  0.2285
  519MOL0     H70060   9.137   1.115   6.867 -0.9687 -1.3450  0.4465
  519MOL0     H70061   8.761   1.067   6.767  0.1216 -1.9458 -1.7210
  519MOL0     H70062   9.631   1.229   6.627 -0.8101 -1.7866  1.0171
  519MOL0     H70063   9.984   1.250   6.539  1.1518  1.4000 -0.3290
  519MOL0     H70064   9.820   1.228   6.488  0.7449 -2.3691  3.2181
  519MOL0     H70065   9.878   1.388   6.483 -2.2825 -0.0429 -1.0501
  520MOL0     O70066   5.274   3.718  10.248 -1.1092 -0.2031  0.3250
  520MOL0     C70067   5.201   3.693  10.152  0.3398  0.3781 -0.2688
  520MOL0     O70068   5.244   3.666  10.024  0.1031  0.3725  0.5479
  520MOL0     C70069   5.373   3.644   9.989 -0.4434  0.6771  0.0764
  520MOL0     C70070   5.390   3.638   9.853 -0.0113 -0.0949  0.2242
  520MOL0     C70071   5.507   3.583   9.790  0.3441  0.6788 -0.3121
  520MOL0     C70072   5.611   3.532   9.868  0.1463 -0.6227 -0.5654
  520MOL0     O70073   5.720   3.460   9.831 -0.0105 -0.0548 -0.3656
  520MOL0     C70074   5.751   3.436   9.688  0.0676 -0.7985  0.1912
  520MOL0     C70075   5.873   3.350   9.674 -0.2030 -0.5531 -0.1168
  520MOL0     C70076   5.852   3.205   9.745 -0.8541 -0.1967 -0.7759
  520MOL0     C70077   5.960   3.113   9.697 -0.7093  0.4289 -0.0540
  520MOL0     C70078   6.092   3.130   9.771 -0.0845 -0.2609  0.2927
  520MOL0     C70079   6.180   3.006   9.779 -0.3300  0.0427  0.8408
  520MOL0     C70080   6.324   3.035   9.824  0.1296 -0.4445 -0.6380
  520MOL0     C70081   6.412   3.129   9.747 -0.5102  0.0524  0.3321
  520MOL0     N70082   6.550   3.111   9.784  0.9374 -0.4069  0.3269
  520MOL0     C70083   6.629   3.194   9.864 -0.1298  0.1463 -0.6001
  520MOL0     C70084   6.760   3.140   9.853  0.5057 -0.5402 -0.2637
  520MOL0     C70085   6.887   3.203   9.905 -0.1120  0.4403 -0.5510
  520MOL0     C70086   7.007   3.176   9.811  0.6083 -0.0589 -0.0394
  520MOL0     C70087   7.128   3.230   9.889  0.3152  0.7154  0.0346
  520MOL0     C70088   7.251   3.208   9.798  0.6301  0.1221 -0.4529
  520MOL0     O70089   7.369   3.271   9.851 -1.1414 -0.7410 -0.1635
  520MOL0     C70090   7.489   3.210   9.825  0.5676  0.6502  0.6193
  520MOL0     C70091   7.591   3.211   9.920  0.5000 -1.5281  0.4500
  520MOL0     C70092   7.719   3.169   9.880 -0.0233  0.4117 -0.3392
  520MOL0     C70093   7.747   3.108   9.758 -0.0866  0.0028  0.0376
  520MOL0     C70094   7.875   3.050   9.731  0.0269 -0.7683 -0.7811
  520MOL0     O70095   7.888   2.983   9.616 -0.6570  0.9936  0.2423
  520MOL0     C70096   8.012   2.979   9.561 -0.6472 -0.2559  0.7861
  520MOL0     C70097   8.113   2.889   9.604  0.0542  0.7249 -0.3674
  520MOL0     C70098   8.232   2.885   9.534 -0.5397  0.0207  0.7400
  520MOL0     C70099   8.259   2.971   9.429  0.7769  0.1692 -0.7714
  520MOL0     O70100   8.382   2.973   9.377 -0.8111  0.0506 -0.9455
  520MOL0     C70101   8.440   3.088   9.322  0.0844 -0.0535  0.5383
  520MOL0     C70102   8.588   3.061   9.314  0.2768 -0.0468  0.3867
  520MOL0     C70103   8.618   2.935   9.233  0.7447 -0.1030 -0.4290
  520MOL0     C70104   8.766   2.907   9.193  1.1148 -0.2948 -0.0097
  520MOL0     C70105   8.798   2.770   9.132  0.1512  0.1360 -0.3571
  520MOL0     C70106   8.938   2.767   9.077  0.5309 -0.4343 -0.4846
  520MOL0     C70107   8.977   2.640   9.004  0.4071  1.2070 -0.7231
  520MOL0     C70108   9.129   2.640   8.962 -0.1068  0.8704 -0.4354
  520MOL0    Cl70109   9.180   2.493   8.880  0.2669 -0.1873  0.0747
  520MOL0     C70110   8.163   3.065   9.391  0.1241 -1.0573 -0.3054
  520MOL0     C70111   8.037   3.062   9.447 -0.2653 -0.6819 -0.3559
  520MOL0     O70112   7.967   3.095   9.809 -0.3131  0.3811  0.0738
  520MOL0     C70113   7.643   3.089   9.666  0.5720  0.0150 -0.0968
  520MOL0     C70114   7.512   3.131   9.707  0.1739  0.3940 -0.0875
  520MOL0     N70115   6.748   3.031   9.761 -0.2251 -0.5467  0.0284
  520MOL0     N70116   6.623   3.023   9.714  0.0647 -0.2280 -0.0486
  520MOL0     C70117   5.602   3.542  10.003 -0.1336  0.2774 -1.0413
  520MOL0     C70118   5.489   3.607  10.068  0.1822  0.0799 -1.0591
  520MOL0     C70119   5.050   3.690  10.174  0.3913  0.2575  0.4800
  520MOL0     C70120   4.966   3.676  10.062  0.7194  0.2146  0.9236
  520MOL0     C70121   4.828   3.677  10.071  0.6322 -0.4264  0.0468
  520MOL0     C70122   4.772   3.701  10.204  0.6660 -0.4443  1.0949
  520MOL0     O70123   4.629   3.700  10.196  0.7457  0.8811 -0.1685
  520MOL0     C70124   4.550   3.712  10.311 -0.3494  0.0907 -0.0215
  520MOL0     C70125   4.411   3.641  10.314  0.6696  0.5509 -0.3629
  520MOL0     C70126   4.431   3.499  10.265  0.3497  0.6247 -0.2485
  520MOL0     C70127   4.315   3.407  10.296  0.7447 -0.5952 -0.4830
  520MOL0     C70128   4.349   3.270  10.258  0.1512 -0.3348 -1.4410
  520MOL0     C70129   4.389   3.158  10.228  0.5033 -0.1643  0.5104
  520MOL0     C70130   4.850   3.713  10.315 -0.2617  1.2692  0.3754
  520MOL0     C70131   4.991   3.698  10.301  0.1535  0.3067 -0.4400
  520MOL0     C70132   5.064   3.679  10.435  0.2918  0.4271  0.3243
  520MOL0     H70133   5.302   3.666   9.795 -1.6046 -2.7419  1.1933
  520MOL0     H70134   5.493   3.579   9.682 -1.9849 -0.6627 -0.0159
  520MOL0     H70135   5.664   3.396   9.636  0.2710 -0.2455 -0.5755
  520MOL0     H70136   5.775   3.528   9.635  0.0424 -0.4400  0.7949
  520MOL0     H70137   5.952   3.406   9.723  1.4884  1.8405 -4.9637
  520MOL0     H70138   5.894   3.343   9.567 -0.3921  1.4847 -0.3230
  520MOL0     H70139   5.760   3.160   9.708  0.3494 -1.3765 -2.5454
  520MOL0     H70140   5.863   3.208   9.853 -3.4276  0.3659 -0.4761
  520MOL0     H70141   5.929   3.011   9.723  0.6541  0.8457  3.7807
  520MOL0     H70142   5.987   3.135   9.593 -0.4899  1.1149  0.1428
  520MOL0     H70143   6.158   3.198   9.717  3.8233 -2.6052  1.7027
  520MOL0     H70144   6.077   3.169   9.872  0.9984  2.0030 -0.3615
  520MOL0     H70145   6.126   2.940   9.846 -1.0669  1.0903  1.3128
  520MOL0     H70146   6.186   2.957   9.681  1.1324  2.9656 -0.6767
  520MOL0     H70147   6.381   2.941   9.823  1.2298  0.2133 -1.0920
  520MOL0     H70148   6.319   3.059   9.931  1.6594 -1.8945 -0.1941
  520MOL0     H70149   6.413   3.109   9.640  0.1458  0.0308  0.3404
  520MOL0     H70150   6.375   3.231   9.764  0.0568  0.4315 -0.6148
  520MOL0     H70151   6.591   3.285   9.907  1.0089  0.5613 -0.4272
  520MOL0     H70152   6.875   3.311   9.920  2.9295  0.6732  0.9630
  520MOL0     H70153   6.897   3.162  10.005  1.3257 -0.6723 -1.1155
  520MOL0     H70154   7.014   3.070   9.788 -1.4435 -0.2231 -0.0270
  520MOL0     H70155   6.990   3.229   9.717  1.7847  1.4316  0.5359
  520MOL0     H70156   7.144   3.163   9.974 -0.2334  2.5177  1.6370
  520MOL0     H70157   7.115   3.334   9.921  0.6294  1.3997 -1.9303
  520MOL0     H70158   7.225   3.245   9.698  1.5378 -0.4183 -0.9070
  520MOL0     H70159   7.271   3.101   9.802  0.2522  0.0635 -0.0073
  520MOL0     H70160   7.579   3.269  10.011 -1.2410 -0.9733 -0.1073
  520MOL0     H70161   7.785   3.195   9.962 -0.4438 -1.7383  0.7647
  520MOL0     H70162   8.091   2.807   9.671  0.7365 -0.3618 -1.4190
  520MOL0     H70163   8.309   2.810   9.553 -1.1787 -0.4464  1.5456
  520MOL0     H70164   8.408   3.102   9.218  1.5732 -0.5509 -0.0193
  520MOL0     H70165   8.424   3.184   9.371  0.8766  0.8817 -0.9463
  520MOL0     H70166   8.629   3.152   9.270 -3.0753  1.2031 -0.5162
  520MOL0     H70167   8.620   3.044   9.417  1.4339 -0.3697 -0.0172
  520MOL0     H70168   8.575   2.855   9.294  2.9645 -3.0993 -2.5554
  520MOL0     H70169   8.560   2.929   9.141  2.6763 -0.4197 -1.6582
  520MOL0     H70170   8.830   2.913   9.282  3.7260 -1.6036 -1.6634
  520MOL0     H70171   8.806   2.984   9.127  1.6212  1.1440  1.8753
  520MOL0     H70172   8.727   2.752   9.051  0.9006  0.8374 -1.1897
  520MOL0     H70173   8.784   2.691   9.206 -1.1818  2.2315  1.7694
  520MOL0     H70174   8.950   2.843   9.000 -0.0169 -0.1797 -0.3252
  520MOL0     H70175   9.010   2.790   9.157  0.7359 -0.0922 -0.7672
  520MOL0     H70176   8.914   2.631   8.915 -0.4228 -0.9827  0.0090
  520MOL0     H70177   8.961   2.555   9.071 -0.5945  0.2710 -2.0880
  520MOL0     H70178   9.142   2.724   8.894  1.1481 -1.2360 -2.9779
  520MOL0     H70179   9.195   2.652   9.048  1.3217  0.8882 -1.4953
  520MOL0     H70180   8.196   3.147   9.327 -0.7700  1.8347  2.6623
  520MOL0     H70181   7.963   3.137   9.420  1.2147  0.9586 -0.0986
  520MOL0     H70182   7.669   3.042   9.572  1.0322  0.5186 -0.2222
  520MOL0     H70183   7.437   3.096   9.637  2.2126  0.6427 -2.5291
  520MOL0     H70184   5.681   3.493  10.059  0.0792  2.2301  0.4992
  520MOL0     H70185   5.492   3.636  10.173  0.4987  2.4794 -1.6758
  520MOL0     H70186   5.005   3.659   9.962 -2.1419 -1.6992  0.0073
  520MOL0     H70187   4.757   3.659   9.991 -1.5192  2.6791  1.0714
  520MOL0     H70188   4.536   3.816  10.340  0.2887 -0.0411  0.8288
  520MOL0     H70189   4.601   3.660  10.393 -1.1081  2.3213  1.9679
  520MOL0     H70190   4.338   3.693  10.251  1.5602 -0.3810 -2.2228
  520MOL0     H70191   4.373   3.635  10.417  1.1734 -0.9000 -0.2357
  520MOL0     H70192   4.527   3.467  10.307  0.3404  1.7692  0.6869
  520MOL0     H70193   4.434   3.507  10.156 -2.4856 -1.0454 -0.5566
  520MOL0     H70194   4.290   3.400  10.402  2.2345  1.0693  0.0228
  520MOL0     H70195   4.227   3.438  10.239  1.9917 -0.5158 -2.4615
  520MOL0     H70196   4.418   3.055  10.225 -1.2551 -0.6744 -0.1076
  520MOL0     H70197   4.813   3.719  10.417  0.0692  4.2694  0.3900
  520MOL0     H70198   5.152   3.615  10.436  0.8495  1.0978 -1.6660
  520MOL0     H70199   5.087   3.778  10.477 -2.2151  1.0930  0.2804
  520MOL0     H70200   4.995   3.632  10.505  0.1022  2.0868  1.3090
  521MOL0     O70201   3.101   7.040   5.960 -0.7127  0.3252  0.1213
  521MOL0     C70202   3.066   7.053   5.847  0.2701 -0.0587  0.0633
  521MOL0     O70203   3.148   7.063   5.741  0.2839  0.0296  0.2715
  521MOL0     C70204   3.276   7.100   5.760  0.2003 -0.1553 -0.0768
  521MOL0     C70205   3.382   7.021   5.791 -0.5061 -0.2040  0.4405
  521MOL0     C70206   3.509   7.078   5.830  0.4270 -0.8892 -0.7698
  521MOL0     C70207   3.522   7.215   5.852 -0.2245  0.3392  0.0047
  521MOL0     O70208   3.642   7.270   5.897  0.6441 -0.0826  0.4096
  521MOL0     C70209   3.699   7.195   6.000 -0.0098  0.7188 -0.3013
  521MOL0     C70210   3.766   7.294   6.097 -0.4784  0.1297 -0.4975
  521MOL0     C70211   3.882   7.370   6.031  0.2243  0.1360 -0.2723
  521MOL0     C70212   3.902   7.510   6.091 -0.3193 -0.0966  0.1538
  521MOL0     C70213   4.030   7.581   6.030  0.9875 -0.0392  0.0228
  521MOL0     C70214   4.037   7.726   6.099  0.3791  0.6876  0.2055
  521MOL0     C70215   4.159   7.809   6.045  0.6183 -0.0787 -0.7056
  521MOL0     C70216   4.146   7.958   6.083  0.3367 -0.0035 -0.3200
  521MOL0     N70217   4.268   8.036   6.068  0.7529 -0.2674  0.4144
  521MOL0     C70218   4.383   7.999   6.135 -0.6539 -0.8848  0.1813
  521MOL0     C70219   4.468   8.103   6.106 -0.3255 -0.4952 -0.2250
  521MOL0     C70220   4.603   8.142   6.156 -0.7722 -0.0307  0.3019
  521MOL0     C70221   4.692   8.226   6.057  0.2948 -0.0354 -0.7653
  521MOL0     C70222   4.842   8.197   6.100 -0.2893 -0.1381 -0.8305
  521MOL0     C70223   4.939   8.308   6.061 -0.2658  0.6625 -0.0659
  521MOL0     O70224   5.070   8.252   6.072  0.0167 -0.2898  0.2630
  521MOL0     C70225   5.156   8.286   5.976  0.3178 -0.4595  0.0148
  521MOL0     C70226   5.277   8.213   5.977 -0.0152  0.3138  0.5789
  521MOL0     C70227   5.370   8.241   5.881  0.9151 -0.1162 -0.2738
  521MOL0     C70228   5.345   8.320   5.774  0.8022 -0.9535  1.1325
  521MOL0     C70229   5.458   8.341   5.675  0.9596  0.2655  0.9854
  521MOL0     O70230   5.529   8.233   5.618 -0.3793  0.3120  0.4947
  521MOL0     C70231   5.649   8.257   5.548  0.2853  0.8105 -0.2902
  521MOL0     C70232   5.762   8.305   5.619 -0.1548  0.5074  0.6517
  521MOL0     C70233   5.885   8.319   5.550 -0.2964  0.1050  1.0067
  521MOL0     C70234   5.897   8.293   5.414 -0.7393  0.0239 -0.7334
  521MOL0     O70235   6.017   8.298   5.350 -0.4725 -0.1366  0.2288
  521MOL0     C70236   6.031   8.224   5.228 -0.2648  0.7618  0.3574
  521MOL0     C70237   6.189   8.212   5.202 -0.4983 -0.1149 -0.0763
  521MOL0     C70238   6.240   8.354   5.146 -0.2342 -0.0065 -0.0034
  521MOL0     C70239   6.392   8.368   5.100  0.5806  0.1042 -1.4439
  521MOL0     C70240   6.423   8.327   4.957  0.9616 -0.6777  0.3507
  521MOL0     C70241   6.340   8.389   4.844  0.2976 -0.0212 -0.4604
  521MOL0     C70242   6.403   8.368   4.703  0.2194 -0.2793  0.2595
  521MOL0     C70243   6.372   8.235   4.636  0.0536  0.4378 -0.4698
  521MOL0    Cl70244   6.199   8.219   4.591  0.4104  0.1146  0.2332
  521MOL0     C70245   5.783   8.257   5.339  0.5565 -0.5246 -0.4688
  521MOL0     C70246   5.659   8.236   5.408  0.1156 -0.4323 -0.0750
  521MOL0     O70247   5.483   8.457   5.647  0.4762 -0.0531  0.4616
  521MOL0     C70248   5.219   8.391   5.761 -0.0988 -0.0871 -0.6724
  521MOL0     C70249   5.123   8.375   5.866  0.5308 -0.0528 -0.9088
  521MOL0     N70250   4.398   8.195   6.025 -0.0811 -0.8132 -0.2587
  521MOL0     N70251   4.277   8.159   6.010 -0.3553 -0.5897  0.3545
  521MOL0     C70252   3.415   7.294   5.816  0.3573 -0.3570  1.0617
  521MOL0     C70253   3.295   7.237   5.773  0.2295  0.3408  0.2360
  521MOL0     C70254   2.923   7.044   5.824 -0.2259  0.0909 -0.5095
  521MOL0     C70255   2.881   6.938   5.741 -0.7085  0.1106  0.4588
  521MOL0     C70256   2.751   6.924   5.699  0.1868 -0.1976  0.2470
  521MOL0     C70257   2.649   7.018   5.723 -0.6203 -0.9702 -0.1196
  521MOL0     O70258   2.527   7.001   5.668  0.4130 -0.1568 -0.3073
  521MOL0     C70259   2.425   7.101   5.676  0.3359 -0.0160  0.3100
  521MOL0     C70260   2.290   7.040   5.648  0.0524  0.0132  0.3648
  521MOL0     C70261   2.239   6.952   5.768 -0.6463  0.1208 -0.2529
  521MOL0     C70262   2.135   7.030   5.839 -0.0020 -0.1204 -0.3832
  521MOL0     C70263   2.082   6.955   5.959 -0.7118 -0.3514  0.2572
  521MOL0     C70264   2.035   6.884   6.048  0.4854  0.3604 -0.2086
  521MOL0     C70265   2.689   7.117   5.821 -0.1081 -0.2772  0.7037
  521MOL0     C70266   2.822   7.127   5.869  0.3269  0.1876  0.0617
  521MOL0     C70267   2.851   7.229   5.967 -0.0196  0.5568 -0.7193
  521MOL0     H70268   3.363   6.915   5.793  2.1231 -0.7642  3.0407
  521MOL0     H70269   3.593   7.012   5.849  1.3518  0.2913 -0.6574
  521MOL0     H70270   3.623   7.149   6.064 -1.6112  1.2349 -1.7540
  521MOL0     H70271   3.779   7.124   5.977  0.4148  0.6872  1.1658
  521MOL0     H70272   3.796   7.229   6.180  0.8847  2.0292  0.5922
  521MOL0     H70273   3.698   7.371   6.136  0.9403  0.2621  1.9197
  521MOL0     H70274   3.867   7.378   5.923 -2.0436 -1.8865 -0.2210
  521MOL0     H70275   3.969   7.306   6.043  1.5330  1.8700 -0.1718
  521MOL0     H70276   3.811   7.562   6.063 -1.4701 -1.8419  0.4655
  521MOL0     H70277   3.908   7.506   6.200  2.1822  1.0317  0.1267
  521MOL0     H70278   4.118   7.534   6.075  0.7200  2.3782  3.5158
  521MOL0     H70279   4.032   7.581   5.921 -0.3215 -1.5038 -0.0237
  521MOL0     H70280   3.947   7.782   6.072 -0.1105 -1.0168 -1.9874
  521MOL0     H70281   4.038   7.709   6.207  3.1901  1.2914  0.3421
  521MOL0     H70282   4.182   7.782   5.942  2.2501 -1.7737  0.0527
  521MOL0     H70283   4.238   7.765   6.106 -2.1423 -2.7602  1.2820
  521MOL0     H70284   4.078   8.004   6.011 -0.6326 -1.6328 -0.4999
  521MOL0     H70285   4.104   7.963   6.184  1.2405 -2.3451  0.2593
  521MOL0     H70286   4.394   7.918   6.206  2.5470  0.3899  1.3000
  521MOL0     H70287   4.573   8.202   6.242  0.2711  0.1699  0.5415
  521MOL0     H70288   4.651   8.057   6.206  2.3297  1.4840  0.1155
  521MOL0     H70289   4.680   8.212   5.949  0.3829  1.1171 -0.9293
  521MOL0     H70290   4.663   8.330   6.073 -2.2462 -0.4041 -2.3754
  521MOL0     H70291   4.883   8.105   6.057  1.5763  0.1469  0.2340
  521MOL0     H70292   4.853   8.164   6.204  0.8859  0.4455 -0.7553
  521MOL0     H70293   4.928   8.389   6.134 -0.0588  0.1485  0.5442
  521MOL0     H70294   4.903   8.350   5.967 -0.6031  0.7364  0.0916
  521MOL0     H70295   5.288   8.127   6.044  1.4486 -1.7054 -2.0745
  521MOL0     H70296   5.466   8.190   5.878  1.4293  0.7030  1.3126
  521MOL0     H70297   5.750   8.331   5.724 -1.2858  2.5712  0.0601
  521MOL0     H70298   5.979   8.354   5.592 -0.8241  2.0675  0.6702
  521MOL0     H70299   5.987   8.124   5.236 -2.6514  1.6927 -0.3805
  521MOL0     H70300   5.988   8.281   5.146 -0.5882  1.9203  1.3026
  521MOL0     H70301   6.232   8.201   5.302  0.0209  2.1023 -0.0038
  521MOL0     H70302   6.219   8.130   5.137 -0.2725 -0.1638  0.0875
  521MOL0     H70303   6.183   8.403   5.067 -0.5309  2.1641  1.4662
  521MOL0     H70304   6.229   8.423   5.231  0.5674 -0.5184  0.5270
  521MOL0     H70305   6.455   8.303   5.163 -3.1815 -4.6299 -1.9305
  521MOL0     H70306   6.413   8.473   5.119 -0.1695 -0.2988  2.6373
  521MOL0     H70307   6.426   8.219   4.939  1.5487 -0.2728 -2.3710
  521MOL0     H70308   6.526   8.361   4.944 -0.9520  5.8428 -1.3302
  521MOL0     H70309   6.239   8.345   4.842  0.8591 -1.3647 -0.6757
  521MOL0     H70310   6.335   8.493   4.876  3.0548  0.8055 -2.3473
  521MOL0     H70311   6.511   8.387   4.700 -0.0397  1.2335 -2.2035
  521MOL0     H70312   6.355   8.441   4.638 -0.9862 -3.3127 -2.5227
  521MOL0     H70313   6.440   8.212   4.554  0.6031  0.4478 -0.0287
  521MOL0     H70314   6.401   8.159   4.710  0.0774 -1.5948 -2.4818
  521MOL0     H70315   5.797   8.243   5.232 -1.4764 -2.3394 -0.5757
  521MOL0     H70316   5.568   8.223   5.351 -0.6586  3.4614  0.0111
  521MOL0     H70317   5.214   8.452   5.671  0.5218  1.3372  0.2243
  521MOL0     H70318   5.039   8.443   5.856  0.9001  0.8169  1.3512
  521MOL0     H70319   3.422   7.402   5.807 -0.5003 -0.2733  1.3134
  521MOL0     H70320   3.227   7.308   5.726  2.7454  2.5244 -0.3816
  521MOL0     H70321   2.955   6.864   5.713  2.7133  3.4126 -0.1218
  521MOL0     H70322   2.736   6.844   5.628  0.5953 -0.6615  0.6815
  521MOL0     H70323   2.432   7.180   5.601  0.7585  0.3161  0.6918
  521MOL0     H70324   2.423   7.154   5.772  3.6833  0.4423  0.2468
  521MOL0     H70325   2.311   6.968   5.568 -2.1743 -1.6787  1.2243
  521MOL0     H70326   2.212   7.100   5.600  0.3750 -0.5230 -0.8704
  521MOL0     H70327   2.325   6.924   5.829 -0.6332  1.4740  0.3848
  521MOL0     H70328   2.197   6.859   5.728 -1.6420  0.0579  0.8974
  521MOL0     H70329   2.182   7.121   5.877 -1.5290  1.2223 -1.5532
  521MOL0     H70330   2.053   7.059   5.772  0.6563  0.8665 -0.7665
  521MOL0     H70331   1.984   6.817   6.114 -0.2137  3.8295  3.0926
  521MOL0     H70332   2.617   7.192   5.851  3.9167  3.1131  3.0230
  521MOL0     H70333   2.818   7.187   6.063  0.7159  0.3282 -0.5620
  521MOL0     H70334   2.954   7.265   5.968 -0.2207  1.2682 -2.5967
  521MOL0     H70335   2.787   7.315   5.948 -2.4453 -1.4790 -2.5724
  522MOL0     O70336   6.341   2.897  11.137  0.0953 -0.0817 -0.6173
  522MOL0     C70337   6.319   2.990  11.062  0.3736  0.9124  0.0573
  522MOL0     O70338   6.361   2.999  10.938  0.5720  0.3133 -0.4739
  522MOL0     C70339   6.457   2.912  10.892  0.9212 -0.3931 -0.1262
  522MOL0     C70340   6.437   2.865  10.760 -0.2680  0.3926  0.7320
  522MOL0     C70341   6.548   2.799  10.693 -0.2704 -0.0048  0.2567
  522MOL0     C70342   6.667   2.775  10.766  0.0359 -0.4016 -0.3162
  522MOL0     O70343   6.761   2.707  10.697  0.2539  0.0043  0.6318
  522MOL0     C70344   6.895   2.711  10.749  1.1773 -0.3973  0.0405
  522MOL0     C70345   6.992   2.705  10.637  0.3400 -0.3552  0.5866
  522MOL0     C70346   6.962   2.808  10.522 -0.7017 -0.5511  0.1783
  522MOL0     C70347   7.076   2.818  10.412 -0.4648 -0.8942  0.1138
  522MOL0     C70348   7.069   2.949  10.320 -0.3315  0.6238 -0.9181
  522MOL0     C70349   7.165   2.942  10.204  0.7662  0.2597 -0.0515
  522MOL0     C70350   7.297   2.982  10.270  0.5886  0.1005  0.0930
  522MOL0     C70351   7.418   2.997  10.165 -0.1056 -0.5338  0.0009
  522MOL0     N70352   7.550   2.996  10.227 -0.3245 -0.0252  0.3887
  522MOL0     C70353   7.593   2.918  10.329 -1.1057  0.5566 -0.8201
  522MOL0     C70354   7.696   2.973  10.402  0.6826 -0.2856  0.7886
  522MOL0     C70355   7.769   2.917  10.519 -0.1314  0.3803  0.2043
  522MOL0     C70356   7.782   3.011  10.644  0.5339  0.8207 -0.6904
  522MOL0     C70357   7.827   2.935  10.768 -0.4177  0.6453  0.3635
  522MOL0     C70358   7.969   2.866  10.759  0.5796  0.3759 -0.2131
  522MOL0     O70359   8.054   2.967  10.797 -0.7945  0.3252  0.1369
  522MOL0     C70360   8.180   2.951  10.749  0.4399  0.5531 -0.4588
  522MOL0     C70361   8.222   3.025  10.639 -0.9038 -0.5132 -0.3493
  522MOL0     C70362   8.343   2.988  10.576 -0.0235 -0.1248  0.6576
  522MOL0     C70363   8.432   2.893  10.638  0.2889  0.0579  1.2325
  522MOL0     C70364   8.560   2.861  10.575 -0.4192 -0.0719 -0.6293
  522MOL0     O70365   8.613   2.924  10.466 -0.0718 -0.1056  0.3518
  522MOL0     C70366   8.733   2.894  10.403 -0.2059  0.8996  1.0407
  522MOL0     C70367   8.845   2.827  10.471  0.3825 -0.4643 -0.1241
  522MOL0     C70368   8.956   2.798  10.388 -0.1177  0.0066  0.3692
  522MOL0     C70369   8.956   2.821  10.252  0.4846 -0.5149 -0.4171
  522MOL0     O70370   9.055   2.777  10.166 -0.5038  0.0375  0.5284
  522MOL0     C70371   9.083   2.637  10.164  0.2303  0.0540  0.5839
  522MOL0     C70372   9.229   2.596  10.118  0.0457 -0.1048  0.2935
  522MOL0     C70373   9.251   2.624   9.969 -0.1326  0.2358  0.6081
  522MOL0     C70374   9.398   2.602   9.928  0.9256 -0.9829 -0.3209
  522MOL0     C70375   9.435   2.616   9.779  0.6689 -0.0271  0.0326
  522MOL0     C70376   9.399   2.506   9.686  0.0481  0.5822  0.3080
  522MOL0     C70377   9.359   2.561   9.553  0.4621 -1.0740 -0.4361
  522MOL0     C70378   9.322   2.454   9.448 -0.7017  0.2992  0.1697
  522MOL0    Cl70379   9.188   2.520   9.340 -0.4919 -0.5508  0.2843
  522MOL0     C70380   8.856   2.894  10.192  0.2285  1.1308 -0.1766
  522MOL0     C70381   8.740   2.932  10.268 -0.2134  1.6356  0.7294
  522MOL0     O70382   8.609   2.758  10.618  0.2054  0.4224  0.4090
  522MOL0     C70383   8.383   2.820  10.746 -0.0640 -0.8217 -0.6417
  522MOL0     C70384   8.269   2.852  10.803  0.3565 -0.6687  0.6275
  522MOL0     N70385   7.708   3.099  10.346 -0.6457  0.7550  0.0743
  522MOL0     N70386   7.628   3.107  10.245  0.7257 -0.8908 -0.4755
  522MOL0     C70387   6.674   2.814  10.902 -0.1060 -0.7015 -0.3237
  522MOL0     C70388   6.566   2.882  10.967 -0.1685  1.1667 -0.1974
  522MOL0     C70389   6.249   3.108  11.117 -0.2366 -0.3890  0.2611
  522MOL0     C70390   6.109   3.101  11.131 -0.5844  0.1748  0.6147
  522MOL0     C70391   6.045   3.219  11.172  0.0637 -0.4335 -1.1354
  522MOL0     C70392   6.109   3.341  11.181 -1.0748 -0.2374  0.0640
  522MOL0     O70393   6.061   3.456  11.234  0.1014 -0.2796  0.2561
  522MOL0     C70394   5.920   3.475  11.238 -0.2210  0.3970  0.5851
  522MOL0     C70395   5.878   3.609  11.293 -0.0649  1.3983 -0.6426
  522MOL0     C70396   5.731   3.596  11.312 -0.5576  0.6221  0.4744
  522MOL0     C70397   5.678   3.707  11.397  0.5004 -0.9577 -0.1527
  522MOL0     C70398   5.540   3.678  11.440 -0.4494  0.2743 -0.7731
  522MOL0     C70399   5.415   3.670  11.455 -0.9194  0.5555  0.0516
  522MOL0     C70400   6.246   3.341  11.155 -0.1471 -0.5107  0.1661
  522MOL0     C70401   6.319   3.231  11.125 -0.3850  0.0878 -1.0539
  522MOL0     C70402   6.474   3.242  11.108  0.1900  0.1671 -0.5020
  522MOL0     H70403   6.341   2.885  10.714 -0.0612 -0.6878 -0.1985
  522MOL0     H70404   6.546   2.771  10.589  0.7141  1.5951 -0.2304
  522MOL0     H70405   6.913   2.804  10.803 -1.9391  1.1565 -1.3858
  522MOL0     H70406   6.919   2.625  10.812  0.2163 -1.4063 -0.9323
  522MOL0     H70407   6.975   2.607  10.592  1.0989 -0.1931 -0.0597
  522MOL0     H70408   7.094   2.706  10.675  0.0260 -2.4204  1.6052
  522MOL0     H70409   6.946   2.909  10.561 -2.2328 -0.1611 -1.3547
  522MOL0     H70410   6.868   2.770  10.481 -0.8341 -0.9580  0.8292
  522MOL0     H70411   7.178   2.807  10.450  0.1674 -0.9952 -1.5369
  522MOL0     H70412   7.056   2.732  10.347 -1.6047 -0.2273 -0.4476
  522MOL0     H70413   6.963   2.958  10.291 -2.8682 -2.1653  5.5206
  522MOL0     H70414   7.089   3.035  10.385 -3.1180  0.8891 -0.2701
  522MOL0     H70415   7.161   2.841  10.162 -0.8732  0.5692 -0.7331
  522MOL0     H70416   7.126   3.012  10.130  0.5557  1.4257  1.1301
  522MOL0     H70417   7.336   2.917  10.348  2.4307 -0.0420 -0.8783
  522MOL0     H70418   7.286   3.082  10.314  1.6144  1.5860 -2.7564
  522MOL0     H70419   7.417   2.916  10.091  4.5680 -0.9635  0.1247
  522MOL0     H70420   7.411   3.091  10.109 -1.3266 -1.3949 -1.3754
  522MOL0     H70421   7.554   2.819  10.349 -1.2477  0.5563 -1.1000
  522MOL0     H70422   7.729   2.822  10.555  2.9447  0.1177  3.5829
  522MOL0     H70423   7.868   2.909  10.474  0.3291  0.6976  1.1202
  522MOL0     H70424   7.846   3.099  10.635  2.1703 -0.3658 -1.0482
  522MOL0     H70425   7.688   3.059  10.674  0.1700 -0.5601  0.5295
  522MOL0     H70426   7.753   2.858  10.791 -0.1730 -0.5135 -2.3922
  522MOL0     H70427   7.820   3.006  10.851  2.7870  0.8769  0.5686
  522MOL0     H70428   8.001   2.836  10.659  1.7750 -0.1829  0.3232
  522MOL0     H70429   7.967   2.783  10.830 -2.4278  0.7402  0.2704
  522MOL0     H70430   8.173   3.113  10.598 -2.5906 -1.0789  0.3602
  522MOL0     H70431   8.386   3.049  10.498 -1.5542  1.1836  0.8022
  522MOL0     H70432   8.842   2.793  10.574 -2.1965 -2.8214 -0.8456
  522MOL0     H70433   9.039   2.741  10.427 -1.2781 -1.4400  0.8169
  522MOL0     H70434   9.048   2.590  10.257 -1.5685  0.7369  0.2994
  522MOL0     H70435   9.019   2.598  10.084  0.5579 -1.5826  1.0765
  522MOL0     H70436   9.306   2.650  10.173  1.3022  1.4812 -2.8172
  522MOL0     H70437   9.241   2.488  10.132 -0.9791 -0.1946  0.6150
  522MOL0     H70438   9.190   2.555   9.909 -1.0405  1.1351  0.4790
  522MOL0     H70439   9.218   2.724   9.941  2.1098  0.8268 -0.2038
  522MOL0     H70440   9.431   2.505   9.966  0.0869 -1.4500 -0.7474
  522MOL0     H70441   9.448   2.679   9.986  0.1138 -0.2752 -0.5485
  522MOL0     H70442   9.542   2.635   9.765  0.2341  1.2041 -2.0340
  522MOL0     H70443   9.401   2.712   9.738  1.2293 -0.3832 -1.3278
  522MOL0     H70444   9.488   2.445   9.666 -0.3862  0.1160 -0.2193
  522MOL0     H70445   9.326   2.436   9.727  0.4342 -1.3423 -2.0805
  522MOL0     H70446   9.435   2.631   9.517 -2.9415  1.8978 -2.5137
  522MOL0     H70447   9.273   2.623   9.578  1.7361  0.0770  1.2825
  522MOL0     H70448   9.411   2.422   9.395 -0.7625 -2.1218  1.4186
  522MOL0     H70449   9.292   2.366   9.505  0.6741  0.6804  1.5544
  522MOL0     H70450   8.858   2.905  10.084  0.9851 -1.2376 -0.4727
  522MOL0     H70451   8.660   2.984  10.217  1.1017  2.5753 -0.4238
  522MOL0     H70452   8.442   2.742  10.794  1.9310  1.4354  0.8223
  522MOL0     H70453   8.236   2.797  10.891 -1.3700 -0.0531  0.4090
  522MOL0     H70454   6.761   2.793  10.963  0.1176 -0.4254 -0.5461
  522MOL0     H70455   6.580   2.901  11.072 -0.4539  0.3333  0.0003
  522MOL0     H70456   6.055   3.007  11.122 -1.0482  0.6217 -2.2681
  522MOL0     H70457   5.939   3.215  11.197  0.0459 -1.2528 -1.3060
  522MOL0     H70458   5.877   3.406  11.311  1.3883 -0.4453  0.7788
  522MOL0     H70459   5.873   3.452  11.142  0.5963  0.0824  0.2541
  522MOL0     H70460   5.903   3.688  11.222 -1.2671  2.7294  0.3644
  522MOL0     H70461   5.935   3.632  11.384 -0.4578 -2.1965  0.6909
  522MOL0     H70462   5.702   3.504  11.364  0.4036 -0.6874 -1.2154
  522MOL0     H70463   5.690   3.611  11.212 -0.1309  1.1546  0.3721
  522MOL0     H70464   5.732   3.726  11.491 -1.2545  1.8008  0.4360
  522MOL0     H70465   5.673   3.801  11.341 -1.3663 -1.3019 -0.6254
  522MOL0     H70466   5.313   3.643  11.473 -0.2994 -1.0100  1.6030
  522MOL0     H70467   6.289   3.438  11.135 -2.0357  0.9797  2.7596
  522MOL0     H70468   6.517   3.328  11.161  2.3098 -0.8682 -0.4446
  522MOL0     H70469   6.533   3.161  11.151  1.3011  1.0729 -0.2512
  522MOL0     H70470   6.492   3.252  11.001  1.0935  1.3717 -0.2697
  523MOL0     O70471   4.674   2.185   3.269  0.1453 -0.2079 -0.1840
  523MOL0     C70472   4.613   2.288   3.255 -0.8193  0.5003 -1.0281
  523MOL0     O70473   4.669   2.407   3.212  0.4150  0.6020 -0.3725
  523MOL0     C70474   4.805   2.415   3.205  0.5386  0.0592  0.7690
  523MOL0     C70475   4.853   2.428   3.075 -0.0202  0.0631  0.1496
  523MOL0     C70476   4.995   2.434   3.067 -0.5323 -0.6869  0.2790
  523MOL0     C70477   5.088   2.439   3.180 -0.7895  0.4059 -0.2393
  523MOL0     O70478   5.227   2.450   3.175 -0.0215  0.0453  0.3315
  523MOL0     C70479   5.283   2.482   3.048  0.2220 -0.3608 -1.1011
  523MOL0     C70480   5.429   2.519   3.043 -0.0430  0.6121 -0.5628
  523MOL0     C70481   5.459   2.648   3.117  0.1997  0.7463  0.5997
  523MOL0     C70482   5.608   2.677   3.123 -0.7565 -0.0533 -0.0033
  523MOL0     C70483   5.664   2.722   2.993 -0.7869 -0.0878  0.7055
  523MOL0     C70484   5.798   2.792   3.000 -0.2198  0.5059 -0.1620
  523MOL0     C70485   5.910   2.703   3.060 -0.2879  0.1960 -0.4002
  523MOL0     C70486   6.042   2.775   3.056 -0.5015  0.2236  0.6842
  523MOL0     N70487   6.076   2.843   3.178 -0.4798 -1.0119 -0.6324
  523MOL0     C70488   6.191   2.847   3.255  0.4363  0.0425 -0.1198
  523MOL0     C70489   6.159   2.907   3.376  0.5927 -0.0357  0.1558
  523MOL0     C70490   6.240   2.901   3.505 -1.1290  0.0778  0.4270
  523MOL0     C70491   6.394   2.922   3.493  0.4862  1.1345  0.3418
  523MOL0     C70492   6.461   2.942   3.631 -0.1684 -0.4233 -0.3254
  523MOL0     C70493   6.605   2.969   3.622  0.0202 -1.0862 -0.5535
  523MOL0     O70494   6.665   2.844   3.622 -0.3880  0.6004 -0.5571
  523MOL0     C70495   6.804   2.821   3.603  0.2528 -0.1554 -0.2129
  523MOL0     C70496   6.897   2.925   3.598  0.1285  0.1939  0.2014
  523MOL0     C70497   7.033   2.918   3.569  0.2082  0.1406  0.1938
  523MOL0     C70498   7.088   2.787   3.546  0.0910  0.3472  0.0947
  523MOL0     C70499   7.224   2.763   3.502  0.2943  1.0830 -0.1516
  523MOL0     O70500   7.295   2.661   3.564 -0.7885  0.2885 -0.2386
  523MOL0     C70501   7.430   2.645   3.519  0.4987 -0.3570 -0.1711
  523MOL0     C70502   7.524   2.748   3.522 -0.1684 -0.4927 -0.2554
  523MOL0     C70503   7.657   2.722   3.486  0.6916 -0.4154 -0.0835
  523MOL0     C70504   7.694   2.594   3.442 -0.5588 -0.7057  0.0641
  523MOL0     O70505   7.829   2.565   3.421  0.2353 -0.4428  0.3107
  523MOL0     C70506   7.867   2.442   3.350 -0.0742 -0.1021 -0.3751
  523MOL0     C70507   8.019   2.426   3.384  0.1017  0.4536  0.4679
  523MOL0     C70508   8.095   2.332   3.291 -0.4005 -0.4659 -0.9623
  523MOL0     C70509   8.251   2.313   3.304 -0.2412  0.2841  1.1822
  523MOL0     C70510   8.306   2.447   3.265 -0.5953  0.1949  0.6602
  523MOL0     C70511   8.455   2.428   3.219 -0.0176  0.3827  0.7294
  523MOL0     C70512   8.531   2.558   3.200  0.7256  0.2596 -0.1447
  523MOL0     C70513   8.670   2.541   3.139 -0.0971  0.1600 -0.9877
  523MOL0    Cl70514   8.658   2.546   2.958 -0.0699 -0.3199 -0.4532
  523MOL0     C70515   7.599   2.498   3.442 -0.1431  0.1878  0.0465
  523MOL0     C70516   7.470   2.524   3.483  0.0690  0.1654  0.0534
  523MOL0     O70517   7.272   2.852   3.440  0.9710 -0.5941 -0.0460
  523MOL0     C70518   7.000   2.676   3.563 -0.1559 -0.0833 -0.8793
  523MOL0     C70519   6.862   2.693   3.595 -0.7591  0.3880  0.1201
  523MOL0     N70520   6.038   2.961   3.368  0.0419  0.1338  0.8073
  523MOL0     N70521   5.989   2.922   3.251  0.5394 -0.3301  0.7899
  523MOL0     C70522   5.021   2.438   3.306 -1.2974 -0.5153 -0.4668
  523MOL0     C70523   4.886   2.421   3.321 -0.0076  0.1619 -0.5770
  523MOL0     C70524   4.472   2.259   3.257  0.7009 -0.7321  0.3650
  523MOL0     C70525   4.415   2.210   3.377 -0.2982 -1.1177  0.5597
  523MOL0     C70526   4.285   2.166   3.389 -0.4525  0.3532 -0.0516
  523MOL0     C70527   4.206   2.179   3.271 -0.3956 -0.2843 -0.0864
  523MOL0     O70528   4.074   2.148   3.291  0.4519  0.2733 -0.6654
  523MOL0     C70529   3.968   2.174   3.195  0.3311 -0.3142 -0.8949
  523MOL0     C70530   3.842   2.116   3.257  0.1414  0.1882  0.3916
  523MOL0     C70531   3.807   2.180   3.394  0.4413 -0.3302  0.8988
  523MOL0     C70532   3.776   2.077   3.500  0.1750  0.9119  0.5772
  523MOL0     C70533   3.646   2.008   3.483 -0.0663  0.1396 -0.8694
  523MOL0     C70534   3.541   1.951   3.477 -0.1451  0.4446 -0.2177
  523MOL0     C70535   4.254   2.245   3.153 -0.8627  0.3002  0.4344
  523MOL0     C70536   4.388   2.285   3.145  0.4593  0.1296  0.2384
  523MOL0     C70537   4.436   2.340   3.013 -1.2055 -0.1849 -0.4490
  523MOL0     H70538   4.795   2.439   2.984  2.0863  5.7553 -0.9465
  523MOL0     H70539   5.027   2.446   2.964 -2.5005  2.0448 -0.1143
  523MOL0     H70540   5.280   2.395   2.982  0.7819 -1.3166  0.0982
  523MOL0     H70541   5.217   2.558   3.004 -2.9424 -0.3205  3.1262
  523MOL0     H70542   5.463   2.548   2.943  0.0454  1.0734 -0.4026
  523MOL0     H70543   5.487   2.430   3.071  0.2094  0.9010 -0.1362
  523MOL0     H70544   5.430   2.624   3.220 -0.0325 -2.1869 -0.0485
  523MOL0     H70545   5.405   2.732   3.073  2.4359  1.2591 -1.3296
  523MOL0     H70546   5.617   2.760   3.193 -1.3426  2.6470 -2.8680
  523MOL0     H70547   5.664   2.588   3.153  0.1597  0.1854 -0.9251
  523MOL0     H70548   5.668   2.639   2.922  1.0728  0.6590 -0.1299
  523MOL0     H70549   5.586   2.791   2.958 -0.7662 -2.1013 -4.1263
  523MOL0     H70550   5.823   2.808   2.894  2.8994 -1.4529  0.1573
  523MOL0     H70551   5.785   2.888   3.051 -0.5009  0.4147 -0.0609
  523MOL0     H70552   5.923   2.608   3.008  1.7245 -0.8766  1.8397
  523MOL0     H70553   5.899   2.683   3.167 -1.0609  0.2389 -0.4674
  523MOL0     H70554   6.113   2.697   3.026 -1.3909 -0.4505  0.2708
  523MOL0     H70555   6.040   2.849   2.975  0.6781  0.0740  0.4955
  523MOL0     H70556   6.284   2.793   3.235 -0.0679 -1.1320  0.6017
  523MOL0     H70557   6.205   2.980   3.572  0.3702  0.2216  1.0843
  523MOL0     H70558   6.226   2.801   3.548  0.7181  0.5664  2.3101
  523MOL0     H70559   6.440   2.837   3.441  1.9094  1.3492  1.2019
  523MOL0     H70560   6.418   3.009   3.431 -2.0556  1.5699 -0.1396
  523MOL0     H70561   6.428   2.857   3.691 -1.3106  0.3533  0.1833
  523MOL0     H70562   6.417   3.033   3.673  1.0122 -1.3458  3.2226
  523MOL0     H70563   6.626   3.035   3.706 -0.6567 -2.3335  0.6432
  523MOL0     H70564   6.628   3.020   3.527 -4.7212  1.6987 -0.4820
  523MOL0     H70565   6.857   3.023   3.624 -1.2779 -0.0736 -0.8085
  523MOL0     H70566   7.076   3.017   3.553  0.7557 -0.2851 -1.1462
  523MOL0     H70567   7.487   2.844   3.555 -1.4551  0.1350 -3.1769
  523MOL0     H70568   7.729   2.803   3.493 -0.1234  0.2386  0.9667
  523MOL0     H70569   7.823   2.355   3.400 -0.2999  0.9635  1.3566
  523MOL0     H70570   7.843   2.438   3.243  2.3840 -0.4554 -0.9590
  523MOL0     H70571   8.058   2.528   3.380  0.1953  0.3901 -0.2734
  523MOL0     H70572   8.013   2.369   3.478 -1.7345 -1.1528 -0.5464
  523MOL0     H70573   8.055   2.233   3.312 -1.3469 -0.1168 -1.1025
  523MOL0     H70574   8.069   2.368   3.191 -1.2161  0.6747 -0.3626
  523MOL0     H70575   8.295   2.234   3.241  3.1437  1.1517  2.2331
  523MOL0     H70576   8.275   2.298   3.409 -0.4243 -0.2220  1.1522
  523MOL0     H70577   8.299   2.517   3.348  0.9715  1.8370 -0.5072
  523MOL0     H70578   8.249   2.488   3.181 -0.3192 -1.5148 -0.4259
  523MOL0     H70579   8.508   2.372   3.297 -0.7624  0.8280  1.5664
  523MOL0     H70580   8.462   2.378   3.122 -0.0943  1.5005  0.1335
  523MOL0     H70581   8.543   2.595   3.302 -0.4666 -0.5412  0.3171
  523MOL0     H70582   8.489   2.643   3.146  1.8777 -0.0438 -1.5841
  523MOL0     H70583   8.739   2.617   3.177  0.6804 -0.4714 -1.1198
  523MOL0     H70584   8.721   2.449   3.166 -0.3197 -0.1153 -1.4894
  523MOL0     H70585   7.621   2.401   3.398 -3.2428 -0.5906 -0.0510
  523MOL0     H70586   7.404   2.437   3.477  1.7627 -1.0721 -1.9608
  523MOL0     H70587   7.032   2.573   3.548 -1.8887 -0.7591 -0.2296
  523MOL0     H70588   6.798   2.606   3.610 -0.0900 -0.2189 -0.4565
  523MOL0     H70589   5.090   2.430   3.389  0.9972  1.1095 -2.0697
  523MOL0     H70590   4.847   2.421   3.422  0.5188 -0.1989 -0.3659
  523MOL0     H70591   4.476   2.219   3.466 -0.6541  1.1232  0.6391
  523MOL0     H70592   4.240   2.127   3.480 -1.4253  1.8566  0.1631
  523MOL0     H70593   3.989   2.130   3.097  3.4125 -0.9667 -0.0274
  523MOL0     H70594   3.959   2.283   3.184  1.5174 -0.0447  0.5429
  523MOL0     H70595   3.858   2.008   3.255  4.3432  0.6418 -0.7620
  523MOL0     H70596   3.756   2.143   3.194 -1.8446 -1.0145  2.4572
  523MOL0     H70597   3.719   2.245   3.383  0.0808 -0.6394  1.8664
  523MOL0     H70598   3.885   2.246   3.433 -2.5487  2.7335  2.1839
  523MOL0     H70599   3.860   2.008   3.514  0.3202  1.1053  0.6675
  523MOL0     H70600   3.781   2.132   3.594 -1.7025 -0.3515  1.4643
  523MOL0     H70601   3.453   1.890   3.475  0.5848 -0.6527  0.2802
  523MOL0     H70602   4.179   2.249   3.074  0.5417  0.5182 -0.9366
  523MOL0     H70603   4.460   2.446   3.024 -0.1168 -0.4691  0.0888
  523MOL0     H70604   4.530   2.289   2.989  0.0168  1.7603  0.0225
  523MOL0     H70605   4.355   2.304   2.950 -0.9564 -2.8662  0.5826
  524MOL0     O70606   1.399   2.575   6.686 -0.4680  0.6244  0.4994
  524MOL0     C70607   1.308   2.594   6.759  0.7132 -0.0688 -0.0566
  524MOL0     O70608   1.283   2.524   6.880 -0.4265 -0.5244  0.4907
  524MOL0     C70609   1.394   2.504   6.961 -0.2370  0.4619 -0.4249
  524MOL0     C70610   1.403   2.400   7.058  0.0365 -0.0157  1.0779
  524MOL0     C70611   1.513   2.391   7.139 -0.1722 -0.0449  0.6774
  524MOL0     C70612   1.604   2.493   7.143 -1.2650 -1.7032  0.0311
  524MOL0     O70613   1.705   2.490   7.240  0.1192 -0.2442 -0.0155
  524MOL0     C70614   1.842   2.504   7.199  0.8656  0.5715  0.0723
  524MOL0     C70615   1.933   2.403   7.267  0.2579 -0.1789 -0.2252
  524MOL0     C70616   2.065   2.384   7.208  0.7692  0.1359 -0.5917
  524MOL0     C70617   2.164   2.496   7.236  0.4819  0.1722  0.3073
  524MOL0     C70618   2.314   2.455   7.213  1.1179  0.0185  0.0909
  524MOL0     C70619   2.397   2.570   7.271 -0.4285  0.4097  0.3011
  524MOL0     C70620   2.546   2.543   7.238  0.4001 -0.4781 -0.0237
  524MOL0     C70621   2.642   2.584   7.346 -0.2833 -0.0009 -1.3362
  524MOL0     N70622   2.780   2.545   7.314  0.1692  0.4533 -0.6649
  524MOL0     C70623   2.868   2.617   7.234  0.2679  0.0845 -0.2146
  524MOL0     C70624   2.978   2.537   7.250  0.0666 -0.7313 -0.2827
  524MOL0     C70625   3.109   2.576   7.182  0.0278  0.1996 -0.4546
  524MOL0     C70626   3.237   2.522   7.245 -0.6112  0.8597  0.1985
  524MOL0     C70627   3.249   2.364   7.224  0.0334  0.1281 -0.1280
  524MOL0     C70628   3.384   2.330   7.270 -0.6556  0.2681  0.8887
  524MOL0     O70629   3.468   2.305   7.154 -0.6577  0.1531 -0.6494
  524MOL0     C70630   3.601   2.284   7.186 -0.7098 -0.3235  0.1123
  524MOL0     C70631   3.702   2.251   7.091 -0.3446 -0.2363  0.6797
  524MOL0     C70632   3.839   2.227   7.128 -0.4070 -0.7743  0.0807
  524MOL0     C70633   3.879   2.233   7.261  0.7884 -0.0861  0.0780
  524MOL0     C70634   4.014   2.227   7.295 -0.5745 -0.1546 -0.6739
  524MOL0     O70635   4.038   2.196   7.426  0.7993  0.9822 -0.0223
  524MOL0     C70636   4.166   2.182   7.462  0.4217 -1.2126 -0.1107
  524MOL0     C70637   4.200   2.086   7.565  0.4964  0.4178  0.0258
  524MOL0     C70638   4.332   2.053   7.595  0.6317  0.7843  0.0316
  524MOL0     C70639   4.435   2.128   7.538 -0.4774  0.1473 -0.2496
  524MOL0     O70640   4.571   2.109   7.549 -0.2409 -0.2685 -0.9684
  524MOL0     C70641   4.599   2.013   7.667  0.5313 -1.2026  1.5060
  524MOL0     C70642   4.750   1.996   7.677  0.5191  0.0502 -0.4538
  524MOL0     C70643   4.788   1.877   7.773  0.8126 -0.9133  0.7506
  524MOL0     C70644   4.932   1.848   7.757 -0.0865  0.5434 -0.5579
  524MOL0     C70645   4.968   1.709   7.805 -0.2863 -0.2646 -0.4663
  524MOL0     C70646   5.111   1.707   7.851 -0.3708 -0.2869  0.0029
  524MOL0     C70647   5.221   1.712   7.742  0.2077 -0.3694  0.0020
  524MOL0     C70648   5.361   1.671   7.791  0.2406  0.0690  0.0873
  524MOL0    Cl70649   5.385   1.741   7.957  0.1873 -0.1068  0.0408
  524MOL0     C70650   4.407   2.241   7.461 -0.0886  0.0806  0.3046
  524MOL0     C70651   4.269   2.272   7.425  0.0991  0.2307 -0.5842
  524MOL0     O70652   4.094   2.267   7.212  0.6437 -1.1003  0.0570
  524MOL0     C70653   3.774   2.260   7.355  0.2894  0.3638  0.3136
  524MOL0     C70654   3.647   2.288   7.319  0.7149  0.0064 -0.7798
  524MOL0     N70655   2.957   2.436   7.349 -0.3161 -0.0812  0.1851
  524MOL0     N70656   2.838   2.442   7.386 -0.4372  0.2967  0.6550
  524MOL0     C70657   1.593   2.601   7.057 -0.3760  0.3904 -0.4687
  524MOL0     C70658   1.491   2.607   6.963  0.0086  0.4091 -0.8016
  524MOL0     C70659   1.212   2.702   6.721 -0.4461 -0.3163 -0.5743
  524MOL0     C70660   1.092   2.709   6.794  0.2591 -0.1567  0.8000
  524MOL0     C70661   0.989   2.797   6.761 -0.1451 -0.5989 -0.3523
  524MOL0     C70662   1.023   2.908   6.678  0.8224  0.2885  0.1801
  524MOL0     O70663   0.949   3.015   6.658 -0.2882 -0.0910 -0.3242
  524MOL0     C70664   0.822   3.034   6.724 -0.0976  0.0131 -0.6252
  524MOL0     C70665   0.824   3.079   6.870 -0.3600 -0.6817 -0.1541
  524MOL0     C70666   0.915   3.208   6.860 -0.9958 -0.4747  0.3076
  524MOL0     C70667   0.965   3.244   6.996 -0.3562  0.3934 -0.0452
  524MOL0     C70668   1.036   3.373   6.998  0.3939 -0.7759  0.3062
  524MOL0     C70669   1.096   3.484   6.990  0.3814  0.6758  0.5198
  524MOL0     C70670   1.143   2.908   6.613 -0.5123  0.3930  0.3839
  524MOL0     C70671   1.237   2.806   6.629 -0.6930  0.9474  0.0295
  524MOL0     C70672   1.362   2.815   6.543 -0.1494 -0.0675 -0.4500
  524MOL0     H70673   1.327   2.323   7.060  2.2830 -2.5744 -1.8210
  524MOL0     H70674   1.519   2.309   7.210  0.2330 -1.0228 -0.4609
  524MOL0     H70675   1.846   2.475   7.093 -0.7348  0.9526 -0.1175
  524MOL0     H70676   1.870   2.608   7.214 -0.7710  1.0216  0.1668
  524MOL0     H70677   1.884   2.305   7.273  0.5636 -0.4969 -2.1909
  524MOL0     H70678   1.944   2.431   7.372 -0.2119 -2.2197  0.4242
  524MOL0     H70679   2.059   2.371   7.099 -4.9781 -4.4978 -0.2078
  524MOL0     H70680   2.108   2.293   7.250 -0.1117 -0.5931 -1.2203
  524MOL0     H70681   2.148   2.584   7.174 -4.1995 -1.4416 -1.1875
  524MOL0     H70682   2.143   2.526   7.339 -1.0291  1.9416 -0.4687
  524MOL0     H70683   2.335   2.352   7.242  2.3905 -0.3983 -2.0724
  524MOL0     H70684   2.334   2.449   7.105 -0.3790 -0.1867 -0.2060
  524MOL0     H70685   2.371   2.671   7.239 -0.0836  0.5151  0.3555
  524MOL0     H70686   2.374   2.564   7.378 -1.4527 -1.9175  0.0123
  524MOL0     H70687   2.564   2.591   7.141 -2.2069 -0.1295 -0.4241
  524MOL0     H70688   2.553   2.435   7.226 -1.0830 -0.6308  0.2788
  524MOL0     H70689   2.635   2.691   7.369 -3.2710 -0.4630  0.4770
  524MOL0     H70690   2.615   2.533   7.438  0.0629  2.0655 -0.0225
  524MOL0     H70691   2.863   2.709   7.177  0.4281  0.3536  0.1999
  524MOL0     H70692   3.085   2.548   7.080  1.0185 -3.5817  0.2107
  524MOL0     H70693   3.122   2.685   7.183  0.5353  0.1435  0.2434
  524MOL0     H70694   3.326   2.564   7.198 -0.6128 -1.6693 -2.3502
  524MOL0     H70695   3.238   2.542   7.353 -1.2245  1.0745  0.1724
  524MOL0     H70696   3.239   2.342   7.117  1.4711  0.7853 -0.4267
  524MOL0     H70697   3.183   2.308   7.290 -0.1068 -0.1771 -0.5217
  524MOL0     H70698   3.380   2.248   7.342 -0.9306 -0.4551  0.0705
  524MOL0     H70699   3.429   2.416   7.319  2.4627 -0.5251 -0.3067
  524MOL0     H70700   3.674   2.258   6.986 -0.6727  0.2536  0.7996
  524MOL0     H70701   3.908   2.207   7.046 -0.0245 -0.4787  0.3322
  524MOL0     H70702   4.114   2.042   7.615 -0.7747  1.6832 -0.9394
  524MOL0     H70703   4.348   1.972   7.665  0.3160 -0.4627 -1.2772
  524MOL0     H70704   4.555   2.046   7.762 -0.0402 -2.0834  1.5571
  524MOL0     H70705   4.565   1.911   7.648  0.3908 -0.8220 -0.4765
  524MOL0     H70706   4.775   1.969   7.574 -0.3196 -1.7149 -0.2204
  524MOL0     H70707   4.798   2.091   7.705 -0.6044  0.2321  1.0091
  524MOL0     H70708   4.771   1.913   7.875 -3.1301  2.2612 -0.7555
  524MOL0     H70709   4.728   1.790   7.744  0.7219 -0.0351 -2.0114
  524MOL0     H70710   4.991   1.914   7.822  1.8330 -2.9763  1.6112
  524MOL0     H70711   4.964   1.836   7.653 -3.3510  0.1599 -1.6200
  524MOL0     H70712   4.958   1.633   7.726 -4.0878  0.4236 -0.8790
  524MOL0     H70713   4.902   1.673   7.884  2.5913 -2.3644  1.1524
  524MOL0     H70714   5.130   1.786   7.924 -1.8113 -0.2180  0.3299
  524MOL0     H70715   5.116   1.610   7.903 -1.3632  1.2256  3.1934
  524MOL0     H70716   5.222   1.811   7.695  1.1335 -0.8839 -1.1140
  524MOL0     H70717   5.191   1.648   7.659  1.7147 -0.4359 -0.5252
  524MOL0     H70718   5.363   1.563   7.802  0.7071 -0.1623 -1.8817
  524MOL0     H70719   5.441   1.697   7.720 -1.7385 -1.1081 -2.7683
  524MOL0     H70720   4.469   2.327   7.441 -0.3306 -0.3869 -3.0781
  524MOL0     H70721   4.237   2.365   7.379 -0.0187  0.2238 -0.5181
  524MOL0     H70722   3.800   2.255   7.460 -1.1369  0.0506  0.6693
  524MOL0     H70723   3.584   2.319   7.402  1.2244  1.1235 -0.7949
  524MOL0     H70724   1.657   2.688   7.069 -1.4490  0.9622  1.7584
  524MOL0     H70725   1.476   2.697   6.904  0.0960  1.2257  0.4015
  524MOL0     H70726   1.076   2.625   6.862  2.9380 -0.1799  1.5140
  524MOL0     H70727   0.896   2.782   6.814 -0.6387  1.5030 -0.5211
  524MOL0     H70728   0.757   2.947   6.715  0.7840 -0.7054 -0.2892
  524MOL0     H70729   0.769   3.113   6.671 -0.9981  0.6213  1.1045
  524MOL0     H70730   0.867   3.006   6.940 -2.6290 -1.1040  0.8830
  524MOL0     H70731   0.724   3.112   6.900 -0.0519 -0.7149  0.9893
  524MOL0     H70732   0.854   3.283   6.809 -0.9419 -0.8993 -0.4011
  524MOL0     H70733   1.005   3.192   6.799  1.3596  2.8383  2.5912
  524MOL0     H70734   0.888   3.237   7.074 -1.4174  1.2750 -0.9789
  524MOL0     H70735   1.042   3.175   7.031 -0.7384  0.6829  1.4682
  524MOL0     H70736   1.141   3.581   6.991  0.0464  0.8928 -1.6548
  524MOL0     H70737   1.164   2.996   6.554 -1.2410 -0.4530 -1.2140
  524MOL0     H70738   1.448   2.793   6.608 -1.0331  0.7971  1.0757
  524MOL0     H70739   1.355   2.734   6.470 -2.3100 -0.4622  0.1406
  524MOL0     H70740   1.376   2.914   6.500  0.8030  0.3834  0.8254
  525MOL0     O70741   1.281   6.305   0.357 -0.7015  0.0208  0.7011
  525MOL0     C70742   1.226   6.385   0.286  0.9128 -0.6446  0.4911
  525MOL0     O70743   1.283   6.498   0.228 -0.8177 -0.4363 -0.6703
  525MOL0     C70744   1.427   6.511   0.234  0.5106 -0.0858  0.6371
  525MOL0     C70745   1.509   6.404   0.186  0.9223  0.1714 -0.9524
  525MOL0     C70746   1.649   6.414   0.174 -0.5443 -0.2467 -1.2832
  525MOL0     C70747   1.711   6.532   0.215 -0.1851 -0.0801  0.3534
  525MOL0     O70748   1.847   6.556   0.210  0.5343  0.2148  0.2171
  525MOL0     C70749   1.892   6.510   0.088  0.2540  0.4850 -0.1359
  525MOL0     C70750   2.028   6.573   0.055 -0.1734 -0.7915 -0.0063
  525MOL0     C70751   2.152   6.520   0.126 -0.7630 -0.3592  0.0902
  525MOL0     C70752   2.282   6.583   0.067 -0.2664  0.4861 -0.0157
  525MOL0     C70753   2.406   6.484   0.048 -0.8326 -0.8310 -0.1752
  525MOL0     C70754   2.515   6.532  -0.043 -0.4207 -1.1028 -0.3662
  525MOL0     C70755   2.636   6.431  -0.046  0.2837 -1.2089 -1.4085
  525MOL0     C70756   2.736   6.492  -0.134  0.3578 -0.5623  0.6680
  525MOL0     N70757   2.853   6.406  -0.159  0.4258  0.2017  0.5144
  525MOL0     C70758   2.977   6.431  -0.108 -0.1357  0.4523  0.1938
  525MOL0     C70759   3.055   6.358  -0.193 -0.0847  0.3702 -0.7879
  525MOL0     C70760   3.207   6.365  -0.195  0.0542 -0.4759 -0.1782
  525MOL0     C70761   3.261   6.505  -0.219  0.4441 -0.4513  0.0673
  525MOL0     C70762   3.259   6.532  -0.370  0.8545 -0.2396 -0.5431
  525MOL0     C70763   3.345   6.658  -0.408 -0.4414 -0.0365 -0.4364
  525MOL0     O70764   3.296   6.766  -0.326  0.0256  0.0230 -0.1016
  525MOL0     C70765   3.186   6.827  -0.376 -0.6715  0.1337  0.2959
  525MOL0     C70766   3.055   6.810  -0.328 -0.8306  1.3384 -0.6181
  525MOL0     C70767   2.940   6.853  -0.393 -0.1315  0.1717  0.0127
  525MOL0     C70768   2.959   6.929  -0.511 -0.0815  0.1750 -0.3639
  525MOL0     C70769   2.840   6.957  -0.594  0.4854 -0.8908 -0.6033
  525MOL0     O70770   2.711   6.932  -0.532 -0.2156  0.4239  0.1088
  525MOL0     C70771   2.595   6.938  -0.604 -0.9936 -0.1842 -0.8557
  525MOL0     C70772   2.595   6.899  -0.740 -0.4419  0.2752 -0.5830
  525MOL0     C70773   2.479   6.902  -0.818 -0.2788  0.3234 -0.2768
  525MOL0     C70774   2.356   6.930  -0.750 -0.4336 -0.3868  0.6532
  525MOL0     O70775   2.237   6.921  -0.819 -0.3406 -0.2104 -0.5757
  525MOL0     C70776   2.207   7.041  -0.882 -0.0182  0.1645 -0.5165
  525MOL0     C70777   2.068   7.028  -0.938  0.3321  0.2744 -0.5744
  525MOL0     C70778   1.950   7.016  -0.844 -0.4069  0.4849 -0.2590
  525MOL0     C70779   1.821   6.990  -0.916 -0.3659 -0.9945  0.6390
  525MOL0     C70780   1.710   6.980  -0.806 -0.2246 -0.3919 -0.9660
  525MOL0     C70781   1.565   6.963  -0.852  0.8501 -0.0195  0.4103
  525MOL0     C70782   1.524   7.066  -0.964 -0.2456 -0.1921  1.0141
  525MOL0     C70783   1.384   7.066  -1.003 -0.1885  0.9007 -0.4008
  525MOL0    Cl70784   1.266   7.091  -0.869 -0.4948  0.0212  0.0464
  525MOL0     C70785   2.358   6.965  -0.612 -0.0731 -0.4267  0.0109
  525MOL0     C70786   2.474   6.969  -0.545 -0.0617 -0.0823 -0.0965
  525MOL0     O70787   2.858   7.007  -0.703  0.3553  0.3292  0.5018
  525MOL0     C70788   3.088   6.957  -0.564 -0.7463 -0.8449 -0.0653
  525MOL0     C70789   3.204   6.912  -0.491 -0.6821 -0.0263  0.5741
  525MOL0     N70790   2.984   6.285  -0.281 -0.2982 -0.2717 -0.0031
  525MOL0     N70791   2.860   6.319  -0.261 -0.1973 -0.1962 -0.0568
  525MOL0     C70792   1.637   6.632   0.277  0.3202  0.0383  0.3240
  525MOL0     C70793   1.496   6.625   0.283 -0.4874 -0.0191 -0.0301
  525MOL0     C70794   1.075   6.384   0.269  0.3413  0.3294 -0.7382
  525MOL0     C70795   1.028   6.471   0.169 -0.1275  1.0408  0.5409
  525MOL0     C70796   0.893   6.465   0.135 -0.7789 -0.2279 -0.3204
  525MOL0     C70797   0.802   6.373   0.196  0.1126 -0.1609  0.6864
  525MOL0     O70798   0.670   6.374   0.164  0.1636  0.3014  0.4042
  525MOL0     C70799   0.618   6.458   0.050  0.3909  0.1402  0.1671
  525MOL0     C70800   0.470   6.439   0.048  0.1279 -0.4055  0.4416
  525MOL0     C70801   0.398   6.499   0.169 -0.4899  0.4512 -1.1269
  525MOL0     C70802   0.265   6.418   0.204 -0.2156 -0.7527  0.0944
  525MOL0     C70803   0.159   6.436   0.101 -0.2473 -0.7643 -0.1990
  525MOL0     C70804   0.078   6.452   0.008  0.2301 -1.2346  0.1992
  525MOL0     C70805   0.854   6.298   0.297  0.3528  0.3564 -0.3238
  525MOL0     C70806   0.985   6.291   0.329 -0.9014  0.8908  0.5691
  525MOL0     C70807   1.038   6.181   0.419 -0.0134  0.3636  0.2708
  525MOL0     H70808   1.468   6.310   0.151 -1.7235  1.6484 -2.1275
  525MOL0     H70809   1.702   6.341   0.115  1.9538  3.2138 -3.7755
  525MOL0     H70810   1.880   6.401   0.091 -5.1357  0.8266  2.6938
  525MOL0     H70811   1.821   6.542   0.011  0.3591  0.3447 -0.2922
  525MOL0     H70812   2.022   6.682   0.063  2.4389 -0.3674 -2.2672
  525MOL0     H70813   2.053   6.568  -0.051  1.3007  2.5075  0.0681
  525MOL0     H70814   2.155   6.411   0.111 -4.3641 -0.6345  0.4588
  525MOL0     H70815   2.149   6.531   0.234  0.7305 -1.1250  0.2405
  525MOL0     H70816   2.257   6.624  -0.032  1.6126  1.5386 -0.1061
  525MOL0     H70817   2.317   6.675   0.114  2.9291  1.1945 -3.2807
  525MOL0     H70818   2.447   6.438   0.138  1.1565 -2.6166 -1.9047
  525MOL0     H70819   2.359   6.401  -0.005 -0.3280 -0.4763 -1.1933
  525MOL0     H70820   2.463   6.543  -0.139 -0.1859 -1.7750 -0.5713
  525MOL0     H70821   2.555   6.629  -0.011  1.1689 -0.6360 -3.3596
  525MOL0     H70822   2.596   6.334  -0.075  0.5682 -1.0435 -2.4080
  525MOL0     H70823   2.676   6.428   0.055 -1.0979 -0.8938 -0.8213
  525MOL0     H70824   2.687   6.518  -0.229  1.3238  1.3831  0.6698
  525MOL0     H70825   2.771   6.584  -0.088 -2.0332  1.6078 -1.5261
  525MOL0     H70826   3.016   6.504  -0.037  1.1756  0.4466 -0.4968
  525MOL0     H70827   3.228   6.329  -0.094  3.0039  1.4092  0.0347
  525MOL0     H70828   3.257   6.294  -0.262 -2.2460 -1.2391 -1.1683
  525MOL0     H70829   3.188   6.573  -0.174  0.1255 -1.0266  0.4248
  525MOL0     H70830   3.359   6.512  -0.172 -0.0781  0.2438  1.0708
  525MOL0     H70831   3.157   6.547  -0.408  0.7749  0.9982  0.1079
  525MOL0     H70832   3.304   6.448  -0.425  3.7811  0.0593  1.1936
  525MOL0     H70833   3.356   6.680  -0.515  1.2039  3.8319  0.3832
  525MOL0     H70834   3.448   6.627  -0.388  0.1330  1.8570 -0.3051
  525MOL0     H70835   3.048   6.731  -0.253  2.0841  1.6307  0.0775
  525MOL0     H70836   2.843   6.822  -0.354 -0.7890  2.3668  0.2360
  525MOL0     H70837   2.689   6.863  -0.779 -2.5705 -1.5403 -4.7332
  525MOL0     H70838   2.467   6.878  -0.923 -3.8238  1.1620 -0.1767
  525MOL0     H70839   2.213   7.119  -0.805  2.5752 -0.1852 -0.2730
  525MOL0     H70840   2.277   7.075  -0.958 -3.4962  0.5974 -3.8175
  525MOL0     H70841   2.060   7.111  -1.008 -2.5250 -1.1618 -2.1533
  525MOL0     H70842   2.072   6.929  -0.985 -0.3148  0.4931 -1.1062
  525MOL0     H70843   1.953   6.935  -0.770 -1.0383  1.9241  1.4095
  525MOL0     H70844   1.945   7.110  -0.789  0.3360 -0.5852  1.7664
  525MOL0     H70845   1.835   6.900  -0.978  0.9494 -0.0718 -0.4493
  525MOL0     H70846   1.801   7.072  -0.986  2.3133  0.3052  1.2620
  525MOL0     H70847   1.725   7.066  -0.741  0.4227 -1.1206 -0.1166
  525MOL0     H70848   1.738   6.895  -0.743 -0.6444 -2.1584 -3.0352
  525MOL0     H70849   1.562   6.861  -0.892 -0.8268 -0.0625  0.5640
  525MOL0     H70850   1.503   6.964  -0.762 -0.8099  0.2513 -0.6706
  525MOL0     H70851   1.588   7.049  -1.051 -0.5523  0.4482  0.6519
  525MOL0     H70852   1.549   7.162  -0.918  0.7614 -0.2921  0.6831
  525MOL0     H70853   1.361   7.137  -1.083  0.6461  5.0796  2.7013
  525MOL0     H70854   1.377   6.965  -1.045 -3.7204  0.1248  1.6498
  525MOL0     H70855   2.264   7.002  -0.574 -0.0812 -1.8889  1.5351
  525MOL0     H70856   2.474   6.995  -0.440  0.3348 -1.3503  0.2412
  525MOL0     H70857   3.099   7.011  -0.657 -0.9951 -0.5197  0.0910
  525MOL0     H70858   3.307   6.933  -0.518 -0.3979 -1.2746  0.6124
  525MOL0     H70859   1.677   6.726   0.314  1.0373 -1.0788  2.6152
  525MOL0     H70860   1.444   6.714   0.316  3.6980  2.1154  1.5712
  525MOL0     H70861   1.086   6.548   0.119 -4.1731  4.1626  0.1816
  525MOL0     H70862   0.850   6.533   0.062 -0.1765 -0.4634 -0.8976
  525MOL0     H70863   0.671   6.424  -0.039 -1.0608 -0.6352 -0.4301
  525MOL0     H70864   0.632   6.565   0.070 -0.0283  0.2448 -0.0923
  525MOL0     H70865   0.446   6.332   0.042 -1.3011 -0.0654 -0.2529
  525MOL0     H70866   0.440   6.492  -0.042 -2.0003  0.0357  1.3389
  525MOL0     H70867   0.383   6.607   0.155 -0.7373  1.2317  3.4924
  525MOL0     H70868   0.466   6.492   0.255 -3.0165  2.0577  1.1965
  525MOL0     H70869   0.285   6.312   0.221 -1.8407 -1.0388  0.3880
  525MOL0     H70870   0.234   6.467   0.296 -0.8247 -1.2083  0.1338
  525MOL0     H70871   0.010   6.464  -0.074  0.4421 -0.2271  0.1527
  525MOL0     H70872   0.785   6.233   0.351 -0.4905  0.6629 -1.0088
  525MOL0     H70873   1.066   6.214   0.519  0.1419 -1.7195  0.9715
  525MOL0     H70874   0.962   6.102   0.431  0.8154 -0.4248  0.4061
  525MOL0     H70875   1.127   6.132   0.378  0.6206  0.7473  1.1635
  526MOL0     O70876   0.834   7.027   9.130 -0.5101 -0.0660 -0.4961
  526MOL0     C70877   0.813   7.145   9.160 -0.1685  0.4959  0.4620
  526MOL0     O70878   0.891   7.226   9.233 -0.2115 -0.2341 -0.8378
  526MOL0     C70879   1.013   7.176   9.278 -0.0057  0.4538  0.2084
  526MOL0     C70880   1.120   7.159   9.189  0.0491  0.1757  0.5750
  526MOL0     C70881   1.247   7.110   9.237 -0.1709  0.2239  0.3379
  526MOL0     C70882   1.258   7.083   9.372  0.5763 -0.1127 -0.9215
  526MOL0     O70883   1.375   7.038   9.434  0.8033  0.0179 -0.2453
  526MOL0     C70884   1.462   6.965   9.347  0.3354  0.1174 -0.7019
  526MOL0     C70885   1.561   6.867   9.407  0.4645 -0.3266  0.2007
  526MOL0     C70886   1.684   6.931   9.462 -0.1159 -0.0064  0.8494
  526MOL0     C70887   1.780   6.830   9.525 -0.6095  0.1341 -0.5321
  526MOL0     C70888   1.889   6.886   9.612  0.4459  0.3724 -0.5600
  526MOL0     C70889   1.988   6.972   9.541  0.5429 -0.7423  0.1436
  526MOL0     C70890   2.065   7.063   9.645  0.7919  0.6351  0.1267
  526MOL0     C70891   2.171   7.155   9.585 -0.4987 -0.2591  0.6319
  526MOL0     N70892   2.302   7.095   9.581 -0.0250 -0.6588  0.5433
  526MOL0     C70893   2.341   7.009   9.482  0.6005  0.0828 -0.0520
  526MOL0     C70894   2.462   6.954   9.531 -0.5706 -0.3584 -0.1857
  526MOL0     C70895   2.541   6.848   9.460 -0.7418 -0.0424 -0.7419
  526MOL0     C70896   2.688   6.884   9.469  0.4850  0.6938 -1.2494
  526MOL0     C70897   2.708   7.021   9.392  0.3642  0.1885 -0.8762
  526MOL0     C70898   2.846   7.074   9.410 -0.8269 -0.4341  1.3536
  526MOL0     O70899   2.942   6.991   9.341 -0.4633 -0.0588 -0.2357
  526MOL0     C70900   3.073   7.028   9.371  0.6820 -0.0684  1.3442
  526MOL0     C70901   3.155   7.060   9.263  0.1015  0.2534  0.4019
  526MOL0     C70902   3.290   7.096   9.290 -0.5240 -0.0932  0.4052
  526MOL0     C70903   3.339   7.107   9.423  0.0751  0.2283  0.0220
  526MOL0     C70904   3.482   7.141   9.455 -0.3919  0.6749 -0.9616
  526MOL0     O70905   3.563   7.205   9.359  0.0854  0.4152 -0.2536
  526MOL0     C70906   3.702   7.218   9.378  0.6203 -0.4432  0.2920
  526MOL0     C70907   3.765   7.344   9.395  0.8814 -0.0633  0.5281
  526MOL0     C70908   3.908   7.350   9.396  0.0406 -0.5540  0.1609
  526MOL0     C70909   3.987   7.238   9.372 -0.7065  0.7552  0.3857
  526MOL0     O70910   4.122   7.243   9.359  0.1843  0.5658  0.1870
  526MOL0     C70911   4.192   7.319   9.461  0.1846  0.1429 -1.4927
  526MOL0     C70912   4.317   7.246   9.520 -0.0401  0.2005  0.3084
  526MOL0     C70913   4.443   7.252   9.435 -0.4908  0.5477  0.0298
  526MOL0     C70914   4.568   7.184   9.497  0.2936  0.6310  0.4107
  526MOL0     C70915   4.688   7.181   9.404 -0.5310  0.4289  0.2708
  526MOL0     C70916   4.751   7.327   9.403  1.0608 -0.3771  0.5403
  526MOL0     C70917   4.895   7.337   9.345 -0.3544  0.7508 -0.4322
  526MOL0     C70918   4.994   7.267   9.450 -0.3721  0.1243 -0.2048
  526MOL0    Cl70919   5.167   7.281   9.391  0.1326 -0.0495 -0.2166
  526MOL0     C70920   3.924   7.120   9.352  0.8182 -0.2316  0.2686
  526MOL0     C70921   3.781   7.107   9.364  0.4584  0.0699 -0.0068
  526MOL0     O70922   3.516   7.122   9.569  0.1920  0.0290 -0.2674
  526MOL0     C70923   3.256   7.064   9.530  0.4939 -0.7723  1.5730
  526MOL0     C70924   3.124   7.027   9.501  0.4344 -0.0142 -0.0709
  526MOL0     N70925   2.483   7.014   9.650  0.2363  0.2845  0.0661
  526MOL0     N70926   2.393   7.101   9.674  0.0847 -0.7384  0.1826
  526MOL0     C70927   1.152   7.114   9.463  0.0504 -0.5419 -0.7898
  526MOL0     C70928   1.035   7.155   9.417  0.0327  0.1716  0.1453
  526MOL0     C70929   0.679   7.198   9.131  0.0142  0.2816 -0.3979
  526MOL0     C70930   0.643   7.312   9.201  0.1883 -0.3998 -0.0576
  526MOL0     C70931   0.517   7.366   9.187  0.1929 -0.1164 -0.7806
  526MOL0     C70932   0.412   7.309   9.111  0.0572  0.3935 -0.0269
  526MOL0     O70933   0.284   7.364   9.097 -0.0142  0.0723 -0.6737
  526MOL0     C70934   0.243   7.464   9.184  0.2942 -0.3580 -0.3432
  526MOL0     C70935   0.207   7.417   9.317  0.2057 -0.9882 -0.5298
  526MOL0     C70936   0.112   7.519   9.391  1.2388 -0.5589  0.2515
  526MOL0     C70937   0.154   7.656   9.388 -0.6300  0.0030 -0.9968
  526MOL0     C70938   0.288   7.676   9.450  0.4326  0.4957 -0.0006
  526MOL0     C70939   0.396   7.695   9.491 -0.3656 -0.1885 -0.1340
  526MOL0     C70940   0.447   7.185   9.044 -0.0713 -0.3294 -0.2529
  526MOL0     C70941   0.578   7.126   9.059  0.7491 -0.0560 -0.3580
  526MOL0     C70942   0.593   6.999   8.990  0.3689 -0.6812  0.4919
  526MOL0     H70943   1.099   7.185   9.086 -1.3088  1.3971  1.1269
  526MOL0     H70944   1.329   7.097   9.166 -0.3021  1.8531 -0.1592
  526MOL0     H70945   1.399   6.903   9.282  1.6388 -4.1278  1.6966
  526MOL0     H70946   1.518   7.034   9.285 -1.2362  2.2963  0.1827
  526MOL0     H70947   1.586   6.799   9.325  6.0637  1.7167 -0.2146
  526MOL0     H70948   1.512   6.811   9.488 -0.9289 -1.5555 -1.4234
  526MOL0     H70949   1.648   7.005   9.534  0.0496  1.1930 -0.2506
  526MOL0     H70950   1.741   6.982   9.384  0.2087 -0.0829  1.0343
  526MOL0     H70951   1.725   6.763   9.591 -0.1265  0.2365 -0.0187
  526MOL0     H70952   1.833   6.776   9.446 -1.5924  1.5418 -2.2286
  526MOL0     H70953   1.848   6.933   9.702  2.0850 -3.5317  2.5157
  526MOL0     H70954   1.941   6.803   9.660 -1.9642 -0.7623  0.2669
  526MOL0     H70955   2.057   6.917   9.476  0.7779 -0.1337 -0.1377
  526MOL0     H70956   1.931   7.045   9.483  1.0084  0.0579  0.6661
  526MOL0     H70957   2.109   7.000   9.723  2.5190  1.2588 -0.2991
  526MOL0     H70958   1.990   7.125   9.695 -0.1273 -0.3855  0.0521
  526MOL0     H70959   2.134   7.191   9.488  0.0533 -0.2329  0.4255
  526MOL0     H70960   2.188   7.242   9.649  0.3458  1.4440 -1.7421
  526MOL0     H70961   2.273   7.000   9.398  0.1644  2.8793 -0.0996
  526MOL0     H70962   2.532   6.753   9.515  3.2678  0.1745  0.6267
  526MOL0     H70963   2.509   6.833   9.357 -1.6424  1.1143 -0.6432
  526MOL0     H70964   2.721   6.887   9.573 -1.3706 -0.5292 -0.5640
  526MOL0     H70965   2.750   6.809   9.420  0.7460  0.7771 -1.0485
  526MOL0     H70966   2.638   7.101   9.417  1.3662  0.4358  1.3496
  526MOL0     H70967   2.696   6.989   9.288  2.5814 -4.1834 -0.0516
  526MOL0     H70968   2.861   7.092   9.516 -0.8939  2.1161  0.9937
  526MOL0     H70969   2.843   7.174   9.365  0.2093 -0.8344  0.3315
  526MOL0     H70970   3.131   7.069   9.158  0.2188  4.3110  0.5739
  526MOL0     H70971   3.354   7.120   9.206  0.8232 -1.8028  0.8860
  526MOL0     H70972   3.702   7.432   9.401  0.2978 -0.4064 -0.3668
  526MOL0     H70973   3.966   7.442   9.396 -1.9170  0.7511 -0.1429
  526MOL0     H70974   4.223   7.415   9.419  0.4743  1.2180  0.9630
  526MOL0     H70975   4.135   7.345   9.551  1.6400 -1.9227  0.1243
  526MOL0     H70976   4.330   7.273   9.625  0.1241  0.4368  0.2271
  526MOL0     H70977   4.291   7.144   9.551  0.9440 -0.3527 -0.6235
  526MOL0     H70978   4.428   7.195   9.343 -1.2001  1.3370 -0.3556
  526MOL0     H70979   4.472   7.353   9.404 -3.4468  1.7320  0.7408
  526MOL0     H70980   4.547   7.077   9.507  0.0796  0.3145 -2.6098
  526MOL0     H70981   4.597   7.224   9.594  1.9992 -0.3048  0.3312
  526MOL0     H70982   4.653   7.152   9.304 -1.1899  2.7765 -0.2248
  526MOL0     H70983   4.755   7.106   9.447 -0.2409  0.8167  0.4876
  526MOL0     H70984   4.682   7.393   9.351 -0.1196  0.2125  2.7221
  526MOL0     H70985   4.750   7.360   9.508  1.4682 -1.5785  0.9434
  526MOL0     H70986   4.920   7.441   9.323 -1.0659  1.1878  0.7456
  526MOL0     H70987   4.909   7.279   9.253 -3.0083 -2.5542  1.0157
  526MOL0     H70988   4.972   7.314   9.546  1.1310  1.5916 -0.5362
  526MOL0     H70989   4.983   7.160   9.466  0.5818  0.0234 -0.1736
  526MOL0     H70990   3.968   7.026   9.318 -4.0125 -2.2175 -1.3915
  526MOL0     H70991   3.739   7.008   9.354  0.0634  0.3271 -0.9996
  526MOL0     H70992   3.290   7.051   9.633 -3.9711  2.1202  3.7482
  526MOL0     H70993   3.054   6.998   9.579  1.0319  3.4634  1.9815
  526MOL0     H70994   1.158   7.098   9.570  0.3021  0.5134 -0.6347
  526MOL0     H70995   0.951   7.171   9.484 -1.7638  1.7016 -2.3203
  526MOL0     H70996   0.713   7.363   9.266 -2.9139  0.2698  3.0495
  526MOL0     H70997   0.513   7.460   9.242 -0.6013  1.6031 -3.5495
  526MOL0     H70998   0.158   7.505   9.129  0.4015  0.5793  0.1774
  526MOL0     H70999   0.320   7.542   9.184 -0.2791  0.2138 -0.0318
  526MOL0     H71000   0.301   7.407   9.373  0.2978  3.0947  0.3378
  526MOL0     H71001   0.164   7.317   9.308 -0.8198 -0.4297 -2.4528
  526MOL0     H71002   0.108   7.487   9.496 -1.4481 -0.1130  0.3434
  526MOL0     H71003   0.008   7.510   9.359  1.2265 -0.2794  0.2151
  526MOL0     H71004   0.146   7.717   9.298 -1.1166  0.7003 -0.4933
  526MOL0     H71005   0.082   7.704   9.456  0.6892  1.5721 -0.6316
  526MOL0     H71006   0.495   7.718   9.523  0.9160 -2.7059 -1.9806
  526MOL0     H71007   0.370   7.138   8.982  0.0609  0.4671 -1.0393
  526MOL0     H71008   0.622   6.927   9.067  3.1911  1.5695  1.7211
  526MOL0     H71009   0.502   6.959   8.945  0.5696 -1.2154  0.5564
  526MOL0     H71010   0.675   7.009   8.918  1.2989  0.6179  1.6771
  527MOL0     O71011   7.622  10.430   4.350 -0.2562  0.0570 -0.4563
  527MOL0     C71012   7.572  10.351   4.265 -0.6373  0.2126  0.4651
  527MOL0     O71013   7.441  10.346   4.244  0.4795  0.5673 -0.5059
  527MOL0     C71014   7.355  10.349   4.343 -0.3333  0.1239 -0.7818
  527MOL0     C71015   7.375  10.301   4.476  0.3438  0.0047  0.1666
  527MOL0     C71016   7.273  10.315   4.572  0.5474 -0.3785  0.9069
  527MOL0     C71017   7.145  10.368   4.526 -0.1597 -0.7146 -0.3982
  527MOL0     O71018   7.050  10.376   4.627  0.4721 -0.6299 -0.2902
  527MOL0     C71019   6.921  10.347   4.584 -0.1588 -0.5236  0.4161
  527MOL0     C71020   6.840  10.299   4.702  0.3601  0.3887  0.3994
  527MOL0     C71021   6.691  10.272   4.673 -0.7547  0.8803 -0.6829
  527MOL0     C71022   6.616  10.403   4.649 -1.0570  0.2166  0.3354
  527MOL0     C71023   6.464  10.387   4.615 -0.1311 -0.1949  0.2705
  527MOL0     C71024   6.378  10.512   4.637  0.5572 -0.0573 -0.4802
  527MOL0     C71025   6.362  10.567   4.780  0.1771 -1.1538 -0.4361
  527MOL0     C71026   6.301  10.456   4.878 -0.3175 -0.4072  0.3899
  527MOL0     N71027   6.302  10.530   5.009  0.1069  0.0002  0.2084
  527MOL0     C71028   6.215  10.630   5.043 -1.2338  0.0966  0.6097
  527MOL0     C71029   6.235  10.656   5.174  0.2803  0.2315  0.3487
  527MOL0     C71030   6.175  10.760   5.265 -0.8711 -0.2822  0.4112
  527MOL0     C71031   6.132  10.708   5.398  0.2163 -0.5193 -0.3485
  527MOL0     C71032   6.037  10.816   5.462  0.0967 -0.7585 -0.0870
  527MOL0     C71033   5.890  10.808   5.416 -0.6462 -0.8258  1.3469
  527MOL0     O71034   5.810  10.882   5.503 -0.4618 -0.2228  0.1738
  527MOL0     C71035   5.790  11.019   5.484  0.4733 -0.0356 -0.4662
  527MOL0     C71036   5.820  11.093   5.373 -0.1039  0.4504 -0.1052
  527MOL0     C71037   5.779  11.225   5.364  0.1152 -0.5914  0.0609
  527MOL0     C71038   5.715  11.290   5.468 -0.0038 -0.3128  0.0656
  527MOL0     C71039   5.693  11.434   5.454  0.4852  1.0144 -0.0582
  527MOL0     O71040   5.640  11.486   5.578  0.0906  0.0060  0.4241
  527MOL0     C71041   5.598  11.617   5.581  0.3558 -0.2200 -0.1720
  527MOL0     C71042   5.492  11.663   5.507  0.0391  0.3655  0.2270
  527MOL0     C71043   5.449  11.793   5.519 -0.5390 -0.4128  0.2376
  527MOL0     C71044   5.507  11.884   5.611 -0.7503 -0.1505  0.0666
  527MOL0     O71045   5.470  12.017   5.622 -0.0612  0.4964 -0.8838
  527MOL0     C71046   5.398  12.090   5.523  0.6955  0.0491 -0.2920
  527MOL0     C71047   5.392  12.237   5.550  0.5452  0.3489 -0.3333
  527MOL0     C71048   5.526  12.315   5.547  0.0163 -0.0028  0.6504
  527MOL0     C71049   5.501  12.465   5.587 -0.6539 -0.2162  0.0264
  527MOL0     C71050   5.641  12.534   5.598  0.0014 -0.3916  0.9345
  527MOL0     C71051   5.622  12.682   5.629  0.3348 -0.3089  0.6778
  527MOL0     C71052   5.585  12.759   5.506  0.2950 -0.1949 -0.5555
  527MOL0     C71053   5.601  12.914   5.520 -0.5334  0.1401 -0.3231
  527MOL0    Cl71054   5.549  13.000   5.374 -0.0365  0.1053  0.3663
  527MOL0     C71055   5.605  11.831   5.695  0.2706  0.1032  0.3869
  527MOL0     C71056   5.657  11.699   5.680 -0.3162 -0.4679  0.8368
  527MOL0     O71057   5.699  11.492   5.351 -0.0614  0.2005 -0.0804
  527MOL0     C71058   5.701  11.221   5.583  0.0848  0.0933  0.0833
  527MOL0     C71059   5.740  11.087   5.595  0.2463 -0.1098 -0.7276
  527MOL0     N71060   6.333  10.562   5.210  0.7896 -0.6074 -0.5502
  527MOL0     N71061   6.374  10.491   5.116  0.2001  0.6396 -0.7164
  527MOL0     C71062   7.126  10.413   4.397  0.4590  0.0238  0.1446
  527MOL0     C71063   7.230  10.400   4.308  0.0076  0.1325  0.1427
  527MOL0     C71064   7.665  10.276   4.178 -0.3197  0.1898 -0.4849
  527MOL0     C71065   7.808  10.296   4.191 -0.2010 -0.1771 -0.7635
  527MOL0     C71066   7.895  10.218   4.121 -0.1740 -0.1975 -0.0643
  527MOL0     C71067   7.852  10.119   4.035  0.0284  0.6410  0.2905
  527MOL0     O71068   7.940  10.046   3.960 -0.4443  0.4159  0.3935
  527MOL0     C71069   8.068  10.118   3.923  1.1812 -0.2229  0.1355
  527MOL0     C71070   8.148  10.029   3.828  0.2757  0.1360  0.1362
  527MOL0     C71071   8.230   9.934   3.917 -0.9819 -0.3394  0.4290
  527MOL0     C71072   8.288   9.815   3.837  0.0436 -0.2651 -0.1304
  527MOL0     C71073   8.186   9.716   3.808 -0.7679 -0.5924 -0.8745
  527MOL0     C71074   8.090   9.646   3.797  0.2863  0.3448  0.9711
  527MOL0     C71075   7.714  10.098   4.020  0.5606  0.1371  0.4519
  527MOL0     C71076   7.619  10.172   4.095 -0.5171 -0.6536  0.0176
  527MOL0     C71077   7.481  10.104   4.102  1.1280  0.7189  0.1685
  527MOL0     H71078   7.475  10.274   4.508  0.0818  0.3413  1.3377
  527MOL0     H71079   7.277  10.300   4.680 -2.5075 -1.5474  0.9685
  527MOL0     H71080   6.870  10.430   4.534  1.3139  0.1460 -0.0333
  527MOL0     H71081   6.924  10.265   4.512 -2.7726  1.4382 -2.2391
  527MOL0     H71082   6.845  10.366   4.789 -0.7717 -0.8267  1.4428
  527MOL0     H71083   6.891  10.209   4.735  0.9486  0.8400  0.7367
  527MOL0     H71084   6.649  10.203   4.747  1.3047  0.1438 -0.1061
  527MOL0     H71085   6.686  10.221   4.577  0.6880  1.7014 -1.2306
  527MOL0     H71086   6.631  10.464   4.738  0.0693  0.5012 -0.0311
  527MOL0     H71087   6.660  10.459   4.566 -2.9980 -0.5327 -1.3132
  527MOL0     H71088   6.447  10.366   4.509 -0.9306 -0.7985  0.5116
  527MOL0     H71089   6.430  10.303   4.676  3.6000 -2.5464 -0.5517
  527MOL0     H71090   6.423  10.598   4.586  0.0444  0.3588 -0.2438
  527MOL0     H71091   6.276  10.500   4.600  1.0026  2.4596 -2.8933
  527MOL0     H71092   6.291  10.650   4.777  0.3952 -0.9517  0.0870
  527MOL0     H71093   6.464  10.588   4.812 -0.1161  0.2186 -0.3529
  527MOL0     H71094   6.199  10.426   4.851 -0.5550 -1.0578  1.9220
  527MOL0     H71095   6.358  10.363   4.875 -0.7946 -0.7788  2.0564
  527MOL0     H71096   6.155  10.683   4.971 -1.3860 -1.3078 -0.3379
  527MOL0     H71097   6.249  10.841   5.272 -0.9790 -0.3228  3.1978
  527MOL0     H71098   6.095  10.815   5.216  0.5019  1.5252  0.0959
  527MOL0     H71099   6.069  10.621   5.380 -0.7668 -0.0371  0.6416
  527MOL0     H71100   6.208  10.679   5.471  0.0828 -0.1246 -0.0493
  527MOL0     H71101   6.071  10.917   5.437  0.2292 -0.4243  1.3744
  527MOL0     H71102   6.033  10.809   5.571 -2.4572  1.3899  0.0595
  527MOL0     H71103   5.860  10.703   5.404 -2.2330 -0.2257 -0.4588
  527MOL0     H71104   5.886  10.843   5.313 -1.0140  1.7633  2.1498
  527MOL0     H71105   5.870  11.039   5.293 -3.8810 -3.4407 -0.2260
  527MOL0     H71106   5.800  11.272   5.269 -0.1801 -0.8384 -0.1260
  527MOL0     H71107   5.447  11.586   5.445  2.3758 -1.8899  1.1109
  527MOL0     H71108   5.370  11.816   5.448 -0.8557 -2.7862 -0.2946
  527MOL0     H71109   5.432  12.083   5.419  3.0063  3.3686  0.0903
  527MOL0     H71110   5.293  12.059   5.531  0.5529  0.2535 -1.2861
  527MOL0     H71111   5.332  12.279   5.469 -0.2134 -2.6484 -1.4916
  527MOL0     H71112   5.332  12.255   5.639  0.4903 -1.1292 -0.0419
  527MOL0     H71113   5.594  12.269   5.619 -0.5400 -3.1759 -0.6456
  527MOL0     H71114   5.555  12.299   5.443 -2.4375  0.2154 -0.1446
  527MOL0     H71115   5.441  12.468   5.678 -2.9487 -1.7270 -1.3395
  527MOL0     H71116   5.440  12.518   5.514 -0.9487  0.9369  1.0746
  527MOL0     H71117   5.710  12.519   5.515 -0.0930 -0.3565  0.8491
  527MOL0     H71118   5.700  12.499   5.683  0.4993  1.0372  1.2066
  527MOL0     H71119   5.553  12.705   5.711  0.0363 -0.0357  0.3509
  527MOL0     H71120   5.725  12.708   5.654  0.3707  2.6653 -2.0498
  527MOL0     H71121   5.480  12.730   5.489  0.4010  0.2735 -2.1423
  527MOL0     H71122   5.646  12.720   5.425  1.5728 -2.4201  1.3328
  527MOL0     H71123   5.539  12.945   5.605 -0.6918 -1.1123  0.0384
  527MOL0     H71124   5.697  12.948   5.561 -1.7603  0.2267  2.7938
  527MOL0     H71125   5.637  11.903   5.769 -3.4493  3.2924 -0.7921
  527MOL0     H71126   5.745  11.658   5.729 -0.8794  0.3300  2.6187
  527MOL0     H71127   5.670  11.272   5.674  0.6098 -0.1308  0.3874
  527MOL0     H71128   5.708  11.040   5.687 -2.5643 -1.9972 -2.5211
  527MOL0     H71129   7.036  10.463   4.363 -0.0433 -0.8183  0.2196
  527MOL0     H71130   7.215  10.422   4.202 -0.8547  1.3931  0.4998
  527MOL0     H71131   7.842  10.367   4.267 -0.9934  0.7481 -1.2496
  527MOL0     H71132   8.001  10.236   4.138 -0.2472  3.6986 -2.5532
  527MOL0     H71133   8.135  10.144   4.004  0.8963  0.9758 -0.0011
  527MOL0     H71134   8.028  10.205   3.870 -0.7361 -0.3548  1.2492
  527MOL0     H71135   8.216  10.085   3.763  1.9523 -1.2254  0.6319
  527MOL0     H71136   8.083   9.975   3.759  2.4295 -0.6639 -1.3942
  527MOL0     H71137   8.171   9.894   4.000 -2.8122 -3.9932 -2.3650
  527MOL0     H71138   8.316   9.993   3.950  0.0975 -0.2435 -2.2701
  527MOL0     H71139   8.326   9.842   3.739  0.8277 -0.8077  0.0152
  527MOL0     H71140   8.369   9.766   3.893  1.6818  1.8675 -0.4980
  527MOL0     H71141   8.018   9.569   3.781 -1.5581  1.7567  2.1540
  527MOL0     H71142   7.684  10.010   3.964  0.8684  0.8344 -0.8384
  527MOL0     H71143   7.490  10.000   4.072  2.2423 -0.8756  5.1352
  527MOL0     H71144   7.452  10.093   4.207 -2.3534 -1.0590 -0.8376
  527MOL0     H71145   7.416  10.169   4.043  0.9526  1.3412  1.0344
  528MOL0     O71146   0.847   5.563   0.487 -0.7410  0.4480 -0.3995
  528MOL0     C71147   0.803   5.457   0.535  0.2281 -0.8734  0.0628
  528MOL0     O71148   0.832   5.407   0.660  0.6168  1.1590 -0.2780
  528MOL0     C71149   0.905   5.474   0.754  0.5343  0.7090  0.0351
  528MOL0     C71150   0.855   5.464   0.881 -0.0933  0.4179 -0.9231
  528MOL0     C71151   0.933   5.517   0.989 -0.7297  0.1469  0.1695
  528MOL0     C71152   1.052   5.582   0.969  0.5183  0.7497 -0.0805
  528MOL0     O71153   1.109   5.612   1.084 -0.0217 -0.0574 -0.2475
  528MOL0     C71154   1.221   5.705   1.073 -0.6336 -0.1406  0.4547
  528MOL0     C71155   1.259   5.777   1.212  0.4905 -0.7533  0.2867
  528MOL0     C71156   1.370   5.885   1.195 -0.3689 -0.0900 -0.3788
  528MOL0     C71157   1.507   5.804   1.199  0.6195 -0.9443  0.1751
  528MOL0     C71158   1.628   5.899   1.150 -0.6640 -0.2945 -0.0901
  528MOL0     C71159   1.760   5.851   1.187 -0.5029 -0.1096 -0.3717
  528MOL0     C71160   1.863   5.937   1.108  1.2879 -0.6773 -0.6052
  528MOL0     C71161   1.985   5.856   1.085  1.0014 -0.3354  0.9800
  528MOL0     N71162   2.082   5.936   1.008  0.5205  0.6443 -0.6001
  528MOL0     C71163   2.199   5.973   1.066  0.6743  0.6900 -0.9715
  528MOL0     C71164   2.252   6.044   0.964 -0.7293  0.2401 -0.4469
  528MOL0     C71165   2.392   6.108   0.972  0.7897  0.5290  0.6460
  528MOL0     C71166   2.505   6.013   0.944 -0.1957 -1.2033 -0.5055
  528MOL0     C71167   2.503   5.869   0.979  0.9552  0.5999  0.8244
  528MOL0     C71168   2.633   5.804   0.962 -0.1227  0.4648 -0.4457
  528MOL0     O71169   2.700   5.838   0.839  0.0302  0.2199 -0.5625
  528MOL0     C71170   2.820   5.788   0.805 -0.4226  0.0029 -0.9032
  528MOL0     C71171   2.897   5.713   0.896 -0.0101 -0.2943  0.8180
  528MOL0     C71172   3.029   5.674   0.865 -0.2303 -0.4834  0.3417
  528MOL0     C71173   3.087   5.716   0.751 -0.6230  0.7312  1.0324
  528MOL0     C71174   3.225   5.687   0.726 -0.2457 -0.2884 -0.1758
  528MOL0     O71175   3.296   5.611   0.823  0.0237  0.2802  0.0502
  528MOL0     C71176   3.422   5.580   0.807  0.6768  0.4248 -0.1140
  528MOL0     C71177   3.506   5.683   0.794  0.3776  0.5446 -0.2432
  528MOL0     C71178   3.644   5.661   0.772  0.5910 -0.2996 -0.4090
  528MOL0     C71179   3.700   5.538   0.757  0.8235  0.0094 -0.3873
  528MOL0     O71180   3.833   5.524   0.743 -0.4780  0.3859  0.7356
  528MOL0     C71181   3.894   5.396   0.725 -0.9521  0.4394 -0.4757
  528MOL0     C71182   4.038   5.412   0.673 -0.3922 -0.1680 -0.3491
  528MOL0     C71183   4.119   5.489   0.777  0.1165  0.0463 -0.0404
  528MOL0     C71184   4.268   5.492   0.744 -1.0560 -0.5888  0.7113
  528MOL0     C71185   4.354   5.521   0.865 -0.1814  0.4914  0.6978
  528MOL0     C71186   4.487   5.564   0.811  0.6424 -0.5867  0.1725
  528MOL0     C71187   4.580   5.618   0.919  0.3479 -0.0152  0.4267
  528MOL0     C71188   4.717   5.657   0.860  0.1026 -0.3388 -0.7521
  528MOL0    Cl71189   4.825   5.705   0.988 -0.4477  0.1610 -0.3762
  528MOL0     C71190   3.605   5.437   0.757  0.2701 -0.1199 -0.0343
  528MOL0     C71191   3.467   5.454   0.776  0.1133 -0.6219 -0.0819
  528MOL0     O71192   3.276   5.720   0.620  0.0194  0.2936 -0.5801
  528MOL0     C71193   3.016   5.796   0.662 -0.0983 -0.1116 -0.0622
  528MOL0     C71194   2.882   5.829   0.690 -0.0926  0.1455 -0.3011
  528MOL0     N71195   2.168   6.062   0.857 -0.3084 -0.2128  0.5256
  528MOL0     N71196   2.062   6.004   0.891  0.7801  0.6024 -1.0064
  528MOL0     C71197   1.103   5.601   0.837  0.2293 -0.8861 -0.2971
  528MOL0     C71198   1.027   5.554   0.732  0.3971 -0.0697  0.3011
  528MOL0     C71199   0.718   5.379   0.456  0.1432  0.1215  0.0523
  528MOL0     C71200   0.753   5.340   0.326  0.3493  0.3235 -0.3236
  528MOL0     C71201   0.659   5.268   0.241  0.3902 -0.4693  0.2531
  528MOL0     C71202   0.535   5.232   0.302  0.1471 -0.5768  0.8064
  528MOL0     O71203   0.439   5.162   0.231 -0.3089 -0.1821  0.2348
  528MOL0     C71204   0.475   5.134   0.090 -0.5657  0.6763 -0.0948
  528MOL0     C71205   0.363   5.054   0.021 -0.3420  0.3262  0.0158
  528MOL0     C71206   0.311   4.941   0.109 -0.3921  0.1985 -0.3020
  528MOL0     C71207   0.197   4.864   0.046  0.2942  0.7120 -0.4322
  528MOL0     C71208   0.126   4.771   0.138 -0.3587  1.2516 -0.0681
  528MOL0     C71209   0.060   4.700   0.212 -0.5747  0.3880  0.1091
  528MOL0     C71210   0.498   5.271   0.431  0.1023  0.3609 -0.3926
  528MOL0     C71211   0.586   5.347   0.507 -0.4519 -0.1534 -0.0305
  528MOL0     C71212   0.536   5.370   0.642 -0.7940 -0.6100 -0.3171
  528MOL0     H71213   0.770   5.396   0.890  0.2265 -0.0642 -1.4534
  528MOL0     H71214   0.893   5.514   1.090 -1.1601 -0.5095 -0.0128
  528MOL0     H71215   1.306   5.639   1.052 -0.8002 -0.4788  0.8213
  528MOL0     H71216   1.219   5.784   0.998 -0.8683 -0.3245  0.2617
  528MOL0     H71217   1.291   5.702   1.284 -0.4775 -0.3931  1.1133
  528MOL0     H71218   1.179   5.842   1.248  1.7437  1.4097 -0.6144
  528MOL0     H71219   1.370   5.959   1.276 -0.3977 -1.3236  0.7777
  528MOL0     H71220   1.364   5.932   1.097  2.8632 -1.1944 -1.2151
  528MOL0     H71221   1.529   5.777   1.303  2.9473 -3.4256 -0.8587
  528MOL0     H71222   1.510   5.720   1.130  2.0035 -0.0155 -0.9663
  528MOL0     H71223   1.634   5.907   1.041  2.9740 -0.1552  0.0057
  528MOL0     H71224   1.604   6.002   1.180  0.3054  0.7505 -2.6178
  528MOL0     H71225   1.792   5.866   1.291  3.3990 -2.9799 -0.9055
  528MOL0     H71226   1.769   5.749   1.148  0.7221  0.6021 -2.0716
  528MOL0     H71227   1.883   6.021   1.176 -0.5285 -1.7080  1.2874
  528MOL0     H71228   1.822   5.984   1.018 -0.7591  0.1242  0.6783
  528MOL0     H71229   2.028   5.803   1.170 -1.8303 -0.8159  2.2377
  528MOL0     H71230   1.968   5.773   1.016 -0.1266 -0.8366  1.8199
  528MOL0     H71231   2.226   5.938   1.165 -0.8637 -0.7414 -1.0215
  528MOL0     H71232   2.402   6.192   0.902  0.9625  0.0748  0.1205
  528MOL0     H71233   2.407   6.142   1.075 -0.8436  4.7016 -0.2999
  528MOL0     H71234   2.521   6.013   0.836  0.1704 -3.1255 -0.4924
  528MOL0     H71235   2.595   6.052   0.991 -0.6118 -2.1555  1.1661
  528MOL0     H71236   2.440   5.816   0.906 -0.2369  2.9994 -0.0013
  528MOL0     H71237   2.460   5.856   1.079  0.5478  0.0589  0.5870
  528MOL0     H71238   2.629   5.694   0.965  2.8070  0.2242 -1.6963
  528MOL0     H71239   2.695   5.840   1.044  0.7647 -2.6984  0.4280
  528MOL0     H71240   2.861   5.680   0.993 -0.9306 -1.5404  0.0781
  528MOL0     H71241   3.083   5.611   0.936 -2.2630  1.4296  3.8849
  528MOL0     H71242   3.477   5.788   0.792 -1.4796  0.2083  2.6288
  528MOL0     H71243   3.714   5.745   0.774 -1.4220  1.4655  1.5131
  528MOL0     H71244   3.888   5.349   0.824  1.0454  1.2089  0.0670
  528MOL0     H71245   3.835   5.347   0.648 -2.1733  0.8922  0.1473
  528MOL0     H71246   4.099   5.322   0.663  0.4076  0.4010 -0.6615
  528MOL0     H71247   4.049   5.458   0.574 -1.4779 -1.4920 -1.1138
  528MOL0     H71248   4.083   5.591   0.791 -0.0485  0.2235 -1.6011
  528MOL0     H71249   4.095   5.443   0.873 -4.8270  2.0481  0.0041
  528MOL0     H71250   4.285   5.571   0.670  2.1375 -0.4060  1.5130
  528MOL0     H71251   4.289   5.395   0.699 -1.6671  0.2137 -1.4393
  528MOL0     H71252   4.363   5.427   0.920  2.0501 -0.7634 -1.5814
  528MOL0     H71253   4.301   5.596   0.924 -2.3478  0.3875 -1.0127
  528MOL0     H71254   4.537   5.485   0.754 -1.1081 -1.4555 -0.2051
  528MOL0     H71255   4.463   5.643   0.739  0.8686  0.3001  1.0498
  528MOL0     H71256   4.598   5.533   0.987  1.4728 -0.7275 -0.7169
  528MOL0     H71257   4.525   5.695   0.974 -2.1410 -1.2904 -0.0891
  528MOL0     H71258   4.752   5.575   0.797 -1.6520 -0.9790 -0.9392
  528MOL0     H71259   4.703   5.751   0.805  0.8297  0.1592 -0.1057
  528MOL0     H71260   3.634   5.335   0.734 -0.0847  0.6270 -5.0351
  528MOL0     H71261   3.397   5.371   0.772 -1.2608  0.5456 -0.7827
  528MOL0     H71262   3.065   5.824   0.570  1.7386 -0.7255  0.6963
  528MOL0     H71263   2.824   5.900   0.631  0.5144  0.5237 -0.4548
  528MOL0     H71264   1.198   5.650   0.819 -1.2250  2.4218  0.3128
  528MOL0     H71265   1.065   5.554   0.630  0.7874 -3.0910  0.3468
  528MOL0     H71266   0.849   5.378   0.292 -0.5151  1.8830 -1.1919
  528MOL0     H71267   0.685   5.269   0.136  0.2386  2.4812  0.1690
  528MOL0     H71268   0.567   5.075   0.091 -0.5039  0.7425 -1.0149
  528MOL0     H71269   0.496   5.229   0.041  1.3920  3.9693  6.0130
  528MOL0     H71270   0.402   5.021  -0.076 -1.4182 -0.8956 -0.0150
  528MOL0     H71271   0.280   5.123   0.003  0.6334  1.3999 -0.4827
  528MOL0     H71272   0.284   4.984   0.205  1.9512 -0.1798  0.5923
  528MOL0     H71273   0.397   4.875   0.123  1.6260  2.7670  0.1900
  528MOL0     H71274   0.115   4.920   0.001 -2.4311 -0.8083  2.2984
  528MOL0     H71275   0.241   4.801  -0.033 -3.5711  0.1972 -2.4076
  528MOL0     H71276  -0.001   4.657   0.289 -2.0089  2.1101  0.0023
  528MOL0     H71277   0.397   5.245   0.460  0.6150 -4.4825 -2.0749
  528MOL0     H71278   0.428   5.386   0.641 -0.7490 -0.1723 -2.4609
  528MOL0     H71279   0.558   5.276   0.693 -0.6486 -0.2388  0.3171
  528MOL0     H71280   0.576   5.455   0.699 -0.3755 -0.1092 -1.3284
  529MOL0     O71281   4.831   6.409   3.534 -0.4974 -0.0105  0.3825
  529MOL0     C71282   4.847   6.398   3.659 -0.0107  0.2881 -0.1928
  529MOL0     O71283   4.959   6.434   3.736  0.1729 -0.2889  0.3881
  529MOL0     C71284   5.080   6.451   3.673  0.3847 -0.5101  0.3281
  529MOL0     C71285   5.104   6.568   3.589 -0.2367  0.3742  0.5001
  529MOL0     C71286   5.230   6.586   3.534 -0.5905  1.1274 -1.5220
  529MOL0     C71287   5.337   6.496   3.552 -0.1155  0.1177  0.1865
  529MOL0     O71288   5.464   6.514   3.506 -0.0384  0.5703  0.3896
  529MOL0     C71289   5.524   6.638   3.524  0.6227 -0.2894  0.1744
  529MOL0     C71290   5.526   6.685   3.671  0.6054 -0.3502 -0.1443
  529MOL0     C71291   5.613   6.601   3.758 -0.3312  0.3083  0.5149
  529MOL0     C71292   5.760   6.636   3.745  0.0478  0.0202  0.3897
  529MOL0     C71293   5.839   6.527   3.822  0.0696 -0.5648  0.9909
  529MOL0     C71294   5.989   6.556   3.812 -0.8610  0.4124 -0.4323
  529MOL0     C71295   6.049   6.685   3.865  0.0909  1.1848  1.2127
  529MOL0     C71296   6.053   6.684   4.013  0.1229  0.6904 -0.8406
  529MOL0     N71297   6.175   6.626   4.081 -0.0279 -0.0737 -0.2762
  529MOL0     C71298   6.193   6.497   4.127 -0.7301  0.7839 -0.8165
  529MOL0     C71299   6.314   6.499   4.192  0.4145  1.1749  0.3657
  529MOL0     C71300   6.392   6.394   4.260  0.0350 -1.0806 -0.5793
  529MOL0     C71301   6.361   6.256   4.205 -0.8457 -0.6889  0.1290
  529MOL0     C71302   6.484   6.157   4.249  0.4528 -0.4497  0.3539
  529MOL0     C71303   6.455   6.087   4.381  0.0539 -0.2506  0.1692
  529MOL0     O71304   6.557   5.982   4.422  0.0150 -0.3153  0.0164
  529MOL0     C71305   6.682   6.030   4.453 -0.1578 -0.3161  0.4426
  529MOL0     C71306   6.783   6.041   4.361  0.0509  0.6516  0.2269
  529MOL0     C71307   6.909   6.090   4.392  0.5096  0.0949  0.0996
  529MOL0     C71308   6.942   6.126   4.525  0.5559 -0.0982  0.6249
  529MOL0     C71309   7.076   6.186   4.562 -0.3919  0.5579 -0.0035
  529MOL0     O71310   7.173   6.153   4.470 -0.3568  0.1630 -0.4782
  529MOL0     C71311   7.307   6.177   4.492  0.1444 -0.2632  0.0443
  529MOL0     C71312   7.366   6.264   4.585 -0.5134  0.5124  0.4117
  529MOL0     C71313   7.500   6.288   4.597 -0.0939 -0.2599  0.3587
  529MOL0     C71314   7.591   6.203   4.520  0.8437 -0.2159 -0.4713
  529MOL0     O71315   7.724   6.218   4.544 -0.1588 -0.2260 -0.3481
  529MOL0     C71316   7.817   6.182   4.444  0.4030  0.4436  0.9492
  529MOL0     C71317   7.957   6.227   4.464 -0.3519  0.5820 -0.6545
  529MOL0     C71318   8.049   6.162   4.363 -0.5445  0.5333 -0.7800
  529MOL0     C71319   8.175   6.250   4.344 -0.6543 -0.1379 -0.2709
  529MOL0     C71320   8.162   6.323   4.209 -1.0300  0.3581 -0.3162
  529MOL0     C71321   8.299   6.394   4.181 -0.6978 -0.4311 -0.7812
  529MOL0     C71322   8.299   6.481   4.058  0.0935  1.1163 -0.6810
  529MOL0     C71323   8.424   6.563   4.043  0.3361 -0.2965 -0.5103
  529MOL0    Cl71324   8.562   6.478   3.959 -0.1179  0.0075  0.1775
  529MOL0     C71325   7.535   6.117   4.425 -0.6767  0.6742  0.3430
  529MOL0     C71326   7.396   6.103   4.413  0.4631  0.3060 -0.0588
  529MOL0     O71327   7.085   6.266   4.649 -0.3186 -0.4071 -0.3590
  529MOL0     C71328   6.837   6.119   4.625 -0.5291 -1.0311  0.3880
  529MOL0     C71329   6.707   6.072   4.587  0.3624  0.5183  0.5504
  529MOL0     N71330   6.360   6.623   4.191  0.4611 -0.6929 -0.1734
  529MOL0     N71331   6.279   6.700   4.127  0.4035 -0.2331 -0.4044
  529MOL0     C71332   5.303   6.383   3.629 -0.1677 -0.8032  0.4160
  529MOL0     C71333   5.184   6.355   3.689  0.4166 -0.4215  1.1580
  529MOL0     C71334   4.728   6.343   3.726  0.1286  0.0248 -0.7368
  529MOL0     C71335   4.603   6.388   3.685  0.0171  0.6224 -0.0027
  529MOL0     C71336   4.488   6.329   3.738  0.3139 -0.0754 -0.2650
  529MOL0     C71337   4.495   6.229   3.837 -0.4784 -0.2456  0.9553
  529MOL0     O71338   4.385   6.162   3.886  0.0288  0.1022  0.1719
  529MOL0     C71339   4.250   6.216   3.877  0.6546  0.8203  0.3791
  529MOL0     C71340   4.158   6.130   3.955  0.1788  0.2346  0.1544
  529MOL0     C71341   4.153   6.174   4.101 -0.1020  0.3899  0.7341
  529MOL0     C71342   4.050   6.089   4.178 -0.0497  0.1317  0.3878
  529MOL0     C71343   3.934   6.179   4.199 -0.2249  0.5534 -0.3960
  529MOL0     C71344   3.854   6.262   4.220 -0.0576 -0.4142  0.6855
  529MOL0     C71345   4.621   6.180   3.870  0.7710  0.2760  0.0047
  529MOL0     C71346   4.737   6.243   3.824 -0.0671  0.1760  0.6795
  529MOL0     C71347   4.877   6.198   3.879 -0.4897  0.0853 -0.3731
  529MOL0     H71348   5.026   6.641   3.570  0.1996  0.4333 -1.2343
  529MOL0     H71349   5.245   6.678   3.479 -0.0780  1.2917 -1.1220
  529MOL0     H71350   5.630   6.633   3.498  0.3941 -0.5102 -0.7285
  529MOL0     H71351   5.482   6.711   3.455 -0.4836 -0.7395  0.3416
  529MOL0     H71352   5.426   6.688   3.715  0.2503  0.5358 -0.9926
  529MOL0     H71353   5.558   6.789   3.684  1.0449 -0.5815  0.7286
  529MOL0     H71354   5.590   6.500   3.721 -0.2746  0.2100  0.7461
  529MOL0     H71355   5.586   6.612   3.864  0.0225 -0.7154  0.7258
  529MOL0     H71356   5.789   6.639   3.639  2.5302 -2.6316  0.8808
  529MOL0     H71357   5.789   6.734   3.785 -0.2172  0.2104  0.1224
  529MOL0     H71358   5.814   6.535   3.928  1.9019 -1.1593  1.5019
  529MOL0     H71359   5.835   6.437   3.761  0.0921  1.1835 -1.7457
  529MOL0     H71360   6.052   6.472   3.843 -1.2777  0.0034 -0.6781
  529MOL0     H71361   5.992   6.564   3.703 -1.1935  0.8124 -0.4137
  529MOL0     H71362   5.987   6.768   3.831  1.1474  1.3838 -0.3749
  529MOL0     H71363   6.146   6.702   3.816 -0.0308  2.3990  1.3696
  529MOL0     H71364   6.040   6.790   4.039 -0.8689  0.9847 -2.4131
  529MOL0     H71365   5.974   6.630   4.067  1.7233  2.5449  3.9235
  529MOL0     H71366   6.134   6.407   4.115 -0.3975  0.3931  0.3371
  529MOL0     H71367   6.494   6.428   4.244 -0.0555  1.7946  3.4141
  529MOL0     H71368   6.373   6.408   4.367 -0.9331  0.1813 -0.8931
  529MOL0     H71369   6.260   6.223   4.229 -1.8754  1.1783 -1.3942
  529MOL0     H71370   6.368   6.266   4.096 -0.6165  1.1954  0.2837
  529MOL0     H71371   6.576   6.215   4.259 -0.0002 -0.0438  3.2718
  529MOL0     H71372   6.500   6.081   4.173 -1.4253  1.5962 -2.2682
  529MOL0     H71373   6.359   6.034   4.373 -0.0430 -0.2677  1.2610
  529MOL0     H71374   6.436   6.170   4.450  1.8282  2.3069 -2.2243
  529MOL0     H71375   6.775   6.016   4.256 -0.3409  0.8285  0.2132
  529MOL0     H71376   6.989   6.105   4.320  2.8353  0.0877  2.5065
  529MOL0     H71377   7.299   6.317   4.652 -1.5968 -0.7886  0.3942
  529MOL0     H71378   7.531   6.362   4.670 -1.5149  3.1191 -2.1455
  529MOL0     H71379   7.815   6.074   4.431 -1.1009  0.2724  2.2625
  529MOL0     H71380   7.773   6.230   4.356  1.1381  4.1820  2.4009
  529MOL0     H71381   7.964   6.335   4.479 -1.7520  0.2587  3.2899
  529MOL0     H71382   7.986   6.191   4.563 -0.5050  1.0459 -0.4375
  529MOL0     H71383   8.087   6.066   4.397  0.2897  1.6405  1.6590
  529MOL0     H71384   8.005   6.155   4.263  1.5545  3.5146 -2.0812
  529MOL0     H71385   8.269   6.195   4.334  1.0814  2.9409 -3.0926
  529MOL0     H71386   8.185   6.319   4.428  1.7055 -2.4677  1.5302
  529MOL0     H71387   8.084   6.400   4.217 -3.8665 -2.1163 -2.1824
  529MOL0     H71388   8.140   6.252   4.129  3.1171 -2.7988  1.0223
  529MOL0     H71389   8.325   6.456   4.267  1.0106  0.0313 -1.5864
  529MOL0     H71390   8.379   6.322   4.161 -1.6768 -1.4107 -1.3039
  529MOL0     H71391   8.215   6.551   4.055 -1.8565 -1.1144 -3.8552
  529MOL0     H71392   8.284   6.415   3.972 -2.5139 -3.2594  2.6859
  529MOL0     H71393   8.399   6.660   3.999  1.8146  0.2056 -0.3107
  529MOL0     H71394   8.458   6.596   4.142  0.5579  0.2120 -0.7489
  529MOL0     H71395   7.606   6.053   4.373  0.8349  1.9819  0.7148
  529MOL0     H71396   7.359   6.036   4.337  0.0838  0.5564 -0.1010
  529MOL0     H71397   6.863   6.146   4.726 -0.3145 -4.4072  1.3379
  529MOL0     H71398   6.633   6.066   4.667 -1.4744  1.9956 -0.9355
  529MOL0     H71399   5.376   6.304   3.643 -0.0769 -1.2224 -2.0499
  529MOL0     H71400   5.159   6.262   3.738 -0.5026 -0.5472  0.4781
  529MOL0     H71401   4.596   6.455   3.600  0.6848 -0.1434 -0.6821
  529MOL0     H71402   4.389   6.365   3.713 -0.7257 -1.1346  1.9736
  529MOL0     H71403   4.215   6.210   3.773 -0.9958  0.1082  0.9454
  529MOL0     H71404   4.248   6.316   3.921  0.0936  0.6686  0.7124
  529MOL0     H71405   4.170   6.022   3.938  3.0840  0.4101  0.4765
  529MOL0     H71406   4.062   6.154   3.910  1.2682  0.3621 -2.2581
  529MOL0     H71407   4.128   6.281   4.102 -0.4756  0.3113  0.3751
  529MOL0     H71408   4.254   6.161   4.139  1.5106  0.0610 -3.2111
  529MOL0     H71409   4.027   5.994   4.130  1.3848  0.3078 -0.6923
  529MOL0     H71410   4.097   6.052   4.270 -0.6751 -2.0422 -0.1106
  529MOL0     H71411   3.777   6.336   4.228 -1.3826 -1.8900  2.6741
  529MOL0     H71412   4.616   6.107   3.950  2.8422 -0.7007 -0.6954
  529MOL0     H71413   4.908   6.275   3.951 -1.4361  0.9743 -0.8768
  529MOL0     H71414   4.877   6.108   3.940 -0.6817  2.0586  2.7185
  529MOL0     H71415   4.953   6.198   3.800  1.3402  1.9276  1.2602
  530MOL0     O71416   6.651   5.940   1.767  0.2522 -0.3088  0.8476
  530MOL0     C71417   6.713   5.998   1.680  0.3195  0.0966  0.7388
  530MOL0     O71418   6.660   6.089   1.591 -0.2432 -0.0908 -0.2350
  530MOL0     C71419   6.528   6.113   1.619 -0.9951 -0.0802  0.3961
  530MOL0     C71420   6.491   6.195   1.726  0.5297 -0.0076  0.4536
  530MOL0     C71421   6.357   6.215   1.738  1.5971  0.2365  0.1221
  530MOL0     C71422   6.255   6.167   1.662  0.0719 -0.7967  0.2724
  530MOL0     O71423   6.120   6.193   1.672 -0.0621  0.0919 -0.4906
  530MOL0     C71424   6.089   6.225   1.809  0.3414  0.9438 -0.0240
  530MOL0     C71425   5.938   6.219   1.838 -0.0280 -0.9837 -0.1707
  530MOL0     C71426   5.850   6.288   1.739 -0.5414  0.4649 -0.0201
  530MOL0     C71427   5.721   6.303   1.807 -0.7666 -1.0165 -0.2510
  530MOL0     C71428   5.631   6.362   1.700 -0.6600 -1.0651 -0.5958
  530MOL0     C71429   5.523   6.447   1.758 -0.2201 -0.8442 -0.5527
  530MOL0     C71430   5.417   6.485   1.649  0.6746 -0.3253  1.0217
  530MOL0     C71431   5.353   6.365   1.580 -0.2908 -0.3034  0.0243
  530MOL0     N71432   5.258   6.404   1.475  0.3791  0.0470 -0.4796
  530MOL0     C71433   5.268   6.511   1.387  0.3355 -0.2220  0.4360
  530MOL0     C71434   5.151   6.510   1.313 -0.0543  0.2695 -0.0436
  530MOL0     C71435   5.146   6.592   1.188  0.0525 -0.3111  0.6716
  530MOL0     C71436   5.158   6.751   1.207 -1.2638  0.1604  0.6359
  530MOL0     C71437   5.133   6.832   1.077  0.3284  0.3468 -0.3239
  530MOL0     C71438   5.256   6.847   1.001 -0.1061  0.5018 -0.3734
  530MOL0     O71439   5.355   6.916   1.079 -0.6668 -0.0728 -0.4261
  530MOL0     C71440   5.476   6.928   1.011  0.3328  0.0330 -1.0054
  530MOL0     C71441   5.568   7.016   1.060  0.7280 -0.4612 -0.9146
  530MOL0     C71442   5.694   7.036   1.003 -0.4630  0.2294  0.1679
  530MOL0     C71443   5.724   6.971   0.874 -0.3424 -0.6462 -0.0336
  530MOL0     C71444   5.852   6.998   0.804  0.7648  0.0014 -0.0938
  530MOL0     O71445   5.942   7.069   0.869 -0.4378 -0.1974 -0.1050
  530MOL0     C71446   6.056   7.092   0.800 -0.2911 -0.3096 -0.0770
  530MOL0     C71447   6.065   7.147   0.674 -0.2509  0.7274  0.6900
  530MOL0     C71448   6.186   7.161   0.607  0.2879  1.2448  0.2782
  530MOL0     C71449   6.307   7.130   0.669 -0.5111  0.2921 -0.2506
  530MOL0     O71450   6.423   7.159   0.593  0.0989  0.0090  0.0449
  530MOL0     C71451   6.547   7.109   0.647  0.1838 -0.1851  0.7304
  530MOL0     C71452   6.645   7.115   0.531  0.4574 -0.0411  0.1135
  530MOL0     C71453   6.792   7.145   0.574  0.3747 -0.1661 -0.3487
  530MOL0     C71454   6.888   7.150   0.452  0.4407 -0.4907 -0.3222
  530MOL0     C71455   6.995   7.246   0.488  0.3256  0.1767  0.1038
  530MOL0     C71456   7.112   7.212   0.394  0.4412  0.3338  0.5545
  530MOL0     C71457   7.211   7.330   0.395 -0.2915 -0.2513 -0.1129
  530MOL0     C71458   7.327   7.288   0.309 -0.1047 -0.6832  0.3275
  530MOL0    Cl71459   7.393   7.447   0.251 -0.1035 -0.3441  0.2026
  530MOL0     C71460   6.298   7.076   0.795 -0.5868  0.2043  0.4728
  530MOL0     C71461   6.178   7.058   0.858 -0.2407  0.2725 -0.3859
  530MOL0     O71462   5.856   6.962   0.687  0.2858 -0.5746  0.6996
  530MOL0     C71463   5.630   6.891   0.813  0.8824 -0.9579 -1.6065
  530MOL0     C71464   5.513   6.876   0.884 -0.0631  0.0277 -0.5096
  530MOL0     N71465   5.067   6.417   1.367 -0.3806 -0.1769  0.0700
  530MOL0     N71466   5.125   6.361   1.471  0.2181  0.0684 -0.0045
  530MOL0     C71467   6.291   6.075   1.564 -0.2706  0.4953  0.2748
  530MOL0     C71468   6.429   6.052   1.533 -0.3488  0.5110  0.3129
  530MOL0     C71469   6.858   5.980   1.680  0.3881 -0.0125  1.0060
  530MOL0     C71470   6.923   6.014   1.560 -0.4200 -0.3411 -1.1652
  530MOL0     C71471   7.056   5.983   1.545 -0.2763 -0.0391  0.2670
  530MOL0     C71472   7.139   5.934   1.642  0.2062 -0.1951  0.3839
  530MOL0     O71473   7.273   5.905   1.634 -0.0489  0.8497  0.0051
  530MOL0     C71474   7.338   5.902   1.509  0.7504 -0.5721  0.4401
  530MOL0     C71475   7.329   5.757   1.451  0.8260  0.3762  0.0347
  530MOL0     C71476   7.437   5.661   1.517  0.2376  0.8733 -0.0418
  530MOL0     C71477   7.448   5.526   1.433 -0.0619 -0.1476 -0.2602
  530MOL0     C71478   7.512   5.419   1.510 -0.3344  0.1490  0.1343
  530MOL0     C71479   7.570   5.322   1.557 -0.1831 -0.2447 -0.5834
  530MOL0     C71480   7.077   5.911   1.770  0.1407 -0.6069  0.6494
  530MOL0     C71481   6.940   5.928   1.785  0.2413  0.1472 -0.4386
  530MOL0     C71482   6.889   5.884   1.926  0.0503  1.0439  0.8919
  530MOL0     H71483   6.565   6.255   1.779 -0.5797  1.7934  0.0624
  530MOL0     H71484   6.334   6.279   1.823  0.0856 -1.7111  1.2673
  530MOL0     H71485   6.131   6.161   1.886 -0.4524  0.4621  0.0195
  530MOL0     H71486   6.114   6.331   1.824 -0.2644  1.1702 -0.5658
  530MOL0     H71487   5.927   6.265   1.937 -2.3198  0.8282 -1.1640
  530MOL0     H71488   5.906   6.115   1.850 -2.1760 -0.4990 -1.1543
  530MOL0     H71489   5.844   6.234   1.644 -2.1292 -2.8115  1.7824
  530MOL0     H71490   5.896   6.383   1.712 -2.2393  1.6660  1.1314
  530MOL0     H71491   5.680   6.212   1.852  0.4864 -0.7438  1.5571
  530MOL0     H71492   5.732   6.371   1.892  1.6382 -2.6491  0.8453
  530MOL0     H71493   5.685   6.425   1.628 -0.8092 -1.6056 -1.1924
  530MOL0     H71494   5.594   6.269   1.656 -0.4055 -0.8864 -1.1990
  530MOL0     H71495   5.465   6.386   1.828 -1.5442  2.0215  0.9877
  530MOL0     H71496   5.569   6.533   1.806 -3.3655 -0.1335  1.4721
  530MOL0     H71497   5.465   6.558   1.583  1.3599  0.3394  2.1977
  530MOL0     H71498   5.339   6.551   1.689 -0.2056  0.9751 -2.4878
  530MOL0     H71499   5.431   6.312   1.524  1.7529  3.0495 -0.6022
  530MOL0     H71500   5.313   6.299   1.657 -0.3128  0.7895  0.9658
  530MOL0     H71501   5.356   6.573   1.379 -0.0131  0.4310  1.4744
  530MOL0     H71502   5.229   6.561   1.124  0.6316  0.7250  0.8951
  530MOL0     H71503   5.050   6.576   1.138 -1.8700  2.3540  3.1651
  530MOL0     H71504   5.073   6.774   1.272 -1.0589  0.5633  0.7602
  530MOL0     H71505   5.247   6.785   1.260 -1.2931  2.3869 -0.6373
  530MOL0     H71506   5.102   6.933   1.107 -0.1257 -0.0136  0.4539
  530MOL0     H71507   5.047   6.795   1.020  0.3109  0.9900 -0.7167
  530MOL0     H71508   5.233   6.905   0.911 -1.1664 -0.9074 -1.0544
  530MOL0     H71509   5.276   6.746   0.965 -0.8241  1.1984 -2.9953
  530MOL0     H71510   5.560   7.068   1.155  2.6381  0.7472 -1.3672
  530MOL0     H71511   5.775   7.091   1.049  0.4267 -1.3867  0.5810
  530MOL0     H71512   5.968   7.177   0.635  0.1032  1.4473  0.3479
  530MOL0     H71513   6.185   7.216   0.513 -0.6868  1.4012  0.3761
  530MOL0     H71514   6.581   7.155   0.740 -1.6658 -1.5597  2.1694
  530MOL0     H71515   6.536   7.002   0.665  0.6662 -0.6067 -1.2374
  530MOL0     H71516   6.640   7.023   0.474 -0.1463  0.1064 -0.0804
  530MOL0     H71517   6.618   7.198   0.465 -0.3202 -0.2302  0.1854
  530MOL0     H71518   6.792   7.241   0.626  1.7575  0.2017 -0.9771
  530MOL0     H71519   6.839   7.073   0.641  1.2216  0.2533 -0.4769
  530MOL0     H71520   6.837   7.176   0.359 -0.9112 -1.0795  0.2358
  530MOL0     H71521   6.931   7.051   0.438 -2.3327 -1.6360 -1.4251
  530MOL0     H71522   7.035   7.232   0.589  4.0780 -0.8895 -1.3531
  530MOL0     H71523   6.950   7.345   0.472  0.1140  0.5636  2.6027
  530MOL0     H71524   7.172   7.128   0.431  1.4052 -0.1336 -1.9042
  530MOL0     H71525   7.075   7.196   0.292  1.0893  0.7915  0.2475
  530MOL0     H71526   7.247   7.358   0.495  0.8367  2.2047 -1.1213
  530MOL0     H71527   7.159   7.412   0.344  0.7505 -0.0561 -0.8863
  530MOL0     H71528   7.403   7.240   0.371  1.6160  2.2780  0.7053
  530MOL0     H71529   7.298   7.223   0.225  1.0839 -1.4456  0.4867
  530MOL0     H71530   6.386   7.038   0.847 -1.7567 -0.1670  2.2788
  530MOL0     H71531   6.165   7.009   0.954 -2.9711 -0.2387 -0.9461
  530MOL0     H71532   5.636   6.837   0.718  0.4838 -0.3500 -1.9860
  530MOL0     H71533   5.434   6.815   0.842 -0.5524 -0.9261  1.6485
  530MOL0     H71534   6.208   6.045   1.501  0.8798  2.7828 -2.5678
  530MOL0     H71535   6.464   5.974   1.466 -1.4373  1.9014 -1.9733
  530MOL0     H71536   6.862   6.038   1.474 -0.5557 -2.4715 -1.7241
  530MOL0     H71537   7.084   5.996   1.441 -0.9399  2.4285  0.3321
  530MOL0     H71538   7.445   5.923   1.517  0.3091  1.5704  1.2148
  530MOL0     H71539   7.297   5.973   1.436  0.4219 -2.1026 -0.9181
  530MOL0     H71540   7.360   5.750   1.347  0.1032 -0.1624 -0.1530
  530MOL0     H71541   7.228   5.716   1.458  1.6546 -2.4336 -2.2495
  530MOL0     H71542   7.393   5.636   1.615 -0.3875 -3.0653 -1.1721
  530MOL0     H71543   7.535   5.703   1.540  0.7017 -0.7692  1.1797
  530MOL0     H71544   7.351   5.487   1.400  1.7806 -3.3772 -2.4795
  530MOL0     H71545   7.505   5.539   1.341 -0.4018 -3.1546 -0.9891
  530MOL0     H71546   7.626   5.260   1.625 -2.1555 -0.2465  1.1382
  530MOL0     H71547   7.129   5.871   1.856  0.2586  0.6038  1.1628
  530MOL0     H71548   6.951   5.814   1.983 -1.3969 -0.0806  1.1719
  530MOL0     H71549   6.867   5.968   1.992  1.8116 -0.0042  2.9748
  530MOL0     H71550   6.792   5.834   1.917  1.3468 -1.4252 -0.4688
  531MOL0     O71551   4.273   5.550   9.918 -0.7293 -0.0419 -0.6495
  531MOL0     C71552   4.173   5.517   9.862  0.5328 -0.2764  0.6714
  531MOL0     O71553   4.155   5.523   9.726  0.6258  1.0962  0.2460
  531MOL0     C71554   4.253   5.568   9.647 -0.1084 -1.0013  0.5812
  531MOL0     C71555   4.356   5.484   9.613  0.0697  0.2318  0.0268
  531MOL0     C71556   4.462   5.532   9.540  0.0224 -0.6097 -0.2305
  531MOL0     C71557   4.464   5.670   9.497  0.6173  0.6658 -0.2802
  531MOL0     O71558   4.583   5.696   9.429  0.7215  0.4755 -0.1295
  531MOL0     C71559   4.588   5.807   9.337 -0.3619  0.0367  0.4963
  531MOL0     C71560   4.683   5.911   9.379  0.6834  0.8164  0.2986
  531MOL0     C71561   4.694   6.027   9.286  0.1534 -0.9131  0.6266
  531MOL0     C71562   4.807   6.121   9.325 -0.2164  0.6693  0.0698
  531MOL0     C71563   4.810   6.230   9.215  0.1523 -0.0144  0.5107
  531MOL0     C71564   4.914   6.339   9.249 -0.0845  0.1756  0.0384
  531MOL0     C71565   5.050   6.328   9.185 -0.0335  0.4151 -0.0950
  531MOL0     C71566   5.151   6.228   9.251 -0.1333  0.1292 -0.1994
  531MOL0     N71567   5.278   6.301   9.271  0.3293  0.1482 -0.1567
  531MOL0     C71568   5.313   6.368   9.385 -0.7141 -0.5515 -1.3816
  531MOL0     C71569   5.443   6.394   9.369  0.2321 -0.0428  0.1427
  531MOL0     C71570   5.526   6.469   9.461  0.8246  0.5669 -1.0678
  531MOL0     C71571   5.585   6.382   9.572 -0.6412  0.0881 -0.1633
  531MOL0     C71572   5.502   6.374   9.701  0.2833 -0.7903  0.6441
  531MOL0     C71573   5.561   6.291   9.823  0.2085  0.2244  0.8781
  531MOL0     O71574   5.456   6.294   9.929 -0.0713  0.3066 -0.7615
  531MOL0     C71575   5.443   6.407  10.008 -0.4340 -0.2708  0.2193
  531MOL0     C71576   5.522   6.521   9.991  0.2003  0.8241  1.2159
  531MOL0     C71577   5.530   6.621  10.086 -0.1022  0.4289 -0.1341
  531MOL0     C71578   5.446   6.607  10.192  0.1563  0.2605 -0.1076
  531MOL0     C71579   5.438   6.713  10.297 -0.0403  0.9682 -0.1226
  531MOL0     O71580   5.478   6.831  10.251  0.0575  0.0515 -1.0149
  531MOL0     C71581   5.470   6.947  10.325 -0.0266 -0.7521  0.9294
  531MOL0     C71582   5.491   6.958  10.464 -0.2496  0.0732 -0.0374
  531MOL0     C71583   5.482   7.076  10.526  0.7411  0.1222 -1.0113
  531MOL0     C71584   5.436   7.193  10.463 -0.3443 -0.7832 -0.8242
  531MOL0     O71585   5.413   7.313  10.524 -0.5854  0.1407  0.2989
  531MOL0     C71586   5.383   7.313  10.664  0.0098  1.0780  0.0958
  531MOL0     C71587   5.360   7.455  10.710  0.4912 -0.3130 -0.4045
  531MOL0     C71588   5.264   7.543  10.641 -0.2140 -0.1054  0.0024
  531MOL0     C71589   5.117   7.507  10.684  0.1010 -0.5820 -0.2227
  531MOL0     C71590   5.013   7.578  10.594  0.3528  0.4533  0.0700
  531MOL0     C71591   4.868   7.534  10.635 -1.0509 -0.1774  0.4039
  531MOL0     C71592   4.827   7.641  10.747 -0.4064  0.4350  0.1193
  531MOL0     C71593   4.681   7.624  10.810 -0.8013  0.1082  0.6105
  531MOL0    Cl71594   4.681   7.468  10.893  0.3736 -0.1929 -0.2410
  531MOL0     C71595   5.418   7.192  10.328 -0.3924  0.5563  0.8021
  531MOL0     C71596   5.444   7.075  10.255 -0.3913 -1.4482  0.2533
  531MOL0     O71597   5.401   6.687  10.412  0.4535  1.1195  0.6213
  531MOL0     C71598   5.350   6.504  10.203 -0.0383 -0.8379  0.0401
  531MOL0     C71599   5.352   6.396  10.116  0.6580 -0.0488  0.7398
  531MOL0     N71600   5.486   6.338   9.257  0.8916 -0.6073  0.0121
  531MOL0     N71601   5.391   6.287   9.195  0.1967  0.3907 -0.1114
  531MOL0     C71602   4.352   5.749   9.519 -0.7227 -0.3532  0.0672
  531MOL0     C71603   4.245   5.694   9.588  0.1906  0.4219  0.0106
  531MOL0     C71604   4.055   5.479   9.939  0.0184 -0.6836  0.0240
  531MOL0     C71605   4.021   5.550  10.057  0.0369  0.0313  0.6758
  531MOL0     C71606   3.906   5.505  10.127 -0.2597  0.3972 -0.2283
  531MOL0     C71607   3.816   5.411  10.078 -0.0478 -0.1413 -0.2508
  531MOL0     O71608   3.709   5.372  10.163 -1.1875  0.0637  0.3568
  531MOL0     C71609   3.638   5.256  10.127 -0.3277  0.1408  0.2188
  531MOL0     C71610   3.510   5.243  10.204 -0.1180 -1.1070 -0.2846
  531MOL0     C71611   3.462   5.102  10.203 -0.2106  0.1355 -0.4065
  531MOL0     C71612   3.324   5.084  10.269  0.7291  0.0333  0.4236
  531MOL0     C71613   3.323   5.102  10.411 -0.1963  0.1650 -0.2874
  531MOL0     C71614   3.328   5.119  10.532  0.1747 -0.2056  0.2225
  531MOL0     C71615   3.859   5.349   9.961  0.4360 -0.0768 -0.4151
  531MOL0     C71616   3.975   5.377   9.896 -0.6549  0.8678  0.5965
  531MOL0     C71617   4.022   5.283   9.789 -0.2143 -0.8435 -0.7834
  531MOL0     H71618   4.355   5.384   9.655  1.1819  0.0365 -0.3713
  531MOL0     H71619   4.548   5.468   9.524 -0.5146 -1.3871 -0.0257
  531MOL0     H71620   4.612   5.758   9.242 -1.6887  0.1894  0.0615
  531MOL0     H71621   4.489   5.848   9.315  0.1973  0.4224 -1.4522
  531MOL0     H71622   4.785   5.874   9.389  0.3225  0.2038  2.0081
  531MOL0     H71623   4.663   5.942   9.482 -2.0633 -1.4238  0.5694
  531MOL0     H71624   4.601   6.083   9.279  0.4100 -0.4041  1.2538
  531MOL0     H71625   4.721   5.992   9.186  0.7208 -0.1247  0.4959
  531MOL0     H71626   4.792   6.172   9.421 -0.5194 -0.0916  0.4282
  531MOL0     H71627   4.906   6.074   9.321 -0.7327 -0.4179 -0.1677
  531MOL0     H71628   4.841   6.188   9.119  1.0954  2.3013 -0.2488
  531MOL0     H71629   4.710   6.268   9.198 -0.9289 -2.2302  1.4615
  531MOL0     H71630   4.876   6.440   9.232 -2.0639 -0.5266 -0.0066
  531MOL0     H71631   4.928   6.325   9.357 -0.2537 -2.4042 -0.2058
  531MOL0     H71632   5.102   6.424   9.193  0.3241  0.3247 -1.1975
  531MOL0     H71633   5.035   6.305   9.079  0.7438 -2.0570  0.2737
  531MOL0     H71634   5.111   6.199   9.348  3.8744  2.0989  2.3021
  531MOL0     H71635   5.167   6.143   9.184 -3.5465 -1.4212  0.7533
  531MOL0     H71636   5.248   6.404   9.464  1.1926 -1.9804  0.9430
  531MOL0     H71637   5.615   6.497   9.405  0.9698 -0.6742 -1.4954
  531MOL0     H71638   5.477   6.553   9.511 -0.1388  0.1403 -1.2620
  531MOL0     H71639   5.595   6.282   9.529  1.4002  0.3330 -0.3525
  531MOL0     H71640   5.675   6.433   9.608 -1.6920  1.8154  0.1322
  531MOL0     H71641   5.408   6.320   9.683 -0.2612  0.0050  1.0398
  531MOL0     H71642   5.483   6.480   9.719 -0.2853 -0.3599 -2.0601
  531MOL0     H71643   5.647   6.335   9.875  0.9509 -0.7580  0.5171
  531MOL0     H71644   5.583   6.187   9.799  0.7932  0.4049  0.6066
  531MOL0     H71645   5.594   6.536   9.911  0.0949  1.3762  1.2200
  531MOL0     H71646   5.601   6.702  10.073  0.5404  0.0469  0.8869
  531MOL0     H71647   5.505   6.867  10.522  0.5076  0.5701  0.5690
  531MOL0     H71648   5.510   7.081  10.630 -1.4698  2.9307 -0.4161
  531MOL0     H71649   5.295   7.259  10.700 -0.4069  2.0589  0.5802
  531MOL0     H71650   5.468   7.272  10.719 -1.1854 -0.2162  1.0450
  531MOL0     H71651   5.328   7.445  10.814 -0.2161 -2.8996 -0.8179
  531MOL0     H71652   5.449   7.516  10.696 -0.5316  1.5158  0.6247
  531MOL0     H71653   5.275   7.648  10.671 -1.5813  0.0328  0.1204
  531MOL0     H71654   5.271   7.521  10.535 -1.2534  1.3443 -0.4058
  531MOL0     H71655   5.094   7.524  10.789  0.6589 -1.0807 -0.0193
  531MOL0     H71656   5.109   7.399  10.671  1.0408 -0.6769 -0.0591
  531MOL0     H71657   5.029   7.538  10.493  1.1986 -2.4293  1.2489
  531MOL0     H71658   5.030   7.686  10.591 -1.1051  0.6856 -0.6531
  531MOL0     H71659   4.799   7.537  10.550 -0.8657 -1.1091  0.2070
  531MOL0     H71660   4.864   7.432  10.673 -2.2629 -0.1962  0.2629
  531MOL0     H71661   4.843   7.742  10.709  0.7079 -0.2042 -1.2154
  531MOL0     H71662   4.898   7.636  10.830  0.5402 -1.0617 -0.7169
  531MOL0     H71663   4.649   7.703  10.879 -1.4420  0.6074 -0.2304
  531MOL0     H71664   4.604   7.626  10.733 -1.0478  0.8803  0.8613
  531MOL0     H71665   5.385   7.274  10.265  0.3602  1.0235  1.0025
  531MOL0     H71666   5.422   7.075  10.148  1.2145  0.8905 -0.1415
  531MOL0     H71667   5.276   6.493  10.281  0.3525 -0.8674  0.4086
  531MOL0     H71668   5.285   6.311  10.126  0.3059  0.1478  0.1698
  531MOL0     H71669   4.351   5.849   9.479  3.2400 -0.1717  0.0688
  531MOL0     H71670   4.163   5.756   9.623  0.2139  0.4795 -0.0364
  531MOL0     H71671   4.101   5.614  10.092  1.8757 -1.0631 -1.2391
  531MOL0     H71672   3.883   5.545  10.225  0.3751 -0.6471  0.3681
  531MOL0     H71673   3.692   5.166  10.158  0.4845 -0.0573 -1.6318
  531MOL0     H71674   3.628   5.244  10.019  2.2111  0.2852 -0.0762
  531MOL0     H71675   3.435   5.308  10.157 -1.0065 -1.2521  0.8992
  531MOL0     H71676   3.521   5.278  10.307  0.1919 -0.0915 -0.6490
  531MOL0     H71677   3.530   5.033  10.255 -0.1899  1.1836  1.0226
  531MOL0     H71678   3.462   5.071  10.098  0.1338  0.2503 -0.4432
  531MOL0     H71679   3.254   5.159  10.230  1.0749  1.1956  1.9488
  531MOL0     H71680   3.284   4.984  10.248 -0.1344  0.7608 -1.6722
  531MOL0     H71681   3.348   5.120  10.637  2.8785  0.3158 -0.2048
  531MOL0     H71682   3.808   5.263   9.919  1.2039 -0.4909 -0.5247
  531MOL0     H71683   3.971   5.187   9.782  0.4354 -1.5517  2.3831
  531MOL0     H71684   3.990   5.339   9.701 -1.3379  2.2790  1.4048
  531MOL0     H71685   4.129   5.267   9.773  0.1667  1.3670 -0.7396
  532MOL0     O71686   0.009   7.174   2.444  0.2060  0.1844  0.5734
  532MOL0     C71687  -0.079   7.134   2.375 -0.3544 -0.2796  0.1364
  532MOL0     O71688  -0.092   7.160   2.240  0.0793 -0.1272  0.6573
  532MOL0     C71689   0.028   7.205   2.175  1.0432 -0.5083 -0.7620
  532MOL0     C71690   0.023   7.314   2.088 -1.0346 -0.4363 -0.6173
  532MOL0     C71691   0.130   7.340   2.009  0.3486  0.1361 -0.4374
  532MOL0     C71692   0.251   7.275   2.027 -0.1260 -0.9885 -0.2863
  532MOL0     O71693   0.371   7.294   1.968 -0.0105  0.1529 -0.4278
  532MOL0     C71694   0.412   7.431   1.943  0.7196  0.2689 -0.3010
  532MOL0     C71695   0.555   7.450   1.880 -0.7511  0.3485  0.0507
  532MOL0     C71696   0.646   7.452   2.003 -0.0232  0.3114  0.5349
  532MOL0     C71697   0.798   7.484   1.967 -0.0105  0.1854  0.6854
  532MOL0     C71698   0.830   7.632   1.996 -0.2699 -0.8213 -0.4425
  532MOL0     C71699   0.979   7.655   1.990 -1.0177 -0.7817  0.4873
  532MOL0     C71700   1.022   7.804   1.989  0.4866 -0.5392  0.6096
  532MOL0     C71701   0.972   7.875   1.867 -0.4845  0.3443 -0.0350
  532MOL0     N71702   1.057   7.988   1.823 -0.7009 -0.7749  0.0931
  532MOL0     C71703   1.116   8.093   1.898 -0.1595  0.3903  0.2168
  532MOL0     C71704   1.169   8.175   1.798  0.1128  0.0210  0.2560
  532MOL0     C71705   1.224   8.313   1.807  0.2325 -0.5330 -0.3080
  532MOL0     C71706   1.356   8.305   1.887 -0.9184 -0.6415 -0.4697
  532MOL0     C71707   1.427   8.444   1.895 -0.2497 -0.4149  0.7569
  532MOL0     C71708   1.468   8.497   1.750 -0.4440 -0.1595  0.0803
  532MOL0     O71709   1.520   8.634   1.765  0.4065  0.4668 -0.0449
  532MOL0     C71710   1.658   8.651   1.761  0.8183 -0.3382 -0.1421
  532MOL0     C71711   1.751   8.548   1.790  0.1941 -0.3057 -0.7479
  532MOL0     C71712   1.887   8.573   1.762  0.4901  0.3780  0.0049
  532MOL0     C71713   1.926   8.703   1.729  0.3364 -0.1027 -0.9160
  532MOL0     C71714   2.071   8.731   1.690 -0.1941 -0.1666  1.0207
  532MOL0     O71715   2.118   8.857   1.723 -0.1951 -0.2810  0.1222
  532MOL0     C71716   2.230   8.910   1.669 -0.5313 -0.7815  0.9824
  532MOL0     C71717   2.305   8.859   1.554  0.7737 -0.3373 -0.0619
  532MOL0     C71718   2.419   8.930   1.511 -0.2174  0.0808 -0.0961
  532MOL0     C71719   2.465   9.036   1.586 -0.2644 -0.2316  0.0836
  532MOL0     O71720   2.585   9.085   1.537  0.1409  0.0455  0.1862
  532MOL0     C71721   2.640   9.203   1.594  0.4930 -0.1640 -0.3539
  532MOL0     C71722   2.779   9.224   1.528 -0.2129 -0.0354  0.8925
  532MOL0     C71723   2.837   9.366   1.537  0.2646 -0.1472 -0.9190
  532MOL0     C71724   2.989   9.355   1.515 -0.5963  0.0623 -0.2601
  532MOL0     C71725   3.051   9.502   1.522 -0.0109  1.0931  0.6328
  532MOL0     C71726   3.197   9.497   1.479  0.0089  0.1195  0.5997
  532MOL0     C71727   3.289   9.436   1.581  0.1590 -0.4955  0.0652
  532MOL0     C71728   3.434   9.427   1.538 -0.1209  0.7960  0.6938
  532MOL0    Cl71729   3.518   9.578   1.500 -0.0805  0.0905 -0.0163
  532MOL0     C71730   2.392   9.097   1.693 -0.3659 -0.5182  0.5555
  532MOL0     C71731   2.275   9.030   1.731  0.5889  0.1256  0.0969
  532MOL0     O71732   2.135   8.646   1.624  0.2205 -0.6773 -0.3825
  532MOL0     C71733   1.833   8.809   1.724 -0.5538 -0.1410  0.1671
  532MOL0     C71734   1.695   8.787   1.739  0.1322  0.4358 -1.0205
  532MOL0     N71735   1.145   8.124   1.676 -0.1827  0.2005  0.1466
  532MOL0     N71736   1.077   8.016   1.692 -0.5066 -0.3468  0.6736
  532MOL0     C71737   0.257   7.165   2.112  0.3139  0.0193 -0.8234
  532MOL0     C71738   0.146   7.126   2.184 -0.3870  0.2868 -0.3898
  532MOL0     C71739  -0.198   7.067   2.440  0.2146 -0.1599  0.0061
  532MOL0     C71740  -0.327   7.091   2.380  0.0757 -0.0387 -0.7591
  532MOL0     C71741  -0.445   7.035   2.424  0.3616  0.7717  0.6545
  532MOL0     C71742  -0.437   6.954   2.543  0.1864  0.2938  0.5764
  532MOL0     O71743  -0.552   6.904   2.598 -0.6064 -0.4556  0.0516
  532MOL0     C71744  -0.552   6.796   2.691 -0.0829 -0.5544 -0.1637
  532MOL0     C71745  -0.493   6.661   2.644 -0.0844  0.6120 -0.9335
  532MOL0     C71746  -0.516   6.558   2.762 -0.0441  0.4256 -0.6629
  532MOL0     C71747  -0.447   6.424   2.732  0.7240 -0.0022  0.0819
  532MOL0     C71748  -0.304   6.438   2.709  0.0180  0.8676  0.0297
  532MOL0     C71749  -0.188   6.448   2.679  0.6065  0.2127  0.4408
  532MOL0     C71750  -0.311   6.928   2.599 -0.1286 -0.3454  0.1343
  532MOL0     C71751  -0.190   6.980   2.551 -0.0493 -0.0449  0.6605
  532MOL0     C71752  -0.055   6.944   2.624  0.2551 -0.1767 -0.7308
  532MOL0     H71753  -0.071   7.369   2.081  0.0817  1.8815  1.2820
  532MOL0     H71754   0.122   7.418   1.934 -2.8242  0.4806  0.1304
  532MOL0     H71755   0.338   7.472   1.874 -3.1791  1.6049  4.1552
  532MOL0     H71756   0.408   7.482   2.039 -0.2026  3.0049 -1.6987
  532MOL0     H71757   0.574   7.544   1.828  6.5773  0.4152  1.7548
  532MOL0     H71758   0.592   7.371   1.815  0.6116  1.8315 -1.0502
  532MOL0     H71759   0.650   7.360   2.061  0.2304  0.9391  1.5446
  532MOL0     H71760   0.615   7.523   2.081  4.8796  1.2314  1.9911
  532MOL0     H71761   0.860   7.418   2.028 -0.5727  0.1867  1.2581
  532MOL0     H71762   0.817   7.466   1.861 -0.3448 -2.6355  1.0336
  532MOL0     H71763   0.786   7.686   1.912  1.7201 -0.9872 -1.6458
  532MOL0     H71764   0.796   7.657   2.097 -0.6870 -0.1976 -0.7307
  532MOL0     H71765   1.019   7.594   2.071  0.3296 -2.3679 -1.3010
  532MOL0     H71766   1.015   7.613   1.896 -1.4891 -0.7313  0.2845
  532MOL0     H71767   1.128   7.815   1.965 -0.5056  4.8729 -2.9442
  532MOL0     H71768   0.990   7.849   2.084 -2.7812 -2.6701  0.6699
  532MOL0     H71769   0.947   7.805   1.787  1.8316  0.9223 -1.3606
  532MOL0     H71770   0.876   7.923   1.890  0.0543  2.0024 -1.0406
  532MOL0     H71771   1.116   8.106   2.006  1.0951 -0.0082  0.2779
  532MOL0     H71772   1.233   8.358   1.708 -3.5435  1.5025  0.0547
  532MOL0     H71773   1.153   8.366   1.871  0.2263 -2.8195  1.6977
  532MOL0     H71774   1.350   8.277   1.992 -0.5543  0.3018 -0.1820
  532MOL0     H71775   1.426   8.234   1.842  0.5153  1.2113 -1.3426
  532MOL0     H71776   1.525   8.429   1.942 -0.9547  0.0130  2.4607
  532MOL0     H71777   1.373   8.516   1.958 -0.7419  0.5531 -0.7162
  532MOL0     H71778   1.374   8.506   1.695  0.1885  2.4430 -0.7234
  532MOL0     H71779   1.523   8.418   1.698 -0.3227 -0.0448  0.0331
  532MOL0     H71780   1.714   8.450   1.819  1.8649 -1.1858 -1.4725
  532MOL0     H71781   1.957   8.492   1.782  1.0032  0.2311 -2.1890
  532MOL0     H71782   2.274   8.773   1.497  0.2301  0.6170 -1.2551
  532MOL0     H71783   2.484   8.902   1.428  0.2561  2.0762 -0.4580
  532MOL0     H71784   2.574   9.286   1.568 -0.0246  0.5234  2.7379
  532MOL0     H71785   2.655   9.197   1.702  3.9033 -1.3013 -0.7563
  532MOL0     H71786   2.841   9.169   1.599 -0.3663  0.7410  1.6467
  532MOL0     H71787   2.796   9.190   1.426  0.0363 -2.4969  1.6951
  532MOL0     H71788   2.793   9.431   1.461 -2.1266  0.1972  0.6609
  532MOL0     H71789   2.811   9.400   1.637  2.8282  0.6946 -0.4594
  532MOL0     H71790   3.008   9.304   1.420 -3.9305  1.5463 -1.9108
  532MOL0     H71791   3.026   9.295   1.599 -0.9301  1.1181  0.6662
  532MOL0     H71792   3.020   9.557   1.612 -0.9680  0.6777  0.5694
  532MOL0     H71793   2.992   9.557   1.448  1.9086  2.5011  0.0534
  532MOL0     H71794   3.211   9.430   1.394 -2.1051  1.1759 -0.6729
  532MOL0     H71795   3.224   9.599   1.450 -1.6608  0.6466  0.8034
  532MOL0     H71796   3.258   9.332   1.596 -0.9460 -0.2411 -0.3994
  532MOL0     H71797   3.278   9.486   1.678  1.4533 -3.2102  1.7770
  532MOL0     H71798   3.493   9.383   1.618  1.4059  1.6139  0.0561
  532MOL0     H71799   3.431   9.360   1.451  1.6951 -1.1093  2.0188
  532MOL0     H71800   2.430   9.186   1.741 -0.7351  0.3828 -0.7749
  532MOL0     H71801   2.206   9.062   1.809  0.6878 -1.8358  1.0558
  532MOL0     H71802   1.879   8.903   1.693  1.7437 -0.1451  3.0904
  532MOL0     H71803   1.627   8.871   1.731  0.0675  0.4201 -0.6877
  532MOL0     H71804   0.352   7.118   2.134  1.2746  1.9445 -0.6463
  532MOL0     H71805   0.152   7.034   2.240 -0.8156 -2.1480 -4.0081
  532MOL0     H71806  -0.333   7.168   2.303 -2.1842 -1.4060 -2.0582
  532MOL0     H71807  -0.543   7.071   2.394 -0.1196 -0.4831  0.6698
  532MOL0     H71808  -0.658   6.787   2.717 -0.4212  0.5297 -1.0615
  532MOL0     H71809  -0.503   6.830   2.782  0.0757 -0.7180 -0.1904
  532MOL0     H71810  -0.392   6.678   2.605  0.5844  0.4441  0.6805
  532MOL0     H71811  -0.556   6.635   2.558 -1.6110  2.4533 -0.4520
  532MOL0     H71812  -0.625   6.545   2.770 -0.2484  1.5648 -1.3940
  532MOL0     H71813  -0.466   6.580   2.857 -0.9428 -2.4451  0.6029
  532MOL0     H71814  -0.473   6.361   2.818 -6.1028  1.8458 -0.0402
  532MOL0     H71815  -0.498   6.373   2.650  0.4687 -0.1544  0.3324
  532MOL0     H71816  -0.084   6.461   2.658  0.4950  0.7146  0.1608
  532MOL0     H71817  -0.294   6.871   2.689  2.3570  0.2679  0.1061
  532MOL0     H71818  -0.004   6.875   2.557  2.3946  0.2266  0.4087
  532MOL0     H71819   0.016   7.025   2.643  0.5299 -0.8070  1.1148
  532MOL0     H71820  -0.069   6.893   2.720 -2.1113  1.3510 -0.1552
  533MOL0     O71821   6.914   9.708   8.697  0.5625  0.1911 -0.7341
  533MOL0     C71822   6.849   9.611   8.646 -0.3563  0.4619 -0.0672
  533MOL0     O71823   6.906   9.491   8.603  0.1143 -0.5883 -0.6699
  533MOL0     C71824   7.036   9.461   8.628  0.1799  0.4323 -0.3525
  533MOL0     C71825   7.085   9.485   8.761  0.2624  0.2856 -0.2952
  533MOL0     C71826   7.216   9.470   8.795  0.0397 -0.7294  0.7320
  533MOL0     C71827   7.313   9.435   8.698  0.4564  0.0521  0.2432
  533MOL0     O71828   7.446   9.398   8.706  0.2610  0.1688 -0.3425
  533MOL0     C71829   7.496   9.361   8.830 -0.0878 -0.4770  0.1996
  533MOL0     C71830   7.646   9.348   8.811  0.6249  0.2517  0.0707
  533MOL0     C71831   7.709   9.480   8.793  0.4416  0.7333  0.0629
  533MOL0     C71832   7.853   9.456   8.769 -0.1620  0.0572 -0.0379
  533MOL0     C71833   7.935   9.585   8.744  0.5648 -0.0857  0.7519
  533MOL0     C71834   7.901   9.704   8.836  0.9170 -0.0005  0.0593
  533MOL0     C71835   7.984   9.826   8.813 -0.7513 -0.4250 -0.9949
  533MOL0     C71836   8.107   9.837   8.895  0.1360 -0.4243 -0.3573
  533MOL0     N71837   8.185   9.966   8.853  0.6852  0.6295 -1.0788
  533MOL0     C71838   8.256   9.962   8.741 -0.0941  0.1312  0.2750
  533MOL0     C71839   8.341  10.064   8.756 -0.6903  0.5316 -1.0528
  533MOL0     C71840   8.449  10.122   8.678 -0.1815  0.6145  0.1819
  533MOL0     C71841   8.408  10.119   8.523  0.1175 -0.9306  0.5111
  533MOL0     C71842   8.485  10.231   8.451 -0.6823 -0.3034 -1.1940
  533MOL0     C71843   8.635  10.212   8.459 -0.1488 -0.2725  0.2366
  533MOL0     O71844   8.655  10.090   8.381  0.0033  0.1573  0.3437
  533MOL0     C71845   8.785  10.034   8.364 -0.1121 -0.2056 -0.0929
  533MOL0     C71846   8.910  10.094   8.400 -0.0707  0.0354 -0.1158
  533MOL0     C71847   9.035  10.041   8.363 -0.3369  1.2296 -0.1646
  533MOL0     C71848   9.037   9.931   8.277  0.8324  0.0838 -0.8889
  533MOL0     C71849   9.165   9.869   8.229  0.0595 -0.0232 -0.4453
  533MOL0     O71850   9.270   9.922   8.286 -0.3401 -0.4595 -0.0376
  533MOL0     C71851   9.398   9.902   8.244 -0.0718  0.5383 -0.2077
  533MOL0     C71852   9.486   9.994   8.304 -0.2940 -0.9585  0.1135
  533MOL0     C71853   9.623   9.995   8.272 -0.0067 -0.3110 -0.8402
  533MOL0     C71854   9.671   9.904   8.182  0.4826 -0.5131  0.5625
  533MOL0     O71855   9.805   9.886   8.159  0.0665  0.1064 -0.0464
  533MOL0     C71856   9.901   9.993   8.172 -0.5446 -0.3758 -0.4348
  533MOL0     C71857  10.037   9.928   8.206 -0.2626  0.1906 -0.0391
  533MOL0     C71858  10.149  10.036   8.202  0.1524 -0.1806 -0.0435
  533MOL0     C71859  10.281   9.959   8.237 -0.5957 -0.3116  0.6336
  533MOL0     C71860  10.394  10.054   8.195 -0.2371  0.2831 -0.0118
  533MOL0     C71861  10.528   9.970   8.194 -0.0915 -0.0678 -0.5865
  533MOL0     C71862  10.652  10.051   8.154  0.3219  0.2715  0.2418
  533MOL0     C71863  10.742  10.098   8.268 -0.4188 -0.5456  0.3811
  533MOL0    Cl71864  10.672  10.215   8.389  0.1043  0.4454 -0.0764
  533MOL0     C71865   9.589   9.806   8.129 -0.1177 -0.2836 -0.6863
  533MOL0     C71866   9.450   9.805   8.157 -0.9768  0.1509 -0.0957
  533MOL0     O71867   9.157   9.776   8.153 -0.6340  0.4242  0.4434
  533MOL0     C71868   8.913   9.870   8.241 -0.2992 -0.5393  0.1250
  533MOL0     C71869   8.793   9.923   8.283  0.4428 -0.8388 -0.7041
  533MOL0     N71870   8.310  10.121   8.879 -0.3554 -0.8069  0.3483
  533MOL0     N71871   8.212  10.070   8.934  0.4941  0.8351 -0.1220
  533MOL0     C71872   7.273   9.443   8.565  0.5166  0.0285  0.0011
  533MOL0     C71873   7.136   9.446   8.539 -0.4322 -0.4611  0.7219
  533MOL0     C71874   6.706   9.632   8.621 -0.0660 -0.1488 -0.7653
  533MOL0     C71875   6.665   9.754   8.566 -0.1676 -0.3251  0.5640
  533MOL0     C71876   6.531   9.782   8.527 -0.8802  0.6243  0.3456
  533MOL0     C71877   6.435   9.683   8.548 -0.1450  0.7536 -0.2538
  533MOL0     O71878   6.298   9.700   8.521 -0.7644  0.5119 -0.2082
  533MOL0     C71879   6.244   9.798   8.437 -0.3320 -0.2749 -0.5978
  533MOL0     C71880   6.266   9.758   8.290  0.4924  0.0314 -0.4547
  533MOL0     C71881   6.200   9.623   8.246  0.0097 -0.2454 -0.0906
  533MOL0     C71882   6.045   9.632   8.288  0.2426 -0.4009  0.0007
  533MOL0     C71883   5.957   9.542   8.219 -0.1692 -0.3347 -0.2881
  533MOL0     C71884   5.873   9.481   8.149 -0.6766 -1.1312 -0.0883
  533MOL0     C71885   6.473   9.560   8.605 -0.5765 -0.4555  0.1341
  533MOL0     C71886   6.601   9.539   8.646  0.5874 -0.6737 -0.2963
  533MOL0     C71887   6.616   9.415   8.724  0.2865  0.2807  0.1596
  533MOL0     H71888   7.027   9.530   8.841  0.5845  4.2443 -2.0717
  533MOL0     H71889   7.246   9.478   8.899  3.9834 -1.8291 -0.1570
  533MOL0     H71890   7.473   9.430   8.912  0.0319 -0.1589 -0.0320
  533MOL0     H71891   7.455   9.263   8.858  0.6983 -1.0421 -0.5886
  533MOL0     H71892   7.660   9.272   8.734  2.0696 -0.1795  0.7235
  533MOL0     H71893   7.684   9.299   8.901  1.4052  1.4563  0.4237
  533MOL0     H71894   7.695   9.537   8.886 -0.3807  0.6848 -0.0252
  533MOL0     H71895   7.670   9.538   8.708 -0.1002 -0.5346 -0.5731
  533MOL0     H71896   7.890   9.411   8.862  0.4095  2.9076  1.2005
  533MOL0     H71897   7.862   9.388   8.683 -0.0899 -1.9301  1.4607
  533MOL0     H71898   8.042   9.572   8.763  1.1081  0.3693 -1.6840
  533MOL0     H71899   7.910   9.608   8.641 -1.6659 -2.3198  0.7076
  533MOL0     H71900   7.799   9.739   8.819  0.8121 -0.8289 -1.0564
  533MOL0     H71901   7.904   9.679   8.942  1.9671  0.8144  0.2480
  533MOL0     H71902   7.917   9.907   8.842 -0.1646 -0.5143  0.7919
  533MOL0     H71903   8.003   9.847   8.708  0.3312 -0.0519 -0.7416
  533MOL0     H71904   8.065   9.846   8.996 -2.7789 -0.7030 -1.4323
  533MOL0     H71905   8.173   9.751   8.881  0.4058 -0.6486  1.8818
  533MOL0     H71906   8.243   9.887   8.663 -2.4763 -0.7444  1.4118
  533MOL0     H71907   8.458  10.225   8.716 -0.2447  1.9619 -3.1077
  533MOL0     H71908   8.547  10.078   8.694  0.2747  1.6726  0.3873
  533MOL0     H71909   8.429  10.022   8.478 -1.7089  0.2431 -3.3001
  533MOL0     H71910   8.301  10.133   8.507  0.1269  0.0740  1.1930
  533MOL0     H71911   8.465  10.329   8.496  1.6744 -0.1545 -0.3701
  533MOL0     H71912   8.453  10.238   8.346 -2.4495  1.3685 -0.6224
  533MOL0     H71913   8.678  10.200   8.559  2.1914  2.4393 -0.3158
  533MOL0     H71914   8.691  10.297   8.420  1.9576 -0.3499  2.8553
  533MOL0     H71915   8.903  10.181   8.465  0.9301  1.9411 -2.4280
  533MOL0     H71916   9.129  10.085   8.394  1.1001 -0.2789 -2.1569
  533MOL0     H71917   9.453  10.075   8.369  2.1249 -0.7637  1.1822
  533MOL0     H71918   9.686  10.076   8.305 -1.2390 -0.0638  1.0724
  533MOL0     H71919   9.910  10.050   8.079 -1.0718 -0.7256 -0.7004
  533MOL0     H71920   9.871  10.072   8.242 -2.3276 -0.5630 -0.9525
  533MOL0     H71921  10.041   9.897   8.311  2.8267  4.1237  1.2666
  533MOL0     H71922  10.056   9.841   8.142  0.3645  0.9168 -0.8700
  533MOL0     H71923  10.143  10.086   8.105  1.3185 -2.4798 -1.4039
  533MOL0     H71924  10.140  10.112   8.280  2.0493  0.8321 -0.7608
  533MOL0     H71925  10.292   9.865   8.183  1.2432 -0.8448  1.8357
  533MOL0     H71926  10.301   9.940   8.343 -1.1007 -4.8459  0.0858
  533MOL0     H71927  10.398  10.131   8.272  0.3299  0.1914  0.0525
  533MOL0     H71928  10.383  10.102   8.098  1.2641 -1.5139 -1.1561
  533MOL0     H71929  10.558   9.917   8.285  1.6663  2.8211  0.6780
  533MOL0     H71930  10.514   9.903   8.109 -0.1377  2.2371 -2.4985
  533MOL0     H71931  10.616  10.143   8.105  2.2385  0.7995 -0.2817
  533MOL0     H71932  10.717   9.991   8.089  1.4046  1.0935  0.5235
  533MOL0     H71933  10.778  10.003   8.310  1.1004 -1.5879 -2.9822
  533MOL0     H71934  10.830  10.148   8.228 -1.1714  1.2564  0.8697
  533MOL0     H71935   9.645   9.729   8.076  0.0023  0.0263 -1.0098
  533MOL0     H71936   9.395   9.718   8.122 -0.8610  0.2483 -0.5314
  533MOL0     H71937   8.931   9.779   8.186  3.5909  0.2744 -0.2477
  533MOL0     H71938   8.696   9.895   8.244  0.1969 -0.3368 -0.4657
  533MOL0     H71939   7.338   9.426   8.480  0.8772 -0.9510  0.4539
  533MOL0     H71940   7.114   9.449   8.433 -1.0908  2.7093  0.8653
  533MOL0     H71941   6.729   9.842   8.558 -1.5016  0.5659 -0.9721
  533MOL0     H71942   6.510   9.884   8.496 -0.3302  0.5899 -0.1586
  533MOL0     H71943   6.292   9.896   8.448  0.1838 -0.5755 -0.0894
  533MOL0     H71944   6.138   9.807   8.462  0.2181 -0.1296  1.9256
  533MOL0     H71945   6.372   9.740   8.272  0.3305  0.3980 -1.9432
  533MOL0     H71946   6.250   9.833   8.212 -1.6858 -1.4163 -1.5273
  533MOL0     H71947   6.255   9.548   8.302 -0.6856  0.4171  1.5358
  533MOL0     H71948   6.199   9.608   8.137 -0.7346  0.1413 -0.1424
  533MOL0     H71949   6.041   9.601   8.393 -0.9482 -1.2734 -0.2827
  533MOL0     H71950   6.008   9.735   8.279 -0.7630 -0.3868  3.1575
  533MOL0     H71951   5.799   9.436   8.087 -1.6431  1.2501 -0.7604
  533MOL0     H71952   6.395   9.487   8.627 -2.2921  1.8901  2.4768
  533MOL0     H71953   6.599   9.444   8.828 -1.7751  0.8068 -0.2668
  533MOL0     H71954   6.548   9.331   8.704  2.5447 -1.7199  0.3670
  533MOL0     H71955   6.715   9.368   8.728  0.6559  1.0822  0.6156
  534MOL0     O71956  11.293   3.654   1.023  0.3444  0.3420  0.3559
  534MOL0     C71957  11.193   3.715   1.066 -0.3919  0.7083  0.1793
  534MOL0     O71958  11.199   3.831   1.147  0.6295  0.2686 -0.2558
  534MOL0     C71959  11.314   3.873   1.205 -0.4493 -0.1788 -0.1165
  534MOL0     C71960  11.419   3.785   1.250  0.3418  0.7726 -0.5313
  534MOL0     C71961  11.529   3.838   1.321  0.0484 -0.3751  0.1865
  534MOL0     C71962  11.544   3.977   1.342  0.5255 -0.4541 -0.1537
  534MOL0     O71963  11.650   4.044   1.390  0.9515 -0.5076 -0.0423
  534MOL0     C71964  11.738   3.977   1.469 -1.1130  0.9889  0.3304
  534MOL0     C71965  11.825   4.055   1.567  0.1435  0.3621 -0.0484
  534MOL0     C71966  11.750   4.132   1.675 -0.1464  0.2626 -0.4522
  534MOL0     C71967  11.640   4.053   1.752 -0.5462 -0.4330  1.2971
  534MOL0     C71968  11.622   4.118   1.886 -0.2033  0.2477  0.1256
  534MOL0     C71969  11.503   4.218   1.900  0.4490 -0.7911 -0.7640
  534MOL0     C71970  11.446   4.204   2.042  0.6060  0.8485 -0.2273
  534MOL0     C71971  11.523   4.252   2.160  0.0631 -0.0891  0.0726
  534MOL0     N71972  11.448   4.235   2.291  0.3983 -0.3233  0.3176
  534MOL0     C71973  11.454   4.323   2.389 -0.1428 -0.1011 -0.5640
  534MOL0     C71974  11.402   4.258   2.493 -0.2022 -0.0880 -0.0114
  534MOL0     C71975  11.397   4.304   2.641  0.1033  0.3687 -0.2383
  534MOL0     C71976  11.516   4.246   2.722  0.0045  0.1772  0.6814
  534MOL0     C71977  11.651   4.302   2.674  0.3266  0.1381  0.4988
  534MOL0     C71978  11.749   4.283   2.786 -0.2570 -0.5355  0.0358
  534MOL0     O71979  11.879   4.296   2.735  0.0534 -0.1546  0.1807
  534MOL0     C71980  11.988   4.286   2.821 -0.8435 -0.2741  0.1409
  534MOL0     C71981  12.114   4.254   2.765  0.9772  0.2923  0.0528
  534MOL0     C71982  12.225   4.253   2.848 -0.7552 -0.3091  0.6584
  534MOL0     C71983  12.217   4.281   2.988  0.0635 -0.5159  0.9889
  534MOL0     C71984  12.345   4.295   3.068 -0.0090  0.1973 -0.4330
  534MOL0     O71985  12.331   4.335   3.196 -0.0324 -0.6225  0.4914
  534MOL0     C71986  12.440   4.348   3.279 -0.1998  0.1957 -0.1991
  534MOL0     C71987  12.459   4.248   3.368 -0.2744 -0.3804  0.2233
  534MOL0     C71988  12.573   4.236   3.447 -0.1545  0.1430  0.1202
  534MOL0     C71989  12.671   4.335   3.438  0.7414 -0.6262 -0.0219
  534MOL0     O71990  12.789   4.314   3.507 -0.0838  0.3912  0.2630
  534MOL0     C71991  12.780   4.281   3.648  0.2006  0.4392 -0.6991
  534MOL0     C71992  12.917   4.269   3.710 -0.2638  0.5206  0.4965
  534MOL0     C71993  12.924   4.197   3.841 -0.1106 -0.1049  0.4127
  534MOL0     C71994  13.066   4.185   3.908  0.5890 -0.2199  0.4596
  534MOL0     C71995  13.154   4.086   3.834  0.6119 -0.1050 -0.1905
  534MOL0     C71996  13.289   4.073   3.913 -0.0778 -0.3616 -0.4690
  534MOL0     C71997  13.392   4.031   3.812 -0.2202  0.2595  0.3499
  534MOL0     C71998  13.530   4.087   3.844  0.1303  0.2763 -0.1548
  534MOL0    Cl71999  13.588   4.006   3.993  0.5173 -0.0386  0.0240
  534MOL0     C72000  12.643   4.453   3.364 -0.7515 -0.5653 -1.1492
  534MOL0     C72001  12.527   4.461   3.284 -0.5996 -0.7604  0.4066
  534MOL0     O72002  12.446   4.251   3.014  0.2187 -0.3764  0.0943
  534MOL0     C72003  12.087   4.301   3.044 -0.1977 -0.4884  1.1323
  534MOL0     C72004  11.977   4.294   2.961 -0.0403 -0.0527 -0.3251
  534MOL0     N72005  11.355   4.130   2.451  0.1335 -0.0866 -0.4027
  534MOL0     N72006  11.390   4.118   2.333 -0.1493  0.1644  0.0233
  534MOL0     C72007  11.433   4.055   1.297 -0.7354 -0.5762  0.1066
  534MOL0     C72008  11.327   4.009   1.228  0.0631 -0.7497 -0.1662
  534MOL0     C72009  11.056   3.665   1.033 -0.6907 -0.4872 -0.2658
  534MOL0     C72010  10.945   3.748   1.080 -0.0262  0.8183  0.0418
  534MOL0     C72011  10.817   3.704   1.066  0.9319  0.1387  0.1005
  534MOL0     C72012  10.790   3.589   0.990  0.7633 -0.0901  0.9938
  534MOL0     O72013  10.662   3.546   0.966 -0.5845  0.1843 -0.4406
  534MOL0     C72014  10.561   3.650   0.979 -0.5812 -0.3317 -0.1689
  534MOL0     C72015  10.432   3.613   0.908 -0.6759 -0.0970  0.0869
  534MOL0     C72016  10.305   3.671   0.962 -0.8778 -0.6611  0.5902
  534MOL0     C72017  10.307   3.816   0.940 -0.4204 -0.7062  0.1246
  534MOL0     C72018  10.295   3.862   0.796 -0.8732  0.4381 -0.3572
  534MOL0     C72019  10.271   3.891   0.682 -0.0640  0.0313 -0.3150
  534MOL0     C72020  10.890   3.513   0.930  0.2461  0.3155 -0.3455
  534MOL0     C72021  11.024   3.558   0.946  0.7881  0.3567 -0.7920
  534MOL0     C72022  11.127   3.480   0.869  0.4201  0.2284 -0.2175
  534MOL0     H72023  11.405   3.679   1.234 -1.8320  0.9712 -0.2878
  534MOL0     H72024  11.615   3.781   1.353  1.5894  2.1046  0.7280
  534MOL0     H72025  11.678   3.909   1.531 -1.3538  0.5302 -0.3931
  534MOL0     H72026  11.791   3.903   1.408 -1.8448  0.5011  0.2836
  534MOL0     H72027  11.869   4.136   1.508 -0.4471  0.6293 -0.1328
  534MOL0     H72028  11.904   3.990   1.606  0.3793 -1.7129 -3.5467
  534MOL0     H72029  11.700   4.219   1.631 -1.1544  1.3912  2.6743
  534MOL0     H72030  11.827   4.163   1.746 -0.7713 -0.7512  0.7026
  534MOL0     H72031  11.552   4.051   1.686  0.1648  2.1372  0.1567
  534MOL0     H72032  11.675   3.950   1.768  2.6724  0.1949 -0.7300
  534MOL0     H72033  11.629   4.041   1.964  1.5321 -1.6222 -1.7530
  534MOL0     H72034  11.708   4.178   1.916 -1.3144  1.0508  1.9452
  534MOL0     H72035  11.540   4.317   1.875  1.0266 -0.5974  0.7570
  534MOL0     H72036  11.431   4.182   1.826  0.7929 -2.2020 -0.4498
  534MOL0     H72037  11.408   4.102   2.054  2.8142  0.0267  0.3483
  534MOL0     H72038  11.360   4.270   2.056  1.3798  1.5853  1.2646
  534MOL0     H72039  11.612   4.189   2.170  0.5029  0.8665  3.8703
  534MOL0     H72040  11.551   4.357   2.151 -2.1491  0.6614  1.2470
  534MOL0     H72041  11.473   4.430   2.396  0.4983 -0.3005  2.3624
  534MOL0     H72042  11.418   4.412   2.639  0.3508  0.4613 -5.2140
  534MOL0     H72043  11.302   4.283   2.691  2.1782 -3.0832  2.7738
  534MOL0     H72044  11.497   4.266   2.828 -1.4291 -0.1016  0.5044
  534MOL0     H72045  11.503   4.138   2.716  0.9827  0.0619  0.4975
  534MOL0     H72046  11.634   4.399   2.627 -2.2233 -0.7126 -0.4903
  534MOL0     H72047  11.697   4.241   2.596 -0.3942  0.2798 -0.0476
  534MOL0     H72048  11.746   4.180   2.822 -0.9784 -0.9695 -1.1959
  534MOL0     H72049  11.723   4.349   2.868 -1.1789  0.0526 -0.7045
  534MOL0     H72050  12.130   4.226   2.662 -0.1623  1.3839 -0.4403
  534MOL0     H72051  12.319   4.226   2.802 -1.2596 -0.8159 -0.0828
  534MOL0     H72052  12.391   4.164   3.370 -1.6876  0.7030 -0.0925
  534MOL0     H72053  12.582   4.141   3.497  0.7239 -1.0448 -2.1326
  534MOL0     H72054  12.725   4.352   3.711 -3.2598 -2.3120 -0.2937
  534MOL0     H72055  12.730   4.184   3.657  3.7802 -1.6050 -1.1188
  534MOL0     H72056  12.988   4.218   3.645  0.3187  1.6040  0.2597
  534MOL0     H72057  12.953   4.372   3.715 -1.6757  1.1760 -1.6328
  534MOL0     H72058  12.858   4.226   3.924 -0.0580 -1.3598  0.9181
  534MOL0     H72059  12.892   4.093   3.830  2.6957 -1.1181  1.0316
  534MOL0     H72060  13.044   4.158   4.012  0.0929 -0.4368  0.2977
  534MOL0     H72061  13.118   4.282   3.903  3.0439 -1.5082 -0.6563
  534MOL0     H72062  13.169   4.120   3.731 -0.6281  0.8054 -0.0947
  534MOL0     H72063  13.119   3.982   3.840  2.4291 -0.7036  0.7023
  534MOL0     H72064  13.330   4.167   3.951  3.7319 -1.6838 -0.8923
  534MOL0     H72065  13.278   3.987   3.980  1.0190 -0.8103 -0.8425
  534MOL0     H72066  13.371   4.065   3.710  0.9915 -1.4208 -0.5015
  534MOL0     H72067  13.390   3.922   3.813 -5.1411  0.1327  0.7013
  534MOL0     H72068  13.606   4.086   3.765  2.0313  2.3104  1.5236
  534MOL0     H72069  13.516   4.192   3.870 -2.2145  0.5252 -1.9692
  534MOL0     H72070  12.717   4.533   3.358  0.8812 -1.7073  1.6123
  534MOL0     H72071  12.515   4.550   3.224  1.0303 -0.3028  0.7215
  534MOL0     H72072  12.063   4.338   3.143 -2.8278  1.4621 -0.0757
  534MOL0     H72073  11.885   4.316   3.014 -0.4078 -2.2920  0.0676
  534MOL0     H72074  11.449   4.163   1.302  3.7284 -0.9373 -1.7082
  534MOL0     H72075  11.255   4.083   1.194 -1.0621 -0.8878  1.7593
  534MOL0     H72076  10.971   3.837   1.135  1.4298  0.2538  0.3138
  534MOL0     H72077  10.738   3.755   1.121  2.2820 -0.0209  2.3295
  534MOL0     H72078  10.597   3.742   0.932 -1.8086 -0.1401 -0.7475
  534MOL0     H72079  10.549   3.673   1.086  0.7845  0.2486 -0.1119
  534MOL0     H72080  10.429   3.504   0.913  2.5455 -0.2781 -0.0605
  534MOL0     H72081  10.452   3.633   0.802  4.4392 -3.7215  0.0014
  534MOL0     H72082  10.294   3.646   1.068 -0.9466 -1.2025  0.4543
  534MOL0     H72083  10.221   3.621   0.913  0.2091 -1.0705 -0.9291
  534MOL0     H72084  10.223   3.860   0.995 -0.3614  1.2462 -1.2380
  534MOL0     H72085  10.399   3.866   0.972 -0.8528 -0.2061  0.5993
  534MOL0     H72086  10.253   3.898   0.577 -0.0929  2.6773 -0.2019
  534MOL0     H72087  10.847   3.426   0.881  0.7448 -0.6355  0.8527
  534MOL0     H72088  11.085   3.402   0.806  0.0734  2.3795 -2.8301
  534MOL0     H72089  11.176   3.552   0.802 -1.5998  0.7948 -1.1584
  534MOL0     H72090  11.196   3.437   0.943 -1.2114  0.8694  1.7890
  535MOL0     O72091   6.346   8.222   0.998  0.8057  0.3956 -0.5701
  535MOL0     C72092   6.345   8.106   1.014 -0.1690  0.1653 -0.4453
  535MOL0     O72093   6.449   8.019   0.988 -0.0705  0.5871 -0.4853
  535MOL0     C72094   6.580   8.057   0.992 -0.1186  0.1033  0.2032
  535MOL0     C72095   6.631   8.169   1.055 -0.5735  0.3953 -0.2476
  535MOL0     C72096   6.767   8.201   1.060 -0.5064 -0.3957  0.2020
  535MOL0     C72097   6.855   8.142   0.963  0.0136  0.0237  0.0773
  535MOL0     O72098   6.990   8.168   0.943 -0.0903 -0.0952  0.0480
  535MOL0     C72099   7.060   8.241   1.053 -0.4858  0.3561 -0.3105
  535MOL0     C72100   7.215   8.241   1.035 -0.7390 -0.4782 -1.2225
  535MOL0     C72101   7.265   8.103   1.041 -0.4320  0.3391 -0.5861
  535MOL0     C72102   7.406   8.112   1.087  1.3297  0.0940 -0.4557
  535MOL0     C72103   7.470   7.974   1.075  0.8375  0.0623  0.3898
  535MOL0     C72104   7.615   7.980   1.113 -0.2264  0.0990 -0.0640
  535MOL0     C72105   7.652   8.009   1.267 -0.8469  0.4718  0.1382
  535MOL0     C72106   7.627   7.874   1.336  0.5721  0.3471 -0.6196
  535MOL0     N72107   7.693   7.858   1.473  0.1133 -0.5303 -0.3549
  535MOL0     C72108   7.665   7.923   1.590 -0.1228 -0.0651 -0.1764
  535MOL0     C72109   7.753   7.875   1.684 -0.3125 -0.6114 -0.0076
  535MOL0     C72110   7.753   7.922   1.825  0.3339 -0.0557 -0.7853
  535MOL0     C72111   7.871   8.022   1.825 -0.4373 -0.5856  0.1670
  535MOL0     C72112   7.906   8.069   1.969  0.6892 -0.7013  0.2350
  535MOL0     C72113   8.035   8.158   1.972 -0.4196  0.5732  0.1483
  535MOL0     O72114   8.155   8.091   1.937  0.0126 -0.1152 -0.1623
  535MOL0     C72115   8.278   8.152   1.963  1.1653  0.9705  0.1349
  535MOL0     C72116   8.396   8.072   1.966 -0.0005  0.5635 -1.0694
  535MOL0     C72117   8.524   8.139   1.988 -0.2863 -0.0138  0.5755
  535MOL0     C72118   8.535   8.276   2.014  1.1901  0.1616  0.1792
  535MOL0     C72119   8.658   8.349   2.048 -0.4585  0.6708  0.4250
  535MOL0     O72120   8.774   8.272   2.063  0.0125 -0.0607 -0.1615
  535MOL0     C72121   8.904   8.318   2.098  0.0224 -0.1755 -0.2467
  535MOL0     C72122   9.002   8.221   2.096 -0.6072  0.3539  0.1160
  535MOL0     C72123   9.133   8.258   2.133  0.1464  0.7285  0.5467
  535MOL0     C72124   9.164   8.390   2.165  0.5253 -0.2371  0.2724
  535MOL0     O72125   9.292   8.435   2.191  0.4166  0.3785  0.6542
  535MOL0     C72126   9.405   8.340   2.192 -0.2272 -0.0915 -0.5384
  535MOL0     C72127   9.536   8.399   2.239  0.2618 -0.7979 -0.8528
  535MOL0     C72128   9.658   8.304   2.208 -0.2938 -0.3645 -0.1787
  535MOL0     C72129   9.783   8.394   2.189  0.4727 -0.6383 -0.3958
  535MOL0     C72130   9.900   8.329   2.107 -0.2406 -0.0361 -0.7178
  535MOL0     C72131   9.967   8.227   2.209  0.1412  0.2560  0.2064
  535MOL0     C72132  10.090   8.276   2.287 -0.6678 -0.8848 -0.2606
  535MOL0     C72133  10.200   8.302   2.179 -0.8713  0.7041  0.5866
  535MOL0    Cl72134  10.375   8.306   2.246 -0.2731 -0.1472  0.0133
  535MOL0     C72135   9.068   8.483   2.164  0.3430  0.3807  0.0455
  535MOL0     C72136   8.941   8.452   2.108 -0.4019 -0.0600 -0.1754
  535MOL0     O72137   8.647   8.467   2.071  0.4223 -0.6558  0.0278
  535MOL0     C72138   8.413   8.350   2.022 -0.6363 -0.4043  0.1324
  535MOL0     C72139   8.292   8.292   1.992 -0.5144 -0.2215  0.5229
  535MOL0     N72140   7.812   7.767   1.623  0.6893  0.1273  0.4521
  535MOL0     N72141   7.780   7.754   1.499 -0.7023 -0.2909  0.2186
  535MOL0     C72142   6.804   8.030   0.883 -0.5749  0.6138 -0.2941
  535MOL0     C72143   6.666   7.989   0.901  0.0437  0.1239 -0.1960
  535MOL0     C72144   6.211   8.053   1.040  0.6077  0.2445 -0.6128
  535MOL0     C72145   6.181   7.934   0.964 -0.1567 -0.3281 -0.1902
  535MOL0     C72146   6.052   7.874   0.985  0.3112 -0.0412 -0.6013
  535MOL0     C72147   5.963   7.931   1.072  0.7080  0.0134 -0.5636
  535MOL0     O72148   5.848   7.871   1.117 -0.3866  0.5287 -0.1714
  535MOL0     C72149   5.789   7.773   1.045 -0.4487 -0.2407  0.0079
  535MOL0     C72150   5.668   7.708   1.113 -0.1580 -0.1407  0.4310
  535MOL0     C72151   5.547   7.803   1.127 -0.1856 -0.7270 -0.2289
  535MOL0     C72152   5.442   7.725   1.216  0.0332 -0.0038 -0.4498
  535MOL0     C72153   5.322   7.808   1.245 -1.0385 -0.3591  0.5357
  535MOL0     C72154   5.220   7.868   1.273  0.0114 -0.3162 -0.3281
  535MOL0     C72155   5.997   8.045   1.133  0.2040  0.0948 -0.4715
  535MOL0     C72156   6.114   8.107   1.130 -0.1543 -0.5449  0.1834
  535MOL0     C72157   6.129   8.247   1.206  0.0531  0.3392  0.6542
  535MOL0     H72158   6.573   8.235   1.119 -0.0430  1.2392 -0.6154
  535MOL0     H72159   6.814   8.280   1.118  1.8049  0.3406 -2.4127
  535MOL0     H72160   7.045   8.349   1.061  2.2320  0.7407  0.4691
  535MOL0     H72161   7.034   8.198   1.150  0.8038  2.0056  0.8113
  535MOL0     H72162   7.263   8.305   1.109  1.1313 -3.1078  0.0396
  535MOL0     H72163   7.248   8.287   0.941 -2.7600  2.4818 -0.6192
  535MOL0     H72164   7.252   8.053   0.945 -0.9856  1.6604 -1.2179
  535MOL0     H72165   7.208   8.039   1.109  0.9659  0.1041  0.4104
  535MOL0     H72166   7.457   8.183   1.022 -2.8992  2.7157 -1.3333
  535MOL0     H72167   7.404   8.143   1.192 -0.9970  2.1532 -1.0259
  535MOL0     H72168   7.408   7.899   1.126 -0.7165  0.0625 -1.3740
  535MOL0     H72169   7.465   7.956   0.967 -1.3581  0.4573  0.3758
  535MOL0     H72170   7.665   7.887   1.085  0.8045  1.0403 -1.4417
  535MOL0     H72171   7.664   8.061   1.057  0.4004  1.1095  1.8167
  535MOL0     H72172   7.601   8.094   1.312 -2.3964  0.4317 -1.4317
  535MOL0     H72173   7.759   8.034   1.270 -1.4135  3.0481  0.9147
  535MOL0     H72174   7.519   7.854   1.335  0.6659 -0.1722 -0.9600
  535MOL0     H72175   7.675   7.788   1.289 -0.1803 -1.8197  2.2878
  535MOL0     H72176   7.585   7.996   1.602  0.0269  0.5569 -2.3959
  535MOL0     H72177   7.653   7.958   1.853 -0.9826  1.5209 -6.3169
  535MOL0     H72178   7.787   7.831   1.875 -1.0218 -0.8708 -1.2906
  535MOL0     H72179   7.958   7.982   1.772 -0.2941 -0.5187  0.3486
  535MOL0     H72180   7.843   8.108   1.765 -3.5401 -0.5889  1.4432
  535MOL0     H72181   7.922   7.982   2.034  0.7988 -0.1333  0.9710
  535MOL0     H72182   7.822   8.122   2.014  0.3465 -0.2029 -0.9400
  535MOL0     H72183   8.048   8.211   2.066  5.2399 -1.7023  1.0484
  535MOL0     H72184   8.016   8.228   1.890  2.3334 -0.8356 -1.8682
  535MOL0     H72185   8.388   7.967   1.940  0.8294  0.6233 -1.6139
  535MOL0     H72186   8.611   8.074   1.986 -0.7438 -0.6206 -0.0243
  535MOL0     H72187   8.988   8.114   2.083 -4.6563  0.5756  1.3230
  535MOL0     H72188   9.213   8.186   2.129 -0.8374 -0.4995  1.9742
  535MOL0     H72189   9.386   8.255   2.258  0.4875 -0.1521 -0.3970
  535MOL0     H72190   9.426   8.301   2.091  0.5507 -2.2467  0.3820
  535MOL0     H72191   9.548   8.492   2.184 -1.3048  1.0623  1.7467
  535MOL0     H72192   9.526   8.422   2.345  2.4973  0.0736 -0.7932
  535MOL0     H72193   9.674   8.225   2.281  0.7464 -0.4576 -0.4862
  535MOL0     H72194   9.636   8.257   2.112 -0.0052 -1.5745  0.3317
  535MOL0     H72195   9.822   8.432   2.284 -1.3198  0.2640  0.0327
  535MOL0     H72196   9.753   8.481   2.130  1.4616 -0.0097  0.0106
  535MOL0     H72197   9.958   8.409   2.061 -3.3824  3.5403  0.9540
  535MOL0     H72198   9.863   8.273   2.021  0.1663 -2.2506  0.4674
  535MOL0     H72199   9.894   8.198   2.285  0.7024  0.0979  0.6901
  535MOL0     H72200   9.987   8.137   2.150 -0.6174  0.6148 -0.6306
  535MOL0     H72201  10.125   8.196   2.353  1.5739  0.2012 -0.0222
  535MOL0     H72202  10.065   8.366   2.343 -0.8796 -0.6851 -0.6725
  535MOL0     H72203  10.200   8.231   2.095  2.5587  0.0843  0.9307
  535MOL0     H72204  10.182   8.401   2.138 -0.2061  0.5616 -0.0632
  535MOL0     H72205   9.111   8.583   2.166 -0.0741  0.6554 -2.2246
  535MOL0     H72206   8.870   8.525   2.073 -0.7638 -0.4184 -0.2004
  535MOL0     H72207   8.401   8.456   2.045  2.4104 -0.1286  0.8527
  535MOL0     H72208   8.203   8.352   1.981  0.4273  0.9397 -1.3030
  535MOL0     H72209   6.863   7.974   0.812  0.3410  2.2523 -0.8516
  535MOL0     H72210   6.623   7.902   0.853  0.0782  0.3376 -0.6215
  535MOL0     H72211   6.236   7.894   0.880  0.1226 -0.0724 -0.1304
  535MOL0     H72212   6.031   7.779   0.938  2.0287 -0.9703  0.4227
  535MOL0     H72213   5.861   7.696   1.016  2.0599  1.1784  2.0461
  535MOL0     H72214   5.757   7.825   0.954 -0.3214  0.3981  0.3164
  535MOL0     H72215   5.699   7.682   1.215  0.7405 -0.8704 -0.0049
  535MOL0     H72216   5.640   7.620   1.054 -0.8684  1.4321 -1.7101
  535MOL0     H72217   5.521   7.829   1.024  2.0352 -0.6801 -0.8331
  535MOL0     H72218   5.566   7.903   1.168  1.0015 -0.4366 -1.4119
  535MOL0     H72219   5.409   7.639   1.157  1.2611 -0.4920 -0.4542
  535MOL0     H72220   5.492   7.688   1.306  0.3470  0.1790 -0.5473
  535MOL0     H72221   5.131   7.913   1.312  0.4229 -0.5193  0.9018
  535MOL0     H72222   5.919   8.089   1.195 -1.6442  0.2803 -2.8121
  535MOL0     H72223   6.077   8.250   1.302 -1.8195  0.1540 -0.3117
  535MOL0     H72224   6.235   8.245   1.231  0.3245 -1.2781 -0.4578
  535MOL0     H72225   6.099   8.328   1.139 -0.7332  1.5600  2.4029
  536MOL0     O72226   1.364   8.608   3.670  0.1618 -0.0177  0.3279
  536MOL0     C72227   1.284   8.611   3.764 -0.1985 -0.2149 -1.6634
  536MOL0     O72228   1.302   8.695   3.879 -0.3583 -0.4188  0.8436
  536MOL0     C72229   1.416   8.761   3.909  0.0148 -0.4477 -0.9132
  536MOL0     C72230   1.546   8.739   3.862  0.8801 -0.4836  0.3162
  536MOL0     C72231   1.650   8.823   3.896 -0.1952 -0.4969  0.0284
  536MOL0     C72232   1.631   8.935   3.973  0.2563  0.8434  0.4379
  536MOL0     O72233   1.737   9.020   4.007  0.7602 -0.3600  0.8599
  536MOL0     C72234   1.874   8.971   4.011 -0.3418 -0.6951 -0.6962
  536MOL0     C72235   1.958   9.066   4.108  0.1884  0.3969 -0.8107
  536MOL0     C72236   2.094   9.005   4.138  0.2206 -0.0900 -0.7852
  536MOL0     C72237   2.192   9.022   4.030  0.0204 -0.6562  0.1857
  536MOL0     C72238   2.319   8.944   4.057  0.8023 -0.3680  0.6885
  536MOL0     C72239   2.439   9.002   3.980  0.3387 -0.6649 -0.2108
  536MOL0     C72240   2.428   8.986   3.826 -0.0093 -0.1160  0.6762
  536MOL0     C72241   2.531   9.078   3.745 -0.2773  0.3383 -0.6061
  536MOL0     N72242   2.670   9.040   3.757 -0.2552  0.2233  0.1324
  536MOL0     C72243   2.747   9.045   3.867  0.3530  0.3775  0.6755
  536MOL0     C72244   2.870   9.001   3.846 -0.3834 -0.8031  0.6961
  536MOL0     C72245   2.988   9.002   3.940 -0.6615 -0.3487 -0.6490
  536MOL0     C72246   2.981   8.879   4.031  0.3768 -0.1245 -0.1193
  536MOL0     C72247   3.045   8.914   4.163 -0.0907  1.4470  0.4254
  536MOL0     C72248   3.202   8.933   4.152 -0.3805  0.5161  0.2406
  536MOL0     O72249   3.247   8.940   4.293  0.3392 -0.5169  0.4084
  536MOL0     C72250   3.378   8.908   4.310  1.0116  0.1430 -0.1478
  536MOL0     C72251   3.415   8.869   4.436  0.5797  0.5867  0.1736
  536MOL0     C72252   3.533   8.802   4.455 -0.4174 -0.0980 -0.7071
  536MOL0     C72253   3.623   8.771   4.354  0.1556 -0.5359 -0.0252
  536MOL0     C72254   3.745   8.694   4.375 -0.7575 -0.5798 -0.7188
  536MOL0     O72255   3.772   8.662   4.507 -0.2662 -1.2692 -0.5409
  536MOL0     C72256   3.868   8.566   4.551 -0.1103  0.1918  0.0454
  536MOL0     C72257   3.884   8.544   4.692  0.0937  0.0815 -0.0472
  536MOL0     C72258   3.995   8.468   4.743 -0.2575  0.2995 -0.2053
  536MOL0     C72259   4.097   8.420   4.654  0.2679 -0.5677 -0.8678
  536MOL0     O72260   4.219   8.381   4.709  0.7484 -0.2126 -0.6031
  536MOL0     C72261   4.328   8.354   4.628 -0.0889  0.0108 -0.2308
  536MOL0     C72262   4.433   8.275   4.716 -0.0123 -0.4937 -0.2495
  536MOL0     C72263   4.382   8.135   4.767  0.1554  0.6976  0.3076
  536MOL0     C72264   4.469   8.087   4.880  0.9629  0.2986  0.3939
  536MOL0     C72265   4.450   7.936   4.891 -0.1697  1.0030 -0.4981
  536MOL0     C72266   4.547   7.873   4.998  0.8923  0.4672 -0.5663
  536MOL0     C72267   4.551   7.719   4.986  0.2826 -0.2506 -0.1552
  536MOL0     C72268   4.673   7.664   5.062 -0.0049 -0.1033  0.1832
  536MOL0    Cl72269   4.620   7.703   5.238 -0.0885  0.3993 -0.4984
  536MOL0     C72270   4.070   8.425   4.514 -0.6885 -0.3550  0.1892
  536MOL0     C72271   3.957   8.493   4.471 -0.2957  0.3209 -0.1644
  536MOL0     O72272   3.811   8.655   4.275 -0.1244  0.0231 -0.5556
  536MOL0     C72273   3.599   8.846   4.239  0.0064  0.3206  0.4323
  536MOL0     C72274   3.477   8.913   4.211 -0.7894  0.9080 -0.4476
  536MOL0     N72275   2.875   8.986   3.706  0.1599  0.1185 -0.2089
  536MOL0     N72276   2.755   9.007   3.660 -0.5147 -0.2479  0.3938
  536MOL0     C72277   1.507   8.946   4.031 -0.2179  0.5929  0.0815
  536MOL0     C72278   1.398   8.860   4.005 -0.4110  0.7621 -0.0077
  536MOL0     C72279   1.161   8.529   3.757  0.4389  0.7029  0.4764
  536MOL0     C72280   1.107   8.474   3.877  0.0306  0.0089  0.3568
  536MOL0     C72281   0.976   8.418   3.881 -0.2602 -0.5791  0.1808
  536MOL0     C72282   0.901   8.403   3.763 -0.4546  0.4506 -0.8223
  536MOL0     O72283   0.775   8.341   3.772  0.0046 -0.2808 -0.0168
  536MOL0     C72284   0.715   8.284   3.649  0.4510 -0.1436  0.3358
  536MOL0     C72285   0.603   8.378   3.605  0.0088  0.3091 -0.1649
  536MOL0     C72286   0.506   8.386   3.714  0.7354  0.5233 -0.8775
  536MOL0     C72287   0.439   8.242   3.741  0.5109 -0.3254  0.1570
  536MOL0     C72288   0.301   8.265   3.781 -0.5054 -0.6866  0.1134
  536MOL0     C72289   0.185   8.290   3.815 -0.3057 -0.3976  0.6258
  536MOL0     C72290   0.955   8.450   3.641  0.3406 -0.3359 -0.9058
  536MOL0     C72291   1.074   8.525   3.641  0.1616  0.4232 -0.6633
  536MOL0     C72292   1.123   8.576   3.511 -0.7659  0.6229 -0.2608
  536MOL0     H72293   1.554   8.645   3.807 -1.5649  0.3719 -1.6543
  536MOL0     H72294   1.745   8.787   3.858 -0.0142 -1.4815  1.3188
  536MOL0     H72295   1.861   8.870   4.051 -4.6987 -0.5261 -1.2214
  536MOL0     H72296   1.917   8.959   3.911 -0.5872 -0.5646 -0.8200
  536MOL0     H72297   1.902   9.084   4.200  0.2071  1.4350 -0.9848
  536MOL0     H72298   1.970   9.166   4.065 -1.9541  0.6536 -0.9002
  536MOL0     H72299   2.075   8.899   4.159  0.8039 -0.1609 -0.5861
  536MOL0     H72300   2.140   9.051   4.226 -2.5125 -0.3673  0.8898
  536MOL0     H72301   2.152   8.990   3.933 -1.2932 -2.4590  1.2471
  536MOL0     H72302   2.208   9.129   4.020  0.1170 -0.6639  0.2634
  536MOL0     H72303   2.337   8.965   4.162 -0.5838  0.1098  0.8414
  536MOL0     H72304   2.311   8.836   4.039  0.2915 -0.1717 -0.3373
  536MOL0     H72305   2.433   9.109   4.001  3.3808 -0.5069  0.2838
  536MOL0     H72306   2.529   8.963   4.028 -1.2728 -2.7337  1.2920
  536MOL0     H72307   2.331   9.010   3.780 -0.1151 -2.7687 -0.6437
  536MOL0     H72308   2.448   8.879   3.814  1.2216  0.1713 -0.1287
  536MOL0     H72309   2.501   9.071   3.640 -1.8357 -1.9210 -0.0618
  536MOL0     H72310   2.520   9.181   3.780 -2.5266  0.8372 -2.5215
  536MOL0     H72311   2.708   9.068   3.966 -1.9453 -1.4067  0.2678
  536MOL0     H72312   3.082   9.005   3.884  0.3871  0.1361  1.0741
  536MOL0     H72313   2.987   9.092   4.002  3.8046 -2.0611  2.4408
  536MOL0     H72314   2.877   8.846   4.045  1.1703 -1.5491  3.4131
  536MOL0     H72315   3.041   8.801   3.984 -0.0271 -0.4241 -0.1409
  536MOL0     H72316   3.026   8.841   4.241  0.0149  1.5514  0.5494
  536MOL0     H72317   2.999   9.005   4.203 -1.1127  2.2434 -2.3057
  536MOL0     H72318   3.237   9.018   4.094  1.8233 -0.8982 -0.6146
  536MOL0     H72319   3.245   8.849   4.096  0.4731  1.2045 -0.1573
  536MOL0     H72320   3.343   8.889   4.514 -1.2652  1.5537 -1.6663
  536MOL0     H72321   3.568   8.761   4.550 -1.0775 -2.1311 -1.2823
  536MOL0     H72322   3.811   8.589   4.758 -1.4014 -0.3566 -1.3209
  536MOL0     H72323   4.016   8.475   4.850  0.7565 -1.9038 -0.2175
  536MOL0     H72324   4.306   8.302   4.534  0.1529 -0.4538 -0.0297
  536MOL0     H72325   4.370   8.452   4.600 -3.0057  0.5896 -3.1522
  536MOL0     H72326   4.530   8.261   4.668  0.2312  1.5077 -0.4008
  536MOL0     H72327   4.449   8.337   4.805  0.1589  0.1273 -0.7142
  536MOL0     H72328   4.274   8.133   4.787 -0.3684 -0.2645 -2.1545
  536MOL0     H72329   4.403   8.073   4.679 -1.0947 -0.1490  0.5870
  536MOL0     H72330   4.449   8.138   4.974 -0.5846 -1.8819  1.3277
  536MOL0     H72331   4.574   8.096   4.850  1.0402 -0.4402  0.4104
  536MOL0     H72332   4.484   7.893   4.797 -0.6856  2.0773 -1.1880
  536MOL0     H72333   4.351   7.908   4.928  1.4722 -2.3600  1.9811
  536MOL0     H72334   4.645   7.911   4.967  1.4353 -1.8104 -1.8673
  536MOL0     H72335   4.528   7.910   5.099 -0.7635 -0.9203 -0.3182
  536MOL0     H72336   4.578   7.685   4.885  2.5757  0.0897  0.2856
  536MOL0     H72337   4.458   7.672   5.016  1.7162 -2.4427  1.1244
  536MOL0     H72338   4.681   7.557   5.044  4.0959  0.1019 -0.2523
  536MOL0     H72339   4.771   7.706   5.038  0.3633 -0.5028  0.9794
  536MOL0     H72340   4.138   8.391   4.436 -0.5885 -1.4359  0.7302
  536MOL0     H72341   3.948   8.496   4.363 -2.2395  2.6636 -0.0346
  536MOL0     H72342   3.674   8.839   4.161  1.1123  1.7441  1.3205
  536MOL0     H72343   3.445   8.956   4.117 -1.6771  0.3100 -0.4325
  536MOL0     H72344   1.496   9.025   4.105 -0.6101  1.0124 -0.4195
  536MOL0     H72345   1.301   8.870   4.052 -0.3039 -1.1553  0.7125
  536MOL0     H72346   1.157   8.494   3.971 -0.9020 -1.6575  1.2541
  536MOL0     H72347   0.932   8.391   3.976  0.8080 -1.0109  0.5628
  536MOL0     H72348   0.686   8.182   3.673 -0.5644  0.2812  0.9800
  536MOL0     H72349   0.782   8.273   3.563 -0.0475  1.9716 -0.3874
  536MOL0     H72350   0.550   8.334   3.520 -2.8147  0.2490  1.4903
  536MOL0     H72351   0.647   8.474   3.577 -0.7058  0.5350 -0.5338
  536MOL0     H72352   0.425   8.454   3.687 -0.5741 -0.6368  0.0245
  536MOL0     H72353   0.557   8.425   3.803  1.0156 -2.5054  0.4157
  536MOL0     H72354   0.443   8.176   3.654  0.1690  1.2315 -1.1040
  536MOL0     H72355   0.483   8.198   3.831 -0.5078 -0.0528  0.8132
  536MOL0     H72356   0.084   8.319   3.837  0.1794  0.4271  1.9144
  536MOL0     H72357   0.891   8.432   3.555 -2.0315 -2.4024  1.1375
  536MOL0     H72358   1.219   8.530   3.485  1.4267  3.5097  1.9412
  536MOL0     H72359   1.047   8.564   3.433  0.0053 -1.0936 -0.7879
  536MOL0     H72360   1.151   8.682   3.513  1.3732  0.1966  3.9885
  537MOL0     O72361   5.685   6.892   6.545 -0.7851  0.0497 -0.2656
  537MOL0     C72362   5.702   6.771   6.572 -0.0516 -0.5801 -0.5473
  537MOL0     O72363   5.816   6.719   6.622 -0.2703 -0.4704 -0.1842
  537MOL0     C72364   5.923   6.802   6.653  0.3241 -0.2995  0.5613
  537MOL0     C72365   5.992   6.865   6.557 -0.0678 -0.4276  0.8695
  537MOL0     C72366   6.111   6.932   6.574  0.2949  0.1974  0.0034
  537MOL0     C72367   6.165   6.945   6.709  1.0937  0.3956  0.1875
  537MOL0     O72368   6.280   7.002   6.743 -0.3114  0.6087 -0.6148
  537MOL0     C72369   6.363   7.062   6.641  0.4340  0.4808  0.5201
  537MOL0     C72370   6.503   7.077   6.692  0.0298 -0.4477 -0.1238
  537MOL0     C72371   6.575   6.948   6.708 -0.3298  0.3585 -0.3410
  537MOL0     C72372   6.720   6.968   6.756  0.0067 -0.6804  0.4517
  537MOL0     C72373   6.780   6.832   6.755  0.3714 -0.7786  0.0587
  537MOL0     C72374   6.924   6.844   6.801  0.2060 -0.1738 -0.1049
  537MOL0     C72375   7.004   6.715   6.776  0.6833  0.0512 -0.3262
  537MOL0     C72376   7.147   6.732   6.814 -0.4237  0.7775 -0.0903
  537MOL0     N72377   7.224   6.601   6.790  0.4034 -1.0564 -0.2443
  537MOL0     C72378   7.235   6.556   6.659 -0.1082  0.0782 -0.5343
  537MOL0     C72379   7.286   6.431   6.677  0.2109 -0.5519 -0.2992
  537MOL0     C72380   7.321   6.330   6.574  1.1712 -0.2128  0.7052
  537MOL0     C72381   7.461   6.363   6.504  0.9204  0.1502  0.1282
  537MOL0     C72382   7.498   6.274   6.390 -0.2919  0.2769 -0.2830
  537MOL0     C72383   7.429   6.305   6.248 -1.4165 -0.1789  0.0790
  537MOL0     O72384   7.498   6.216   6.159  0.1568 -0.1929 -0.4079
  537MOL0     C72385   7.630   6.240   6.124 -0.4018  0.9538 -0.4908
  537MOL0     C72386   7.703   6.118   6.092  0.1420 -0.0480 -1.2366
  537MOL0     C72387   7.839   6.122   6.063 -0.2956  0.3116  0.1999
  537MOL0     C72388   7.915   6.241   6.081  0.2170 -0.2554  0.4565
  537MOL0     C72389   8.065   6.241   6.071  0.2732  0.0510  0.1225
  537MOL0     O72390   8.125   6.356   6.095  0.3631 -0.2627 -0.3865
  537MOL0     C72391   8.259   6.368   6.094  0.7809  0.1399  0.3715
  537MOL0     C72392   8.338   6.299   6.176 -0.1870 -0.0259 -0.3144
  537MOL0     C72393   8.474   6.322   6.182  0.4042  0.5470  0.0793
  537MOL0     C72394   8.535   6.403   6.081 -0.2177  0.4909  0.5007
  537MOL0     O72395   8.663   6.420   6.097 -0.0677 -0.1194  0.1498
  537MOL0     C72396   8.744   6.453   5.983  0.2426 -0.2030 -0.0533
  537MOL0     C72397   8.882   6.452   6.026 -0.2449  0.3193  0.0686
  537MOL0     C72398   8.971   6.443   5.894 -0.0827 -0.4837  0.2278
  537MOL0     C72399   9.107   6.479   5.943  0.1551  0.8080  0.6086
  537MOL0     C72400   9.202   6.495   5.818 -0.0928  0.0947 -0.6466
  537MOL0     C72401   9.347   6.472   5.859 -0.0521  0.2439  0.0062
  537MOL0     C72402   9.442   6.422   5.743 -0.5098  0.4977 -1.0651
  537MOL0     C72403   9.492   6.544   5.657 -0.1975  1.4348  0.3233
  537MOL0    Cl72404   9.379   6.597   5.527  0.0277  0.0179 -0.2328
  537MOL0     C72405   8.457   6.459   5.976  0.3302  0.7656 -0.2967
  537MOL0     C72406   8.315   6.452   5.994  0.1724  0.1161 -0.5920
  537MOL0     O72407   8.117   6.134   6.045  0.1561  0.8387  0.8225
  537MOL0     C72408   7.846   6.356   6.107  0.0029 -0.2838  0.7333
  537MOL0     C72409   7.704   6.360   6.135  0.2685  0.9624  0.5373
  537MOL0     N72410   7.273   6.391   6.810 -0.5177 -0.3124 -0.2788
  537MOL0     N72411   7.245   6.497   6.881  0.4525 -0.0057 -0.2166
  537MOL0     C72412   6.088   6.895   6.812 -0.4604 -0.4245  0.3644
  537MOL0     C72413   5.978   6.815   6.788  0.5219  0.7319 -0.1586
  537MOL0     C72414   5.586   6.673   6.548  0.3056  0.1562  0.2805
  537MOL0     C72415   5.605   6.538   6.591  0.9767 -0.0865 -0.0714
  537MOL0     C72416   5.502   6.447   6.577 -0.6252  0.0089 -0.0351
  537MOL0     C72417   5.375   6.476   6.527  1.0812 -0.8601 -1.5012
  537MOL0     O72418   5.283   6.375   6.537 -0.0998 -0.1321 -0.0695
  537MOL0     C72419   5.164   6.399   6.462 -0.1447  0.7669  0.7930
  537MOL0     C72420   5.086   6.266   6.446  0.0395  1.1008  0.0780
  537MOL0     C72421   4.957   6.283   6.371  0.9135  0.0626  0.5622
  537MOL0     C72422   4.872   6.159   6.338 -0.0831  0.0384 -0.1009
  537MOL0     C72423   4.958   6.083   6.240 -0.0623 -0.5025 -1.0802
  537MOL0     C72424   5.017   6.011   6.165  0.3360 -0.5272 -0.1610
  537MOL0     C72425   5.356   6.604   6.482  0.3056 -0.3376  0.4857
  537MOL0     C72426   5.455   6.699   6.486 -0.1803  0.0167 -0.2686
  537MOL0     C72427   5.417   6.823   6.424 -0.0412 -0.3655 -0.4521
  537MOL0     H72428   5.961   6.857   6.453 -0.2903  1.5513  0.7453
  537MOL0     H72429   6.156   6.958   6.479 -0.4934  0.9089 -0.1885
  537MOL0     H72430   6.359   7.000   6.551 -4.2813  0.4772  0.4512
  537MOL0     H72431   6.319   7.158   6.612  2.0978  1.0937 -0.0605
  537MOL0     H72432   6.491   7.127   6.788 -2.5065 -1.0358 -0.0629
  537MOL0     H72433   6.565   7.139   6.626  1.9351 -0.7163  1.3420
  537MOL0     H72434   6.569   6.896   6.612  2.4784  1.7337 -1.3741
  537MOL0     H72435   6.526   6.888   6.786  1.4872 -1.3073 -0.4169
  537MOL0     H72436   6.784   7.036   6.699  0.9318 -0.9504  1.1301
  537MOL0     H72437   6.710   7.000   6.860 -1.9448 -3.6185  1.3086
  537MOL0     H72438   6.716   6.779   6.826  1.2905 -0.9016  0.8043
  537MOL0     H72439   6.782   6.801   6.650 -1.0739 -0.2596 -0.1535
  537MOL0     H72440   6.968   6.930   6.749 -1.5387  2.3571  2.3290
  537MOL0     H72441   6.933   6.882   6.903  2.3780  3.4103 -1.4269
  537MOL0     H72442   6.994   6.706   6.668  0.3579  1.0172 -0.3853
  537MOL0     H72443   6.969   6.628   6.833  0.2044  2.0942  2.7592
  537MOL0     H72444   7.188   6.806   6.744 -2.7758  1.8417 -0.4573
  537MOL0     H72445   7.153   6.771   6.916 -0.4994 -0.1773  0.2826
  537MOL0     H72446   7.209   6.600   6.563  0.2188 -2.1532 -1.7225
  537MOL0     H72447   7.333   6.238   6.632  0.4778 -2.5720 -2.5631
  537MOL0     H72448   7.248   6.319   6.492  1.8235 -2.1316  0.3290
  537MOL0     H72449   7.461   6.468   6.474 -2.3726  0.2613  0.2091
  537MOL0     H72450   7.549   6.350   6.569  1.4471 -0.1508 -0.6258
  537MOL0     H72451   7.489   6.170   6.424  2.4552  0.1603  0.3135
  537MOL0     H72452   7.608   6.270   6.388 -0.3037 -1.3856  0.7056
  537MOL0     H72453   7.444   6.408   6.216 -0.8953 -0.7581 -1.6610
  537MOL0     H72454   7.323   6.279   6.243 -1.2636 -0.5001 -2.3681
  537MOL0     H72455   7.642   6.028   6.080  2.2754 -1.8785  0.6756
  537MOL0     H72456   7.892   6.031   6.039 -0.9191 -0.2230  0.8261
  537MOL0     H72457   8.294   6.238   6.254 -2.3554  3.2222  1.2228
  537MOL0     H72458   8.530   6.261   6.251 -2.2404 -0.4605  1.4777
  537MOL0     H72459   8.711   6.379   5.910  0.4863 -2.1781  1.7481
  537MOL0     H72460   8.734   6.555   5.943  0.4002 -0.8098 -1.7452
  537MOL0     H72461   8.902   6.541   6.086  0.2736  0.6090 -0.5180
  537MOL0     H72462   8.899   6.364   6.090 -0.3299 -0.1987 -0.6058
  537MOL0     H72463   8.963   6.349   5.838 -3.0242  0.0742 -0.4417
  537MOL0     H72464   8.935   6.519   5.824  0.2195  0.2890  0.8979
  537MOL0     H72465   9.134   6.393   6.005  0.4288 -0.8767 -1.7219
  537MOL0     H72466   9.121   6.568   6.006  1.0104 -0.6989  2.6687
  537MOL0     H72467   9.182   6.590   5.767  1.7300  0.5833 -0.5145
  537MOL0     H72468   9.175   6.416   5.747 -1.0319  1.1710 -1.5458
  537MOL0     H72469   9.383   6.568   5.897 -0.6511  1.3522 -2.0813
  537MOL0     H72470   9.352   6.393   5.935  1.5715 -0.4884 -0.8055
  537MOL0     H72471   9.399   6.344   5.679 -1.2585  1.1643 -1.3915
  537MOL0     H72472   9.535   6.378   5.780 -0.6942 -0.0547 -1.2609
  537MOL0     H72473   9.508   6.631   5.721 -2.9979  1.1540  1.5695
  537MOL0     H72474   9.591   6.525   5.614  1.0123  2.0926  2.6038
  537MOL0     H72475   8.498   6.528   5.904 -0.8562 -0.1415 -1.9032
  537MOL0     H72476   8.256   6.507   5.922 -0.5974 -0.1098 -0.1425
  537MOL0     H72477   7.895   6.453   6.114  0.0977 -0.3345  0.7815
  537MOL0     H72478   7.659   6.456   6.156 -3.8726  0.2153 -3.4072
  537MOL0     H72479   6.141   6.889   6.907  0.2731  1.2633  0.1032
  537MOL0     H72480   5.931   6.755   6.864  0.7485  0.0415 -0.5574
  537MOL0     H72481   5.697   6.511   6.642  0.1527  1.6438  2.5521
  537MOL0     H72482   5.510   6.344   6.610  1.5908  0.5455  1.3663
  537MOL0     H72483   5.184   6.441   6.363 -0.1791  0.6684  0.7438
  537MOL0     H72484   5.106   6.465   6.527 -0.3156  0.7449  0.6665
  537MOL0     H72485   5.068   6.226   6.546 -2.4093 -1.8543 -1.3569
  537MOL0     H72486   5.152   6.197   6.394  0.4290  1.1512  0.5038
  537MOL0     H72487   4.971   6.329   6.273  2.1222 -0.2041  0.6002
  537MOL0     H72488   4.903   6.347   6.442 -2.1504 -1.2070 -0.4497
  537MOL0     H72489   4.847   6.107   6.431 -0.4921  1.6283  0.7180
  537MOL0     H72490   4.774   6.190   6.300  1.0266  2.2414 -1.3596
  537MOL0     H72491   5.057   5.954   6.084 -1.0450 -2.0639  0.1676
  537MOL0     H72492   5.259   6.631   6.440  1.7353  1.5224 -1.8722
  537MOL0     H72493   5.318   6.826   6.377  1.0092  0.0424 -2.7383
  537MOL0     H72494   5.425   6.918   6.478  0.1994 -0.3545 -0.5059
  537MOL0     H72495   5.485   6.833   6.339 -0.4580 -1.8736 -0.9869
  538MOL0     O72496   9.646   1.744   8.627 -0.6158  0.1132  0.0834
  538MOL0     C72497   9.728   1.743   8.719 -0.5587  0.3781 -0.2385
  538MOL0     O72498   9.857   1.742   8.696  0.1027  0.0133  1.0837
  538MOL0     C72499   9.903   1.759   8.566 -1.1083 -1.0040  0.4708
  538MOL0     C72500   9.886   1.879   8.491  0.1094  0.0024 -0.1993
  538MOL0     C72501   9.940   1.890   8.360 -0.5722 -0.6161  0.6127
  538MOL0     C72502  10.014   1.788   8.298  0.1404  0.2001 -0.3447
  538MOL0     O72503  10.062   1.808   8.171  0.2943 -0.6894 -0.5092
  538MOL0     C72504  10.200   1.772   8.145  0.3331  0.5375 -0.3406
  538MOL0     C72505  10.280   1.862   8.241 -0.6060 -0.1552 -0.1027
  538MOL0     C72506  10.425   1.855   8.200  0.5655  0.8615 -0.5375
  538MOL0     C72507  10.510   1.938   8.293 -0.6832 -0.1795  0.0733
  538MOL0     C72508  10.658   1.936   8.257  0.0736  0.5932  1.1523
  538MOL0     C72509  10.726   2.044   8.343  0.2995  0.0287 -0.2116
  538MOL0     C72510  10.876   2.023   8.333  0.3091  0.5933  0.1024
  538MOL0     C72511  10.964   2.113   8.425  0.0481 -0.2806  0.4426
  538MOL0     N72512  11.113   2.100   8.418  0.7029  0.0545  0.1714
  538MOL0     C72513  11.195   2.199   8.364 -0.0104  1.8762 -0.2312
  538MOL0     C72514  11.320   2.164   8.393  0.5679 -0.0782  0.3421
  538MOL0     C72515  11.446   2.232   8.345  0.1149  0.0564  0.3878
  538MOL0     C72516  11.588   2.183   8.376  0.0324  0.3725  0.1004
  538MOL0     C72517  11.611   2.171   8.526 -0.0381 -0.1341 -0.1109
  538MOL0     C72518  11.764   2.170   8.552  0.5284 -0.2060 -0.4212
  538MOL0     O72519  11.817   2.305   8.541  0.9334 -0.4037  0.6339
  538MOL0     C72520  11.951   2.326   8.555 -0.2352 -0.3497 -0.6449
  538MOL0     C72521  12.040   2.225   8.588  0.4299 -0.4275  0.1224
  538MOL0     C72522  12.168   2.260   8.625 -0.3786 -0.0471  0.0100
  538MOL0     C72523  12.223   2.384   8.608  0.9611 -0.7528 -1.3470
  538MOL0     C72524  12.367   2.409   8.632 -0.3833 -1.0233  0.3408
  538MOL0     O72525  12.416   2.541   8.626  0.4085  0.5367 -0.4956
  538MOL0     C72526  12.551   2.559   8.654  0.0562 -0.0394 -0.0494
  538MOL0     C72527  12.652   2.503   8.569  0.6637  0.1810 -0.3303
  538MOL0     C72528  12.784   2.552   8.583  0.1242  0.5452 -0.1167
  538MOL0     C72529  12.828   2.652   8.666  0.1480  0.1825  0.5064
  538MOL0     O72530  12.955   2.685   8.674 -0.5523 -1.0625  0.3403
  538MOL0     C72531  13.054   2.580   8.686 -0.6634  0.0498  0.5495
  538MOL0     C72532  13.188   2.621   8.719 -0.8931 -0.0350  0.3454
  538MOL0     C72533  13.281   2.651   8.597 -0.1604  0.1494 -0.4020
  538MOL0     C72534  13.225   2.748   8.497  0.7321  0.7231 -0.7352
  538MOL0     C72535  13.321   2.801   8.400  0.4240 -0.0001 -0.9899
  538MOL0     C72536  13.356   2.680   8.307 -0.3817 -0.7173 -0.3258
  538MOL0     C72537  13.417   2.735   8.179 -0.0718  0.0125 -0.0629
  538MOL0     C72538  13.481   2.632   8.079 -0.5137  0.0636 -0.2545
  538MOL0    Cl72539  13.570   2.721   7.949  0.0819  0.2604 -0.5705
  538MOL0     C72540  12.728   2.710   8.746  0.0946  0.3807  0.5070
  538MOL0     C72541  12.588   2.659   8.744  0.2771 -0.4572 -1.0802
  538MOL0     O72542  12.435   2.314   8.658 -0.4344  0.5052 -0.2060
  538MOL0     C72543  12.136   2.490   8.562 -0.8353 -0.8192 -0.4402
  538MOL0     C72544  11.998   2.459   8.537  0.1902  0.4303  0.3376
  538MOL0     N72545  11.312   2.043   8.461  1.2228  0.6203  0.1708
  538MOL0     N72546  11.190   2.001   8.478 -0.2034 -0.3755  0.1885
  538MOL0     C72547  10.032   1.670   8.370 -0.0419  0.7556  0.4820
  538MOL0     C72548   9.977   1.659   8.497 -0.5267 -0.5006 -0.7649
  538MOL0     C72549   9.669   1.757   8.854 -0.5422 -0.1519 -0.4435
  538MOL0     C72550   9.532   1.788   8.860 -0.7250 -0.9205 -0.7319
  538MOL0     C72551   9.471   1.811   8.981 -0.1918 -0.3206 -1.6258
  538MOL0     C72552   9.543   1.812   9.102  1.0029  0.1021  0.4416
  538MOL0     O72553   9.478   1.840   9.222 -0.1720 -0.0486  0.0751
  538MOL0     C72554   9.550   1.841   9.347 -0.1098  0.4364 -1.1482
  538MOL0     C72555   9.446   1.916   9.439 -0.5974  0.7067 -0.0747
  538MOL0     C72556   9.505   1.975   9.571  0.3240  0.6282  0.0804
  538MOL0     C72557   9.630   2.057   9.576  0.0224 -1.4747  0.4475
  538MOL0     C72558   9.645   2.168   9.477 -0.2262  0.5132  0.2194
  538MOL0     C72559   9.657   2.265   9.399 -0.9587  0.0925  0.1917
  538MOL0     C72560   9.676   1.771   9.101  0.1372 -0.4726 -0.5463
  538MOL0     C72561   9.742   1.749   8.979 -0.0899  0.3374 -0.3404
  538MOL0     C72562   9.880   1.695   8.985  0.8832 -0.3684 -0.2165
  538MOL0     H72563   9.838   1.965   8.536 -1.8374  0.4400 -2.8150
  538MOL0     H72564   9.943   1.981   8.301  0.8828 -1.5888 -0.9111
  538MOL0     H72565  10.219   1.666   8.164  1.5209  0.9159  0.7226
  538MOL0     H72566  10.218   1.795   8.040 -1.1854  1.6300 -0.3993
  538MOL0     H72567  10.264   1.830   8.344  0.1647  2.7929  1.0391
  538MOL0     H72568  10.242   1.964   8.225  2.6026  0.9162 -1.6558
  538MOL0     H72569  10.443   1.894   8.099 -0.0169 -0.6345 -1.2609
  538MOL0     H72570  10.462   1.752   8.202  1.4051  1.1430  2.0238
  538MOL0     H72571  10.479   2.042   8.277  3.2529  0.7943 -2.6895
  538MOL0     H72572  10.494   1.907   8.396 -0.6622 -0.5132 -0.0227
  538MOL0     H72573  10.688   1.834   8.287 -1.1933 -0.3336 -0.5690
  538MOL0     H72574  10.677   1.963   8.153  1.5979  2.0167  1.7592
  538MOL0     H72575  10.691   2.143   8.315 -0.1927 -0.4868 -1.4829
  538MOL0     H72576  10.711   2.028   8.451 -0.4300 -1.9939 -0.5624
  538MOL0     H72577  10.904   2.044   8.229 -5.0027  2.2853 -1.3082
  538MOL0     H72578  10.910   1.919   8.338  1.7886  0.7692 -3.5381
  538MOL0     H72579  10.934   2.216   8.405 -0.0715 -0.7372 -2.0865
  538MOL0     H72580  10.934   2.087   8.527 -1.9225  0.6698  0.1640
  538MOL0     H72581  11.159   2.281   8.303  0.7848  1.2732 -1.5361
  538MOL0     H72582  11.430   2.232   8.236  2.6108 -0.8288 -0.0465
  538MOL0     H72583  11.445   2.340   8.362 -0.4747  0.5003 -2.0943
  538MOL0     H72584  11.605   2.084   8.333  2.4471 -0.2766  2.3078
  538MOL0     H72585  11.658   2.257   8.337 -0.1469  0.7622  0.5085
  538MOL0     H72586  11.563   2.082   8.568  0.1485 -0.4116 -0.4776
  538MOL0     H72587  11.566   2.251   8.585  0.4875 -1.2622  1.9315
  538MOL0     H72588  11.805   2.099   8.481 -1.1841 -0.3909 -1.2916
  538MOL0     H72589  11.783   2.132   8.653  2.3725 -0.4971 -0.8486
  538MOL0     H72590  12.007   2.125   8.611  2.4847 -1.1434  0.1800
  538MOL0     H72591  12.239   2.182   8.652  1.8789  1.8548 -0.1904
  538MOL0     H72592  12.610   2.429   8.501 -2.1448  1.8298 -0.5684
  538MOL0     H72593  12.859   2.508   8.517 -1.5336 -0.2633 -1.5558
  538MOL0     H72594  13.020   2.515   8.767  1.8771 -0.5328  1.2605
  538MOL0     H72595  13.059   2.515   8.597 -0.3105 -0.2823  0.8072
  538MOL0     H72596  13.186   2.714   8.775  0.1167 -0.4740  1.1477
  538MOL0     H72597  13.239   2.546   8.780 -0.6319 -0.4557 -0.3777
  538MOL0     H72598  13.372   2.692   8.642 -0.2657 -2.0799  2.0761
  538MOL0     H72599  13.305   2.559   8.543 -3.0742  0.3850 -2.3308
  538MOL0     H72600  13.187   2.834   8.552 -0.2017 -0.2602  0.2095
  538MOL0     H72601  13.147   2.710   8.431  2.2375  1.5738 -3.0973
  538MOL0     H72602  13.413   2.835   8.448 -1.1988  1.5342  1.2299
  538MOL0     H72603  13.274   2.880   8.341  1.2992 -0.6910 -2.6884
  538MOL0     H72604  13.432   2.614   8.350 -0.4808  0.5441  1.9846
  538MOL0     H72605  13.264   2.631   8.275 -0.6570  1.9473 -4.3104
  538MOL0     H72606  13.502   2.797   8.206  1.4720 -1.9016 -0.2675
  538MOL0     H72607  13.339   2.796   8.131  0.3307 -0.0856 -0.8690
  538MOL0     H72608  13.562   2.580   8.131  0.5454 -0.0959 -1.9898
  538MOL0     H72609  13.417   2.559   8.031  1.8256 -1.7602 -0.7877
  538MOL0     H72610  12.752   2.789   8.816 -1.0505 -0.2844  1.7140
  538MOL0     H72611  12.509   2.713   8.796  1.7531 -0.8659  1.7590
  538MOL0     H72612  12.171   2.593   8.561 -1.2202 -0.4435  4.0312
  538MOL0     H72613  11.922   2.533   8.517  1.5323  2.3900  2.0802
  538MOL0     H72614  10.088   1.589   8.324  0.3538  0.4416  1.4944
  538MOL0     H72615   9.999   1.568   8.553 -2.9795  0.8985  2.7812
  538MOL0     H72616   9.461   1.810   8.781 -0.9669  1.5727  0.0821
  538MOL0     H72617   9.366   1.838   8.976 -0.6515 -1.0271  1.5115
  538MOL0     H72618   9.644   1.897   9.334 -0.2513  0.7126 -0.9937
  538MOL0     H72619   9.567   1.742   9.390 -0.1831  0.4036 -1.1942
  538MOL0     H72620   9.364   1.845   9.453  1.6188 -1.9487  0.3629
  538MOL0     H72621   9.417   1.997   9.372  1.9288  1.2694 -0.5944
  538MOL0     H72622   9.510   1.898   9.649 -1.9091  0.1747 -0.1627
  538MOL0     H72623   9.429   2.046   9.605 -0.5533  0.8462 -2.1973
  538MOL0     H72624   9.637   2.097   9.678  0.7269 -0.1211 -0.1070
  538MOL0     H72625   9.716   1.992   9.560  0.2034 -0.5591 -3.2798
  538MOL0     H72626   9.671   2.344   9.328  1.5217 -0.3685  0.0680
  538MOL0     H72627   9.738   1.766   9.190  0.8529  2.1376 -0.8170
  538MOL0     H72628   9.891   1.611   8.916 -2.6040 -2.0431  1.0149
  538MOL0     H72629   9.958   1.770   8.973 -0.0393  0.3972 -1.6414
  538MOL0     H72630   9.897   1.638   9.077 -1.0368  0.8264  0.9549
  539MOL0     O72631   2.456   0.290   2.797 -0.0853  0.0667 -1.0517
  539MOL0     C72632   2.532   0.335   2.715 -0.9572  0.3955  0.9121
  539MOL0     O72633   2.511   0.458   2.654  0.6293 -0.4023  0.0104
  539MOL0     C72634   2.399   0.533   2.678 -0.6454  0.8970 -0.2843
  539MOL0     C72635   2.355   0.560   2.812 -0.3429  0.6178 -0.0008
  539MOL0     C72636   2.235   0.626   2.828  0.9120 -0.2311  0.0461
  539MOL0     C72637   2.155   0.664   2.718  0.8903  1.0427  0.7677
  539MOL0     O72638   2.034   0.716   2.736  0.0331 -0.5341  0.2235
  539MOL0     C72639   2.021   0.820   2.837 -0.3551  0.1673 -0.0952
  539MOL0     C72640   2.076   0.964   2.794 -0.4193 -0.5894 -0.0771
  539MOL0     C72641   2.219   0.991   2.853  0.1433 -0.2507  0.1693
  539MOL0     C72642   2.278   1.109   2.776  0.5998  1.0292 -0.3050
  539MOL0     C72643   2.429   1.121   2.803  0.0121  0.5308 -0.4871
  539MOL0     C72644   2.496   1.228   2.717 -0.0217 -0.9998 -0.5058
  539MOL0     C72645   2.645   1.240   2.739 -0.1560  0.2616  0.4421
  539MOL0     C72646   2.679   1.289   2.873 -0.2500  0.5906 -0.8045
  539MOL0     N72647   2.817   1.326   2.889 -0.0001  0.3921  0.0642
  539MOL0     C72648   2.924   1.240   2.886  0.5216 -0.1447  0.1653
  539MOL0     C72649   3.034   1.320   2.883 -0.0046  0.7435  0.1402
  539MOL0     C72650   3.175   1.281   2.889 -0.4593  0.8802 -0.0969
  539MOL0     C72651   3.198   1.189   3.013  0.3524 -0.4209  0.1286
  539MOL0     C72652   3.346   1.187   3.065  1.1604  0.8531  0.1170
  539MOL0     C72653   3.376   1.071   3.164  0.2815  0.1781  0.5590
  539MOL0     O72654   3.521   1.079   3.193 -0.3816 -0.1378 -0.5292
  539MOL0     C72655   3.577   1.137   3.294  0.1293  0.1738 -0.4273
  539MOL0     C72656   3.517   1.213   3.393 -0.0138 -0.6258  0.3908
  539MOL0     C72657   3.593   1.282   3.487 -0.2059  0.3607  0.6195
  539MOL0     C72658   3.736   1.276   3.474  0.3103  0.4232 -0.1148
  539MOL0     C72659   3.817   1.329   3.582 -0.0034  0.3531  0.2596
  539MOL0     O72660   3.949   1.306   3.578  0.0619  0.0069  0.5270
  539MOL0     C72661   4.007   1.320   3.698 -0.4083 -0.3660  0.1432
  539MOL0     C72662   3.970   1.244   3.812 -0.1917 -0.4194 -0.0123
  539MOL0     C72663   4.045   1.264   3.929 -0.3441  0.0543 -1.1814
  539MOL0     C72664   4.140   1.368   3.939  0.6828  0.3119  0.6142
  539MOL0     O72665   4.220   1.399   4.047 -0.0783 -0.3826 -0.2643
  539MOL0     C72666   4.176   1.354   4.178 -1.0893 -0.0449  0.0891
  539MOL0     C72667   4.266   1.432   4.276  0.2260 -0.3713  0.9430
  539MOL0     C72668   4.411   1.379   4.277 -0.3768 -0.1768 -0.4626
  539MOL0     C72669   4.512   1.465   4.366  0.2543 -0.9832 -0.3464
  539MOL0     C72670   4.657   1.423   4.360  0.2293 -0.4075 -0.8942
  539MOL0     C72671   4.718   1.417   4.215 -0.5983  0.3536 -0.7582
  539MOL0     C72672   4.869   1.403   4.234 -0.5822 -0.3124 -0.0962
  539MOL0     C72673   4.939   1.434   4.101 -0.4063  0.4888  0.7201
  539MOL0    Cl72674   4.917   1.290   3.994  0.1780  0.4114 -0.0985
  539MOL0     C72675   4.175   1.445   3.826  0.8833  0.4339  0.0643
  539MOL0     C72676   4.108   1.427   3.704 -0.3721  0.4613  0.2986
  539MOL0     O72677   3.751   1.380   3.672 -0.1734  0.5147  0.2816
  539MOL0     C72678   3.791   1.211   3.365 -0.3647 -0.1613 -0.2609
  539MOL0     C72679   3.713   1.141   3.281 -0.3854 -0.2753  0.5284
  539MOL0     N72680   2.994   1.452   2.905  0.4106  0.3022 -0.2252
  539MOL0     N72681   2.865   1.451   2.900 -0.7430 -0.1975  0.4982
  539MOL0     C72682   2.201   0.632   2.589 -0.3594  0.0846  0.1589
  539MOL0     C72683   2.321   0.575   2.569  0.7616  1.7945 -0.1253
  539MOL0     C72684   2.650   0.261   2.685  0.3631 -0.1217 -0.5325
  539MOL0     C72685   2.763   0.342   2.640  0.1007  0.5970 -0.5221
  539MOL0     C72686   2.878   0.282   2.592 -0.3887 -0.2578  0.1862
  539MOL0     C72687   2.897   0.143   2.582  0.8947 -0.1576  0.1469
  539MOL0     O72688   3.004   0.075   2.532 -0.3452  0.2848 -0.3195
  539MOL0     C72689   3.121   0.144   2.494 -0.0076  0.0398  0.2049
  539MOL0     C72690   3.240   0.063   2.440 -0.2011  0.6032  1.0708
  539MOL0     C72691   3.364   0.049   2.525  0.1177 -0.3271  0.2151
  539MOL0     C72692   3.323  -0.024   2.658 -1.0351 -0.4896 -0.1730
  539MOL0     C72693   3.426  -0.019   2.763  0.0995 -0.1826  0.8765
  539MOL0     C72694   3.504  -0.009   2.855 -0.0806  0.9698  0.3499
  539MOL0     C72695   2.799   0.064   2.634 -0.1845  0.2522 -0.2642
  539MOL0     C72696   2.681   0.120   2.690 -0.1259  0.1643  0.3262
  539MOL0     C72697   2.593   0.035   2.774  0.4054  0.2497  0.2186
  539MOL0     H72698   2.404   0.518   2.899  1.1989 -0.1770 -1.2080
  539MOL0     H72699   2.199   0.649   2.928 -0.2469 -1.4345 -0.0580
  539MOL0     H72700   1.915   0.840   2.855 -0.5951 -1.7942  0.8877
  539MOL0     H72701   2.060   0.798   2.937 -0.8873  0.2575  0.1348
  539MOL0     H72702   2.004   1.041   2.823 -0.1621 -0.1299 -0.6650
  539MOL0     H72703   2.083   0.974   2.686  4.7952  1.2562  0.1576
  539MOL0     H72704   2.288   0.908   2.837 -0.9066 -0.7147 -2.4769
  539MOL0     H72705   2.212   1.000   2.962  0.6778 -0.0428  0.1893
  539MOL0     H72706   2.258   1.092   2.670 -0.6911  0.6159 -0.0159
  539MOL0     H72707   2.228   1.202   2.803  0.7041  1.7411 -2.3805
  539MOL0     H72708   2.439   1.143   2.910  1.3988 -2.0404  0.0035
  539MOL0     H72709   2.481   1.025   2.790 -1.7675 -1.2825  3.6695
  539MOL0     H72710   2.481   1.206   2.611  1.1891 -0.3110 -0.8415
  539MOL0     H72711   2.455   1.325   2.746  1.1183 -0.9234  1.0075
  539MOL0     H72712   2.680   1.321   2.674  0.4086 -0.0693  0.3280
  539MOL0     H72713   2.705   1.153   2.711 -0.9521 -0.9532  2.3068
  539MOL0     H72714   2.623   1.379   2.900 -0.3196  0.5121 -0.6845
  539MOL0     H72715   2.662   1.206   2.943  0.8334 -0.7538 -2.0652
  539MOL0     H72716   2.904   1.133   2.881 -0.9909 -0.0019  2.0590
  539MOL0     H72717   3.208   1.222   2.804 -1.6136  2.8332 -2.0078
  539MOL0     H72718   3.228   1.376   2.894 -0.8862  1.1236 -0.0951
  539MOL0     H72719   3.133   1.221   3.095  1.0912  2.6043 -0.3548
  539MOL0     H72720   3.163   1.087   2.993  0.3255 -0.5680  0.8721
  539MOL0     H72721   3.372   1.287   3.101  1.9946  1.6688 -2.5358
  539MOL0     H72722   3.416   1.181   2.981  0.9238 -0.5802  0.0019
  539MOL0     H72723   3.350   0.974   3.121 -0.4150  0.6468 -0.1163
  539MOL0     H72724   3.314   1.083   3.254 -0.8647 -0.9947 -0.0428
  539MOL0     H72725   3.411   1.234   3.405  0.4459  1.8652  0.7687
  539MOL0     H72726   3.552   1.347   3.563 -0.6971  2.7120 -1.5285
  539MOL0     H72727   3.888   1.173   3.803 -0.8569  0.4816 -1.6664
  539MOL0     H72728   4.009   1.213   4.018 -0.9720  0.8560 -0.9650
  539MOL0     H72729   4.068   1.358   4.190 -1.2895 -2.4778 -0.5057
  539MOL0     H72730   4.207   1.250   4.185  1.2622  0.6316  0.8860
  539MOL0     H72731   4.257   1.539   4.257 -0.1318 -0.0798  2.5754
  539MOL0     H72732   4.221   1.401   4.371 -2.3417 -1.0939 -0.4099
  539MOL0     H72733   4.413   1.275   4.312 -3.1236 -0.4031 -0.7330
  539MOL0     H72734   4.441   1.373   4.172 -0.6855  1.0833 -0.6334
  539MOL0     H72735   4.486   1.453   4.472  0.0539 -0.2035 -0.3019
  539MOL0     H72736   4.501   1.570   4.338 -6.0416 -0.8098  1.2015
  539MOL0     H72737   4.667   1.321   4.398  1.7729 -0.7277 -2.0291
  539MOL0     H72738   4.714   1.485   4.430  0.0905 -2.6707  1.3959
  539MOL0     H72739   4.672   1.332   4.163  2.2301 -1.3945 -0.6009
  539MOL0     H72740   4.678   1.507   4.167 -4.5817 -0.4843  0.5327
  539MOL0     H72741   4.907   1.308   4.273  1.2691 -0.6387 -2.5025
  539MOL0     H72742   4.892   1.485   4.302 -2.9795 -1.0254  1.7094
  539MOL0     H72743   4.899   1.524   4.054 -0.8775  1.0190  2.0989
  539MOL0     H72744   5.045   1.456   4.116 -0.4376  2.3790 -1.2515
  539MOL0     H72745   4.247   1.524   3.841 -2.8135  3.9771  0.8182
  539MOL0     H72746   4.128   1.489   3.618  0.3396 -1.7603 -1.2372
  539MOL0     H72747   3.898   1.195   3.354 -0.6259 -1.4584 -1.0893
  539MOL0     H72748   3.761   1.090   3.199 -2.5086 -2.9822  0.8240
  539MOL0     H72749   2.132   0.649   2.507 -1.2823 -1.3393  0.6183
  539MOL0     H72750   2.357   0.557   2.468  0.7244  3.8891 -0.5470
  539MOL0     H72751   2.767   0.450   2.632  2.3807  0.5173 -1.0818
  539MOL0     H72752   2.958   0.348   2.558  0.9549 -1.4542  0.9246
  539MOL0     H72753   3.156   0.209   2.575  0.4839  1.4758 -1.0934
  539MOL0     H72754   3.098   0.228   2.428  2.6014  0.5571 -0.1610
  539MOL0     H72755   3.275   0.116   2.351  2.1457  0.6043  1.9277
  539MOL0     H72756   3.204  -0.031   2.397 -0.4537  0.7574  0.9363
  539MOL0     H72757   3.409   0.147   2.541  4.6299 -2.5510  3.0637
  539MOL0     H72758   3.437  -0.012   2.472 -0.0445  2.7832 -4.1338
  539MOL0     H72759   3.241   0.035   2.700 -0.9833 -1.2887  1.1093
  539MOL0     H72760   3.273  -0.119   2.636 -2.8077  0.5819 -1.0019
  539MOL0     H72761   3.582  -0.014   2.929  1.1020 -1.5903 -0.9269
  539MOL0     H72762   2.820  -0.042   2.642 -1.2887  0.0519  0.0937
  539MOL0     H72763   2.556   0.087   2.862  0.2041 -2.7937  2.1033
  539MOL0     H72764   2.498   0.007   2.728 -1.1667  0.1716  3.2327
  539MOL0     H72765   2.642  -0.055   2.814 -0.4472 -0.2261  0.2103
  540MOL0     O72766   0.637   0.983   0.639  0.4241 -0.6130  0.2040
  540MOL0     C72767   0.538   1.031   0.582 -0.3807 -0.3646 -0.3482
  540MOL0     O72768   0.552   1.108   0.474  0.4422 -0.7394 -0.1822
  540MOL0     C72769   0.667   1.167   0.424 -0.6776 -0.3702  0.1884
  540MOL0     C72770   0.646   1.278   0.337 -0.2589  0.5615  0.8875
  540MOL0     C72771   0.755   1.336   0.273 -0.6008  0.9631 -0.7296
  540MOL0     C72772   0.895   1.291   0.289 -0.0746  0.3298 -0.2248
  540MOL0     O72773   1.002   1.352   0.219  0.2116  0.3546 -0.5951
  540MOL0     C72774   1.017   1.492   0.240  1.5525  0.1456  0.4704
  540MOL0     C72775   1.131   1.535   0.337 -0.1739  0.2875  0.4700
  540MOL0     C72776   1.274   1.473   0.313  0.1501 -0.1062 -0.3438
  540MOL0     C72777   1.320   1.456   0.172 -0.5481  0.1825  1.3332
  540MOL0     C72778   1.463   1.416   0.180  0.2643  0.6793  0.6152
  540MOL0     C72779   1.520   1.369   0.043 -0.4895 -0.3991 -0.6760
  540MOL0     C72780   1.669   1.353   0.038  0.6949  0.1035  0.1367
  540MOL0     C72781   1.728   1.220   0.094 -0.1408  0.4885  0.1868
  540MOL0     N72782   1.866   1.217   0.059 -0.5831  0.0984  0.2262
  540MOL0     C72783   1.939   1.109   0.084 -0.1754 -0.5515  0.3590
  540MOL0     C72784   2.065   1.152   0.048  0.5820  0.0969 -0.9946
  540MOL0     C72785   2.176   1.046   0.042  0.3383 -0.3457  0.2195
  540MOL0     C72786   2.252   1.057  -0.092  0.1734 -0.2162 -0.6418
  540MOL0     C72787   2.175   1.064  -0.223 -0.0370  0.0929  0.3932
  540MOL0     C72788   2.243   1.153  -0.327 -0.7233 -0.2022 -0.2238
  540MOL0     O72789   2.382   1.119  -0.361 -0.7409  0.5084 -0.0341
  540MOL0     C72790   2.454   1.218  -0.427  0.0411 -0.2987  0.0992
  540MOL0     C72791   2.396   1.314  -0.508 -0.1929  0.7744 -0.0646
  540MOL0     C72792   2.480   1.400  -0.577 -0.5465  0.4791  0.3395
  540MOL0     C72793   2.622   1.403  -0.560 -0.2636  0.0723 -0.3732
  540MOL0     C72794   2.710   1.489  -0.641  0.8005 -0.6013 -1.0692
  540MOL0     O72795   2.660   1.608  -0.672  0.1923 -0.2773  0.3431
  540MOL0     C72796   2.739   1.689  -0.744  0.1745 -0.0434  0.5727
  540MOL0     C72797   2.869   1.729  -0.699  0.2212  0.3271 -0.1843
  540MOL0     C72798   2.952   1.815  -0.771  0.4588  0.8339 -0.5029
  540MOL0     C72799   2.915   1.856  -0.900 -0.8994 -0.4172  0.9508
  540MOL0     O72800   3.005   1.938  -0.973  0.0165  0.3825 -0.0374
  540MOL0     C72801   3.025   1.912  -1.111 -0.8783 -0.5260 -0.0074
  540MOL0     C72802   3.148   2.005  -1.153  0.2437  0.2056  0.4298
  540MOL0     C72803   3.284   1.954  -1.091  0.0501 -0.6450  0.2486
  540MOL0     C72804   3.383   2.063  -1.085  0.1660  0.7615  0.0878
  540MOL0     C72805   3.510   2.010  -1.030 -1.1749  0.3495 -0.5468
  540MOL0     C72806   3.606   2.127  -0.990 -0.5781 -0.4143  0.6074
  540MOL0     C72807   3.634   2.230  -1.100  0.1055 -1.4501 -0.7557
  540MOL0     C72808   3.737   2.325  -1.043 -0.3043  0.4573  1.0839
  540MOL0    Cl72809   3.716   2.461  -1.154  0.1351  0.0728  0.0167
  540MOL0     C72810   2.797   1.813  -0.953  0.0591  0.5971 -0.0944
  540MOL0     C72811   2.707   1.730  -0.874 -0.4231 -0.2146 -0.2283
  540MOL0     O72812   2.825   1.453  -0.661  0.1502 -0.4170  0.9249
  540MOL0     C72813   2.673   1.301  -0.476  0.4720  0.6349  0.1238
  540MOL0     C72814   2.593   1.213  -0.411  0.2723  0.7622  0.5131
  540MOL0     N72815   2.062   1.283  -0.002  0.0344  0.5525  0.4139
  540MOL0     N72816   1.939   1.313  -0.001 -0.0786 -0.0073  0.3072
  540MOL0     C72817   0.908   1.174   0.369 -1.1702 -0.3381  0.1438
  540MOL0     C72818   0.798   1.106   0.428  0.0161 -0.6277 -0.1127
  540MOL0     C72819   0.408   1.016   0.649  0.5850 -0.5644 -0.6970
  540MOL0     C72820   0.381   0.901   0.729  0.2779 -0.3310  0.7635
  540MOL0     C72821   0.269   0.889   0.804 -0.0703 -0.2240 -0.2974
  540MOL0     C72822   0.165   0.988   0.806 -0.8230  0.3139  0.1519
  540MOL0     O72823   0.058   0.975   0.889  0.5502  0.1718 -0.1975
  540MOL0     C72824  -0.063   1.043   0.856 -0.6439 -0.6778 -0.5834
  540MOL0     C72825  -0.154   0.972   0.963 -0.7482  0.2464  0.4386
  540MOL0     C72826  -0.287   1.045   0.968  0.9506  0.4306  0.1283
  540MOL0     C72827  -0.382   0.983   1.065  0.1598 -0.7164 -1.1895
  540MOL0     C72828  -0.488   1.075   1.091  0.2662 -0.0701 -0.5316
  540MOL0     C72829  -0.581   1.148   1.123 -1.4065 -0.0342 -0.1178
  540MOL0     C72830   0.183   1.096   0.719 -0.1783 -0.3630 -0.0473
  540MOL0     C72831   0.304   1.111   0.638  0.0572 -0.6077 -0.5977
  540MOL0     C72832   0.311   1.227   0.535 -0.3401 -0.7913 -0.1438
  540MOL0     H72833   0.547   1.321   0.324 -0.4537 -0.2824 -0.6407
  540MOL0     H72834   0.736   1.417   0.203 -1.9800  0.2506 -1.2286
  540MOL0     H72835   1.036   1.536   0.142  0.2088  0.4062  0.3040
  540MOL0     H72836   0.922   1.531   0.277  1.1314 -0.8505  0.4557
  540MOL0     H72837   1.100   1.494   0.433 -2.7095  1.0108  0.0278
  540MOL0     H72838   1.154   1.640   0.359  0.8553 -0.3418  2.6932
  540MOL0     H72839   1.281   1.378   0.366  1.5250 -1.2460 -2.4460
  540MOL0     H72840   1.347   1.537   0.364 -1.2743  1.0811  0.3035
  540MOL0     H72841   1.269   1.370   0.130  1.9183 -0.6804 -0.0961
  540MOL0     H72842   1.299   1.540   0.106  0.6378 -3.0310 -3.6566
  540MOL0     H72843   1.516   1.495   0.233 -0.4583  0.6863  1.3511
  540MOL0     H72844   1.453   1.338   0.256 -3.1174  1.4245  1.1059
  540MOL0     H72845   1.472   1.276   0.010  0.4521 -2.3702  3.0141
  540MOL0     H72846   1.491   1.443  -0.032 -0.4197 -1.2087 -1.5159
  540MOL0     H72847   1.716   1.430   0.099 -0.4363  1.7243 -0.9637
  540MOL0     H72848   1.692   1.370  -0.068 -2.0446  0.8956 -0.4187
  540MOL0     H72849   1.717   1.233   0.202  0.2860  1.7328  0.1013
  540MOL0     H72850   1.671   1.128   0.077 -0.8163  0.0968  3.8009
  540MOL0     H72851   1.903   1.011   0.115 -0.3418 -0.2594  1.0858
  540MOL0     H72852   2.243   1.053   0.128  0.5001 -0.0680  0.0705
  540MOL0     H72853   2.121   0.952   0.058  1.1492 -0.7886  0.4575
  540MOL0     H72854   2.301   1.153  -0.073  1.7237 -1.2174  0.7496
  540MOL0     H72855   2.334   0.985  -0.104 -0.5816 -0.7960 -2.8156
  540MOL0     H72856   2.073   1.100  -0.211  0.7462  2.0446  1.7097
  540MOL0     H72857   2.166   0.964  -0.266 -3.0335 -0.0130  1.0767
  540MOL0     H72858   2.242   1.254  -0.283  0.3678  0.8467 -2.4502
  540MOL0     H72859   2.186   1.150  -0.420  0.2520 -2.0752 -0.8173
  540MOL0     H72860   2.288   1.329  -0.513 -0.4611 -1.2643 -2.0898
  540MOL0     H72861   2.437   1.474  -0.643  2.0401  1.2713 -0.5803
  540MOL0     H72862   2.906   1.693  -0.603  2.8092 -0.6866 -1.4518
  540MOL0     H72863   3.039   1.860  -0.725  0.2708  0.5339  0.1653
  540MOL0     H72864   3.058   1.810  -1.134  2.4772 -0.1673  2.4339
  540MOL0     H72865   2.936   1.927  -1.173 -1.6717 -0.5855  1.0982
  540MOL0     H72866   3.159   2.001  -1.261 -2.4033  3.5314 -0.0828
  540MOL0     H72867   3.134   2.109  -1.123  1.5825  0.3733  0.5437
  540MOL0     H72868   3.254   1.933  -0.988 -1.9987  1.7636  0.2463
  540MOL0     H72869   3.327   1.867  -1.141 -0.1154 -1.7304  1.9249
  540MOL0     H72870   3.344   2.139  -1.016  1.4197  0.7379  0.8363
  540MOL0     H72871   3.402   2.112  -1.182 -0.2698  3.3857  1.2309
  540MOL0     H72872   3.551   1.940  -1.103  1.9715  0.3321  1.0691
  540MOL0     H72873   3.486   1.960  -0.936 -0.9846  1.8170  0.3138
  540MOL0     H72874   3.581   2.173  -0.894  0.1448  2.4217 -0.4763
  540MOL0     H72875   3.700   2.078  -0.962 -0.3513  0.2266  0.9890
  540MOL0     H72876   3.543   2.286  -1.124 -0.0879 -0.5339  1.8099
  540MOL0     H72877   3.673   2.188  -1.193 -1.1281 -0.7493 -1.6250
  540MOL0     H72878   3.713   2.351  -0.940  5.1353  2.7378  2.1225
  540MOL0     H72879   3.836   2.279  -1.048 -0.5050 -0.3972  3.5171
  540MOL0     H72880   2.765   1.842  -1.053  0.7071 -0.2806 -0.5750
  540MOL0     H72881   2.612   1.696  -0.914 -0.8759  0.0507  0.6020
  540MOL0     H72882   2.779   1.279  -0.467  0.5339 -1.2556 -3.2321
  540MOL0     H72883   2.645   1.141  -0.349  0.1868 -1.7903 -2.1595
  540MOL0     H72884   1.008   1.131   0.372 -1.3479 -0.7427  0.3200
  540MOL0     H72885   0.817   1.015   0.484 -0.8267 -2.7897 -3.0281
  540MOL0     H72886   0.444   0.813   0.725  0.2997 -0.2597 -0.7827
  540MOL0     H72887   0.247   0.802   0.866  0.5672 -1.5395 -1.8747
  540MOL0     H72888  -0.102   1.035   0.754  1.1790  3.2970 -1.7926
  540MOL0     H72889  -0.066   1.151   0.874  1.0311 -0.6447 -0.3490
  540MOL0     H72890  -0.108   0.974   1.062 -1.6676 -1.9407  0.9763
  540MOL0     H72891  -0.151   0.866   0.935  1.1039  0.0505  1.1959
  540MOL0     H72892  -0.324   1.051   0.865  1.6364 -0.8863 -0.2145
  540MOL0     H72893  -0.267   1.148   0.999 -1.5164  0.5043  1.7387
  540MOL0     H72894  -0.421   0.888   1.026 -0.6110 -0.0665 -2.0376
  540MOL0     H72895  -0.324   0.964   1.156  1.2075  4.2956 -0.5643
  540MOL0     H72896  -0.646   1.229   1.152  0.6132  0.9003  2.1296
  540MOL0     H72897   0.095   1.160   0.713  0.2755  0.3659  0.7400
  540MOL0     H72898   0.392   1.299   0.552  0.6777 -2.2439  1.5940
  540MOL0     H72899   0.305   1.198   0.430 -1.1274 -0.1282 -0.2923
  540MOL0     H72900   0.219   1.285   0.552 -0.2305 -0.9220  0.9746
  541MOL0     O72901   8.376   8.862   0.663  0.1827 -0.4710  0.6910
  541MOL0     C72902   8.373   8.948   0.576  0.7813 -0.2557 -0.5971
  541MOL0     O72903   8.473   9.038   0.546  0.2415 -0.3841 -0.3592
  541MOL0     C72904   8.586   9.031   0.620  0.2693 -0.8423 -0.4481
  541MOL0     C72905   8.684   8.946   0.588  0.6051 -0.8715  0.7021
  541MOL0     C72906   8.809   8.947   0.651  0.0107 -0.3900  0.3333
  541MOL0     C72907   8.833   9.037   0.760 -0.4340 -0.5394  0.8818
  541MOL0     O72908   8.951   9.058   0.828  0.0801  0.2001 -0.7737
  541MOL0     C72909   9.065   9.001   0.777 -0.3999  0.7574  0.6274
  541MOL0     C72910   9.183   9.074   0.840  1.3254  0.6475  0.1341
  541MOL0     C72911   9.315   8.992   0.805  0.9547 -0.2619  0.2233
  541MOL0     C72912   9.431   9.037   0.886 -0.2602  1.3920  0.0956
  541MOL0     C72913   9.488   9.171   0.847  0.7695 -0.0861 -0.2102
  541MOL0     C72914   9.565   9.165   0.707  0.7648  0.5407  0.5757
  541MOL0     C72915   9.634   9.290   0.655 -1.3386  0.2792  0.3599
  541MOL0     C72916   9.536   9.403   0.628 -0.3384  0.5013  0.1305
  541MOL0     N72917   9.598   9.492   0.523  0.2834 -0.5256  0.1355
  541MOL0     C72918   9.697   9.585   0.550  0.8811  0.7170  0.1824
  541MOL0     C72919   9.710   9.668   0.451  0.5619 -1.0649  0.3420
  541MOL0     C72920   9.818   9.779   0.432 -0.4340 -0.4717  0.3352
  541MOL0     C72921   9.960   9.723   0.420  0.4770 -0.4040  0.5869
  541MOL0     C72922   9.969   9.649   0.288  0.1971  0.0574 -0.4804
  541MOL0     C72923  10.099   9.572   0.277  0.2065  0.3035  0.9902
  541MOL0     O72924  10.195   9.617   0.172  0.7976  0.3172  0.3350
  541MOL0     C72925  10.325   9.565   0.167  0.0343  0.0986 -0.7511
  541MOL0     C72926  10.352   9.432   0.183 -0.8460  0.1093 -0.6291
  541MOL0     C72927  10.482   9.375   0.186 -0.0285  0.4858  0.1973
  541MOL0     C72928  10.590   9.463   0.149 -0.4331 -0.6210 -0.0113
  541MOL0     C72929  10.732   9.423   0.153  0.3262 -0.6457 -0.0563
  541MOL0     O72930  10.813   9.505   0.079  0.1109 -0.6014 -0.9362
  541MOL0     C72931  10.944   9.474   0.082 -0.8725  0.0949  0.0610
  541MOL0     C72932  11.031   9.547   0.172  0.0712  0.3257 -0.3861
  541MOL0     C72933  11.153   9.494   0.203 -0.3774 -0.1226  0.3087
  541MOL0     C72934  11.199   9.383   0.135 -0.3876 -0.1145 -0.7397
  541MOL0     O72935  11.329   9.334   0.159 -0.3172 -0.6612  0.3123
  541MOL0     C72936  11.437   9.393   0.081 -0.4612 -1.0927 -0.5834
  541MOL0     C72937  11.564   9.361   0.156 -0.5036 -0.9917 -0.7900
  541MOL0     C72938  11.687   9.438   0.098  0.6589 -0.2764  0.7183
  541MOL0     C72939  11.814   9.398   0.174 -0.1112  0.0078  0.5031
  541MOL0     C72940  11.936   9.475   0.123 -1.0792 -0.2534  0.1825
  541MOL0     C72941  12.067   9.451   0.199  0.2897  0.2977  0.1832
  541MOL0     C72942  12.143   9.329   0.153 -0.5228 -0.2042 -0.6377
  541MOL0     C72943  12.217   9.261   0.261 -0.5854  0.0837  0.7143
  541MOL0    Cl72944  12.115   9.200   0.390  0.1555  0.5197  0.4881
  541MOL0     C72945  11.122   9.318   0.038  0.2007  0.5260  0.2143
  541MOL0     C72946  10.994   9.368   0.011  0.4999  0.3020 -0.3106
  541MOL0     O72947  10.766   9.324   0.219  0.2953 -0.2467 -0.7540
  541MOL0     C72948  10.561   9.608   0.124  0.2197  0.1621 -0.6492
  541MOL0     C72949  10.427   9.654   0.142 -1.1619 -0.8676 -0.0025
  541MOL0     N72950   9.618   9.619   0.352 -0.4732 -0.4362 -0.0225
  541MOL0     N72951   9.548   9.527   0.403  0.1654 -0.0985 -0.2834
  541MOL0     C72952   8.730   9.127   0.796  0.6867  1.6173 -0.5107
  541MOL0     C72953   8.602   9.125   0.723  0.2856 -0.3871 -0.0449
  541MOL0     C72954   8.259   8.948   0.471  0.4844  0.7781 -0.6249
  541MOL0     C72955   8.245   9.061   0.390  0.3143  1.2855 -0.0979
  541MOL0     C72956   8.145   9.072   0.301  0.1490  0.3858  0.8960
  541MOL0     C72957   8.047   8.973   0.283 -1.0151  0.0937 -0.5713
  541MOL0     O72958   7.963   8.987   0.172 -0.2750 -0.4373 -0.0920
  541MOL0     C72959   7.939   8.862   0.109 -0.6469 -0.5331  0.4528
  541MOL0     C72960   7.914   8.899  -0.045 -0.3710  0.9997  0.0597
  541MOL0     C72961   7.779   8.963  -0.051  0.6591 -0.2698  1.3894
  541MOL0     C72962   7.721   8.973  -0.193 -0.2014 -0.1526  0.4153
  541MOL0     C72963   7.640   9.090  -0.204  0.7357 -0.1117 -0.8448
  541MOL0     C72964   7.597   9.205  -0.223  1.2571 -0.4640  0.2743
  541MOL0     C72965   8.055   8.859   0.371 -0.1765  0.1580 -0.2526
  541MOL0     C72966   8.161   8.840   0.460  0.2657 -0.5193 -0.3035
  541MOL0     C72967   8.159   8.711   0.542 -0.8629  0.0093  0.7385
  541MOL0     H72968   8.674   8.888   0.497 -0.4693  1.7136 -0.9408
  541MOL0     H72969   8.885   8.874   0.628  0.2407  0.1494 -0.6981
  541MOL0     H72970   9.074   8.899   0.816  1.4980  2.0246  3.9378
  541MOL0     H72971   9.076   8.990   0.669  3.2098 -2.0079  1.0914
  541MOL0     H72972   9.173   9.090   0.948 -0.4866  2.1686 -0.1938
  541MOL0     H72973   9.186   9.180   0.811  1.8548  1.3393  2.4729
  541MOL0     H72974   9.335   9.006   0.698  0.0586  2.5397  0.3415
  541MOL0     H72975   9.294   8.886   0.820  0.5438 -0.1597  0.3747
  541MOL0     H72976   9.392   9.039   0.989 -0.3569 -0.1639  0.1073
  541MOL0     H72977   9.509   8.961   0.875 -2.2502 -0.4143 -2.7869
  541MOL0     H72978   9.411   9.248   0.847  0.9310  0.0861  0.8056
  541MOL0     H72979   9.569   9.201   0.914  1.8990 -1.7569 -0.7389
  541MOL0     H72980   9.643   9.090   0.717  1.7950  1.5184  0.1520
  541MOL0     H72981   9.499   9.126   0.629  1.0053  0.7517  0.2660
  541MOL0     H72982   9.680   9.253   0.564 -2.0353  0.1243  0.0660
  541MOL0     H72983   9.705   9.320   0.733 -0.8996  0.9716 -0.2940
  541MOL0     H72984   9.459   9.351   0.571  2.0298 -1.2380 -1.7285
  541MOL0     H72985   9.511   9.450   0.723  0.8645  2.5696 -0.4907
  541MOL0     H72986   9.745   9.590   0.647 -2.0218  1.6052  1.6869
  541MOL0     H72987   9.794   9.838   0.344  1.3328 -1.1254 -0.6422
  541MOL0     H72988   9.810   9.853   0.512  1.8425 -0.5081  0.6507
  541MOL0     H72989  10.031   9.806   0.412  0.7771 -0.6185  0.9921
  541MOL0     H72990   9.988   9.665   0.508 -2.0027  1.1595  2.5152
  541MOL0     H72991   9.963   9.727   0.212 -2.5882  0.8198  0.3909
  541MOL0     H72992   9.898   9.565   0.279  1.0369 -0.7737  0.4399
  541MOL0     H72993  10.072   9.470   0.251 -0.5467  0.7464 -0.0304
  541MOL0     H72994  10.161   9.569   0.367 -0.9686  0.9877  1.8668
  541MOL0     H72995  10.265   9.368   0.191 -0.9121 -0.3085 -3.4587
  541MOL0     H72996  10.510   9.275   0.218  0.6623 -0.1812 -2.2976
  541MOL0     H72997  10.992   9.630   0.229 -1.6170 -2.4671  2.8829
  541MOL0     H72998  11.216   9.529   0.284 -2.0627 -1.5326  2.3182
  541MOL0     H72999  11.444   9.351  -0.020  1.8761 -0.5766 -0.6988
  541MOL0     H73000  11.422   9.500   0.067  2.8717 -0.1213  2.0624
  541MOL0     H73001  11.540   9.390   0.259 -1.5964 -3.4178 -0.2842
  541MOL0     H73002  11.587   9.255   0.156  0.8945 -0.7284  1.1372
  541MOL0     H73003  11.702   9.413  -0.007  0.2633 -0.2105  0.6455
  541MOL0     H73004  11.664   9.544   0.107 -0.4194 -0.5301  1.2339
  541MOL0     H73005  11.824   9.290   0.162 -2.5418 -0.0257 -2.3059
  541MOL0     H73006  11.808   9.414   0.282  1.7204  1.4446  0.4498
  541MOL0     H73007  11.919   9.583   0.123 -1.2561 -0.2631  1.7252
  541MOL0     H73008  11.940   9.458   0.015  1.9469  0.3544  0.0966
  541MOL0     H73009  12.127   9.540   0.178  2.0626 -0.9660 -0.4068
  541MOL0     H73010  12.055   9.454   0.307  0.9019 -0.4450  0.2741
  541MOL0     H73011  12.216   9.349   0.075 -1.2950 -1.6043 -1.7648
  541MOL0     H73012  12.072   9.263   0.102 -1.8560  1.2296 -0.7185
  541MOL0     H73013  12.272   9.177   0.219 -1.0418 -0.7642  1.7722
  541MOL0     H73014  12.284   9.335   0.305 -0.5737  0.5390 -0.0492
  541MOL0     H73015  11.156   9.223  -0.003  3.6574  1.2453  1.0504
  541MOL0     H73016  10.937   9.318  -0.066  1.0900 -0.7742 -0.0570
  541MOL0     H73017  10.643   9.677   0.110  0.9914 -0.2503  1.4705
  541MOL0     H73018  10.410   9.758   0.114 -0.8015 -0.6277  0.6585
  541MOL0     H73019   8.753   9.197   0.875  0.7879 -0.0955  1.0320
  541MOL0     H73020   8.519   9.186   0.757  0.2063 -0.7670  0.4590
  541MOL0     H73021   8.322   9.138   0.398 -1.3629  3.2349 -1.6778
  541MOL0     H73022   8.155   9.160   0.239  1.5552 -0.1339  0.3414
  541MOL0     H73023   7.842   8.824   0.144 -2.1790  0.4894 -2.3342
  541MOL0     H73024   8.023   8.793   0.115 -0.4925 -0.3912 -0.0289
  541MOL0     H73025   7.919   8.810  -0.108 -0.9366  1.6594 -0.9453
  541MOL0     H73026   7.986   8.970  -0.087  0.5270 -0.8876 -1.7869
  541MOL0     H73027   7.785   9.065  -0.012  1.2360  1.1245 -1.9853
  541MOL0     H73028   7.708   8.910   0.013  0.1496 -2.7218 -1.0203
  541MOL0     H73029   7.804   8.982  -0.263  0.8307  0.1439  1.6319
  541MOL0     H73030   7.658   8.885  -0.207  0.6378 -0.6910 -0.0942
  541MOL0     H73031   7.557   9.304  -0.227  0.4284 -0.8365 -1.2653
  541MOL0     H73032   7.976   8.785   0.362 -0.6469  0.2468  2.3191
  541MOL0     H73033   8.126   8.736   0.643  1.0858  0.7714  1.2449
  541MOL0     H73034   8.096   8.635   0.495 -0.2669 -1.8547  2.7539
  541MOL0     H73035   8.260   8.670   0.547 -0.5792  0.6126  0.1614
  542MOL0     O73036   0.914   0.523   9.051 -0.3615  0.1688 -0.6836
  542MOL0     C73037   0.814   0.541   8.987 -0.2920  0.0579  0.6659
  542MOL0     O73038   0.818   0.604   8.858  0.0950  0.2890  0.1403
  542MOL0     C73039   0.932   0.669   8.823 -0.7727  0.0118  0.3545
  542MOL0     C73040   0.988   0.781   8.903  0.6249  0.5093 -0.1499
  542MOL0     C73041   1.102   0.843   8.869 -0.2096  0.1361  0.2246
  542MOL0     C73042   1.168   0.801   8.752 -0.3040 -0.4902  1.3578
  542MOL0     O73043   1.287   0.845   8.694 -0.1566  0.1688  0.4838
  542MOL0     C73044   1.368   0.935   8.775  0.4952  0.5270 -0.2551
  542MOL0     C73045   1.521   0.920   8.750  0.3898  0.1428  0.4305
  542MOL0     C73046   1.589   1.048   8.802 -0.0279 -0.3509 -0.1108
  542MOL0     C73047   1.744   1.040   8.798  0.6758  0.4059  0.7434
  542MOL0     C73048   1.797   1.004   8.655  0.1011  0.8586  1.2376
  542MOL0     C73049   1.945   1.015   8.646  0.2022  0.0136  0.3152
  542MOL0     C73050   1.976   1.027   8.496  1.0847  0.7390 -0.8833
  542MOL0     C73051   2.006   1.168   8.450  0.1487  0.1611  0.3779
  542MOL0     N73052   1.915   1.277   8.496 -0.4317  0.4298 -0.3592
  542MOL0     C73053   1.790   1.302   8.451 -0.1525  0.4992  0.2924
  542MOL0     C73054   1.738   1.395   8.536 -0.1670  0.5358 -0.5070
  542MOL0     C73055   1.604   1.455   8.532 -0.7653  0.0592 -0.9075
  542MOL0     C73056   1.513   1.336   8.489  0.7562  0.0294  0.0716
  542MOL0     C73057   1.362   1.371   8.507 -0.8089  0.4235 -0.9493
  542MOL0     C73058   1.270   1.247   8.492 -0.8913  0.2288  0.6779
  542MOL0     O73059   1.138   1.305   8.492 -0.0452  0.6402  0.8752
  542MOL0     C73060   1.031   1.229   8.530 -0.5189 -0.5510 -0.9738
  542MOL0     C73061   1.043   1.095   8.582  0.4563 -0.4759  0.6703
  542MOL0     C73062   0.929   1.019   8.632 -0.2522  0.5541  0.8831
  542MOL0     C73063   0.796   1.073   8.626  0.0258  0.6198  0.4379
  542MOL0     C73064   0.674   0.997   8.669  0.0590  0.2583  1.1954
  542MOL0     O73065   0.569   1.067   8.711 -0.3970 -0.7512  0.4809
  542MOL0     C73066   0.470   0.997   8.777 -0.3605  0.0308 -0.2441
  542MOL0     C73067   0.490   0.978   8.916  0.2041  0.7033  0.4447
  542MOL0     C73068   0.400   0.891   8.983  0.7587 -0.8768 -0.2964
  542MOL0     C73069   0.284   0.841   8.912  0.4368 -0.5407 -0.0292
  542MOL0     O73070   0.202   0.756   8.990 -0.0220  0.2777 -0.3584
  542MOL0     C73071   0.130   0.657   8.924  0.6323  0.5124 -0.4190
  542MOL0     C73072   0.047   0.569   9.015  0.0178 -0.1405 -0.4611
  542MOL0     C73073  -0.001   0.443   8.941 -0.3731 -0.3369  0.0379
  542MOL0     C73074  -0.079   0.345   9.031  0.0293  0.5880  0.6202
  542MOL0     C73075  -0.171   0.261   8.949  0.5992  0.5974  0.5201
  542MOL0     C73076  -0.096   0.159   8.860 -0.6686  0.6927  0.2825
  542MOL0     C73077  -0.200   0.068   8.790 -0.3815  0.0890  0.0207
  542MOL0     C73078  -0.132  -0.034   8.699  0.1499  0.1184  0.6711
  542MOL0    Cl73079  -0.262  -0.113   8.611  0.5274 -0.2133  0.1121
  542MOL0     C73080   0.277   0.855   8.770  0.0537  0.6728  0.6466
  542MOL0     C73081   0.373   0.935   8.702 -0.4430  0.5417  0.2028
  542MOL0     O73082   0.690   0.874   8.681 -0.1679 -0.3401 -0.1736
  542MOL0     C73083   0.790   1.208   8.570 -0.9467  0.4459  0.0561
  542MOL0     C73084   0.900   1.281   8.522 -0.9122  0.3068 -0.0373
  542MOL0     N73085   1.839   1.427   8.625  0.3149  0.1149 -0.9196
  542MOL0     N73086   1.944   1.367   8.592 -0.0967 -0.4100 -0.8193
  542MOL0     C73087   1.110   0.704   8.673 -0.6163 -0.4594  0.3698
  542MOL0     C73088   0.990   0.630   8.700 -0.6368 -0.1488  0.0526
  542MOL0     C73089   0.686   0.486   9.047  0.2899  0.0396 -0.1576
  542MOL0     C73090   0.687   0.415   9.168 -0.7320 -0.2852 -0.4476
  542MOL0     C73091   0.577   0.377   9.240  0.2978  0.2051  0.5897
  542MOL0     C73092   0.454   0.394   9.177  0.3252  0.3262 -0.2924
  542MOL0     O73093   0.331   0.360   9.235 -0.0244 -0.7791 -0.3292
  542MOL0     C73094   0.326   0.318   9.372 -0.0663 -0.1967 -0.0808
  542MOL0     C73095   0.190   0.264   9.412  0.4480 -0.7277 -0.0186
  542MOL0     C73096   0.174   0.124   9.358  0.1404  1.1009  0.3532
  542MOL0     C73097   0.033   0.065   9.382 -0.0612  0.4711 -0.0998
  542MOL0     C73098   0.033  -0.067   9.317  0.2302  0.3516  0.0452
  542MOL0     C73099   0.023  -0.178   9.260  0.2461  0.3898 -0.5274
  542MOL0     C73100   0.453   0.450   9.051  0.2392 -0.1236  1.0270
  542MOL0     C73101   0.567   0.501   8.985 -0.9864 -0.1971 -0.8762
  542MOL0     C73102   0.552   0.582   8.855 -0.3275  0.2895 -0.9990
  542MOL0     H73103   0.940   0.814   8.995 -0.3323 -0.6084 -0.2228
  542MOL0     H73104   1.146   0.926   8.921  0.0379 -0.2775  0.6858
  542MOL0     H73105   1.343   1.040   8.755 -2.7913  0.5322  2.9797
  542MOL0     H73106   1.351   0.908   8.879  0.3131  0.5669 -0.2748
  542MOL0     H73107   1.535   0.927   8.642 -1.1595  0.1362  0.1974
  542MOL0     H73108   1.554   0.824   8.789 -1.4121 -0.6495  0.1025
  542MOL0     H73109   1.557   1.075   8.903 -0.8305  0.4294 -0.5598
  542MOL0     H73110   1.547   1.134   8.748  1.4280  1.1804  1.0801
  542MOL0     H73111   1.775   1.142   8.821 -0.3203  0.5017  1.7518
  542MOL0     H73112   1.776   0.967   8.872 -1.8954 -1.3466  0.2697
  542MOL0     H73113   1.771   0.900   8.634  1.1542  0.2870  2.6472
  542MOL0     H73114   1.759   1.078   8.584  0.7498  0.0143 -0.0260
  542MOL0     H73115   1.972   1.112   8.690  0.2782  0.2746 -0.2943
  542MOL0     H73116   1.999   0.933   8.694  1.8651 -2.3433 -4.8927
  542MOL0     H73117   1.898   0.987   8.430  1.8280 -2.0449 -0.2285
  542MOL0     H73118   2.064   0.964   8.479 -0.7337 -2.5873  0.9988
  542MOL0     H73119   2.108   1.188   8.487 -0.4602  1.9757  1.1933
  542MOL0     H73120   2.013   1.165   8.341 -2.6393 -3.3935  0.1326
  542MOL0     H73121   1.733   1.248   8.375  1.2904 -0.9603  0.1812
  542MOL0     H73122   1.578   1.493   8.631  0.3277  0.1532 -0.6496
  542MOL0     H73123   1.595   1.536   8.460  4.7763  1.5973 -0.3099
  542MOL0     H73124   1.534   1.331   8.382  2.3309  4.1160  0.0138
  542MOL0     H73125   1.540   1.235   8.521 -0.6891 -0.6616 -0.8055
  542MOL0     H73126   1.349   1.448   8.431  1.2421  1.5804 -0.1957
  542MOL0     H73127   1.343   1.417   8.604  0.9143  0.4872 -0.6119
  542MOL0     H73128   1.298   1.172   8.567  1.5384  2.2901  1.9651
  542MOL0     H73129   1.283   1.199   8.394 -0.0102  0.9455  0.4409
  542MOL0     H73130   1.142   1.050   8.589  1.6987  2.2844  2.7637
  542MOL0     H73131   0.937   0.916   8.665  1.3658 -1.4708 -4.6837
  542MOL0     H73132   0.574   1.020   8.969 -0.8486  1.9078  1.2122
  542MOL0     H73133   0.415   0.868   9.088 -0.1386  0.5094  0.1664
  542MOL0     H73134   0.060   0.705   8.855  0.4239 -0.5510 -0.9847
  542MOL0     H73135   0.194   0.589   8.866  1.1267  0.8668 -0.2988
  542MOL0     H73136   0.107   0.530   9.098 -0.6966 -2.6796 -1.0362
  542MOL0     H73137  -0.039   0.616   9.062  0.0290 -1.6426  1.1640
  542MOL0     H73138  -0.064   0.482   8.861  3.4964 -0.8278 -3.5939
  542MOL0     H73139   0.079   0.387   8.891  2.7168  1.2903  2.7209
  542MOL0     H73140  -0.139   0.401   9.103 -0.6472 -1.6322  1.8778
  542MOL0     H73141  -0.007   0.282   9.084 -2.0656 -1.0637  1.6692
  542MOL0     H73142  -0.243   0.315   8.888  2.7261  2.5126 -0.4257
  542MOL0     H73143  -0.227   0.202   9.022 -0.2848  1.7705  0.8073
  542MOL0     H73144  -0.030   0.206   8.786 -1.3238  1.9794  0.4932
  542MOL0     H73145  -0.034   0.095   8.924 -0.0331 -0.5028 -1.4604
  542MOL0     H73146  -0.274   0.125   8.733 -2.5791 -0.1202  2.4981
  542MOL0     H73147  -0.253   0.009   8.865 -0.2895 -0.9222 -0.6838
  542MOL0     H73148  -0.069   0.022   8.630 -1.3432  0.7991 -0.1989
  542MOL0     H73149  -0.058  -0.099   8.746  2.4065  0.9431 -1.5581
  542MOL0     H73150   0.192   0.813   8.716  1.1736  0.3926 -0.9687
  542MOL0     H73151   0.379   0.953   8.595  1.6481  1.2146  0.3718
  542MOL0     H73152   0.697   1.260   8.551  0.6576  3.1897 -0.8901
  542MOL0     H73153   0.880   1.381   8.486 -0.5199  0.3383 -0.1677
  542MOL0     H73154   1.145   0.679   8.573 -1.6196  0.8010 -0.3378
  542MOL0     H73155   0.934   0.560   8.639  0.2789 -1.4304  0.6297
  542MOL0     H73156   0.779   0.380   9.216 -0.7911 -1.1475 -0.9446
  542MOL0     H73157   0.581   0.321   9.333 -2.2257 -0.3903  0.4159
  542MOL0     H73158   0.351   0.410   9.425  1.0532 -0.1642 -0.6289
  542MOL0     H73159   0.403   0.241   9.387 -1.1227 -1.1325  0.6757
  542MOL0     H73160   0.108   0.327   9.375 -1.6930 -1.8272  2.5165
  542MOL0     H73161   0.176   0.258   9.520 -0.1418 -0.9501 -0.1005
  542MOL0     H73162   0.252   0.054   9.390  0.3599  0.9975 -0.3845
  542MOL0     H73163   0.189   0.141   9.251 -0.0574 -2.2420 -0.3116
  542MOL0     H73164   0.017   0.056   9.490  1.2368  0.1502  0.0792
  542MOL0     H73165  -0.036   0.134   9.331  0.3781 -1.7187 -4.0195
  542MOL0     H73166   0.021  -0.272   9.207  0.6497  1.3089 -2.2653
  542MOL0     H73167   0.351   0.479   9.029  0.0009 -1.5897  0.0078
  542MOL0     H73168   0.583   0.684   8.878 -0.6791  0.1487  0.1658
  542MOL0     H73169   0.608   0.532   8.775  0.0608  0.0379 -0.5760
  542MOL0     H73170   0.447   0.582   8.822 -0.9272 -2.3551  0.6430
  543MOL0     O73171   3.745   4.039   9.273 -0.4398 -0.6226  0.4163
  543MOL0     C73172   3.659   4.114   9.325  0.5908 -0.5140 -0.1065
  543MOL0     O73173   3.685   4.240   9.362 -0.1661  0.0463  0.2996
  543MOL0     C73174   3.810   4.296   9.358 -0.5129  0.3902 -0.0121
  543MOL0     C73175   3.798   4.429   9.394  1.1509  0.7425  0.2786
  543MOL0     C73176   3.919   4.518   9.397 -0.3837 -0.3987  0.4367
  543MOL0     C73177   4.044   4.466   9.358 -0.3194 -0.4776 -0.1370
  543MOL0     O73178   4.151   4.548   9.379 -0.1253 -0.4717 -0.5551
  543MOL0     C73179   4.266   4.535   9.290 -0.1844  1.0684  1.1151
  543MOL0     C73180   4.335   4.670   9.282  0.5743  0.0634 -0.3111
  543MOL0     C73181   4.426   4.700   9.165  0.7105 -0.2486  0.0977
  543MOL0     C73182   4.488   4.841   9.186 -0.5808 -0.3469 -0.2617
  543MOL0     C73183   4.594   4.896   9.085  1.1702 -0.4291 -0.6475
  543MOL0     C73184   4.535   4.902   8.941  1.0315  0.3279  0.7161
  543MOL0     C73185   4.642   4.927   8.847 -0.4629 -0.2681  0.0733
  543MOL0     C73186   4.604   4.959   8.697  1.2334  0.2037 -0.2183
  543MOL0     N73187   4.566   4.840   8.623  0.1505 -0.3882 -0.5700
  543MOL0     C73188   4.652   4.789   8.540 -0.0638  0.3635  0.3070
  543MOL0     C73189   4.602   4.664   8.512 -0.2475  0.0657 -0.0824
  543MOL0     C73190   4.666   4.551   8.433 -0.1480  0.3110 -0.5733
  543MOL0     C73191   4.725   4.448   8.534 -0.6567  0.2576  0.3229
  543MOL0     C73192   4.872   4.458   8.549 -0.6726 -0.5850  0.2226
  543MOL0     C73193   4.926   4.325   8.603  0.1809 -0.3776 -0.3198
  543MOL0     O73194   5.067   4.331   8.615 -0.0835  0.0501 -0.2736
  543MOL0     C73195   5.136   4.272   8.513  0.1238 -0.9525 -0.0377
  543MOL0     C73196   5.261   4.223   8.548  1.1620  0.2346  0.4278
  543MOL0     C73197   5.348   4.158   8.462 -0.3713  0.8176  0.2286
  543MOL0     C73198   5.299   4.131   8.329 -1.0228 -0.1818 -0.2545
  543MOL0     C73199   5.367   4.050   8.232  0.1461  0.2561  0.7561
  543MOL0     O73200   5.460   3.958   8.272 -0.2411  0.2566  0.0255
  543MOL0     C73201   5.552   3.898   8.185  0.1220 -0.0227 -0.1176
  543MOL0     C73202   5.588   3.765   8.222  0.1756 -1.3554  0.5702
  543MOL0     C73203   5.679   3.695   8.144 -0.1500 -0.1361 -0.5561
  543MOL0     C73204   5.719   3.738   8.022 -0.5560 -0.5363  0.2211
  543MOL0     O73205   5.806   3.660   7.945 -0.3380 -0.8472  0.6384
  543MOL0     C73206   5.780   3.519   7.934 -0.4403  0.9681  0.6444
  543MOL0     C73207   5.871   3.458   7.816 -0.2134 -0.1980  0.2893
  543MOL0     C73208   6.026   3.495   7.843 -0.3655  0.4673 -0.2985
  543MOL0     C73209   6.112   3.405   7.753  0.0269  0.8382  0.7329
  543MOL0     C73210   6.259   3.439   7.756 -0.3465  0.1986  0.4383
  543MOL0     C73211   6.331   3.370   7.632  0.0255 -0.6212 -0.8861
  543MOL0     C73212   6.470   3.423   7.605 -0.0871 -0.1405  0.0474
  543MOL0     C73213   6.568   3.320   7.538 -0.0651 -0.5086 -0.0860
  543MOL0    Cl73214   6.572   3.304   7.361  0.2850  0.1062 -0.0167
  543MOL0     C73215   5.680   3.866   7.985 -0.4927  0.6832  1.0147
  543MOL0     C73216   5.594   3.939   8.054  0.2311  0.7569  0.1497
  543MOL0     O73217   5.328   4.063   8.116  0.2144 -0.1006  0.5052
  543MOL0     C73218   5.179   4.190   8.288 -0.8710  0.0089  0.5353
  543MOL0     C73219   5.100   4.257   8.384  0.6156 -0.5675  0.1530
  543MOL0     N73220   4.481   4.649   8.581 -0.4695 -0.2671  0.3932
  543MOL0     N73221   4.463   4.755   8.645  0.1138 -0.6933 -0.1051
  543MOL0     C73222   4.056   4.332   9.321  1.1412  0.1431  0.2109
  543MOL0     C73223   3.942   4.247   9.307  0.1446 -0.5333 -0.3657
  543MOL0     C73224   3.510   4.081   9.316 -0.4690 -0.1773  0.4406
  543MOL0     C73225   3.419   4.187   9.297  1.3203 -0.1630  0.5789
  543MOL0     C73226   3.277   4.159   9.287  0.4956 -0.3319  1.1622
  543MOL0     C73227   3.234   4.033   9.304  0.7516  0.1153  0.3200
  543MOL0     O73228   3.095   4.024   9.292  0.3284  0.5357  0.2314
  543MOL0     C73229   3.048   3.895   9.248 -0.1801 -0.0024 -0.3681
  543MOL0     C73230   2.901   3.888   9.214  0.4570  0.6349  0.0792
  543MOL0     C73231   2.851   3.972   9.093 -0.2071 -0.6566  0.7937
  543MOL0     C73232   2.706   3.938   9.054 -0.1463 -0.0469 -0.7370
  543MOL0     C73233   2.615   3.972   9.164 -0.0377 -0.0824  0.3727
  543MOL0     C73234   2.541   4.017   9.251  0.5159  0.7819 -0.7316
  543MOL0     C73235   3.324   3.928   9.329 -0.3336  0.2708  0.9534
  543MOL0     C73236   3.462   3.951   9.329  0.1397 -0.0343 -0.0907
  543MOL0     C73237   3.541   3.833   9.364 -0.5270  0.3866 -0.1545
  543MOL0     H73238   3.697   4.462   9.420  0.6872 -0.4277  0.0086
  543MOL0     H73239   3.913   4.621   9.429  2.6998  0.6268 -1.7777
  543MOL0     H73240   4.334   4.459   9.330 -0.0133  1.2233  1.1214
  543MOL0     H73241   4.230   4.506   9.191 -2.5584  1.4699  1.8106
  543MOL0     H73242   4.380   4.680   9.381  1.9233 -2.1689 -0.6276
  543MOL0     H73243   4.258   4.748   9.284  0.3260 -0.1858 -0.0405
  543MOL0     H73244   4.372   4.700   9.070  1.8763 -1.8193 -0.6269
  543MOL0     H73245   4.505   4.624   9.168 -1.5343 -2.7112  0.1101
  543MOL0     H73246   4.401   4.907   9.194  0.3839  0.9029  0.2820
  543MOL0     H73247   4.541   4.839   9.282 -1.8126 -3.8359  0.4655
  543MOL0     H73248   4.632   4.992   9.122  0.6129 -1.3589  2.6426
  543MOL0     H73249   4.685   4.835   9.082  1.5666  0.1975 -1.8244
  543MOL0     H73250   4.497   4.802   8.919 -0.9664  0.3698  3.5127
  543MOL0     H73251   4.451   4.972   8.936  1.2122  0.5125  0.0320
  543MOL0     H73252   4.709   4.840   8.845 -0.0656 -0.0396  1.9751
  543MOL0     H73253   4.697   5.014   8.883 -0.1615  0.5468 -2.1647
  543MOL0     H73254   4.510   5.015   8.692  0.3421 -1.3166 -1.9710
  543MOL0     H73255   4.687   5.014   8.652 -0.6261  4.1975  0.8043
  543MOL0     H73256   4.749   4.826   8.508 -0.5071  1.7062  0.4667
  543MOL0     H73257   4.586   4.506   8.374 -1.3190  1.5702  0.0227
  543MOL0     H73258   4.751   4.588   8.375  1.9610 -0.2564  1.9273
  543MOL0     H73259   4.695   4.452   8.639 -1.5689  1.5946  0.0316
  543MOL0     H73260   4.696   4.345   8.511  0.0121 -0.2032  1.4650
  543MOL0     H73261   4.903   4.545   8.609 -0.1601  0.6064 -1.6871
  543MOL0     H73262   4.923   4.468   8.453  1.4021 -2.4660  1.0595
  543MOL0     H73263   4.895   4.229   8.559 -1.9643 -0.5004  1.2740
  543MOL0     H73264   4.877   4.319   8.700  0.9399 -0.0013  0.0873
  543MOL0     H73265   5.313   4.244   8.641 -0.8172 -0.2480  1.7132
  543MOL0     H73266   5.446   4.125   8.495 -1.1930  1.5477  3.8095
  543MOL0     H73267   5.538   3.713   8.304 -2.4724 -1.9899 -1.2997
  543MOL0     H73268   5.726   3.606   8.185 -0.5217 -1.0662 -2.0422
  543MOL0     H73269   5.802   3.461   8.024 -1.4835 -0.4433  0.0228
  543MOL0     H73270   5.674   3.497   7.918  0.0946 -1.2116 -0.2353
  543MOL0     H73271   5.867   3.348   7.821  0.5782 -0.1868  1.3931
  543MOL0     H73272   5.837   3.482   7.715 -2.2746 -5.0272 -0.4350
  543MOL0     H73273   6.054   3.599   7.821  2.6158 -0.2623 -0.3895
  543MOL0     H73274   6.058   3.466   7.943 -2.0426 -2.3273 -0.4999
  543MOL0     H73275   6.084   3.418   7.648 -2.5274 -0.2783  1.2213
  543MOL0     H73276   6.099   3.297   7.763 -1.1788  0.4087 -3.4514
  543MOL0     H73277   6.306   3.398   7.846 -0.9431  1.6041  1.4271
  543MOL0     H73278   6.272   3.548   7.754 -2.3377  0.5283 -2.9652
  543MOL0     H73279   6.331   3.262   7.650  1.3257 -0.6909 -1.2460
  543MOL0     H73280   6.278   3.381   7.537 -2.4163  1.3946  0.5930
  543MOL0     H73281   6.509   3.447   7.704  1.8774  0.6365 -0.8652
  543MOL0     H73282   6.473   3.516   7.549  0.5354 -1.0819 -1.5470
  543MOL0     H73283   6.667   3.353   7.572 -0.1615 -1.5717  1.3221
  543MOL0     H73284   6.539   3.229   7.591 -0.3056 -0.5337 -0.2589
  543MOL0     H73285   5.710   3.908   7.890 -1.0552  0.9335  0.9459
  543MOL0     H73286   5.575   4.039   8.017  1.5508  1.2573  0.7630
  543MOL0     H73287   5.150   4.177   8.184  2.7341  1.7033 -0.8279
  543MOL0     H73288   4.998   4.289   8.362  1.5999  2.1332 -0.8260
  543MOL0     H73289   4.156   4.294   9.302  0.4780 -1.2199 -0.7050
  543MOL0     H73290   3.962   4.150   9.263  2.4898 -1.2254  2.0212
  543MOL0     H73291   3.450   4.291   9.284 -0.2097  0.2203 -0.2362
  543MOL0     H73292   3.193   4.228   9.286 -0.4381 -1.4440  0.0820
  543MOL0     H73293   3.064   3.822   9.328  1.8011  0.3677 -0.3800
  543MOL0     H73294   3.101   3.852   9.162 -1.5656  0.5239 -1.5289
  543MOL0     H73295   2.838   3.895   9.303 -1.3606 -0.4870 -1.0395
  543MOL0     H73296   2.880   3.786   9.180 -2.8941  0.7638  1.3938
  543MOL0     H73297   2.917   3.960   9.006 -1.2846 -1.4914  0.0634
  543MOL0     H73298   2.855   4.078   9.119 -0.3903 -0.7862  1.3786
  543MOL0     H73299   2.673   3.996   8.968  1.0649  0.0570 -1.1395
  543MOL0     H73300   2.699   3.830   9.036  4.3013 -0.5106 -0.8484
  543MOL0     H73301   2.497   4.041   9.345 -0.8553  0.7937 -1.3550
  543MOL0     H73302   3.288   3.826   9.332 -0.9521  0.2452 -3.0488
  543MOL0     H73303   3.570   3.838   9.469  0.2168 -0.7174 -0.2859
  543MOL0     H73304   3.500   3.735   9.341  1.4821 -0.6766  0.5167
  543MOL0     H73305   3.629   3.823   9.299 -1.1374 -1.7306 -0.7402
  544MOL0     O73306   9.015   5.691   3.283  0.5375 -0.2820  1.1376
  544MOL0     C73307   8.910   5.622   3.313 -0.0919 -0.6519 -0.8979
  544MOL0     O73308   8.904   5.493   3.346  0.0854  0.3123 -0.2656
  544MOL0     C73309   9.012   5.408   3.340  0.3035 -0.2983 -0.3821
  544MOL0     C73310   9.045   5.346   3.461  0.9578  1.1228 -1.0033
  544MOL0     C73311   9.160   5.268   3.487  0.4461 -0.1184  1.2676
  544MOL0     C73312   9.233   5.225   3.372 -0.7904  0.1299  0.4666
  544MOL0     O73313   9.359   5.159   3.394  0.2342 -0.6790  0.4723
  544MOL0     C73314   9.342   5.016   3.353 -0.0802 -0.1680  0.6085
  544MOL0     C73315   9.330   4.925   3.467 -0.4581  0.0257 -0.7223
  544MOL0     C73316   9.462   4.890   3.533  0.0808  0.1599 -0.1500
  544MOL0     C73317   9.525   5.020   3.591 -1.0285  0.3274 -0.2941
  544MOL0     C73318   9.656   4.979   3.653 -0.2465  0.0121 -0.1384
  544MOL0     C73319   9.766   4.962   3.547  0.0492  0.4577 -0.2686
  544MOL0     C73320   9.901   4.931   3.616 -0.3014  0.1437 -0.1352
  544MOL0     C73321  10.012   4.899   3.508 -0.8185 -0.1007 -0.0705
  544MOL0     N73322  10.077   5.023   3.472  0.1979 -0.2705 -0.5376
  544MOL0     C73323  10.180   5.083   3.536  0.2121 -0.6480 -0.2874
  544MOL0     C73324  10.202   5.204   3.473  0.5717  0.8910 -0.2569
  544MOL0     C73325  10.304   5.307   3.505  0.1150 -0.7963  0.6510
  544MOL0     C73326  10.428   5.312   3.421  0.0189 -0.2351  0.1556
  544MOL0     C73327  10.502   5.183   3.399  0.4459 -0.1831 -0.4612
  544MOL0     C73328  10.629   5.206   3.328 -0.3330  0.0888  0.1765
  544MOL0     O73329  10.735   5.217   3.425  1.0051  0.4353  0.0633
  544MOL0     C73330  10.867   5.241   3.384 -0.2501  0.0266 -0.2087
  544MOL0     C73331  10.970   5.254   3.475 -0.4995 -0.8120  0.3331
  544MOL0     C73332  11.105   5.273   3.446  0.1815 -0.0697  0.7028
  544MOL0     C73333  11.140   5.296   3.314  0.6875 -0.2641  0.4498
  544MOL0     C73334  11.273   5.301   3.262  0.6988 -0.7655 -0.1265
  544MOL0     O73335  11.292   5.341   3.129  0.0133 -0.1353 -0.5916
  544MOL0     C73336  11.417   5.311   3.089 -0.1917  0.6367  0.3145
  544MOL0     C73337  11.527   5.398   3.132  0.0269  0.5862 -0.1182
  544MOL0     C73338  11.653   5.366   3.072  0.6214 -0.0476  0.2059
  544MOL0     C73339  11.673   5.258   2.987  0.1351  0.2678 -0.1416
  544MOL0     O73340  11.801   5.243   2.931 -0.5527  0.5113 -0.0472
  544MOL0     C73341  11.846   5.115   2.880 -0.2231 -0.3843 -0.4282
  544MOL0     C73342  11.989   5.129   2.866  0.0372 -0.4504  0.2707
  544MOL0     C73343  12.070   5.122   2.999 -0.5950  0.1980 -1.2515
  544MOL0     C73344  12.215   5.165   2.985 -0.2972 -0.5289 -0.1501
  544MOL0     C73345  12.285   5.136   3.122 -0.0645  0.0255  0.3133
  544MOL0     C73346  12.430   5.178   3.118 -0.6916 -0.3352  0.1249
  544MOL0     C73347  12.513   5.127   3.239 -0.2987  0.6326 -0.5131
  544MOL0     C73348  12.555   4.976   3.248 -0.1173 -0.4137 -0.7950
  544MOL0    Cl73349  12.440   4.877   3.348  0.5343 -0.2859 -0.0917
  544MOL0     C73350  11.566   5.178   2.943  0.6252 -0.6567 -0.2959
  544MOL0     C73351  11.439   5.202   2.997  0.9263  0.1422 -0.7332
  544MOL0     O73352  11.363   5.298   3.351  0.1063 -0.2103 -0.0062
  544MOL0     C73353  11.036   5.284   3.210  0.2469  0.2262 -0.7484
  544MOL0     C73354  10.908   5.246   3.248  0.6866  0.4368  0.8222
  544MOL0     N73355  10.094   5.215   3.390 -0.4141  0.9178 -0.3665
  544MOL0     N73356  10.033   5.104   3.374  0.6292  0.0576 -0.0893
  544MOL0     C73357   9.187   5.279   3.254  0.1433 -0.6902  0.0475
  544MOL0     C73358   9.089   5.372   3.231  0.1434 -0.3336 -0.5248
  544MOL0     C73359   8.776   5.693   3.304 -0.7749  0.1501  1.2574
  544MOL0     C73360   8.665   5.617   3.340  0.2268  0.9929  0.1890
  544MOL0     C73361   8.540   5.661   3.312  0.4301  0.2583 -0.2520
  544MOL0     C73362   8.519   5.784   3.242  0.3457 -0.6330 -0.7414
  544MOL0     O73363   8.399   5.839   3.216  0.2793 -0.3199 -0.2000
  544MOL0     C73364   8.283   5.768   3.268  0.4160 -0.2731 -0.3856
  544MOL0     C73365   8.152   5.856   3.259  0.3333  0.3896 -0.7997
  544MOL0     C73366   8.080   5.825   3.128  0.2329  0.0575 -0.4497
  544MOL0     C73367   7.947   5.902   3.117 -0.5010  0.2966 -0.2860
  544MOL0     C73368   7.869   5.864   2.992  0.4911 -0.4370 -0.3593
  544MOL0     C73369   7.799   5.846   2.893 -0.8196 -0.1836 -0.4051
  544MOL0     C73370   8.625   5.872   3.221  1.0542 -0.8526 -0.0018
  544MOL0     C73371   8.753   5.821   3.259 -0.3912 -0.5599  0.1699
  544MOL0     C73372   8.865   5.916   3.218  0.0022  0.4114  0.3369
  544MOL0     H73373   8.971   5.355   3.540  1.7473  0.1349 -0.1274
  544MOL0     H73374   9.176   5.228   3.586  0.5313 -0.7517  0.9994
  544MOL0     H73375   9.256   5.001   3.287  0.6812 -2.2668  0.0184
  544MOL0     H73376   9.430   4.987   3.295  2.2956  1.0887  3.3352
  544MOL0     H73377   9.295   4.826   3.437 -0.2234 -1.3658  2.9973
  544MOL0     H73378   9.258   4.973   3.535  0.6687  3.3877 -1.7011
  544MOL0     H73379   9.524   4.847   3.454 -0.2461  2.2946 -1.6499
  544MOL0     H73380   9.448   4.821   3.617 -4.4235 -0.5050 -1.1932
  544MOL0     H73381   9.558   5.091   3.515  2.1584  0.0749  0.7136
  544MOL0     H73382   9.461   5.060   3.671  0.3362 -0.0581  1.0417
  544MOL0     H73383   9.698   5.043   3.731 -0.7011 -0.3111  0.3807
  544MOL0     H73384   9.644   4.884   3.708 -1.9328  0.3337  0.0960
  544MOL0     H73385   9.743   4.876   3.484 -1.4524 -0.0076  0.8512
  544MOL0     H73386   9.776   5.054   3.489 -0.4629  0.6897  0.0001
  544MOL0     H73387   9.890   4.832   3.661 -0.5865  0.0773 -0.3462
  544MOL0     H73388   9.934   5.007   3.688 -0.2758  0.6717 -0.6968
  544MOL0     H73389  10.074   4.833   3.569 -1.4377  1.4344  2.3400
  544MOL0     H73390   9.964   4.851   3.423 -0.1541 -0.2160 -0.3876
  544MOL0     H73391  10.233   5.040   3.621  1.4779 -0.0405 -0.7331
  544MOL0     H73392  10.252   5.404   3.508 -2.0770 -1.9077  0.2822
  544MOL0     H73393  10.348   5.285   3.603  1.2711  0.0126  0.3392
  544MOL0     H73394  10.397   5.345   3.321 -1.4381 -2.3997 -0.1813
  544MOL0     H73395  10.487   5.391   3.469 -0.3700  1.2660 -1.6978
  544MOL0     H73396  10.439   5.119   3.336  1.5121 -0.3472 -1.4033
  544MOL0     H73397  10.522   5.128   3.491  1.2701 -1.6348 -1.4682
  544MOL0     H73398  10.618   5.292   3.262  0.6202  0.0961  0.0090
  544MOL0     H73399  10.656   5.116   3.271 -0.7168  1.5100 -2.4127
  544MOL0     H73400  10.949   5.241   3.581  0.3942  1.7760  0.9141
  544MOL0     H73401  11.180   5.277   3.524 -0.0914 -0.4285  0.9863
  544MOL0     H73402  11.511   5.485   3.194  0.3664  0.2489  0.4486
  544MOL0     H73403  11.742   5.424   3.098  1.0151 -0.7389  0.4095
  544MOL0     H73404  11.817   5.035   2.948 -0.0160  1.0006  1.3503
  544MOL0     H73405  11.805   5.106   2.779 -1.2596  3.7845 -0.5983
  544MOL0     H73406  12.032   5.048   2.806 -0.4695 -0.5968  0.1009
  544MOL0     H73407  12.013   5.218   2.806 -0.0129 -0.6961 -0.1156
  544MOL0     H73408  12.018   5.180   3.075 -2.7689 -1.3450 -1.4340
  544MOL0     H73409  12.075   5.016   3.026  1.3130  0.7600  0.8356
  544MOL0     H73410  12.221   5.271   2.963 -1.3190 -0.2541  0.7896
  544MOL0     H73411  12.273   5.110   2.910  0.0498  0.8060 -0.8829
  544MOL0     H73412  12.296   5.028   3.136  1.2348  0.1860  0.6579
  544MOL0     H73413  12.224   5.179   3.201 -2.4342 -1.6935 -0.4471
  544MOL0     H73414  12.490   5.159   3.028  1.4345 -0.0895  1.4201
  544MOL0     H73415  12.425   5.287   3.128 -1.2518 -0.2574 -0.8965
  544MOL0     H73416  12.472   5.153   3.337 -0.7429 -0.6326 -0.3476
  544MOL0     H73417  12.609   5.178   3.228  0.1579  0.6091  2.5184
  544MOL0     H73418  12.569   4.942   3.145  1.5508  2.5909 -1.6474
  544MOL0     H73419  12.655   4.962   3.290 -0.3456  0.6961  0.1777
  544MOL0     H73420  11.591   5.094   2.879  0.7428 -1.1516  0.3918
  544MOL0     H73421  11.350   5.144   2.975  0.5083  0.2884  0.4917
  544MOL0     H73422  11.052   5.277   3.103  1.2703 -0.0575 -0.5882
  544MOL0     H73423  10.828   5.227   3.177  0.3526  0.0995  1.2772
  544MOL0     H73424   9.259   5.250   3.178 -0.4916 -0.7934 -0.5272
  544MOL0     H73425   9.070   5.397   3.127 -0.5449  0.0080 -0.3254
  544MOL0     H73426   8.665   5.520   3.389 -0.3899 -0.7800 -3.0259
  544MOL0     H73427   8.462   5.592   3.343  0.8943  0.2972  1.0452
  544MOL0     H73428   8.300   5.732   3.370  1.1704 -1.7684 -0.9988
  544MOL0     H73429   8.258   5.682   3.205  0.7033 -0.1795 -0.6293
  544MOL0     H73430   8.170   5.963   3.253 -0.6257  0.7133  1.2356
  544MOL0     H73431   8.088   5.844   3.347 -2.2676  4.1317 -1.9601
  544MOL0     H73432   8.059   5.719   3.110  1.7993  0.1949 -3.7198
  544MOL0     H73433   8.143   5.859   3.046  0.6294 -0.9408 -0.5793
  544MOL0     H73434   7.887   5.892   3.207 -3.5347  2.0139 -1.9439
  544MOL0     H73435   7.972   6.008   3.113 -0.8536  0.4927  1.6825
  544MOL0     H73436   7.738   5.838   2.806 -1.0109  2.7825 -0.6622
  544MOL0     H73437   8.591   5.963   3.173  2.8232 -0.6799 -1.0015
  544MOL0     H73438   8.932   5.875   3.142  2.2326  1.9904  1.3497
  544MOL0     H73439   8.824   6.004   3.168 -1.0168  0.6783  1.5743
  544MOL0     H73440   8.917   5.959   3.304  0.8517  1.0487 -0.4745
  545MOL0     O73441   5.163   3.174   1.384  0.4861 -0.6634  0.4191
  545MOL0     C73442   5.197   3.054   1.384  0.4423 -0.1545 -0.3584
  545MOL0     O73443   5.290   2.996   1.295 -0.0753 -0.2260  0.2296
  545MOL0     C73444   5.382   3.090   1.248  0.7328  0.5125 -0.2955
  545MOL0     C73445   5.508   3.096   1.302  0.3347  0.6076  0.0562
  545MOL0     C73446   5.604   3.179   1.247 -0.0694 -1.0079  0.4273
  545MOL0     C73447   5.571   3.251   1.128 -0.5811  0.2208 -0.1536
  545MOL0     O73448   5.654   3.339   1.056 -0.0017  0.1533 -0.2273
  545MOL0     C73449   5.746   3.420   1.134 -0.3925  0.0730  0.1402
  545MOL0     C73450   5.843   3.481   1.039  0.0942  0.6693 -0.5563
  545MOL0     C73451   5.945   3.573   1.100  0.8712  0.2866  0.5431
  545MOL0     C73452   6.054   3.614   1.001  0.4785 -0.1779  0.1303
  545MOL0     C73453   6.165   3.687   1.067  0.5372  0.0494  0.6154
  545MOL0     C73454   6.268   3.597   1.139  0.1358  0.4026  0.0810
  545MOL0     C73455   6.385   3.678   1.202  0.0952 -0.7938  0.4873
  545MOL0     C73456   6.328   3.753   1.315 -0.2144 -0.5931 -0.4697
  545MOL0     N73457   6.253   3.680   1.409 -0.6357  0.0307 -0.1332
  545MOL0     C73458   6.286   3.556   1.453  0.3233  1.1414 -0.1922
  545MOL0     C73459   6.178   3.520   1.534 -0.2402  0.9383 -0.2323
  545MOL0     C73460   6.153   3.398   1.618  0.6737 -0.2411 -0.4408
  545MOL0     C73461   6.100   3.281   1.535 -0.4238 -0.6446 -0.1530
  545MOL0     C73462   5.954   3.298   1.486  0.9812 -0.1754 -0.1742
  545MOL0     C73463   5.844   3.335   1.587  0.3958  0.4610 -0.1913
  545MOL0     O73464   5.820   3.224   1.678  0.5009  0.3507  0.9715
  545MOL0     C73465   5.725   3.241   1.776 -0.7672  0.2384  0.9408
  545MOL0     C73466   5.602   3.184   1.765  0.0024 -0.2440  0.5452
  545MOL0     C73467   5.494   3.221   1.846  0.3407  1.0042  0.1082
  545MOL0     C73468   5.517   3.309   1.951  0.1935  0.2654  0.3702
  545MOL0     C73469   5.404   3.342   2.046  0.5596 -0.2247  0.0987
  545MOL0     O73470   5.284   3.361   1.990  0.6191  0.4926 -0.7134
  545MOL0     C73471   5.187   3.366   2.085 -0.5716 -0.3586 -0.0212
  545MOL0     C73472   5.139   3.490   2.137 -0.4468  0.4257 -0.2478
  545MOL0     C73473   5.039   3.497   2.237  0.0427 -1.1954 -0.6102
  545MOL0     C73474   4.962   3.384   2.266 -0.2445  0.0492  0.3579
  545MOL0     O73475   4.847   3.404   2.341 -0.2080  0.2722 -0.1581
  545MOL0     C73476   4.740   3.307   2.334 -0.3646  0.0077 -0.2837
  545MOL0     C73477   4.635   3.346   2.433  0.0253 -0.3566  0.1043
  545MOL0     C73478   4.542   3.237   2.484 -0.6869 -0.2954  0.4600
  545MOL0     C73479   4.407   3.286   2.541  0.5090  0.5142 -0.0171
  545MOL0     C73480   4.301   3.172   2.544 -0.3763  0.5519  0.1614
  545MOL0     C73481   4.169   3.212   2.606  0.4094 -0.4333  0.3202
  545MOL0     C73482   4.063   3.105   2.579 -0.2739  0.5950  0.0978
  545MOL0     C73483   3.922   3.144   2.620 -0.1532 -0.2123 -0.1233
  545MOL0    Cl73484   3.916   3.132   2.797 -0.0318  0.1307  0.3122
  545MOL0     C73485   5.007   3.262   2.207  0.0900 -0.0772  0.0397
  545MOL0     C73486   5.118   3.251   2.122 -0.6531 -0.9719  0.2723
  545MOL0     O73487   5.431   3.364   2.167  0.8057  0.3881  0.1768
  545MOL0     C73488   5.644   3.367   1.974  0.1205  0.0270 -0.0007
  545MOL0     C73489   5.752   3.319   1.891 -0.0667 -0.5298 -0.2783
  545MOL0     N73490   6.083   3.617   1.517 -1.0132  0.0003  0.4385
  545MOL0     N73491   6.134   3.716   1.459 -0.1352  0.1165  0.6535
  545MOL0     C73492   5.449   3.243   1.074 -0.3320 -0.3218 -0.8988
  545MOL0     C73493   5.347   3.160   1.130 -0.0928  0.4349  0.2813
  545MOL0     C73494   5.120   2.963   1.477 -0.0732  0.0469 -0.1588
  545MOL0     C73495   5.007   3.028   1.537  0.3550  0.5023 -0.3296
  545MOL0     C73496   4.920   2.954   1.621 -0.6761 -0.1292  1.1934
  545MOL0     C73497   4.937   2.812   1.627  0.9489  0.4631 -0.2153
  545MOL0     O73498   4.837   2.754   1.710  0.3856  0.8975 -0.2298
  545MOL0     C73499   4.823   2.614   1.708 -0.1158 -0.0384 -0.1668
  545MOL0     C73500   4.693   2.566   1.775  0.4287  0.0530  0.3782
  545MOL0     C73501   4.567   2.568   1.684  1.0310 -0.0359 -0.1539
  545MOL0     C73502   4.513   2.711   1.684  0.3467 -0.3797  0.1350
  545MOL0     C73503   4.397   2.741   1.596  0.6205 -0.1035 -0.5820
  545MOL0     C73504   4.300   2.751   1.518 -0.3156  0.7634 -0.8217
  545MOL0     C73505   5.040   2.743   1.569  0.8226 -0.3068  0.5666
  545MOL0     C73506   5.137   2.816   1.497 -0.9261 -0.2446  0.1249
  545MOL0     C73507   5.229   2.722   1.423  0.4613  0.2111  0.7506
  545MOL0     H73508   5.510   3.042   1.396 -0.7089 -0.3734 -0.4640
  545MOL0     H73509   5.705   3.184   1.287  0.8351  1.4079 -1.8678
  545MOL0     H73510   5.697   3.508   1.178  2.8601  1.5980  0.9811
  545MOL0     H73511   5.808   3.370   1.210  2.7461 -1.9680 -3.4523
  545MOL0     H73512   5.785   3.551   0.978 -0.4535  1.6372  1.0137
  545MOL0     H73513   5.896   3.409   0.977  2.0462  2.4258 -1.0347
  545MOL0     H73514   5.993   3.517   1.180 -3.6797 -2.5597  1.6294
  545MOL0     H73515   5.896   3.662   1.140 -0.6506  0.7535 -2.1312
  545MOL0     H73516   6.090   3.524   0.950  1.0518 -0.1278  0.4355
  545MOL0     H73517   6.005   3.683   0.932 -0.5905 -1.8890 -0.9037
  545MOL0     H73518   6.221   3.743   0.991  1.0530  1.6918  2.1377
  545MOL0     H73519   6.127   3.760   1.140  1.4777  0.6310  0.5355
  545MOL0     H73520   6.210   3.535   1.208  1.9105  0.9623  2.1560
  545MOL0     H73521   6.306   3.540   1.053 -0.1123  3.4043 -2.1995
  545MOL0     H73522   6.430   3.734   1.119 -1.4378  1.2139  0.9419
  545MOL0     H73523   6.464   3.610   1.236 -1.3446 -2.0646  1.4116
  545MOL0     H73524   6.415   3.804   1.358  0.1749  0.2353 -2.1499
  545MOL0     H73525   6.264   3.834   1.278 -0.2468 -0.8973 -1.1032
  545MOL0     H73526   6.374   3.494   1.437 -2.7053 -3.6620 -0.3888
  545MOL0     H73527   6.249   3.366   1.661  0.8358  0.0058 -0.6143
  545MOL0     H73528   6.090   3.435   1.699  1.0724 -0.7944  0.1324
  545MOL0     H73529   6.166   3.250   1.454 -0.7522 -1.2061 -0.2141
  545MOL0     H73530   6.092   3.190   1.596 -0.4919 -1.6439 -1.5978
  545MOL0     H73531   5.925   3.208   1.430  1.1561  0.7411 -1.7799
  545MOL0     H73532   5.941   3.380   1.415 -0.2154 -2.8511 -3.2925
  545MOL0     H73533   5.751   3.350   1.531  0.4091 -1.0349 -0.6727
  545MOL0     H73534   5.871   3.422   1.647 -1.9904  0.6315  0.7526
  545MOL0     H73535   5.590   3.120   1.679 -1.7731 -1.0617  1.3456
  545MOL0     H73536   5.393   3.184   1.834  0.5728  0.4699 -0.2260
  545MOL0     H73537   5.182   3.586   2.111  2.0844  0.0816  2.2575
  545MOL0     H73538   5.011   3.599   2.261  3.1684 -0.5566  0.8289
  545MOL0     H73539   4.698   3.301   2.233 -0.4400 -0.3722 -0.2326
  545MOL0     H73540   4.770   3.206   2.365  0.6788 -0.0734 -1.5300
  545MOL0     H73541   4.682   3.387   2.523 -0.3710  2.2182 -0.7699
  545MOL0     H73542   4.574   3.421   2.382 -0.0347  0.3338  1.1763
  545MOL0     H73543   4.519   3.163   2.407 -0.3327 -1.3464  1.3499
  545MOL0     H73544   4.606   3.181   2.552  0.9627 -0.1348 -0.9041
  545MOL0     H73545   4.364   3.364   2.476  0.6171 -0.4276 -1.2627
  545MOL0     H73546   4.417   3.334   2.639 -1.7071 -0.0988  0.5830
  545MOL0     H73547   4.344   3.094   2.606 -0.9168 -0.0125 -0.1590
  545MOL0     H73548   4.286   3.133   2.443 -0.7429  0.9659  0.0508
  545MOL0     H73549   4.166   3.220   2.715 -0.4574  0.4331  0.2394
  545MOL0     H73550   4.138   3.307   2.562 -1.0862 -0.4480  1.2976
  545MOL0     H73551   4.107   3.015   2.622  2.3897 -0.3779 -4.0977
  545MOL0     H73552   4.057   3.087   2.471 -1.6761 -2.8676  0.6014
  545MOL0     H73553   3.898   3.247   2.594 -0.8228 -0.2335  0.3904
  545MOL0     H73554   3.842   3.078   2.585 -0.2383  1.4180 -3.4151
  545MOL0     H73555   4.947   3.171   2.213 -4.7999  2.6553 -1.8591
  545MOL0     H73556   5.134   3.152   2.080 -0.0096 -1.0900  0.7737
  545MOL0     H73557   5.663   3.431   2.060  0.9937 -0.0438 -0.1311
  545MOL0     H73558   5.853   3.358   1.902  0.8251 -3.2215  2.3197
  545MOL0     H73559   5.428   3.313   0.994 -2.2894  2.2208  1.6195
  545MOL0     H73560   5.247   3.147   1.091  0.2827  0.4407 -0.6964
  545MOL0     H73561   4.986   3.134   1.530  1.6044  0.7324 -0.7598
  545MOL0     H73562   4.831   3.000   1.662  0.2721  1.8525  1.1401
  545MOL0     H73563   4.910   2.570   1.757 -0.5231 -1.0325 -0.3163
  545MOL0     H73564   4.813   2.583   1.604 -1.3844  1.8844 -0.6725
  545MOL0     H73565   4.669   2.624   1.865 -0.0764 -0.8230  0.8191
  545MOL0     H73566   4.706   2.463   1.810 -0.9864 -0.3343 -0.1830
  545MOL0     H73567   4.494   2.499   1.729  1.0240  0.0558 -0.0254
  545MOL0     H73568   4.590   2.537   1.582 -0.0872 -1.6465  0.0379
  545MOL0     H73569   4.479   2.723   1.787  1.2237 -1.5940  0.5923
  545MOL0     H73570   4.589   2.787   1.664  0.9208 -0.7530  0.8311
  545MOL0     H73571   4.216   2.748   1.452 -0.5639  0.5052 -0.4994
  545MOL0     H73572   5.043   2.634   1.568 -0.0600 -0.3369  0.7383
  545MOL0     H73573   5.271   2.772   1.335  0.9998  0.1825  0.9842
  545MOL0     H73574   5.310   2.685   1.487 -0.6933 -2.5885  0.6993
  545MOL0     H73575   5.168   2.642   1.381  0.3884 -0.6133  2.3351
  546MOL0     O73576   5.987   8.852   2.293  0.2208  0.0546  0.5088
  546MOL0     C73577   5.958   8.948   2.222  0.4929  0.0179 -0.5904
  546MOL0     O73578   6.049   9.020   2.150 -0.4132  0.1944  0.3611
  546MOL0     C73579   6.180   9.010   2.160 -0.3911 -0.0979 -0.3314
  546MOL0     C73580   6.255   8.900   2.207  0.6327  0.0517 -0.1396
  546MOL0     C73581   6.397   8.927   2.217  0.3282  0.9744 -0.6132
  546MOL0     C73582   6.463   9.046   2.182 -0.2805  0.2425  0.3097
  546MOL0     O73583   6.604   9.068   2.190 -0.1815 -0.1928 -0.0151
  546MOL0     C73584   6.682   8.962   2.145 -0.4103  0.8252  0.1477
  546MOL0     C73585   6.825   9.016   2.141  0.7832 -0.2344 -0.2804
  546MOL0     C73586   6.928   8.925   2.083 -0.4203 -0.5424 -0.2285
  546MOL0     C73587   7.066   9.004   2.079 -0.0874  0.4485  0.4187
  546MOL0     C73588   7.182   8.910   2.046 -0.6681  0.2118 -0.0124
  546MOL0     C73589   7.217   8.814   2.163 -0.4232 -0.1996  0.4009
  546MOL0     C73590   7.336   8.723   2.138 -0.0383 -0.5083 -1.0256
  546MOL0     C73591   7.384   8.657   2.264  0.6536 -0.1701  0.3721
  546MOL0     N73592   7.479   8.552   2.241  0.0511  0.0195  0.7663
  546MOL0     C73593   7.614   8.590   2.240 -0.9688  0.2666 -0.5283
  546MOL0     C73594   7.683   8.481   2.195 -0.7795 -0.1178  0.1215
  546MOL0     C73595   7.825   8.472   2.163 -0.0782  0.1196  0.7186
  546MOL0     C73596   7.860   8.530   2.032 -0.0958 -0.7589  0.3113
  546MOL0     C73597   7.782   8.476   1.919 -0.1414  0.0405 -0.0732
  546MOL0     C73598   7.804   8.519   1.777  0.4166 -0.0396  0.5526
  546MOL0     O73599   7.914   8.456   1.712 -0.2360  0.4301 -0.4022
  546MOL0     C73600   8.043   8.508   1.711 -0.0669 -0.7247 -0.2700
  546MOL0     C73601   8.086   8.628   1.781 -0.3311 -0.6889  0.1397
  546MOL0     C73602   8.216   8.655   1.805  0.1759  0.5732  0.3088
  546MOL0     C73603   8.314   8.576   1.736 -0.0050 -0.5794 -0.4058
  546MOL0     C73604   8.454   8.612   1.739 -0.4342  0.5072 -0.4692
  546MOL0     O73605   8.550   8.522   1.690 -0.7836 -0.0985 -0.3381
  546MOL0     C73606   8.679   8.553   1.693  0.5889  0.5902  0.3935
  546MOL0     C73607   8.760   8.449   1.740 -0.1781  0.2698  0.0379
  546MOL0     C73608   8.904   8.465   1.737  0.0293  0.2550 -1.3157
  546MOL0     C73609   8.957   8.590   1.702  0.7839  0.3402 -0.1715
  546MOL0     O73610   9.088   8.595   1.702 -0.3404 -0.3374  0.0281
  546MOL0     C73611   9.159   8.714   1.735  0.1871  0.4455  0.6501
  546MOL0     C73612   9.298   8.672   1.745 -0.5714  0.2856 -0.8080
  546MOL0     C73613   9.398   8.779   1.793  0.2827  0.5437  0.4985
  546MOL0     C73614   9.505   8.714   1.884 -0.3047 -0.2345 -0.2937
  546MOL0     C73615   9.620   8.800   1.930 -0.4063 -0.7812  1.1208
  546MOL0     C73616   9.722   8.733   2.019  0.0252  0.1741 -0.5562
  546MOL0     C73617   9.802   8.828   2.109 -0.0307  0.0347  0.5398
  546MOL0     C73618   9.879   8.747   2.220 -0.6862 -0.7829 -0.2649
  546MOL0    Cl73619  10.029   8.679   2.153 -0.7056 -0.2103 -0.2621
  546MOL0     C73620   8.874   8.698   1.672  0.2460  0.1486 -0.2133
  546MOL0     C73621   8.739   8.678   1.656  1.1927  0.4963  0.0276
  546MOL0     O73622   8.482   8.710   1.812 -0.3693  0.3845  0.3076
  546MOL0     C73623   8.268   8.475   1.645  0.6579  0.6229 -0.5344
  546MOL0     C73624   8.134   8.437   1.643  0.4000 -0.1509 -0.1159
  546MOL0     N73625   7.593   8.377   2.169 -0.0538 -0.6811 -0.5407
  546MOL0     N73626   7.466   8.425   2.195 -1.5063  0.0905 -0.1588
  546MOL0     C73627   6.383   9.146   2.128  0.2783 -0.1073 -0.0484
  546MOL0     C73628   6.241   9.132   2.112 -0.6404 -1.0063  0.0736
  546MOL0     C73629   5.808   8.981   2.193  0.0137  0.2055  0.0591
  546MOL0     C73630   5.771   9.102   2.121  0.3901  0.0840 -0.0244
  546MOL0     C73631   5.641   9.138   2.092 -0.6029  0.1824 -0.1429
  546MOL0     C73632   5.543   9.063   2.150  0.9684 -0.1166  0.1991
  546MOL0     O73633   5.414   9.116   2.145 -0.2151  0.0902 -0.2342
  546MOL0     C73634   5.329   9.078   2.035 -0.2014 -0.4597  0.6455
  546MOL0     C73635   5.221   8.967   2.082  0.3606  0.0379  0.2049
  546MOL0     C73636   5.114   8.956   1.976 -0.2430 -0.1785  0.0105
  546MOL0     C73637   4.993   9.053   1.985  0.3507 -0.1078  0.1606
  546MOL0     C73638   4.944   9.073   2.121  0.7900  0.6280 -0.6065
  546MOL0     C73639   4.906   9.058   2.240 -0.8559 -0.1317 -0.2776
  546MOL0     C73640   5.565   8.942   2.213  0.4119 -1.0404  0.3998
  546MOL0     C73641   5.697   8.893   2.231  0.1322  0.5125  0.4530
  546MOL0     C73642   5.731   8.770   2.296  0.0001 -0.5160 -0.2742
  546MOL0     H73643   6.209   8.811   2.250  3.1473 -0.8327  0.9571
  546MOL0     H73644   6.465   8.848   2.248 -1.3756 -0.2799  0.0103
  546MOL0     H73645   6.674   8.881   2.218 -3.3951  1.7285  0.9699
  546MOL0     H73646   6.656   8.925   2.045  0.0029  2.4704 -0.6061
  546MOL0     H73647   6.850   9.053   2.241 -1.3041  2.5158 -0.6578
  546MOL0     H73648   6.816   9.109   2.084  0.1925 -0.6819 -0.9408
  546MOL0     H73649   6.891   8.897   1.984 -2.3730 -0.2910  0.3967
  546MOL0     H73650   6.934   8.839   2.150  1.4881 -1.4424 -1.4422
  546MOL0     H73651   7.065   9.084   2.004  0.5410  1.2713  1.2585
  546MOL0     H73652   7.079   9.043   2.181 -1.7776  3.3792 -0.3479
  546MOL0     H73653   7.160   8.844   1.961 -0.3657 -0.3100  0.3134
  546MOL0     H73654   7.270   8.964   2.011 -0.5066 -0.8208 -1.2752
  546MOL0     H73655   7.244   8.879   2.246 -0.1809  1.0435 -0.6148
  546MOL0     H73656   7.128   8.754   2.183 -1.5490  0.3271 -2.5447
  546MOL0     H73657   7.421   8.786   2.111  1.3060 -0.9026  1.8770
  546MOL0     H73658   7.317   8.649   2.060  4.1455 -3.3541  0.3092
  546MOL0     H73659   7.422   8.721   2.344  0.7957  1.2978 -0.8188
  546MOL0     H73660   7.298   8.597   2.296  0.5422  0.1860  0.7439
  546MOL0     H73661   7.653   8.688   2.265  1.4251 -1.1588  1.8588
  546MOL0     H73662   7.886   8.534   2.230  0.4658  1.6935 -1.1362
  546MOL0     H73663   7.851   8.366   2.161  0.8133  0.3186 -1.3854
  546MOL0     H73664   7.849   8.639   2.033  1.4903 -0.5706 -0.7816
  546MOL0     H73665   7.967   8.520   2.013 -0.2669  1.7153 -2.6722
  546MOL0     H73666   7.678   8.493   1.948  0.1299 -0.9482  1.5879
  546MOL0     H73667   7.804   8.368   1.916  0.2378  0.0740  0.9100
  546MOL0     H73668   7.820   8.627   1.766  2.0813 -0.4915 -2.4039
  546MOL0     H73669   7.714   8.484   1.725  1.5367 -1.0224 -0.8068
  546MOL0     H73670   8.010   8.694   1.823  0.0149  0.0787 -0.4109
  546MOL0     H73671   8.252   8.739   1.864 -0.7686  1.7896 -0.8070
  546MOL0     H73672   8.714   8.355   1.770  2.9219 -2.1174 -2.0448
  546MOL0     H73673   8.955   8.384   1.787 -0.1796  1.7410  1.4877
  546MOL0     H73674   9.139   8.781   1.652 -0.3118 -3.0848 -2.3504
  546MOL0     H73675   9.124   8.771   1.821  1.0419  1.3930  0.3755
  546MOL0     H73676   9.301   8.591   1.818 -3.0664 -0.7618 -1.7816
  546MOL0     H73677   9.330   8.634   1.648  1.9295  1.0900 -0.3750
  546MOL0     H73678   9.453   8.819   1.707 -4.0747  1.1564 -2.2959
  546MOL0     H73679   9.342   8.857   1.845  0.8143  0.7575  0.7606
  546MOL0     H73680   9.551   8.633   1.828 -1.6460 -0.0841 -1.6997
  546MOL0     H73681   9.448   8.663   1.962  1.4037 -1.7440  0.0210
  546MOL0     H73682   9.578   8.886   1.982 -0.5526 -0.9938  1.3541
  546MOL0     H73683   9.678   8.842   1.848  2.1179  0.1766  3.2762
  546MOL0     H73684   9.663   8.678   2.092  2.2416 -4.0679 -1.5704
  546MOL0     H73685   9.787   8.661   1.967  0.3052 -0.6248  0.8414
  546MOL0     H73686   9.740   8.906   2.155 -0.2609 -0.9594  1.9838
  546MOL0     H73687   9.870   8.890   2.050  0.4108  1.0829  2.0866
  546MOL0     H73688   9.919   8.817   2.295  1.6032 -0.4803 -1.6654
  546MOL0     H73689   9.816   8.675   2.272 -0.6475 -0.3227  0.4390
  546MOL0     H73690   8.909   8.798   1.647  2.7018  0.3155  3.0791
  546MOL0     H73691   8.668   8.751   1.619 -1.1499 -2.0059 -0.7647
  546MOL0     H73692   8.347   8.426   1.589 -1.0290 -0.8382 -1.7575
  546MOL0     H73693   8.102   8.351   1.585  0.5709 -1.6949  1.9633
  546MOL0     H73694   6.437   9.235   2.097  0.4284 -0.0516  0.3546
  546MOL0     H73695   6.173   9.210   2.080  0.1912  0.4828  1.7911
  546MOL0     H73696   5.847   9.151   2.062  1.8981 -2.4132 -0.2730
  546MOL0     H73697   5.623   9.230   2.037 -2.7263  0.0066  0.1855
  546MOL0     H73698   5.380   9.021   1.957  1.3162  0.5814  0.8311
  546MOL0     H73699   5.292   9.168   1.985  2.2656  1.0956  1.4494
  546MOL0     H73700   5.175   9.015   2.169 -0.7988  0.0529 -0.3945
  546MOL0     H73701   5.262   8.868   2.105 -1.1629 -0.7793 -0.4944
  546MOL0     H73702   5.070   8.857   1.993 -1.4919  0.2241 -0.7073
  546MOL0     H73703   5.161   8.955   1.877 -0.5441  0.5645 -0.1437
  546MOL0     H73704   5.028   9.145   1.938  1.0117 -0.7391 -0.6129
  546MOL0     H73705   4.912   9.015   1.922  1.3814 -0.0744 -1.2312
  546MOL0     H73706   4.876   9.044   2.342  0.5716 -0.8948  0.0619
  546MOL0     H73707   5.477   8.896   2.256 -0.3853 -0.4032 -0.4928
  546MOL0     H73708   5.800   8.714   2.232 -2.5165 -0.8926 -2.8811
  546MOL0     H73709   5.770   8.775   2.399 -0.0682 -0.0829 -0.2676
  546MOL0     H73710   5.649   8.700   2.316 -0.1823  0.2867  2.1231
  547MOL0     O73711   9.538   1.672   2.886  0.3394  0.2598  0.3531
  547MOL0     C73712   9.483   1.768   2.945 -0.5317  0.3486 -0.0293
  547MOL0     O73713   9.522   1.899   2.934  0.2925  0.3648  0.0581
  547MOL0     C73714   9.638   1.916   2.873  0.6265 -0.5396 -0.1534
  547MOL0     C73715   9.760   1.907   2.948 -0.0608 -0.7047 -1.4512
  547MOL0     C73716   9.884   1.944   2.892 -0.1823  0.5950  0.2086
  547MOL0     C73717   9.886   1.981   2.756  0.0560  0.0478  0.5745
  547MOL0     O73718   9.994   2.026   2.688  0.0187 -0.0509 -0.0225
  547MOL0     C73719  10.114   2.044   2.765 -0.2318 -0.0394 -0.6215
  547MOL0     C73720  10.229   2.110   2.678  0.7168 -0.4713 -0.3126
  547MOL0     C73721  10.364   2.125   2.744 -0.6797  0.1709  0.0417
  547MOL0     C73722  10.449   2.220   2.665 -0.3716  0.2862 -0.7807
  547MOL0     C73723  10.595   2.208   2.680 -0.3958  0.4214  0.4540
  547MOL0     C73724  10.657   2.261   2.809  0.1454  0.4006 -1.4941
  547MOL0     C73725  10.651   2.415   2.826 -0.8270  1.1502  0.2614
  547MOL0     C73726  10.744   2.499   2.735 -0.1171 -0.6179 -0.6620
  547MOL0     N73727  10.884   2.461   2.765 -0.0875 -1.0086 -0.2523
  547MOL0     C73728  10.935   2.456   2.889  0.6332 -0.0848  0.1969
  547MOL0     C73729  11.053   2.393   2.882  0.3670  0.3349  0.5270
  547MOL0     C73730  11.135   2.326   2.991 -0.5516 -0.5396  0.4277
  547MOL0     C73731  11.068   2.316   3.135  0.4011 -0.5607 -0.6834
  547MOL0     C73732  10.970   2.197   3.146  0.2812 -0.0413 -0.2579
  547MOL0     C73733  10.908   2.179   3.284  0.9642 -0.3602  0.4212
  547MOL0     O73734  10.800   2.267   3.320  0.2637  0.1503  0.1666
  547MOL0     C73735  10.680   2.255   3.269 -0.2722  0.0169  0.9612
  547MOL0     C73736  10.640   2.148   3.179 -0.0389 -0.3769  1.7357
  547MOL0     C73737  10.516   2.135   3.135 -0.4423  0.0473  0.8205
  547MOL0     C73738  10.423   2.235   3.167  0.2331  1.0977  0.1611
  547MOL0     C73739  10.283   2.215   3.123 -0.3454 -0.1383  0.0381
  547MOL0     O73740  10.205   2.326   3.139 -0.2451 -0.7354  0.4777
  547MOL0     C73741  10.075   2.327   3.105  0.2685 -0.7311 -0.3616
  547MOL0     C73742   9.990   2.280   3.203  1.0123  0.3163 -0.4934
  547MOL0     C73743   9.851   2.264   3.167 -0.5502  0.0932  0.0164
  547MOL0     C73744   9.805   2.298   3.033  0.1993  0.1347 -0.2379
  547MOL0     O73745   9.673   2.288   2.978 -1.2853  0.1602 -0.3047
  547MOL0     C73746   9.569   2.262   3.067 -0.7084  0.5058  0.2495
  547MOL0     C73747   9.438   2.329   3.025  0.1723 -0.1316  0.2708
  547MOL0     C73748   9.323   2.283   3.127 -0.2229 -0.9220 -0.2124
  547MOL0     C73749   9.179   2.286   3.064 -0.2951 -0.3678 -0.3937
  547MOL0     C73750   9.146   2.430   3.019 -0.6478  0.2234  0.0703
  547MOL0     C73751   9.020   2.436   2.944 -0.1851  0.6291 -0.3119
  547MOL0     C73752   8.997   2.581   2.892 -0.6948 -0.4297  0.2793
  547MOL0     C73753   9.084   2.645   2.788 -0.2711  0.7078 -0.3282
  547MOL0    Cl73754   9.037   2.806   2.746 -0.0076 -0.1843 -0.7437
  547MOL0     C73755   9.902   2.345   2.942 -0.4151 -0.5061 -0.7151
  547MOL0     C73756  10.036   2.369   2.985  0.1853 -0.3144 -0.1704
  547MOL0     O73757  10.243   2.103   3.085 -0.8193  0.0612 -0.4348
  547MOL0     C73758  10.459   2.331   3.264  0.6034  1.1808 -1.0670
  547MOL0     C73759  10.582   2.340   3.316  0.1491  1.3865  0.0058
  547MOL0     N73760  11.080   2.379   2.749  0.3469 -0.5733 -0.0098
  547MOL0     N73761  10.983   2.432   2.678 -0.0449  0.8441  0.0107
  547MOL0     C73762   9.774   1.974   2.683 -0.2589  0.3503 -0.0755
  547MOL0     C73763   9.647   1.954   2.743 -0.3040 -0.5814 -0.0522
  547MOL0     C73764   9.377   1.746   3.036  0.5185 -0.8005  0.0311
  547MOL0     C73765   9.302   1.856   3.079  0.4543 -0.8682  0.5393
  547MOL0     C73766   9.184   1.857   3.158 -0.1279  0.7392  0.0148
  547MOL0     C73767   9.133   1.731   3.192  0.4187  1.3127 -0.7523
  547MOL0     O73768   9.014   1.708   3.258  0.2459 -0.3224 -0.1020
  547MOL0     C73769   8.965   1.820   3.330  0.0689  0.4488 -0.6968
  547MOL0     C73770   8.871   1.769   3.433  0.1585 -0.0244  0.4161
  547MOL0     C73771   8.931   1.672   3.535 -1.0146 -0.9550 -0.6977
  547MOL0     C73772   8.829   1.630   3.640 -0.1426 -0.5202 -0.2719
  547MOL0     C73773   8.782   1.738   3.729  0.7419 -0.8048  0.2457
  547MOL0     C73774   8.725   1.833   3.784 -0.3679  0.2323  0.0353
  547MOL0     C73775   9.202   1.611   3.151 -0.0691 -0.3382  0.4454
  547MOL0     C73776   9.320   1.625   3.073 -0.1208  1.0921  0.0033
  547MOL0     C73777   9.392   1.491   3.029  0.6906 -0.2912  0.4016
  547MOL0     H73778   9.739   1.880   3.051  0.9143 -1.8594 -1.5320
  547MOL0     H73779   9.970   1.959   2.956 -0.5476 -0.4101  0.9690
  547MOL0     H73780  10.087   2.117   2.841 -0.1476  1.0951 -1.6419
  547MOL0     H73781  10.147   1.950   2.809 -3.4247 -1.4859 -1.0422
  547MOL0     H73782  10.186   2.205   2.644 -0.6364 -0.9035  0.0893
  547MOL0     H73783  10.255   2.051   2.590  1.9699 -0.9749  0.3783
  547MOL0     H73784  10.409   2.025   2.743  1.1771  0.9467  1.2124
  547MOL0     H73785  10.355   2.153   2.850 -0.2280  2.1299 -0.3975
  547MOL0     H73786  10.427   2.191   2.562  1.0570  3.0513 -1.9806
  547MOL0     H73787  10.417   2.322   2.691 -2.2429 -0.5316  0.3001
  547MOL0     H73788  10.616   2.103   2.661 -0.3097  0.7724 -1.5803
  547MOL0     H73789  10.633   2.265   2.595 -0.9143  0.5457  0.3045
  547MOL0     H73790  10.610   2.208   2.892  1.3560  0.8169 -0.5181
  547MOL0     H73791  10.762   2.236   2.825 -0.6508 -0.7671  3.2649
  547MOL0     H73792  10.664   2.446   2.931  1.1418  3.7889 -0.6452
  547MOL0     H73793  10.548   2.448   2.813 -0.7031  2.0012  1.2341
  547MOL0     H73794  10.714   2.488   2.630 -4.4013  1.2151  0.1732
  547MOL0     H73795  10.734   2.605   2.756  1.1088 -0.5110 -0.5149
  547MOL0     H73796  10.884   2.479   2.982  0.9161 -1.0826  0.6112
  547MOL0     H73797  11.164   2.231   2.945 -1.2933 -0.8616  0.6085
  547MOL0     H73798  11.232   2.375   2.998 -0.1563 -0.9973 -1.2556
  547MOL0     H73799  11.141   2.297   3.214 -1.4598 -4.1535  0.4108
  547MOL0     H73800  11.018   2.411   3.157  0.6088  0.4459 -3.9327
  547MOL0     H73801  11.027   2.108   3.117  1.2956 -0.0667  1.6738
  547MOL0     H73802  10.886   2.211   3.077  2.2591  0.6763 -2.6518
  547MOL0     H73803  10.999   2.199   3.342  1.1938  1.0036 -0.3607
  547MOL0     H73804  10.873   2.076   3.296 -0.3172 -0.0756 -0.7224
  547MOL0     H73805  10.704   2.067   3.145  1.6397  1.3823  0.5269
  547MOL0     H73806  10.486   2.051   3.074  1.2223 -0.1341  0.2180
  547MOL0     H73807  10.018   2.243   3.301 -1.0428  1.4884  0.5984
  547MOL0     H73808   9.786   2.218   3.241  1.4203 -0.3970  1.5157
  547MOL0     H73809   9.573   2.153   3.077  1.1792  0.4584 -0.5497
  547MOL0     H73810   9.587   2.299   3.168 -0.2707 -1.3692  0.8898
  547MOL0     H73811   9.458   2.436   3.023  4.4449 -0.7433  1.0119
  547MOL0     H73812   9.404   2.300   2.925 -1.5367  0.8926  0.5081
  547MOL0     H73813   9.334   2.181   3.167  1.7522 -1.1513 -1.2417
  547MOL0     H73814   9.334   2.348   3.215  1.3363 -2.0251  0.4617
  547MOL0     H73815   9.114   2.252   3.145 -0.7909 -1.2957 -1.1724
  547MOL0     H73816   9.178   2.215   2.981  2.8933 -0.5494 -0.4036
  547MOL0     H73817   9.228   2.466   2.956  2.0311  1.3173  3.8373
  547MOL0     H73818   9.144   2.496   3.106 -1.8306 -0.3345  0.4860
  547MOL0     H73819   9.012   2.373   2.856 -1.3540  0.0087  0.2090
  547MOL0     H73820   8.935   2.399   3.002  0.3937 -1.9335 -1.0090
  547MOL0     H73821   8.991   2.651   2.975  0.5774  1.0020 -0.7959
  547MOL0     H73822   8.897   2.586   2.849 -1.7715  1.8626  2.7698
  547MOL0     H73823   9.186   2.651   2.827 -0.9619  2.3747  1.3909
  547MOL0     H73824   9.091   2.580   2.700 -0.0872  0.9494 -0.4933
  547MOL0     H73825   9.870   2.376   2.843 -3.3872 -2.2229 -0.3881
  547MOL0     H73826  10.101   2.417   2.913 -2.0060  0.8378 -1.5185
  547MOL0     H73827  10.378   2.393   3.302  1.6687  0.3616  3.0008
  547MOL0     H73828  10.610   2.408   3.396 -0.1210  0.8098  0.6019
  547MOL0     H73829   9.780   2.031   2.591 -1.7936  2.6270  1.1366
  547MOL0     H73830   9.549   1.973   2.701 -0.9579 -0.9106  1.2661
  547MOL0     H73831   9.323   1.960   3.057 -0.6647 -0.8622 -0.6132
  547MOL0     H73832   9.144   1.954   3.185  1.2818  0.6838  2.5842
  547MOL0     H73833   8.919   1.889   3.259 -0.4958 -1.1825 -1.9701
  547MOL0     H73834   9.058   1.859   3.372  0.8502 -0.5063 -1.5053
  547MOL0     H73835   8.799   1.704   3.382  2.4946  0.2960 -3.7561
  547MOL0     H73836   8.817   1.852   3.480 -1.8392 -1.3939  0.6908
  547MOL0     H73837   9.003   1.736   3.587 -2.0984  0.8150 -1.2831
  547MOL0     H73838   8.986   1.583   3.503  1.0080  0.3590 -1.0786
  547MOL0     H73839   8.740   1.588   3.593 -1.6381  1.1319  0.9779
  547MOL0     H73840   8.872   1.551   3.703 -0.4561 -0.0401  0.5523
  547MOL0     H73841   8.654   1.907   3.815 -0.6683  0.8627 -2.0268
  547MOL0     H73842   9.145   1.520   3.167 -0.6534 -0.3794 -1.5803
  547MOL0     H73843   9.341   1.405   3.073 -0.2715 -1.2392 -2.4115
  547MOL0     H73844   9.390   1.474   2.921 -0.7472 -3.4959  0.8159
  547MOL0     H73845   9.495   1.498   3.065  0.1768  0.2894  1.8503
  548MOL0     O73846   2.404   1.407   2.402 -0.5595  0.4011 -0.4646
  548MOL0     C73847   2.355   1.394   2.294  1.4126  0.6347 -0.2018
  548MOL0     O73848   2.222   1.379   2.273  0.2544 -0.6574 -0.1382
  548MOL0     C73849   2.133   1.366   2.380  0.6948 -1.4845 -0.1159
  548MOL0     C73850   1.996   1.364   2.328 -0.5363  0.5180 -0.5946
  548MOL0     C73851   1.889   1.362   2.421 -0.8182 -0.3670  0.7430
  548MOL0     C73852   1.908   1.371   2.558  0.3476  0.3157  0.1330
  548MOL0     O73853   1.811   1.385   2.656  0.5358 -0.0461  0.2259
  548MOL0     C73854   1.721   1.491   2.622 -0.8108 -0.8234 -0.0035
  548MOL0     C73855   1.599   1.463   2.707 -0.9079 -0.4234 -0.4585
  548MOL0     C73856   1.500   1.576   2.712 -0.4817 -0.1607 -0.6548
  548MOL0     C73857   1.386   1.525   2.799  0.2217  0.4387 -0.1629
  548MOL0     C73858   1.270   1.602   2.753  0.8564 -0.1230 -0.9124
  548MOL0     C73859   1.155   1.565   2.843 -0.3423  0.0519 -0.9210
  548MOL0     C73860   1.033   1.558   2.765  0.8386 -0.0025  0.3841
  548MOL0     C73861   0.907   1.500   2.846 -0.0741 -0.3705  0.7497
  548MOL0     N73862   0.883   1.568   2.975  0.2011  0.0268  0.3455
  548MOL0     C73863   0.928   1.527   3.096 -1.4351 -0.1790  0.3945
  548MOL0     C73864   0.893   1.629   3.176 -0.3750 -0.4761  0.2486
  548MOL0     C73865   0.928   1.626   3.320  0.7632  0.1474  0.5250
  548MOL0     C73866   1.071   1.642   3.359  0.2692  0.2598 -0.0429
  548MOL0     C73867   1.102   1.594   3.507  0.0868 -0.0806 -0.0948
  548MOL0     C73868   1.040   1.677   3.620 -0.1451 -0.2156  0.1934
  548MOL0     O73869   1.076   1.814   3.611  0.1577  0.1322 -0.4371
  548MOL0     C73870   1.203   1.864   3.667 -0.0067 -0.6887  0.3471
  548MOL0     C73871   1.243   1.988   3.623  0.0735 -0.1839  0.7156
  548MOL0     C73872   1.373   2.033   3.666  0.0112  0.6789 -0.6960
  548MOL0     C73873   1.454   1.948   3.752  0.5414  0.2654 -0.0115
  548MOL0     C73874   1.591   1.986   3.784  0.3382  0.2339  0.3060
  548MOL0     O73875   1.646   2.088   3.717  0.0454 -0.6765 -1.0795
  548MOL0     C73876   1.777   2.124   3.748  0.3567 -0.2656 -0.2565
  548MOL0     C73877   1.861   2.151   3.640 -0.4814  0.3824 -0.9474
  548MOL0     C73878   1.993   2.170   3.656  0.9093 -0.4067  0.3443
  548MOL0     C73879   2.042   2.193   3.781  0.4300 -0.3953 -0.0393
  548MOL0     O73880   2.172   2.240   3.785  0.0232  0.0657  0.3871
  548MOL0     C73881   2.255   2.196   3.895  0.4291 -0.5196  0.5899
  548MOL0     C73882   2.401   2.191   3.849  0.3575 -0.0789  0.0465
  548MOL0     C73883   2.498   2.123   3.946 -1.0464 -0.4568 -0.4299
  548MOL0     C73884   2.651   2.163   3.937 -0.2193  0.2712  0.0260
  548MOL0     C73885   2.752   2.087   4.023  0.1889  0.5705  0.3353
  548MOL0     C73886   2.893   2.146   4.012  0.6670  0.1678  0.1560
  548MOL0     C73887   3.009   2.053   4.054  1.1597  0.2680  0.0206
  548MOL0     C73888   3.145   2.116   4.074 -0.0226 -1.2254  0.5145
  548MOL0    Cl73889   3.149   2.200   4.220  0.2424 -0.1654  0.3386
  548MOL0     C73890   1.959   2.177   3.895  0.1361  0.8286 -0.0961
  548MOL0     C73891   1.826   2.136   3.881  1.0482 -1.0832 -0.1584
  548MOL0     O73892   1.644   1.931   3.880  0.5604 -0.1115  0.5002
  548MOL0     C73893   1.408   1.823   3.788  0.5078  0.0075 -0.4508
  548MOL0     C73894   1.280   1.785   3.752 -0.4901  0.0262  0.5991
  548MOL0     N73895   0.845   1.740   3.104 -0.5436 -0.6232  0.2335
  548MOL0     N73896   0.838   1.695   2.984  0.6613  0.8988  0.2214
  548MOL0     C73897   2.041   1.361   2.606  0.0787  0.4930 -0.3640
  548MOL0     C73898   2.149   1.366   2.519  0.6255  0.1763  0.5386
  548MOL0     C73899   2.431   1.398   2.169 -0.5304  0.9984 -0.2458
  548MOL0     C73900   2.367   1.435   2.044  0.0923 -0.1910 -0.3633
  548MOL0     C73901   2.429   1.439   1.918 -0.2506  0.7106 -0.4497
  548MOL0     C73902   2.558   1.385   1.906  1.1638 -0.0852  0.3834
  548MOL0     O73903   2.630   1.381   1.788 -0.9077  0.4173  0.5361
  548MOL0     C73904   2.647   1.255   1.726  0.4479  0.1634  0.0591
  548MOL0     C73905   2.795   1.247   1.677  0.5216 -0.6256  0.6107
  548MOL0     C73906   2.835   1.360   1.583  0.3387 -0.8935  0.0096
  548MOL0     C73907   2.974   1.361   1.550 -0.3422 -0.4023 -1.0073
  548MOL0     C73908   3.016   1.246   1.466 -0.6863 -0.6751  0.4158
  548MOL0     C73909   3.043   1.156   1.396  0.5303 -0.2164  0.2334
  548MOL0     C73910   2.623   1.343   2.025  0.2361 -0.3411 -0.6612
  548MOL0     C73911   2.560   1.346   2.146  0.9032  0.2081  0.3058
  548MOL0     C73912   2.643   1.298   2.259  0.3541 -0.1381 -1.0838
  548MOL0     H73913   1.991   1.369   2.220  3.5808 -1.2820 -1.0761
  548MOL0     H73914   1.791   1.350   2.375 -1.2053  1.7077  0.9284
  548MOL0     H73915   1.768   1.584   2.654  0.2116 -1.3033 -0.0799
  548MOL0     H73916   1.703   1.501   2.514  1.6437 -0.0034 -0.3805
  548MOL0     H73917   1.639   1.458   2.809 -2.7964  2.7272  0.5889
  548MOL0     H73918   1.566   1.362   2.685 -0.0793 -0.7264 -0.3541
  548MOL0     H73919   1.464   1.601   2.612  0.1699  1.1581 -0.5840
  548MOL0     H73920   1.549   1.662   2.759 -0.0378 -0.0738 -1.2637
  548MOL0     H73921   1.356   1.420   2.794 -3.1957  1.3109 -0.5817
  548MOL0     H73922   1.409   1.544   2.905  0.4448 -1.0432  0.0803
  548MOL0     H73923   1.280   1.710   2.766 -0.3349  0.1346 -1.9901
  548MOL0     H73924   1.248   1.588   2.647  1.5113  0.2979 -1.1103
  548MOL0     H73925   1.180   1.480   2.906  1.0111  2.5586  2.1848
  548MOL0     H73926   1.145   1.649   2.912  2.7904  1.6193 -2.1638
  548MOL0     H73927   1.056   1.501   2.674 -1.5050 -0.9208  0.3174
  548MOL0     H73928   1.003   1.658   2.731  0.8624  0.9151  2.8738
  548MOL0     H73929   0.817   1.505   2.783  0.1575 -2.2028  0.2098
  548MOL0     H73930   0.928   1.394   2.862  1.7165  0.0620  1.4877
  548MOL0     H73931   0.977   1.436   3.128  0.7813  1.5511  2.2447
  548MOL0     H73932   0.881   1.720   3.351  2.3054  0.7323  1.2143
  548MOL0     H73933   0.887   1.540   3.373 -0.0817 -0.7912 -1.5553
  548MOL0     H73934   1.137   1.595   3.286 -1.7057  0.4990 -2.1094
  548MOL0     H73935   1.097   1.748   3.351 -2.5336  1.1559  1.4642
  548MOL0     H73936   1.211   1.604   3.517 -0.0665  1.1489  0.5560
  548MOL0     H73937   1.087   1.490   3.537  1.3317 -0.8141 -1.8691
  548MOL0     H73938   1.048   1.635   3.721 -0.5241 -0.8704 -0.0396
  548MOL0     H73939   0.931   1.674   3.615 -0.1300  0.2126 -0.5122
  548MOL0     H73940   1.196   2.035   3.537  0.2384 -2.2551 -0.5659
  548MOL0     H73941   1.423   2.123   3.629 -0.2519  1.0967 -0.0554
  548MOL0     H73942   1.840   2.151   3.534  3.2241  1.2799 -1.8387
  548MOL0     H73943   2.058   2.175   3.569  2.8534 -0.1654  1.7474
  548MOL0     H73944   2.253   2.264   3.980 -1.2202  1.5899 -1.0512
  548MOL0     H73945   2.222   2.098   3.933  0.0531 -1.0167 -0.9494
  548MOL0     H73946   2.402   2.134   3.756 -1.5984 -2.2256  1.2356
  548MOL0     H73947   2.431   2.296   3.834  0.6130 -0.2080 -0.3679
  548MOL0     H73948   2.468   2.149   4.048  2.6859  1.9104  0.2702
  548MOL0     H73949   2.489   2.014   3.937  1.2358 -0.9383  1.7856
  548MOL0     H73950   2.662   2.271   3.944 -2.1140  0.4527  0.6156
  548MOL0     H73951   2.678   2.132   3.835  2.6550  0.3610  0.6781
  548MOL0     H73952   2.746   1.981   3.996 -0.6981  0.8849 -0.7787
  548MOL0     H73953   2.725   2.088   4.129  0.5536  2.8731  0.4548
  548MOL0     H73954   2.915   2.178   3.910  0.0228  1.2414  0.3351
  548MOL0     H73955   2.900   2.231   4.081 -0.2575  0.1453  0.2862
  548MOL0     H73956   3.029   1.983   3.972 -1.0765  0.4380 -0.7448
  548MOL0     H73957   2.973   2.003   4.145  1.1048  1.6892  0.8107
  548MOL0     H73958   3.226   2.043   4.066  1.9988  0.8671  0.8938
  548MOL0     H73959   3.156   2.193   3.996 -2.9150 -1.0647  0.1628
  548MOL0     H73960   1.986   2.193   3.999 -0.5406  2.1616 -0.1006
  548MOL0     H73961   1.765   2.128   3.971  0.3499  2.0999 -0.2239
  548MOL0     H73962   1.469   1.755   3.847  2.9193  2.5073  0.1328
  548MOL0     H73963   1.238   1.689   3.779 -1.2135 -0.0424 -0.7043
  548MOL0     H73964   2.056   1.354   2.714 -2.1795 -2.8027 -0.1361
  548MOL0     H73965   2.246   1.358   2.566  0.3877 -0.6611  0.8906
  548MOL0     H73966   2.266   1.476   2.051 -0.0449 -0.1891 -1.8625
  548MOL0     H73967   2.377   1.473   1.828 -0.8470  0.6959 -0.1132
  548MOL0     H73968   2.583   1.244   1.638  0.5711 -1.4179  0.1260
  548MOL0     H73969   2.626   1.170   1.791 -3.2091  0.6291 -0.3209
  548MOL0     H73970   2.811   1.152   1.627  1.2412 -0.5887  0.7645
  548MOL0     H73971   2.868   1.244   1.758  3.9414  1.6177 -2.0899
  548MOL0     H73972   2.806   1.455   1.628  2.5935 -0.1541  0.0347
  548MOL0     H73973   2.784   1.344   1.488  4.5544 -1.2843 -2.4328
  548MOL0     H73974   2.995   1.453   1.494  0.5240  2.0282  2.9493
  548MOL0     H73975   3.032   1.360   1.642 -2.0237  1.0075  0.1350
  548MOL0     H73976   3.064   1.074   1.331 -1.5379 -0.2558 -0.4513
  548MOL0     H73977   2.729   1.321   2.029  0.4834  0.9567  2.2079
  548MOL0     H73978   2.733   1.246   2.224  1.1141 -1.4289  2.3416
  548MOL0     H73979   2.671   1.379   2.328 -0.0157 -0.7741 -0.1584
  548MOL0     H73980   2.586   1.233   2.327 -0.7502  2.2967  0.4533
  549MOL0     O73981  10.352   2.028  10.190 -0.4113  0.0377  0.2355
  549MOL0     C73982  10.274   1.985  10.099  0.7580  0.2514  1.2496
  549MOL0     O73983  10.278   2.029   9.971 -0.0951 -0.0437 -0.3648
  549MOL0     C73984  10.381   2.114   9.941 -0.0665  0.0314  0.5659
  549MOL0     C73985  10.364   2.255   9.948  0.0660  0.0878 -0.3786
  549MOL0     C73986  10.468   2.334   9.920  0.3464 -0.3356  0.2028
  549MOL0     C73987  10.589   2.280   9.865  0.1970  0.3302 -0.2696
  549MOL0     O73988  10.687   2.378   9.843  0.4141  0.0029 -0.6488
  549MOL0     C73989  10.821   2.340   9.801  0.1917 -0.9908  0.4564
  549MOL0     C73990  10.929   2.443   9.841 -0.1603 -0.2140  0.0202
  549MOL0     C73991  11.065   2.383   9.794 -0.3819  0.5764 -0.3442
  549MOL0     C73992  11.178   2.476   9.839 -1.2589  0.4709  0.1018
  549MOL0     C73993  11.310   2.413   9.802  0.7831  0.1313 -0.5106
  549MOL0     C73994  11.433   2.503   9.839 -1.1015  0.4620  0.7548
  549MOL0     C73995  11.565   2.430   9.812  0.0488  0.3300  0.4038
  549MOL0     C73996  11.687   2.521   9.826 -0.1017  0.6065  0.3876
  549MOL0     N73997  11.743   2.569   9.704  0.4910 -0.7714  0.2898
  549MOL0     C73998  11.842   2.496   9.640 -0.8314  0.1885  1.0437
  549MOL0     C73999  11.890   2.583   9.543 -0.8137 -0.0020  0.4678
  549MOL0     C74000  11.992   2.561   9.439 -0.5608 -1.3012  0.2627
  549MOL0     C74001  12.140   2.569   9.497  0.0067  0.8094  0.7031
  549MOL0     C74002  12.184   2.710   9.529 -0.0472 -0.2981  0.3286
  549MOL0     C74003  12.326   2.732   9.521  0.3047  0.4047  0.6076
  549MOL0     O74004  12.374   2.714   9.381 -0.3170  0.5524 -0.3654
  549MOL0     C74005  12.505   2.736   9.350  0.7217 -0.6360 -0.4095
  549MOL0     C74006  12.533   2.697   9.222  1.2870  0.0739 -0.1984
  549MOL0     C74007  12.668   2.696   9.182 -0.5129 -0.3538 -0.3088
  549MOL0     C74008  12.765   2.753   9.261 -0.2274 -0.7192 -0.6676
  549MOL0     C74009  12.908   2.772   9.224 -0.4512 -0.3438 -0.1835
  549MOL0     O74010  12.942   2.708   9.115  0.1362 -1.1370  0.0936
  549MOL0     C74011  13.074   2.681   9.096  0.7674 -0.3508 -0.4638
  549MOL0     C74012  13.109   2.552   9.070  0.5053 -0.5804 -0.4529
  549MOL0     C74013  13.243   2.506   9.065 -0.3962 -0.2304 -1.4193
  549MOL0     C74014  13.348   2.594   9.065 -0.9924  0.5608  0.0459
  549MOL0     O74015  13.476   2.559   9.034  0.3544 -0.3652  0.4222
  549MOL0     C74016  13.533   2.439   9.085 -0.6367 -0.2415  0.3693
  549MOL0     C74017  13.672   2.440   9.018  0.6630  0.5164  0.0353
  549MOL0     C74018  13.766   2.554   9.056  0.5414 -0.2793  0.5184
  549MOL0     C74019  13.887   2.553   8.959 -0.7582 -1.0025  0.1652
  549MOL0     C74020  13.968   2.678   8.998  0.5748  0.6981  0.3798
  549MOL0     C74021  14.111   2.697   8.932  1.1426  0.1414  0.5249
  549MOL0     C74022  14.219   2.614   9.004  0.6722 -0.2967 -1.0277
  549MOL0     C74023  14.357   2.644   8.954 -0.6784  0.4664  0.2642
  549MOL0    Cl74024  14.490   2.545   9.025  0.1723 -0.0151  0.2511
  549MOL0     C74025  13.313   2.722   9.098 -0.8500 -0.1386 -0.1898
  549MOL0     C74026  13.181   2.775   9.100  0.1157  0.4431  0.1142
  549MOL0     O74027  12.986   2.824   9.302 -0.4481  0.5749  0.4883
  549MOL0     C74028  12.731   2.801   9.390  0.3783  0.0475 -0.3268
  549MOL0     C74029  12.597   2.794   9.437 -0.1072  0.2097  0.7849
  549MOL0     N74030  11.833   2.705   9.555  0.2488 -0.2699 -0.3873
  549MOL0     N74031  11.742   2.691   9.646  0.2210  0.5937  0.1250
  549MOL0     C74032  10.596   2.140   9.842 -0.0801 -0.2501  0.9944
  549MOL0     C74033  10.495   2.058   9.878  0.6085  0.0161  0.1634
  549MOL0     C74034  10.183   1.884  10.152  0.4646  0.2696 -0.4707
  549MOL0     C74035  10.145   1.780  10.071  0.3374 -0.7328 -0.5499
  549MOL0     C74036  10.050   1.689  10.110  0.8101 -0.3488  0.5756
  549MOL0     C74037   9.989   1.691  10.242 -0.4754  0.0259  0.6876
  549MOL0     O74038   9.885   1.614  10.289  0.2723 -0.3982  0.0269
  549MOL0     C74039   9.846   1.499  10.210 -0.4146  0.1464  0.7542
  549MOL0     C74040   9.719   1.436  10.275 -1.0390 -0.1804  0.2131
  549MOL0     C74041   9.686   1.292  10.222  0.6047  0.1024 -0.0199
  549MOL0     C74042   9.583   1.214  10.309  0.2440 -0.2628  0.2087
  549MOL0     C74043   9.534   1.088  10.246  0.1054 -0.7458 -0.7146
  549MOL0     C74044   9.485   0.984  10.215  0.3893  0.1700  0.2433
  549MOL0     C74045  10.035   1.791  10.331 -0.3661  0.9962 -0.1530
  549MOL0     C74046  10.123   1.890  10.282 -0.2892 -0.5417 -0.1316
  549MOL0     C74047  10.138   2.003  10.382 -0.0533  0.6116 -0.0835
  549MOL0     H74048  10.267   2.290   9.983  0.8256  0.3755  1.5702
  549MOL0     H74049  10.450   2.439   9.937 -0.2711 -0.8474  3.2966
  549MOL0     H74050  10.834   2.245   9.855  1.0159 -0.4417  1.2659
  549MOL0     H74051  10.831   2.329   9.693  1.6880  0.2014  0.4344
  549MOL0     H74052  10.930   2.462   9.948 -0.5871  0.0584 -0.0212
  549MOL0     H74053  10.900   2.536   9.790 -0.0777 -0.6039 -0.7554
  549MOL0     H74054  11.054   2.367   9.686  1.0777 -2.3281 -0.1818
  549MOL0     H74055  11.070   2.284   9.840 -3.7201 -1.4389 -3.7683
  549MOL0     H74056  11.171   2.573   9.787 -2.6907  0.4291  0.1606
  549MOL0     H74057  11.169   2.481   9.948  0.8242 -1.6486  0.4264
  549MOL0     H74058  11.307   2.321   9.863 -3.5111  0.9119  0.8383
  549MOL0     H74059  11.311   2.389   9.696 -1.3910 -1.7653 -0.2027
  549MOL0     H74060  11.433   2.595   9.780 -1.5362 -0.0204 -0.0092
  549MOL0     H74061  11.439   2.529   9.945  2.6386 -1.0391  1.0654
  549MOL0     H74062  11.568   2.385   9.713 -3.7207  0.7472 -0.0586
  549MOL0     H74063  11.578   2.342   9.876 -0.2795 -2.4264 -3.0127
  549MOL0     H74064  11.660   2.610   9.883  2.3729  1.6981  0.0080
  549MOL0     H74065  11.768   2.463   9.871  0.2230 -0.5846 -1.6201
  549MOL0     H74066  11.876   2.392   9.636  3.5594  1.4312 -1.9319
  549MOL0     H74067  11.982   2.465   9.388 -1.4103 -0.7908 -0.5636
  549MOL0     H74068  11.985   2.636   9.360  2.4310 -0.7027  0.4416
  549MOL0     H74069  12.143   2.497   9.578 -2.8590  0.8658  0.9585
  549MOL0     H74070  12.197   2.540   9.408 -2.0903 -3.9583  0.5903
  549MOL0     H74071  12.145   2.731   9.629  0.6027 -0.6237  0.6553
  549MOL0     H74072  12.143   2.790   9.468 -1.3549 -0.3574  1.0954
  549MOL0     H74073  12.367   2.652   9.582  0.0957 -0.2608 -0.1029
  549MOL0     H74074  12.350   2.831   9.560 -0.5723  1.9612 -2.4534
  549MOL0     H74075  12.453   2.660   9.158  1.9542  1.0677 -1.6560
  549MOL0     H74076  12.700   2.649   9.089  0.7872 -0.1511  0.0070
  549MOL0     H74077  13.034   2.475   9.056  2.3064 -2.6758  0.8286
  549MOL0     H74078  13.256   2.399   9.050 -0.0709 -0.2595 -0.9283
  549MOL0     H74079  13.543   2.454   9.193  0.9469  1.4238  0.0357
  549MOL0     H74080  13.473   2.351   9.063 -0.3714 -0.2233 -0.4413
  549MOL0     H74081  13.713   2.344   9.049 -1.5386 -1.4469 -2.6486
  549MOL0     H74082  13.662   2.445   8.910  1.6060  1.1555 -0.0393
  549MOL0     H74083  13.728   2.656   9.061  1.5624  0.1282  5.4634
  549MOL0     H74084  13.797   2.530   9.158 -0.0505  1.0867  1.0495
  549MOL0     H74085  13.857   2.550   8.854  0.4801  0.3340 -0.2613
  549MOL0     H74086  13.942   2.461   8.982 -0.4934 -1.2932 -1.4875
  549MOL0     H74087  13.995   2.683   9.104  1.5180  0.0142  0.1892
  549MOL0     H74088  13.908   2.766   8.973 -2.2511 -1.0349  0.5544
  549MOL0     H74089  14.108   2.668   8.826  1.1927  0.0486  0.5490
  549MOL0     H74090  14.131   2.804   8.937 -3.2997  1.1820  0.1021
  549MOL0     H74091  14.179   2.513   8.995 -0.9768  0.2818 -0.5258
  549MOL0     H74092  14.207   2.653   9.106 -0.5192 -1.2835 -0.7691
  549MOL0     H74093  14.365   2.639   8.845 -1.9948 -0.0025  0.1715
  549MOL0     H74094  14.366   2.751   8.974 -2.5422  0.6251  0.4351
  549MOL0     H74095  13.403   2.784   9.095  1.1492 -2.6562 -5.6644
  549MOL0     H74096  13.174   2.883   9.115  1.7145  0.7019 -0.8634
  549MOL0     H74097  12.807   2.833   9.461 -0.1054 -1.0028  0.6942
  549MOL0     H74098  12.573   2.831   9.536  0.0047  2.1793  0.1224
  549MOL0     H74099  10.685   2.105   9.791 -0.8628 -1.6808  0.5443
  549MOL0     H74100  10.500   1.953   9.851 -4.5162 -0.6302  0.7154
  549MOL0     H74101  10.172   1.779   9.965 -0.6429  1.0921 -0.8638
  549MOL0     H74102  10.019   1.612  10.040 -2.8502  2.1952 -0.9269
  549MOL0     H74103   9.932   1.430  10.210  0.2711  0.9853  0.3593
  549MOL0     H74104   9.819   1.525  10.107  1.4645  1.1872  0.4897
  549MOL0     H74105   9.639   1.510  10.267  1.7838  2.9761 -1.5531
  549MOL0     H74106   9.742   1.428  10.382 -3.1804 -2.6307  0.6034
  549MOL0     H74107   9.775   1.230  10.209  2.5257  2.6940 -0.1044
  549MOL0     H74108   9.631   1.299  10.128  0.9348 -2.3928 -0.4707
  549MOL0     H74109   9.631   1.173  10.398  0.4380  0.8635  0.6448
  549MOL0     H74110   9.491   1.269  10.333 -0.8915 -0.2705 -3.4724
  549MOL0     H74111   9.444   0.887  10.193  1.3018 -0.6187  1.8283
  549MOL0     H74112   9.990   1.796  10.430 -0.5718  0.1771 -0.1951
  549MOL0     H74113  10.042   2.018  10.433  0.7948 -2.3424  2.7215
  549MOL0     H74114  10.217   1.967  10.449 -0.9555  1.9135  1.7600
  549MOL0     H74115  10.165   2.099  10.338 -2.7688  2.2514  1.5314
  550MOL0     O74116   2.428   4.099   2.504 -0.2940  0.0935  0.1619
  550MOL0     C74117   2.370   4.029   2.581  0.3723  0.8547 -0.3140
  550MOL0     O74118   2.410   3.996   2.707  0.7010 -0.8328  0.4638
  550MOL0     C74119   2.535   4.041   2.739  0.3548 -0.2754 -0.3112
  550MOL0     C74120   2.641   3.963   2.698 -0.4517 -0.4215 -0.5058
  550MOL0     C74121   2.769   4.014   2.707 -0.2604  0.2687  0.1172
  550MOL0     C74122   2.797   4.134   2.770 -0.1647 -0.2534  0.1183
  550MOL0     O74123   2.926   4.179   2.769  0.8087 -0.5963  0.0262
  550MOL0     C74124   2.961   4.271   2.873 -0.3717  1.0922 -0.1079
  550MOL0     C74125   3.113   4.309   2.848 -0.0344 -0.9507  0.2048
  550MOL0     C74126   3.214   4.234   2.932  0.1217  0.3585 -0.1466
  550MOL0     C74127   3.351   4.300   2.957  0.7099 -0.5868  0.7565
  550MOL0     C74128   3.431   4.333   2.831  1.1499 -0.3606 -0.1570
  550MOL0     C74129   3.571   4.388   2.854  0.1633  0.5029  0.1568
  550MOL0     C74130   3.655   4.387   2.725  0.0443  0.1358  0.6375
  550MOL0     C74131   3.610   4.479   2.614 -0.1752 -0.0974 -0.8465
  550MOL0     N74132   3.698   4.509   2.502  0.0852 -0.4709  0.2790
  550MOL0     C74133   3.664   4.597   2.393  0.4845  0.1168 -0.0322
  550MOL0     C74134   3.777   4.598   2.316 -0.5583 -0.1274  0.0672
  550MOL0     C74135   3.791   4.659   2.179  0.2770 -0.0787 -0.5039
  550MOL0     C74136   3.931   4.669   2.117 -0.2139 -0.4915 -0.5008
  550MOL0     C74137   4.008   4.781   2.181  0.5591 -0.8893  0.6469
  550MOL0     C74138   4.157   4.774   2.140  0.0171  0.7051  0.1273
  550MOL0     O74139   4.159   4.797   1.991 -0.1213 -0.3497 -0.6518
  550MOL0     C74140   4.282   4.820   1.934  0.0869  0.4853 -0.2120
  550MOL0     C74141   4.403   4.808   2.002 -0.7313  0.3085  0.7125
  550MOL0     C74142   4.522   4.836   1.938  0.3841  0.2826  0.0391
  550MOL0     C74143   4.521   4.877   1.805 -0.2058 -0.0330 -0.0032
  550MOL0     C74144   4.644   4.918   1.746 -0.3166 -0.8472  0.6382
  550MOL0     O74145   4.755   4.894   1.821  0.0087 -0.3964 -0.1895
  550MOL0     C74146   4.880   4.924   1.777 -0.0745  0.0534  0.0506
  550MOL0     C74147   4.948   5.036   1.820  0.5395 -1.2692  1.0680
  550MOL0     C74148   5.075   5.064   1.767  0.4041 -0.7288 -0.2817
  550MOL0     C74149   5.139   4.968   1.686  0.3415  0.2486 -0.2014
  550MOL0     O74150   5.277   4.977   1.657  0.0955  0.3087 -0.2243
  550MOL0     C74151   5.330   4.943   1.527  0.3039 -0.2068  0.2149
  550MOL0     C74152   5.451   5.034   1.491 -0.4319 -0.0395  0.3211
  550MOL0     C74153   5.578   4.979   1.547 -0.1816 -0.2621  0.5012
  550MOL0     C74154   5.702   5.063   1.509 -0.9495  0.0724 -0.8683
  550MOL0     C74155   5.826   4.994   1.568  0.1534 -0.8832 -0.0403
  550MOL0     C74156   5.948   5.086   1.592  0.4791 -1.2915 -1.0057
  550MOL0     C74157   5.999   5.177   1.479  0.6804  0.2641  0.0658
  550MOL0     C74158   6.139   5.230   1.514 -0.9496  0.1983  0.1660
  550MOL0    Cl74159   6.251   5.117   1.578 -0.3674 -0.1773 -0.1542
  550MOL0     C74160   5.066   4.858   1.643 -0.1115 -0.2093  0.0136
  550MOL0     C74161   4.937   4.835   1.690  0.3191  0.1047  0.1843
  550MOL0     O74162   4.636   4.974   1.635 -0.1776 -0.6284  0.1750
  550MOL0     C74163   4.400   4.891   1.731 -0.2137  0.5888 -0.4413
  550MOL0     C74164   4.278   4.866   1.800 -0.3172  0.3208  0.0448
  550MOL0     N74165   3.879   4.541   2.393  0.0860 -0.3857  0.1858
  550MOL0     N74166   3.835   4.487   2.502  0.3247  0.2889  0.1805
  550MOL0     C74167   2.692   4.210   2.817  0.3938 -0.1532  1.0698
  550MOL0     C74168   2.563   4.159   2.809  0.0566 -0.1514 -0.1144
  550MOL0     C74169   2.241   3.969   2.532 -0.2942 -0.2342 -0.8654
  550MOL0     C74170   2.224   3.961   2.392 -0.5376  0.1398  0.2596
  550MOL0     C74171   2.097   3.918   2.333  0.6433 -0.0145 -0.4326
  550MOL0     C74172   1.998   3.871   2.413 -1.0796  0.3920 -0.0966
  550MOL0     O74173   1.880   3.817   2.362 -0.1540 -0.5572 -0.1158
  550MOL0     C74174   1.759   3.882   2.387  0.2480 -0.2622  0.0186
  550MOL0     C74175   1.732   4.005   2.304  0.1374  0.3041  0.9149
  550MOL0     C74176   1.597   4.079   2.328  0.8742 -0.0472  0.4445
  550MOL0     C74177   1.567   4.190   2.223 -0.2142 -0.3106  0.2819
  550MOL0     C74178   1.651   4.302   2.261  0.2730 -1.1331 -0.2225
  550MOL0     C74179   1.718   4.399   2.293 -0.0652  0.1644  0.0942
  550MOL0     C74180   2.021   3.863   2.546 -0.9520  0.1921 -0.3468
  550MOL0     C74181   2.133   3.908   2.614  0.0076  0.1839  0.0820
  550MOL0     C74182   2.141   3.892   2.763 -0.8313  0.3106  0.1916
  550MOL0     H74183   2.625   3.858   2.675  2.1960 -0.5745 -2.0779
  550MOL0     H74184   2.844   3.948   2.666 -0.7332 -0.3322  0.2141
  550MOL0     H74185   2.902   4.363   2.866 -2.4518  0.1317  2.7071
  550MOL0     H74186   2.971   4.230   2.974  2.3309  1.5105 -0.1114
  550MOL0     H74187   3.112   4.413   2.881  2.3300 -0.1664 -1.8783
  550MOL0     H74188   3.136   4.309   2.741  1.2516 -1.8139  0.4667
  550MOL0     H74189   3.220   4.137   2.882 -1.9474  0.4564 -0.6832
  550MOL0     H74190   3.163   4.228   3.029 -1.7159 -0.6691 -1.1031
  550MOL0     H74191   3.331   4.392   3.013 -0.0423  2.0207 -3.4171
  550MOL0     H74192   3.416   4.226   3.006  0.7340 -0.5464  0.7844
  550MOL0     H74193   3.426   4.241   2.773 -1.6143 -3.8865  4.8617
  550MOL0     H74194   3.370   4.411   2.785 -0.1664 -0.2803  1.6202
  550MOL0     H74195   3.571   4.491   2.890  3.3694  0.3603  0.8811
  550MOL0     H74196   3.622   4.328   2.930 -2.4171 -2.0613  0.0146
  550MOL0     H74197   3.655   4.285   2.684 -3.9597 -0.1234  0.9552
  550MOL0     H74198   3.760   4.408   2.748 -0.0084  0.1361  0.8765
  550MOL0     H74199   3.519   4.425   2.587 -0.0914 -2.0317  2.2791
  550MOL0     H74200   3.571   4.568   2.665  0.8311 -1.7549  3.2850
  550MOL0     H74201   3.570   4.650   2.381  0.2986  0.0876  1.2260
  550MOL0     H74202   3.724   4.606   2.110 -1.5700  2.3232 -0.6571
  550MOL0     H74203   3.758   4.763   2.186 -4.0637 -1.3800  2.1667
  550MOL0     H74204   3.973   4.571   2.140 -1.7963 -1.5022 -1.6757
  550MOL0     H74205   3.917   4.693   2.011 -1.0485  0.5235 -0.1756
  550MOL0     H74206   4.010   4.763   2.289  2.4866 -0.4917  0.7163
  550MOL0     H74207   3.973   4.882   2.158  2.9753 -0.9720 -5.1830
  550MOL0     H74208   4.199   4.678   2.172 -2.6247  0.0380  1.9121
  550MOL0     H74209   4.209   4.851   2.197  2.0193 -1.7648  1.8316
  550MOL0     H74210   4.410   4.777   2.106  0.3085 -1.7583  0.0950
  550MOL0     H74211   4.608   4.849   2.004 -1.4839  3.9548  2.0251
  550MOL0     H74212   4.899   5.105   1.888 -0.2225 -0.9876  0.2507
  550MOL0     H74213   5.133   5.152   1.793 -0.3327 -0.7689  1.6382
  550MOL0     H74214   5.364   4.839   1.523 -0.8468 -0.7954  3.1030
  550MOL0     H74215   5.252   4.941   1.450  1.4001  1.3519 -1.0064
  550MOL0     H74216   5.446   5.051   1.383  0.8520  2.3013  0.5495
  550MOL0     H74217   5.428   5.128   1.543 -0.0041  0.7171 -0.8019
  550MOL0     H74218   5.568   4.970   1.655  1.5436 -0.0731  0.7018
  550MOL0     H74219   5.594   4.878   1.507 -0.7760 -0.7488  1.4450
  550MOL0     H74220   5.690   5.157   1.562  0.6946 -0.7536  1.0943
  550MOL0     H74221   5.706   5.074   1.400 -1.4328  0.4816 -0.8511
  550MOL0     H74222   5.844   4.913   1.496 -0.9362  0.2913 -1.7192
  550MOL0     H74223   5.806   4.947   1.664  1.4849  2.0911  1.8196
  550MOL0     H74224   5.928   5.147   1.681 -1.0049 -1.2735 -1.3270
  550MOL0     H74225   6.022   5.011   1.620  0.0742 -2.1541 -2.1680
  550MOL0     H74226   5.935   5.257   1.440 -1.8378 -1.9304 -0.5688
  550MOL0     H74227   5.999   5.114   1.389 -2.7996 -0.7663  0.6491
  550MOL0     H74228   6.180   5.277   1.424 -1.2962 -0.3859 -0.3025
  550MOL0     H74229   6.141   5.315   1.583 -0.6012  0.3429 -0.0217
  550MOL0     H74230   5.110   4.780   1.581 -2.3681 -1.7097  0.1709
  550MOL0     H74231   4.894   4.740   1.659  2.2309 -0.1598 -1.9066
  550MOL0     H74232   4.395   4.923   1.627  3.0685 -3.2692 -2.0711
  550MOL0     H74233   4.192   4.899   1.742  0.8161 -1.3003 -2.7855
  550MOL0     H74234   2.691   4.309   2.862 -0.3243  0.9473 -1.2318
  550MOL0     H74235   2.482   4.227   2.833 -1.5496 -1.4218 -1.6787
  550MOL0     H74236   2.292   4.018   2.329 -0.8084  2.4702  1.9263
  550MOL0     H74237   2.089   3.924   2.225  0.3426  2.7324 -0.3281
  550MOL0     H74238   1.756   3.914   2.492  0.4105  0.8115 -0.2868
  550MOL0     H74239   1.677   3.815   2.363 -0.2927  0.5877 -0.5338
  550MOL0     H74240   1.743   3.979   2.199  1.0338  0.5291  0.9464
  550MOL0     H74241   1.810   4.077   2.331  1.0331  0.4697 -1.8691
  550MOL0     H74242   1.585   4.113   2.431  0.6159  0.4593  0.2534
  550MOL0     H74243   1.523   4.001   2.311  1.3307 -0.5921  0.9404
  550MOL0     H74244   1.583   4.171   2.116 -1.7108  1.2408 -0.2662
  550MOL0     H74245   1.466   4.230   2.237 -0.0705 -0.2061  1.0044
  550MOL0     H74246   1.770   4.480   2.340 -1.7435  1.8275 -0.7845
  550MOL0     H74247   1.939   3.813   2.598 -1.7276  1.8110  0.0644
  550MOL0     H74248   2.232   3.836   2.786 -0.1147  0.5688 -1.8395
  550MOL0     H74249   2.158   3.990   2.809  1.0358  0.1631 -0.1040
  550MOL0     H74250   2.047   3.856   2.807  0.6276  0.4907  3.8089
  551MOL0     O74251  10.624   1.956   5.278  0.3570 -0.0189  0.8354
  551MOL0     C74252  10.558   1.912   5.373 -0.9183  0.2265 -0.2597
  551MOL0     O74253  10.595   1.919   5.507  0.2296  0.3287  0.1309
  551MOL0     C74254  10.709   1.976   5.546  0.1170 -0.4929 -0.5874
  551MOL0     C74255  10.800   1.908   5.629  0.7290 -0.1454 -0.0334
  551MOL0     C74256  10.921   1.971   5.667  0.1255  0.0440 -0.0963
  551MOL0     C74257  10.946   2.104   5.626  0.1948  0.6955  0.6133
  551MOL0     O74258  11.048   2.178   5.666  0.5537  0.3357 -0.3165
  551MOL0     C74259  11.178   2.142   5.606  0.1668  0.3451  0.1676
  551MOL0     C74260  11.229   2.228   5.492  0.4824  0.4396 -0.2376
  551MOL0     C74261  11.210   2.386   5.503  0.4351  0.6345  0.5600
  551MOL0     C74262  11.320   2.455   5.438  0.1755 -0.1577  0.0697
  551MOL0     C74263  11.318   2.608   5.468  0.9572 -0.5150  0.3352
  551MOL0     C74264  11.409   2.677   5.370 -0.0417  0.1699  0.1476
  551MOL0     C74265  11.554   2.652   5.423  1.0778 -0.2093 -0.7157
  551MOL0     C74266  11.649   2.723   5.325  0.6488 -0.3950 -0.0202
  551MOL0     N74267  11.787   2.703   5.366  0.2801 -0.4343  0.0496
  551MOL0     C74268  11.868   2.801   5.430  0.5720 -0.6269 -1.0000
  551MOL0     C74269  11.988   2.738   5.425  0.9229  0.9513 -0.9249
  551MOL0     C74270  12.118   2.793   5.470 -0.4536  0.4652  0.4781
  551MOL0     C74271  12.234   2.743   5.377  0.1001 -0.7110 -0.0484
  551MOL0     C74272  12.374   2.789   5.420  0.0899 -0.9543 -0.7348
  551MOL0     C74273  12.474   2.746   5.311 -0.5189  0.2721  0.2812
  551MOL0     O74274  12.588   2.735   5.390  0.2653 -0.0535 -0.0483
  551MOL0     C74275  12.704   2.668   5.346  0.1900 -0.2390 -0.2728
  551MOL0     C74276  12.830   2.707   5.385 -0.3075  0.0839 -1.0468
  551MOL0     C74277  12.952   2.641   5.357  0.6049 -0.7375  0.5132
  551MOL0     C74278  12.933   2.525   5.280 -0.0450 -0.3582  0.0832
  551MOL0     C74279  13.057   2.451   5.264 -0.3830 -0.2882  0.4996
  551MOL0     O74280  13.173   2.516   5.305 -0.0092 -0.4801 -0.4470
  551MOL0     C74281  13.294   2.454   5.295 -0.1613  0.6933  0.0770
  551MOL0     C74282  13.405   2.542   5.273  0.1191 -0.1227 -0.8781
  551MOL0     C74283  13.526   2.489   5.244  0.6283  0.7614  0.7656
  551MOL0     C74284  13.555   2.350   5.253 -0.1439  0.3588 -0.1326
  551MOL0     O74285  13.689   2.305   5.244  0.4509 -0.5851  0.3492
  551MOL0     C74286  13.702   2.210   5.139 -1.1860 -0.0082 -0.0828
  551MOL0     C74287  13.842   2.209   5.084 -0.2030  0.0974  0.1018
  551MOL0     C74288  13.963   2.181   5.186  0.8913 -0.1731  0.4754
  551MOL0     C74289  14.083   2.177   5.098 -0.2800 -0.2871  0.4796
  551MOL0     C74290  14.209   2.138   5.170 -0.1435  0.2494 -0.7566
  551MOL0     C74291  14.215   1.992   5.219 -0.7458 -0.6007  0.1289
  551MOL0     C74292  14.306   1.976   5.345  0.3046  0.0291  0.7599
  551MOL0     C74293  14.232   2.006   5.470 -0.5117  0.4799 -0.2057
  551MOL0    Cl74294  14.353   2.027   5.601 -0.0973  0.4162 -0.7011
  551MOL0     C74295  13.450   2.265   5.283  0.0867  0.2216 -0.4109
  551MOL0     C74296  13.319   2.311   5.308  0.2445  0.5633  0.4784
  551MOL0     O74297  13.065   2.358   5.187  0.4099  0.2736 -0.0784
  551MOL0     C74298  12.809   2.480   5.230 -0.4169 -0.3577 -0.7672
  551MOL0     C74299  12.695   2.557   5.262  0.3262 -0.3758 -0.2338
  551MOL0     N74300  11.972   2.614   5.378 -0.1925 -0.9300 -0.4266
  551MOL0     N74301  11.854   2.593   5.333 -0.6983  0.1515  1.1506
  551MOL0     C74302  10.853   2.171   5.554  0.6884 -0.2309 -0.0700
  551MOL0     C74303  10.733   2.111   5.512 -0.3019  0.7485  0.1725
  551MOL0     C74304  10.426   1.842   5.363 -0.0296 -0.6703  0.2997
  551MOL0     C74305  10.368   1.774   5.479 -0.5200 -0.6617 -0.2908
  551MOL0     C74306  10.243   1.716   5.475 -0.8211  0.7635  0.1293
  551MOL0     C74307  10.169   1.720   5.361 -0.2302 -0.2370 -0.0807
  551MOL0     O74308  10.052   1.648   5.330  0.0046 -1.0340  0.3233
  551MOL0     C74309   9.992   1.584   5.436  0.4332 -0.0398  0.0424
  551MOL0     C74310   9.867   1.509   5.387  0.0993  0.5197 -0.2924
  551MOL0     C74311   9.748   1.598   5.357  0.1967 -0.2799 -0.9494
  551MOL0     C74312   9.637   1.528   5.267 -0.2634  0.4954 -0.8337
  551MOL0     C74313   9.516   1.610   5.270  0.3909 -0.0708 -0.3545
  551MOL0     C74314   9.418   1.678   5.279  0.3113 -0.6706  0.1669
  551MOL0     C74315  10.215   1.799   5.251  0.6324  0.5355 -0.3430
  551MOL0     C74316  10.341   1.863   5.250  0.2492 -0.0785  0.3310
  551MOL0     C74317  10.377   1.941   5.131 -0.2459  0.4347  0.0126
  551MOL0     H74318  10.768   1.808   5.656  0.5249  0.1760  0.9547
  551MOL0     H74319  10.998   1.922   5.725  0.3473  2.4995  1.8874
  551MOL0     H74320  11.252   2.124   5.684  0.1584 -3.3198 -0.4646
  551MOL0     H74321  11.172   2.040   5.566  3.2135  0.0214  0.3371
  551MOL0     H74322  11.167   2.202   5.405  1.5312  0.0595 -0.8978
  551MOL0     H74323  11.331   2.205   5.460  1.3078  3.2283  0.1819
  551MOL0     H74324  11.202   2.406   5.610 -0.3719  0.6412  0.5057
  551MOL0     H74325  11.115   2.413   5.458  0.6083 -3.7462 -3.1733
  551MOL0     H74326  11.415   2.422   5.480  2.4133  5.0089 -0.2014
  551MOL0     H74327  11.328   2.427   5.332  2.8582 -0.5699  0.3092
  551MOL0     H74328  11.225   2.660   5.443  1.4131 -0.4828 -1.4018
  551MOL0     H74329  11.348   2.633   5.571 -2.6385  1.6902  1.0249
  551MOL0     H74330  11.389   2.632   5.272 -0.4318 -1.5394  0.9874
  551MOL0     H74331  11.386   2.784   5.371 -3.7491 -0.5022  1.1611
  551MOL0     H74332  11.587   2.547   5.427  0.4823 -0.4102  3.5219
  551MOL0     H74333  11.559   2.693   5.524  1.8421  0.8147 -1.1476
  551MOL0     H74334  11.639   2.696   5.219  0.7252  1.4468 -0.5246
  551MOL0     H74335  11.630   2.831   5.327  2.4795 -0.0662  0.7177
  551MOL0     H74336  11.833   2.895   5.471 -1.0799 -0.4576 -2.6887
  551MOL0     H74337  12.108   2.901   5.474  4.4212  1.0885  2.0980
  551MOL0     H74338  12.144   2.756   5.570  0.7542 -0.2935 -0.0934
  551MOL0     H74339  12.237   2.634   5.384  2.5874 -0.6579  0.6786
  551MOL0     H74340  12.227   2.762   5.270 -1.4062 -3.1361 -0.4584
  551MOL0     H74341  12.392   2.744   5.518  0.3823  1.0970  0.2062
  551MOL0     H74342  12.364   2.898   5.425  1.3482 -0.8283 -0.7550
  551MOL0     H74343  12.482   2.817   5.228  1.6876 -0.3693 -0.1139
  551MOL0     H74344  12.448   2.647   5.271  2.8053 -1.2647  1.5983
  551MOL0     H74345  12.839   2.795   5.448  0.2683 -1.2707  0.8339
  551MOL0     H74346  13.042   2.683   5.401 -1.0511  2.1853  1.3711
  551MOL0     H74347  13.377   2.646   5.275  3.3342  0.8493  1.0082
  551MOL0     H74348  13.601   2.563   5.218 -0.1104  1.6004  0.9602
  551MOL0     H74349  13.689   2.111   5.185  1.4142 -1.2145 -1.7483
  551MOL0     H74350  13.627   2.216   5.060 -0.5287  0.0731 -0.7063
  551MOL0     H74351  13.844   2.146   4.994  1.2632  0.0642  0.1250
  551MOL0     H74352  13.859   2.306   5.037 -1.4851  0.3350  0.1028
  551MOL0     H74353  13.969   2.250   5.271 -1.3008  1.2874 -0.4388
  551MOL0     H74354  13.948   2.090   5.244  0.9752  0.1242  0.9626
  551MOL0     H74355  14.098   2.282   5.071 -1.6958 -0.1097  0.3110
  551MOL0     H74356  14.061   2.126   5.004 -3.6397  3.0160 -0.7866
  551MOL0     H74357  14.222   2.198   5.260  1.7295 -0.8793 -0.1978
  551MOL0     H74358  14.295   2.159   5.105  0.0793 -1.9011 -1.2428
  551MOL0     H74359  14.114   1.970   5.255 -0.2579 -3.2007  0.1048
  551MOL0     H74360  14.236   1.928   5.133 -0.7060 -1.2313  0.6007
  551MOL0     H74361  14.395   2.039   5.339  0.3983 -0.0923  0.8757
  551MOL0     H74362  14.343   1.873   5.346  0.5064  0.0103 -1.7325
  551MOL0     H74363  14.193   2.108   5.465 -0.8948  0.3352 -0.2212
  551MOL0     H74364  14.153   1.934   5.497  1.3817 -2.1481 -1.1929
  551MOL0     H74365  13.458   2.157   5.290 -1.6211 -0.0631 -1.9604
  551MOL0     H74366  13.244   2.234   5.323  0.0663  1.1149  2.9234
  551MOL0     H74367  12.797   2.382   5.184  0.1776  0.8116 -3.6651
  551MOL0     H74368  12.604   2.514   5.220 -1.2447 -0.1428  2.7052
  551MOL0     H74369  10.885   2.266   5.514 -2.8244  2.2349  2.3810
  551MOL0     H74370  10.660   2.157   5.446 -1.8497 -1.8808 -0.0879
  551MOL0     H74371  10.414   1.777   5.578 -0.6296  1.0014 -0.2516
  551MOL0     H74372  10.213   1.673   5.570 -3.9153  1.8775 -0.2099
  551MOL0     H74373   9.968   1.658   5.514 -0.4652  2.1464 -2.1608
  551MOL0     H74374  10.059   1.502   5.462  1.7651 -0.0780 -3.0953
  551MOL0     H74375   9.848   1.426   5.456  1.6063 -1.0454 -1.6708
  551MOL0     H74376   9.886   1.446   5.300  1.7835 -2.8403  2.2695
  551MOL0     H74377   9.792   1.680   5.300 -1.1640  2.2361  1.3957
  551MOL0     H74378   9.706   1.649   5.444  0.0614  1.4715 -1.9952
  551MOL0     H74379   9.663   1.506   5.163 -3.1709 -1.7897 -1.1980
  551MOL0     H74380   9.620   1.429   5.310 -1.8015  0.0927 -2.2837
  551MOL0     H74381   9.337   1.748   5.275  0.5395 -0.0786  3.2025
  551MOL0     H74382  10.140   1.795   5.172 -0.5767  0.9583  0.7438
  551MOL0     H74383  10.444   1.882   5.068 -2.5054 -0.8961 -1.2837
  551MOL0     H74384  10.287   1.946   5.069  0.2925  2.9825 -0.7011
  551MOL0     H74385  10.412   2.038   5.168 -0.3715 -0.0489  1.5027
  552MOL0     O74386   5.891   3.312   5.592 -0.5865 -0.6911 -0.4048
  552MOL0     C74387   5.935   3.384   5.507 -0.7281  0.1808  0.6636
  552MOL0     O74388   5.873   3.495   5.449 -0.1753 -1.1624  0.0025
  552MOL0     C74389   5.745   3.529   5.502 -0.1685  0.0678  0.5638
  552MOL0     C74390   5.641   3.437   5.545  0.1967 -0.3912 -0.3951
  552MOL0     C74391   5.517   3.491   5.589  0.4243 -0.0845  0.5378
  552MOL0     C74392   5.496   3.634   5.590 -0.4456  0.1839  0.1756
  552MOL0     O74393   5.367   3.664   5.621 -0.5413  0.2025  0.3872
  552MOL0     C74394   5.335   3.799   5.631 -0.2579 -0.9140  0.1377
  552MOL0     C74395   5.182   3.845   5.644 -0.0560 -0.4973  0.4365
  552MOL0     C74396   5.094   3.786   5.754  1.5146 -0.0516 -0.0850
  552MOL0     C74397   4.962   3.869   5.764 -0.1241  0.1445  1.3960
  552MOL0     C74398   4.848   3.781   5.807 -0.1314 -0.1543 -0.7618
  552MOL0     C74399   4.724   3.866   5.835  0.3058  0.5353  0.7781
  552MOL0     C74400   4.609   3.778   5.896 -0.2750 -0.5856  0.3424
  552MOL0     C74401   4.479   3.854   5.921 -0.5054  0.1549 -0.3630
  552MOL0     N74402   4.481   3.962   6.017  0.1349  0.1716  0.2095
  552MOL0     C74403   4.579   4.001   6.114 -0.5129 -0.1585 -0.3051
  552MOL0     C74404   4.552   4.130   6.133  0.4400  0.0790 -0.3058
  552MOL0     C74405   4.641   4.219   6.218  0.2314 -0.0943  0.0136
  552MOL0     C74406   4.764   4.268   6.133 -0.0341  0.2206 -0.1137
  552MOL0     C74407   4.872   4.350   6.206  0.3256  0.0101  0.2661
  552MOL0     C74408   5.006   4.341   6.126  0.7666  0.5152 -0.6079
  552MOL0     O74409   5.103   4.432   6.179 -0.2778  0.1255  0.2104
  552MOL0     C74410   5.212   4.461   6.096 -0.0526  0.3823  0.1521
  552MOL0     C74411   5.243   4.381   5.984  0.1938  0.1821 -0.0268
  552MOL0     C74412   5.374   4.395   5.926 -0.9406  0.9014 -0.4300
  552MOL0     C74413   5.475   4.484   5.973  0.2852  0.2500 -0.7327
  552MOL0     C74414   5.605   4.486   5.920 -0.0150 -0.6854 -0.2861
  552MOL0     O74415   5.646   4.388   5.838  0.4954 -0.0239  0.1940
  552MOL0     C74416   5.777   4.390   5.789  0.4764 -1.2027  0.8761
  552MOL0     C74417   5.793   4.441   5.658 -0.0074 -0.0714  0.5966
  552MOL0     C74418   5.913   4.410   5.596  0.5266  0.0426  0.4744
  552MOL0     C74419   6.021   4.355   5.661 -0.1220 -0.0523  0.1232
  552MOL0     O74420   6.140   4.325   5.599 -0.3944  0.3204  0.2027
  552MOL0     C74421   6.260   4.292   5.669 -0.2608 -0.4376 -0.1423
  552MOL0     C74422   6.359   4.268   5.557 -0.5209 -0.1560 -0.0546
  552MOL0     C74423   6.504   4.248   5.603  0.9723 -0.1646 -0.7818
  552MOL0     C74424   6.584   4.168   5.503 -0.4470  0.2746  0.2267
  552MOL0     C74425   6.730   4.213   5.507  0.6327 -0.2221 -0.1100
  552MOL0     C74426   6.806   4.142   5.400  0.9914 -0.2208  0.1912
  552MOL0     C74427   6.952   4.174   5.389  0.4902 -0.5082  0.0808
  552MOL0     C74428   7.039   4.079   5.310  0.7342 -1.2285 -0.6350
  552MOL0    Cl74429   7.000   4.077   5.144 -0.1268  0.1485 -0.1483
  552MOL0     C74430   6.003   4.316   5.786 -0.5454  0.2696 -0.1067
  552MOL0     C74431   5.878   4.321   5.849  0.2322  0.5508  0.0099
  552MOL0     O74432   5.674   4.579   5.957 -0.1176 -0.2030  0.2225
  552MOL0     C74433   5.439   4.557   6.083 -0.4664 -0.4456 -0.1904
  552MOL0     C74434   5.309   4.551   6.145  0.1230  0.2149  0.2468
  552MOL0     N74435   4.443   4.167   6.066 -0.5374  0.0379  0.6470
  552MOL0     N74436   4.400   4.073   5.995 -0.0764  0.4293 -0.5823
  552MOL0     C74437   5.597   3.715   5.541  0.4588  0.4148  0.7650
  552MOL0     C74438   5.714   3.659   5.494  0.4964 -0.4452 -0.5927
  552MOL0     C74439   6.079   3.346   5.461  0.7770  0.6172  0.7163
  552MOL0     C74440   6.116   3.217   5.484  0.0958  0.2210  0.6053
  552MOL0     C74441   6.244   3.178   5.450 -0.4570  0.1931  0.2937
  552MOL0     C74442   6.341   3.259   5.386  1.2486  0.8036  0.5204
  552MOL0     O74443   6.468   3.221   5.356 -0.6856 -0.1827 -0.6403
  552MOL0     C74444   6.508   3.087   5.369 -0.7450  0.1682 -0.7205
  552MOL0     C74445   6.566   3.048   5.506 -0.0954  0.3582  0.0821
  552MOL0     C74446   6.715   3.085   5.521 -0.8046  0.1180  0.3806
  552MOL0     C74447   6.798   2.954   5.542  0.7846 -0.1599  0.1753
  552MOL0     C74448   6.787   2.846   5.446 -0.6268 -0.3863  0.5434
  552MOL0     C74449   6.768   2.768   5.355  0.1311 -0.4353 -0.2350
  552MOL0     C74450   6.294   3.382   5.340 -0.8322  0.3136  1.0389
  552MOL0     C74451   6.167   3.428   5.381 -0.3136 -0.4004  0.0858
  552MOL0     C74452   6.130   3.568   5.326 -0.3625 -0.0933 -0.4881
  552MOL0     H74453   5.653   3.329   5.540 -1.2634 -0.5998  0.1061
  552MOL0     H74454   5.442   3.422   5.625 -0.2067  0.6354  0.6262
  552MOL0     H74455   5.373   3.834   5.728 -1.7351 -0.8212  0.7182
  552MOL0     H74456   5.370   3.851   5.542  0.5667 -1.0171  0.3979
  552MOL0     H74457   5.123   3.816   5.557 -0.4605 -1.1802  0.9320
  552MOL0     H74458   5.182   3.954   5.655 -2.4364 -0.4162  0.0165
  552MOL0     H74459   5.143   3.801   5.850  1.7149  0.3980 -0.2595
  552MOL0     H74460   5.064   3.681   5.738  0.5325  0.2284 -0.1726
  552MOL0     H74461   4.986   3.954   5.829  1.0230  0.4291  0.6277
  552MOL0     H74462   4.941   3.908   5.664  2.4168 -2.4696 -0.3086
  552MOL0     H74463   4.821   3.702   5.737 -3.7096  0.6337 -0.4738
  552MOL0     H74464   4.893   3.738   5.898 -1.0776 -0.6248 -0.4982
  552MOL0     H74465   4.754   3.944   5.905  0.4314 -0.2393  1.6080
  552MOL0     H74466   4.697   3.896   5.734 -0.3335 -0.5989  0.5930
  552MOL0     H74467   4.644   3.743   5.994  1.2729  0.4668  0.2083
  552MOL0     H74468   4.593   3.694   5.828 -3.4483  1.1119 -1.2503
  552MOL0     H74469   4.438   3.892   5.826 -1.2319  1.3709  0.4067
  552MOL0     H74470   4.409   3.785   5.970  1.7050 -1.5665  0.5553
  552MOL0     H74471   4.666   3.944   6.145 -1.0793 -2.6509 -2.8461
  552MOL0     H74472   4.589   4.300   6.271  0.8913  1.2919 -1.3931
  552MOL0     H74473   4.689   4.152   6.290  2.2898  1.3462  0.0722
  552MOL0     H74474   4.814   4.186   6.082 -0.3922  0.3686 -0.7124
  552MOL0     H74475   4.725   4.324   6.048 -1.2569 -2.1892 -1.2220
  552MOL0     H74476   4.890   4.315   6.308  0.9301  0.1360  0.2071
  552MOL0     H74477   4.841   4.453   6.224 -2.5697 -1.2976  4.0918
  552MOL0     H74478   4.980   4.364   6.023  2.0108  0.8663 -0.8574
  552MOL0     H74479   5.050   4.241   6.135 -0.3237 -0.2629 -3.0735
  552MOL0     H74480   5.189   4.296   5.944  0.2402  0.2360 -0.2045
  552MOL0     H74481   5.392   4.330   5.841  0.7121  2.4786 -1.3600
  552MOL0     H74482   5.709   4.490   5.610  1.1704  2.8873  1.3372
  552MOL0     H74483   5.928   4.439   5.493 -2.0737 -1.0292 -0.2886
  552MOL0     H74484   6.299   4.382   5.719 -0.1911  0.4506 -1.7184
  552MOL0     H74485   6.245   4.208   5.738  0.5059  0.4203  1.1147
  552MOL0     H74486   6.333   4.190   5.484  2.3950  0.6884 -2.1574
  552MOL0     H74487   6.356   4.358   5.496 -1.8699 -0.7142 -0.8586
  552MOL0     H74488   6.551   4.343   5.630  1.1173 -0.2683 -0.6683
  552MOL0     H74489   6.501   4.192   5.697  1.7268  0.9806 -0.0522
  552MOL0     H74490   6.547   4.184   5.402  0.6601 -1.7692 -0.5723
  552MOL0     H74491   6.577   4.061   5.526 -2.2466  1.0675  4.3730
  552MOL0     H74492   6.765   4.174   5.603  0.5792  0.5818  0.2517
  552MOL0     H74493   6.750   4.321   5.501  0.1210  0.1563  2.9624
  552MOL0     H74494   6.803   4.034   5.415 -1.5387  0.1071  2.9829
  552MOL0     H74495   6.756   4.163   5.305  0.1908  0.3630  0.7304
  552MOL0     H74496   6.994   4.178   5.490 -1.4772 -1.4631  0.9868
  552MOL0     H74497   6.966   4.273   5.343 -2.1614  0.1068  0.4576
  552MOL0     H74498   7.143   4.111   5.318  0.1058  0.8291 -0.1819
  552MOL0     H74499   7.030   3.987   5.368 -0.0204 -0.9797 -0.3383
  552MOL0     H74500   6.073   4.250   5.835 -0.1453  0.8141  0.0577
  552MOL0     H74501   5.878   4.283   5.950  2.0466  2.2591  0.7297
  552MOL0     H74502   5.508   4.624   6.132 -1.1423 -1.2643  1.9856
  552MOL0     H74503   5.296   4.587   6.247 -1.0923 -1.8332  0.8756
  552MOL0     H74504   5.584   3.822   5.526  0.9859  0.4769  0.7209
  552MOL0     H74505   5.794   3.724   5.461  0.3146 -0.7540 -1.6842
  552MOL0     H74506   6.042   3.141   5.504  0.5222 -0.2175  0.5223
  552MOL0     H74507   6.266   3.074   5.474 -1.7830 -0.4363 -1.0669
  552MOL0     H74508   6.583   3.065   5.292 -0.5711 -2.2869  0.0460
  552MOL0     H74509   6.425   3.022   5.340  1.6212 -2.3954 -2.2966
  552MOL0     H74510   6.552   2.940   5.523 -3.0766  0.6390 -0.1863
  552MOL0     H74511   6.512   3.094   5.589 -1.7795 -1.7720  0.2582
  552MOL0     H74512   6.727   3.146   5.611 -0.7717  0.5634  0.0779
  552MOL0     H74513   6.766   3.144   5.444  1.0037  1.9652  2.8237
  552MOL0     H74514   6.902   2.978   5.567  0.5409 -0.7412  1.8598
  552MOL0     H74515   6.757   2.909   5.633  1.0145 -0.3672  0.1776
  552MOL0     H74516   6.776   2.699   5.273  0.3048  0.2048 -0.7637
  552MOL0     H74517   6.360   3.438   5.274 -0.0460  0.3678  1.8428
  552MOL0     H74518   6.045   3.573   5.257 -0.5675  0.6494 -0.1940
  552MOL0     H74519   6.108   3.637   5.409  1.8114  0.3722 -0.2307
  552MOL0     H74520   6.220   3.607   5.277 -1.1586  2.7402  0.1177
  553MOL0     O74521   0.665   8.278   3.048 -0.1057  0.5466 -0.0789
  553MOL0     C74522   0.669   8.158   3.017  1.3747 -0.2408 -1.1404
  553MOL0     O74523   0.784   8.083   3.021  0.4015 -0.0216  0.1163
  553MOL0     C74524   0.904   8.142   3.051 -0.6463 -0.5622  0.0784
  553MOL0     C74525   1.015   8.150   2.957 -1.0088 -1.1492 -0.3572
  553MOL0     C74526   1.135   8.227   2.992  0.8575 -0.0664 -0.5005
  553MOL0     C74527   1.150   8.287   3.116  0.1470 -0.3503  0.4384
  553MOL0     O74528   1.262   8.359   3.135 -0.3220 -0.0424  0.2453
  553MOL0     C74529   1.381   8.282   3.163  0.0198 -0.1799  0.9657
  553MOL0     C74530   1.508   8.345   3.104 -0.0907 -1.1607  0.1066
  553MOL0     C74531   1.628   8.285   3.180 -0.3092  0.4114  0.6661
  553MOL0     C74532   1.755   8.366   3.140  0.0911 -0.1130  0.7946
  553MOL0     C74533   1.880   8.312   3.219 -0.7449 -0.3035 -0.0231
  553MOL0     C74534   1.970   8.421   3.273 -0.5702  0.1658  0.1295
  553MOL0     C74535   2.061   8.484   3.152  0.2941  0.0768  0.3698
  553MOL0     C74536   2.176   8.394   3.118  0.4251 -1.0970 -0.1791
  553MOL0     N74537   2.247   8.446   3.007  0.4621  1.0481  0.4663
  553MOL0     C74538   2.265   8.585   2.982 -0.1480  0.3513 -0.1020
  553MOL0     C74539   2.348   8.581   2.871 -1.1381 -0.3142 -0.2578
  553MOL0     C74540   2.415   8.705   2.806  0.5860 -0.2208 -0.0489
  553MOL0     C74541   2.404   8.707   2.657  0.9864  0.0921  0.2241
  553MOL0     C74542   2.455   8.827   2.586  0.5648  0.6333 -1.3425
  553MOL0     C74543   2.450   8.809   2.441 -0.2816  0.2515  0.2917
  553MOL0     O74544   2.524   8.913   2.370  0.2861 -0.0458  0.7241
  553MOL0     C74545   2.664   8.894   2.366  0.1475 -0.1627 -0.0579
  553MOL0     C74546   2.735   8.977   2.281 -0.7314  0.0259 -0.0970
  553MOL0     C74547   2.878   8.969   2.266 -1.6790  0.0725 -0.3756
  553MOL0     C74548   2.948   8.878   2.345 -0.5390  0.0396 -0.1653
  553MOL0     C74549   3.094   8.868   2.349 -0.7449  0.3120  0.6979
  553MOL0     O74550   3.161   8.946   2.266  0.3505 -0.0540 -0.2999
  553MOL0     C74551   3.299   8.972   2.284  0.1714  0.0503  0.4314
  553MOL0     C74552   3.385   8.972   2.178 -0.1234  0.1287 -0.3167
  553MOL0     C74553   3.531   8.988   2.188 -0.2049  0.3317 -0.0438
  553MOL0     C74554   3.585   9.013   2.315 -0.1394  0.1328 -0.6773
  553MOL0     O74555   3.713   9.050   2.334 -0.0895  0.2443 -0.5439
  553MOL0     C74556   3.815   9.056   2.231  1.1420  0.3463 -0.5569
  553MOL0     C74557   3.836   9.202   2.183 -0.2550  0.6852  0.8822
  553MOL0     C74558   3.953   9.218   2.087  1.2565  0.3023 -0.2624
  553MOL0     C74559   4.079   9.185   2.169  0.8529  0.4638  0.5201
  553MOL0     C74560   4.211   9.242   2.108 -0.7352 -0.0090 -0.0508
  553MOL0     C74561   4.254   9.161   1.990  0.5301 -1.0445 -0.1885
  553MOL0     C74562   4.387   9.209   1.950  0.3346  0.0755  0.1638
  553MOL0     C74563   4.436   9.138   1.817 -1.2095 -0.0813  0.2277
  553MOL0    Cl74564   4.543   9.236   1.709  0.6229  0.1142 -0.2971
  553MOL0     C74565   3.500   9.017   2.425  0.0839 -0.0978 -0.3568
  553MOL0     C74566   3.363   8.990   2.408  0.3530  0.4155  0.1195
  553MOL0     O74567   3.144   8.791   2.433 -0.7213 -0.1213 -0.2768
  553MOL0     C74568   2.872   8.789   2.425 -0.4566  0.0170 -0.5280
  553MOL0     C74569   2.732   8.798   2.438  0.0137  0.3807 -0.0382
  553MOL0     N74570   2.371   8.447   2.830 -0.5792  0.0633  0.3372
  553MOL0     N74571   2.307   8.368   2.908  0.2374  0.3093  0.2747
  553MOL0     C74572   1.049   8.261   3.213 -0.2295 -0.5144 -0.5965
  553MOL0     C74573   0.935   8.190   3.177  0.3977 -1.0748 -0.0554
  553MOL0     C74574   0.549   8.095   2.948  0.1374  0.0885 -0.6140
  553MOL0     C74575   0.573   7.974   2.872  0.7155 -1.2236 -0.3836
  553MOL0     C74576   0.464   7.898   2.836  0.3486  0.8223  0.1891
  553MOL0     C74577   0.331   7.945   2.853  0.0587 -1.0853  0.1060
  553MOL0     O74578   0.213   7.886   2.829 -0.0047  0.0348  0.0772
  553MOL0     C74579   0.211   7.765   2.761  0.0359 -0.2741  0.7807
  553MOL0     C74580   0.076   7.752   2.701  0.3950 -0.3054  0.1721
  553MOL0     C74581  -0.042   7.759   2.801 -0.0770 -0.8499  0.2549
  553MOL0     C74582  -0.055   7.628   2.881 -0.7333  0.3750 -0.4616
  553MOL0     C74583  -0.181   7.627   2.957  0.4410 -0.3642  0.6816
  553MOL0     C74584  -0.292   7.621   3.000  0.5331 -0.5469  0.1655
  553MOL0     C74585   0.319   8.063   2.915  0.3619 -0.4439 -0.2615
  553MOL0     C74586   0.418   8.144   2.968 -0.2737  0.0301 -0.1880
  553MOL0     C74587   0.376   8.269   3.040  0.1545 -0.0931  0.9843
  553MOL0     H74588   1.005   8.103   2.860  0.2416  0.6809 -1.4435
  553MOL0     H74589   1.206   8.237   2.910 -0.1404  0.2409 -1.3539
  553MOL0     H74590   1.389   8.272   3.272 -2.0268 -2.3873  0.9983
  553MOL0     H74591   1.370   8.180   3.124  3.1229 -0.1863 -0.1540
  553MOL0     H74592   1.507   8.451   3.128 -0.0718 -1.0580 -0.3305
  553MOL0     H74593   1.520   8.321   2.998 -1.6433  0.8219 -0.5695
  553MOL0     H74594   1.640   8.180   3.154 -0.8039  0.6386 -0.5546
  553MOL0     H74595   1.620   8.298   3.289  0.9328 -2.6752  1.2211
  553MOL0     H74596   1.771   8.348   3.034  0.0187  0.4314  0.6846
  553MOL0     H74597   1.741   8.474   3.150  1.1567  0.3501 -2.0110
  553MOL0     H74598   1.838   8.253   3.301  0.2714 -0.4408  0.4040
  553MOL0     H74599   1.931   8.247   3.148  2.2454 -0.8835  2.4741
  553MOL0     H74600   1.905   8.501   3.310 -2.4062 -2.1859  2.3529
  553MOL0     H74601   2.039   8.382   3.348  0.9782 -1.6209 -2.0796
  553MOL0     H74602   2.098   8.585   3.168 -1.8727  1.1536 -0.9641
  553MOL0     H74603   1.998   8.495   3.063 -0.7682 -0.6018  1.0225
  553MOL0     H74604   2.239   8.405   3.207  0.2449 -1.5315  0.0053
  553MOL0     H74605   2.148   8.291   3.093  0.9771 -1.5512  0.9602
  553MOL0     H74606   2.229   8.667   3.043 -2.5993 -1.3323  0.8699
  553MOL0     H74607   2.370   8.793   2.854 -1.0355  0.6583 -2.9187
  553MOL0     H74608   2.519   8.714   2.837  0.5866 -3.6368  1.3122
  553MOL0     H74609   2.466   8.630   2.612  0.1418 -0.3502 -0.2077
  553MOL0     H74610   2.300   8.693   2.626  1.2177 -2.8287  0.5482
  553MOL0     H74611   2.559   8.833   2.621 -0.1712  4.2892  0.6240
  553MOL0     H74612   2.399   8.916   2.613  2.3302  1.2561  0.5205
  553MOL0     H74613   2.345   8.835   2.426 -0.4388  0.9296  2.2624
  553MOL0     H74614   2.472   8.707   2.411 -0.5940 -0.3631  2.0201
  553MOL0     H74615   2.692   9.041   2.205  0.5911  0.2089 -0.7174
  553MOL0     H74616   2.930   9.042   2.206  0.6588 -0.8500  0.3922
  553MOL0     H74617   3.342   8.953   2.080 -2.1901  1.1935  0.3389
  553MOL0     H74618   3.588   8.977   2.096 -0.6025 -1.6553 -0.1163
  553MOL0     H74619   3.911   9.023   2.272  2.0291 -0.8219 -3.3445
  553MOL0     H74620   3.786   8.991   2.148 -2.6468  0.2900  0.6160
  553MOL0     H74621   3.744   9.229   2.129 -0.8076  0.3520  1.6359
  553MOL0     H74622   3.850   9.264   2.272  1.1524 -1.9022  2.5522
  553MOL0     H74623   3.939   9.162   1.994 -0.0592  2.6616 -1.5906
  553MOL0     H74624   3.950   9.320   2.049  1.5061  0.0415 -1.0116
  553MOL0     H74625   4.068   9.076   2.162 -1.7235  0.6936 -0.1609
  553MOL0     H74626   4.069   9.222   2.271  0.4431 -1.5303  1.2678
  553MOL0     H74627   4.282   9.227   2.190 -1.0874  0.1996  0.2965
  553MOL0     H74628   4.195   9.347   2.081 -1.8317 -0.4488 -1.1603
  553MOL0     H74629   4.264   9.058   2.026 -2.3768 -1.0110  0.9921
  553MOL0     H74630   4.177   9.161   1.912  0.5576 -3.6058 -0.2915
  553MOL0     H74631   4.453   9.196   2.037 -0.3825 -1.9868  0.4541
  553MOL0     H74632   4.390   9.316   1.929 -0.0321  0.3712  1.5219
  553MOL0     H74633   4.492   9.047   1.841  0.5039  1.1244  1.0247
  553MOL0     H74634   4.348   9.114   1.757 -0.5880 -1.0197 -0.3415
  553MOL0     H74635   3.531   9.029   2.529 -2.7045  2.6822  0.2837
  553MOL0     H74636   3.289   8.989   2.486  0.2744 -0.3413  0.0467
  553MOL0     H74637   2.918   8.718   2.493 -1.4084 -2.1923 -2.0727
  553MOL0     H74638   2.681   8.719   2.491 -2.6636  1.8548 -0.2729
  553MOL0     H74639   1.052   8.299   3.315 -2.2943 -0.0167 -0.6772
  553MOL0     H74640   0.855   8.158   3.243  0.8002  1.0217  1.5723
  553MOL0     H74641   0.677   7.945   2.861  1.3840  0.6738  0.5391
  553MOL0     H74642   0.487   7.804   2.786  0.9854  0.5336  0.9968
  553MOL0     H74643   0.238   7.685   2.831  0.6879  0.2326  1.1268
  553MOL0     H74644   0.284   7.764   2.679  0.7602  2.1829  1.3129
  553MOL0     H74645   0.076   7.660   2.643 -1.1514  1.0217 -2.0601
  553MOL0     H74646   0.055   7.823   2.621 -2.7149 -0.5111  0.6704
  553MOL0     H74647  -0.136   7.777   2.747 -0.8081  2.0860  2.2380
  553MOL0     H74648  -0.039   7.845   2.868 -0.9179  0.8749 -1.7955
  553MOL0     H74649  -0.041   7.546   2.811  0.9072  0.6494 -0.4786
  553MOL0     H74650   0.024   7.620   2.956 -1.8091 -1.9559  0.5320
  553MOL0     H74651  -0.380   7.607   3.059  0.5644  1.2499  0.6880
  553MOL0     H74652   0.218   8.104   2.916  1.3348  2.1438  0.5216
  553MOL0     H74653   0.398   8.358   2.980  1.6869  0.5594  2.4367
  553MOL0     H74654   0.281   8.255   3.091 -0.3865 -4.6817 -0.8466
  553MOL0     H74655   0.446   8.271   3.125 -0.0487 -2.3368  1.2586
  554MOL0     O74656   3.758   0.559   8.887  0.8846  0.4315 -0.1070
  554MOL0     C74657   3.712   0.657   8.945 -0.6765 -0.6591  0.3178
  554MOL0     O74658   3.794   0.758   8.996 -0.7147  0.1938  0.3532
  554MOL0     C74659   3.933   0.756   8.990  0.1265  0.9808 -0.1715
  554MOL0     C74660   4.012   0.642   9.015 -0.2461 -0.5523  0.1841
  554MOL0     C74661   4.150   0.645   8.986  0.6854  0.1997  0.2694
  554MOL0     C74662   4.207   0.769   8.943 -0.1639  0.0001  0.3225
  554MOL0     O74663   4.346   0.776   8.930  0.3548  0.3822 -0.7953
  554MOL0     C74664   4.397   0.889   8.872  0.4776  0.2369  0.3183
  554MOL0     C74665   4.543   0.867   8.835 -0.0380  0.1210 -0.5679
  554MOL0     C74666   4.640   0.876   8.955  0.3419 -0.1128  0.3154
  554MOL0     C74667   4.773   0.913   8.896  0.0210 -0.0048  0.5049
  554MOL0     C74668   4.850   0.806   8.824 -0.2776  0.0402  0.2513
  554MOL0     C74669   4.962   0.876   8.743  0.3778  0.4363 -0.0569
  554MOL0     C74670   5.045   0.778   8.657 -0.3347  0.5592  0.3309
  554MOL0     C74671   5.183   0.836   8.639 -0.6006 -0.3768  0.1299
  554MOL0     N74672   5.278   0.750   8.559 -0.1805 -0.4715 -0.2422
  554MOL0     C74673   5.406   0.786   8.535 -0.5891  0.3950  0.2159
  554MOL0     C74674   5.458   0.676   8.468 -0.1501  0.1220  0.2705
  554MOL0     C74675   5.603   0.673   8.414  0.8050  0.7180 -0.0201
  554MOL0     C74676   5.648   0.527   8.414  0.1274 -0.3182  0.3712
  554MOL0     C74677   5.801   0.521   8.438  0.5910  0.2657  0.1604
  554MOL0     C74678   5.844   0.383   8.482 -0.0705  0.4967  0.0998
  554MOL0     O74679   5.982   0.388   8.529  0.6173 -0.4988 -0.0191
  554MOL0     C74680   6.064   0.276   8.513 -0.7783 -0.6717 -0.4967
  554MOL0     C74681   6.022   0.156   8.444  0.0947 -0.7455  0.5261
  554MOL0     C74682   6.096   0.043   8.447 -0.5248 -0.1780  0.2267
  554MOL0     C74683   6.225   0.044   8.500  0.5827 -0.2794  0.3329
  554MOL0     C74684   6.309  -0.079   8.500  0.0802  0.2927  0.3682
  554MOL0     O74685   6.436  -0.063   8.548  0.0659 -0.4295  0.0719
  554MOL0     C74686   6.508  -0.173   8.578  0.6421  0.3703 -0.5755
  554MOL0     C74687   6.607  -0.227   8.501 -0.3842 -0.4122  0.6173
  554MOL0     C74688   6.677  -0.339   8.537 -0.1480 -1.4987 -0.2754
  554MOL0     C74689   6.667  -0.400   8.665  0.1388  1.1374  0.5159
  554MOL0     O74690   6.747  -0.511   8.704  0.0327 -0.9406 -0.7726
  554MOL0     C74691   6.842  -0.579   8.619  0.0748 -0.7704  0.5615
  554MOL0     C74692   6.978  -0.520   8.641  0.0954  0.5436  0.1913
  554MOL0     C74693   7.080  -0.613   8.577 -0.4688  0.0793 -0.7632
  554MOL0     C74694   7.061  -0.641   8.426 -0.6733 -0.1247 -0.0567
  554MOL0     C74695   7.173  -0.724   8.370  0.3932 -0.3278  0.2566
  554MOL0     C74696   7.156  -0.728   8.218 -0.6086 -0.4635 -0.8869
  554MOL0     C74697   7.295  -0.771   8.155 -0.2585  0.3607 -0.2516
  554MOL0     C74698   7.315  -0.758   8.008  0.3929  0.6990  0.1047
  554MOL0    Cl74699   7.479  -0.799   7.956 -0.1443  0.1572 -0.2804
  554MOL0     C74700   6.562  -0.342   8.736  0.0127  0.0482 -0.9875
  554MOL0     C74701   6.486  -0.233   8.696  0.5446  0.1189 -0.0550
  554MOL0     O74702   6.267  -0.185   8.465  0.2521  0.9091 -0.6572
  554MOL0     C74703   6.276   0.164   8.561  1.2165 -0.3221  0.2396
  554MOL0     C74704   6.188   0.268   8.575 -0.0165 -0.1613 -0.5762
  554MOL0     N74705   5.351   0.595   8.435 -0.5193  0.2466 -0.6154
  554MOL0     N74706   5.243   0.637   8.492 -0.0587 -0.2963 -1.0235
  554MOL0     C74707   4.128   0.887   8.925  0.5561  0.7615 -0.6761
  554MOL0     C74708   3.993   0.873   8.949  0.1264 -0.1869  0.2867
  554MOL0     C74709   3.565   0.676   8.942 -0.1055  0.3485  0.2629
  554MOL0     C74710   3.516   0.799   8.894  0.0621  0.4980 -0.2928
  554MOL0     C74711   3.384   0.817   8.876  0.1370 -0.2267 -0.3821
  554MOL0     C74712   3.296   0.727   8.924 -0.1395 -0.4635  0.4629
  554MOL0     O74713   3.160   0.747   8.902  0.1522  0.0934  0.4399
  554MOL0     C74714   3.088   0.800   9.018 -0.2785  0.2158  0.3347
  554MOL0     C74715   2.937   0.765   9.007 -0.2923 -0.9792 -0.2008
  554MOL0     C74716   2.857   0.797   9.131  0.6573  0.1299 -0.3656
  554MOL0     C74717   2.710   0.770   9.105 -0.4810  0.2071 -0.7136
  554MOL0     C74718   2.624   0.811   9.220 -1.4674 -0.3759 -0.2512
  554MOL0     C74719   2.545   0.856   9.297 -0.4542  0.6588 -0.6146
  554MOL0     C74720   3.332   0.609   8.978  0.0014  0.2165  0.2374
  554MOL0     C74721   3.468   0.577   8.976  0.5189  1.3818  0.5878
  554MOL0     C74722   3.519   0.441   9.023 -1.0593 -0.5721 -0.3836
  554MOL0     H74723   3.965   0.553   9.056 -1.9390  0.0349 -0.4008
  554MOL0     H74724   4.212   0.557   9.000  1.6904  0.7275 -0.7092
  554MOL0     H74725   4.344   0.903   8.777  1.8260 -0.3763 -0.5604
  554MOL0     H74726   4.385   0.975   8.939 -0.6868  1.5146 -1.4379
  554MOL0     H74727   4.564   0.956   8.775  4.0581  0.4154  0.9557
  554MOL0     H74728   4.565   0.774   8.781  3.4663  1.9345 -2.6427
  554MOL0     H74729   4.636   0.783   9.012 -0.4341 -0.3815 -0.1576
  554MOL0     H74730   4.617   0.955   9.028  0.0400 -0.3331  0.4623
  554MOL0     H74731   4.760   0.993   8.823  0.4166  0.6019  1.0921
  554MOL0     H74732   4.840   0.962   8.967 -2.0183 -1.0722  3.3421
  554MOL0     H74733   4.890   0.732   8.893 -2.6108 -0.0874  1.5835
  554MOL0     H74734   4.781   0.762   8.752 -2.7292  1.5998  1.5122
  554MOL0     H74735   4.907   0.950   8.684 -2.0525  0.7660  2.3943
  554MOL0     H74736   5.031   0.930   8.808  0.2973 -0.5161  0.8379
  554MOL0     H74737   4.997   0.764   8.560 -0.6994  2.2547  0.2249
  554MOL0     H74738   5.061   0.687   8.714 -0.2538  1.0978  1.1893
  554MOL0     H74739   5.174   0.936   8.595 -0.1448  0.2419  1.4180
  554MOL0     H74740   5.226   0.841   8.739  3.2649 -3.1777 -1.1228
  554MOL0     H74741   5.456   0.880   8.556 -0.8223  0.4822  0.3825
  554MOL0     H74742   5.612   0.704   8.309  2.4163 -1.5993 -0.6459
  554MOL0     H74743   5.662   0.738   8.479  0.2329  2.7880 -1.4780
  554MOL0     H74744   5.609   0.469   8.498  1.8230  0.8735  2.0579
  554MOL0     H74745   5.613   0.484   8.320 -0.9172  0.9272  0.1610
  554MOL0     H74746   5.827   0.592   8.518  0.3371  0.6200 -0.0684
  554MOL0     H74747   5.852   0.558   8.349  2.2945  1.7680  1.6761
  554MOL0     H74748   5.822   0.314   8.400  0.4700  1.6782 -1.0640
  554MOL0     H74749   5.778   0.354   8.565  0.3090  2.1814  1.0206
  554MOL0     H74750   5.920   0.148   8.408 -0.0483  0.1577  0.7147
  554MOL0     H74751   6.053  -0.048   8.405 -0.7929 -0.0981  0.3277
  554MOL0     H74752   6.608  -0.200   8.396 -1.1071  1.3989  1.0470
  554MOL0     H74753   6.748  -0.380   8.467 -0.6239  2.1395 -3.1872
  554MOL0     H74754   6.850  -0.683   8.653  0.9936 -0.8919 -0.0105
  554MOL0     H74755   6.808  -0.569   8.516  0.7438  0.9364  0.4847
  554MOL0     H74756   6.986  -0.415   8.614  1.9538  0.4669  0.3115
  554MOL0     H74757   6.997  -0.515   8.749  4.7908  2.1397 -0.4902
  554MOL0     H74758   7.175  -0.559   8.587 -0.0606 -1.0659  4.3213
  554MOL0     H74759   7.102  -0.705   8.631 -2.4862 -0.2497 -0.4431
  554MOL0     H74760   7.062  -0.545   8.373 -0.1027 -0.5010 -0.7574
  554MOL0     H74761   6.963  -0.684   8.404 -1.0184  1.4290 -1.8462
  554MOL0     H74762   7.162  -0.825   8.409 -0.8696 -0.6139 -0.7856
  554MOL0     H74763   7.268  -0.686   8.409  0.4790  0.1536 -0.3909
  554MOL0     H74764   7.081  -0.802   8.189  2.4204 -3.6615 -1.2738
  554MOL0     H74765   7.139  -0.627   8.178  1.8409  0.4050  0.0398
  554MOL0     H74766   7.314  -0.874   8.186  2.5009  0.8243 -0.1889
  554MOL0     H74767   7.372  -0.715   8.209 -0.2870 -1.6548  2.1054
  554MOL0     H74768   7.239  -0.813   7.952  2.3894 -0.9256 -1.1803
  554MOL0     H74769   7.294  -0.655   7.978 -1.1546  0.2311 -0.5465
  554MOL0     H74770   6.554  -0.382   8.836  1.1116 -1.8599 -1.6074
  554MOL0     H74771   6.410  -0.193   8.763 -1.9351  0.0080 -2.6171
  554MOL0     H74772   6.380   0.170   8.592  0.8940  0.1565  1.2802
  554MOL0     H74773   6.222   0.348   8.639 -0.4002  0.2371 -0.8587
  554MOL0     H74774   4.166   0.986   8.902  2.5861  0.1089 -0.2575
  554MOL0     H74775   3.917   0.951   8.941  1.4033  1.0102 -0.5454
  554MOL0     H74776   3.588   0.876   8.870  3.6315 -2.7068 -0.9587
  554MOL0     H74777   3.336   0.897   8.820 -1.1132 -1.6135 -1.3676
  554MOL0     H74778   3.103   0.906   9.036 -1.4103  0.5704 -0.6520
  554MOL0     H74779   3.131   0.750   9.106  3.2923 -1.2817 -1.9986
  554MOL0     H74780   2.935   0.665   8.963  4.0658  0.0018 -3.4307
  554MOL0     H74781   2.889   0.816   8.923  0.1517  1.6083  1.0176
  554MOL0     H74782   2.859   0.905   9.149 -3.2548  0.4537 -1.0965
  554MOL0     H74783   2.907   0.745   9.213  2.1968  0.4562 -1.0635
  554MOL0     H74784   2.681   0.819   9.012  1.4841 -0.7767 -1.9171
  554MOL0     H74785   2.692   0.665   9.082 -0.9316 -0.0912  0.8707
  554MOL0     H74786   2.464   0.904   9.349 -0.2291  2.6044 -1.9798
  554MOL0     H74787   3.251   0.541   9.003  0.2741  0.2203  1.1661
  554MOL0     H74788   3.558   0.444   9.125  0.7122 -1.2150 -1.0057
  554MOL0     H74789   3.434   0.373   9.025 -3.5825  2.3588 -0.0195
  554MOL0     H74790   3.600   0.405   8.959 -0.5067 -0.3833  0.2022
  555MOL0     O74791   5.661   7.407   3.392 -0.5861  0.3001  0.6682
  555MOL0     C74792   5.584   7.485   3.449 -0.0690  0.2037 -0.5410
  555MOL0     O74793   5.605   7.545   3.565  0.6813  0.1245 -0.4528
  555MOL0     C74794   5.732   7.555   3.617  0.7613  1.0051 -0.0525
  555MOL0     C74795   5.739   7.592   3.753 -1.0897  0.0241 -0.5190
  555MOL0     C74796   5.860   7.624   3.814 -0.2590 -0.0158 -0.2158
  555MOL0     C74797   5.983   7.639   3.734  0.8499  0.2832  1.2706
  555MOL0     O74798   6.095   7.669   3.800 -0.0012 -0.1205  0.2268
  555MOL0     C74799   6.224   7.679   3.738  0.1873  0.2222 -0.7161
  555MOL0     C74800   6.331   7.723   3.841  0.0012  0.1301  0.3046
  555MOL0     C74801   6.452   7.785   3.784 -0.8698  0.1651  0.5210
  555MOL0     C74802   6.533   7.676   3.697 -0.3549 -0.5415  0.8103
  555MOL0     C74803   6.660   7.736   3.645  0.4338  0.6623 -0.1035
  555MOL0     C74804   6.755   7.631   3.582 -1.0242  0.7930 -0.3455
  555MOL0     C74805   6.875   7.705   3.528  0.4717 -0.8753  0.6988
  555MOL0     C74806   6.958   7.608   3.446 -0.9061  0.3623  0.4584
  555MOL0     N74807   7.054   7.673   3.352 -0.7939  0.6545  0.0623
  555MOL0     C74808   7.166   7.737   3.387 -0.1371  0.7031  0.1170
  555MOL0     C74809   7.226   7.761   3.267  0.0252 -0.3122 -0.9425
  555MOL0     C74810   7.361   7.816   3.261 -0.3163  1.2320 -0.3299
  555MOL0     C74811   7.460   7.697   3.237  0.0430  0.4477 -0.4912
  555MOL0     C74812   7.603   7.729   3.196 -0.0407  0.5699 -0.1539
  555MOL0     C74813   7.618   7.833   3.089 -0.3177  0.0422 -0.6914
  555MOL0     O74814   7.750   7.818   3.031 -0.0663  0.6843 -0.7131
  555MOL0     C74815   7.852   7.892   3.082 -0.4103  0.4734  1.2720
  555MOL0     C74816   7.855   7.951   3.213  0.5725 -0.1503  0.8732
  555MOL0     C74817   7.970   8.015   3.264 -1.1719 -0.1953  1.1759
  555MOL0     C74818   8.095   8.000   3.197 -0.2642 -0.5693  0.2148
  555MOL0     C74819   8.224   8.060   3.249  0.0882 -0.3830 -0.3218
  555MOL0     O74820   8.331   8.057   3.167  0.2784  0.1630 -0.3104
  555MOL0     C74821   8.449   8.118   3.198 -0.2022  0.1915  0.4712
  555MOL0     C74822   8.477   8.232   3.270 -0.1489 -0.5269 -0.0977
  555MOL0     C74823   8.606   8.275   3.298  0.0390  0.0249 -0.5993
  555MOL0     C74824   8.714   8.225   3.239 -0.4387 -0.4195 -0.0881
  555MOL0     O74825   8.844   8.276   3.240  0.6149  0.3454  0.2459
  555MOL0     C74826   8.889   8.326   3.363  0.3099  0.7649  0.4205
  555MOL0     C74827   9.040   8.336   3.357  0.3982  0.0168 -0.1491
  555MOL0     C74828   9.077   8.426   3.475 -0.3038  0.2027 -0.0986
  555MOL0     C74829   9.228   8.419   3.467 -0.7750 -0.0001  0.6122
  555MOL0     C74830   9.297   8.543   3.535 -0.3179  0.4995  0.0571
  555MOL0     C74831   9.310   8.530   3.684 -0.6811 -0.5030  0.2869
  555MOL0     C74832   9.439   8.461   3.726  0.1886  0.5786 -0.5496
  555MOL0     C74833   9.453   8.469   3.877  0.4173  0.1257  0.0387
  555MOL0    Cl74834   9.493   8.635   3.926 -0.0786  0.4806 -0.0623
  555MOL0     C74835   8.690   8.111   3.158  0.1016  0.2155 -0.2590
  555MOL0     C74836   8.564   8.055   3.141  0.6798 -0.3367  0.8103
  555MOL0     O74837   8.220   8.119   3.363  0.1542 -0.3848  0.7909
  555MOL0     C74838   8.089   7.943   3.071 -0.7090  0.7535 -0.1225
  555MOL0     C74839   7.976   7.892   3.011  0.2083 -0.0582 -0.3358
  555MOL0     N74840   7.154   7.703   3.162 -0.5605 -0.8610 -0.4978
  555MOL0     N74841   7.056   7.645   3.220 -0.0021 -0.9424 -0.4164
  555MOL0     C74842   5.976   7.613   3.595  0.4996  0.2199  0.0968
  555MOL0     C74843   5.846   7.578   3.541 -0.7403  0.3519 -0.0695
  555MOL0     C74844   5.447   7.498   3.391  0.8204 -0.3908 -0.0710
  555MOL0     C74845   5.354   7.568   3.473 -0.2996  0.8316 -0.3839
  555MOL0     C74846   5.226   7.578   3.428 -0.4426 -0.5459 -0.5019
  555MOL0     C74847   5.183   7.546   3.300  0.0944 -0.7599 -0.0968
  555MOL0     O74848   5.067   7.586   3.244  0.2699  0.5362  0.7075
  555MOL0     C74849   4.964   7.657   3.315  0.7151 -0.2480  0.6072
  555MOL0     C74850   4.844   7.695   3.231 -1.2400  0.2703  0.1909
  555MOL0     C74851   4.903   7.773   3.111  0.9417 -1.0979  0.0989
  555MOL0     C74852   4.787   7.823   3.011  0.1873 -0.3243 -0.1425
  555MOL0     C74853   4.704   7.916   3.077 -0.6324 -0.4396  0.6110
  555MOL0     C74854   4.642   7.993   3.146  0.1756  0.5636 -0.0060
  555MOL0     C74855   5.280   7.489   3.222 -0.3970 -0.1634 -0.1048
  555MOL0     C74856   5.405   7.459   3.264  0.8955 -0.3488 -1.2700
  555MOL0     C74857   5.503   7.390   3.172 -0.0111  0.6765  0.3411
  555MOL0     H74858   5.646   7.603   3.808 -0.8810  1.1494 -0.3721
  555MOL0     H74859   5.864   7.659   3.917  1.5325  2.8349 -1.1306
  555MOL0     H74860   6.252   7.584   3.692 -1.4704 -0.5911 -0.1425
  555MOL0     H74861   6.209   7.761   3.667 -0.8263  0.9600  0.3085
  555MOL0     H74862   6.372   7.635   3.890 -2.2915 -2.5625 -2.2419
  555MOL0     H74863   6.294   7.794   3.916  2.6113  0.9505  0.9237
  555MOL0     H74864   6.513   7.815   3.869 -0.6270 -0.1586  0.4616
  555MOL0     H74865   6.430   7.869   3.717  1.5671  0.7881  0.3780
  555MOL0     H74866   6.545   7.582   3.752 -3.3945  0.2443  3.0577
  555MOL0     H74867   6.470   7.641   3.615  2.2948 -1.4162 -0.9944
  555MOL0     H74868   6.623   7.807   3.571 -0.7929  3.2095  2.7450
  555MOL0     H74869   6.718   7.795   3.717  0.1399 -0.1592  0.8324
  555MOL0     H74870   6.789   7.550   3.647  1.1364  2.0845  0.2454
  555MOL0     H74871   6.702   7.585   3.498 -0.7665  2.2502 -1.3434
  555MOL0     H74872   6.935   7.741   3.612  1.6398 -1.6009  0.1945
  555MOL0     H74873   6.832   7.782   3.463 -2.4050 -2.2375  0.8156
  555MOL0     H74874   7.012   7.553   3.524 -1.1321 -1.0114 -0.3301
  555MOL0     H74875   6.891   7.547   3.385  0.5904  1.8984 -2.9556
  555MOL0     H74876   7.203   7.759   3.487  0.7614  0.6224 -0.1929
  555MOL0     H74877   7.366   7.890   3.180 -1.4959  1.3916 -0.2673
  555MOL0     H74878   7.384   7.870   3.353  0.1378  0.3212  0.1008
  555MOL0     H74879   7.462   7.642   3.331 -0.0972  0.9139 -0.2147
  555MOL0     H74880   7.412   7.643   3.154  0.7459  0.4838 -0.9315
  555MOL0     H74881   7.657   7.642   3.159 -0.7999  0.1760 -0.3546
  555MOL0     H74882   7.655   7.762   3.286 -0.6689  2.3814 -0.3999
  555MOL0     H74883   7.594   7.935   3.120 -2.0836  0.6264 -3.6464
  555MOL0     H74884   7.553   7.804   3.006 -0.2745 -1.8872 -0.0787
  555MOL0     H74885   7.765   7.939   3.273  0.9904 -2.3301  1.1505
  555MOL0     H74886   7.960   8.053   3.365 -2.8457 -1.0576  1.3810
  555MOL0     H74887   8.397   8.297   3.302  0.6097 -0.8335  2.6126
  555MOL0     H74888   8.618   8.360   3.365 -0.3910 -0.8215  0.5913
  555MOL0     H74889   8.840   8.423   3.377  2.3129  2.2109 -1.7431
  555MOL0     H74890   8.875   8.265   3.453 -2.3800 -0.4545 -0.7015
  555MOL0     H74891   9.089   8.240   3.370 -0.3906 -0.2003  1.4801
  555MOL0     H74892   9.063   8.385   3.261  4.2650  0.6163  0.9108
  555MOL0     H74893   9.034   8.523   3.450 -1.6142 -0.0411  1.1299
  555MOL0     H74894   9.044   8.378   3.568  1.6961 -3.9838 -1.2759
  555MOL0     H74895   9.274   8.417   3.368  2.9813 -0.9204  2.1827
  555MOL0     H74896   9.256   8.330   3.524 -0.2140 -1.3390 -1.6535
  555MOL0     H74897   9.240   8.633   3.513 -0.5378  0.0215 -1.4732
  555MOL0     H74898   9.397   8.556   3.493 -0.8894  0.3469 -1.3952
  555MOL0     H74899   9.302   8.625   3.739 -1.5221  0.8883 -2.0985
  555MOL0     H74900   9.227   8.471   3.724  0.2388 -1.0350  1.4817
  555MOL0     H74901   9.520   8.516   3.676  0.0730  0.3254 -1.0147
  555MOL0     H74902   9.438   8.362   3.681 -1.0991  0.3377 -0.0395
  555MOL0     H74903   9.364   8.430   3.929  2.8167 -1.9887  2.9058
  555MOL0     H74904   9.526   8.394   3.907 -0.6550 -1.3142 -0.7907
  555MOL0     H74905   8.774   8.067   3.104 -2.3727 -2.5971 -2.1201
  555MOL0     H74906   8.546   7.966   3.082 -5.9145  0.3306  1.0692
  555MOL0     H74907   8.185   7.926   3.023  0.0813 -0.1964  1.7172
  555MOL0     H74908   7.986   7.847   2.913 -0.5379  4.1533 -2.5482
  555MOL0     H74909   6.057   7.617   3.522  0.9327 -0.7750  0.5084
  555MOL0     H74910   5.837   7.570   3.433 -1.2447 -0.4405  0.0229
  555MOL0     H74911   5.373   7.604   3.573 -0.0530 -1.4845  0.4754
  555MOL0     H74912   5.161   7.619   3.504  2.8226  2.3918  1.0345
  555MOL0     H74913   5.010   7.750   3.350 -0.9128  0.7826  0.1462
  555MOL0     H74914   4.931   7.593   3.397  2.9445 -1.5921  0.5134
  555MOL0     H74915   4.767   7.751   3.285 -2.2809 -2.1320  1.3465
  555MOL0     H74916   4.796   7.602   3.197 -0.5927  0.1305 -0.3631
  555MOL0     H74917   4.981   7.717   3.059  1.4451 -2.9781  2.6695
  555MOL0     H74918   4.950   7.862   3.154 -0.0973 -0.5492  0.1513
  555MOL0     H74919   4.840   7.881   2.935  0.2249  0.7601  0.6743
  555MOL0     H74920   4.738   7.735   2.968  3.2121 -1.4516 -1.5795
  555MOL0     H74921   4.592   8.068   3.203  0.0765 -0.0720  0.7759
  555MOL0     H74922   5.257   7.473   3.117 -3.6219 -0.1094  0.4940
  555MOL0     H74923   5.510   7.282   3.189  1.7037  0.2509 -2.4656
  555MOL0     H74924   5.456   7.394   3.073 -3.4776 -1.2181  1.7469
  555MOL0     H74925   5.602   7.436   3.165 -0.2182  0.9858 -0.8089
  556MOL0     O74926   7.350   0.968   0.539 -0.1635 -0.3932 -0.0569
  556MOL0     C74927   7.268   0.986   0.625  0.3046  0.9360 -1.1545
  556MOL0     O74928   7.297   0.976   0.764  0.9072 -0.2534  0.0898
  556MOL0     C74929   7.426   0.936   0.794  0.9503 -0.4244 -0.4352
  556MOL0     C74930   7.510   1.037   0.833 -0.8509 -0.0897 -0.0681
  556MOL0     C74931   7.646   1.009   0.852  0.2847 -0.3860  0.8824
  556MOL0     C74932   7.692   0.875   0.844 -0.4400  0.1319 -1.0023
  556MOL0     O74933   7.824   0.843   0.869 -0.2817  0.9625  0.2105
  556MOL0     C74934   7.919   0.946   0.840  0.1548 -0.1261  0.5313
  556MOL0     C74935   8.060   0.890   0.852 -0.3981 -0.5635  0.1910
  556MOL0     C74936   8.137   0.888   0.981  0.2112 -0.3108 -0.6582
  556MOL0     C74937   8.286   0.925   0.976 -0.9109  0.2506 -0.2493
  556MOL0     C74938   8.367   0.807   0.913  0.4269  0.3468 -0.4791
  556MOL0     C74939   8.522   0.821   0.917  0.2950 -0.6290 -0.1278
  556MOL0     C74940   8.570   0.811   1.055  0.0677 -0.2209 -1.4128
  556MOL0     C74941   8.720   0.823   1.095 -0.3551 -0.7737 -0.2429
  556MOL0     N74942   8.804   0.715   1.034  0.2994  0.4696 -0.2311
  556MOL0     C74943   8.936   0.717   0.998 -0.3189 -0.9917  0.1364
  556MOL0     C74944   8.961   0.594   0.957  0.0305 -0.0558 -0.6156
  556MOL0     C74945   9.084   0.554   0.876 -0.2274 -0.4206 -0.1227
  556MOL0     C74946   9.214   0.555   0.959  0.8922  0.9894 -0.6394
  556MOL0     C74947   9.226   0.458   1.069 -0.2398  0.4330  0.3498
  556MOL0     C74948   9.271   0.313   1.029  0.4175 -0.4560 -0.9893
  556MOL0     O74949   9.392   0.318   0.937  0.7290  0.1770  0.2148
  556MOL0     C74950   9.512   0.298   0.974 -0.3479 -0.0254  0.1770
  556MOL0     C74951   9.557   0.320   1.109  1.1367  0.4261 -0.3553
  556MOL0     C74952   9.684   0.300   1.143  0.3555  0.2727 -0.3973
  556MOL0     C74953   9.774   0.253   1.048  0.2064  0.0142  0.0835
  556MOL0     C74954   9.914   0.209   1.086  0.3357  0.2943 -0.3373
  556MOL0     O74955   9.988   0.150   0.994 -0.4221  0.1015 -0.2455
  556MOL0     C74956  10.108   0.092   1.032 -0.6267  0.7399  0.6177
  556MOL0     C74957  10.108  -0.047   1.056 -0.5350 -0.4622 -0.7249
  556MOL0     C74958  10.230  -0.106   1.080  0.1145  0.7040  0.0088
  556MOL0     C74959  10.349  -0.042   1.080  0.7804 -0.0734 -0.1110
  556MOL0     O74960  10.461  -0.125   1.090 -0.3274  0.3423  0.0626
  556MOL0     C74961  10.592  -0.075   1.056  1.1656  0.0622 -0.1040
  556MOL0     C74962  10.694  -0.165   1.129  0.7585 -0.2865  0.2816
  556MOL0     C74963  10.819  -0.159   1.046 -0.0236 -0.7209 -0.2084
  556MOL0     C74964  10.928  -0.233   1.109 -0.0558  0.1623 -0.4175
  556MOL0     C74965  11.051  -0.256   1.031 -0.6631 -0.3740  0.5284
  556MOL0     C74966  11.165  -0.335   1.107  0.0849 -0.8986 -0.2935
  556MOL0     C74967  11.301  -0.337   1.037  0.6143 -0.1923 -0.6546
  556MOL0     C74968  11.297  -0.414   0.904 -0.6752  0.0072  0.3315
  556MOL0    Cl74969  11.240  -0.581   0.927 -0.4277  0.2782 -0.2422
  556MOL0     C74970  10.345   0.092   1.046 -0.4534  0.7689 -0.0647
  556MOL0     C74971  10.225   0.159   1.024  0.2594  0.0645  0.2996
  556MOL0     O74972   9.950   0.229   1.202  0.0923 -1.5453  0.0905
  556MOL0     C74973   9.727   0.235   0.917  0.5889  0.1792  0.3665
  556MOL0     C74974   9.602   0.266   0.879  1.1285 -0.2441 -0.2577
  556MOL0     N74975   8.856   0.512   0.978 -0.4014 -0.4956 -0.6575
  556MOL0     N74976   8.762   0.584   1.023  0.5379  0.3314  0.1271
  556MOL0     C74977   7.604   0.775   0.816 -0.2808  0.7380  0.0519
  556MOL0     C74978   7.469   0.803   0.790 -0.1195  0.6437 -0.3753
  556MOL0     C74979   7.128   1.044   0.597 -0.7792 -0.8617 -0.0222
  556MOL0     C74980   7.039   1.067   0.700  0.0436 -0.7480  0.2865
  556MOL0     C74981   6.904   1.106   0.685  0.3872  0.0729  0.4129
  556MOL0     C74982   6.853   1.133   0.564 -0.5147  0.5791  0.0603
  556MOL0     O74983   6.727   1.169   0.538  0.1256  0.1268  0.2925
  556MOL0     C74984   6.651   1.247   0.632  0.3952 -0.3030 -0.0484
  556MOL0     C74985   6.526   1.290   0.559 -0.6288 -0.6925 -0.5756
  556MOL0     C74986   6.557   1.360   0.424  0.4057  0.0825 -0.3380
  556MOL0     C74987   6.535   1.280   0.295 -0.4847 -0.6061 -0.7841
  556MOL0     C74988   6.564   1.364   0.182 -0.3070 -0.6638 -0.6533
  556MOL0     C74989   6.577   1.428   0.083  0.4439 -0.0060  1.5194
  556MOL0     C74990   6.944   1.129   0.459  0.2287 -0.5493  0.6382
  556MOL0     C74991   7.074   1.081   0.471 -0.8055 -0.4642  1.0318
  556MOL0     C74992   7.150   1.079   0.341 -0.7738 -0.5164 -0.1162
  556MOL0     H74993   7.481   1.140   0.814 -2.0727 -0.7553 -2.2608
  556MOL0     H74994   7.710   1.091   0.883 -0.5439  0.4399  0.4648
  556MOL0     H74995   7.904   0.982   0.738  0.1471 -1.4185  0.0593
  556MOL0     H74996   7.915   1.038   0.901  2.2810  0.4416 -0.1134
  556MOL0     H74997   8.120   0.948   0.781 -1.3167 -0.2990 -0.3876
  556MOL0     H74998   8.049   0.788   0.814 -1.9146 -0.9209  1.4939
  556MOL0     H74999   8.122   0.787   1.022  1.5207 -0.1648  0.2133
  556MOL0     H75000   8.081   0.953   1.049 -0.2956 -2.5149  1.1667
  556MOL0     H75001   8.309   1.016   0.918  0.9277 -1.0175 -1.6189
  556MOL0     H75002   8.316   0.935   1.081  2.6710 -2.3530 -0.8482
  556MOL0     H75003   8.336   0.713   0.960 -1.5391  0.6438 -1.0545
  556MOL0     H75004   8.320   0.804   0.814 -2.8512 -0.8911  0.9508
  556MOL0     H75005   8.570   0.740   0.862  3.0207  0.4498  0.5177
  556MOL0     H75006   8.545   0.920   0.878 -0.5072 -0.9600 -1.5326
  556MOL0     H75007   8.528   0.716   1.090  3.4925 -1.1110  0.7354
  556MOL0     H75008   8.523   0.890   1.113  2.2116  0.4716 -0.5164
  556MOL0     H75009   8.757   0.920   1.059 -1.0698 -1.4369 -2.9608
  556MOL0     H75010   8.741   0.819   1.202  1.9804 -2.0062 -0.6826
  556MOL0     H75011   9.012   0.794   0.999 -0.6699 -0.6354 -0.1936
  556MOL0     H75012   9.072   0.452   0.837  3.1968 -0.7941 -0.5392
  556MOL0     H75013   9.097   0.615   0.786  0.2108 -1.4984 -0.8221
  556MOL0     H75014   9.296   0.549   0.887  1.1244  0.3556 -0.3316
  556MOL0     H75015   9.215   0.653   1.009  0.0762  0.3501  0.6586
  556MOL0     H75016   9.136   0.454   1.130  0.3495  0.4701  1.2428
  556MOL0     H75017   9.308   0.504   1.125 -0.2992  2.3071 -0.9935
  556MOL0     H75018   9.182   0.261   0.992 -2.0200  0.5270  2.8398
  556MOL0     H75019   9.300   0.259   1.119  0.9809 -0.0367 -0.9162
  556MOL0     H75020   9.481   0.337   1.184 -1.3847 -0.3405 -2.5872
  556MOL0     H75021   9.709   0.317   1.247 -1.8856  1.4815  0.0041
  556MOL0     H75022  10.016  -0.106   1.054 -0.3774 -0.6884 -1.8146
  556MOL0     H75023  10.231  -0.213   1.094  0.4150  0.7137  0.0631
  556MOL0     H75024  10.593  -0.070   0.947  1.7201 -0.9212 -0.1502
  556MOL0     H75025  10.611   0.022   1.103 -0.5101  1.4950 -2.1859
  556MOL0     H75026  10.705  -0.129   1.232  1.7092 -3.9351  1.6254
  556MOL0     H75027  10.660  -0.269   1.127  0.3682 -0.3374 -5.0254
  556MOL0     H75028  10.802  -0.190   0.943  3.5088 -1.4165 -0.6890
  556MOL0     H75029  10.835  -0.053   1.025 -0.1053 -0.8587 -1.0046
  556MOL0     H75030  10.893  -0.330   1.145  3.6697 -0.4334  2.0959
  556MOL0     H75031  10.954  -0.175   1.198 -0.5935 -1.2679  0.7095
  556MOL0     H75032  11.095  -0.159   1.003 -0.0340 -0.6639  0.4836
  556MOL0     H75033  11.014  -0.305   0.941 -0.1852 -0.9468  0.6401
  556MOL0     H75034  11.179  -0.287   1.204 -0.7411  2.4188 -1.6567
  556MOL0     H75035  11.129  -0.437   1.123  0.9059 -0.7631  3.2270
  556MOL0     H75036  11.376  -0.373   1.108 -0.2396  2.9749  2.1136
  556MOL0     H75037  11.326  -0.232   1.017  2.2424 -0.0900  1.5568
  556MOL0     H75038  11.240  -0.367   0.823 -0.6553  1.2537  1.0235
  556MOL0     H75039  11.399  -0.424   0.867 -0.6864  0.6302  0.1213
  556MOL0     H75040  10.445   0.130   1.028  0.3300 -1.3595 -0.4576
  556MOL0     H75041  10.222   0.260   0.985  1.3881 -0.4498 -1.2429
  556MOL0     H75042   9.788   0.210   0.830 -0.6115  0.7978 -0.6845
  556MOL0     H75043   9.557   0.252   0.781 -1.1954 -2.3741  1.0048
  556MOL0     H75044   7.637   0.672   0.826 -4.2768 -0.7359 -0.2505
  556MOL0     H75045   7.400   0.725   0.761 -0.7312  0.4255  1.5386
  556MOL0     H75046   7.084   1.065   0.799  2.0645 -0.4889 -0.5693
  556MOL0     H75047   6.839   1.117   0.772 -1.1065 -3.1687 -0.1644
  556MOL0     H75048   6.714   1.328   0.669  0.8198  0.6852 -2.6966
  556MOL0     H75049   6.623   1.195   0.723  2.0417  1.0553  1.3122
  556MOL0     H75050   6.475   1.364   0.622  0.6842 -0.8336  0.6990
  556MOL0     H75051   6.461   1.203   0.550 -2.4866  0.5054  0.6204
  556MOL0     H75052   6.653   1.411   0.433  0.1788  0.1525  3.0392
  556MOL0     H75053   6.484   1.442   0.431  0.6962  0.3627 -0.5778
  556MOL0     H75054   6.600   1.192   0.296  0.4703 -0.1760 -5.1169
  556MOL0     H75055   6.431   1.245   0.301 -0.9155  0.7699  0.1852
  556MOL0     H75056   6.585   1.486  -0.007 -1.2981 -0.1588  1.2149
  556MOL0     H75057   6.914   1.160   0.359  1.3513 -1.2841  0.0493
  556MOL0     H75058   7.095   1.126   0.260  2.1723  0.8867 -1.4561
  556MOL0     H75059   7.242   1.136   0.352 -0.8540 -0.4002 -0.0492
  556MOL0     H75060   7.179   0.976   0.318  0.8856  0.4206 -2.5601
  557MOL0     O75061   0.993   0.770   2.359  0.3034  0.1193 -0.4884
  557MOL0     C75062   0.967   0.683   2.442 -0.0445 -0.5724 -0.3120
  557MOL0     O75063   0.971   0.549   2.428 -0.4341 -0.1488  1.3163
  557MOL0     C75064   1.042   0.482   2.332  0.0130 -0.2859  0.2715
  557MOL0     C75065   0.983   0.375   2.272  0.8510 -0.1926 -0.6830
  557MOL0     C75066   1.043   0.308   2.163 -0.8238 -0.1928  0.3934
  557MOL0     C75067   1.166   0.352   2.103  0.2302  0.0508 -0.2850
  557MOL0     O75068   1.199   0.297   1.977 -0.5934  0.1754 -0.2556
  557MOL0     C75069   1.345   0.300   1.955 -0.2363  0.6273 -0.5412
  557MOL0     C75070   1.385   0.213   1.839 -0.0430  0.1449  0.1841
  557MOL0     C75071   1.338   0.279   1.706  0.9262 -0.1307  0.2284
  557MOL0     C75072   1.334   0.181   1.579  0.5244  0.1535 -0.2460
  557MOL0     C75073   1.284   0.257   1.448 -0.2160 -0.3353 -0.5000
  557MOL0     C75074   1.251   0.167   1.327  0.4575 -0.7237  0.3080
  557MOL0     C75075   1.378   0.099   1.277 -0.0549 -0.1510 -0.2159
  557MOL0     C75076   1.481   0.184   1.213  0.2268 -0.2486  0.0944
  557MOL0     N75077   1.426   0.270   1.106  0.1534  0.1124  0.5707
  557MOL0     C75078   1.374   0.233   0.983  0.4035 -0.2827  0.2459
  557MOL0     C75079   1.338   0.347   0.920  0.3062  0.4100  0.4362
  557MOL0     C75080   1.262   0.355   0.788  0.0648  0.2448 -0.4264
  557MOL0     C75081   1.119   0.386   0.837  0.2038 -0.2506  0.2774
  557MOL0     C75082   1.024   0.355   0.719 -0.2555  0.5708  0.9710
  557MOL0     C75083   0.883   0.375   0.762  0.3926  0.3862  0.2426
  557MOL0     O75084   0.796   0.371   0.645  0.8820 -0.6135  0.7853
  557MOL0     C75085   0.658   0.397   0.655 -0.7783 -0.0090  0.1463
  557MOL0     C75086   0.599   0.499   0.734 -0.6939 -0.2103  0.5475
  557MOL0     C75087   0.464   0.511   0.750  0.7363  0.0130  0.8780
  557MOL0     C75088   0.376   0.424   0.685  0.2341 -0.5410 -0.0752
  557MOL0     C75089   0.231   0.436   0.710 -0.2844 -0.2544 -0.4321
  557MOL0     O75090   0.191   0.565   0.736 -0.1932 -0.0872 -0.6548
  557MOL0     C75091   0.056   0.580   0.736  0.0931 -0.4926  0.2109
  557MOL0     C75092   0.016   0.660   0.635  0.3766  0.9244  0.4359
  557MOL0     C75093  -0.113   0.690   0.614  0.0607  1.0894  0.8148
  557MOL0     C75094  -0.217   0.650   0.699  0.1011 -0.1461 -0.8063
  557MOL0     O75095  -0.354   0.686   0.686 -0.0019  0.3925 -0.3712
  557MOL0     C75096  -0.386   0.795   0.592  0.6747  0.2790  0.3070
  557MOL0     C75097  -0.547   0.790   0.589 -0.0063  0.6939 -0.0294
  557MOL0     C75098  -0.617   0.861   0.707  0.3303 -0.5955  0.1914
  557MOL0     C75099  -0.775   0.872   0.694 -1.0517 -0.2551 -0.8050
  557MOL0     C75100  -0.834   0.962   0.807  0.6854 -0.8458  0.5301
  557MOL0     C75101  -0.807   1.111   0.782  0.1286 -0.2700 -0.2095
  557MOL0     C75102  -0.911   1.192   0.865  0.8894  0.0637 -0.7379
  557MOL0     C75103  -0.904   1.343   0.849 -0.3407  0.3691 -0.3100
  557MOL0    Cl75104  -0.742   1.383   0.913  0.1505  0.2289  0.1186
  557MOL0     C75105  -0.180   0.572   0.803  0.0514 -1.1026 -0.5087
  557MOL0     C75106  -0.046   0.534   0.827 -0.2160  0.1433  0.7549
  557MOL0     O75107   0.161   0.338   0.699 -0.3416 -0.2160  0.7911
  557MOL0     C75108   0.434   0.330   0.596  0.2839 -0.0653  0.2896
  557MOL0     C75109   0.574   0.312   0.588  0.5866 -0.0392  0.3690
  557MOL0     N75110   1.375   0.453   1.004  1.3747  0.6438 -0.3839
  557MOL0     N75111   1.420   0.404   1.121 -0.0648  0.3634  1.2278
  557MOL0     C75112   1.220   0.470   2.163  0.6735 -0.5113  0.2637
  557MOL0     C75113   1.164   0.530   2.276 -0.4145  0.7080  0.0477
  557MOL0     C75114   0.944   0.724   2.584  0.1975 -0.1016  0.3428
  557MOL0     C75115   0.966   0.633   2.680 -0.0972 -0.0032 -0.5183
  557MOL0     C75116   0.950   0.666   2.817  0.1886  0.0830 -0.0742
  557MOL0     C75117   0.910   0.791   2.855  0.3996  0.5957 -0.2827
  557MOL0     O75118   0.919   0.826   2.985  0.5381 -0.0875 -0.6392
  557MOL0     C75119   0.818   0.926   3.021  0.5612  1.6099  0.5534
  557MOL0     C75120   0.792   0.940   3.175 -0.2307 -0.0852 -0.0052
  557MOL0     C75121   0.692   1.050   3.214  1.0064 -0.2142  0.2090
  557MOL0     C75122   0.751   1.186   3.213  0.7889  0.6245  0.5528
  557MOL0     C75123   0.863   1.198   3.305 -0.0567  0.6367 -0.0270
  557MOL0     C75124   0.959   1.202   3.381  0.7338  0.8091  0.3424
  557MOL0     C75125   0.873   0.878   2.753 -0.2027  0.0391 -0.2166
  557MOL0     C75126   0.891   0.847   2.615  0.4708  0.5049  0.4511
  557MOL0     C75127   0.833   0.941   2.513 -0.0858 -0.1414  0.3702
  557MOL0     H75128   0.885   0.340   2.304  0.6594 -0.1876 -1.2594
  557MOL0     H75129   0.997   0.230   2.103  0.2438  0.7142 -1.7201
  557MOL0     H75130   1.391   0.399   1.945 -0.7200  1.0796  1.3683
  557MOL0     H75131   1.387   0.258   2.047  0.8365 -0.2356 -1.3808
  557MOL0     H75132   1.343   0.114   1.862  1.4205 -0.2675  1.2261
  557MOL0     H75133   1.493   0.213   1.825 -0.2037  1.1280 -1.2937
  557MOL0     H75134   1.405   0.362   1.684 -0.0035  0.1224 -1.9527
  557MOL0     H75135   1.244   0.335   1.711  1.2800  0.5373 -0.5149
  557MOL0     H75136   1.432   0.139   1.554  0.8160  1.0308 -0.6251
  557MOL0     H75137   1.272   0.095   1.607  0.3422  0.7588  1.3093
  557MOL0     H75138   1.197   0.311   1.488  0.6098  0.6252  0.0330
  557MOL0     H75139   1.350   0.340   1.420  0.5470 -0.9971 -0.6812
  557MOL0     H75140   1.184   0.088   1.362  0.1904 -0.0234  1.4269
  557MOL0     H75141   1.196   0.227   1.253 -0.0807 -1.0132  0.4652
  557MOL0     H75142   1.364   0.013   1.211  2.0907 -0.3344 -0.4978
  557MOL0     H75143   1.424   0.052   1.365 -0.0639 -0.8463 -0.5716
  557MOL0     H75144   1.537   0.250   1.280 -0.3281  1.1717 -0.7901
  557MOL0     H75145   1.544   0.118   1.153 -2.0640 -0.6191 -2.0710
  557MOL0     H75146   1.354   0.132   0.947 -2.1131  0.5020 -0.7633
  557MOL0     H75147   1.303   0.437   0.727 -2.7452  0.2121 -2.5329
  557MOL0     H75148   1.276   0.259   0.737  3.1237 -0.4914  1.5040
  557MOL0     H75149   1.090   0.339   0.931 -1.2244 -1.1324 -0.5636
  557MOL0     H75150   1.113   0.494   0.856 -1.8699 -0.3129  0.1841
  557MOL0     H75151   1.044   0.251   0.691 -3.0421  0.6101 -1.7169
  557MOL0     H75152   1.047   0.418   0.633 -0.7909  0.0604  0.4478
  557MOL0     H75153   0.877   0.468   0.820  1.6546  0.4518  0.3007
  557MOL0     H75154   0.847   0.290   0.820 -2.4995  2.5758  1.9037
  557MOL0     H75155   0.674   0.548   0.795  2.4110 -2.4853 -1.1604
  557MOL0     H75156   0.435   0.575   0.832 -0.6832 -1.2413  1.4220
  557MOL0     H75157   0.093   0.704   0.572 -0.2337 -0.0009 -0.9945
  557MOL0     H75158  -0.138   0.743   0.522 -2.1071 -0.5524  0.3599
  557MOL0     H75159  -0.339   0.888   0.625 -0.7799  0.7409  1.1375
  557MOL0     H75160  -0.352   0.775   0.490  2.6955  1.8249  0.6077
  557MOL0     H75161  -0.587   0.847   0.505  0.8550  4.6584  1.9903
  557MOL0     H75162  -0.577   0.685   0.582  1.2137  0.3256  0.0285
  557MOL0     H75163  -0.586   0.819   0.803  2.1730 -0.7984 -0.4628
  557MOL0     H75164  -0.578   0.963   0.711 -1.6333  0.1617  1.5734
  557MOL0     H75165  -0.816   0.771   0.705 -0.4858 -0.5700 -1.5670
  557MOL0     H75166  -0.805   0.901   0.593 -0.0421 -0.7286 -1.2557
  557MOL0     H75167  -0.798   0.933   0.906  0.3021  0.5748  1.1031
  557MOL0     H75168  -0.942   0.942   0.813  0.1292  1.2896 -0.9204
  557MOL0     H75169  -0.709   1.143   0.817 -1.1879  3.0528  0.7972
  557MOL0     H75170  -0.827   1.126   0.676 -0.2690 -4.0160 -0.7996
  557MOL0     H75171  -0.904   1.161   0.969  0.9290 -4.6529 -1.9050
  557MOL0     H75172  -1.014   1.163   0.842 -0.2342  1.4407  2.1375
  557MOL0     H75173  -0.914   1.369   0.743  0.1462 -0.1124 -0.4806
  557MOL0     H75174  -0.975   1.399   0.909 -0.0262  2.4266 -1.7646
  557MOL0     H75175  -0.260   0.534   0.865  0.1485 -3.6843 -1.8503
  557MOL0     H75176  -0.016   0.458   0.899  2.0265 -0.8601 -1.1038
  557MOL0     H75177   0.371   0.260   0.542  0.8189  1.0930 -1.9179
  557MOL0     H75178   0.613   0.230   0.529 -0.0987  1.1617 -1.8532
  557MOL0     H75179   1.299   0.518   2.106 -1.1287 -1.6277 -3.5423
  557MOL0     H75180   1.196   0.620   2.328  0.0090  0.3871  0.3455
  557MOL0     H75181   1.006   0.537   2.648  0.4142  1.1535 -3.7698
  557MOL0     H75182   0.987   0.594   2.889  1.0438  0.5691 -0.0120
  557MOL0     H75183   0.722   0.891   2.984  1.3995  2.5595 -2.9065
  557MOL0     H75184   0.847   1.026   2.988 -0.4007  1.5355 -0.5659
  557MOL0     H75185   0.891   0.955   3.219  0.1126  0.7206 -0.9964
  557MOL0     H75186   0.754   0.845   3.212  2.1520 -0.7021  1.0256
  557MOL0     H75187   0.634   1.022   3.303  1.0554 -1.7957 -0.2444
  557MOL0     H75188   0.618   1.052   3.134  1.9361 -1.6581 -0.7374
  557MOL0     H75189   0.793   1.227   3.121  1.9367 -2.1150 -0.2740
  557MOL0     H75190   0.676   1.261   3.240  1.8935  3.5862 -3.7157
  557MOL0     H75191   1.043   1.218   3.446  0.9461 -1.9036  0.8517
  557MOL0     H75192   0.836   0.976   2.781  0.5082 -0.1241  1.3648
  557MOL0     H75193   0.925   0.999   2.497  0.2944 -1.1588 -1.4759
  557MOL0     H75194   0.781   0.906   2.423 -1.2980  0.2391  0.9052
  557MOL0     H75195   0.763   1.004   2.568  2.1547 -0.2635  3.6292
  558MOL0     O75196   9.193   5.227   6.431 -0.1203 -0.1577  0.5154
  558MOL0     C75197   9.126   5.130   6.406  0.6862  0.2697 -0.0582
  558MOL0     O75198   9.166   5.002   6.435 -0.4868 -0.0564 -0.4428
  558MOL0     C75199   9.258   4.970   6.533 -0.2720  0.4206  0.6600
  558MOL0     C75200   9.369   4.882   6.511 -0.1298  0.6785 -0.1761
  558MOL0     C75201   9.453   4.847   6.621 -0.3221  0.5508  0.8849
  558MOL0     C75202   9.437   4.903   6.739 -0.5222 -0.7688  0.4194
  558MOL0     O75203   9.519   4.856   6.839  0.0902 -0.1961  0.7677
  558MOL0     C75204   9.531   4.926   6.962 -0.7432 -0.1669  0.0170
  558MOL0     C75205   9.681   4.908   6.995  0.1924 -0.2469  0.3207
  558MOL0     C75206   9.712   4.961   7.127  0.0258  0.3141  0.5125
  558MOL0     C75207   9.858   4.947   7.164 -0.3902 -0.0961  0.3620
  558MOL0     C75208   9.887   5.028   7.292  0.2062 -0.2067  0.4770
  558MOL0     C75209   9.897   5.182   7.255  0.6365  0.5780 -1.0696
  558MOL0     C75210   9.949   5.261   7.374  0.0617 -0.3404 -0.8751
  558MOL0     C75211   9.959   5.414   7.346  0.3159  0.6939 -0.2784
  558MOL0     N75212  10.043   5.481   7.445 -0.4467  0.7590  0.1194
  558MOL0     C75213  10.022   5.481   7.581 -0.4347 -0.1729 -0.7607
  558MOL0     C75214  10.141   5.491   7.636 -0.1492 -0.4743  0.8068
  558MOL0     C75215  10.155   5.509   7.788 -0.0339  0.1135 -0.1884
  558MOL0     C75216  10.156   5.366   7.855  0.1990 -0.9862 -0.1793
  558MOL0     C75217  10.277   5.285   7.809  0.4515  0.0439 -0.0544
  558MOL0     C75218  10.419   5.351   7.807  0.2151  0.3611 -2.5138
  558MOL0     O75219  10.464   5.397   7.938  0.2288  0.2216 -0.3984
  558MOL0     C75220  10.597   5.410   7.957 -0.5313  0.6429  0.3514
  558MOL0     C75221  10.631   5.414   8.092 -0.5660  0.9846 -0.4698
  558MOL0     C75222  10.757   5.414   8.136  0.5573 -0.2794  0.2361
  558MOL0     C75223  10.861   5.424   8.040  0.3515 -0.9259 -1.5623
  558MOL0     C75224  11.002   5.429   8.079  0.1751 -0.8231 -0.3832
  558MOL0     O75225  11.103   5.404   7.988  0.3719 -0.5795  0.1280
  558MOL0     C75226  11.237   5.407   8.019 -0.0566 -0.2265  0.2574
  558MOL0     C75227  11.320   5.503   7.966  0.3451 -0.3067 -0.6763
  558MOL0     C75228  11.456   5.516   8.012  0.7024 -0.4602  1.0959
  558MOL0     C75229  11.507   5.433   8.107 -0.7997  0.5570 -0.3817
  558MOL0     O75230  11.638   5.437   8.159 -0.3480 -0.5253  0.0025
  558MOL0     C75231  11.734   5.524   8.093  0.4226  0.5503  0.4499
  558MOL0     C75232  11.778   5.494   7.950  0.1492 -0.0952 -0.9542
  558MOL0     C75233  11.924   5.558   7.927  0.3334  1.6169  0.2367
  558MOL0     C75234  11.968   5.553   7.780  1.0361  0.0034  0.3366
  558MOL0     C75235  12.092   5.629   7.739 -0.0400 -0.1226 -0.1782
  558MOL0     C75236  12.119   5.601   7.589 -0.5772  0.3102  0.4717
  558MOL0     C75237  12.260   5.651   7.554 -0.1021  0.6626 -0.8743
  558MOL0     C75238  12.341   5.539   7.481 -0.1039  0.7688  0.6207
  558MOL0    Cl75239  12.472   5.613   7.401 -0.2069 -0.2385  0.0626
  558MOL0     C75240  11.423   5.333   8.165 -0.0532 -0.0825  0.2006
  558MOL0     C75241  11.294   5.322   8.115 -0.0359  0.5208  0.1865
  558MOL0     O75242  11.019   5.439   8.198  0.0271  0.2755  0.1715
  558MOL0     C75243  10.828   5.429   7.906 -0.5505 -0.0909  0.1510
  558MOL0     C75244  10.696   5.425   7.860 -0.6010 -0.1705 -0.1292
  558MOL0     N75245  10.235   5.510   7.541  0.0269 -0.7641 -0.9211
  558MOL0     N75246  10.178   5.503   7.428  0.4132 -0.0052 -0.8155
  558MOL0     C75247   9.326   4.988   6.761  0.5611  0.0263 -0.3886
  558MOL0     C75248   9.240   5.021   6.652 -0.1528 -0.2645 -0.6989
  558MOL0     C75249   8.993   5.145   6.332  0.0472 -0.6148 -0.3596
  558MOL0     C75250   8.930   5.028   6.280  0.7406 -0.1693  0.5058
  558MOL0     C75251   8.793   5.025   6.258 -0.1692  0.6313 -0.1785
  558MOL0     C75252   8.715   5.140   6.271  0.4833 -0.0985 -0.3570
  558MOL0     O75253   8.578   5.124   6.237  0.1806 -0.5113 -1.3485
  558MOL0     C75254   8.500   5.241   6.262 -0.5042  0.6981 -0.6243
  558MOL0     C75255   8.351   5.201   6.255  0.1521  0.6438  0.1977
  558MOL0     C75256   8.326   5.087   6.354  0.0788 -0.3416 -0.6624
  558MOL0     C75257   8.174   5.098   6.387 -0.5294 -0.4690 -0.1056
  558MOL0     C75258   8.143   5.015   6.501  0.4431  0.1814  0.5317
  558MOL0     C75259   8.129   4.934   6.590  0.1508  0.2518  0.5350
  558MOL0     C75260   8.778   5.265   6.303 -0.0064 -0.1056  0.0359
  558MOL0     C75261   8.918   5.270   6.342 -0.1266  1.1149 -0.1634
  558MOL0     C75262   8.981   5.403   6.392 -1.1223 -0.2912  0.1154
  558MOL0     H75263   9.394   4.842   6.414 -0.5649 -0.0927  0.0234
  558MOL0     H75264   9.535   4.779   6.598  0.6055  1.6655  0.8398
  558MOL0     H75265   9.514   5.034   6.958  0.4016  0.0176 -3.9370
  558MOL0     H75266   9.476   4.867   7.036 -0.5918 -0.9635 -0.5006
  558MOL0     H75267   9.733   4.967   6.920 -1.2947 -0.4536 -0.9051
  558MOL0     H75268   9.711   4.805   6.975  1.8385  0.3243 -0.2693
  558MOL0     H75269   9.650   4.912   7.203 -0.3646  0.7577  0.4822
  558MOL0     H75270   9.682   5.066   7.124  1.0872  0.7455  2.6170
  558MOL0     H75271   9.890   4.844   7.183  1.8206  0.5671  0.5302
  558MOL0     H75272   9.915   4.987   7.079  0.1162 -2.2855 -0.3998
  558MOL0     H75273   9.814   5.010   7.371  1.2377  0.3214  1.5887
  558MOL0     H75274   9.984   4.999   7.336  0.6295  0.4973  0.0272
  558MOL0     H75275   9.952   5.195   7.161 -1.9639 -1.2070 -2.9642
  558MOL0     H75276   9.794   5.217   7.240 -0.2677 -0.5053  1.8679
  558MOL0     H75277  10.051   5.227   7.395 -0.1107 -0.3494 -0.0087
  558MOL0     H75278   9.889   5.251   7.465  2.1834  0.7630  0.7370
  558MOL0     H75279   9.994   5.436   7.244  3.6346 -2.2509  0.0468
  558MOL0     H75280   9.861   5.462   7.357  0.5401  1.3759 -1.1141
  558MOL0     H75281   9.937   5.454   7.643  0.4297 -2.1184 -0.3684
  558MOL0     H75282  10.247   5.565   7.805 -1.0916  1.3471  1.8942
  558MOL0     H75283  10.069   5.563   7.828 -0.9395 -0.2392 -1.5722
  558MOL0     H75284  10.157   5.382   7.963 -1.2546  3.2204 -0.5944
  558MOL0     H75285  10.064   5.311   7.835 -2.3947  3.4452 -2.0548
  558MOL0     H75286  10.251   5.260   7.706  0.1470 -0.0426  0.0433
  558MOL0     H75287  10.291   5.190   7.862  0.9792  0.3320  0.3331
  558MOL0     H75288  10.407   5.440   7.746 -3.0872  2.6648  1.0353
  558MOL0     H75289  10.485   5.277   7.761  0.1249 -1.0975 -0.4754
  558MOL0     H75290  10.548   5.413   8.162 -0.6057  0.5600 -0.5185
  558MOL0     H75291  10.781   5.417   8.242  0.9813 -0.8484  0.1655
  558MOL0     H75292  11.280   5.565   7.887  0.7644 -1.7318 -2.0583
  558MOL0     H75293  11.517   5.591   7.962  0.9983  0.5119  2.8237
  558MOL0     H75294  11.702   5.629   8.093 -2.9789 -0.2907 -2.7420
  558MOL0     H75295  11.824   5.510   8.154  1.4133 -0.3177 -1.1602
  558MOL0     H75296  11.784   5.385   7.938  1.1587 -0.0849 -0.7185
  558MOL0     H75297  11.708   5.539   7.880 -0.8110  0.8315  0.5537
  558MOL0     H75298  11.930   5.662   7.960  0.0869  2.3224 -1.7974
  558MOL0     H75299  11.987   5.492   7.987  0.4517  0.8591 -0.6882
  558MOL0     H75300  11.881   5.602   7.734  1.0353 -0.6259 -0.3415
  558MOL0     H75301  11.987   5.451   7.748 -0.4770 -0.4192  0.6686
  558MOL0     H75302  12.179   5.606   7.801 -1.8002  0.5437  2.7321
  558MOL0     H75303  12.077   5.737   7.747  1.9722  0.1716  0.1691
  558MOL0     H75304  12.118   5.493   7.573  1.5610  0.0629  1.6480
  558MOL0     H75305  12.055   5.654   7.518 -0.8418  0.4556  0.8129
  558MOL0     H75306  12.317   5.691   7.638 -0.1040  0.5473 -0.8175
  558MOL0     H75307  12.255   5.738   7.489  1.4917  0.2757 -1.5695
  558MOL0     H75308  12.382   5.466   7.551  0.3649  0.8131  0.3902
  558MOL0     H75309  12.271   5.495   7.409  1.3008  1.7344 -1.4132
  558MOL0     H75310  11.444   5.282   8.259 -0.3455  1.5177  1.1774
  558MOL0     H75311  11.237   5.242   8.163 -0.6617  0.1060 -1.1952
  558MOL0     H75312  10.913   5.446   7.841  0.5730  1.3146  1.8762
  558MOL0     H75313  10.672   5.414   7.754 -0.9965 -1.5037  0.0788
  558MOL0     H75314   9.306   5.033   6.858 -0.8255  2.3912 -1.6839
  558MOL0     H75315   9.163   5.095   6.670 -0.2504 -0.7022  0.8839
  558MOL0     H75316   8.979   4.934   6.256 -2.5855 -1.4424 -2.2083
  558MOL0     H75317   8.744   4.932   6.232  0.7892  0.1292 -0.2219
  558MOL0     H75318   8.518   5.321   6.189  0.2098  1.4886  0.3821
  558MOL0     H75319   8.516   5.282   6.362  1.9522 -5.6631  2.0741
  558MOL0     H75320   8.306   5.164   6.162 -0.8126  0.6725  0.6335
  558MOL0     H75321   8.287   5.287   6.279 -2.1344 -0.0770 -2.6655
  558MOL0     H75322   8.377   5.101   6.449  0.6616 -1.5874 -0.7666
  558MOL0     H75323   8.355   4.991   6.309  0.0815 -0.3175 -0.7125
  558MOL0     H75324   8.140   5.197   6.419  2.6863  0.6708  0.1358
  558MOL0     H75325   8.125   5.072   6.293 -0.6682  0.6016 -0.3352
  558MOL0     H75326   8.124   4.863   6.670  0.1415  0.2295  0.5143
  558MOL0     H75327   8.718   5.356   6.305 -0.1119 -0.1824  0.4905
  558MOL0     H75328   9.071   5.425   6.333 -2.3284 -2.1771 -2.6117
  558MOL0     H75329   8.919   5.493   6.382  1.0513  1.1673 -1.1529
  558MOL0     H75330   9.010   5.396   6.498  3.9974 -1.9075 -1.1125
  559MOL0     O75331   5.266   0.602   1.419  0.0339 -0.4456  0.4902
  559MOL0     C75332   5.144   0.626   1.429 -0.1682 -0.9897 -0.3958
  559MOL0     O75333   5.066   0.591   1.539 -0.2197  0.4084  0.0934
  559MOL0     C75334   5.124   0.558   1.660 -1.1879  0.4811 -0.1250
  559MOL0     C75335   5.239   0.629   1.714 -0.1876  0.6902 -0.7502
  559MOL0     C75336   5.308   0.567   1.818  0.3248  0.4151 -0.6448
  559MOL0     C75337   5.258   0.453   1.880  0.5937 -1.1800  0.3509
  559MOL0     O75338   5.324   0.393   1.981  0.2378  0.4632  0.1735
  559MOL0     C75339   5.271   0.448   2.106 -0.0120  0.8794 -0.2148
  559MOL0     C75340   5.355   0.434   2.229  0.2692  0.8846 -0.4703
  559MOL0     C75341   5.490   0.516   2.216 -0.1477 -0.3569 -0.0488
  559MOL0     C75342   5.616   0.440   2.264  0.8085  0.1851  0.8220
  559MOL0     C75343   5.618   0.446   2.421  0.5722 -0.3951  0.6902
  559MOL0     C75344   5.739   0.355   2.475  0.2507  0.2904 -0.6572
  559MOL0     C75345   5.749   0.356   2.630 -0.4020 -0.2555 -0.5430
  559MOL0     C75346   5.829   0.481   2.679  1.0592 -0.2053 -1.0313
  559MOL0     N75347   5.829   0.505   2.826  0.0519  0.1834 -0.5339
  559MOL0     C75348   5.830   0.421   2.937 -0.1242  0.1954 -0.1187
  559MOL0     C75349   5.848   0.488   3.049  0.0951  0.4811 -0.6722
  559MOL0     C75350   5.866   0.442   3.186 -1.0165  0.3967 -0.2696
  559MOL0     C75351   6.006   0.374   3.195  0.0248 -0.3422  0.1409
  559MOL0     C75352   6.124   0.471   3.195 -0.4963 -0.4822 -0.1585
  559MOL0     C75353   6.252   0.408   3.240  0.1809 -0.4642 -0.1099
  559MOL0     O75354   6.262   0.293   3.153  0.4254 -0.4317 -0.0997
  559MOL0     C75355   6.375   0.221   3.168  0.1927  0.1303 -0.0447
  559MOL0     C75356   6.459   0.225   3.275  0.3197  0.5251  0.5508
  559MOL0     C75357   6.584   0.151   3.275 -0.0018 -0.0534  1.1516
  559MOL0     C75358   6.615   0.053   3.177 -0.3849 -0.7308 -0.2302
  559MOL0     C75359   6.727  -0.034   3.183 -0.3036  0.3953  1.2060
  559MOL0     O75360   6.789  -0.048   3.305  0.3304 -0.4405  0.2206
  559MOL0     C75361   6.893  -0.136   3.334  0.9633  0.0098 -0.2618
  559MOL0     C75362   6.996  -0.093   3.420 -0.9973 -0.4016  0.7046
  559MOL0     C75363   7.097  -0.195   3.452 -0.3246  0.6349 -0.0549
  559MOL0     C75364   7.089  -0.326   3.397  0.3717 -0.1069  0.5415
  559MOL0     O75365   7.179  -0.423   3.428  0.5795  0.5397 -0.0387
  559MOL0     C75366   7.260  -0.410   3.543  0.4673  0.1171  0.4587
  559MOL0     C75367   7.322  -0.547   3.578 -1.0829 -0.1001  0.0760
  559MOL0     C75368   7.413  -0.533   3.707  0.5615 -0.8780  0.2849
  559MOL0     C75369   7.561  -0.560   3.667  0.4128 -0.1691  0.2020
  559MOL0     C75370   7.667  -0.521   3.767 -0.4954 -0.2202  0.4956
  559MOL0     C75371   7.806  -0.512   3.705 -0.0749  0.1141 -1.2667
  559MOL0     C75372   7.921  -0.508   3.805  0.1059 -0.2611  0.4183
  559MOL0     C75373   7.933  -0.639   3.875  0.4338 -0.0992 -0.4114
  559MOL0    Cl75374   8.020  -0.739   3.759  0.2010  0.0834 -0.3071
  559MOL0     C75375   6.983  -0.358   3.314 -0.4130 -0.1650  0.8410
  559MOL0     C75376   6.884  -0.265   3.281  0.5080  0.3537 -0.6304
  559MOL0     O75377   6.746  -0.105   3.083 -0.4430  0.1039  0.6268
  559MOL0     C75378   6.530   0.067   3.058 -0.9123 -0.8545 -0.9279
  559MOL0     C75379   6.405   0.140   3.066 -0.1262  0.7811 -0.1683
  559MOL0     N75380   5.856   0.622   3.018 -0.2309 -0.0419 -0.4297
  559MOL0     N75381   5.849   0.631   2.882  0.7450 -0.3025 -0.9460
  559MOL0     C75382   5.136   0.391   1.844  0.1477  0.6035  1.7039
  559MOL0     C75383   5.077   0.446   1.728  1.1204  0.7723  0.1463
  559MOL0     C75384   5.077   0.706   1.314 -0.4753 -0.8519 -0.0774
  559MOL0     C75385   4.945   0.756   1.332  1.0032 -0.1020 -0.0795
  559MOL0     C75386   4.877   0.831   1.235 -0.3599  0.5481  0.2218
  559MOL0     C75387   4.945   0.869   1.124 -0.1619  0.2962  0.2139
  559MOL0     O75388   4.863   0.937   1.047 -0.3944 -0.8358  0.3920
  559MOL0     C75389   4.918   1.014   0.938  0.2279  0.3040 -0.1672
  559MOL0     C75390   4.796   1.041   0.845  0.8727  0.3077 -0.3450
  559MOL0     C75391   4.842   1.116   0.714 -0.3374  0.4170 -0.0429
  559MOL0     C75392   4.706   1.150   0.639  0.2868 -1.3953  0.1647
  559MOL0     C75393   4.637   1.260   0.698 -0.0897  0.5282 -0.7862
  559MOL0     C75394   4.575   1.353   0.746 -0.1385 -0.2529 -0.5894
  559MOL0     C75395   5.080   0.819   1.097  0.7167  0.8640 -0.4815
  559MOL0     C75396   5.143   0.736   1.186 -0.9182  0.5078  0.1370
  559MOL0     C75397   5.280   0.683   1.140 -0.4079 -0.6719 -0.1783
  559MOL0     H75398   5.262   0.726   1.671  1.0035 -0.0644 -1.9232
  559MOL0     H75399   5.405   0.602   1.853  0.6916 -0.8208 -0.3698
  559MOL0     H75400   5.260   0.556   2.098 -1.0281  1.1824  3.3202
  559MOL0     H75401   5.179   0.393   2.129  0.4426 -0.9078 -2.3414
  559MOL0     H75402   5.369   0.327   2.247  0.8458  0.9861 -0.2817
  559MOL0     H75403   5.292   0.473   2.309 -0.6710 -0.4345 -0.5295
  559MOL0     H75404   5.477   0.605   2.279 -1.8963 -0.5174 -0.1249
  559MOL0     H75405   5.494   0.546   2.111  1.1747 -1.0871 -0.2198
  559MOL0     H75406   5.621   0.339   2.223 -0.0045 -0.2544  1.7664
  559MOL0     H75407   5.697   0.501   2.223 -1.4046  2.3596 -0.6276
  559MOL0     H75408   5.633   0.550   2.451  2.1868  0.2072 -1.8616
  559MOL0     H75409   5.527   0.404   2.465 -0.1774  0.6283  0.1428
  559MOL0     H75410   5.714   0.253   2.446  1.6157 -0.3602  0.3075
  559MOL0     H75411   5.837   0.378   2.433  0.2001  0.7159 -0.5520
  559MOL0     H75412   5.783   0.259   2.667 -1.0230 -0.0554  0.6103
  559MOL0     H75413   5.650   0.376   2.672  0.7114  3.4049  0.7388
  559MOL0     H75414   5.933   0.477   2.646  1.9769  2.2186  1.2291
  559MOL0     H75415   5.788   0.572   2.632 -0.4503  0.3803  1.2442
  559MOL0     H75416   5.840   0.313   2.936 -0.9052  0.0586 -3.4392
  559MOL0     H75417   5.862   0.534   3.245 -0.4426  1.4429 -1.7985
  559MOL0     H75418   5.787   0.377   3.224 -0.3353 -0.1377  0.2674
  559MOL0     H75419   6.009   0.315   3.287 -0.6080 -0.3793  0.1387
  559MOL0     H75420   6.018   0.308   3.109 -1.0318 -0.2952 -0.0485
  559MOL0     H75421   6.105   0.553   3.265  0.1817  1.1207 -1.7499
  559MOL0     H75422   6.143   0.517   3.097 -1.4756  0.7013  0.1784
  559MOL0     H75423   6.245   0.365   3.340 -1.9515 -0.7723 -0.3359
  559MOL0     H75424   6.344   0.467   3.242 -0.8951  1.4260 -2.0952
  559MOL0     H75425   6.443   0.297   3.354  0.1957  0.7252  0.3437
  559MOL0     H75426   6.656   0.177   3.353  1.3022  0.1666 -0.0927
  559MOL0     H75427   7.001   0.003   3.471  1.4852 -0.1244  0.0761
  559MOL0     H75428   7.192  -0.171   3.499  0.3438  0.9097 -1.5015
  559MOL0     H75429   7.331  -0.327   3.534  0.1050  0.3437 -0.3949
  559MOL0     H75430   7.183  -0.391   3.619  1.2674 -1.6308  1.7843
  559MOL0     H75431   7.248  -0.626   3.596  0.4340 -1.6743 -0.2581
  559MOL0     H75432   7.381  -0.585   3.494 -2.4942 -2.6574  0.1345
  559MOL0     H75433   7.402  -0.435   3.755  1.2249 -0.2575 -0.7654
  559MOL0     H75434   7.384  -0.607   3.781 -0.4409 -1.3718 -0.5808
  559MOL0     H75435   7.581  -0.503   3.575 -2.7226  1.7485  0.5720
  559MOL0     H75436   7.568  -0.667   3.642  0.0540 -0.4406  1.2473
  559MOL0     H75437   7.671  -0.600   3.843  1.4752 -0.6454  0.0046
  559MOL0     H75438   7.632  -0.433   3.822  0.4023 -1.2252  2.7973
  559MOL0     H75439   7.823  -0.604   3.650  3.4503 -0.0886 -0.1284
  559MOL0     H75440   7.814  -0.424   3.641  1.9030  0.3986 -0.7015
  559MOL0     H75441   7.908  -0.427   3.878  0.4957  2.1681 -2.0347
  559MOL0     H75442   8.009  -0.464   3.757 -0.3027  1.3588  1.0739
  559MOL0     H75443   7.994  -0.643   3.966  1.6983  0.2541 -1.2289
  559MOL0     H75444   7.831  -0.673   3.898 -0.3786  2.5586  0.3204
  559MOL0     H75445   6.989  -0.454   3.265  2.7030  1.5703 -2.6677
  559MOL0     H75446   6.802  -0.294   3.216  1.5192 -2.1849 -0.9285
  559MOL0     H75447   6.559   0.025   2.962  1.1792 -0.7511 -0.3732
  559MOL0     H75448   6.334   0.141   2.984  0.9948  0.0012 -1.1869
  559MOL0     H75449   5.095   0.302   1.890  0.7173 -0.0779  0.9091
  559MOL0     H75450   4.988   0.402   1.685  1.5461 -1.2932  1.2528
  559MOL0     H75451   4.892   0.732   1.424  0.8746 -2.0910 -0.6284
  559MOL0     H75452   4.780   0.876   1.257  0.3875  1.0327  2.9616
  559MOL0     H75453   4.982   0.949   0.878 -0.0670 -0.4452  0.3111
  559MOL0     H75454   4.971   1.104   0.969 -0.2890  0.0671  1.4715
  559MOL0     H75455   4.720   1.087   0.908 -0.1358 -0.9025 -0.6256
  559MOL0     H75456   4.749   0.951   0.803  1.8512  0.9558 -3.0468
  559MOL0     H75457   4.890   1.035   0.658 -3.1267 -2.1730  1.0130
  559MOL0     H75458   4.920   1.188   0.738  1.9056 -1.4377 -1.3485
  559MOL0     H75459   4.733   1.165   0.534  1.2173 -1.8853  0.3261
  559MOL0     H75460   4.637   1.066   0.649 -1.0859 -0.0541  3.0327
  559MOL0     H75461   4.521   1.433   0.793  1.4936  1.8924 -2.1830
  559MOL0     H75462   5.137   0.845   1.009  1.0974 -0.6166 -0.6817
  559MOL0     H75463   5.281   0.574   1.136 -0.0629 -0.7365  1.2437
  559MOL0     H75464   5.314   0.726   1.045 -0.8539  0.4251  0.1388
  559MOL0     H75465   5.363   0.696   1.210  0.4645 -4.8674 -0.1873
  560MOL0     O75466   5.549   6.128   8.043 -0.2043 -0.3554  0.5272
  560MOL0     C75467   5.517   6.093   7.925  0.6610  0.3784 -0.1504
  560MOL0     O75468   5.602   6.045   7.834  0.7966  0.2835  0.1838
  560MOL0     C75469   5.729   6.069   7.850  0.0413 -1.1120 -0.6854
  560MOL0     C75470   5.819   5.990   7.927 -0.2764 -0.0472  0.7603
  560MOL0     C75471   5.958   6.016   7.933  0.7921  0.7384  0.0053
  560MOL0     C75472   6.004   6.127   7.864 -0.2447  0.1196  0.0335
  560MOL0     O75473   6.136   6.171   7.858 -0.0072 -0.3945 -0.1215
  560MOL0     C75474   6.240   6.067   7.881  0.0931  0.1274  0.0303
  560MOL0     C75475   6.374   6.136   7.890  0.1741 -0.5386 -0.2392
  560MOL0     C75476   6.477   6.025   7.885  0.3931  0.6329  0.2113
  560MOL0     C75477   6.616   6.062   7.904  0.2888 -0.9431 -0.7455
  560MOL0     C75478   6.669   6.090   8.045 -0.5715  0.6656  0.1784
  560MOL0     C75479   6.816   6.118   8.046 -0.6152 -0.4805 -0.6290
  560MOL0     C75480   6.866   6.131   8.197  1.1406 -0.0741 -0.5191
  560MOL0     C75481   7.021   6.148   8.206 -0.0137 -0.5536  0.0394
  560MOL0     N75482   7.072   6.110   8.344  0.1539 -0.1686 -0.1185
  560MOL0     C75483   7.068   5.983   8.405  0.0183 -0.6321 -0.0594
  560MOL0     C75484   7.150   5.998   8.513 -0.3039  0.5166  0.2020
  560MOL0     C75485   7.176   5.893   8.614 -0.1946  0.2285  0.0952
  560MOL0     C75486   7.253   5.779   8.544 -0.0829 -0.7237  0.0451
  560MOL0     C75487   7.266   5.662   8.643  0.2744 -0.0379 -0.1766
  560MOL0     C75488   7.338   5.540   8.570  0.1714  0.2666  0.6958
  560MOL0     O75489   7.471   5.557   8.522  0.4869  0.5001  0.8233
  560MOL0     C75490   7.570   5.565   8.617  0.0566  0.2274 -0.0442
  560MOL0     C75491   7.686   5.616   8.582 -0.5751 -0.4699 -0.4277
  560MOL0     C75492   7.792   5.637   8.672 -0.6079 -0.0679  0.2410
  560MOL0     C75493   7.780   5.605   8.801 -0.5954 -0.8222 -0.4566
  560MOL0     C75494   7.896   5.607   8.890 -0.0707  0.4409 -0.4337
  560MOL0     O75495   7.878   5.592   9.031  0.0023 -0.0903 -0.3747
  560MOL0     C75496   7.972   5.632   9.116  0.5640 -0.4123  1.0764
  560MOL0     C75497   7.971   5.560   9.239  0.0065  0.1634  0.4306
  560MOL0     C75498   8.065   5.596   9.342  0.7801  0.4678  0.5327
  560MOL0     C75499   8.158   5.706   9.324  0.2866  0.1941  0.3450
  560MOL0     O75500   8.269   5.738   9.405  0.3267 -0.0507  0.6758
  560MOL0     C75501   8.300   5.660   9.517  0.7377  0.2529  0.6763
  560MOL0     C75502   8.428   5.704   9.594 -0.4888 -0.2153 -0.5075
  560MOL0     C75503   8.546   5.741   9.513 -0.0819 -0.5442  0.4464
  560MOL0     C75504   8.670   5.736   9.591  0.8899 -1.2468  1.0441
  560MOL0     C75505   8.786   5.794   9.506 -0.2846  0.6637  0.2398
  560MOL0     C75506   8.915   5.786   9.586  0.4733  0.5582  0.2412
  560MOL0     C75507   9.030   5.824   9.497 -0.6205  0.6248  0.0995
  560MOL0     C75508   9.155   5.860   9.569  0.3308  0.7083 -0.1425
  560MOL0    Cl75509   9.213   5.721   9.659  0.1070 -0.4688 -0.4874
  560MOL0     C75510   8.146   5.782   9.206 -0.1394  0.5248 -1.0437
  560MOL0     C75511   8.062   5.742   9.102  0.5173  0.2635  0.3871
  560MOL0     O75512   8.007   5.619   8.843  0.2717  0.3712 -1.1160
  560MOL0     C75513   7.659   5.541   8.846 -0.4634  0.0944 -1.1024
  560MOL0     C75514   7.557   5.525   8.756 -0.4684 -0.1032 -0.2102
  560MOL0     N75515   7.207   6.127   8.514 -0.7824 -0.1483  0.5491
  560MOL0     N75516   7.160   6.184   8.413  1.2672 -0.7342  0.2401
  560MOL0     C75517   5.915   6.211   7.802  0.6428  0.0216 -0.0504
  560MOL0     C75518   5.778   6.188   7.793 -0.8846  0.6880  0.1769
  560MOL0     C75519   5.383   6.124   7.873  0.2127  0.1547 -0.1024
  560MOL0     C75520   5.330   6.020   7.796 -0.3451 -1.0227 -0.6113
  560MOL0     C75521   5.206   6.037   7.728  0.0966 -0.0110  0.0671
  560MOL0     C75522   5.138   6.157   7.748  0.3347 -0.0567  0.7497
  560MOL0     O75523   5.013   6.186   7.707 -0.0798 -0.5608 -0.2620
  560MOL0     C75524   4.928   6.086   7.648  0.0888 -0.1862 -0.0889
  560MOL0     C75525   4.948   6.074   7.498  0.1457  0.3136  0.8638
  560MOL0     C75526   4.878   6.185   7.419  0.0226 -0.2141  0.0191
  560MOL0     C75527   4.923   6.327   7.441  1.0454 -0.6301  0.1929
  560MOL0     C75528   5.036   6.365   7.348 -0.5481  0.1901 -0.4152
  560MOL0     C75529   5.137   6.414   7.302  0.6635 -0.6272 -0.5180
  560MOL0     C75530   5.191   6.256   7.835 -0.0798  0.6098 -0.4903
  560MOL0     C75531   5.311   6.240   7.903 -0.0882  0.1142  0.8424
  560MOL0     C75532   5.371   6.351   7.982  0.5697  0.1150 -0.6258
  560MOL0     H75533   5.782   5.895   7.964  1.6521 -1.7402 -1.2874
  560MOL0     H75534   6.020   5.953   7.995  0.7115  0.3740 -0.2833
  560MOL0     H75535   6.213   6.014   7.973 -2.2430 -1.1787 -1.3203
  560MOL0     H75536   6.245   6.005   7.791  1.0469  0.1952  0.0241
  560MOL0     H75537   6.386   6.212   7.969  2.7375  2.0337 -2.8544
  560MOL0     H75538   6.387   6.202   7.804  0.2289 -0.0032  0.1716
  560MOL0     H75539   6.476   5.978   7.786 -2.0710  1.8611 -0.4262
  560MOL0     H75540   6.451   5.949   7.959 -0.6686  0.8991  0.1298
  560MOL0     H75541   6.672   5.983   7.854  0.4672  0.5464 -3.0859
  560MOL0     H75542   6.633   6.148   7.838 -0.2258 -0.7077 -0.5710
  560MOL0     H75543   6.618   6.178   8.086 -1.5254  0.4760 -0.5616
  560MOL0     H75544   6.650   6.009   8.117 -2.5161 -1.6425 -2.6807
  560MOL0     H75545   6.880   6.043   8.001  1.2227 -0.4291  1.6877
  560MOL0     H75546   6.838   6.214   7.998  1.2504  0.9218  2.6710
  560MOL0     H75547   6.827   6.052   8.262 -5.2090  2.2054 -0.7647
  560MOL0     H75548   6.819   6.224   8.232 -1.6224 -1.6390  0.2341
  560MOL0     H75549   7.061   6.072   8.138 -1.2456 -0.2871 -1.0232
  560MOL0     H75550   7.056   6.249   8.185 -2.0825  0.0435 -0.7735
  560MOL0     H75551   7.018   5.894   8.368 -0.4413 -1.2028  1.8042
  560MOL0     H75552   7.243   5.936   8.689  1.5680 -1.1633 -0.5896
  560MOL0     H75553   7.079   5.861   8.651 -0.2469 -1.5684 -1.4244
  560MOL0     H75554   7.194   5.751   8.457  2.7277 -2.8678 -1.3296
  560MOL0     H75555   7.352   5.815   8.517  0.8337 -1.9261  1.6218
  560MOL0     H75556   7.175   5.624   8.689  0.7127  1.1962  1.8259
  560MOL0     H75557   7.335   5.682   8.726 -1.0840 -4.9398  2.5254
  560MOL0     H75558   7.275   5.510   8.486 -0.4405  2.4596  0.3139
  560MOL0     H75559   7.328   5.456   8.639 -1.3300  0.7573  1.1165
  560MOL0     H75560   7.710   5.636   8.478  0.8045 -1.1088 -0.2587
  560MOL0     H75561   7.889   5.661   8.628  1.5696 -2.1575  3.4501
  560MOL0     H75562   7.902   5.479   9.261 -0.6313  0.7789  0.7347
  560MOL0     H75563   8.082   5.535   9.430  1.8746  1.9047  1.3694
  560MOL0     H75564   8.216   5.661   9.586 -0.8908 -0.3621 -1.2115
  560MOL0     H75565   8.309   5.556   9.485 -1.4918  0.7895 -2.0952
  560MOL0     H75566   8.399   5.793   9.652  2.3738  0.2929  0.2794
  560MOL0     H75567   8.456   5.616   9.653  0.2638  1.4805  1.8213
  560MOL0     H75568   8.548   5.667   9.432 -0.1814  0.1960 -0.2491
  560MOL0     H75569   8.543   5.843   9.473  0.2882 -1.0601 -0.9713
  560MOL0     H75570   8.683   5.633   9.626 -1.6225 -2.0640 -0.2000
  560MOL0     H75571   8.664   5.800   9.680  1.1415 -0.4848  0.5193
  560MOL0     H75572   8.759   5.894   9.471  0.5572 -0.1494 -3.1162
  560MOL0     H75573   8.792   5.743   9.409 -0.1266  0.2884  0.4426
  560MOL0     H75574   8.913   5.849   9.676 -0.5338  1.9811 -0.7253
  560MOL0     H75575   8.926   5.682   9.617 -1.0272 -0.0712 -1.2041
  560MOL0     H75576   9.009   5.912   9.435  1.1177  1.4400  0.6004
  560MOL0     H75577   9.047   5.749   9.419 -2.4768  1.7183 -1.4552
  560MOL0     H75578   9.234   5.893   9.501  0.7280 -2.3773 -1.3550
  560MOL0     H75579   9.143   5.950   9.629  0.6944 -0.1384  1.2637
  560MOL0     H75580   8.214   5.865   9.190 -0.8350  2.0937  2.8497
  560MOL0     H75581   8.066   5.817   9.023  0.5021 -1.4321 -1.3005
  560MOL0     H75582   7.660   5.501   8.947  1.3814  1.9973 -0.2956
  560MOL0     H75583   7.460   5.495   8.792 -0.1191  1.1841  1.9987
  560MOL0     H75584   5.959   6.304   7.767  0.8159 -0.2234 -0.4913
  560MOL0     H75585   5.710   6.246   7.730 -1.4341 -0.1890 -0.0526
  560MOL0     H75586   5.386   5.927   7.782 -0.9692 -1.4241 -0.4948
  560MOL0     H75587   5.157   5.956   7.673 -1.5308 -0.6247  2.2773
  560MOL0     H75588   4.822   6.106   7.665  0.0962  0.4799 -0.7608
  560MOL0     H75589   4.957   5.993   7.697  2.3544  1.6857  2.4491
  560MOL0     H75590   4.919   5.976   7.459 -2.4462  1.8049 -1.3007
  560MOL0     H75591   5.055   6.081   7.478  0.7844 -2.2588  2.7863
  560MOL0     H75592   4.772   6.177   7.444  0.4871 -1.3916  1.7949
  560MOL0     H75593   4.899   6.170   7.313  2.0376  0.7912  0.2110
  560MOL0     H75594   4.842   6.399   7.423  2.1521  1.1239  1.8082
  560MOL0     H75595   4.961   6.348   7.542  5.0920 -1.9144 -0.8830
  560MOL0     H75596   5.228   6.457   7.265 -0.3025  0.5199 -1.6502
  560MOL0     H75597   5.123   6.336   7.860 -3.6537 -2.7655  1.8706
  560MOL0     H75598   5.479   6.367   7.971  1.0592 -1.9924  0.4626
  560MOL0     H75599   5.322   6.448   7.970 -1.2672 -0.7747 -0.6734
  560MOL0     H75600   5.359   6.315   8.085 -2.3456 -2.2154 -1.6182
  561MOL0     O75601   9.589   1.458   4.368  0.1932 -0.2385  0.5168
  561MOL0     C75602   9.498   1.527   4.330  0.0791  0.2366  0.6784
  561MOL0     O75603   9.506   1.619   4.226  0.7258 -0.3748 -0.4857
  561MOL0     C75604   9.635   1.645   4.189 -0.0582 -0.1387 -0.3257
  561MOL0     C75605   9.710   1.551   4.107  0.2899 -0.8327 -0.3227
  561MOL0     C75606   9.847   1.586   4.069  0.4652 -0.7350  0.2696
  561MOL0     C75607   9.914   1.693   4.131  0.0762  0.6738  0.3178
  561MOL0     O75608  10.046   1.719   4.112 -0.0417 -0.0685  0.5657
  561MOL0     C75609  10.107   1.665   3.992  0.1114  0.3994  1.0493
  561MOL0     C75610  10.230   1.750   3.985 -0.8552 -0.6093 -0.1560
  561MOL0     C75611  10.196   1.906   3.975  0.2410  0.0621  0.3574
  561MOL0     C75612  10.311   2.003   3.960 -0.8826 -0.2001  0.1815
  561MOL0     C75613  10.387   2.032   4.092  0.6062 -0.3677  0.0776
  561MOL0     C75614  10.488   2.152   4.081  0.4526  0.0795 -0.5819
  561MOL0     C75615  10.576   2.158   4.204 -0.1639 -0.5818 -0.0581
  561MOL0     C75616  10.649   2.292   4.198  0.7945  1.5753 -0.4269
  561MOL0     N75617  10.728   2.311   4.310 -0.0459  0.0853 -0.0728
  561MOL0     C75618  10.688   2.357   4.435  0.4317  0.4306 -0.0616
  561MOL0     C75619  10.810   2.379   4.504  0.6072 -0.6684 -1.3117
  561MOL0     C75620  10.839   2.430   4.645  0.8006 -0.3534 -1.7093
  561MOL0     C75621  10.875   2.579   4.635  0.3614 -0.0043 -0.3440
  561MOL0     C75622  10.932   2.623   4.775  0.2787 -0.3508 -0.1956
  561MOL0     C75623  10.939   2.774   4.787 -0.7174 -0.6468 -0.0904
  561MOL0     O75624  11.032   2.836   4.696 -0.0331 -0.1985  0.1807
  561MOL0     C75625  11.159   2.859   4.735 -1.1685  1.0853 -1.1769
  561MOL0     C75626  11.205   2.831   4.863 -0.5018  0.5581 -0.0621
  561MOL0     C75627  11.332   2.871   4.897 -0.0418  0.6908 -0.8169
  561MOL0     C75628  11.418   2.929   4.803 -0.2982  0.4057 -0.0168
  561MOL0     C75629  11.555   2.967   4.850  0.2598 -0.0630  0.2133
  561MOL0     O75630  11.595   2.916   4.973 -0.8697  0.3414 -0.6691
  561MOL0     C75631  11.720   2.965   5.012 -0.8209  0.3037 -0.5463
  561MOL0     C75632  11.708   3.025   5.136 -0.2641 -0.0232 -0.3915
  561MOL0     C75633  11.814   3.089   5.195  0.3197 -0.1103 -0.6484
  561MOL0     C75634  11.937   3.095   5.124 -0.4684 -0.1379 -0.1084
  561MOL0     O75635  12.050   3.155   5.174  0.0031 -0.8963  1.0288
  561MOL0     C75636  12.074   3.139   5.314  0.3836 -0.0649  0.0929
  561MOL0     C75637  12.201   3.198   5.362  0.8288 -0.6298  0.0057
  561MOL0     C75638  12.203   3.359   5.343  0.2223  0.4142 -0.0065
  561MOL0     C75639  12.348   3.395   5.381 -1.0367 -0.0319  0.4569
  561MOL0     C75640  12.377   3.544   5.393  0.1030 -0.5737 -0.6377
  561MOL0     C75641  12.528   3.567   5.390 -0.7924 -0.0860  1.0174
  561MOL0     C75642  12.611   3.517   5.502 -0.0848  0.0655  1.1088
  561MOL0     C75643  12.759   3.546   5.475 -0.2673 -0.3875  0.4196
  561MOL0    Cl75644  12.829   3.458   5.346  0.0708 -0.2032 -0.4198
  561MOL0     C75645  11.944   3.032   4.999 -0.2876  0.8564  0.0984
  561MOL0     C75646  11.836   2.963   4.947 -0.1120 -0.4620 -0.3485
  561MOL0     O75647  11.618   3.040   4.772 -0.3958 -0.0658  1.2572
  561MOL0     C75648  11.370   2.938   4.676  0.7572 -1.0698  0.6032
  561MOL0     C75649  11.238   2.915   4.644 -0.0564 -0.9260  0.4969
  561MOL0     N75650  10.912   2.356   4.420  0.3549  0.2095 -0.1247
  561MOL0     N75651  10.864   2.303   4.311 -0.7623 -0.6201 -0.4186
  561MOL0     C75652   9.839   1.775   4.217 -0.2142 -0.3758 -0.3761
  561MOL0     C75653   9.697   1.761   4.237  0.4575  0.2148 -0.4910
  561MOL0     C75654   9.369   1.527   4.397 -0.4669 -0.5773  0.3686
  561MOL0     C75655   9.337   1.652   4.458 -1.0838 -0.9313  1.0718
  561MOL0     C75656   9.211   1.679   4.519  0.1491 -0.9119  1.2060
  561MOL0     C75657   9.120   1.572   4.515 -0.1486 -0.0023  0.2338
  561MOL0     O75658   8.981   1.573   4.538 -0.3760  0.8044 -0.0901
  561MOL0     C75659   8.925   1.688   4.595  0.0474 -0.9237  0.2658
  561MOL0     C75660   8.793   1.670   4.681 -0.0869  0.2682  0.0535
  561MOL0     C75661   8.678   1.600   4.619  1.0046  0.2036 -0.3667
  561MOL0     C75662   8.660   1.652   4.482 -0.0563 -0.1467 -0.7922
  561MOL0     C75663   8.635   1.795   4.480  0.5376  0.1438 -0.6351
  561MOL0     C75664   8.607   1.914   4.480 -0.0477  0.1711  0.1497
  561MOL0     C75665   9.160   1.451   4.458 -0.4306  0.2994  0.1195
  561MOL0     C75666   9.274   1.426   4.397 -0.7606 -0.5347  0.7384
  561MOL0     C75667   9.293   1.306   4.310 -1.4441 -0.2969 -0.5426
  561MOL0     H75668   9.675   1.455   4.071  0.1579 -1.0265  0.3120
  561MOL0     H75669   9.895   1.515   4.003  0.7155  0.6292 -1.0635
  561MOL0     H75670  10.129   1.560   4.012 -2.6878 -0.4166  0.1807
  561MOL0     H75671  10.044   1.672   3.903 -0.9186 -3.7325  1.2805
  561MOL0     H75672  10.293   1.709   3.906  1.1287 -1.8002  1.8964
  561MOL0     H75673  10.293   1.731   4.072  2.1180  3.2980 -1.2097
  561MOL0     H75674  10.130   1.942   4.055  0.8648  1.9213  0.0712
  561MOL0     H75675  10.128   1.914   3.890  0.8599  1.3180 -0.0347
  561MOL0     H75676  10.389   1.953   3.902 -0.9914  0.0971 -0.2287
  561MOL0     H75677  10.277   2.095   3.910 -1.9745  0.6535  2.3724
  561MOL0     H75678  10.314   2.044   4.173 -1.6403 -0.1800 -1.8505
  561MOL0     H75679  10.451   1.948   4.120  1.2138 -0.3375 -1.1694
  561MOL0     H75680  10.541   2.118   3.991 -0.2000 -3.5360  0.2448
  561MOL0     H75681  10.450   2.254   4.065 -0.0685  0.1924  1.2003
  561MOL0     H75682  10.655   2.083   4.201  1.1766  0.6635  2.0169
  561MOL0     H75683  10.518   2.144   4.295 -0.4092  0.9546  0.0530
  561MOL0     H75684  10.692   2.301   4.098 -0.5001 -1.9031 -1.4366
  561MOL0     H75685  10.569   2.364   4.217 -1.9893 -1.4129  0.1694
  561MOL0     H75686  10.585   2.369   4.466  0.9209  0.9074  1.5308
  561MOL0     H75687  10.749   2.417   4.705  1.3919  0.8914 -0.5024
  561MOL0     H75688  10.923   2.375   4.689  0.2696  1.2735  1.6668
  561MOL0     H75689  10.947   2.587   4.554  0.6439 -1.2012 -0.2321
  561MOL0     H75690  10.789   2.639   4.603  0.9944 -0.0081 -2.1267
  561MOL0     H75691  11.033   2.582   4.784 -0.2236 -1.6782 -0.3638
  561MOL0     H75692  10.862   2.577   4.844 -0.6829  0.0783 -0.8637
  561MOL0     H75693  10.945   2.801   4.893 -1.7340  0.6746 -0.3477
  561MOL0     H75694  10.839   2.811   4.763 -0.4534 -0.4223 -0.8740
  561MOL0     H75695  11.162   2.770   4.942  1.9137 -2.6033 -0.9520
  561MOL0     H75696  11.360   2.850   5.000 -0.4508 -1.7925 -1.1380
  561MOL0     H75697  11.613   3.018   5.189  0.6350 -2.0583  1.1048
  561MOL0     H75698  11.789   3.131   5.292  0.2305 -2.3348  0.3664
  561MOL0     H75699  11.995   3.192   5.368 -1.6976  0.5111 -3.2230
  561MOL0     H75700  12.076   3.032   5.337  1.8247  0.6205  3.6341
  561MOL0     H75701  12.210   3.165   5.466 -0.0812 -0.3835  0.1769
  561MOL0     H75702  12.287   3.160   5.307  1.1453  0.3147 -0.1632
  561MOL0     H75703  12.181   3.392   5.241 -0.8919  1.1163  0.4432
  561MOL0     H75704  12.125   3.397   5.410  0.6305  2.7837 -0.7711
  561MOL0     H75705  12.411   3.358   5.300  0.9434  0.5734  1.6513
  561MOL0     H75706  12.390   3.341   5.466  0.4123  1.4480  0.7363
  561MOL0     H75707  12.344   3.591   5.486  1.9254  0.9901 -0.7111
  561MOL0     H75708  12.332   3.603   5.313  1.3959  2.8791  0.9789
  561MOL0     H75709  12.554   3.507   5.302  0.5538 -2.8439  3.1375
  561MOL0     H75710  12.545   3.674   5.378  1.1582 -0.3489  1.0216
  561MOL0     H75711  12.600   3.410   5.520 -0.7099  0.6586  5.4854
  561MOL0     H75712  12.590   3.577   5.591 -0.9743  1.3993  0.0357
  561MOL0     H75713  12.788   3.649   5.457  2.6599 -0.5391  3.4416
  561MOL0     H75714  12.816   3.512   5.562  1.8203  0.4904 -0.5458
  561MOL0     H75715  12.035   3.024   4.941 -1.4535  0.9178 -1.8385
  561MOL0     H75716  11.845   2.920   4.848 -0.4684  1.5214 -1.2908
  561MOL0     H75717  11.425   2.987   4.597  0.7189 -1.9485  0.0129
  561MOL0     H75718  11.186   2.939   4.552  0.7062 -3.1100 -0.5574
  561MOL0     H75719   9.906   1.850   4.259  1.1056 -2.1966  0.9310
  561MOL0     H75720   9.647   1.818   4.314 -3.9533 -4.9496  1.0704
  561MOL0     H75721   9.417   1.725   4.460 -0.6542 -1.4044  1.7534
  561MOL0     H75722   9.179   1.771   4.567 -0.4564 -0.3620 -0.2218
  561MOL0     H75723   8.901   1.760   4.517  1.3826  0.2018  0.8233
  561MOL0     H75724   8.999   1.735   4.662 -1.3427  1.2327  0.3874
  561MOL0     H75725   8.760   1.773   4.693 -0.7844  0.1428 -0.7240
  561MOL0     H75726   8.813   1.609   4.770 -1.7289 -0.4720 -0.0437
  561MOL0     H75727   8.586   1.622   4.673  1.0636  1.0663 -0.6089
  561MOL0     H75728   8.695   1.492   4.612 -0.0160 -0.1364  1.7844
  561MOL0     H75729   8.753   1.626   4.431  0.2902 -1.0015  0.2410
  561MOL0     H75730   8.574   1.608   4.431 -1.4031  0.9791  0.4181
  561MOL0     H75731   8.580   2.017   4.468 -0.0932 -0.0758 -2.1922
  561MOL0     H75732   9.089   1.368   4.458  0.1217 -0.1891 -0.6753
  561MOL0     H75733   9.394   1.274   4.338 -1.0753  0.7330 -0.6565
  561MOL0     H75734   9.234   1.220   4.343 -0.8783 -0.9710 -1.2695
  561MOL0     H75735   9.296   1.326   4.203 -2.4995  2.3901 -0.1551
  562MOL0     O75736   6.383   0.202   9.119  0.3097 -0.7549 -0.0234
  562MOL0     C75737   6.309   0.215   9.025 -0.5358 -0.1845 -0.3058
  562MOL0     O75738   6.351   0.193   8.897  0.5868  0.2367 -0.5634
  562MOL0     C75739   6.483   0.176   8.873  0.1412  0.6708 -0.0196
  562MOL0     C75740   6.529   0.042   8.863 -0.4558 -0.0941 -0.2239
  562MOL0     C75741   6.667   0.011   8.849 -0.5949  0.4294  0.2163
  562MOL0     C75742   6.764   0.111   8.840 -0.6781 -0.2040 -0.2854
  562MOL0     O75743   6.900   0.093   8.839  0.2682  0.7920  0.6399
  562MOL0     C75744   6.954  -0.025   8.765  0.3536  0.7258 -1.3158
  562MOL0     C75745   7.105  -0.011   8.746  0.8041  0.0751 -0.4268
  562MOL0     C75746   7.177  -0.144   8.726  0.4926 -0.6816  0.8631
  562MOL0     C75747   7.332  -0.136   8.747 -0.7335  0.6270 -0.5425
  562MOL0     C75748   7.384  -0.283   8.750  0.5294  0.1305  0.0454
  562MOL0     C75749   7.528  -0.290   8.792  0.4677 -0.9903 -0.7511
  562MOL0     C75750   7.621  -0.272   8.668 -0.3113 -0.4483 -0.5015
  562MOL0     C75751   7.763  -0.235   8.719 -0.1702 -0.4248 -0.8139
  562MOL0     N75752   7.851  -0.224   8.606 -0.1702 -0.5101 -0.3905
  562MOL0     C75753   7.840  -0.117   8.525  0.3028 -0.4133  0.4327
  562MOL0     C75754   7.923  -0.148   8.424 -0.1014  0.2695  0.0569
  562MOL0     C75755   7.908  -0.090   8.290  0.8695  0.7197  0.7673
  562MOL0     C75756   7.959   0.054   8.285  0.3011 -0.5354  0.5074
  562MOL0     C75757   8.105   0.061   8.322  0.0036 -0.0099 -0.4510
  562MOL0     C75758   8.156   0.208   8.328  0.5470 -0.1458 -0.4306
  562MOL0     O75759   8.301   0.200   8.305 -0.0243  0.1848  0.0265
  562MOL0     C75760   8.380   0.299   8.343  0.0501  0.7153 -0.4102
  562MOL0     C75761   8.339   0.417   8.408  1.5510  0.9953  0.4861
  562MOL0     C75762   8.438   0.510   8.426  0.6126  0.2538  0.8203
  562MOL0     C75763   8.573   0.492   8.404  0.2712 -0.8552  1.0754
  562MOL0     C75764   8.673   0.591   8.431 -0.2409 -0.2238  0.3307
  562MOL0     O75765   8.792   0.582   8.367 -0.3247  0.9975 -0.9536
  562MOL0     C75766   8.888   0.671   8.401  0.2971 -1.1879  0.4028
  562MOL0     C75767   8.878   0.804   8.365 -0.2672  0.1352  0.1749
  562MOL0     C75768   8.987   0.890   8.383 -0.2617  0.4184  0.6279
  562MOL0     C75769   9.113   0.840   8.429 -0.5749  0.0820  1.0483
  562MOL0     O75770   9.227   0.919   8.454 -0.1957 -0.1309  0.3989
  562MOL0     C75771   9.214   1.062   8.460  0.3317 -0.0365  0.1128
  562MOL0     C75772   9.332   1.143   8.510  0.3722 -0.4377  0.1256
  562MOL0     C75773   9.460   1.137   8.423 -0.1740 -0.1948  0.2982
  562MOL0     C75774   9.543   1.017   8.474 -0.6361  0.1986  0.0230
  562MOL0     C75775   9.684   1.016   8.408 -0.7580  0.7811  0.4867
  562MOL0     C75776   9.743   0.870   8.420 -1.0105  0.6512  1.0430
  562MOL0     C75777   9.755   0.831   8.572 -0.6654 -0.0079  0.2003
  562MOL0     C75778   9.832   0.703   8.589  0.6252 -0.5316  0.4316
  562MOL0    Cl75779  10.003   0.721   8.547 -0.2934  0.2574 -0.1823
  562MOL0     C75780   9.121   0.701   8.457 -0.5976  0.3749 -0.3107
  562MOL0     C75781   9.010   0.614   8.448  0.2360 -0.3325  0.2664
  562MOL0     O75782   8.635   0.680   8.513 -0.4255  0.1360  0.8087
  562MOL0     C75783   8.612   0.374   8.337 -0.3205  0.0692 -0.6381
  562MOL0     C75784   8.514   0.286   8.303 -0.7376  0.3441  0.1760
  562MOL0     N75785   7.994  -0.261   8.451 -0.3785 -0.1481 -0.0204
  562MOL0     N75786   7.949  -0.307   8.557 -0.1027  0.8331  0.0488
  562MOL0     C75787   6.717   0.240   8.850 -0.6831  0.3502  0.8032
  562MOL0     C75788   6.579   0.275   8.858 -0.4095 -0.2175 -0.3740
  562MOL0     C75789   6.169   0.250   9.054 -0.0190 -0.0735 -0.6844
  562MOL0     C75790   6.076   0.229   8.949 -0.2334  0.1897  0.7874
  562MOL0     C75791   5.944   0.258   8.966  0.3062  0.3997  0.3403
  562MOL0     C75792   5.895   0.330   9.078 -0.3495 -0.2841  0.9146
  562MOL0     O75793   5.770   0.385   9.073  0.2418 -0.2044 -0.2946
  562MOL0     C75794   5.750   0.503   9.151 -0.2062  0.3336 -0.0719
  562MOL0     C75795   5.610   0.547   9.124  0.3184  0.1728  0.7561
  562MOL0     C75796   5.494   0.446   9.150 -0.2884  0.4418 -0.1559
  562MOL0     C75797   5.350   0.510   9.131  0.2702 -0.1599  0.5119
  562MOL0     C75798   5.322   0.527   8.988  0.9687  0.0072 -0.5980
  562MOL0     C75799   5.288   0.524   8.874 -0.2978 -0.2496  0.3880
  562MOL0     C75800   5.988   0.345   9.182 -0.3691  0.2258 -0.5468
  562MOL0     C75801   6.120   0.306   9.178 -0.4729  0.9460  0.0221
  562MOL0     C75802   6.203   0.317   9.302  0.2956  0.3622  1.5157
  562MOL0     H75803   6.458  -0.040   8.871 -1.8866  1.0073 -1.1007
  562MOL0     H75804   6.707  -0.090   8.839 -1.3266  0.0717  0.7985
  562MOL0     H75805   6.931  -0.112   8.828  0.7468  2.1318  0.8904
  562MOL0     H75806   6.901  -0.040   8.671 -0.3194  0.5614 -0.9154
  562MOL0     H75807   7.148   0.042   8.831  0.5244  1.0440 -0.8718
  562MOL0     H75808   7.125   0.053   8.659  0.1988 -0.5994 -1.0867
  562MOL0     H75809   7.158  -0.174   8.623  1.2461  0.6761  0.3071
  562MOL0     H75810   7.127  -0.219   8.787 -3.3063  1.6665  0.9814
  562MOL0     H75811   7.387  -0.077   8.674 -1.8400  0.8589 -1.2134
  562MOL0     H75812   7.356  -0.100   8.848  0.2431 -2.2109  0.3460
  562MOL0     H75813   7.316  -0.333   8.820 -0.3938  0.2870 -0.7204
  562MOL0     H75814   7.369  -0.331   8.652  0.1580  0.2689  0.0310
  562MOL0     H75815   7.558  -0.215   8.866  1.3893 -0.4850 -1.5968
  562MOL0     H75816   7.539  -0.389   8.836 -0.9251 -0.7736  0.1277
  562MOL0     H75817   7.579  -0.203   8.595 -0.2629  0.9271  0.7339
  562MOL0     H75818   7.624  -0.372   8.623  0.5609 -0.6130 -0.1160
  562MOL0     H75819   7.765  -0.144   8.779 -3.1351  0.5730 -2.0452
  562MOL0     H75820   7.800  -0.321   8.776  2.2450  0.1614 -1.4146
  562MOL0     H75821   7.757  -0.048   8.517  0.1576 -0.5234  1.0121
  562MOL0     H75822   7.961  -0.155   8.219  0.1744 -0.5036  1.3382
  562MOL0     H75823   7.802  -0.082   8.267  1.3124  1.3839 -1.2742
  562MOL0     H75824   7.945   0.104   8.188  0.2726  0.4743  1.0142
  562MOL0     H75825   7.902   0.105   8.363 -0.0666 -0.1383 -0.0139
  562MOL0     H75826   8.164   0.006   8.247  1.4769  1.7576 -0.6597
  562MOL0     H75827   8.127   0.014   8.418  0.1113 -1.0552 -0.9685
  562MOL0     H75828   8.121   0.247   8.425 -1.0839 -1.3181 -0.5079
  562MOL0     H75829   8.111   0.255   8.240 -0.1835 -0.6515 -0.3440
  562MOL0     H75830   8.236   0.428   8.440  0.3303 -4.0593 -0.7485
  562MOL0     H75831   8.395   0.607   8.450 -0.4119 -0.0040  0.1119
  562MOL0     H75832   8.789   0.848   8.322  2.3846  5.2235 -0.8823
  562MOL0     H75833   8.971   0.993   8.352 -2.0407 -0.2467 -0.8361
  562MOL0     H75834   9.184   1.105   8.364 -0.3649 -2.0221 -0.6068
  562MOL0     H75835   9.127   1.083   8.523  1.1526  0.7439  1.0287
  562MOL0     H75836   9.302   1.248   8.499 -0.9831 -0.6026  1.8018
  562MOL0     H75837   9.351   1.126   8.616  0.9440 -2.4326 -0.2670
  562MOL0     H75838   9.428   1.119   8.320 -1.6707  1.4376  0.4214
  562MOL0     H75839   9.520   1.228   8.424  1.6654 -1.2496 -2.5086
  562MOL0     H75840   9.489   0.925   8.449 -1.3945  0.6063  0.1246
  562MOL0     H75841   9.564   1.025   8.581  0.7050  0.6798 -0.2598
  562MOL0     H75842   9.737   1.089   8.470  0.1627 -0.4281  1.1820
  562MOL0     H75843   9.687   1.052   8.305 -2.8506 -0.2036  0.0384
  562MOL0     H75844   9.696   0.790   8.362  1.7909 -0.2685 -0.1259
  562MOL0     H75845   9.842   0.877   8.373 -0.5760 -2.7873  1.1658
  562MOL0     H75846   9.655   0.816   8.615 -0.4590  0.4094  0.8451
  562MOL0     H75847   9.800   0.922   8.614  0.4368 -0.2169 -0.4971
  562MOL0     H75848   9.817   0.655   8.686 -1.2392 -5.0228 -1.7975
  562MOL0     H75849   9.784   0.630   8.523 -1.5769  1.7825 -0.7111
  562MOL0     H75850   9.208   0.652   8.500 -1.6829 -0.4284  1.0536
  562MOL0     H75851   9.025   0.509   8.471  2.1488  0.1982  1.7155
  562MOL0     H75852   8.714   0.358   8.306 -0.1056  2.2939 -1.2172
  562MOL0     H75853   8.557   0.193   8.266 -0.3416  0.7378 -0.3633
  562MOL0     H75854   6.794   0.315   8.866  0.6944 -1.1686  1.6112
  562MOL0     H75855   6.548   0.377   8.877  0.3458 -0.1287  0.4510
  562MOL0     H75856   6.106   0.182   8.856  3.9656 -0.6178  2.3441
  562MOL0     H75857   5.875   0.241   8.884  2.1778  2.9533 -1.9349
  562MOL0     H75858   5.829   0.575   9.132  0.8817 -1.1745 -1.4819
  562MOL0     H75859   5.760   0.473   9.256  2.4746  0.4001 -0.2616
  562MOL0     H75860   5.593   0.564   9.017  0.2619 -1.4454  0.4814
  562MOL0     H75861   5.581   0.644   9.165  0.4617  2.2433 -3.5228
  562MOL0     H75862   5.507   0.408   9.252 -0.3584  2.4884  0.6738
  562MOL0     H75863   5.495   0.353   9.092  1.3763 -0.0658  0.6228
  562MOL0     H75864   5.276   0.438   9.168 -0.7263  0.5735 -0.0230
  562MOL0     H75865   5.337   0.600   9.192  3.0336  1.9431 -1.7072
  562MOL0     H75866   5.257   0.518   8.772 -1.3017 -0.3054  0.6916
  562MOL0     H75867   5.952   0.383   9.277 -0.1259  0.5214 -0.5696
  562MOL0     H75868   6.307   0.352   9.297  0.3262  0.3089  1.7478
  562MOL0     H75869   6.154   0.391   9.365  1.5054  2.7558 -0.1649
  562MOL0     H75870   6.203   0.219   9.350 -1.6974 -0.7502 -0.5383
  563MOL0     O75871   6.190   8.418   3.194  0.9735  0.2591  1.6960
  563MOL0     C75872   6.119   8.319   3.217  0.5465 -0.1847 -0.2265
  563MOL0     O75873   6.155   8.212   3.288 -0.4488  0.2038  0.2744
  563MOL0     C75874   6.273   8.214   3.359 -0.0942 -0.0085 -0.1747
  563MOL0     C75875   6.385   8.132   3.330  0.3979  0.5356  0.3650
  563MOL0     C75876   6.498   8.122   3.420  0.6962  0.6119  0.9248
  563MOL0     C75877   6.502   8.205   3.538 -0.3096  0.5988 -0.3479
  563MOL0     O75878   6.615   8.194   3.622  0.2891  0.5609  0.2875
  563MOL0     C75879   6.595   8.241   3.756 -0.1234 -0.4474 -0.7460
  563MOL0     C75880   6.714   8.207   3.846  0.7815  0.5393  0.1298
  563MOL0     C75881   6.850   8.260   3.795 -0.1181  0.0889  0.1390
  563MOL0     C75882   6.956   8.178   3.857  0.4395 -0.4223  0.5540
  563MOL0     C75883   7.103   8.202   3.807 -0.7367  0.4698 -0.0284
  563MOL0     C75884   7.132   8.134   3.667  0.1300  0.4168 -0.5416
  563MOL0     C75885   7.267   8.166   3.605  0.0030 -0.1074  0.6645
  563MOL0     C75886   7.266   8.171   3.442 -0.2741  1.6257 -0.7153
  563MOL0     N75887   7.389   8.190   3.370 -0.6370 -0.3697  0.1102
  563MOL0     C75888   7.464   8.312   3.373  0.2039  1.0124  0.4244
  563MOL0     C75889   7.582   8.282   3.322  0.0154 -0.0187  0.0214
  563MOL0     C75890   7.697   8.376   3.290  0.7032  0.0346 -0.5107
  563MOL0     C75891   7.814   8.360   3.396 -0.2354  0.1100 -0.9062
  563MOL0     C75892   7.948   8.411   3.350  0.3255 -0.4078  0.0732
  563MOL0     C75893   8.051   8.372   3.456 -0.1049 -0.4986  0.0951
  563MOL0     O75894   8.049   8.462   3.558  0.0119  0.8910 -0.0715
  563MOL0     C75895   8.177   8.474   3.600 -0.6207 -1.2136  0.1857
  563MOL0     C75896   8.223   8.392   3.702  0.7657 -0.3138  0.5957
  563MOL0     C75897   8.359   8.387   3.736 -0.6384  0.3873 -0.1327
  563MOL0     C75898   8.448   8.472   3.671  0.6386 -0.9384  0.1647
  563MOL0     C75899   8.589   8.471   3.712 -0.3029 -0.0275  0.0524
  563MOL0     O75900   8.617   8.395   3.817  0.0978  0.0545 -0.3070
  563MOL0     C75901   8.737   8.411   3.878  0.4104  1.2602  0.5506
  563MOL0     C75902   8.734   8.463   4.000  0.1892  0.2755 -0.1166
  563MOL0     C75903   8.858   8.493   4.068  0.6631  0.3759 -0.6224
  563MOL0     C75904   8.980   8.457   4.006 -0.5248  0.3148 -0.1429
  563MOL0     O75905   9.105   8.478   4.057 -0.4214  0.2232 -0.6839
  563MOL0     C75906   9.114   8.503   4.203  0.5465 -0.3914 -0.2792
  563MOL0     C75907   9.260   8.535   4.231  0.6938  0.0527  0.2460
  563MOL0     C75908   9.349   8.404   4.247 -0.8446 -0.0956 -0.1923
  563MOL0     C75909   9.496   8.438   4.263 -0.8830  0.7120  0.3700
  563MOL0     C75910   9.588   8.314   4.250  0.3125 -0.7939  0.2496
  563MOL0     C75911   9.724   8.334   4.304 -0.7467  0.1213 -0.0598
  563MOL0     C75912   9.813   8.211   4.269 -0.7533  0.3129 -0.1388
  563MOL0     C75913   9.954   8.239   4.305 -0.3590  0.3787 -0.3411
  563MOL0    Cl75914   9.973   8.219   4.480  0.2230 -0.6451 -0.1175
  563MOL0     C75915   8.974   8.394   3.885  0.3486 -0.5381 -0.3391
  563MOL0     C75916   8.853   8.376   3.813 -0.6615  0.0264  0.3133
  563MOL0     O75917   8.668   8.532   3.641 -0.0402  0.1269  0.3176
  563MOL0     C75918   8.398   8.562   3.577 -0.1812  0.4627  1.1340
  563MOL0     C75919   8.261   8.564   3.535 -0.5411 -0.2161 -0.1221
  563MOL0     N75920   7.586   8.145   3.294  0.0074 -0.9103  0.7936
  563MOL0     N75921   7.468   8.094   3.308  0.8439 -0.0977 -0.1633
  563MOL0     C75922   6.394   8.295   3.556  0.7025  0.3929 -0.0485
  563MOL0     C75923   6.282   8.294   3.472  0.2010  0.1473 -0.2750
  563MOL0     C75924   5.985   8.337   3.146 -0.2471  0.3358  0.0841
  563MOL0     C75925   5.914   8.215   3.137 -0.4316  1.3123  0.0592
  563MOL0     C75926   5.785   8.214   3.087 -0.0018 -0.5409  0.9852
  563MOL0     C75927   5.721   8.336   3.044  0.2930 -0.0900 -0.5307
  563MOL0     O75928   5.588   8.325   3.004  0.0541 -0.7003 -0.3292
  563MOL0     C75929   5.525   8.440   2.969  0.1996 -0.2692 -0.2878
  563MOL0     C75930   5.388   8.399   2.932  0.5658 -0.0685  1.0082
  563MOL0     C75931   5.311   8.500   2.859 -0.1939 -0.7548 -0.1436
  563MOL0     C75932   5.157   8.459   2.855  0.1379  0.0046 -0.0393
  563MOL0     C75933   5.093   8.443   2.993 -0.4307 -0.0323  0.0324
  563MOL0     C75934   5.042   8.463   3.106  0.0282 -0.1185  0.7313
  563MOL0     C75935   5.803   8.451   3.033 -0.3055  0.1322  0.1223
  563MOL0     C75936   5.930   8.456   3.086 -0.7166  0.1244 -0.0971
  563MOL0     C75937   5.992   8.590   3.087 -0.1055  0.6395 -0.1635
  563MOL0     H75938   6.372   8.064   3.246  0.1091 -2.5326  2.7187
  563MOL0     H75939   6.578   8.049   3.415  1.2799  0.9571  3.6384
  563MOL0     H75940   6.582   8.350   3.752 -0.0493 -0.3328  1.1996
  563MOL0     H75941   6.502   8.204   3.800  0.5193 -0.5472  0.5728
  563MOL0     H75942   6.718   8.098   3.851  0.3295  0.3763 -2.1968
  563MOL0     H75943   6.694   8.236   3.950  3.2891  1.3266  0.4614
  563MOL0     H75944   6.859   8.362   3.833 -3.1289 -0.0303  1.4511
  563MOL0     H75945   6.855   8.251   3.686 -0.2325 -4.0836  0.3096
  563MOL0     H75946   6.945   8.171   3.966 -2.0041 -3.2178  0.2740
  563MOL0     H75947   6.935   8.076   3.824  1.2529 -0.2990 -0.3751
  563MOL0     H75948   7.112   8.310   3.800  1.7802  0.3834  0.7634
  563MOL0     H75949   7.170   8.155   3.880  0.4718 -1.0243 -2.0065
  563MOL0     H75950   7.130   8.027   3.690  0.7141  1.0798  3.4023
  563MOL0     H75951   7.055   8.165   3.596  0.4546  0.0654 -1.0521
  563MOL0     H75952   7.342   8.094   3.639  1.5913  1.1569  0.0004
  563MOL0     H75953   7.296   8.265   3.642 -0.0437 -0.6798  2.3438
  563MOL0     H75954   7.232   8.072   3.410  0.7306  1.8487 -2.6019
  563MOL0     H75955   7.190   8.248   3.422 -0.8685  2.6410  4.1378
  563MOL0     H75956   7.432   8.406   3.417  0.9849  1.0727  0.8784
  563MOL0     H75957   7.748   8.356   3.195  4.2834  0.5917  1.1049
  563MOL0     H75958   7.654   8.476   3.294 -0.5727 -0.5099 -0.2371
  563MOL0     H75959   7.783   8.413   3.486 -2.0296  1.6505 -2.3554
  563MOL0     H75960   7.819   8.251   3.402 -2.8783 -0.0183 -0.0942
  563MOL0     H75961   7.949   8.519   3.333  0.9473 -0.0272  2.2943
  563MOL0     H75962   7.979   8.359   3.258  1.3048 -2.2453  1.3685
  563MOL0     H75963   8.146   8.353   3.405 -0.8062 -0.1931 -1.3747
  563MOL0     H75964   8.030   8.272   3.494 -1.3538 -0.7678 -1.2475
  563MOL0     H75965   8.143   8.345   3.758 -1.5682  3.2067  0.5349
  563MOL0     H75966   8.382   8.324   3.821  0.6628 -0.5493 -1.1375
  563MOL0     H75967   8.638   8.473   4.049 -1.0659 -3.7428 -1.4145
  563MOL0     H75968   8.857   8.519   4.173  1.6585  0.8003 -0.7076
  563MOL0     H75969   9.047   8.585   4.231  0.0389  0.2503 -3.1082
  563MOL0     H75970   9.087   8.409   4.251  1.4050 -0.6464 -0.2825
  563MOL0     H75971   9.306   8.601   4.157  0.1114 -0.3120 -0.4596
  563MOL0     H75972   9.270   8.599   4.319  1.1205  1.9353 -1.1405
  563MOL0     H75973   9.305   8.343   4.327  1.9997  0.2509  1.7790
  563MOL0     H75974   9.339   8.352   4.151  2.1763  0.8548 -1.1207
  563MOL0     H75975   9.513   8.488   4.358 -1.1184  1.8779 -0.1809
  563MOL0     H75976   9.524   8.508   4.183  1.3281 -0.5055 -0.0070
  563MOL0     H75977   9.596   8.287   4.144 -0.2092 -2.3375  0.5767
  563MOL0     H75978   9.539   8.227   4.295 -0.7545  0.4604  1.6041
  563MOL0     H75979   9.780   8.415   4.255  0.3349 -0.8013 -0.3992
  563MOL0     H75980   9.720   8.356   4.411  1.4895 -2.7338  0.7319
  563MOL0     H75981   9.814   8.183   4.163  0.5205  0.6254 -0.2279
  563MOL0     H75982   9.783   8.119   4.318  0.7463 -0.8513 -1.2949
  563MOL0     H75983  10.016   8.175   4.241  0.1473  3.2101 -2.8774
  563MOL0     H75984   9.974   8.342   4.277 -1.7180  1.0074  0.9150
  563MOL0     H75985   9.064   8.364   3.831 -0.1890  0.5421 -1.9118
  563MOL0     H75986   8.868   8.343   3.710  2.6633  0.6267  0.4787
  563MOL0     H75987   8.464   8.631   3.526  1.5152 -1.1069  1.1144
  563MOL0     H75988   8.224   8.619   3.450  1.3958  0.2229 -0.7290
  563MOL0     H75989   6.401   8.359   3.644 -0.5396 -1.6090  1.6168
  563MOL0     H75990   6.197   8.353   3.505  0.0798 -0.5169  0.6531
  563MOL0     H75991   5.957   8.120   3.166  0.1458  1.1405 -1.3013
  563MOL0     H75992   5.716   8.131   3.075 -0.4435  0.0054 -0.4841
  563MOL0     H75993   5.576   8.497   2.891  0.5906 -1.1169 -0.6577
  563MOL0     H75994   5.525   8.504   3.058  0.6819  0.2602 -0.6631
  563MOL0     H75995   5.340   8.366   3.025  1.0765  0.8106  1.5963
  563MOL0     H75996   5.401   8.314   2.864  1.7008  1.4320 -0.7207
  563MOL0     H75997   5.337   8.495   2.753 -1.9147 -0.1475 -0.6209
  563MOL0     H75998   5.330   8.598   2.903  1.5492 -1.4147  0.6774
  563MOL0     H75999   5.105   8.537   2.799  0.9981 -0.1052 -1.0315
  563MOL0     H76000   5.146   8.373   2.788 -1.9900  1.5441 -1.8442
  563MOL0     H76001   4.997   8.496   3.197  0.1733  1.6391  0.2094
  563MOL0     H76002   5.758   8.535   2.981 -3.8127 -1.6725 -0.0321
  563MOL0     H76003   5.990   8.632   3.188  0.2417  1.2357 -0.3966
  563MOL0     H76004   6.092   8.588   3.042 -0.7903 -3.6827 -2.0132
  563MOL0     H76005   5.925   8.658   3.035 -1.0134  0.1669  0.3758
  564MOL0     O76006   5.910   6.786   2.133  0.4724  0.3725  0.1855
  564MOL0     C76007   5.886   6.667   2.153 -0.0885 -0.4540 -0.0525
  564MOL0     O76008   5.988   6.570   2.152 -0.4410 -0.1798 -0.1856
  564MOL0     C76009   6.109   6.587   2.082 -0.3348  0.7142  0.7303
  564MOL0     C76010   6.143   6.680   1.986  0.1550 -0.1038 -0.2832
  564MOL0     C76011   6.271   6.673   1.924  0.4270  0.7630  0.8485
  564MOL0     C76012   6.357   6.562   1.941 -0.2395  0.6804  0.8729
  564MOL0     O76013   6.470   6.530   1.865  0.1611  0.7678 -0.0551
  564MOL0     C76014   6.491   6.612   1.750 -0.2345  0.3700  0.4755
  564MOL0     C76015   6.604   6.547   1.665 -0.3075 -0.1722 -0.6043
  564MOL0     C76016   6.747   6.532   1.735  0.3270 -0.7375  0.3497
  564MOL0     C76017   6.830   6.435   1.652 -0.1534 -0.2861  0.1265
  564MOL0     C76018   6.962   6.438   1.730  0.1804 -0.6349 -0.2908
  564MOL0     C76019   7.056   6.324   1.673 -0.5358 -0.4803 -0.1839
  564MOL0     C76020   7.203   6.378   1.668  0.1359 -1.2000 -0.7885
  564MOL0     C76021   7.308   6.282   1.620 -0.4980 -0.6490 -0.1096
  564MOL0     N76022   7.427   6.353   1.566  0.3343 -0.6362  0.1387
  564MOL0     C76023   7.438   6.450   1.467 -0.2804  0.8873 -0.8060
  564MOL0     C76024   7.572   6.479   1.459  0.6414 -0.0685 -0.2369
  564MOL0     C76025   7.647   6.583   1.382  1.0136  0.6162  0.2178
  564MOL0     C76026   7.549   6.669   1.306  0.1149 -0.5356  0.5638
  564MOL0     C76027   7.620   6.801   1.257  0.7439 -0.2740 -0.4877
  564MOL0     C76028   7.759   6.792   1.195  0.6124  0.3415 -0.5759
  564MOL0     O76029   7.770   6.719   1.072 -0.3980  0.3192  0.1870
  564MOL0     C76030   7.838   6.780   0.970  1.0192 -0.0683 -1.3014
  564MOL0     C76031   7.793   6.764   0.835  0.0891  0.7165 -0.0544
  564MOL0     C76032   7.863   6.827   0.732 -0.0414 -0.2805  0.3991
  564MOL0     C76033   7.985   6.899   0.759 -0.6730  0.6525 -0.3786
  564MOL0     C76034   8.074   6.949   0.655 -0.2359 -0.0658  0.7551
  564MOL0     O76035   8.152   7.060   0.689  0.3202 -0.6767 -0.2851
  564MOL0     C76036   8.223   7.132   0.597  0.1616  0.2959  0.3615
  564MOL0     C76037   8.351   7.093   0.542 -0.4417 -0.2495 -0.1637
  564MOL0     C76038   8.426   7.180   0.458 -0.0364 -0.0573 -0.2618
  564MOL0     C76039   8.385   7.317   0.439  0.1544  0.9305 -0.4501
  564MOL0     O76040   8.467   7.415   0.382  0.2785  0.4544 -0.0824
  564MOL0     C76041   8.608   7.421   0.435  0.0369 -0.3426 -0.6112
  564MOL0     C76042   8.596   7.453   0.581  0.0859 -0.6446 -0.6554
  564MOL0     C76043   8.732   7.516   0.630  0.1932 -0.4028 -0.0281
  564MOL0     C76044   8.833   7.410   0.669  1.0003 -0.6908  0.6001
  564MOL0     C76045   8.955   7.461   0.728  0.0131 -0.3356 -0.1039
  564MOL0     C76046   9.041   7.530   0.625 -0.8566 -0.2292  0.0988
  564MOL0     C76047   9.170   7.572   0.689 -0.2915 -0.0438 -0.6255
  564MOL0     C76048   9.265   7.615   0.577 -0.4832 -0.3542  0.5420
  564MOL0    Cl76049   9.397   7.725   0.635  0.4511  0.0976 -0.3167
  564MOL0     C76050   8.256   7.348   0.488  0.0902 -0.9769  1.0364
  564MOL0     C76051   8.173   7.261   0.559 -0.7318 -0.6184 -0.2517
  564MOL0     O76052   8.076   6.896   0.544 -0.6079 -0.3233  0.2608
  564MOL0     C76053   8.023   6.914   0.889 -0.6941  0.1351 -0.2759
  564MOL0     C76054   7.953   6.855   1.001  0.0575 -0.5010  0.5204
  564MOL0     N76055   7.632   6.407   1.563 -0.7586  0.3491 -0.0582
  564MOL0     N76056   7.552   6.330   1.617  0.2074  0.1922 -0.7130
  564MOL0     C76057   6.325   6.480   2.049 -0.2546  0.0989 -0.4973
  564MOL0     C76058   6.206   6.488   2.119  1.1791 -0.7057  0.1331
  564MOL0     C76059   5.746   6.627   2.155  0.1959 -0.2079 -0.1163
  564MOL0     C76060   5.722   6.493   2.117  0.6648  0.1131  0.0904
  564MOL0     C76061   5.595   6.444   2.113  0.1767 -0.4437 -0.9346
  564MOL0     C76062   5.483   6.529   2.137 -0.1904  0.5549  0.6827
  564MOL0     O76063   5.361   6.479   2.101 -0.2178  0.4996 -0.5625
  564MOL0     C76064   5.235   6.516   2.164  0.7157 -0.5432  0.5657
  564MOL0     C76065   5.118   6.442   2.089 -0.5121 -0.6006  0.5974
  564MOL0     C76066   4.993   6.434   2.172 -0.3238  0.4651 -0.3224
  564MOL0     C76067   4.890   6.338   2.106  0.3334 -0.3228 -0.8511
  564MOL0     C76068   4.754   6.375   2.143  1.1342 -0.3957 -0.5456
  564MOL0     C76069   4.637   6.398   2.168  0.1887  0.1809 -0.3659
  564MOL0     C76070   5.506   6.661   2.175  0.1419  0.2708  0.8460
  564MOL0     C76071   5.635   6.709   2.201  0.3196 -0.0101  1.0442
  564MOL0     C76072   5.654   6.857   2.236  0.6114  0.3724 -1.1030
  564MOL0     H76073   6.068   6.757   1.974  2.9021  2.9757  1.0088
  564MOL0     H76074   6.289   6.763   1.866 -1.5970  1.0567  0.5878
  564MOL0     H76075   6.400   6.612   1.690  1.7086  0.6011 -2.6959
  564MOL0     H76076   6.514   6.713   1.785 -0.6944  0.6066  0.1100
  564MOL0     H76077   6.612   6.617   1.581 -1.8827 -0.4390 -1.0004
  564MOL0     H76078   6.565   6.454   1.622  1.6180 -0.5235 -1.7295
  564MOL0     H76079   6.733   6.475   1.827 -0.0931  0.2198  0.8940
  564MOL0     H76080   6.794   6.630   1.747 -2.2449  1.1126 -3.0267
  564MOL0     H76081   6.788   6.333   1.651 -1.6589  0.2945  1.1803
  564MOL0     H76082   6.843   6.471   1.549  0.0833  0.8256  0.5365
  564MOL0     H76083   7.013   6.535   1.741 -2.1300  0.9634 -2.3605
  564MOL0     H76084   6.943   6.415   1.835 -1.2801 -0.7213 -0.5583
  564MOL0     H76085   7.064   6.243   1.746  1.7596  0.0493  0.2305
  564MOL0     H76086   7.016   6.282   1.580  0.8285 -1.3791 -0.3831
  564MOL0     H76087   7.241   6.414   1.764 -2.8460 -0.2287  0.1301
  564MOL0     H76088   7.202   6.470   1.607 -0.6660  0.1239  1.1281
  564MOL0     H76089   7.336   6.230   1.711  0.9724 -0.9247 -0.6816
  564MOL0     H76090   7.257   6.214   1.551 -2.1657 -1.4045  1.7742
  564MOL0     H76091   7.360   6.485   1.399  0.7397  0.7031 -2.1184
  564MOL0     H76092   7.707   6.637   1.456 -0.1146 -0.0102  1.6425
  564MOL0     H76093   7.710   6.528   1.311 -0.8417 -0.2556 -0.8406
  564MOL0     H76094   7.494   6.613   1.230 -1.7771 -1.1052  2.2357
  564MOL0     H76095   7.476   6.703   1.381  0.1959 -1.3129  1.0115
  564MOL0     H76096   7.621   6.864   1.346 -0.7444  1.2227 -1.4769
  564MOL0     H76097   7.564   6.852   1.179 -0.1711 -0.1692  0.2257
  564MOL0     H76098   7.832   6.742   1.259  1.7044  0.6568 -1.5595
  564MOL0     H76099   7.784   6.898   1.188  0.6789  0.2175 -3.0748
  564MOL0     H76100   7.706   6.701   0.813 -0.2589  1.6417 -1.4824
  564MOL0     H76101   7.834   6.820   0.628  0.6137  1.3309  0.0616
  564MOL0     H76102   8.390   6.998   0.577  3.2387  1.5139  0.9788
  564MOL0     H76103   8.525   7.160   0.418  0.2196  1.2933 -0.3421
  564MOL0     H76104   8.655   7.324   0.419 -0.5762 -0.3315 -2.6886
  564MOL0     H76105   8.668   7.492   0.378  0.0848 -0.4519 -0.6962
  564MOL0     H76106   8.520   7.532   0.591  0.6060  0.5040 -4.3256
  564MOL0     H76107   8.555   7.376   0.647 -0.5032 -0.2596 -0.5625
  564MOL0     H76108   8.770   7.586   0.556  0.0752 -1.3219 -0.9735
  564MOL0     H76109   8.720   7.571   0.724  2.3408 -3.6172  2.3579
  564MOL0     H76110   8.853   7.366   0.572 -1.3930  1.2490 -0.8939
  564MOL0     H76111   8.781   7.337   0.732  2.9717 -1.6235  1.2127
  564MOL0     H76112   9.007   7.377   0.774 -0.3107  0.1724  1.2128
  564MOL0     H76113   8.920   7.543   0.792  1.0564  1.1844 -1.3925
  564MOL0     H76114   9.061   7.459   0.544 -0.1346 -2.0584  1.8074
  564MOL0     H76115   8.985   7.620   0.597 -1.1144  0.3885  2.4244
  564MOL0     H76116   9.206   7.484   0.744 -1.6224 -0.6170 -0.6269
  564MOL0     H76117   9.146   7.655   0.756  0.6303  1.0163 -1.5712
  564MOL0     H76118   9.314   7.532   0.525  0.3811  0.2982  0.2815
  564MOL0     H76119   9.202   7.681   0.516 -0.3466  0.4735  1.2758
  564MOL0     H76120   8.205   7.442   0.468 -0.1349 -1.1313  0.8822
  564MOL0     H76121   8.076   7.296   0.593 -1.5540 -2.1437 -0.9428
  564MOL0     H76122   8.124   6.952   0.904  1.1867 -4.2403 -0.3223
  564MOL0     H76123   7.991   6.868   1.102 -1.4974  1.4199  0.9122
  564MOL0     H76124   6.403   6.406   2.060  0.4699  1.1376  2.3692
  564MOL0     H76125   6.170   6.426   2.200 -1.5906  2.9947  2.0741
  564MOL0     H76126   5.802   6.425   2.091  0.3104 -0.1293 -0.3843
  564MOL0     H76127   5.586   6.338   2.091  0.2682 -0.3917 -1.2226
  564MOL0     H76128   5.222   6.624   2.165 -1.1878 -0.7250  2.2707
  564MOL0     H76129   5.237   6.482   2.268  3.7618 -0.9850  0.4462
  564MOL0     H76130   5.160   6.347   2.055 -1.6115 -0.5223 -1.1092
  564MOL0     H76131   5.095   6.497   1.997  1.3050 -1.7040 -0.5712
  564MOL0     H76132   4.948   6.533   2.189 -0.6146  0.2249  0.3225
  564MOL0     H76133   5.007   6.382   2.266 -4.0855  1.5522  1.0377
  564MOL0     H76134   4.897   6.336   1.997 -1.3990 -0.3398 -0.9930
  564MOL0     H76135   4.921   6.236   2.133  1.5873  0.5589  1.3213
  564MOL0     H76136   4.538   6.428   2.194  0.9791  2.4324  0.2845
  564MOL0     H76137   5.422   6.725   2.198  0.8224  1.4593  0.0888
  564MOL0     H76138   5.572   6.884   2.303  1.6239  0.9524 -0.0775
  564MOL0     H76139   5.746   6.885   2.288 -0.8229  2.2159  0.5552
  564MOL0     H76140   5.634   6.918   2.148  1.0031  1.2169 -0.6139
  565MOL0     O76141  10.390  10.738  11.037  0.6038 -0.4994  0.0084
  565MOL0     C76142  10.303  10.673  10.979 -0.6444  0.1104 -0.1146
  565MOL0     O76143  10.329  10.596  10.869 -0.1170 -0.3370  0.6331
  565MOL0     C76144  10.441  10.609  10.799  0.0935  0.1316 -0.4971
  565MOL0     C76145  10.545  10.528  10.831 -0.1776 -0.1408  0.3591
  565MOL0     C76146  10.672  10.552  10.766  0.0686 -0.1632  0.7293
  565MOL0     C76147  10.678  10.649  10.659 -0.1357  0.1997 -0.7026
  565MOL0     O76148  10.789  10.680  10.582  0.1090 -0.9271 -0.0230
  565MOL0     C76149  10.892  10.587  10.569  0.2771 -0.1800  0.2446
  565MOL0     C76150  10.990  10.622  10.682  0.6684 -0.3483  0.5057
  565MOL0     C76151  11.107  10.526  10.688 -0.0548 -0.2214  0.8347
  565MOL0     C76152  11.215  10.580  10.784  0.8306  0.7785  0.7342
  565MOL0     C76153  11.340  10.485  10.806 -0.6051  0.3893 -0.0048
  565MOL0     C76154  11.433  10.549  10.909  0.2450  0.0284  0.2242
  565MOL0     C76155  11.536  10.436  10.957  0.5724 -0.6807  0.0266
  565MOL0     C76156  11.630  10.481  11.074 -0.4566 -0.7533 -0.6062
  565MOL0     N76157  11.707  10.604  11.043 -0.0341  0.3571  0.1976
  565MOL0     C76158  11.805  10.609  10.951 -0.9823  0.2682 -0.0014
  565MOL0     C76159  11.849  10.741  10.948 -0.5404 -1.0360  0.1020
  565MOL0     C76160  11.970  10.792  10.872  0.0320  0.1233  0.0759
  565MOL0     C76161  11.979  10.717  10.747  0.0782  0.0778 -0.5466
  565MOL0     C76162  12.097  10.760  10.647 -0.3253  0.3247 -0.6953
  565MOL0     C76163  12.228  10.792  10.708 -0.0330 -0.0190  0.4711
  565MOL0     O76164  12.273  10.692  10.794 -0.1166  0.8719 -0.2633
  565MOL0     C76165  12.396  10.729  10.854  1.1506  0.7488  0.2862
  565MOL0     C76166  12.403  10.695  10.986 -0.2521  0.0364 -0.3846
  565MOL0     C76167  12.528  10.715  11.056  0.8242  0.6187 -0.6465
  565MOL0     C76168  12.639  10.773  10.997 -0.3689  0.4158 -0.3866
  565MOL0     C76169  12.777  10.794  11.068 -0.0805  0.5666 -0.0910
  565MOL0     O76170  12.881  10.846  11.008 -0.4687 -0.3576  0.2569
  565MOL0     C76171  12.992  10.870  11.085 -0.7416 -0.6029  0.2870
  565MOL0     C76172  13.112  10.839  11.024  0.2481  0.5377  0.2193
  565MOL0     C76173  13.237  10.852  11.098 -0.0320  0.3128 -0.1488
  565MOL0     C76174  13.229  10.903  11.228 -0.2172 -0.2639 -0.8167
  565MOL0     O76175  13.342  10.911  11.307  1.0527  0.8580  0.4992
  565MOL0     C76176  13.431  11.006  11.255 -0.4241 -0.6056  0.4439
  565MOL0     C76177  13.535  11.045  11.356  0.0374  0.1617 -0.0409
  565MOL0     C76178  13.657  11.131  11.296  0.0075  0.1930  0.3576
  565MOL0     C76179  13.744  11.181  11.422 -0.2581 -0.4282  0.1467
  565MOL0     C76180  13.861  11.280  11.375  0.9764 -0.5523 -0.1417
  565MOL0     C76181  13.991  11.222  11.327 -0.2178 -0.5720  0.2695
  565MOL0     C76182  13.981  11.172  11.185  0.1391 -0.0588  0.2027
  565MOL0     C76183  14.118  11.189  11.122 -0.1533  0.0786  0.3199
  565MOL0    Cl76184  14.111  11.127  10.956  0.2912 -0.0169 -0.4571
  565MOL0     C76185  13.106  10.948  11.285 -0.3034  0.4651  0.2584
  565MOL0     C76186  12.991  10.926  11.209 -0.7597 -0.2604 -0.6230
  565MOL0     O76187  12.773  10.747  11.178  0.5391 -0.2133  0.8265
  565MOL0     C76188  12.615  10.816  10.874 -0.6124 -0.2079  0.4243
  565MOL0     C76189  12.507  10.794  10.794 -0.0420 -0.5757 -0.4264
  565MOL0     N76190  11.767  10.812  11.051  0.3890  0.3898  0.1090
  565MOL0     N76191  11.681  10.723  11.098 -0.3430 -1.3886 -0.1422
  565MOL0     C76192  10.560  10.710  10.616  0.2816 -0.2362  0.4952
  565MOL0     C76193  10.441  10.698  10.696  0.2143  0.3891 -0.3704
  565MOL0     C76194  10.159  10.687  11.014 -0.1941  0.1036  0.2271
  565MOL0     C76195  10.072  10.644  10.924  0.0764 -0.4125 -0.2923
  565MOL0     C76196   9.935  10.650  10.943  0.1053 -0.2119  0.3044
  565MOL0     C76197   9.877  10.715  11.052  0.1202 -0.1441 -0.9734
  565MOL0     O76198   9.745  10.741  11.072  0.5381 -0.2645 -0.4422
  565MOL0     C76199   9.647  10.734  10.960  0.2222  0.4569  1.3002
  565MOL0     C76200   9.652  10.852  10.869  0.3144 -0.7979 -0.4752
  565MOL0     C76201   9.582  10.829  10.736 -0.0678 -0.8132  0.2613
  565MOL0     C76202   9.434  10.862  10.760 -0.2754 -0.7253  0.6451
  565MOL0     C76203   9.336  10.841  10.649  0.6709 -0.2370 -0.0525
  565MOL0     C76204   9.251  10.824  10.556 -0.3689  0.5562 -1.0982
  565MOL0     C76205   9.973  10.759  11.149  0.5040  0.5480 -0.5029
  565MOL0     C76206  10.108  10.744  11.127 -0.0235  0.2041  0.2584
  565MOL0     C76207  10.197  10.774  11.240 -0.0004 -0.7605  0.3992
  565MOL0     H76208  10.533  10.450  10.905  0.5095  1.7951  2.6445
  565MOL0     H76209  10.760  10.490  10.782  0.9659  0.8716  0.0129
  565MOL0     H76210  10.859  10.482  10.573 -0.4226  0.0333  0.1594
  565MOL0     H76211  10.923  10.606  10.466  0.8240 -1.2118  0.2021
  565MOL0     H76212  10.933  10.618  10.775 -2.2958  1.3303 -1.0864
  565MOL0     H76213  11.022  10.725  10.661  0.2197 -0.6922 -2.2737
  565MOL0     H76214  11.140  10.507  10.585 -0.2788  0.8942  0.5483
  565MOL0     H76215  11.070  10.427  10.719 -2.2326  0.8829  2.0124
  565MOL0     H76216  11.245  10.682  10.756  3.6628 -0.3269 -0.6299
  565MOL0     H76217  11.162  10.574  10.879 -1.9071 -4.3031 -0.7234
  565MOL0     H76218  11.300  10.388  10.837 -0.2524  0.5208  0.8812
  565MOL0     H76219  11.393  10.484  10.711 -1.8705  1.4117 -0.7682
  565MOL0     H76220  11.478  10.626  10.845 -1.1287 -0.3315 -1.2399
  565MOL0     H76221  11.389  10.593  10.998  0.9452  1.2019  0.0142
  565MOL0     H76222  11.594  10.403  10.871  0.9624 -0.4798  0.2093
  565MOL0     H76223  11.485  10.342  10.981  1.0329 -1.1794 -0.9008
  565MOL0     H76224  11.562  10.511  11.155  3.0489  0.8027  2.0166
  565MOL0     H76225  11.696  10.399  11.103  0.3023  0.5396  1.5340
  565MOL0     H76226  11.848  10.536  10.883  2.1984  2.1071 -0.1919
  565MOL0     H76227  11.946  10.895  10.845  0.5097  0.3281  0.4278
  565MOL0     H76228  12.056  10.771  10.936  0.2127 -2.4181 -0.8769
  565MOL0     H76229  12.024  10.621  10.776  0.9534  1.1576  1.9778
  565MOL0     H76230  11.886  10.720  10.690  0.3549 -0.6575 -1.0483
  565MOL0     H76231  12.057  10.846  10.594 -1.2465  0.1344 -0.3316
  565MOL0     H76232  12.111  10.681  10.573 -0.0862 -1.1661  0.8588
  565MOL0     H76233  12.214  10.891  10.752 -0.7649  0.4154 -0.7089
  565MOL0     H76234  12.296  10.790  10.622  1.0438 -0.3505  1.3072
  565MOL0     H76235  12.336  10.633  11.045  1.6577  0.0500  1.9896
  565MOL0     H76236  12.533  10.682  11.160  4.6533  3.1268  0.1838
  565MOL0     H76237  13.125  10.808  10.921  0.4348  4.0367 -0.9385
  565MOL0     H76238  13.331  10.813  11.059  0.7927 -0.0477  2.0647
  565MOL0     H76239  13.482  10.977  11.162 -1.0400  0.6956 -0.3247
  565MOL0     H76240  13.380  11.097  11.225  2.6895  0.7614 -1.2606
  565MOL0     H76241  13.470  11.093  11.430 -2.4815 -1.8505 -0.7869
  565MOL0     H76242  13.569  10.949  11.394 -0.2829 -0.0494 -0.2754
  565MOL0     H76243  13.724  11.067  11.239  0.5972  0.9470  0.1890
  565MOL0     H76244  13.619  11.214  11.237  0.4107  0.4111  0.3962
  565MOL0     H76245  13.786  11.098  11.479 -0.2563 -2.1361 -2.1799
  565MOL0     H76246  13.681  11.233  11.495  0.4435 -0.3538  0.7109
  565MOL0     H76247  13.887  11.342  11.462  0.7114 -0.7171  0.0571
  565MOL0     H76248  13.826  11.349  11.298 -0.8757 -0.6631  0.5687
  565MOL0     H76249  14.070  11.298  11.326 -0.2805 -0.5009 -0.8687
  565MOL0     H76250  14.014  11.141  11.397 -3.2771 -0.3085  1.7604
  565MOL0     H76251  13.912  11.238  11.132  1.5404  0.8888 -0.5020
  565MOL0     H76252  13.953  11.066  11.177  0.3660 -0.2158  1.3000
  565MOL0     H76253  14.140  11.296  11.111  4.2204 -0.8512 -2.4111
  565MOL0     H76254  14.201  11.142  11.176 -0.2885 -0.4166  0.1023
  565MOL0     H76255  13.121  10.986  11.386  2.1938 -1.1614  0.6053
  565MOL0     H76256  12.895  10.965  11.240 -0.5448 -1.2522  1.4114
  565MOL0     H76257  12.700  10.852  10.818 -0.9945  0.2943  0.1583
  565MOL0     H76258  12.519  10.828  10.692  0.2563  0.2651 -0.1206
  565MOL0     H76259  10.559  10.758  10.518  0.4566 -3.6847 -1.3616
  565MOL0     H76260  10.348  10.745  10.662 -0.0882  0.9438  1.1385
  565MOL0     H76261  10.106  10.602  10.830 -0.6319 -1.8333  0.0556
  565MOL0     H76262   9.868  10.610  10.868 -1.5274  2.2305  0.3883
  565MOL0     H76263   9.546  10.723  10.999 -1.0021  0.6854 -1.5841
  565MOL0     H76264   9.673  10.643  10.906  1.0696  0.7074  1.2652
  565MOL0     H76265   9.757  10.863  10.841  0.3705 -2.9268 -1.2954
  565MOL0     H76266   9.626  10.949  10.912  0.8342  0.6640 -3.2159
  565MOL0     H76267   9.593  10.731  10.691 -0.7657 -0.3389 -0.9977
  565MOL0     H76268   9.629  10.899  10.667 -0.1347 -0.0988  0.9159
  565MOL0     H76269   9.408  10.797  10.844  3.0158 -2.4717  0.4813
  565MOL0     H76270   9.425  10.967  10.788 -2.8957 -1.0379  1.2830
  565MOL0     H76271   9.190  10.812  10.469  1.5036 -0.9224 -2.3008
  565MOL0     H76272   9.945  10.807  11.242  2.9756 -1.0211  1.1530
  565MOL0     H76273  10.255  10.865  11.219 -0.5895 -0.4687  0.0176
  565MOL0     H76274  10.142  10.780  11.334  1.4916  1.1300  1.2061
  565MOL0     H76275  10.270  10.695  11.260  0.4227 -0.2234  1.0304
  566MOL0     O76276  10.016   9.926   5.028 -0.7872  0.0436 -1.1313
  566MOL0     C76277  10.004  10.005   5.127  0.0167  0.5962  1.2214
  566MOL0     O76278  10.105  10.063   5.190  0.9198  0.2185  0.6404
  566MOL0     C76279  10.222  10.084   5.114  0.5025 -0.5521  0.3021
  566MOL0     C76280  10.329  10.000   5.133 -0.3978  0.6582  0.3944
  566MOL0     C76281  10.449  10.013   5.068  0.3105  0.5907  0.4645
  566MOL0     C76282  10.467  10.112   4.975 -0.3422 -0.6276 -0.0624
  566MOL0     O76283  10.587  10.114   4.907 -0.2131  0.4399 -0.1053
  566MOL0     C76284  10.630  10.232   4.843 -0.1209 -0.7026 -0.6558
  566MOL0     C76285  10.783  10.203   4.803  0.0671 -0.2987  0.6777
  566MOL0     C76286  10.813  10.295   4.691  0.0521  1.1747 -0.0526
  566MOL0     C76287  10.872  10.428   4.738 -0.0897 -0.3838  0.0795
  566MOL0     C76288  10.907  10.517   4.606  0.5680  1.1491  0.4468
  566MOL0     C76289  10.955  10.657   4.655 -0.3862  0.8305 -0.1198
  566MOL0     C76290  11.099  10.660   4.694  0.2014 -0.7434  0.3754
  566MOL0     C76291  11.147  10.801   4.677 -0.3939  0.8554  0.2622
  566MOL0     N76292  11.289  10.814   4.719  0.0521 -0.2846 -0.7387
  566MOL0     C76293  11.398  10.771   4.653 -0.3729 -0.5709 -0.9995
  566MOL0     C76294  11.499  10.776   4.741 -0.1314 -0.1276  0.3264
  566MOL0     C76295  11.636  10.724   4.704  0.2084 -0.4042  0.1010
  566MOL0     C76296  11.749  10.764   4.802 -0.3365 -0.2388 -0.0371
  566MOL0     C76297  11.757  10.912   4.817  0.8757 -0.4928  0.7796
  566MOL0     C76298  11.860  10.961   4.917  0.2108 -0.5055 -0.5452
  566MOL0     O76299  11.988  10.915   4.892  0.2895 -0.1170  0.1247
  566MOL0     C76300  12.094  10.963   4.966 -0.6339  0.5409  0.0396
  566MOL0     C76301  12.082  11.010   5.095  0.4710  0.3107  0.4748
  566MOL0     C76302  12.198  11.068   5.155 -0.3865  0.2851 -0.2629
  566MOL0     C76303  12.326  11.083   5.087  0.5912 -0.2350 -0.2290
  566MOL0     C76304  12.445  11.139   5.154  0.8919 -0.1583 -0.1939
  566MOL0     O76305  12.566  11.125   5.094  0.1770 -0.0121  0.2418
  566MOL0     C76306  12.688  11.159   5.159  0.6515  0.3874  0.4107
  566MOL0     C76307  12.794  11.146   5.065 -0.5551  0.1603 -0.6367
  566MOL0     C76308  12.923  11.186   5.112  0.1671  1.0486  1.1517
  566MOL0     C76309  12.937  11.224   5.247 -0.4208  0.8295  0.6857
  566MOL0     O76310  13.066  11.240   5.285 -0.4127  0.3442  0.4231
  566MOL0     C76311  13.132  11.345   5.228 -0.5014  0.2003  0.1092
  566MOL0     C76312  13.270  11.354   5.297 -0.4145  0.0564  0.3296
  566MOL0     C76313  13.358  11.235   5.268  0.0841 -0.1968 -0.0325
  566MOL0     C76314  13.452  11.217   5.387 -0.4417 -0.1220 -0.3058
  566MOL0     C76315  13.555  11.110   5.377 -0.1078  0.3016  0.6977
  566MOL0     C76316  13.613  11.109   5.228 -0.6394  0.2251  0.7723
  566MOL0     C76317  13.713  10.993   5.224 -0.1285 -0.5215  0.1762
  566MOL0     C76318  13.768  10.967   5.079  0.2334  0.0842 -0.7560
  566MOL0    Cl76319  13.642  10.953   4.961  0.0916  0.3738 -0.0834
  566MOL0     C76320  12.841  11.216   5.338  0.0029  0.8876  0.4780
  566MOL0     C76321  12.715  11.179   5.296 -0.5704 -0.0214  0.2827
  566MOL0     O76322  12.424  11.193   5.261 -0.1626  0.1725  0.2611
  566MOL0     C76323  12.328  11.054   4.948 -0.8441  0.0764 -0.9118
  566MOL0     C76324  12.213  10.992   4.899  0.2187 -0.0728 -0.3247
  566MOL0     N76325  11.443  10.823   4.863 -0.0511  0.1847 -0.5739
  566MOL0     N76326  11.316  10.834   4.849 -0.0565  0.2281 -0.2368
  566MOL0     C76327  10.364  10.207   4.956 -0.2887  0.2282 -0.4274
  566MOL0     C76328  10.242  10.188   5.024  0.2438  0.7032  0.1325
  566MOL0     C76329   9.871  10.013   5.188  0.1540  0.6851  0.8305
  566MOL0     C76330   9.769   9.919   5.154  0.0622 -0.4619  0.3013
  566MOL0     C76331   9.638   9.942   5.180 -0.2073 -0.9552 -0.6261
  566MOL0     C76332   9.588  10.049   5.252 -0.2375 -0.1109 -0.2250
  566MOL0     O76333   9.453  10.049   5.279  1.0713 -0.4734  0.3017
  566MOL0     C76334   9.391  10.146   5.371  0.5934  0.6516 -0.0761
  566MOL0     C76335   9.239  10.149   5.364 -0.5403 -0.2040 -0.7756
  566MOL0     C76336   9.166  10.012   5.398  0.2789  0.3176 -0.2599
  566MOL0     C76337   9.022  10.038   5.446 -0.7556 -0.2579 -0.5617
  566MOL0     C76338   8.943   9.921   5.480 -0.1846  0.1862 -0.1176
  566MOL0     C76339   8.894   9.808   5.521 -0.0263  0.1051  0.5053
  566MOL0     C76340   9.681  10.137   5.304 -0.3417  0.4609  0.9202
  566MOL0     C76341   9.819  10.128   5.266 -0.6230  0.2131  0.4800
  566MOL0     C76342   9.903  10.240   5.317 -0.3653  0.0059 -0.8935
  566MOL0     H76343  10.321   9.915   5.199  3.6089 -0.6823 -0.5451
  566MOL0     H76344  10.533   9.945   5.071  0.9762  1.3605 -0.1483
  566MOL0     H76345  10.565  10.241   4.755 -0.8186 -0.2586 -0.1097
  566MOL0     H76346  10.616  10.322   4.904  0.8356 -0.0297 -1.4014
  566MOL0     H76347  10.794  10.099   4.768 -1.3167  0.1145 -1.1356
  566MOL0     H76348  10.849  10.214   4.889  2.1038 -1.1309 -0.7035
  566MOL0     H76349  10.731  10.319   4.623 -1.6919  0.7123  1.7827
  566MOL0     H76350  10.876  10.231   4.629 -0.4260  0.3023  0.3401
  566MOL0     H76351  10.794  10.473   4.799 -0.0320  0.9781 -0.7993
  566MOL0     H76352  10.966  10.407   4.790 -0.7719 -3.2604  0.3198
  566MOL0     H76353  10.968  10.469   4.530  0.7379  4.5736 -1.8223
  566MOL0     H76354  10.810  10.528   4.555 -0.0390  0.4691  1.4079
  566MOL0     H76355  10.941  10.737   4.581 -1.9337  1.0115  0.3249
  566MOL0     H76356  10.897  10.679   4.745  0.0045  0.6564  0.1810
  566MOL0     H76357  11.157  10.593   4.631 -1.6189 -2.3010  0.2476
  566MOL0     H76358  11.121  10.615   4.792 -0.8859 -0.9103  0.5595
  566MOL0     H76359  11.140  10.828   4.571  2.0290 -1.2515 -0.5405
  566MOL0     H76360  11.093  10.865   4.747  0.6211  0.6492  1.2624
  566MOL0     H76361  11.400  10.743   4.548  1.1049  1.1333 -1.4703
  566MOL0     H76362  11.627  10.618   4.675  2.0967 -0.9187  1.2013
  566MOL0     H76363  11.657  10.767   4.606  2.8393 -0.7067  0.4464
  566MOL0     H76364  11.725  10.714   4.896 -0.8962 -0.8756 -0.5148
  566MOL0     H76365  11.840  10.716   4.765  0.2255  0.7420  0.0147
  566MOL0     H76366  11.660  10.962   4.823  1.8378  1.3705  1.5460
  566MOL0     H76367  11.785  10.950   4.719  0.0123 -2.1202 -0.1396
  566MOL0     H76368  11.827  10.938   5.019 -1.5291  0.8268 -0.7609
  566MOL0     H76369  11.855  11.070   4.911 -1.1262 -0.5798 -1.0474
  566MOL0     H76370  11.993  10.981   5.152  0.4377 -3.7399 -1.2917
  566MOL0     H76371  12.187  11.097   5.259  0.3582  0.2308 -0.1663
  566MOL0     H76372  12.783  11.091   4.973 -0.8044 -1.6768  0.4535
  566MOL0     H76373  13.002  11.182   5.038 -1.7163 -0.4179 -0.9407
  566MOL0     H76374  13.148  11.343   5.119  1.0436  1.2419  0.2704
  566MOL0     H76375  13.087  11.441   5.252  0.5167  1.1542 -1.5794
  566MOL0     H76376  13.316  11.447   5.262  0.0601 -0.7752 -1.3987
  566MOL0     H76377  13.265  11.362   5.406 -0.3311 -2.8612  0.6371
  566MOL0     H76378  13.305  11.141   5.250  1.6934 -1.1956  0.2716
  566MOL0     H76379  13.407  11.275   5.179 -3.0045  4.0948 -0.1336
  566MOL0     H76380  13.395  11.206   5.480  2.1136  1.7828  1.6432
  566MOL0     H76381  13.503  11.311   5.409 -1.7599 -0.0939  3.2782
  566MOL0     H76382  13.508  11.014   5.398  0.0710  0.1036  0.2098
  566MOL0     H76383  13.636  11.128   5.448  1.7498 -1.8176 -0.7397
  566MOL0     H76384  13.532  11.089   5.158 -1.2143  0.0891  1.4675
  566MOL0     H76385  13.669  11.202   5.215  2.4778 -1.0946  3.3175
  566MOL0     H76386  13.647  10.908   5.244 -0.8116 -0.6702 -2.3643
  566MOL0     H76387  13.805  10.996   5.284  2.3439 -4.3290 -2.9010
  566MOL0     H76388  13.837  11.048   5.054 -0.2245  0.2001 -1.6810
  566MOL0     H76389  13.822  10.871   5.078  1.3556  0.6902 -0.0729
  566MOL0     H76390  12.868  11.236   5.441 -0.0420 -2.1933  1.1595
  566MOL0     H76391  12.634  11.167   5.368  1.0947 -1.6610  2.0049
  566MOL0     H76392  12.406  11.072   4.875  0.9316  0.1806  0.9159
  566MOL0     H76393  12.204  10.979   4.792  0.1540  0.1764 -0.3512
  566MOL0     H76394  10.373  10.287   4.884  2.7043  1.1900  0.8488
  566MOL0     H76395  10.159  10.257   5.010 -1.9651 -1.2433  2.7410
  566MOL0     H76396   9.802   9.826   5.110  1.6447  0.1263  0.1620
  566MOL0     H76397   9.568   9.866   5.146  0.0055 -0.9118 -1.1742
  566MOL0     H76398   9.424  10.250   5.359  0.9418  0.2751 -3.2410
  566MOL0     H76399   9.423  10.122   5.472  0.1720  4.1628  1.0341
  566MOL0     H76400   9.221  10.184   5.262  1.2893 -2.6757 -2.0814
  566MOL0     H76401   9.206  10.223   5.437 -1.7121 -0.6970 -0.7854
  566MOL0     H76402   9.216   9.972   5.487 -0.8489  0.2576  0.3636
  566MOL0     H76403   9.166   9.938   5.317 -3.7836 -0.7755  0.4985
  566MOL0     H76404   9.024  10.094   5.540 -0.3526  0.4388 -0.9739
  566MOL0     H76405   8.973  10.102   5.372  2.2651  2.2503 -0.5839
  566MOL0     H76406   8.862   9.713   5.558 -1.3979  0.7646  1.0963
  566MOL0     H76407   9.647  10.208   5.379  0.0576 -1.6861  3.2873
  566MOL0     H76408   9.848  10.332   5.339 -0.4249 -0.8246  3.2123
  566MOL0     H76409   9.940  10.217   5.418 -1.0111  0.2310 -0.5961
  566MOL0     H76410   9.981  10.273   5.248  2.6421 -1.2429  1.6735
  567MOL0     O76411  10.805   3.088   3.467  0.6280  0.7973  0.2898
  567MOL0     C76412  10.777   2.988   3.530 -0.5828  0.2460 -0.6875
  567MOL0     O76413  10.849   2.942   3.636  0.5133 -0.2086 -0.4042
  567MOL0     C76414  10.959   3.008   3.686  0.7993  0.6428 -0.2985
  567MOL0     C76415  11.052   3.071   3.610 -0.5935 -0.3597 -0.2361
  567MOL0     C76416  11.168   3.132   3.676  0.1774 -0.2935  0.4234
  567MOL0     C76417  11.188   3.134   3.814  0.1156  0.0066 -0.2739
  567MOL0     O76418  11.298   3.198   3.864  0.2047  0.0189  0.0877
  567MOL0     C76419  11.348   3.168   3.999 -0.3028 -0.0756  1.0881
  567MOL0     C76420  11.483   3.232   4.024 -0.3058 -0.2733 -0.2168
  567MOL0     C76421  11.534   3.200   4.157  0.2403 -0.1952  0.4617
  567MOL0     C76422  11.685   3.206   4.177  0.8930 -0.1143 -0.0084
  567MOL0     C76423  11.718   3.136   4.317  0.3953  0.0736  0.1110
  567MOL0     C76424  11.702   2.984   4.319 -0.7133 -0.4038 -0.8295
  567MOL0     C76425  11.745   2.941   4.458  0.0492 -0.2371 -0.5404
  567MOL0     C76426  11.893   2.978   4.496 -0.4143 -0.4133  0.5412
  567MOL0     N76427  11.988   2.918   4.402  0.2405 -0.4388 -0.1005
  567MOL0     C76428  12.112   2.972   4.371  0.3212 -0.5366  0.3298
  567MOL0     C76429  12.182   2.873   4.332 -0.0345 -0.0514  0.8860
  567MOL0     C76430  12.326   2.872   4.298  0.1260  0.4211  0.9822
  567MOL0     C76431  12.382   2.723   4.309  0.0063 -0.5823  1.1726
  567MOL0     C76432  12.531   2.716   4.259  0.0678 -0.9001 -0.2050
  567MOL0     C76433  12.592   2.578   4.260  0.1913 -0.0983  0.3887
  567MOL0     O76434  12.652   2.550   4.390  0.4033 -0.6901 -0.3355
  567MOL0     C76435  12.782   2.567   4.411 -0.4442 -0.5357  0.2540
  567MOL0     C76436  12.871   2.647   4.335  0.4794 -0.5003  0.4921
  567MOL0     C76437  13.011   2.632   4.354 -0.3132  0.4329  0.8923
  567MOL0     C76438  13.064   2.565   4.471  0.8591  0.4172  0.1625
  567MOL0     C76439  13.212   2.555   4.491  0.5337 -0.1533  0.3254
  567MOL0     O76440  13.256   2.480   4.603 -0.3526 -0.5542  0.2186
  567MOL0     C76441  13.388   2.489   4.646  0.8234  0.0043 -0.0701
  567MOL0     C76442  13.502   2.494   4.566  0.1683  0.2531 -0.1588
  567MOL0     C76443  13.633   2.486   4.618 -0.3719 -0.1534 -0.1087
  567MOL0     C76444  13.652   2.474   4.756  0.3887  0.1593 -0.1064
  567MOL0     O76445  13.766   2.477   4.829  0.0854  0.1496 -0.4328
  567MOL0     C76446  13.891   2.495   4.770 -0.1638  0.1062 -0.8265
  567MOL0     C76447  14.005   2.474   4.867 -0.1871 -0.0490  0.3523
  567MOL0     C76448  14.137   2.500   4.798 -0.6500  0.7443  0.6203
  567MOL0     C76449  14.206   2.632   4.834 -0.2223  0.2229 -0.7397
  567MOL0     C76450  14.360   2.638   4.797  0.2023 -0.3353  0.4519
  567MOL0     C76451  14.447   2.541   4.885 -0.0705  0.0199  0.1846
  567MOL0     C76452  14.596   2.576   4.914  0.1018 -0.2762  0.3350
  567MOL0     C76453  14.673   2.463   4.979 -0.7122 -0.0849 -0.9633
  567MOL0    Cl76454  14.646   2.465   5.152 -0.1077 -0.0571 -0.1793
  567MOL0     C76455  13.538   2.462   4.837  0.0221 -0.5342  0.4768
  567MOL0     C76456  13.408   2.478   4.780  0.5210  0.1742 -0.3017
  567MOL0     O76457  13.284   2.613   4.407  0.4591 -1.0999  0.2594
  567MOL0     C76458  12.971   2.503   4.551  0.3512  0.0290 -0.2934
  567MOL0     C76459  12.835   2.509   4.527  0.0070  0.6114 -0.0357
  567MOL0     N76460  12.104   2.763   4.354  0.2011 -0.7432  0.3151
  567MOL0     N76461  11.989   2.785   4.395 -0.3506 -0.5559  0.1937
  567MOL0     C76462  11.089   3.061   3.889 -0.4954 -0.4784  0.2847
  567MOL0     C76463  10.974   3.001   3.825  0.2781  0.9840  0.4043
  567MOL0     C76464  10.650   2.926   3.496  0.1233  0.5198 -0.1856
  567MOL0     C76465  10.588   2.844   3.599 -0.6237 -0.1977  0.1851
  567MOL0     C76466  10.468   2.784   3.578  0.4180 -0.1702 -1.0383
  567MOL0     C76467  10.402   2.806   3.453  1.0446 -0.1954  0.5794
  567MOL0     O76468  10.286   2.734   3.440 -0.4860 -0.3850  0.3719
  567MOL0     C76469  10.234   2.722   3.306 -0.0428 -0.4232  0.3905
  567MOL0     C76470  10.117   2.624   3.305  0.5820  1.3016  0.1718
  567MOL0     C76471  10.001   2.663   3.405  0.3466 -0.1151  0.8334
  567MOL0     C76472   9.867   2.575   3.401  0.8296  0.3374  0.2848
  567MOL0     C76473   9.799   2.597   3.276  0.1319  0.6564 -0.0043
  567MOL0     C76474   9.747   2.605   3.169  0.4799  0.0354  0.4874
  567MOL0     C76475  10.466   2.878   3.348 -0.2919  0.8938  0.7526
  567MOL0     C76476  10.589   2.942   3.364  0.1638 -0.7033 -0.3882
  567MOL0     C76477  10.635   3.018   3.250  0.1734 -0.5517  0.1019
  567MOL0     H76478  11.049   3.054   3.503  4.0833 -0.2069 -0.6045
  567MOL0     H76479  11.238   3.188   3.615 -1.2208 -1.0174 -1.9592
  567MOL0     H76480  11.284   3.202   4.082  3.5529  2.3308  3.3966
  567MOL0     H76481  11.367   3.062   4.013  0.9814  0.0071  0.1463
  567MOL0     H76482  11.480   3.341   4.013  0.8048 -0.3569 -1.6084
  567MOL0     H76483  11.554   3.182   3.957  0.3093  1.9530 -1.3303
  567MOL0     H76484  11.505   3.095   4.174 -0.9150 -0.0174 -0.2851
  567MOL0     H76485  11.478   3.260   4.229 -0.7126  0.4344 -0.7831
  567MOL0     H76486  11.724   3.137   4.102  0.3417 -0.1137 -0.3022
  567MOL0     H76487  11.719   3.310   4.171  2.5497 -0.6945 -2.1725
  567MOL0     H76488  11.825   3.149   4.334  0.6014 -0.8271 -0.4377
  567MOL0     H76489  11.665   3.186   4.398  0.5228 -0.3601  0.4684
  567MOL0     H76490  11.604   2.948   4.286 -0.1796 -1.2566 -1.5211
  567MOL0     H76491  11.760   2.932   4.243 -3.1684 -1.1893 -2.2731
  567MOL0     H76492  11.719   2.834   4.459 -0.0109 -0.2461 -1.5847
  567MOL0     H76493  11.690   2.997   4.534  0.6383 -1.0119  0.4863
  567MOL0     H76494  11.913   3.086   4.495  2.2402 -0.8504  0.8010
  567MOL0     H76495  11.910   2.949   4.600 -0.5943 -0.9502  0.4210
  567MOL0     H76496  12.149   3.074   4.370 -0.3760 -0.2634 -1.3074
  567MOL0     H76497  12.338   2.903   4.194 -1.6067  4.3957  1.7489
  567MOL0     H76498  12.377   2.937   4.370 -0.1288 -1.7819  3.2941
  567MOL0     H76499  12.375   2.694   4.414  0.9289  0.3272  1.4978
  567MOL0     H76500  12.318   2.662   4.245 -3.1677  2.1768  1.4423
  567MOL0     H76501  12.602   2.779   4.313  1.8731 -1.7870 -1.4458
  567MOL0     H76502  12.530   2.754   4.156 -0.5487  0.8594  0.4054
  567MOL0     H76503  12.666   2.557   4.183 -2.5274 -2.3672 -1.8764
  567MOL0     H76504  12.517   2.499   4.244  0.2886  0.1183 -1.3428
  567MOL0     H76505  12.824   2.701   4.253 -0.3856 -0.6443  0.8880
  567MOL0     H76506  13.077   2.670   4.276 -0.8546 -1.7509 -0.7111
  567MOL0     H76507  13.492   2.501   4.459 -1.4887  1.9644  0.0511
  567MOL0     H76508  13.721   2.482   4.554  1.3160 -2.1759  2.1712
  567MOL0     H76509  13.898   2.419   4.691  1.2036 -0.5886 -0.0752
  567MOL0     H76510  13.901   2.596   4.729  0.3100  0.3932 -0.0327
  567MOL0     H76511  13.982   2.542   4.949  1.5561  0.5807  0.3598
  567MOL0     H76512  14.004   2.370   4.902  1.2230 -0.9334 -1.9814
  567MOL0     H76513  14.207   2.416   4.812  1.1697  1.8437 -1.3592
  567MOL0     H76514  14.116   2.489   4.692 -0.9946  0.8113  0.6790
  567MOL0     H76515  14.193   2.661   4.939 -0.4311  2.3180 -1.2963
  567MOL0     H76516  14.150   2.715   4.791  2.5954  1.8542 -1.4594
  567MOL0     H76517  14.397   2.740   4.815 -0.9958 -0.2208  2.5773
  567MOL0     H76518  14.367   2.614   4.691  1.9654  2.1884 -0.1004
  567MOL0     H76519  14.408   2.523   4.986  1.0401 -2.4028  0.2621
  567MOL0     H76520  14.448   2.446   4.831 -0.7708  0.6208 -0.9053
  567MOL0     H76521  14.594   2.667   4.975 -0.6200 -1.4400  2.1431
  567MOL0     H76522  14.646   2.604   4.821 -2.7394 -0.6157 -1.4377
  567MOL0     H76523  14.636   2.367   4.942 -3.0428  0.8411 -1.1573
  567MOL0     H76524  14.780   2.485   4.968 -0.7033 -0.5444 -1.8486
  567MOL0     H76525  13.547   2.451   4.945 -0.1451  1.1477  0.6760
  567MOL0     H76526  13.324   2.469   4.847 -0.1246 -1.3236 -1.2505
  567MOL0     H76527  13.017   2.455   4.636 -1.3957 -0.5212  0.3817
  567MOL0     H76528  12.767   2.473   4.604 -0.9033 -1.9731 -1.9084
  567MOL0     H76529  11.101   3.072   3.996 -2.4641  0.9359  0.4032
  567MOL0     H76530  10.895   2.960   3.888  2.0850 -1.6811  1.0979
  567MOL0     H76531  10.637   2.845   3.695  0.4639  0.5706 -0.3564
  567MOL0     H76532  10.414   2.725   3.651  1.3790  0.4205  0.1778
  567MOL0     H76533  10.316   2.686   3.243 -0.8508 -2.8836  0.6359
  567MOL0     H76534  10.200   2.817   3.263  1.0320 -0.4480 -0.5462
  567MOL0     H76535  10.161   2.527   3.328  1.3915  2.3997  3.8956
  567MOL0     H76536  10.075   2.626   3.203  3.0955  2.5355 -0.9274
  567MOL0     H76537   9.978   2.767   3.381 -1.0034 -0.5204  0.2638
  567MOL0     H76538  10.038   2.680   3.506  1.5707  2.2837  0.0501
  567MOL0     H76539   9.888   2.469   3.415  1.2321  0.5667  1.6417
  567MOL0     H76540   9.799   2.610   3.479 -0.8624  4.2450 -2.6253
  567MOL0     H76541   9.690   2.602   3.079  1.1880 -2.3740  0.0452
  567MOL0     H76542  10.419   2.884   3.250  0.2546  2.5055  0.5456
  567MOL0     H76543  10.740   2.994   3.231  0.8210  1.1094  1.3402
  567MOL0     H76544  10.580   2.998   3.158 -2.4888  0.3353  1.3883
  567MOL0     H76545  10.635   3.125   3.271  0.3825 -0.5341  0.0173
  568MOL0     O76546   8.696  10.715   0.438  0.5081 -0.6003 -0.7017
  568MOL0     C76547   8.655  10.777   0.534  0.0603 -0.1903  0.2760
  568MOL0     O76548   8.733  10.810   0.637  0.5793 -0.7110 -0.6083
  568MOL0     C76549   8.865  10.770   0.624  0.5942 -0.3552  0.1095
  568MOL0     C76550   8.913  10.639   0.644 -0.1623 -0.5243  0.3153
  568MOL0     C76551   9.048  10.609   0.632 -0.3934 -0.0192  0.6769
  568MOL0     C76552   9.142  10.715   0.607  0.5292  0.5351  1.0336
  568MOL0     O76553   9.270  10.691   0.592 -0.2076  0.8552 -0.3680
  568MOL0     C76554   9.322  10.557   0.556 -0.3616  0.1220 -0.1268
  568MOL0     C76555   9.471  10.566   0.514  0.8215 -0.1662  0.3593
  568MOL0     C76556   9.540  10.435   0.545  0.5591  0.3463  0.5065
  568MOL0     C76557   9.681  10.439   0.497 -1.1927 -0.5223 -0.2038
  568MOL0     C76558   9.745  10.298   0.483  0.3431  0.0399  0.1863
  568MOL0     C76559   9.896  10.300   0.492  0.0428  0.5528 -0.4217
  568MOL0     C76560   9.938  10.152   0.475 -1.0051 -0.4988  0.0890
  568MOL0     C76561  10.090  10.140   0.465  0.4524 -0.8241  0.1912
  568MOL0     N76562  10.141  10.137   0.606 -0.0361 -0.1110 -0.1355
  568MOL0     C76563  10.142  10.027   0.688  0.2446  0.2607 -0.1944
  568MOL0     C76564  10.159  10.070   0.812  0.6510  0.3711 -0.1592
  568MOL0     C76565  10.189   9.976   0.925  1.0175 -0.6473 -0.5552
  568MOL0     C76566  10.336   9.940   0.928 -0.0984 -0.0412  0.1588
  568MOL0     C76567  10.427  10.061   0.948  0.2663  0.3123 -0.1972
  568MOL0     C76568  10.571  10.026   0.998  0.3322 -0.8446  0.3249
  568MOL0     O76569  10.651   9.960   0.900  0.6681 -0.2210 -0.1582
  568MOL0     C76570  10.775   9.943   0.949 -0.5954  0.4677  0.6772
  568MOL0     C76571  10.845   9.837   0.892  0.4580 -0.0678  0.3398
  568MOL0     C76572  10.980   9.800   0.925  0.8800 -0.4288  0.6657
  568MOL0     C76573  11.049   9.873   1.013  0.3482  0.0157  0.1590
  568MOL0     C76574  11.197   9.873   1.041  0.0589 -0.2184  0.3451
  568MOL0     O76575  11.249   9.976   1.103  0.2625  0.2514  0.1020
  568MOL0     C76576  11.383   9.961   1.143  0.5779 -0.5789  0.7524
  568MOL0     C76577  11.479   9.963   1.048  0.0973 -1.3125  0.1792
  568MOL0     C76578  11.609   9.938   1.078 -1.5500 -0.5817 -0.4867
  568MOL0     C76579  11.650   9.913   1.215 -1.0090  0.4345 -0.0896
  568MOL0     O76580  11.784   9.907   1.237  0.5276 -0.4618  0.3021
  568MOL0     C76581  11.838   9.987   1.346 -1.0274  0.3691  0.1974
  568MOL0     C76582  11.878  10.127   1.306  0.7807 -0.1715 -0.3517
  568MOL0     C76583  11.982  10.195   1.389  0.5674  0.6230 -0.1772
  568MOL0     C76584  12.033  10.320   1.313  0.2407  1.2338 -0.9827
  568MOL0     C76585  12.151  10.401   1.374  0.4501  0.0686 -0.4747
  568MOL0     C76586  12.211  10.502   1.280 -0.0936 -0.4064 -0.4024
  568MOL0     C76587  12.324  10.577   1.355 -0.2526  0.2852  0.5442
  568MOL0     C76588  12.408  10.653   1.247  0.7997  0.2271 -0.0754
  568MOL0    Cl76589  12.516  10.751   1.344  0.4449  0.0389 -0.1125
  568MOL0     C76590  11.547   9.934   1.309 -0.4244 -0.2004  0.2574
  568MOL0     C76591  11.412   9.943   1.275  0.5245  0.2537  0.3726
  568MOL0     O76592  11.258   9.767   1.018 -0.0608 -0.3538  0.9174
  568MOL0     C76593  10.973   9.970   1.085 -0.0921 -0.3007  0.7246
  568MOL0     C76594  10.840  10.008   1.054 -0.0455 -0.1770  0.2892
  568MOL0     N76595  10.164  10.202   0.810 -0.3638  0.2433  0.0571
  568MOL0     N76596  10.157  10.247   0.685 -0.5812 -0.1083 -0.3444
  568MOL0     C76597   9.096  10.849   0.593  0.3441 -0.3897  0.3076
  568MOL0     C76598   8.952  10.875   0.603  0.2925 -0.1817 -0.1497
  568MOL0     C76599   8.510  10.802   0.547  0.3083 -0.7342  0.9263
  568MOL0     C76600   8.457  10.791   0.674  0.5693 -0.2703  1.2443
  568MOL0     C76601   8.319  10.779   0.686 -0.1677  1.0657 -0.6111
  568MOL0     C76602   8.229  10.806   0.584 -0.0366 -0.4281  0.0018
  568MOL0     O76603   8.095  10.796   0.607 -0.6265 -0.1230 -0.0550
  568MOL0     C76604   7.993  10.818   0.504 -0.2747 -0.3926 -0.3413
  568MOL0     C76605   7.863  10.747   0.526 -0.5364  0.2452 -1.4750
  568MOL0     C76606   7.756  10.778   0.422 -0.2185 -0.2530  0.3640
  568MOL0     C76607   7.622  10.704   0.444 -0.8181 -0.0601 -0.0028
  568MOL0     C76608   7.614  10.564   0.402  0.5795  0.2703  1.3289
  568MOL0     C76609   7.602  10.454   0.348  0.5647  0.0934  0.1150
  568MOL0     C76610   8.284  10.845   0.463 -1.0778 -0.0484 -0.4691
  568MOL0     C76611   8.423  10.841   0.439  0.1988  0.0091  0.0391
  568MOL0     C76612   8.467  10.863   0.294 -0.0430  0.4315  1.2337
  568MOL0     H76613   8.837  10.567   0.673 -0.1399 -1.1956 -1.1938
  568MOL0     H76614   9.086  10.509   0.651 -1.8834 -0.8326 -0.3826
  568MOL0     H76615   9.311  10.490   0.642 -2.9352  0.4601 -0.0944
  568MOL0     H76616   9.262  10.514   0.475 -1.1755  2.1944 -0.6839
  568MOL0     H76617   9.520  10.650   0.564  2.9893 -1.1121 -0.0484
  568MOL0     H76618   9.466  10.579   0.405 -1.5846  1.4431  0.5948
  568MOL0     H76619   9.487  10.358   0.488  2.1115 -0.5304  0.1848
  568MOL0     H76620   9.536  10.419   0.653  0.7576 -1.1216  0.3148
  568MOL0     H76621   9.682  10.487   0.399 -0.9154 -0.0908  0.0109
  568MOL0     H76622   9.740  10.500   0.566 -1.5107 -0.2742 -0.1491
  568MOL0     H76623   9.703  10.239   0.565 -3.3646  2.4767  0.2859
  568MOL0     H76624   9.708  10.260   0.387 -3.0313 -0.8532  1.7075
  568MOL0     H76625   9.944  10.360   0.414  1.6204  0.4280  0.4159
  568MOL0     H76626   9.935  10.340   0.586  0.8964 -1.0118 -0.0729
  568MOL0     H76627   9.899  10.126   0.376 -1.2314  0.8645 -0.2025
  568MOL0     H76628   9.898  10.088   0.553 -1.4204 -0.4859 -0.1110
  568MOL0     H76629  10.115  10.040   0.429  0.2122 -0.7527 -0.1818
  568MOL0     H76630  10.135  10.217   0.401 -2.3805  2.7498  2.1332
  568MOL0     H76631  10.131   9.928   0.645 -2.1432  0.2122  0.4149
  568MOL0     H76632  10.164  10.027   1.018  0.4118  0.9068 -1.5328
  568MOL0     H76633  10.128   9.889   0.897 -0.3472  1.3549 -4.5671
  568MOL0     H76634  10.357   9.877   1.015  0.9946 -0.0420 -0.0836
  568MOL0     H76635  10.357   9.880   0.839 -1.0883 -1.0223  0.5636
  568MOL0     H76636  10.386  10.114   1.035  0.5057 -1.5544  1.1119
  568MOL0     H76637  10.422  10.125   0.859 -2.3925 -0.7731 -0.9251
  568MOL0     H76638  10.562   9.968   1.090 -3.2595  1.1408  1.4461
  568MOL0     H76639  10.619  10.121   1.026  0.9470 -1.3138  0.8781
  568MOL0     H76640  10.801   9.795   0.802  4.0404 -2.6171 -0.4583
  568MOL0     H76641  11.036   9.727   0.867  3.2656  2.3245 -0.7908
  568MOL0     H76642  11.449   9.992   0.948  1.5821  1.9371  0.5378
  568MOL0     H76643  11.686   9.949   1.002  0.3752 -0.3379  1.3894
  568MOL0     H76644  11.764   9.995   1.426 -2.5708  1.4215 -1.2708
  568MOL0     H76645  11.929   9.936   1.381 -0.2420 -0.9529 -3.2593
  568MOL0     H76646  11.919  10.114   1.206  2.2188  1.5137 -0.0356
  568MOL0     H76647  11.780  10.174   1.297  0.4695 -0.8836 -0.7515
  568MOL0     H76648  11.942  10.218   1.488  1.3752  0.2392  0.2464
  568MOL0     H76649  12.064  10.131   1.422  1.6999  1.8455 -0.5044
  568MOL0     H76650  11.955  10.390   1.281  0.4192  1.9020  0.0112
  568MOL0     H76651  12.067  10.278   1.217 -2.6506 -2.3150 -0.6908
  568MOL0     H76652  12.221  10.324   1.408  0.0860 -0.4815 -0.9405
  568MOL0     H76653  12.111  10.458   1.458 -0.3639 -1.1641 -0.0015
  568MOL0     H76654  12.258  10.447   1.199  1.5709  1.4666 -0.8039
  568MOL0     H76655  12.150  10.582   1.238 -0.6184  0.1417  1.3133
  568MOL0     H76656  12.386  10.503   1.407 -1.6702 -1.9934 -0.8643
  568MOL0     H76657  12.279  10.647   1.426 -2.1696  1.1127 -1.3881
  568MOL0     H76658  12.466  10.583   1.186  1.7988  1.4027 -0.5266
  568MOL0     H76659  12.340  10.712   1.184 -1.9444  0.1721  2.5993
  568MOL0     H76660  11.577   9.927   1.413  0.8409 -0.8697 -0.1328
  568MOL0     H76661  11.333   9.945   1.349  0.6838  2.6871  0.5571
  568MOL0     H76662  11.031  10.034   1.151  0.4084  0.9489 -0.8742
  568MOL0     H76663  10.795  10.083   1.118 -0.8969 -0.4552  0.0312
  568MOL0     H76664   9.159  10.936   0.578  1.9394 -1.6650 -0.9057
  568MOL0     H76665   8.907  10.972   0.585 -3.8512 -0.8471  4.4288
  568MOL0     H76666   8.531  10.778   0.753 -0.3184  2.8704  2.7957
  568MOL0     H76667   8.278  10.758   0.785  0.6410  1.8625 -0.0842
  568MOL0     H76668   8.032  10.770   0.414 -1.0814  0.3593 -1.1181
  568MOL0     H76669   7.987  10.925   0.482  5.3151 -0.2042 -2.5553
  568MOL0     H76670   7.832  10.786   0.623  0.0580  0.5473 -1.4013
  568MOL0     H76671   7.884  10.640   0.532  0.5119  0.4953  0.0135
  568MOL0     H76672   7.794  10.758   0.321  1.0622  2.6092  0.1958
  568MOL0     H76673   7.730  10.884   0.417  0.0776 -0.2183 -2.5159
  568MOL0     H76674   7.603  10.705   0.552  0.3289  0.8890  0.2090
  568MOL0     H76675   7.545  10.762   0.393 -0.6102 -0.2050 -0.4859
  568MOL0     H76676   7.607  10.354   0.311 -1.4372  0.4806 -1.3884
  568MOL0     H76677   8.218  10.868   0.380 -2.7421  0.3849  0.9066
  568MOL0     H76678   8.477  10.768   0.241  1.6972  0.8479  0.7303
  568MOL0     H76679   8.391  10.911   0.232 -3.2881 -4.3779  0.9343
  568MOL0     H76680   8.558  10.924   0.301  0.2143  0.0312  1.4725
  569MOL0     O76681   4.545   6.486   1.116  0.1179 -0.0823 -0.6517
  569MOL0     C76682   4.617   6.468   1.215 -0.5464 -0.2890 -0.0149
  569MOL0     O76683   4.702   6.564   1.264  0.3890 -0.0251 -0.2516
  569MOL0     C76684   4.714   6.690   1.208 -0.2460 -0.3097 -0.4522
  569MOL0     C76685   4.752   6.790   1.302 -0.3236  0.0010 -0.4129
  569MOL0     C76686   4.772   6.924   1.266 -0.2658  0.6259  0.4636
  569MOL0     C76687   4.760   6.951   1.131  0.0103  0.2528 -0.7117
  569MOL0     O76688   4.792   7.085   1.115  0.2335  0.3629  0.0254
  569MOL0     C76689   4.906   7.108   1.031  0.2982 -0.6841 -0.6585
  569MOL0     C76690   4.879   7.238   0.958  0.4923 -0.6188  0.0259
  569MOL0     C76691   4.753   7.221   0.871  0.5677 -0.6561  0.0423
  569MOL0     C76692   4.728   7.351   0.793 -0.0708 -0.4399  0.4953
  569MOL0     C76693   4.616   7.347   0.688 -0.2579  0.2367  0.0419
  569MOL0     C76694   4.482   7.342   0.744  0.2112  0.2088  0.7439
  569MOL0     C76695   4.380   7.387   0.637 -0.1675  0.4780  0.4144
  569MOL0     C76696   4.394   7.294   0.509  0.7506 -0.2614 -0.2855
  569MOL0     N76697   4.265   7.305   0.434 -0.0571  0.4616 -0.4316
  569MOL0     C76698   4.142   7.278   0.482 -0.4515 -0.1619  0.0453
  569MOL0     C76699   4.069   7.281   0.362 -0.8645  0.2433  0.0301
  569MOL0     C76700   3.931   7.251   0.345  0.5666 -0.5913 -0.3279
  569MOL0     C76701   3.826   7.332   0.431  1.1290 -1.2035  0.0828
  569MOL0     C76702   3.828   7.489   0.408  0.7086  0.3910 -0.1447
  569MOL0     C76703   3.755   7.577   0.508 -0.8336 -0.6097  0.5365
  569MOL0     O76704   3.821   7.569   0.630 -0.4277  0.0880  0.4542
  569MOL0     C76705   3.934   7.634   0.660  0.2604 -0.9586  0.7577
  569MOL0     C76706   4.006   7.731   0.588 -0.1407 -0.3710  0.9291
  569MOL0     C76707   4.124   7.790   0.637  0.1700 -0.3934 -0.0169
  569MOL0     C76708   4.181   7.739   0.752  0.5717 -0.3693  0.0001
  569MOL0     C76709   4.304   7.786   0.803 -0.4575  0.6346  0.6403
  569MOL0     O76710   4.366   7.710   0.901 -0.0472 -0.6473  0.3543
  569MOL0     C76711   4.505   7.722   0.929 -0.3977 -0.0716 -0.5721
  569MOL0     C76712   4.554   7.710   1.058  0.8841 -0.6336 -1.0445
  569MOL0     C76713   4.685   7.714   1.085  0.3307  0.0624  0.3863
  569MOL0     C76714   4.779   7.727   0.982 -0.4552  0.6809  0.3443
  569MOL0     O76715   4.920   7.722   1.012 -0.0664 -0.3079 -1.0242
  569MOL0     C76716   4.997   7.663   0.917 -0.1560 -0.0900 -0.3697
  569MOL0     C76717   5.114   7.601   0.977 -0.4049  1.3214 -0.2419
  569MOL0     C76718   5.182   7.507   0.873 -0.0612  0.1881  0.2214
  569MOL0     C76719   5.306   7.446   0.942 -0.0324  0.8628 -0.0884
  569MOL0     C76720   5.342   7.305   0.881  0.5948 -0.2492 -0.2690
  569MOL0     C76721   5.387   7.309   0.734  0.1334  0.3342 -0.3964
  569MOL0     C76722   5.456   7.178   0.708  0.0089 -0.3408 -0.1483
  569MOL0     C76723   5.552   7.183   0.584  0.3407  0.1660 -0.2591
  569MOL0    Cl76724   5.484   7.241   0.423 -0.1862 -0.6745  0.0707
  569MOL0     C76725   4.733   7.738   0.841  0.0466 -0.0843 -0.8727
  569MOL0     C76726   4.594   7.733   0.823 -0.0135  0.8724 -1.2265
  569MOL0     O76727   4.345   7.894   0.760  0.3234 -0.2557 -0.0483
  569MOL0     C76728   4.115   7.639   0.829  0.2909 -0.2345 -0.5303
  569MOL0     C76729   3.990   7.591   0.776  0.0279  0.5492  0.3214
  569MOL0     N76730   4.142   7.320   0.255 -0.5124 -0.1033 -0.1234
  569MOL0     N76731   4.262   7.331   0.295 -0.9737 -0.4527  0.2549
  569MOL0     C76732   4.723   6.857   1.030 -1.1819  0.1186  0.2962
  569MOL0     C76733   4.703   6.723   1.075  0.0023  0.1177  0.0554
  569MOL0     C76734   4.629   6.335   1.262  0.0202  0.3181 -0.4494
  569MOL0     C76735   4.746   6.317   1.337 -0.5108  0.1522 -0.2176
  569MOL0     C76736   4.774   6.185   1.390  1.1135 -0.2555 -1.5734
  569MOL0     C76737   4.681   6.079   1.367  0.3989 -0.0341 -0.0548
  569MOL0     O76738   4.683   5.950   1.422 -0.1107 -0.5331  0.1313
  569MOL0     C76739   4.800   5.913   1.498 -0.3153  0.1966  0.0579
  569MOL0     C76740   4.770   5.802   1.595  0.1042 -0.1470 -1.2076
  569MOL0     C76741   4.887   5.791   1.701  0.0156 -0.3745  0.3384
  569MOL0     C76742   4.853   5.696   1.815  0.5030  1.4233  0.3668
  569MOL0     C76743   4.827   5.557   1.770  0.3989 -0.6202 -0.1973
  569MOL0     C76744   4.810   5.438   1.745 -0.1851  0.1214 -0.7731
  569MOL0     C76745   4.560   6.102   1.295  0.1561  0.4623 -0.3050
  569MOL0     C76746   4.530   6.234   1.249  0.4064  0.2815  0.4921
  569MOL0     C76747   4.405   6.260   1.165 -0.2815  0.0234 -0.1630
  569MOL0     H76748   4.759   6.762   1.407  0.2243 -1.4244 -0.8106
  569MOL0     H76749   4.821   6.988   1.340  0.8306 -0.7397  0.9609
  569MOL0     H76750   4.989   7.131   1.097  0.8291 -2.0161 -0.8298
  569MOL0     H76751   4.936   7.019   0.974  1.2562 -1.9050  1.6171
  569MOL0     H76752   4.974   7.254   0.906  0.9639  0.3964  1.1615
  569MOL0     H76753   4.852   7.320   1.024  1.4346 -0.2934  0.0233
  569MOL0     H76754   4.660   7.217   0.928  0.1869  2.9142 -0.1173
  569MOL0     H76755   4.760   7.135   0.803  0.6185 -1.7350  1.3763
  569MOL0     H76756   4.709   7.438   0.857  1.5575  1.2787 -1.2164
  569MOL0     H76757   4.817   7.377   0.734 -1.5927  0.8972 -1.3724
  569MOL0     H76758   4.620   7.443   0.635  0.6741  1.1576  1.6951
  569MOL0     H76759   4.631   7.257   0.627 -1.4157 -0.6020  0.9576
  569MOL0     H76760   4.457   7.246   0.790 -0.2602 -1.4454 -2.5846
  569MOL0     H76761   4.485   7.424   0.816  2.2341  2.2595 -1.4549
  569MOL0     H76762   4.398   7.490   0.608  2.2968 -0.1997 -0.7005
  569MOL0     H76763   4.281   7.381   0.685  0.1369  1.0892  1.1459
  569MOL0     H76764   4.482   7.319   0.450  1.1349 -0.1844  0.3171
  569MOL0     H76765   4.410   7.194   0.551  0.0251 -1.0854 -1.8949
  569MOL0     H76766   4.111   7.255   0.584 -0.1540  0.4810  0.2879
  569MOL0     H76767   3.901   7.260   0.240 -1.7708 -0.9565  0.2348
  569MOL0     H76768   3.919   7.146   0.373  1.3229 -1.3719 -2.6628
  569MOL0     H76769   3.724   7.299   0.408  0.8588  0.3437 -1.0888
  569MOL0     H76770   3.847   7.311   0.536  0.3439 -0.6155  0.3644
  569MOL0     H76771   3.787   7.508   0.308 -2.5987 -1.5144  0.6710
  569MOL0     H76772   3.929   7.529   0.411  0.0792  1.9700  0.8237
  569MOL0     H76773   3.655   7.536   0.527 -1.8405  1.0451 -0.8751
  569MOL0     H76774   3.743   7.680   0.472  0.6091 -1.4577 -2.7039
  569MOL0     H76775   3.963   7.759   0.493  1.4777 -0.9381 -0.0106
  569MOL0     H76776   4.173   7.867   0.579 -0.1236 -0.5258 -0.4487
  569MOL0     H76777   4.478   7.697   1.134 -1.1460  0.1616 -2.8409
  569MOL0     H76778   4.727   7.699   1.183  1.8697  0.6298 -0.1505
  569MOL0     H76779   4.942   7.587   0.861 -0.4012 -1.1340  1.2012
  569MOL0     H76780   5.025   7.748   0.855 -0.2902 -0.1717 -0.5430
  569MOL0     H76781   5.183   7.682   1.001 -0.7254  2.0559 -1.7074
  569MOL0     H76782   5.094   7.542   1.067 -0.3203 -0.7916 -1.5574
  569MOL0     H76783   5.119   7.421   0.850  0.4084  0.6835 -3.5327
  569MOL0     H76784   5.212   7.561   0.782 -2.8401  1.9202  0.1839
  569MOL0     H76785   5.293   7.426   1.049 -1.3908 -0.7184 -0.5026
  569MOL0     H76786   5.385   7.521   0.930  0.3484  0.2551 -1.5768
  569MOL0     H76787   5.249   7.251   0.902  0.6160  0.5709  2.2659
  569MOL0     H76788   5.419   7.273   0.951  0.6869  2.1520  0.8336
  569MOL0     H76789   5.301   7.327   0.670  1.1815  1.3494 -1.5713
  569MOL0     H76790   5.454   7.396   0.730  1.2228 -0.4577 -0.0569
  569MOL0     H76791   5.379   7.104   0.681  0.3256 -0.4838 -0.6707
  569MOL0     H76792   5.502   7.141   0.800  0.4872 -0.2449 -0.3486
  569MOL0     H76793   5.631   7.251   0.616  1.6731 -1.3266 -0.2501
  569MOL0     H76794   5.580   7.079   0.563 -0.7212 -0.1496 -0.1787
  569MOL0     H76795   4.804   7.736   0.759  0.3776 -0.5223 -0.5863
  569MOL0     H76796   4.559   7.740   0.721  0.8198  1.9476 -1.4662
  569MOL0     H76797   4.148   7.614   0.929 -0.8267  0.9441  0.1768
  569MOL0     H76798   3.943   7.513   0.836  2.3197 -1.4855 -0.3705
  569MOL0     H76799   4.730   6.888   0.926  2.2239 -1.2784 -0.0309
  569MOL0     H76800   4.691   6.654   0.993  0.9171  2.3622 -2.1151
  569MOL0     H76801   4.829   6.386   1.351  3.0858 -2.8890 -4.0122
  569MOL0     H76802   4.859   6.186   1.458 -1.9098 -0.1600  2.6209
  569MOL0     H76803   4.838   5.995   1.560  1.5519 -0.4510 -0.1746
  569MOL0     H76804   4.885   5.874   1.442 -0.3205 -2.1421  1.5381
  569MOL0     H76805   4.750   5.706   1.546 -0.4348 -2.0491  2.3847
  569MOL0     H76806   4.677   5.824   1.649  1.1397 -0.7558  0.9411
  569MOL0     H76807   4.906   5.888   1.747  2.4969 -0.4113 -0.4736
  569MOL0     H76808   4.984   5.761   1.660 -0.0248 -3.1356  1.9998
  569MOL0     H76809   4.928   5.696   1.894  1.6884 -2.2032 -0.5665
  569MOL0     H76810   4.769   5.728   1.878  0.3355 -0.7028  1.3214
  569MOL0     H76811   4.799   5.333   1.724 -0.2999 -0.6674  2.6303
  569MOL0     H76812   4.496   6.016   1.278  1.2251 -0.8344  1.8698
  569MOL0     H76813   4.429   6.263   1.058  0.8321  2.2782  0.0865
  569MOL0     H76814   4.339   6.175   1.185  0.2094  0.1188  2.0499
  569MOL0     H76815   4.358   6.354   1.197  1.3126 -0.2180  3.3232
  570MOL0     O76816   7.544   0.501   6.842  0.3971  0.4273  0.0009
  570MOL0     C76817   7.437   0.443   6.860  0.3333  0.2724  0.7798
  570MOL0     O76818   7.422   0.303   6.862  0.4933 -0.5442  0.1249
  570MOL0     C76819   7.523   0.225   6.841  0.6117 -1.1227 -0.1070
  570MOL0     C76820   7.561   0.141   6.944 -0.6214 -0.9195  0.0718
  570MOL0     C76821   7.666   0.051   6.925 -0.0220  0.0854 -0.1392
  570MOL0     C76822   7.750   0.062   6.811 -0.5257 -0.6558  0.4832
  570MOL0     O76823   7.856  -0.016   6.807  0.0412  0.4275  0.2702
  570MOL0     C76824   7.972   0.050   6.750  0.0842 -0.1159 -0.5866
  570MOL0     C76825   8.098   0.003   6.825 -0.3132 -0.6073  0.3242
  570MOL0     C76826   8.221   0.092   6.797  0.5043  0.2265 -0.2443
  570MOL0     C76827   8.314   0.097   6.917 -1.2558 -0.2556 -0.2346
  570MOL0     C76828   8.435   0.195   6.887  0.5481  0.0718 -0.1806
  570MOL0     C76829   8.527   0.202   7.018 -0.9297  0.1515  0.4092
  570MOL0     C76830   8.674   0.222   6.993 -0.2668 -0.7636  0.0010
  570MOL0     C76831   8.709   0.345   6.905  0.1054  0.2274 -0.8489
  570MOL0     N76832   8.857   0.372   6.904 -0.5159  0.8616  0.3235
  570MOL0     C76833   8.945   0.423   6.995  0.1201  0.0962  0.0840
  570MOL0     C76834   9.065   0.416   6.928 -0.0775 -0.5465 -0.0943
  570MOL0     C76835   9.199   0.441   6.979  0.1133 -0.7941 -0.5247
  570MOL0     C76836   9.246   0.305   7.016  0.1784 -0.1144 -0.1337
  570MOL0     C76837   9.398   0.294   7.047 -0.1349 -0.0550  0.1324
  570MOL0     C76838   9.472   0.415   7.102 -0.0702  0.0798 -0.3044
  570MOL0     O76839   9.597   0.373   7.163  0.0811 -0.6744 -0.4216
  570MOL0     C76840   9.679   0.470   7.213 -0.0514  0.0421 -0.3166
  570MOL0     C76841   9.668   0.604   7.195  0.0218 -0.4153 -0.1405
  570MOL0     C76842   9.770   0.692   7.231  0.1020  0.0168  0.0413
  570MOL0     C76843   9.886   0.645   7.278 -0.6028  0.6953  0.0847
  570MOL0     C76844  10.002   0.730   7.303 -0.4015 -1.2509  0.0861
  570MOL0     O76845   9.987   0.862   7.295  0.9500 -0.1593 -0.0776
  570MOL0     C76846  10.085   0.953   7.264  0.0423 -0.3072 -0.2190
  570MOL0     C76847  10.202   0.965   7.345  0.6815 -0.4480 -0.4379
  570MOL0     C76848  10.291   1.075   7.324  0.7040  0.1219  0.2839
  570MOL0     C76849  10.263   1.166   7.220  0.3807  0.0879 -0.1944
  570MOL0     O76850  10.352   1.271   7.188  0.2520 -0.1472  0.2846
  570MOL0     C76851  10.468   1.286   7.270 -0.5688  0.9006  0.4710
  570MOL0     C76852  10.557   1.398   7.230  0.5338  0.4401 -0.3056
  570MOL0     C76853  10.660   1.420   7.340 -0.4326 -0.5589 -0.1708
  570MOL0     C76854  10.772   1.507   7.280 -0.6540 -0.1904  0.0591
  570MOL0     C76855  10.909   1.509   7.364 -0.0120 -1.0764 -0.8572
  570MOL0     C76856  11.019   1.535   7.269  0.3097  0.2474  0.4837
  570MOL0     C76857  11.153   1.513   7.324 -1.0119 -0.1745  0.2816
  570MOL0     C76858  11.269   1.550   7.222 -0.5897  0.3202  0.7854
  570MOL0    Cl76859  11.239   1.712   7.136 -0.1562  0.4545  0.4087
  570MOL0     C76860  10.143   1.159   7.150  0.1308 -0.7064  0.1893
  570MOL0     C76861  10.054   1.049   7.173  0.2029 -0.0370 -0.3976
  570MOL0     O76862  10.104   0.673   7.337 -0.9450  0.1587  0.6023
  570MOL0     C76863   9.892   0.505   7.309  0.7962  0.5726 -0.4024
  570MOL0     C76864   9.794   0.419   7.270  0.4673 -0.1944  0.7802
  570MOL0     N76865   9.044   0.354   6.808  0.6220  0.0855 -0.6450
  570MOL0     N76866   8.922   0.346   6.790 -1.1194  0.3150  0.1008
  570MOL0     C76867   7.713   0.146   6.704 -0.3933  0.1409  0.3773
  570MOL0     C76868   7.593   0.221   6.716  0.2428 -0.0145  1.1020
  570MOL0     C76869   7.317   0.522   6.833  0.5140 -0.0807 -0.1237
  570MOL0     C76870   7.295   0.586   6.711 -0.5222  0.6006 -0.0233
  570MOL0     C76871   7.177   0.650   6.685  0.7918 -0.3028  0.6340
  570MOL0     C76872   7.076   0.651   6.780 -0.1568 -0.1724  0.1681
  570MOL0     O76873   6.956   0.712   6.756  1.0669  0.1334  0.5530
  570MOL0     C76874   6.924   0.785   6.642 -0.6466 -0.2154  0.3371
  570MOL0     C76875   6.774   0.824   6.639  0.8236  0.1610  0.0946
  570MOL0     C76876   6.679   0.707   6.667 -0.1334 -0.5517 -0.1188
  570MOL0     C76877   6.534   0.733   6.641  0.7597  0.2998  0.0038
  570MOL0     C76878   6.520   0.758   6.496 -0.9974  0.6731 -0.2455
  570MOL0     C76879   6.518   0.787   6.375 -0.6388  0.4088 -0.1994
  570MOL0     C76880   7.088   0.589   6.900 -0.0882 -0.6185 -0.4716
  570MOL0     C76881   7.209   0.519   6.930 -1.2095 -0.8703 -0.0283
  570MOL0     C76882   7.228   0.461   7.066 -0.8443 -0.4173 -0.1262
  570MOL0     H76883   7.515   0.148   7.042 -1.8515  2.4377 -0.6081
  570MOL0     H76884   7.690  -0.025   6.998  3.9132  0.8179 -0.4651
  570MOL0     H76885   7.981   0.016   6.646 -0.9128 -1.4862 -0.2434
  570MOL0     H76886   7.973   0.158   6.767 -1.6115 -0.3647  1.4580
  570MOL0     H76887   8.127  -0.099   6.797  1.4640  0.1107 -0.6290
  570MOL0     H76888   8.087   0.006   6.934  1.3154  0.5449  0.4832
  570MOL0     H76889   8.188   0.196   6.788 -0.5882 -0.1709 -1.1529
  570MOL0     H76890   8.275   0.068   6.705 -0.1528 -0.3440 -0.4942
  570MOL0     H76891   8.274   0.150   7.004 -0.7684 -1.4092  0.7114
  570MOL0     H76892   8.348  -0.002   6.949  0.6618 -0.2997 -2.1739
  570MOL0     H76893   8.481   0.160   6.795 -1.9084  0.8145 -1.8003
  570MOL0     H76894   8.403   0.296   6.860  0.3344  0.1477  0.3436
  570MOL0     H76895   8.488   0.283   7.081 -0.6306 -0.3100  1.2013
  570MOL0     H76896   8.504   0.113   7.079  1.3565 -1.1168 -0.4777
  570MOL0     H76897   8.716   0.138   6.937  0.4268 -0.3637 -0.0920
  570MOL0     H76898   8.739   0.221   7.081 -0.8662  0.0409  0.4693
  570MOL0     H76899   8.664   0.328   6.807  0.0187  0.1234 -0.7909
  570MOL0     H76900   8.661   0.435   6.943  1.8660  1.2658 -0.9505
  570MOL0     H76901   8.935   0.462   7.096 -2.3119  1.9339 -0.7560
  570MOL0     H76902   9.249   0.496   6.899 -0.4414  0.8026  0.1709
  570MOL0     H76903   9.198   0.505   7.068  0.0434  1.6681 -2.1961
  570MOL0     H76904   9.196   0.264   7.104 -0.6884 -2.3364 -1.5732
  570MOL0     H76905   9.218   0.229   6.943 -0.9728 -2.0328  2.1686
  570MOL0     H76906   9.450   0.268   6.954 -0.6944 -2.6197  0.4527
  570MOL0     H76907   9.410   0.222   7.129 -0.7119  1.7190  1.8458
  570MOL0     H76908   9.408   0.468   7.173 -0.7747  0.9735 -1.5689
  570MOL0     H76909   9.495   0.486   7.022  0.7317  0.9469  0.6740
  570MOL0     H76910   9.578   0.642   7.146  1.0744 -0.2576 -2.0453
  570MOL0     H76911   9.756   0.800   7.228  1.8896  0.2974  0.8100
  570MOL0     H76912  10.226   0.902   7.430 -1.0129 -0.2984  0.1897
  570MOL0     H76913  10.377   1.075   7.389  2.3470  0.5102 -1.7745
  570MOL0     H76914  10.442   1.310   7.373  2.1096  1.6307  1.0721
  570MOL0     H76915  10.527   1.194   7.258  1.8794  2.6550 -3.0019
  570MOL0     H76916  10.600   1.388   7.130 -0.8509  1.5458 -1.0378
  570MOL0     H76917  10.492   1.486   7.231  1.1028  0.8712  0.7525
  570MOL0     H76918  10.627   1.464   7.434  2.0798  0.5158  0.2727
  570MOL0     H76919  10.712   1.329   7.373  2.1152  0.5433 -0.9745
  570MOL0     H76920  10.737   1.610   7.278  1.6207  0.6417 -1.2537
  570MOL0     H76921  10.795   1.474   7.179  0.2818  1.5382 -0.3285
  570MOL0     H76922  10.918   1.419   7.425 -0.3051  0.2825  1.2872
  570MOL0     H76923  10.903   1.586   7.442 -2.0028 -1.1788 -0.8672
  570MOL0     H76924  11.005   1.463   7.187 -0.9296  0.7612  0.2152
  570MOL0     H76925  11.007   1.635   7.227 -2.6090 -0.2919 -0.2409
  570MOL0     H76926  11.150   1.404   7.337 -0.3836 -0.3669 -1.0506
  570MOL0     H76927  11.160   1.563   7.421 -3.5069  1.6740 -0.3861
  570MOL0     H76928  11.365   1.558   7.274  0.6307 -1.0154 -1.1326
  570MOL0     H76929  11.298   1.463   7.162  0.9824  0.5777  1.1219
  570MOL0     H76930  10.131   1.247   7.088 -1.3646 -1.0812 -0.1026
  570MOL0     H76931   9.954   1.057   7.129  0.3198 -0.0866 -0.6776
  570MOL0     H76932   9.978   0.454   7.351  0.0497  0.3010  0.8619
  570MOL0     H76933   9.793   0.311   7.283 -1.3427 -0.1161  1.5900
  570MOL0     H76934   7.761   0.163   6.609 -1.1846  1.4744  0.1890
  570MOL0     H76935   7.556   0.277   6.631 -0.6383  0.6455  1.8935
  570MOL0     H76936   7.376   0.593   6.639 -0.1917  1.8176  0.4378
  570MOL0     H76937   7.161   0.696   6.588  1.9388 -2.1278 -0.4865
  570MOL0     H76938   6.945   0.725   6.552  1.9024  0.4356  0.4102
  570MOL0     H76939   6.984   0.876   6.635  1.5390 -1.6343 -0.7985
  570MOL0     H76940   6.744   0.872   6.546 -2.1482 -0.0525  0.8370
  570MOL0     H76941   6.765   0.907   6.710  1.8900  1.2207 -0.9772
  570MOL0     H76942   6.700   0.672   6.769  1.4709 -0.7956 -0.4918
  570MOL0     H76943   6.722   0.623   6.611  3.2808  0.9550 -0.0370
  570MOL0     H76944   6.472   0.648   6.670 -1.7637  1.7216 -0.9796
  570MOL0     H76945   6.507   0.821   6.700 -1.4804  0.7432 -1.5725
  570MOL0     H76946   6.494   0.822   6.277 -2.7493  1.2763  0.5736
  570MOL0     H76947   7.016   0.579   6.981  1.0402 -0.0347  0.6596
  570MOL0     H76948   7.318   0.505   7.108  0.9386 -1.4500 -2.5930
  570MOL0     H76949   7.151   0.497   7.134  2.2884  2.4278  2.2104
  570MOL0     H76950   7.222   0.352   7.057  2.1879 -0.5603 -1.5858
  571MOL0     O76951   5.639   0.536   9.459 -0.7157  0.7947 -0.6235
  571MOL0     C76952   5.612   0.461   9.555 -0.4773  0.4299  0.0524
  571MOL0     O76953   5.704   0.405   9.642  0.0202 -0.5630 -0.5437
  571MOL0     C76954   5.839   0.438   9.639  0.7665  0.4596 -0.7468
  571MOL0     C76955   5.930   0.343   9.583  0.0747  0.1878  0.1430
  571MOL0     C76956   6.066   0.357   9.615 -0.5037  0.0579 -0.1471
  571MOL0     C76957   6.103   0.469   9.681 -0.5975 -0.6007  0.1895
  571MOL0     O76958   6.240   0.490   9.697  0.6969 -0.1317 -0.8467
  571MOL0     C76959   6.297   0.621   9.683 -0.1622  0.4182 -0.0702
  571MOL0     C76960   6.450   0.615   9.700 -0.4951 -0.2544  0.1114
  571MOL0     C76961   6.506   0.531   9.574 -0.2032 -1.1388 -1.0836
  571MOL0     C76962   6.646   0.483   9.595  0.2214  0.2030 -0.7083
  571MOL0     C76963   6.663   0.383   9.707  0.4449 -0.3410  1.0806
  571MOL0     C76964   6.811   0.351   9.735  0.1161 -0.2450  0.4864
  571MOL0     C76965   6.846   0.256   9.854 -0.3920  0.5723  1.0282
  571MOL0     C76966   6.985   0.178   9.837 -0.5476 -0.6428 -0.0243
  571MOL0     N76967   7.105   0.259   9.790 -0.2010  0.1363 -0.1201
  571MOL0     C76968   7.127   0.391   9.828 -0.5603  0.7192  0.1340
  571MOL0     C76969   7.242   0.422   9.754 -0.1797 -0.7579 -0.0861
  571MOL0     C76970   7.326   0.549   9.768 -0.1243 -0.1948  0.0861
  571MOL0     C76971   7.471   0.509   9.798 -0.0101  0.5196  0.6972
  571MOL0     C76972   7.557   0.636   9.823  0.0209 -0.4438  0.2845
  571MOL0     C76973   7.701   0.583   9.841  0.0826 -0.0567 -1.1179
  571MOL0     O76974   7.803   0.676   9.852  0.2757 -0.3144 -0.9268
  571MOL0     C76975   7.857   0.741   9.742 -0.0765  0.1070  0.7750
  571MOL0     C76976   7.976   0.817   9.775 -0.0729 -0.2183  0.5729
  571MOL0     C76977   8.028   0.906   9.676 -0.2113 -0.2218  0.3559
  571MOL0     C76978   7.977   0.914   9.547  0.6025 -0.4014 -0.2378
  571MOL0     C76979   8.021   1.017   9.454 -0.3673  0.3067 -0.0958
  571MOL0     O76980   8.101   1.116   9.499 -0.3146 -0.3475 -0.0611
  571MOL0     C76981   8.160   1.206   9.415  0.6804  0.2331 -0.2552
  571MOL0     C76982   8.283   1.254   9.467 -0.0450  0.5002  0.8310
  571MOL0     C76983   8.366   1.329   9.382 -1.2551 -0.8094  1.1823
  571MOL0     C76984   8.339   1.350   9.246  0.8142 -0.0894  0.5044
  571MOL0     O76985   8.430   1.433   9.174 -0.3678 -0.2737 -0.3004
  571MOL0     C76986   8.392   1.490   9.046 -0.3838 -0.4200  0.3718
  571MOL0     C76987   8.507   1.570   9.002 -0.2513 -0.3367 -0.6476
  571MOL0     C76988   8.643   1.489   8.981 -0.4645 -0.5404  0.6908
  571MOL0     C76989   8.727   1.574   8.880 -0.0879 -0.0938 -0.1306
  571MOL0     C76990   8.880   1.574   8.905 -0.6499 -0.1196  0.4898
  571MOL0     C76991   8.920   1.642   9.034  0.1391 -0.2459 -0.0462
  571MOL0     C76992   9.079   1.662   9.039  0.0695 -0.1294  0.0592
  571MOL0     C76993   9.122   1.756   9.155  0.4795  0.3560  0.1758
  571MOL0    Cl76994   9.100   1.648   9.301 -0.0766 -0.3371  0.2884
  571MOL0     C76995   8.211   1.324   9.201 -0.1938 -0.0560  0.3824
  571MOL0     C76996   8.124   1.244   9.281  0.7081 -0.3017  0.5577
  571MOL0     O76997   8.001   0.994   9.333 -0.1045  0.1756 -0.2051
  571MOL0     C76998   7.871   0.819   9.515  0.3660 -0.0632  0.3029
  571MOL0     C76999   7.807   0.741   9.614 -0.2724  0.1151  0.0606
  571MOL0     N77000   7.281   0.318   9.678 -0.1055  0.4964  0.3575
  571MOL0     N77001   7.209   0.213   9.713 -0.2996  0.8545  0.0858
  571MOL0     C77002   6.011   0.572   9.727  0.0578  0.6950  0.4926
  571MOL0     C77003   5.879   0.549   9.711 -0.3754  0.1361 -0.0302
  571MOL0     C77004   5.467   0.446   9.587 -0.1617 -0.0145  0.0044
  571MOL0     C77005   5.373   0.522   9.507 -0.0149  0.0775  0.3407
  571MOL0     C77006   5.237   0.504   9.520  0.3139 -0.6342 -0.0901
  571MOL0     C77007   5.184   0.423   9.617 -0.5507 -0.0058 -1.0533
  571MOL0     O77008   5.056   0.377   9.648 -0.1767 -0.2275 -0.0087
  571MOL0     C77009   4.950   0.428   9.567  0.3036 -0.7283 -0.0504
  571MOL0     C77010   4.817   0.359   9.604 -0.7531 -0.2735 -0.2953
  571MOL0     C77011   4.717   0.373   9.487 -0.4818 -0.6591 -0.3424
  571MOL0     C77012   4.579   0.321   9.543 -0.5565  0.3327  0.6320
  571MOL0     C77013   4.502   0.293   9.423 -1.1843 -0.0866  0.0786
  571MOL0     C77014   4.432   0.262   9.322 -0.9884 -0.3415 -0.6900
  571MOL0     C77015   5.274   0.353   9.708 -0.2618  0.4368  1.1417
  571MOL0     C77016   5.415   0.369   9.695  1.7445 -0.4533  0.9899
  571MOL0     C77017   5.491   0.293   9.798 -0.0069  1.2297 -0.1551
  571MOL0     H77018   5.892   0.255   9.533 -1.0230  1.2884 -1.0325
  571MOL0     H77019   6.138   0.294   9.564 -1.4107  1.2751 -3.1867
  571MOL0     H77020   6.276   0.673   9.589  0.1414  2.2719  0.8391
  571MOL0     H77021   6.259   0.681   9.766  2.6912  0.5678  1.2781
  571MOL0     H77022   6.469   0.565   9.795  1.4833 -0.5989 -0.4187
  571MOL0     H77023   6.486   0.718   9.707 -0.3527 -0.4040  1.8941
  571MOL0     H77024   6.501   0.583   9.477 -1.1292  0.2603 -0.3187
  571MOL0     H77025   6.435   0.451   9.552 -1.0809 -0.0476 -2.3687
  571MOL0     H77026   6.680   0.443   9.499 -1.0506 -1.6312 -0.4343
  571MOL0     H77027   6.717   0.563   9.619  0.9982 -0.7569  0.2981
  571MOL0     H77028   6.621   0.428   9.797 -3.9415 -0.1459 -0.8278
  571MOL0     H77029   6.604   0.293   9.691  0.7471 -0.7536  2.2183
  571MOL0     H77030   6.849   0.306   9.643  0.0179  1.1380 -0.2592
  571MOL0     H77031   6.859   0.446   9.760  0.4748 -0.5771  1.0620
  571MOL0     H77032   6.771   0.176   9.852 -0.6046  0.6939 -2.5368
  571MOL0     H77033   6.838   0.299   9.953 -0.7483  0.2344  1.1490
  571MOL0     H77034   7.008   0.131   9.933 -0.2390 -1.2039 -0.3697
  571MOL0     H77035   6.973   0.101   9.760 -2.7628  0.0264 -0.4496
  571MOL0     H77036   7.070   0.447   9.902 -2.9722 -1.3602 -0.0046
  571MOL0     H77037   7.316   0.603   9.673 -2.7812  1.1887  1.0591
  571MOL0     H77038   7.287   0.609   9.851 -1.8294 -3.9294  2.2036
  571MOL0     H77039   7.469   0.448   9.889 -1.1448 -1.7643 -0.7595
  571MOL0     H77040   7.509   0.448   9.716  0.2675  3.1485 -1.2310
  571MOL0     H77041   7.534   0.697   9.912  2.8080  0.7272  0.2976
  571MOL0     H77042   7.568   0.709   9.743 -1.5530  1.8144  1.9709
  571MOL0     H77043   7.714   0.526   9.748 -3.4334  0.9982 -2.3950
  571MOL0     H77044   7.701   0.516   9.927 -3.5077 -0.9720 -1.6663
  571MOL0     H77045   8.016   0.807   9.875 -2.0358  1.0060  1.5378
  571MOL0     H77046   8.108   0.973   9.706 -0.1695 -0.0970 -0.0248
  571MOL0     H77047   8.327   1.230   9.563  2.3724 -0.3366 -0.4243
  571MOL0     H77048   8.460   1.370   9.419 -0.3278  0.3403 -2.0790
  571MOL0     H77049   8.383   1.408   8.974 -2.1097  0.6822 -0.7417
  571MOL0     H77050   8.299   1.548   9.048  0.8332  1.9426 -2.7317
  571MOL0     H77051   8.472   1.610   8.906 -1.8927  0.7793  0.3815
  571MOL0     H77052   8.518   1.656   9.068 -1.1738 -2.3794  2.3800
  571MOL0     H77053   8.690   1.460   9.076  0.4257 -3.4876 -0.5445
  571MOL0     H77054   8.635   1.390   8.935  2.8017 -0.7158  0.2423
  571MOL0     H77055   8.702   1.681   8.886  0.1409 -0.0717  0.5040
  571MOL0     H77056   8.704   1.555   8.775  0.5992  0.3170 -0.3612
  571MOL0     H77057   8.924   1.624   8.818  1.4135 -3.2014 -0.3836
  571MOL0     H77058   8.924   1.475   8.914  0.4864  0.4662  1.6513
  571MOL0     H77059   8.859   1.732   9.045  0.2208  0.2129 -2.8133
  571MOL0     H77060   8.894   1.575   9.117 -1.0271  0.7246  0.4021
  571MOL0     H77061   9.122   1.696   8.944 -1.5292  3.0334  0.3570
  571MOL0     H77062   9.123   1.565   9.064  0.4360  0.5448  2.2358
  571MOL0     H77063   9.229   1.776   9.150  1.2314 -3.0915 -0.2828
  571MOL0     H77064   9.058   1.844   9.167 -0.7355 -0.6367  1.4327
  571MOL0     H77065   8.182   1.355   9.101  1.0270  0.0255  0.0432
  571MOL0     H77066   8.038   1.212   9.223  0.9524  2.1822 -1.3468
  571MOL0     H77067   7.823   0.820   9.418 -1.0429 -3.4413  0.8124
  571MOL0     H77068   7.711   0.697   9.590  0.7107 -2.3943  0.4093
  571MOL0     H77069   6.061   0.650   9.784  2.5113  1.2674 -2.1742
  571MOL0     H77070   5.805   0.616   9.754  0.0922 -0.4142  1.7381
  571MOL0     H77071   5.403   0.589   9.428  0.3472  1.3163  1.4985
  571MOL0     H77072   5.166   0.552   9.453 -0.8173  0.2062  1.6310
  571MOL0     H77073   4.970   0.410   9.461  0.3179  0.5288 -0.2730
  571MOL0     H77074   4.938   0.536   9.573 -3.5687 -1.0562  0.8038
  571MOL0     H77075   4.780   0.398   9.700 -0.4325  4.6843 -1.9068
  571MOL0     H77076   4.838   0.252   9.614  2.2146  0.2647  0.3247
  571MOL0     H77077   4.757   0.323   9.399 -1.4903 -2.0103 -0.0647
  571MOL0     H77078   4.698   0.475   9.450  0.4033 -1.6588 -3.9177
  571MOL0     H77079   4.594   0.223   9.588  1.0651 -0.5300 -1.5957
  571MOL0     H77080   4.534   0.395   9.609  1.4847  2.1215  0.1266
  571MOL0     H77081   4.377   0.237   9.234  0.6357  2.1065 -2.5088
  571MOL0     H77082   5.246   0.277   9.780 -0.5170 -2.2232 -1.5123
  571MOL0     H77083   5.521   0.369   9.870 -0.5205 -0.8107  2.3581
  571MOL0     H77084   5.434   0.220   9.856  0.1796  0.4015 -0.9804
  571MOL0     H77085   5.578   0.242   9.756  0.2527  0.5345  1.1654
  572MOL0     O77086   9.602   2.517   0.548 -0.1447  0.4151  0.7353
  572MOL0     C77087   9.623   2.394   0.553 -0.1741 -0.7942  0.1895
  572MOL0     O77088   9.747   2.339   0.587  0.2831  0.3178 -0.3979
  572MOL0     C77089   9.856   2.418   0.609  0.5550 -0.3997 -0.4417
  572MOL0     C77090   9.907   2.503   0.520  0.5865  0.0533  0.5691
  572MOL0     C77091  10.021   2.587   0.545  0.0254  0.7148  0.8697
  572MOL0     C77092  10.096   2.572   0.659 -0.4628  0.9620 -1.2110
  572MOL0     O77093  10.215   2.643   0.691 -0.4169 -0.1677  0.0374
  572MOL0     C77094  10.318   2.609   0.592  0.5223 -0.1919  0.1851
  572MOL0     C77095  10.451   2.643   0.654  0.1677  0.1811  0.8648
  572MOL0     C77096  10.580   2.613   0.576 -0.2187 -0.3542  0.6173
  572MOL0     C77097  10.693   2.691   0.647 -0.3105 -0.1205  0.4517
  572MOL0     C77098  10.819   2.663   0.576 -0.6918 -0.2533  0.6327
  572MOL0     C77099  10.923   2.749   0.636 -0.1531 -0.4306 -0.5471
  572MOL0     C77100  11.058   2.728   0.564 -0.2330  0.3498 -0.0113
  572MOL0     C77101  11.166   2.801   0.647 -0.0433  1.1273 -0.0514
  572MOL0     N77102  11.304   2.800   0.581  0.6106 -0.1073  0.3334
  572MOL0     C77103  11.358   2.888   0.483 -0.0836 -0.4697  0.4519
  572MOL0     C77104  11.482   2.845   0.468  0.2496 -0.7810 -0.1837
  572MOL0     C77105  11.577   2.891   0.358 -0.4834  0.9480 -0.4011
  572MOL0     C77106  11.734   2.861   0.387 -0.2328  0.9950  0.3633
  572MOL0     C77107  11.774   2.719   0.352  0.9022 -0.7297  0.3097
  572MOL0     C77108  11.911   2.703   0.412 -0.6750 -0.0787 -0.3971
  572MOL0     O77109  12.023   2.766   0.343 -0.6069 -0.7122  0.5639
  572MOL0     C77110  12.113   2.679   0.296  0.2902 -0.2843  0.4712
  572MOL0     C77111  12.181   2.597   0.381  0.4218 -1.0823 -0.5973
  572MOL0     C77112  12.287   2.510   0.342  0.5613 -0.1119 -0.2322
  572MOL0     C77113  12.307   2.497   0.201 -0.1052 -0.1675 -0.2476
  572MOL0     C77114  12.408   2.400   0.148  0.2324 -0.6530  0.5234
  572MOL0     O77115  12.438   2.288   0.229  0.5359 -0.1553 -0.1645
  572MOL0     C77116  12.505   2.178   0.174  0.3896  0.4115  0.0085
  572MOL0     C77117  12.520   2.150   0.036  1.0965 -0.6492  0.6323
  572MOL0     C77118  12.605   2.048  -0.006 -0.3267 -0.6702  0.2640
  572MOL0     C77119  12.681   1.976   0.091 -0.0709 -0.0311  0.3345
  572MOL0     O77120  12.766   1.871   0.061  0.9286  0.0912  0.0083
  572MOL0     C77121  12.902   1.878   0.098  0.4393 -1.2188 -0.7544
  572MOL0     C77122  12.985   1.775   0.032  0.5158  0.2610  0.3052
  572MOL0     C77123  13.132   1.787   0.061  1.2921 -0.1214  0.2510
  572MOL0     C77124  13.212   1.660   0.022 -0.0829 -0.2132  0.1493
  572MOL0     C77125  13.364   1.666   0.033  0.0578 -0.4806  0.3181
  572MOL0     C77126  13.429   1.672  -0.108 -1.2333 -0.4513 -0.0037
  572MOL0     C77127  13.580   1.668  -0.102 -0.6316 -0.8172  0.4653
  572MOL0     C77128  13.656   1.608  -0.225  0.5465 -0.7084  0.5351
  572MOL0    Cl77129  13.825   1.574  -0.190  0.1320 -0.1100 -0.2257
  572MOL0     C77130  12.667   2.003   0.225 -0.7774 -1.0469  0.7005
  572MOL0     C77131  12.570   2.094   0.268 -0.6529  0.7033 -0.1922
  572MOL0     O77132  12.469   2.423   0.045  1.1613 -0.6974  0.5584
  572MOL0     C77133  12.232   2.570   0.113 -0.5208  0.8947  0.4088
  572MOL0     C77134  12.142   2.660   0.154  0.8087 -0.7912  0.0401
  572MOL0     N77135  11.496   2.723   0.539 -0.5537 -0.0804 -0.2983
  572MOL0     N77136  11.390   2.702   0.611 -0.5512 -0.4079 -0.4090
  572MOL0     C77137  10.044   2.488   0.758  0.2068  0.2093 -0.1031
  572MOL0     C77138   9.933   2.407   0.729  0.0561  0.0094  0.6493
  572MOL0     C77139   9.511   2.302   0.519 -0.1656  0.6325  0.1409
  572MOL0     C77140   9.378   2.338   0.559  0.1569  0.8608 -0.4060
  572MOL0     C77141   9.271   2.259   0.517 -0.5013  0.0798  0.2532
  572MOL0     C77142   9.289   2.138   0.449  1.2010 -0.9907  0.8185
  572MOL0     O77143   9.187   2.056   0.413 -0.0188  0.0754 -0.1860
  572MOL0     C77144   9.055   2.094   0.459 -0.6788 -0.0319 -0.1193
  572MOL0     C77145   8.968   2.002   0.385 -0.0230 -0.2596 -0.1863
  572MOL0     C77146   8.967   2.041   0.241  0.0319 -0.1311 -0.7013
  572MOL0     C77147   8.876   2.163   0.216  1.3531  0.3192  0.9512
  572MOL0     C77148   8.903   2.226   0.079  0.7835 -0.2253 -0.7349
  572MOL0     C77149   8.927   2.275  -0.030  0.0985 -0.6543 -0.1166
  572MOL0     C77150   9.416   2.100   0.418 -0.2013  0.8563  0.9812
  572MOL0     C77151   9.530   2.178   0.449 -0.1758 -0.8342 -0.0839
  572MOL0     C77152   9.671   2.135   0.407  0.1768 -0.1039  0.3082
  572MOL0     H77153   9.847   2.527   0.433  1.5328  2.2511  0.4684
  572MOL0     H77154  10.031   2.662   0.467 -2.4451  0.8585  0.6010
  572MOL0     H77155  10.323   2.501   0.576  1.1744  0.0058 -1.0436
  572MOL0     H77156  10.308   2.669   0.501  0.9410 -0.1843  0.1402
  572MOL0     H77157  10.455   2.601   0.754 -2.9215 -0.8140  0.6614
  572MOL0     H77158  10.460   2.751   0.669  3.1310  0.1743 -0.2069
  572MOL0     H77159  10.564   2.652   0.475  2.3779 -2.0340 -0.5621
  572MOL0     H77160  10.584   2.504   0.579 -1.6735 -0.4132  1.5465
  572MOL0     H77161  10.672   2.798   0.639 -0.0312 -0.2141 -2.4502
  572MOL0     H77162  10.699   2.658   0.752 -1.5836  0.6765  0.7944
  572MOL0     H77163  10.841   2.557   0.585  5.4647  0.4707 -1.2314
  572MOL0     H77164  10.817   2.674   0.467 -0.5389 -1.5401  0.4924
  572MOL0     H77165  10.895   2.855   0.636  0.6562 -0.1582  1.8554
  572MOL0     H77166  10.923   2.720   0.742 -0.7130  1.3913 -0.0069
  572MOL0     H77167  11.047   2.771   0.464 -2.5445 -0.2263 -0.0671
  572MOL0     H77168  11.080   2.621   0.553  1.0258  0.5711  0.2940
  572MOL0     H77169  11.137   2.907   0.649 -2.1052  0.6886 -2.0182
  572MOL0     H77170  11.175   2.761   0.748 -2.0460  3.1433  1.0291
  572MOL0     H77171  11.319   2.972   0.426  1.1732 -0.1527  0.0144
  572MOL0     H77172  11.564   2.833   0.265 -0.7243  2.2775 -1.2166
  572MOL0     H77173  11.558   2.992   0.322  0.7408  1.6762  0.9239
  572MOL0     H77174  11.794   2.929   0.326  0.8193 -0.6360 -0.4789
  572MOL0     H77175  11.742   2.876   0.495  0.4305 -0.5412  0.5482
  572MOL0     H77176  11.793   2.708   0.244  1.1804  0.0816  0.2686
  572MOL0     H77177  11.704   2.644   0.390  1.6705 -1.4392  0.3427
  572MOL0     H77178  11.934   2.597   0.423  2.3196  0.2987 -1.9841
  572MOL0     H77179  11.913   2.742   0.514  0.7003 -1.3640  0.1075
  572MOL0     H77180  12.168   2.626   0.485 -1.2502  1.1502 -1.3440
  572MOL0     H77181  12.353   2.465   0.415  0.5251  0.9413  0.4701
  572MOL0     H77182  12.459   2.208  -0.032 -0.1056 -1.6652  0.8131
  572MOL0     H77183  12.590   2.029  -0.112  0.3409  0.8227 -0.1222
  572MOL0     H77184  12.940   1.971   0.054 -0.0508 -1.7132 -2.3005
  572MOL0     H77185  12.914   1.879   0.206  1.7021  2.1637 -0.8312
  572MOL0     H77186  12.949   1.679   0.070  0.9790  1.3023  3.7287
  572MOL0     H77187  12.969   1.794  -0.075 -2.5210 -0.4418  0.5435
  572MOL0     H77188  13.165   1.862  -0.012 -0.2065 -0.7135 -1.0942
  572MOL0     H77189  13.149   1.802   0.168 -0.3628 -1.6998  0.7773
  572MOL0     H77190  13.189   1.632  -0.081 -2.4495  0.7012  0.3653
  572MOL0     H77191  13.186   1.582   0.095  3.2190 -2.1015 -0.5019
  572MOL0     H77192  13.397   1.577   0.088 -0.6314  0.2231  1.9301
  572MOL0     H77193  13.402   1.751   0.091  0.7424  2.0181 -3.4183
  572MOL0     H77194  13.391   1.598  -0.179  0.4427  1.2566 -2.8686
  572MOL0     H77195  13.408   1.771  -0.149 -0.9643 -0.6585 -0.6507
  572MOL0     H77196  13.607   1.600  -0.021 -0.9079  0.0819  1.3374
  572MOL0     H77197  13.626   1.766  -0.082  1.1841 -1.7237  1.0267
  572MOL0     H77198  13.603   1.516  -0.253 -0.2476  0.2701 -1.3644
  572MOL0     H77199  13.652   1.666  -0.318  1.1094 -2.0435 -0.3604
  572MOL0     H77200  12.711   1.950   0.309 -1.0595  0.4029  1.7975
  572MOL0     H77201  12.563   2.117   0.374  2.5484  2.3190 -0.2211
  572MOL0     H77202  12.244   2.556   0.006  2.0241 -1.5844  0.8665
  572MOL0     H77203  12.099   2.720   0.074  0.6426  0.7467  1.2384
  572MOL0     H77204  10.082   2.486   0.860 -2.7873  1.8860  1.1544
  572MOL0     H77205   9.904   2.339   0.808  2.8127 -1.1536  0.7499
  572MOL0     H77206   9.374   2.431   0.614 -0.2797  1.1893 -0.9800
  572MOL0     H77207   9.177   2.303   0.549 -0.4688 -0.4255  1.0629
  572MOL0     H77208   9.029   2.194   0.422  0.3548  0.0005 -0.7933
  572MOL0     H77209   9.040   2.087   0.567  3.4929  0.8168  0.6908
  572MOL0     H77210   8.872   2.015   0.436  0.7485  2.9527  0.6716
  572MOL0     H77211   9.000   1.899   0.404  0.1770  0.1434  1.9038
  572MOL0     H77212   8.929   1.955   0.186  1.3809 -0.1420 -1.6707
  572MOL0     H77213   9.064   2.071   0.199  0.0200  0.7134 -0.1682
  572MOL0     H77214   8.774   2.124   0.203  1.0734  1.8881 -3.0255
  572MOL0     H77215   8.875   2.239   0.295 -3.6241  0.3444  1.2152
  572MOL0     H77216   8.966   2.303  -0.126 -0.7376 -1.5628 -0.7443
  572MOL0     H77217   9.428   2.006   0.365 -0.5956  1.4348 -0.1520
  572MOL0     H77218   9.661   2.064   0.324 -1.1159  1.4735 -0.9466
  572MOL0     H77219   9.720   2.226   0.372  0.2137 -1.0241 -2.2991
  572MOL0     H77220   9.718   2.087   0.494 -1.9098 -1.7665  0.6022
  573MOL0     O77221   4.905   6.143   5.650 -0.0093 -0.0835 -0.4327
  573MOL0     C77222   4.842   6.218   5.727  0.8660 -0.3950  0.0174
  573MOL0     O77223   4.897   6.283   5.832  0.4001  0.2516  0.2031
  573MOL0     C77224   5.016   6.248   5.886  0.2282 -0.4708 -0.9543
  573MOL0     C77225   5.109   6.150   5.842 -0.6536 -0.8447 -0.4601
  573MOL0     C77226   5.235   6.132   5.914 -0.0125  0.3052  0.2434
  573MOL0     C77227   5.265   6.213   6.029 -0.2192  0.7557  0.5083
  573MOL0     O77228   5.385   6.215   6.098  0.0236 -0.2815 -0.4121
  573MOL0     C77229   5.392   6.093   6.180 -0.1696 -0.2855 -0.4584
  573MOL0     C77230   5.526   6.086   6.245  0.0687 -0.8574 -0.2462
  573MOL0     C77231   5.542   5.964   6.342  0.2784  0.1955  0.0776
  573MOL0     C77232   5.686   5.965   6.399  0.3997  0.2224 -0.6233
  573MOL0     C77233   5.706   5.848   6.496  0.4824  0.0934  0.0444
  573MOL0     C77234   5.850   5.833   6.540 -0.0740 -1.0577 -0.1480
  573MOL0     C77235   5.874   5.720   6.631  0.4360  0.3442 -0.3808
  573MOL0     C77236   6.015   5.661   6.665  0.4838 -0.7656 -0.0148
  573MOL0     N77237   6.125   5.744   6.626 -0.8900  0.1190 -0.5985
  573MOL0     C77238   6.161   5.855   6.695  0.2117  0.0464 -0.3029
  573MOL0     C77239   6.270   5.905   6.621 -0.8676  0.3691 -0.1281
  573MOL0     C77240   6.363   6.017   6.661 -0.0608 -0.5940  0.0013
  573MOL0     C77241   6.483   5.968   6.734 -0.4677 -0.3497 -0.0346
  573MOL0     C77242   6.459   5.966   6.890  0.4976 -0.3238  0.6159
  573MOL0     C77243   6.582   5.937   6.969 -0.1726  0.5610 -0.0450
  573MOL0     O77244   6.657   5.835   6.896 -0.0135 -0.6056 -0.1037
  573MOL0     C77245   6.780   5.828   6.946 -0.5641  0.2648 -0.5687
  573MOL0     C77246   6.888   5.790   6.858  0.8670  0.1643 -0.1641
  573MOL0     C77247   7.024   5.782   6.898  0.5001  0.0177 -0.4661
  573MOL0     C77248   7.053   5.817   7.032  0.0730 -0.0790  0.0343
  573MOL0     C77249   7.198   5.826   7.081 -1.1070  0.3399 -0.1192
  573MOL0     O77250   7.300   5.791   6.991  0.3409  0.3876  0.0818
  573MOL0     C77251   7.424   5.776   7.045 -0.1794  0.2911 -0.8163
  573MOL0     C77252   7.509   5.883   7.052 -0.9307 -0.2778 -0.1004
  573MOL0     C77253   7.628   5.879   7.122 -0.1858  1.5088 -0.3786
  573MOL0     C77254   7.671   5.751   7.183  0.3720 -0.7267  0.1111
  573MOL0     O77255   7.792   5.751   7.247  0.1533 -0.1073  0.0294
  573MOL0     C77256   7.843   5.629   7.297  0.4466  0.0016  1.1812
  573MOL0     C77257   7.972   5.661   7.368 -0.1117 -0.5906  0.3378
  573MOL0     C77258   8.014   5.530   7.425 -0.7533  0.3872  0.5572
  573MOL0     C77259   8.086   5.442   7.328  0.1705 -0.1568  0.1521
  573MOL0     C77260   8.141   5.326   7.412 -0.0409 -0.3811 -0.0097
  573MOL0     C77261   8.240   5.233   7.343  1.3966  0.0617  0.9238
  573MOL0     C77262   8.162   5.151   7.234 -0.6463  0.0848  0.5247
  573MOL0     C77263   8.236   5.108   7.098  0.4138  0.7621 -0.2169
  573MOL0    Cl77264   8.137   5.035   6.974  0.1839  0.5469 -0.1157
  573MOL0     C77265   7.583   5.642   7.172  0.2158  0.0233 -0.8646
  573MOL0     C77266   7.461   5.659   7.111  0.6043 -0.7605  0.9911
  573MOL0     O77267   7.213   5.869   7.192  0.5425  0.1598  0.0327
  573MOL0     C77268   6.948   5.836   7.125 -0.5797 -0.9912  0.6313
  573MOL0     C77269   6.813   5.842   7.081 -0.4535  0.3878  0.9150
  573MOL0     N77270   6.286   5.824   6.506 -0.2305 -0.7734 -0.3157
  573MOL0     N77271   6.196   5.728   6.513 -0.1158 -0.4865 -0.2924
  573MOL0     C77272   5.186   6.319   6.060 -0.3417  0.5898  0.6824
  573MOL0     C77273   5.053   6.329   6.005  0.4217 -0.3858  0.4943
  573MOL0     C77274   4.701   6.235   5.698  0.4584  0.0284 -0.0606
  573MOL0     C77275   4.662   6.229   5.561 -0.0127 -0.5093  0.5362
  573MOL0     C77276   4.534   6.232   5.525  0.0477  0.0555 -0.5742
  573MOL0     C77277   4.430   6.265   5.608  1.2897  0.8626  0.0344
  573MOL0     O77278   4.300   6.262   5.576  0.0520  0.0458  0.7060
  573MOL0     C77279   4.242   6.137   5.614 -0.3449  0.5799  0.0730
  573MOL0     C77280   4.095   6.140   5.571  0.2082  0.7444  0.3056
  573MOL0     C77281   3.997   6.203   5.679 -0.6273  0.0717  0.2537
  573MOL0     C77282   3.850   6.218   5.629 -0.4207 -0.1600  0.0225
  573MOL0     C77283   3.773   6.096   5.603  0.5047 -0.7015 -0.7113
  573MOL0     C77284   3.704   6.007   5.564  0.7991  1.1639 -0.2163
  573MOL0     C77285   4.460   6.278   5.743 -0.1056  0.3871 -0.3522
  573MOL0     C77286   4.595   6.266   5.791 -0.2818 -1.0563 -0.1210
  573MOL0     C77287   4.617   6.259   5.940 -0.8188  0.1590 -0.1668
  573MOL0     H77288   5.100   6.099   5.746 -0.8676  0.1363 -0.9788
  573MOL0     H77289   5.304   6.054   5.880 -0.8133 -1.5318  2.5775
  573MOL0     H77290   5.314   6.104   6.256 -0.4719  1.3628 -0.9708
  573MOL0     H77291   5.364   6.006   6.119 -3.2219 -1.0633  1.8395
  573MOL0     H77292   5.547   6.176   6.303  2.4410  0.1454 -2.4737
  573MOL0     H77293   5.604   6.090   6.169 -2.3108 -1.1641 -2.8723
  573MOL0     H77294   5.537   5.876   6.277 -0.3424  1.7076 -2.0606
  573MOL0     H77295   5.463   5.953   6.417  0.1277  0.2840 -0.0657
  573MOL0     H77296   5.745   5.953   6.307  0.5258  0.8340 -0.6286
  573MOL0     H77297   5.710   6.059   6.451 -0.4165 -1.7756  3.7935
  573MOL0     H77298   5.641   5.862   6.583  0.1858 -1.2807  0.0677
  573MOL0     H77299   5.680   5.761   6.436  2.1414 -0.3781 -0.0530
  573MOL0     H77300   5.899   5.816   6.444 -1.1982  0.5150 -1.0620
  573MOL0     H77301   5.893   5.930   6.568 -1.3194 -0.1160 -1.3435
  573MOL0     H77302   5.817   5.640   6.583 -4.3399  3.1477  0.0211
  573MOL0     H77303   5.819   5.731   6.725  0.6060 -0.3816 -0.1847
  573MOL0     H77304   6.023   5.636   6.772  3.9638 -2.3694 -0.5176
  573MOL0     H77305   6.023   5.572   6.602 -1.7508 -0.4843 -0.8093
  573MOL0     H77306   6.123   5.899   6.786 -0.1273 -0.4847 -0.1891
  573MOL0     H77307   6.398   6.061   6.567 -2.6003 -1.0564 -1.2263
  573MOL0     H77308   6.326   6.109   6.706 -0.3717 -0.4899 -0.4573
  573MOL0     H77309   6.503   5.870   6.690 -1.5187 -0.1150 -1.0713
  573MOL0     H77310   6.573   6.023   6.709  0.6771 -1.0384  2.2680
  573MOL0     H77311   6.382   5.892   6.912 -1.9493  1.2410 -2.0305
  573MOL0     H77312   6.425   6.067   6.915  0.5825  0.7227 -3.0137
  573MOL0     H77313   6.555   5.895   7.067 -3.0206  0.5379 -0.7615
  573MOL0     H77314   6.640   6.027   6.990 -2.0952  1.3204  2.4552
  573MOL0     H77315   6.854   5.775   6.757 -1.3946 -1.3902  0.7508
  573MOL0     H77316   7.098   5.760   6.822 -1.4823 -1.2779 -2.1224
  573MOL0     H77317   7.486   5.971   6.994 -2.6447 -1.0910 -0.7259
  573MOL0     H77318   7.685   5.969   7.141  0.6859  0.3158  3.7006
  573MOL0     H77319   7.774   5.589   7.372 -1.9225 -0.1033 -0.9286
  573MOL0     H77320   7.857   5.557   7.216  1.5674  2.9987 -1.4890
  573MOL0     H77321   8.036   5.700   7.288  0.5881  3.1792  2.4973
  573MOL0     H77322   7.960   5.737   7.445 -2.6446  0.9266 -1.3992
  573MOL0     H77323   8.077   5.561   7.509 -0.8665  1.5035  0.2483
  573MOL0     H77324   7.939   5.467   7.474  0.5445 -1.3645  0.3759
  573MOL0     H77325   8.175   5.494   7.292  1.0187 -2.9520 -2.1640
  573MOL0     H77326   8.023   5.418   7.242  1.5793  0.2870 -1.0578
  573MOL0     H77327   8.054   5.278   7.457 -0.0069 -0.0270  0.4383
  573MOL0     H77328   8.192   5.360   7.502  1.6991 -0.6100 -0.8762
  573MOL0     H77329   8.327   5.289   7.307  2.2364 -1.0639  1.1131
  573MOL0     H77330   8.280   5.165   7.420  2.4623  2.3332  2.5104
  573MOL0     H77331   8.074   5.206   7.201 -0.2529  0.6028  0.3299
  573MOL0     H77332   8.123   5.057   7.276 -0.0905 -1.8461 -2.8665
  573MOL0     H77333   8.285   5.197   7.059  0.0091  0.6861 -0.9224
  573MOL0     H77334   8.303   5.024   7.117  1.1251  1.8294  2.2756
  573MOL0     H77335   7.609   5.546   7.215 -0.5425 -0.4493 -1.4470
  573MOL0     H77336   7.388   5.578   7.113 -0.8707  0.4793 -0.0972
  573MOL0     H77337   6.968   5.851   7.230  0.0607 -3.3748  0.9010
  573MOL0     H77338   6.750   5.877   7.163  1.0553  1.6237  1.6035
  573MOL0     H77339   5.219   6.388   6.137 -0.7793  0.9349  0.5646
  573MOL0     H77340   4.987   6.402   6.050 -0.5616 -0.2379 -1.0972
  573MOL0     H77341   4.734   6.216   5.481 -0.2523  0.4929  0.1477
  573MOL0     H77342   4.509   6.211   5.421 -1.9375  0.9895 -0.3267
  573MOL0     H77343   4.257   6.120   5.721  0.6703 -2.1961 -0.4251
  573MOL0     H77344   4.278   6.053   5.555 -3.6821 -0.8598 -0.0997
  573MOL0     H77345   4.067   6.038   5.544  0.2001  1.0438 -0.9210
  573MOL0     H77346   4.085   6.195   5.476  0.6935  1.0009  0.3977
  573MOL0     H77347   4.041   6.300   5.705 -0.5378  0.1597 -0.2195
  573MOL0     H77348   4.008   6.136   5.765  0.3396 -0.4122 -0.2315
  573MOL0     H77349   3.791   6.273   5.703  0.9256  3.4446 -1.3523
  573MOL0     H77350   3.847   6.282   5.540  1.9252  2.7994  1.8440
  573MOL0     H77351   3.638   5.929   5.535 -1.5743  3.2543 -0.7995
  573MOL0     H77352   4.382   6.304   5.814  0.7949  0.6231  0.5615
  573MOL0     H77353   4.693   6.182   5.959  0.3140  0.7836 -1.8928
  573MOL0     H77354   4.653   6.353   5.981 -2.5452  0.9669 -0.4326
  573MOL0     H77355   4.517   6.240   5.979  0.1238 -1.9105  1.4522
  574MOL0     O77356   1.176   0.548   3.098 -0.2855  0.1676  0.7537
  574MOL0     C77357   1.294   0.529   3.055 -0.0483 -0.5400 -0.1045
  574MOL0     O77358   1.348   0.408   3.036 -0.6388 -0.2218  0.2629
  574MOL0     C77359   1.272   0.294   3.060 -0.2953  0.0576 -0.6432
  574MOL0     C77360   1.136   0.285   3.008  0.3947 -0.3277  0.7904
  574MOL0     C77361   1.082   0.158   3.011 -0.0782  0.6492  0.7424
  574MOL0     C77362   1.139   0.047   3.077  0.1530 -1.0104  0.7387
  574MOL0     O77363   1.075  -0.077   3.077 -0.1560  0.0626 -0.7113
  574MOL0     C77364   1.053  -0.120   2.940  0.8350 -0.0494 -0.8600
  574MOL0     C77365   1.069  -0.268   2.919  0.0646  0.2650 -0.6738
  574MOL0     C77366   1.061  -0.314   2.771  0.3248  0.0909  1.3045
  574MOL0     C77367   1.086  -0.462   2.755  0.0305  0.5585  0.0344
  574MOL0     C77368   1.096  -0.489   2.602  0.8629 -0.2360 -1.0382
  574MOL0     C77369   1.186  -0.612   2.564  0.0160  0.2376  0.1458
  574MOL0     C77370   1.146  -0.735   2.649 -0.0598  0.2592  0.2937
  574MOL0     C77371   1.207  -0.859   2.603 -0.6253  0.1409  0.2855
  574MOL0     N77372   1.360  -0.862   2.609 -0.1538  0.2149 -0.4227
  574MOL0     C77373   1.430  -0.849   2.723  0.2642 -0.0436 -0.6290
  574MOL0     C77374   1.560  -0.843   2.685 -0.5688  1.2836 -0.1810
  574MOL0     C77375   1.694  -0.814   2.762  1.1898 -0.7833 -0.0068
  574MOL0     C77376   1.729  -0.669   2.761  0.2546 -0.0438 -1.2342
  574MOL0     C77377   1.864  -0.624   2.827  0.6480  0.0528  0.9184
  574MOL0     C77378   1.862  -0.658   2.969  1.6046  0.4915 -0.7663
  574MOL0     O77379   1.963  -0.577   3.042 -0.0010  0.1926 -0.3804
  574MOL0     C77380   1.936  -0.453   3.092 -0.5181 -0.7250 -0.0240
  574MOL0     C77381   1.817  -0.380   3.072 -0.0983 -0.9419 -0.3421
  574MOL0     C77382   1.795  -0.252   3.132  0.0685 -0.2787  0.2557
  574MOL0     C77383   1.892  -0.194   3.214 -0.9119 -0.4999 -0.3743
  574MOL0     C77384   1.871  -0.064   3.274  0.7633 -0.5961  0.3947
  574MOL0     O77385   1.748  -0.012   3.251 -0.6238 -0.5574  0.2005
  574MOL0     C77386   1.717   0.119   3.277 -0.6827 -0.1070  0.9792
  574MOL0     C77387   1.607   0.142   3.363 -0.5952 -0.1017  0.1928
  574MOL0     C77388   1.576   0.269   3.410 -0.2125 -0.1212  1.5592
  574MOL0     C77389   1.664   0.373   3.379  0.6740  0.3144 -1.0344
  574MOL0     O77390   1.661   0.490   3.445 -0.0777 -0.7181  0.4472
  574MOL0     C77391   1.574   0.512   3.562 -0.2675  0.1912 -0.0396
  574MOL0     C77392   1.623   0.631   3.651  0.0076  0.2570 -0.1327
  574MOL0     C77393   1.766   0.615   3.707 -0.0056 -0.3834 -0.1821
  574MOL0     C77394   1.780   0.733   3.811  0.6461  0.0845  0.1195
  574MOL0     C77395   1.919   0.731   3.864 -0.3513  0.2880 -0.0189
  574MOL0     C77396   1.926   0.841   3.969 -0.3489 -0.2141 -0.7672
  574MOL0     C77397   2.071   0.864   3.999  0.0285 -0.1640 -0.2876
  574MOL0     C77398   2.073   0.977   4.101  0.4004  0.9616 -0.1405
  574MOL0    Cl77399   2.224   1.058   4.093  0.1804 -0.3120 -0.4878
  574MOL0     C77400   1.774   0.349   3.287  0.0880 -0.6336  0.2132
  574MOL0     C77401   1.801   0.223   3.232 -0.4069 -1.0315 -0.6275
  574MOL0     O77402   1.968  -0.014   3.331 -0.5049 -0.6848  0.3317
  574MOL0     C77403   2.016  -0.265   3.225  0.1847 -0.5919 -0.3289
  574MOL0     C77404   2.035  -0.390   3.168  0.1986  0.8054 -0.9371
  574MOL0     N77405   1.570  -0.853   2.557 -0.6756  0.3074  1.0054
  574MOL0     N77406   1.447  -0.855   2.507  0.2431 -0.6150 -0.3943
  574MOL0     C77407   1.260   0.076   3.145  0.1702  0.0689 -0.7284
  574MOL0     C77408   1.327   0.198   3.139  0.2658  0.4050  0.8377
  574MOL0     C77409   1.380   0.652   3.026  0.1561  0.4191 -0.2115
  574MOL0     C77410   1.320   0.778   3.051 -0.0560 -0.4615  0.0807
  574MOL0     C77411   1.396   0.892   3.036 -0.0231  0.3398  0.1155
  574MOL0     C77412   1.532   0.895   3.006  0.1295  0.2226  0.3443
  574MOL0     O77413   1.595   1.021   3.010  0.7518 -0.5612  0.1954
  574MOL0     C77414   1.729   1.021   2.945 -0.4788 -0.7589  0.1920
  574MOL0     C77415   1.780   1.170   2.959  1.4266  0.4737  0.0626
  574MOL0     C77416   1.810   1.217   3.107 -0.4127 -0.7180  0.1251
  574MOL0     C77417   1.942   1.161   3.158  0.0516  0.0615  0.8849
  574MOL0     C77418   1.996   1.248   3.269  0.6504  0.7698  0.3397
  574MOL0     C77419   2.058   1.306   3.354 -0.0288 -0.0115 -0.3097
  574MOL0     C77420   1.596   0.770   2.976  0.5731  0.3553  0.4696
  574MOL0     C77421   1.519   0.651   2.986 -0.5495  0.3519 -0.6785
  574MOL0     C77422   1.602   0.527   2.957 -0.4036 -0.1054 -0.9805
  574MOL0     H77423   1.085   0.359   2.947  1.8372  1.3676  1.5671
  574MOL0     H77424   0.989   0.141   2.958 -0.9884  3.3654  1.3347
  574MOL0     H77425   0.952  -0.098   2.904  0.5080  3.0928  1.6112
  574MOL0     H77426   1.113  -0.067   2.865 -0.9844  1.8263 -1.0774
  574MOL0     H77427   0.993  -0.317   2.981  2.4226 -1.0006  1.4103
  574MOL0     H77428   1.165  -0.312   2.950 -0.5952 -2.2899 -1.9387
  574MOL0     H77429   1.130  -0.248   2.718 -0.9083  1.3350  1.1916
  574MOL0     H77430   0.966  -0.292   2.723  1.4072  0.9488 -0.5388
  574MOL0     H77431   1.177  -0.483   2.811  0.3463  1.5941 -0.0633
  574MOL0     H77432   1.002  -0.516   2.799  0.3360  1.3877  1.6990
  574MOL0     H77433   0.992  -0.515   2.580 -0.2231  1.5400  1.5584
  574MOL0     H77434   1.136  -0.398   2.557  2.9408  1.0629  3.0043
  574MOL0     H77435   1.167  -0.635   2.459 -0.3984 -0.0069  0.2699
  574MOL0     H77436   1.290  -0.585   2.584 -0.1177  1.3465 -0.6166
  574MOL0     H77437   1.036  -0.736   2.648 -0.0721  0.9212 -0.0911
  574MOL0     H77438   1.172  -0.718   2.753 -0.9395 -0.3550  0.6256
  574MOL0     H77439   1.172  -0.938   2.671 -0.2650  0.1576  0.4954
  574MOL0     H77440   1.175  -0.884   2.501 -2.7598  0.4592  0.8322
  574MOL0     H77441   1.394  -0.812   2.819  2.6576  0.4953  0.1348
  574MOL0     H77442   1.684  -0.858   2.862  2.1732  2.7286  1.8019
  574MOL0     H77443   1.774  -0.874   2.716  2.2169 -2.4821  3.6435
  574MOL0     H77444   1.739  -0.638   2.657  0.2398  2.2560 -0.6063
  574MOL0     H77445   1.652  -0.612   2.815  1.2190 -0.2059  0.3721
  574MOL0     H77446   1.875  -0.516   2.814 -1.1357  0.0581 -0.9842
  574MOL0     H77447   1.948  -0.676   2.779  1.3629  0.3268  1.8211
  574MOL0     H77448   1.874  -0.767   2.973  1.0956  0.4614  1.1280
  574MOL0     H77449   1.761  -0.640   3.009  1.5268 -1.9288  0.2621
  574MOL0     H77450   1.738  -0.426   3.014 -1.1838  0.9836 -0.4915
  574MOL0     H77451   1.695  -0.208   3.124  0.0241  0.3333  3.1269
  574MOL0     H77452   1.540   0.063   3.396 -1.1885  0.5374  0.5399
  574MOL0     H77453   1.492   0.274   3.479 -0.0367 -2.9263  2.1081
  574MOL0     H77454   1.475   0.537   3.522 -0.9462 -1.1268  0.7539
  574MOL0     H77455   1.578   0.425   3.628  2.1067 -0.9952 -1.5712
  574MOL0     H77456   1.614   0.729   3.603  0.2277  0.6304  0.5729
  574MOL0     H77457   1.561   0.633   3.742  1.2320 -1.5297  0.8137
  574MOL0     H77458   1.792   0.514   3.739 -2.0856 -0.9030 -0.0293
  574MOL0     H77459   1.832   0.637   3.622  2.6301 -3.9201  0.7116
  574MOL0     H77460   1.700   0.730   3.886 -0.6963  0.6023 -1.2536
  574MOL0     H77461   1.764   0.830   3.764 -0.7271  0.6091  1.5554
  574MOL0     H77462   1.985   0.745   3.778 -1.5503  0.0212 -1.0118
  574MOL0     H77463   1.948   0.636   3.910 -2.0571 -1.0151 -1.4962
  574MOL0     H77464   1.894   0.933   3.919  0.4654 -0.0208 -0.9505
  574MOL0     H77465   1.868   0.823   4.060  2.7629  2.2472  1.9798
  574MOL0     H77466   2.111   0.898   3.903  0.4366 -0.0546 -0.0801
  574MOL0     H77467   2.131   0.779   4.032  2.1930  0.8338 -1.4114
  574MOL0     H77468   1.994   1.052   4.091  0.2824  1.0532  1.3091
  574MOL0     H77469   2.050   0.925   4.195  1.3422 -2.5145 -1.6791
  574MOL0     H77470   1.854   0.416   3.256  1.3042 -2.4741 -0.8170
  574MOL0     H77471   1.892   0.205   3.176  1.9398  0.4696  2.4131
  574MOL0     H77472   2.094  -0.233   3.294 -1.1766 -2.6246  2.3759
  574MOL0     H77473   2.120  -0.450   3.200 -0.6873  0.5608  1.1444
  574MOL0     H77474   1.302  -0.011   3.195  2.6540  1.6160  0.0063
  574MOL0     H77475   1.424   0.214   3.185 -0.8737  3.2857  2.4261
  574MOL0     H77476   1.218   0.795   3.084  0.0831 -0.6305  0.6216
  574MOL0     H77477   1.352   0.991   3.040  2.7948  1.7183 -0.4497
  574MOL0     H77478   1.722   0.989   2.840  2.0098 -0.4989 -0.1253
  574MOL0     H77479   1.806   0.966   3.000  0.1355  1.8128  2.1043
  574MOL0     H77480   1.705   1.235   2.914 -0.9850 -2.5915 -0.7423
  574MOL0     H77481   1.872   1.194   2.905  2.9511  1.1890  2.7950
  574MOL0     H77482   1.726   1.192   3.172 -0.3979  0.6657  0.7173
  574MOL0     H77483   1.822   1.326   3.112  0.5144 -0.7859 -0.2376
  574MOL0     H77484   1.928   1.064   3.206 -0.2828 -0.2103  0.2544
  574MOL0     H77485   2.012   1.158   3.073 -0.6952 -1.4983  0.2888
  574MOL0     H77486   2.106   1.354   3.437 -1.9157 -2.4001  2.3735
  574MOL0     H77487   1.699   0.759   2.944  1.1584  2.5843  1.4045
  574MOL0     H77488   1.584   0.447   3.028 -0.1066 -1.2499 -2.1587
  574MOL0     H77489   1.567   0.498   2.858 -2.0176 -1.1332 -0.1548
  574MOL0     H77490   1.710   0.548   2.960 -0.3736 -0.1058  2.8681
  575MOL0     O77491   4.436   3.310  10.817  0.4590  0.0439 -0.1349
  575MOL0     C77492   4.394   3.413  10.763  0.0182  0.0929 -0.0366
  575MOL0     O77493   4.464   3.483  10.676  0.5999 -0.3358 -0.4416
  575MOL0     C77494   4.597   3.466  10.669  0.5175  1.2017  0.4475
  575MOL0     C77495   4.647   3.343  10.626  0.6369  0.1039 -0.4563
  575MOL0     C77496   4.787   3.326  10.625  0.4941  0.6552 -0.5063
  575MOL0     C77497   4.876   3.422  10.672  0.6308 -0.4308  0.2914
  575MOL0     O77498   5.008   3.400  10.693 -0.5086  0.6422 -0.1839
  575MOL0     C77499   5.058   3.270  10.690  0.0267  0.6244  0.5148
  575MOL0     C77500   5.214   3.267  10.714  0.0469  0.6339  0.1513
  575MOL0     C77501   5.302   3.323  10.593  0.5457  0.4617  0.0107
  575MOL0     C77502   5.311   3.214  10.474 -1.0989 -1.0625  0.0507
  575MOL0     C77503   5.418   3.273  10.371  0.2481 -0.1245 -0.4931
  575MOL0     C77504   5.560   3.237  10.416  0.6038 -0.3968  0.5732
  575MOL0     C77505   5.663   3.279  10.312  0.4404 -0.7378  0.1858
  575MOL0     C77506   5.794   3.246  10.365 -0.0154  0.0483 -0.5292
  575MOL0     N77507   5.900   3.320  10.293 -0.3192 -0.4426 -0.1783
  575MOL0     C77508   5.919   3.333  10.161 -0.4791  0.0953  0.8645
  575MOL0     C77509   6.011   3.431  10.156 -0.1277  0.0238 -0.3810
  575MOL0     C77510   6.059   3.499  10.037  0.3652 -0.0036 -0.4917
  575MOL0     C77511   5.999   3.641  10.022 -0.0605 -0.5216 -0.4578
  575MOL0     C77512   6.068   3.710   9.909 -0.5016  0.1139  0.5565
  575MOL0     C77513   6.040   3.683   9.754 -0.2031 -0.8291 -0.3838
  575MOL0     O77514   6.097   3.780   9.661 -0.1077  0.0474  0.5697
  575MOL0     C77515   6.064   3.910   9.654  0.1576  0.2365 -0.8570
  575MOL0     C77516   5.965   3.966   9.744  0.3349  0.4206  1.2658
  575MOL0     C77517   5.918   4.092   9.726 -0.1652 -0.4448  0.8930
  575MOL0     C77518   5.981   4.174   9.623  0.1652  0.0198 -0.6619
  575MOL0     C77519   5.928   4.303   9.599  0.1433 -0.3997 -0.0553
  575MOL0     O77520   5.818   4.340   9.672 -0.6625 -0.3375  0.3280
  575MOL0     C77521   5.803   4.473   9.673  0.6165  0.0772  0.1667
  575MOL0     C77522   5.753   4.552   9.566  0.0410  0.5415 -0.2073
  575MOL0     C77523   5.739   4.691   9.566 -0.2766 -1.1303 -0.1406
  575MOL0     C77524   5.768   4.760   9.685 -0.4450 -0.0190 -0.0404
  575MOL0     O77525   5.781   4.903   9.693 -0.2614  0.6857  0.1859
  575MOL0     C77526   5.741   4.978   9.576 -0.8554 -0.2249  0.9303
  575MOL0     C77527   5.594   4.998   9.574 -0.0306 -0.1498  1.0698
  575MOL0     C77528   5.542   5.123   9.483 -0.3695  0.0508 -0.6927
  575MOL0     C77529   5.570   5.097   9.329  0.3208  0.4208  0.1383
  575MOL0     C77530   5.581   5.219   9.236 -0.2483  0.2586 -0.9549
  575MOL0     C77531   5.682   5.325   9.286  0.0542  0.2237 -0.6988
  575MOL0     C77532   5.700   5.425   9.170  0.0491  0.5762  0.3147
  575MOL0     C77533   5.795   5.543   9.215  0.0622  0.0365  0.2993
  575MOL0    Cl77534   5.778   5.652   9.075  0.0606  0.0224 -0.1089
  575MOL0     C77535   5.813   4.681   9.795  0.1502 -0.0642 -0.3233
  575MOL0     C77536   5.823   4.540   9.791  0.5265 -0.0475 -0.5651
  575MOL0     O77537   5.997   4.374   9.520 -0.0223  0.6210  0.0726
  575MOL0     C77538   6.080   4.129   9.542  0.1053  0.4951 -0.3228
  575MOL0     C77539   6.124   3.993   9.561 -0.0809  0.5454  0.2789
  575MOL0     N77540   6.050   3.466  10.283  0.2483 -0.1100  0.4613
  575MOL0     N77541   5.983   3.403  10.361  0.2732 -0.5577  0.1063
  575MOL0     C77542   4.824   3.555  10.707  0.2682 -0.2050 -0.0052
  575MOL0     C77543   4.682   3.578  10.700 -0.1831  0.2076  0.2070
  575MOL0     C77544   4.254   3.475  10.793  0.3048 -0.6776 -0.5979
  575MOL0     C77545   4.228   3.595  10.728 -0.0717 -0.4430 -0.0327
  575MOL0     C77546   4.107   3.659  10.739 -0.6522 -0.3868 -0.6017
  575MOL0     C77547   4.008   3.608  10.824 -0.5985 -0.1363 -0.1240
  575MOL0     O77548   3.889   3.675  10.827 -0.9737 -0.4139  0.0900
  575MOL0     C77549   3.775   3.624  10.902  0.1520 -0.5921  1.0445
  575MOL0     C77550   3.664   3.726  10.884 -0.1294 -0.0473 -0.5472
  575MOL0     C77551   3.642   3.765  10.736 -0.3968  0.1180  0.7463
  575MOL0     C77552   3.615   3.642  10.645  0.7311  0.2178 -0.3328
  575MOL0     C77553   3.556   3.699  10.527 -0.6533 -0.0705 -0.1114
  575MOL0     C77554   3.512   3.758  10.436  0.1053  0.1111  1.1082
  575MOL0     C77555   4.034   3.492  10.895 -0.4847  0.5621  0.2928
  575MOL0     C77556   4.155   3.421  10.876  0.4377 -0.5033  0.6239
  575MOL0     C77557   4.157   3.294  10.958  1.0378 -0.4492  0.3757
  575MOL0     H77558   4.576   3.262  10.611  0.1220  0.8035 -2.1308
  575MOL0     H77559   4.821   3.227  10.598 -0.5014  0.3993 -0.8552
  575MOL0     H77560   5.021   3.212  10.776  2.9764 -4.3933 -1.1686
  575MOL0     H77561   5.039   3.206  10.604  1.7832 -0.0911  0.6045
  575MOL0     H77562   5.247   3.164  10.724 -0.7713  0.3855  0.4029
  575MOL0     H77563   5.237   3.325  10.805 -0.1381 -2.4500  2.3280
  575MOL0     H77564   5.401   3.355  10.625  0.4133  0.9636 -0.0780
  575MOL0     H77565   5.263   3.417  10.555  2.4915  0.6292 -1.7415
  575MOL0     H77566   5.337   3.113  10.508  0.3584  0.1514  2.8547
  575MOL0     H77567   5.210   3.214  10.432 -1.0727 -0.3604 -0.0267
  575MOL0     H77568   5.395   3.240  10.269 -3.0567  2.0663 -0.6249
  575MOL0     H77569   5.412   3.382  10.374  0.9182 -0.1099  0.9360
  575MOL0     H77570   5.576   3.272  10.518  0.1389  0.4634  0.3608
  575MOL0     H77571   5.548   3.128  10.412 -3.1564 -0.0812 -1.9059
  575MOL0     H77572   5.653   3.388  10.305 -0.6950 -0.8480 -0.2383
  575MOL0     H77573   5.640   3.235  10.214 -1.3342  1.2484 -0.3669
  575MOL0     H77574   5.794   3.248  10.474  1.4923  2.3927 -0.4788
  575MOL0     H77575   5.814   3.143  10.336  2.5817  0.4531 -0.4315
  575MOL0     H77576   5.865   3.285  10.081  1.1415 -0.5444  0.1114
  575MOL0     H77577   6.168   3.510  10.046  0.6471  0.3158 -3.3600
  575MOL0     H77578   6.032   3.430   9.957 -1.3964  1.4424 -1.2186
  575MOL0     H77579   5.890   3.644  10.013 -0.0752  1.6994 -0.2282
  575MOL0     H77580   6.022   3.691  10.117 -0.7986 -1.1756  0.0698
  575MOL0     H77581   6.176   3.703   9.917 -0.4414 -1.1240 -0.8001
  575MOL0     H77582   6.058   3.819   9.917 -0.1393  0.3197 -1.3804
  575MOL0     H77583   5.930   3.680   9.750 -0.3008  1.1857 -0.4097
  575MOL0     H77584   6.078   3.586   9.721 -1.8703 -0.9861 -2.0512
  575MOL0     H77585   5.905   3.907   9.813  0.4877 -1.0885  0.1639
  575MOL0     H77586   5.846   4.137   9.794  1.4396 -0.6076  2.7732
  575MOL0     H77587   5.721   4.507   9.472 -0.4024 -0.5127  0.4217
  575MOL0     H77588   5.707   4.741   9.476 -3.4673  2.1334  2.5081
  575MOL0     H77589   5.795   5.073   9.578 -0.5068 -0.1250 -3.4343
  575MOL0     H77590   5.771   4.920   9.489  0.0911 -0.9044  1.6928
  575MOL0     H77591   5.553   4.903   9.540  2.4447 -0.5801 -1.0053
  575MOL0     H77592   5.563   5.018   9.677 -0.5316 -0.1671  0.9261
  575MOL0     H77593   5.438   5.157   9.484 -0.5592 -0.5163 -0.4028
  575MOL0     H77594   5.600   5.211   9.510 -2.3210  1.7477 -1.7636
  575MOL0     H77595   5.492   5.030   9.290  1.7230 -1.7594  0.8607
  575MOL0     H77596   5.658   5.032   9.327 -1.7713 -2.6537  0.6408
  575MOL0     H77597   5.482   5.263   9.221 -0.2463  0.3792 -0.6356
  575MOL0     H77598   5.604   5.174   9.139  1.1955 -0.9673 -0.1030
  575MOL0     H77599   5.662   5.380   9.378 -0.2313  0.1149 -0.6954
  575MOL0     H77600   5.780   5.282   9.308  0.3314  0.3048 -1.7192
  575MOL0     H77601   5.604   5.469   9.145  0.7196  2.0783  0.2240
  575MOL0     H77602   5.730   5.374   9.078 -1.1801 -0.7468  0.6251
  575MOL0     H77603   5.750   5.584   9.305 -2.5912 -0.9097 -0.5123
  575MOL0     H77604   5.898   5.510   9.231  0.1759  0.0669 -0.3297
  575MOL0     H77605   5.847   4.741   9.878 -1.1280  1.9648 -1.1641
  575MOL0     H77606   5.851   4.478   9.875  0.1468  1.0772  0.4131
  575MOL0     H77607   6.145   4.177   9.470 -0.8061  2.3634  0.0515
  575MOL0     H77608   6.203   3.953   9.500 -0.1083  0.8795  0.0199
  575MOL0     H77609   4.889   3.632  10.748 -0.8262 -0.2920  2.0338
  575MOL0     H77610   4.652   3.676  10.736  0.7286  0.1099  1.2780
  575MOL0     H77611   4.289   3.649  10.655 -1.4490  2.0256  0.5201
  575MOL0     H77612   4.098   3.753  10.685  0.3518 -0.0081 -0.1466
  575MOL0     H77613   3.786   3.609  11.010 -2.7401 -3.3674  1.0949
  575MOL0     H77614   3.757   3.527  10.856  2.8174 -0.1436 -1.2737
  575MOL0     H77615   3.702   3.812  10.938 -0.3610 -0.6791  0.6473
  575MOL0     H77616   3.579   3.679  10.934 -2.0912  1.1042 -2.6009
  575MOL0     H77617   3.726   3.823  10.697 -1.5640 -0.1166 -2.3829
  575MOL0     H77618   3.551   3.826  10.731 -2.4904 -2.7564  1.2168
  575MOL0     H77619   3.703   3.579  10.630 -0.1583 -0.8570 -1.1840
  575MOL0     H77620   3.544   3.569  10.683  1.5812  0.1661  1.2279
  575MOL0     H77621   3.468   3.806  10.351 -2.7384 -2.6288  0.8410
  575MOL0     H77622   3.954   3.448  10.953 -0.0843 -0.0171  0.4280
  575MOL0     H77623   4.246   3.288  11.022  1.0256 -2.9919  0.2362
  575MOL0     H77624   4.082   3.282  11.036  1.0258 -0.7350  0.3209
  575MOL0     H77625   4.157   3.204  10.896  1.4211  0.4578 -1.0026
  576MOL0     O77626   0.118   5.543  10.457  0.5164 -0.3264  0.1891
  576MOL0     C77627   0.119   5.455  10.369  0.5349  0.0815  0.4580
  576MOL0     O77628   0.223   5.397  10.313 -0.4649 -0.4327  0.5979
  576MOL0     C77629   0.352   5.406  10.363  0.2335  0.2200  0.8846
  576MOL0     C77630   0.445   5.324  10.295  0.7069  0.6153 -0.1215
  576MOL0     C77631   0.579   5.313  10.336  1.1004  0.0524 -0.0650
  576MOL0     C77632   0.622   5.377  10.454  0.5032 -0.5297  0.1230
  576MOL0     O77633   0.757   5.382  10.483  0.5279 -0.1806  0.2736
  576MOL0     C77634   0.788   5.416  10.616 -1.4450 -0.2639  0.5231
  576MOL0     C77635   0.938   5.375  10.634  0.3876  0.1312  0.7373
  576MOL0     C77636   0.982   5.424  10.769  0.9728  0.0501 -0.2004
  576MOL0     C77637   1.140   5.420  10.778  0.3205 -0.6787  0.8514
  576MOL0     C77638   1.186   5.443  10.931 -0.5240  0.3943 -0.3194
  576MOL0     C77639   1.341   5.456  10.952  0.7000  0.9157 -0.4228
  576MOL0     C77640   1.421   5.351  10.881  0.2736 -0.1579  0.1454
  576MOL0     C77641   1.570   5.382  10.873 -0.6196  0.3482  0.8182
  576MOL0     N77642   1.632   5.373  11.011  0.2641  0.1465  0.5096
  576MOL0     C77643   1.742   5.288  11.033 -0.8359 -0.6367 -0.4581
  576MOL0     C77644   1.797   5.334  11.144  0.2269  0.3868 -0.5575
  576MOL0     C77645   1.916   5.261  11.201 -0.4191  0.4379  0.4502
  576MOL0     C77646   2.051   5.346  11.185  0.6113 -0.7557 -1.3596
  576MOL0     C77647   2.172   5.257  11.200  0.1823  0.8572  0.2849
  576MOL0     C77648   2.301   5.328  11.182  0.9054 -0.3503 -0.2566
  576MOL0     O77649   2.414   5.244  11.168 -0.4099  0.4331 -0.2640
  576MOL0     C77650   2.545   5.285  11.196 -0.4495  0.4254 -0.3904
  576MOL0     C77651   2.652   5.202  11.157  0.5566  0.4525 -0.2408
  576MOL0     C77652   2.783   5.238  11.151  0.2049  0.0995 -0.2863
  576MOL0     C77653   2.823   5.375  11.196  0.0801  0.4834  0.5400
  576MOL0     C77654   2.960   5.419  11.185 -0.8042 -0.4740  1.0186
  576MOL0     O77655   3.050   5.335  11.136 -0.0138  0.7175 -0.0850
  576MOL0     C77656   3.182   5.377  11.127 -0.2766  0.5701 -1.4034
  576MOL0     C77657   3.219   5.466  11.022  0.7760 -0.5093  0.9011
  576MOL0     C77658   3.349   5.500  11.010 -0.3584 -0.3103 -0.3885
  576MOL0     C77659   3.448   5.484  11.109  0.0182 -0.3742  0.7383
  576MOL0     O77660   3.585   5.511  11.087  0.4698 -0.1978 -0.2380
  576MOL0     C77661   3.611   5.623  10.990  0.0934 -0.1929 -0.4432
  576MOL0     C77662   3.749   5.683  11.015 -0.3313 -0.4809  0.0148
  576MOL0     C77663   3.854   5.580  10.984 -0.3667  0.7912 -0.0478
  576MOL0     C77664   3.983   5.652  11.009 -0.6256  0.1291 -0.7421
  576MOL0     C77665   4.103   5.566  10.964  0.3107 -0.4732  0.0278
  576MOL0     C77666   4.174   5.631  10.852  0.2311  0.9557  0.7726
  576MOL0     C77667   4.252   5.759  10.897  0.2326  0.1194  0.3517
  576MOL0     C77668   4.271   5.860  10.786  0.1639  0.7264 -0.0652
  576MOL0    Cl77669   4.334   5.790  10.630 -0.3357  0.1723  0.3899
  576MOL0     C77670   3.408   5.403  11.222  0.3527 -0.2588  0.3916
  576MOL0     C77671   3.277   5.354  11.232  0.0259 -0.6407 -0.1556
  576MOL0     O77672   2.992   5.538  11.204  0.2970  0.1230 -0.2729
  576MOL0     C77673   2.718   5.451  11.242 -0.5837  0.1534 -0.3895
  576MOL0     C77674   2.590   5.410  11.246  0.5708 -0.3107 -0.0194
  576MOL0     N77675   1.723   5.446  11.190  0.3532  0.3085 -0.1254
  576MOL0     N77676   1.631   5.472  11.105  0.4979 -0.0917 -0.1082
  576MOL0     C77677   0.526   5.454  10.526  0.7098 -0.4610  0.8271
  576MOL0     C77678   0.395   5.475  10.470 -0.8701  0.0991 -0.1080
  576MOL0     C77679  -0.018   5.425  10.321 -0.5261  0.7747 -0.5538
  576MOL0     C77680  -0.130   5.469  10.396  0.0347 -1.0173 -0.0153
  576MOL0     C77681  -0.263   5.445  10.372  1.0106 -0.2449 -0.6326
  576MOL0     C77682  -0.292   5.373  10.257 -0.1094 -0.4886  0.4157
  576MOL0     O77683  -0.421   5.334  10.234  0.2474 -0.1649  0.2832
  576MOL0     C77684  -0.461   5.311  10.097  0.6129 -0.7294  0.4992
  576MOL0     C77685  -0.615   5.342  10.105 -1.1315 -0.4883 -0.4779
  576MOL0     C77686  -0.674   5.340   9.967  0.3590 -0.1812  0.2114
  576MOL0     C77687  -0.827   5.377   9.960 -0.6014 -0.2238 -0.1904
  576MOL0     C77688  -0.844   5.521   9.998  0.5118 -0.5411 -0.2825
  576MOL0     C77689  -0.860   5.637  10.044  0.3899  0.5769  0.6717
  576MOL0     C77690  -0.185   5.338  10.172  0.6835  0.0298 -0.4454
  576MOL0     C77691  -0.054   5.363  10.198 -0.3715  0.7159  0.9103
  576MOL0     C77692   0.051   5.343  10.085 -0.3160 -0.6257  0.5254
  576MOL0     H77693   0.406   5.260  10.216  0.4463 -0.6980  1.0327
  576MOL0     H77694   0.652   5.255  10.279 -1.4695  0.2314 -3.9292
  576MOL0     H77695   0.776   5.525  10.615 -1.8213 -0.3060  0.3216
  576MOL0     H77696   0.718   5.380  10.692 -0.6411 -0.6754  1.0794
  576MOL0     H77697   1.006   5.419  10.561 -0.0019 -1.7628 -0.8327
  576MOL0     H77698   0.947   5.266  10.635  1.6810  0.2247  0.4848
  576MOL0     H77699   0.947   5.356  10.847  2.3907  1.1908  1.5234
  576MOL0     H77700   0.942   5.522  10.796  0.2301  0.2221 -1.7758
  576MOL0     H77701   1.175   5.322  10.744  2.5215  0.3706 -0.1468
  576MOL0     H77702   1.186   5.503  10.722  1.5146  0.3807  3.2595
  576MOL0     H77703   1.129   5.526  10.973 -0.8454 -0.3323  0.7283
  576MOL0     H77704   1.160   5.348  10.979 -0.0408  0.8604  0.8910
  576MOL0     H77705   1.365   5.560  10.931  0.6304  1.1575  0.6669
  576MOL0     H77706   1.358   5.445  11.060 -2.7969  2.7573  0.4378
  576MOL0     H77707   1.378   5.332  10.782  1.0104 -0.8675 -0.0502
  576MOL0     H77708   1.408   5.262  10.943  0.8706 -1.4168 -1.4818
  576MOL0     H77709   1.618   5.303  10.815 -2.6732 -1.9407  2.0684
  576MOL0     H77710   1.594   5.482  10.836  3.2758 -0.9042 -0.5846
  576MOL0     H77711   1.783   5.207  10.974 -0.3033 -1.3454  0.8657
  576MOL0     H77712   1.904   5.239  11.307  0.7871 -0.1113  0.4912
  576MOL0     H77713   1.931   5.166  11.148  0.8672  1.3675 -0.9477
  576MOL0     H77714   2.046   5.391  11.085 -0.7456  0.2848 -0.8529
  576MOL0     H77715   2.046   5.427  11.257  1.5576 -2.1730  0.3951
  576MOL0     H77716   2.161   5.175  11.129 -0.5673  0.0198  1.3350
  576MOL0     H77717   2.174   5.205  11.296  1.2355  0.2935 -0.0162
  576MOL0     H77718   2.314   5.379  11.278 -2.0485 -4.5017  2.6650
  576MOL0     H77719   2.285   5.390  11.094 -0.7815  1.1395  1.0391
  576MOL0     H77720   2.632   5.098  11.133  0.9166 -0.6971  3.6697
  576MOL0     H77721   2.861   5.179  11.105 -2.4832 -1.2289 -3.4687
  576MOL0     H77722   3.155   5.494  10.939 -0.4850 -2.0091  1.3136
  576MOL0     H77723   3.368   5.545  10.913 -1.3782 -2.4610 -1.6395
  576MOL0     H77724   3.605   5.583  10.888 -0.1824  2.1468 -1.3991
  576MOL0     H77725   3.537   5.701  11.008 -0.4180 -0.4620 -1.3054
  576MOL0     H77726   3.758   5.768  10.946  0.6606  1.0632  1.9687
  576MOL0     H77727   3.746   5.724  11.116 -2.3945  2.2297 -1.0036
  576MOL0     H77728   3.838   5.490  11.045  1.0336  0.4099 -0.2086
  576MOL0     H77729   3.851   5.559  10.877 -1.1208  0.7447 -0.0196
  576MOL0     H77730   4.003   5.673  11.115  1.0316 -1.8375 -0.5957
  576MOL0     H77731   3.987   5.752  10.965  2.0583  0.9005  0.9947
  576MOL0     H77732   4.065   5.466  10.938 -1.2530  0.4585 -1.4416
  576MOL0     H77733   4.174   5.558  11.047  1.0358 -1.5175 -0.6613
  576MOL0     H77734   4.246   5.564  10.805  0.9672  1.2139  1.5038
  576MOL0     H77735   4.108   5.651  10.767 -1.2099  0.6025  1.7583
  576MOL0     H77736   4.351   5.725  10.929 -0.5000 -0.3622  2.2485
  576MOL0     H77737   4.203   5.804  10.984  0.0099 -0.7278  0.6757
  576MOL0     H77738   4.178   5.911  10.760 -0.0249  1.5482  2.0271
  576MOL0     H77739   4.341   5.941  10.812 -0.0829  1.1771 -0.7782
  576MOL0     H77740   3.488   5.394  11.294 -1.4093 -1.0307  2.3336
  576MOL0     H77741   3.235   5.287  11.306 -0.3084 -0.1499  0.1024
  576MOL0     H77742   2.754   5.543  11.287  0.5639 -0.1992 -0.5450
  576MOL0     H77743   2.515   5.480  11.283  0.4284 -0.2653 -0.3880
  576MOL0     H77744   0.553   5.508  10.617  0.6084 -0.9569  1.1549
  576MOL0     H77745   0.336   5.545  10.529 -0.1350  0.5784  0.0672
  576MOL0     H77746  -0.117   5.541  10.476 -2.6587  0.4338 -0.7808
  576MOL0     H77747  -0.334   5.469  10.450  0.1896 -2.9015 -0.4522
  576MOL0     H77748  -0.444   5.211  10.056  0.1315 -1.2343  1.5169
  576MOL0     H77749  -0.410   5.375  10.024 -0.4166  0.3397  0.6738
  576MOL0     H77750  -0.621   5.442  10.149  1.7029 -0.7178  0.5875
  576MOL0     H77751  -0.659   5.265  10.170 -2.0155 -0.2026 -0.7268
  576MOL0     H77752  -0.658   5.246   9.914 -3.6745 -1.7668  1.4481
  576MOL0     H77753  -0.618   5.415   9.909 -1.2120 -1.3131 -2.9962
  576MOL0     H77754  -0.870   5.360   9.861  1.0229  1.5581 -1.2576
  576MOL0     H77755  -0.876   5.314  10.035 -0.6665 -0.3974 -0.3792
  576MOL0     H77756  -0.868   5.739  10.077  0.9412  1.6027 -2.1076
  576MOL0     H77757  -0.213   5.291  10.078 -0.9466  2.4119 -1.2369
  576MOL0     H77758   0.004   5.326   9.988  0.9302 -0.4148 -0.1377
  576MOL0     H77759   0.114   5.432  10.074  1.8341 -1.9065  1.7029
  576MOL0     H77760   0.112   5.255  10.107  1.4477  0.6584  0.9931
  577MOL0     O77761  10.811  10.881   9.019 -0.4121  0.7859 -0.2547
  577MOL0     C77762  10.755  10.777   9.030 -0.5023 -0.3528 -0.1095
  577MOL0     O77763  10.811  10.661   9.065 -0.5549  0.1438 -0.2665
  577MOL0     C77764  10.938  10.657   9.119 -0.1228 -0.8533 -0.9003
  577MOL0     C77765  11.032  10.571   9.067 -0.0807  0.5523  0.2237
  577MOL0     C77766  11.164  10.570   9.106 -0.5716  0.7749 -0.2189
  577MOL0     C77767  11.204  10.647   9.216  0.2350  0.0064  0.0388
  577MOL0     O77768  11.333  10.625   9.260  0.1420  0.0126 -0.4072
  577MOL0     C77769  11.387  10.692   9.377  0.3417  0.0103 -0.2056
  577MOL0     C77770  11.528  10.633   9.400  1.0994 -0.9164 -0.2243
  577MOL0     C77771  11.621  10.672   9.290 -0.6218  0.1857  0.7257
  577MOL0     C77772  11.765  10.627   9.326  0.0970  0.1962 -0.2416
  577MOL0     C77773  11.857  10.644   9.208 -0.2719  0.5644  0.6690
  577MOL0     C77774  11.905  10.785   9.177  0.0750  0.2135  0.2145
  577MOL0     C77775  11.939  10.862   9.306  0.1347  0.3925  0.1858
  577MOL0     C77776  12.006  10.991   9.276 -0.3953 -0.3368 -0.3789
  577MOL0     N77777  12.142  10.967   9.227 -0.3255 -0.1830 -0.7091
  577MOL0     C77778  12.179  10.960   9.094  0.4885 -1.0837  0.3339
  577MOL0     C77779  12.308  10.929   9.095 -0.3095 -1.2787 -0.8973
  577MOL0     C77780  12.398  10.899   8.981 -0.0973 -0.3208 -0.2043
  577MOL0     C77781  12.546  10.947   9.001  0.5975  1.2224  0.6388
  577MOL0     C77782  12.622  10.919   8.871  0.2718 -0.3612 -0.2380
  577MOL0     C77783  12.762  10.989   8.870  0.7235  0.4188  0.2576
  577MOL0     O77784  12.835  10.964   8.986  0.2463 -0.7261 -0.1360
  577MOL0     C77785  12.968  11.003   8.975  0.8303 -0.0133 -0.1143
  577MOL0     C77786  12.999  11.140   8.954 -0.1052 -0.9768 -0.0509
  577MOL0     C77787  13.135  11.180   8.957  0.1834  0.0688  0.7091
  577MOL0     C77788  13.238  11.087   8.974 -0.4076 -0.5707  0.6269
  577MOL0     C77789  13.382  11.125   8.986  0.9707  0.8302  0.8705
  577MOL0     O77790  13.471  11.021   9.001  0.4090 -0.6070  0.4583
  577MOL0     C77791  13.608  11.054   9.007  0.1405  0.5312 -0.7231
  577MOL0     C77792  13.681  10.987   9.106  0.4896 -0.3351  0.1461
  577MOL0     C77793  13.817  11.005   9.124  0.8457 -0.7308 -0.4428
  577MOL0     C77794  13.890  11.090   9.040  0.2612  0.9006  0.0397
  577MOL0     O77795  14.020  11.125   9.045  0.3143  0.1080 -0.2512
  577MOL0     C77796  14.086  11.088   9.165 -0.3696  0.7155  0.1369
  577MOL0     C77797  14.227  11.133   9.154  0.5932 -0.2873  0.2385
  577MOL0     C77798  14.313  11.024   9.074  0.4295 -0.2015 -0.2505
  577MOL0     C77799  14.457  11.062   9.092  0.0893 -0.5030 -0.0018
  577MOL0     C77800  14.539  10.990   8.992 -0.4729  0.7093 -0.4964
  577MOL0     C77801  14.686  11.025   9.029  0.0539 -0.1293  0.2698
  577MOL0     C77802  14.777  10.971   8.916 -0.1320 -0.2858 -0.8047
  577MOL0     C77803  14.907  11.050   8.928  0.0800 -0.0228  0.4334
  577MOL0    Cl77804  14.988  11.039   9.094  0.2317 -0.3261  0.2955
  577MOL0     C77805  13.818  11.149   8.927  0.4986  1.1257 -0.3586
  577MOL0     C77806  13.680  11.137   8.915 -1.1317  0.8935 -0.0397
  577MOL0     O77807  13.399  11.240   9.003 -0.1591 -0.2543 -0.1424
  577MOL0     C77808  13.201  10.950   8.976 -0.5137 -0.1492 -0.3056
  577MOL0     C77809  13.070  10.914   8.981 -0.0468  0.3211  0.0786
  577MOL0     N77810  12.353  10.937   9.231  0.1928 -0.0555 -0.1144
  577MOL0     N77811  12.250  10.941   9.302 -0.1583 -0.6482  0.1739
  577MOL0     C77812  11.117  10.737   9.273  0.6742 -0.5176  0.5528
  577MOL0     C77813  10.978  10.735   9.233  0.1536 -0.5659  0.4699
  577MOL0     C77814  10.621  10.767   8.974 -0.1762 -0.1199 -0.5430
  577MOL0     C77815  10.579  10.638   8.949  0.4245 -0.5671  0.3589
  577MOL0     C77816  10.447  10.609   8.926  0.5134  0.3753  0.3960
  577MOL0     C77817  10.354  10.717   8.900  0.2932 -0.3435 -0.1549
  577MOL0     O77818  10.220  10.698   8.878  0.1242 -0.0223  0.5058
  577MOL0     C77819  10.163  10.575   8.924 -0.7607  0.1061  0.9276
  577MOL0     C77820  10.014  10.573   8.925  0.5698 -0.1536  0.7549
  577MOL0     C77821   9.933  10.631   8.807 -0.1576  0.3061 -1.0170
  577MOL0     C77822   9.796  10.570   8.774 -0.0158 -0.4636 -0.1612
  577MOL0     C77823   9.699  10.598   8.883  0.4015  0.4288  0.3920
  577MOL0     C77824   9.619  10.613   8.977  1.0577  0.1159  0.3681
  577MOL0     C77825  10.400  10.853   8.904 -0.2487  0.9681 -0.8261
  577MOL0     C77826  10.526  10.876   8.949 -0.5606  0.6431  1.0917
  577MOL0     C77827  10.570  11.026   8.955 -0.1164  0.5691  0.5311
  577MOL0     H77828  10.995  10.494   9.000 -2.9523 -1.1959  3.4852
  577MOL0     H77829  11.230  10.489   9.074  0.0196  1.0373  0.3345
  577MOL0     H77830  11.398  10.801   9.374  0.1726  0.0153 -0.7505
  577MOL0     H77831  11.325  10.681   9.467  2.8124  2.0540  1.9101
  577MOL0     H77832  11.508  10.525   9.397 -2.8415 -0.3787 -3.7356
  577MOL0     H77833  11.567  10.663   9.497 -0.5650  0.4612  0.0741
  577MOL0     H77834  11.620  10.779   9.270 -0.7599 -0.1224 -1.1321
  577MOL0     H77835  11.598  10.613   9.200  1.1154 -0.1980  0.5053
  577MOL0     H77836  11.798  10.665   9.423  0.8392 -1.0518  0.0207
  577MOL0     H77837  11.762  10.518   9.332  1.1524  0.1390 -0.6749
  577MOL0     H77838  11.935  10.570   9.228 -1.8769 -1.1615  0.8880
  577MOL0     H77839  11.806  10.615   9.116  0.4465 -0.0963  0.4644
  577MOL0     H77840  11.995  10.775   9.116  0.3741  0.2877  0.6409
  577MOL0     H77841  11.829  10.841   9.121  1.0878 -0.5330 -1.9979
  577MOL0     H77842  12.004  10.798   9.365 -1.1901 -1.0901  0.0974
  577MOL0     H77843  11.842  10.885   9.351 -1.2998 -1.4511 -1.7391
  577MOL0     H77844  11.953  11.059   9.208  0.0649 -1.0756 -1.4977
  577MOL0     H77845  12.024  11.040   9.372  2.4782  1.8039 -1.8272
  577MOL0     H77846  12.122  10.965   9.001  1.4816 -0.2950 -0.2455
  577MOL0     H77847  12.387  10.793   8.956  4.1749 -0.3061 -3.3867
  577MOL0     H77848  12.366  10.950   8.889  2.4064 -0.5184 -1.2641
  577MOL0     H77849  12.552  11.052   9.031  2.5241  0.5937  2.7033
  577MOL0     H77850  12.594  10.884   9.076 -1.9030 -1.4415  0.2038
  577MOL0     H77851  12.561  10.950   8.786 -1.6958 -1.5884  0.6533
  577MOL0     H77852  12.633  10.812   8.850  0.7908  0.2839 -3.9456
  577MOL0     H77853  12.746  11.095   8.848 -0.6869 -0.5000 -4.1274
  577MOL0     H77854  12.817  10.955   8.782 -2.1609 -0.3814 -1.3786
  577MOL0     H77855  12.922  11.215   8.967 -0.8278 -1.9277  1.5831
  577MOL0     H77856  13.153  11.287   8.963  0.4099  0.1824 -1.1392
  577MOL0     H77857  13.618  10.930   9.173 -2.4643  3.6891  1.1730
  577MOL0     H77858  13.873  10.949   9.199  0.4120 -0.8537 -0.2020
  577MOL0     H77859  14.049  11.146   9.250  0.1193  0.9534  0.1930
  577MOL0     H77860  14.074  10.983   9.192 -1.8769  0.7378 -0.3717
  577MOL0     H77861  14.232  11.232   9.106 -0.9332  0.6043  1.7866
  577MOL0     H77862  14.264  11.145   9.256  0.4300  0.9110  0.1713
  577MOL0     H77863  14.308  10.924   9.117  1.2356  0.1593  0.7351
  577MOL0     H77864  14.282  11.037   8.970 -0.6665 -0.6509  0.0111
  577MOL0     H77865  14.500  11.034   9.188  2.5399 -1.3429 -1.2524
  577MOL0     H77866  14.465  11.169   9.070 -3.7190 -0.1578 -0.4415
  577MOL0     H77867  14.531  11.034   8.892 -0.0531  3.3145  0.5441
  577MOL0     H77868  14.520  10.882   8.999 -2.9551  1.1882  3.3564
  577MOL0     H77869  14.697  11.134   9.027  0.4806 -0.1181  2.0112
  577MOL0     H77870  14.717  10.997   9.130 -0.8191 -0.1693  0.5390
  577MOL0     H77871  14.735  10.981   8.816 -1.6911 -2.3424 -0.4348
  577MOL0     H77872  14.806  10.869   8.942 -0.5469  0.0571  1.1444
  577MOL0     H77873  14.976  11.026   8.847 -2.2299 -3.0985 -0.8305
  577MOL0     H77874  14.894  11.156   8.902  3.0470 -0.3285 -3.2754
  577MOL0     H77875  13.864  11.210   8.850  1.6754  0.0191 -0.5715
  577MOL0     H77876  13.635  11.195   8.836 -0.0600  1.2849 -0.3874
  577MOL0     H77877  13.277  10.872   8.981 -0.9314 -0.4818  1.4682
  577MOL0     H77878  13.044  10.809   8.991  1.4071 -0.0682  0.0409
  577MOL0     H77879  11.145  10.812   9.346  1.6044  1.3776 -1.6010
  577MOL0     H77880  10.904  10.799   9.279  0.2985 -1.3886  1.9333
  577MOL0     H77881  10.645  10.555   8.972  0.7474 -1.2671 -2.7060
  577MOL0     H77882  10.424  10.503   8.927  0.9794  0.2624 -0.3611
  577MOL0     H77883  10.202  10.567   9.026  2.2454  1.4875 -0.0168
  577MOL0     H77884  10.193  10.486   8.868  1.8867  1.6755 -0.3187
  577MOL0     H77885   9.983  10.631   9.013 -0.2787  0.3724  0.1118
  577MOL0     H77886   9.987  10.468   8.941  0.7811 -0.1395  1.2524
  577MOL0     H77887   9.990  10.638   8.714  0.2123 -0.0654 -0.8204
  577MOL0     H77888   9.915  10.734   8.839 -1.1573 -0.9066  2.9763
  577MOL0     H77889   9.752  10.607   8.682 -1.5387  1.1456  1.1446
  577MOL0     H77890   9.804  10.462   8.759  1.5306 -0.2554 -1.0612
  577MOL0     H77891   9.544  10.623   9.052 -0.4892 -1.5856 -0.8679
  577MOL0     H77892  10.339  10.941   8.889 -0.1922  1.3268  0.8419
  577MOL0     H77893  10.505  11.072   8.879  0.4528 -1.9589 -1.6751
  577MOL0     H77894  10.549  11.076   9.049  1.3433  0.7881  0.7527
  577MOL0     H77895  10.676  11.040   8.935 -0.0538 -1.3680 -0.8042
  578MOL0     O77896   1.934  10.006   8.463 -0.1542 -0.0734  0.2796
  578MOL0     C77897   1.891  10.079   8.375  0.2993  0.1301  0.1343
  578MOL0     O77898   1.947  10.185   8.329  0.0943  0.1717 -0.1247
  578MOL0     C77899   2.054  10.234   8.393 -0.0039 -0.7148  1.2985
  578MOL0     C77900   2.173  10.248   8.325  0.0313  0.0043  0.2050
  578MOL0     C77901   2.298  10.262   8.398  0.4275 -0.0186  0.8289
  578MOL0     C77902   2.294  10.277   8.532  0.4672 -0.2134  0.2439
  578MOL0     O77903   2.403  10.306   8.612 -0.3839  0.1628 -0.3295
  578MOL0     C77904   2.504  10.207   8.598 -0.4607  0.3429 -0.3010
  578MOL0     C77905   2.600  10.223   8.713  1.0240  0.5433  0.2863
  578MOL0     C77906   2.718  10.132   8.700 -0.9616 -0.0942  0.1516
  578MOL0     C77907   2.837  10.198   8.791 -0.4171  0.0400  0.2948
  578MOL0     C77908   2.826  10.191   8.944 -0.9957  0.5609 -0.5015
  578MOL0     C77909   2.871  10.055   9.006  0.1259 -0.0544  0.2655
  578MOL0     C77910   2.878  10.058   9.159 -0.3850 -0.6571 -0.0088
  578MOL0     C77911   2.900   9.927   9.224 -0.2207  0.2934  0.4519
  578MOL0     N77912   3.031   9.867   9.190  0.8251  0.1782  0.4329
  578MOL0     C77913   3.159   9.901   9.239  0.3469  0.1511 -0.6746
  578MOL0     C77914   3.248   9.823   9.170  0.3880  0.1742  0.1463
  578MOL0     C77915   3.400   9.821   9.178  0.3070  0.7645  0.0663
  578MOL0     C77916   3.459   9.742   9.294  0.1893  0.3762 -0.0312
  578MOL0     C77917   3.616   9.749   9.293  0.2056  0.1375 -0.4644
  578MOL0     C77918   3.670   9.679   9.170 -0.4071  0.0221 -0.0337
  578MOL0     O77919   3.807   9.645   9.197 -0.0859  0.3211  0.3568
  578MOL0     C77920   3.914   9.722   9.169  1.0076 -0.2044  0.5110
  578MOL0     C77921   3.910   9.841   9.088  0.4323 -0.5122  0.8584
  578MOL0     C77922   4.023   9.916   9.056 -0.0119 -0.5292  0.0779
  578MOL0     C77923   4.150   9.876   9.099  0.5534 -0.3812  0.3021
  578MOL0     C77924   4.276   9.941   9.052 -0.3041  0.0623 -0.3857
  578MOL0     O77925   4.399   9.898   9.099  0.4343  0.2290  0.1332
  578MOL0     C77926   4.507   9.958   9.042 -0.3184 -0.4991  0.1760
  578MOL0     C77927   4.537  10.090   9.074  0.2613 -0.5613 -0.8061
  578MOL0     C77928   4.661  10.150   9.038  0.0267 -0.6946  0.0324
  578MOL0     C77929   4.759  10.080   8.969  0.0814  0.5954  0.0926
  578MOL0     O77930   4.889  10.126   8.944  0.4098 -0.5991 -0.3210
  578MOL0     C77931   4.933  10.235   9.037 -0.4153 -0.1996 -0.0666
  578MOL0     C77932   5.075  10.264   9.042  0.1273 -0.3380 -0.0493
  578MOL0     C77933   5.139  10.340   8.926 -0.9025 -0.2369  0.8357
  578MOL0     C77934   5.145  10.252   8.798  0.5040 -0.0750  0.9243
  578MOL0     C77935   5.187  10.325   8.666 -0.3325 -0.3196  0.7767
  578MOL0     C77936   5.164  10.233   8.551 -0.1869 -0.4369  0.0923
  578MOL0     C77937   5.256  10.276   8.434 -0.8263 -0.6796  0.5665
  578MOL0     C77938   5.196  10.223   8.304 -0.3410 -0.5410  0.1604
  578MOL0    Cl77939   5.173  10.053   8.306 -0.1780  0.2456 -0.1429
  578MOL0     C77940   4.726   9.950   8.923  0.2183  0.3749 -0.6244
  578MOL0     C77941   4.602   9.891   8.962 -0.1979  0.1624 -0.4159
  578MOL0     O77942   4.259  10.028   8.974 -0.6810  0.3335  0.5738
  578MOL0     C77943   4.156   9.762   9.184 -0.7759  0.3705 -1.0957
  578MOL0     C77944   4.042   9.687   9.226 -0.4049 -0.2425 -0.9299
  578MOL0     N77945   3.168   9.754   9.081  0.0874  0.3613 -0.3863
  578MOL0     N77946   3.048   9.781   9.084 -0.4961  0.3490 -0.1414
  578MOL0     C77947   2.175  10.283   8.604 -0.4864 -0.1251 -0.5005
  578MOL0     C77948   2.051  10.266   8.531 -0.0771 -0.2277 -0.4898
  578MOL0     C77949   1.766  10.028   8.308 -0.0945 -0.8100 -1.0021
  578MOL0     C77950   1.765  10.049   8.171  0.7354 -0.3679 -0.0305
  578MOL0     C77951   1.652  10.000   8.100 -0.4190 -0.3184 -0.5087
  578MOL0     C77952   1.549   9.935   8.163  0.3210 -0.5218  0.6000
  578MOL0     O77953   1.447   9.886   8.078  0.0861  0.1300 -0.4245
  578MOL0     C77954   1.324   9.855   8.133  0.3665  0.1638  0.0040
  578MOL0     C77955   1.227   9.815   8.018 -0.7978 -0.5980 -0.2140
  578MOL0     C77956   1.107   9.757   8.080 -0.1207 -0.0407 -0.0083
  578MOL0     C77957   1.005   9.709   7.975  0.4531  0.2257 -0.1996
  578MOL0     C77958   0.869   9.728   8.035  0.6026 -1.0879  0.4886
  578MOL0     C77959   0.761   9.762   8.066 -0.5257  0.2227 -0.4079
  578MOL0     C77960   1.554   9.919   8.295 -0.3949 -0.2359 -0.2190
  578MOL0     C77961   1.669   9.955   8.375 -0.1747  0.4918  0.4191
  578MOL0     C77962   1.668   9.924   8.518  0.5533 -0.4498  0.4900
  578MOL0     H77963   2.186  10.233   8.218 -0.1667 -1.6946  0.4000
  578MOL0     H77964   2.394  10.245   8.350  1.1455 -3.9931  3.2648
  578MOL0     H77965   2.464  10.106   8.612  2.3422 -0.7236  0.8619
  578MOL0     H77966   2.560  10.215   8.505  0.2372  1.1714  0.1720
  578MOL0     H77967   2.543  10.207   8.805  0.9096 -1.9579 -0.1324
  578MOL0     H77968   2.635  10.326   8.712  0.4674  0.7365  0.3470
  578MOL0     H77969   2.747  10.128   8.595 -2.0998  1.9992 -0.2904
  578MOL0     H77970   2.694  10.032   8.737 -0.4331  0.5413  2.4101
  578MOL0     H77971   2.929  10.141   8.777 -1.0298 -0.5652 -1.6394
  578MOL0     H77972   2.844  10.301   8.756 -1.8131 -0.8255 -2.9994
  578MOL0     H77973   2.871  10.275   8.997  1.0537 -0.1298 -1.0407
  578MOL0     H77974   2.723  10.207   8.978 -0.8415  0.5735 -0.0344
  578MOL0     H77975   2.803   9.978   8.969 -1.9579  0.9535  1.8233
  578MOL0     H77976   2.974  10.038   8.972  0.2749  3.1414 -1.3006
  578MOL0     H77977   2.784  10.101   9.193  1.6933  2.4132  2.4689
  578MOL0     H77978   2.954  10.133   9.184 -1.2521 -0.3947  2.0228
  578MOL0     H77979   2.890   9.931   9.333  1.1149  1.3938  0.5702
  578MOL0     H77980   2.825   9.858   9.186  0.7529 -0.7843  0.4148
  578MOL0     H77981   3.182   9.976   9.314  1.4971  2.2461 -2.9827
  578MOL0     H77982   3.426   9.777   9.082 -2.2705  0.2179 -0.4686
  578MOL0     H77983   3.438   9.924   9.181 -1.0360  1.2534  2.2961
  578MOL0     H77984   3.428   9.791   9.388  0.3456  0.4120  0.0018
  578MOL0     H77985   3.430   9.637   9.290  1.9317 -0.3374  2.9062
  578MOL0     H77986   3.657   9.709   9.386 -0.0920  0.2987 -0.2624
  578MOL0     H77987   3.645   9.854   9.284 -1.3803  0.5108 -1.6086
  578MOL0     H77988   3.669   9.754   9.090 -0.1294 -2.2813 -2.3321
  578MOL0     H77989   3.611   9.592   9.139  1.1293 -0.0452 -3.1585
  578MOL0     H77990   3.822   9.872   9.033 -0.5323  0.1690  2.7091
  578MOL0     H77991   4.012   9.997   8.984  0.5507 -1.1585 -0.7205
  578MOL0     H77992   4.479  10.150   9.144  0.7489  0.8938 -1.6085
  578MOL0     H77993   4.686  10.248   9.075 -0.9723 -0.4161  0.0188
  578MOL0     H77994   4.873  10.322   9.007  1.2044  0.5024 -1.4465
  578MOL0     H77995   4.906  10.204   9.138 -2.0024 -0.5345 -0.5707
  578MOL0     H77996   5.093  10.326   9.131  1.5729 -0.2646 -0.3700
  578MOL0     H77997   5.134  10.175   9.067  2.7929  1.6035  1.0989
  578MOL0     H77998   5.081  10.432   8.912 -4.5036 -2.2346  1.4993
  578MOL0     H77999   5.246  10.359   8.944  0.6352 -5.2910 -1.1634
  578MOL0     H78000   5.050  10.205   8.771  0.1263  0.8545  0.6040
  578MOL0     H78001   5.216  10.171   8.818  1.7228  1.2350  2.1464
  578MOL0     H78002   5.295  10.335   8.680 -0.2348 -1.8831  1.4417
  578MOL0     H78003   5.134  10.420   8.653  1.7303  0.8870  0.7870
  578MOL0     H78004   5.178  10.129   8.580  1.3459 -0.0244  0.9871
  578MOL0     H78005   5.057  10.237   8.526 -1.2398 -0.5462  3.8902
  578MOL0     H78006   5.356  10.239   8.456 -0.9606  0.0847  2.6750
  578MOL0     H78007   5.272  10.384   8.428  0.8577 -0.9579 -0.7191
  578MOL0     H78008   5.101  10.273   8.285  1.7113  3.3558 -1.0447
  578MOL0     H78009   5.260  10.246   8.218 -2.9828 -0.9185 -2.0296
  578MOL0     H78010   4.798   9.896   8.862 -1.5921 -0.1581 -2.3871
  578MOL0     H78011   4.573   9.789   8.941 -2.5482  0.5585  0.5458
  578MOL0     H78012   4.247   9.721   9.227 -0.0727  1.1600 -1.7736
  578MOL0     H78013   4.052   9.599   9.289 -1.7360 -0.3537 -0.8392
  578MOL0     H78014   2.180  10.302   8.710 -1.7452 -1.5706 -0.1497
  578MOL0     H78015   1.961  10.259   8.592  0.1685 -1.6345 -0.2437
  578MOL0     H78016   1.848  10.098   8.122  1.5377 -0.0306  1.6011
  578MOL0     H78017   1.648  10.015   7.993 -0.7162  0.2856 -0.4158
  578MOL0     H78018   1.286   9.947   8.179 -2.0272 -0.2945 -0.9342
  578MOL0     H78019   1.329   9.776   8.208 -3.2318  1.4863  1.8817
  578MOL0     H78020   1.288   9.746   7.959 -2.1758 -2.4468  0.4344
  578MOL0     H78021   1.206   9.904   7.958  0.6941  2.2160  3.0986
  578MOL0     H78022   1.060   9.836   8.140  1.9315  1.0350  0.2463
  578MOL0     H78023   1.125   9.663   8.133  1.7006 -0.1825 -0.8175
  578MOL0     H78024   1.001   9.780   7.892 -2.4070  3.7345  2.5843
  578MOL0     H78025   1.018   9.605   7.945  0.3560  0.4311 -0.9836
  578MOL0     H78026   0.658   9.786   8.086 -1.5635 -1.5099 -3.0774
  578MOL0     H78027   1.483   9.860   8.353  1.7064 -1.4685  1.2365
  578MOL0     H78028   1.753   9.859   8.542  3.3741  1.8356 -2.3780
  578MOL0     H78029   1.664  10.013   8.582 -0.0011  2.1721 -2.8922
  578MOL0     H78030   1.581   9.863   8.546  0.4041 -0.0763  0.8621
  579MOL0     O78031   5.794   2.348   3.164 -0.4712 -0.6351 -0.5074
  579MOL0     C78032   5.781   2.248   3.096  0.0309  0.5096 -0.2240
  579MOL0     O78033   5.877   2.189   3.020 -0.0541  0.1790  0.8515
  579MOL0     C78034   5.981   2.275   2.996  0.9491 -0.3013 -0.4647
  579MOL0     C78035   6.007   2.333   2.873  0.0287  0.4965  0.3764
  579MOL0     C78036   6.129   2.416   2.854  0.6803  0.6270 -0.1933
  579MOL0     C78037   6.228   2.431   2.959  0.7146 -0.1799  0.5880
  579MOL0     O78038   6.341   2.497   2.924  0.0878  0.4292  0.3460
  579MOL0     C78039   6.434   2.488   3.031  0.0626 -0.0944 -0.2275
  579MOL0     C78040   6.564   2.569   3.000  0.1221 -0.5125  0.1220
  579MOL0     C78041   6.640   2.513   2.876 -0.1731  0.8133 -0.0587
  579MOL0     C78042   6.790   2.525   2.902 -0.1840 -0.4058  0.0189
  579MOL0     C78043   6.869   2.491   2.782 -0.9459 -0.5198  0.4185
  579MOL0     C78044   7.019   2.510   2.785 -0.0209 -0.3598 -0.2766
  579MOL0     C78045   7.082   2.433   2.680 -0.2897  0.0480  0.3408
  579MOL0     C78046   7.085   2.276   2.682 -0.4241 -0.4453  0.3701
  579MOL0     N78047   7.202   2.218   2.616 -0.8486 -0.8871 -0.8987
  579MOL0     C78048   7.326   2.217   2.670  0.5956 -0.3119 -0.5075
  579MOL0     C78049   7.402   2.150   2.592  0.3153  0.1809  0.5051
  579MOL0     C78050   7.554   2.123   2.614 -0.9407 -0.3761  0.3565
  579MOL0     C78051   7.616   2.053   2.494  1.0170 -0.4241  0.1802
  579MOL0     C78052   7.768   2.055   2.509  0.4958 -0.0268 -0.2438
  579MOL0     C78053   7.832   1.982   2.393 -0.4929 -0.2684 -1.2538
  579MOL0     O78054   7.972   1.978   2.424 -0.0932  0.2184  0.2069
  579MOL0     C78055   8.056   1.905   2.338 -0.2790  0.2603 -0.0948
  579MOL0     C78056   8.194   1.904   2.375  0.1276 -1.0980 -0.9608
  579MOL0     C78057   8.296   1.845   2.299 -0.5126 -0.3445 -0.3401
  579MOL0     C78058   8.255   1.785   2.168  0.7870 -0.0567 -0.3424
  579MOL0     C78059   8.352   1.721   2.085 -0.0943 -0.2467  0.7832
  579MOL0     O78060   8.479   1.693   2.138 -0.6174 -0.4139  0.1946
  579MOL0     C78061   8.573   1.646   2.055  0.0936  0.1781  0.7691
  579MOL0     C78062   8.638   1.526   2.086 -0.1814  0.0145 -0.1339
  579MOL0     C78063   8.748   1.492   2.007  0.0318  0.7365 -0.8488
  579MOL0     C78064   8.800   1.569   1.910  0.8599 -1.0462  0.0663
  579MOL0     O78065   8.923   1.525   1.865  0.3536 -0.2328 -0.7391
  579MOL0     C78066   9.022   1.607   1.804  0.7672 -0.4161 -0.0173
  579MOL0     C78067   9.146   1.515   1.783 -0.1847  0.1006 -0.3120
  579MOL0     C78068   9.245   1.576   1.684 -0.7034  0.4345  0.9429
  579MOL0     C78069   9.375   1.496   1.659  0.8239 -0.7836 -0.1680
  579MOL0     C78070   9.344   1.360   1.596  0.1897  0.3059  0.8009
  579MOL0     C78071   9.465   1.273   1.604 -0.2239  0.1219  0.1199
  579MOL0     C78072   9.444   1.149   1.526  0.2808  0.1482  0.2014
  579MOL0     C78073   9.559   1.045   1.557  0.8665 -0.1717 -0.0993
  579MOL0    Cl78074   9.717   1.113   1.495  0.0417  0.1550 -0.0315
  579MOL0     C78075   8.732   1.681   1.870  0.3662  0.4006 -0.7826
  579MOL0     C78076   8.614   1.717   1.940  0.0071  0.9513 -1.0040
  579MOL0     O78077   8.320   1.703   1.969  0.8216  0.2479 -0.5994
  579MOL0     C78078   8.118   1.786   2.137 -0.1827 -0.0001  0.2849
  579MOL0     C78079   8.021   1.848   2.221  0.3820  0.5867 -0.1932
  579MOL0     N78080   7.321   2.092   2.488 -1.0766 -0.0608 -1.1392
  579MOL0     N78081   7.200   2.132   2.505  0.8173 -0.0429  0.2431
  579MOL0     C78082   6.190   2.368   3.088 -0.5603 -0.0842  0.0650
  579MOL0     C78083   6.066   2.294   3.099 -0.0358  0.1863 -0.3842
  579MOL0     C78084   5.641   2.189   3.100 -0.8775  0.5140 -0.4357
  579MOL0     C78085   5.605   2.120   2.981  0.1479 -0.1040  0.1089
  579MOL0     C78086   5.482   2.056   2.971 -0.5191  0.3972  0.3940
  579MOL0     C78087   5.389   2.070   3.073 -0.2465  0.3085 -0.5537
  579MOL0     O78088   5.268   2.019   3.056  0.1767  0.1862  0.1597
  579MOL0     C78089   5.159   2.035   3.150 -0.4324 -0.0381  0.2164
  579MOL0     C78090   5.036   1.976   3.083 -0.3343  0.1251  0.6931
  579MOL0     C78091   4.949   2.072   3.013  0.0631  0.1053 -0.4082
  579MOL0     C78092   4.804   2.026   2.996  0.2494  0.1635  0.5907
  579MOL0     C78093   4.781   1.911   2.911 -0.4711  0.4676 -0.0341
  579MOL0     C78094   4.740   1.816   2.856 -0.0443 -0.1128 -0.0259
  579MOL0     C78095   5.425   2.143   3.189  0.7362 -0.0992 -0.2652
  579MOL0     C78096   5.553   2.194   3.205 -0.6372 -0.0551  0.1474
  579MOL0     C78097   5.580   2.269   3.328  0.4385  0.5515 -0.4533
  579MOL0     H78098   5.943   2.308   2.788  2.1819 -1.0167 -0.9085
  579MOL0     H78099   6.161   2.437   2.753  2.0060 -2.2653 -0.4790
  579MOL0     H78100   6.397   2.536   3.122  1.4945 -1.3819  1.1037
  579MOL0     H78101   6.477   2.390   3.050  2.4173  1.5754  4.8729
  579MOL0     H78102   6.635   2.556   3.082  1.0973 -2.4681 -0.9761
  579MOL0     H78103   6.540   2.675   2.991 -2.1624 -0.9190  0.8826
  579MOL0     H78104   6.611   2.559   2.781  0.9264  0.1037 -0.7571
  579MOL0     H78105   6.647   2.406   2.855  1.3431  0.6424  1.1304
  579MOL0     H78106   6.818   2.628   2.923  1.2222 -1.1522  2.1738
  579MOL0     H78107   6.821   2.460   2.985  0.2611  0.2050  0.3360
  579MOL0     H78108   6.846   2.389   2.749 -0.5711 -0.1363 -1.1468
  579MOL0     H78109   6.845   2.565   2.705 -0.6369 -0.7331  0.1122
  579MOL0     H78110   7.041   2.617   2.785 -1.9222  0.1074  1.5061
  579MOL0     H78111   7.064   2.473   2.878  0.9001  1.2700 -0.0322
  579MOL0     H78112   7.187   2.461   2.691 -0.7954  1.4141  2.2590
  579MOL0     H78113   7.046   2.468   2.583  0.9597 -0.6382 -0.4086
  579MOL0     H78114   7.091   2.234   2.783  0.7356  0.6186  0.7695
  579MOL0     H78115   6.996   2.250   2.624  1.4024 -0.5068 -2.5646
  579MOL0     H78116   7.352   2.259   2.766 -0.1008  1.5338 -1.0834
  579MOL0     H78117   7.613   2.215   2.621  1.3329 -1.7751  0.6006
  579MOL0     H78118   7.568   2.064   2.705  1.1524 -1.0556 -0.3595
  579MOL0     H78119   7.574   1.952   2.493  0.3543 -0.1563  0.5767
  579MOL0     H78120   7.580   2.105   2.404 -0.1498 -0.7545  0.4356
  579MOL0     H78121   7.806   2.013   2.603  0.0914  0.8686  0.3233
  579MOL0     H78122   7.799   2.160   2.506  0.7649 -0.1149 -2.1837
  579MOL0     H78123   7.812   2.040   2.302 -4.1893 -0.0245 -0.4335
  579MOL0     H78124   7.801   1.878   2.381  1.0356 -0.8682 -0.3331
  579MOL0     H78125   8.207   1.950   2.472  1.9568 -0.5871 -1.4002
  579MOL0     H78126   8.397   1.862   2.334  0.5594 -2.4791 -2.1483
  579MOL0     H78127   8.619   1.460   2.170 -2.4472 -0.0237 -0.6341
  579MOL0     H78128   8.803   1.400   2.029 -1.3824 -0.0287 -0.3510
  579MOL0     H78129   8.985   1.635   1.705 -1.8436  0.4732  1.0948
  579MOL0     H78130   9.056   1.688   1.869  1.5386 -3.0054  3.0516
  579MOL0     H78131   9.192   1.489   1.878 -0.0547 -1.8393 -0.8700
  579MOL0     H78132   9.090   1.429   1.745 -2.2524 -0.2873  3.1405
  579MOL0     H78133   9.194   1.583   1.588 -2.5167 -4.2939  1.2615
  579MOL0     H78134   9.288   1.673   1.711 -0.0140  0.2204  0.6683
  579MOL0     H78135   9.413   1.480   1.760 -5.3064 -0.1561  2.6657
  579MOL0     H78136   9.435   1.557   1.590 -2.3928  1.6533 -1.0540
  579MOL0     H78137   9.321   1.372   1.490 -0.6655 -3.6573  0.3617
  579MOL0     H78138   9.260   1.316   1.651 -0.1971 -0.4114 -0.3212
  579MOL0     H78139   9.554   1.334   1.584  1.8786 -2.0710  2.2007
  579MOL0     H78140   9.481   1.238   1.706 -1.9258 -1.1640 -0.0129
  579MOL0     H78141   9.444   1.165   1.418  0.7318 -0.3464  0.1254
  579MOL0     H78142   9.350   1.099   1.552  1.2560 -1.7356  0.2674
  579MOL0     H78143   9.566   1.038   1.666 -0.5304 -1.1125 -0.0445
  579MOL0     H78144   9.535   0.947   1.515 -2.0830  0.3630  0.1495
  579MOL0     H78145   8.764   1.733   1.780 -0.2552  0.5893 -0.9010
  579MOL0     H78146   8.551   1.803   1.918 -1.3869  0.2384  0.0689
  579MOL0     H78147   8.079   1.736   2.048  2.7056 -1.4344 -0.2918
  579MOL0     H78148   7.919   1.861   2.187 -0.1456 -0.2930  0.9933
  579MOL0     H78149   6.254   2.358   3.175  0.6928 -0.8317 -0.9045
  579MOL0     H78150   6.044   2.257   3.199 -1.7082  2.3742  0.1325
  579MOL0     H78151   5.672   2.098   2.899  0.9686 -0.3826  0.8462
  579MOL0     H78152   5.454   2.003   2.880 -1.7009 -0.0060  0.9708
  579MOL0     H78153   5.151   2.143   3.167  0.7667  0.8731 -3.8536
  579MOL0     H78154   5.174   1.992   3.249  1.3367  2.6962  1.2749
  579MOL0     H78155   4.980   1.928   3.164 -1.9970  1.8910  0.6627
  579MOL0     H78156   5.067   1.893   3.019 -2.5039 -1.1164  1.1236
  579MOL0     H78157   4.994   2.094   2.916  0.2699 -1.2326 -0.6390
  579MOL0     H78158   4.947   2.167   3.068  1.8851  0.1931 -0.4177
  579MOL0     H78159   4.763   2.021   3.097 -0.8960 -0.0103  0.1342
  579MOL0     H78160   4.743   2.107   2.954  0.7492  0.8934  1.2415
  579MOL0     H78161   4.697   1.732   2.805 -0.2906 -0.0399  0.0594
  579MOL0     H78162   5.354   2.148   3.270  0.4048 -0.4573 -0.5289
  579MOL0     H78163   5.495   2.257   3.397 -0.6732 -1.1046 -2.0359
  579MOL0     H78164   5.676   2.248   3.375  0.5523  0.4752 -0.7197
  579MOL0     H78165   5.589   2.378   3.315 -1.4667  1.1364  2.1998
  580MOL0     O78166   0.170   4.852   2.767  0.1707  0.2689 -0.1670
  580MOL0     C78167   0.121   4.761   2.701  0.0119 -0.4357  0.0646
  580MOL0     O78168   0.193   4.683   2.617  0.2466  0.1073  0.4362
  580MOL0     C78169   0.321   4.730   2.595 -0.1987  0.3558  0.8483
  580MOL0     C78170   0.436   4.667   2.654 -0.1311 -0.9248 -0.0886
  580MOL0     C78171   0.571   4.721   2.626  0.2633  0.5533 -0.0836
  580MOL0     C78172   0.579   4.839   2.547  0.3148  0.8510  0.3644
  580MOL0     O78173   0.706   4.896   2.532  0.2226  0.4354 -0.2528
  580MOL0     C78174   0.730   4.988   2.432 -0.5480 -0.8000 -0.1084
  580MOL0     C78175   0.883   5.015   2.426  0.9274  0.2226  0.3428
  580MOL0     C78176   0.931   5.072   2.556 -0.6991  0.6312 -0.0469
  580MOL0     C78177   1.077   5.086   2.558  0.4193 -0.4808  0.2925
  580MOL0     C78178   1.131   5.133   2.690 -0.3300 -0.2697 -0.5785
  580MOL0     C78179   1.286   5.138   2.687 -0.1261 -1.1639  0.0824
  580MOL0     C78180   1.346   5.000   2.696 -0.2410  0.1928 -0.2190
  580MOL0     C78181   1.500   5.022   2.741  0.9130  0.8660  0.4743
  580MOL0     N78182   1.517   5.043   2.888 -0.2617 -0.0864 -0.1970
  580MOL0     C78183   1.569   4.946   2.976 -0.2169 -0.6760  0.0038
  580MOL0     C78184   1.560   5.004   3.095  0.2780 -0.8602 -0.2670
  580MOL0     C78185   1.624   4.934   3.212 -0.4220  0.0001 -0.0985
  580MOL0     C78186   1.781   4.909   3.184  0.6984 -0.0240  0.2864
  580MOL0     C78187   1.851   4.860   3.320  0.1848  0.4536  0.9946
  580MOL0     C78188   2.000   4.826   3.308 -0.7917  0.0317  0.3248
  580MOL0     O78189   2.060   4.952   3.350  0.2264  0.5310  1.2184
  580MOL0     C78190   2.200   4.954   3.365 -0.8120 -1.3454 -0.3774
  580MOL0     C78191   2.289   4.841   3.332 -0.5726 -0.6814  0.8074
  580MOL0     C78192   2.431   4.852   3.333  0.2943 -0.0179 -0.0001
  580MOL0     C78193   2.494   4.974   3.380  0.6526  0.4358  0.1435
  580MOL0     C78194   2.645   4.995   3.378 -0.4145  0.4900 -0.3142
  580MOL0     O78195   2.696   5.101   3.434 -0.4294 -0.4023  0.1612
  580MOL0     C78196   2.834   5.116   3.442  0.7128  0.1511  0.7830
  580MOL0     C78197   2.896   5.122   3.561  0.8080  0.9170 -1.1217
  580MOL0     C78198   3.033   5.141   3.561 -0.4650 -0.0334 -0.2643
  580MOL0     C78199   3.106   5.175   3.446  0.6634 -0.0910  0.3550
  580MOL0     O78200   3.246   5.169   3.464  0.8359  0.4208  0.1653
  580MOL0     C78201   3.341   5.139   3.364  0.1331  0.2629 -0.0363
  580MOL0     C78202   3.484   5.149   3.426  0.2951  0.1024  0.8877
  580MOL0     C78203   3.592   5.124   3.318  0.7750  0.5445 -0.9747
  580MOL0     C78204   3.697   5.026   3.372  0.0187  0.3493 -0.3993
  580MOL0     C78205   3.805   5.005   3.271  1.1400 -0.6838  0.3614
  580MOL0     C78206   3.896   5.129   3.270 -0.0854  0.7594 -0.2660
  580MOL0     C78207   4.042   5.081   3.221  0.4606  0.2954 -0.7356
  580MOL0     C78208   4.123   5.211   3.198  0.3682 -0.2674  0.2392
  580MOL0    Cl78209   4.174   5.278   3.357 -0.3859  0.1802 -0.0298
  580MOL0     C78210   3.042   5.170   3.324 -0.1581 -0.3609  0.6407
  580MOL0     C78211   2.903   5.144   3.320 -0.7665  0.4230 -0.1117
  580MOL0     O78212   2.705   4.903   3.328  0.0446  0.4087 -0.3219
  580MOL0     C78213   2.413   5.075   3.424  0.0368 -0.1100  0.7368
  580MOL0     C78214   2.269   5.069   3.411 -0.1189 -0.4202 -0.0916
  580MOL0     N78215   1.509   5.130   3.089  0.8233 -0.6010 -0.1422
  580MOL0     N78216   1.496   5.157   2.958 -0.3520 -0.3484 -0.6215
  580MOL0     C78217   0.464   4.893   2.488  0.0414 -0.0644 -0.3110
  580MOL0     C78218   0.333   4.836   2.504 -0.6744 -0.0225  0.1952
  580MOL0     C78219  -0.029   4.733   2.709 -1.0658 -0.0903 -1.2756
  580MOL0     C78220  -0.087   4.646   2.614 -0.3295 -0.7337  0.8022
  580MOL0     C78221  -0.225   4.636   2.576  0.1033 -0.9920 -0.2482
  580MOL0     C78222  -0.309   4.713   2.653  0.7010 -0.5292  0.6160
  580MOL0     O78223  -0.443   4.712   2.641  0.4534 -0.5605  0.1477
  580MOL0     C78224  -0.517   4.678   2.526 -0.4974 -0.5440 -0.0423
  580MOL0     C78225  -0.659   4.738   2.538  0.2231 -0.2697 -0.5628
  580MOL0     C78226  -0.766   4.670   2.447  0.1932  0.1939  0.3304
  580MOL0     C78227  -0.900   4.747   2.428  0.7731  0.1867  1.3931
  580MOL0     C78228  -0.967   4.783   2.551 -0.6135 -0.8931 -0.3070
  580MOL0     C78229  -1.025   4.822   2.654 -0.8036  0.8631 -0.1839
  580MOL0     C78230  -0.255   4.776   2.769  0.6936 -0.5541  0.7606
  580MOL0     C78231  -0.117   4.785   2.801  0.5147 -0.1342  0.3819
  580MOL0     C78232  -0.075   4.867   2.927 -0.1116  0.6262 -0.7962
  580MOL0     H78233   0.430   4.572   2.706  1.4265 -0.3601  1.2050
  580MOL0     H78234   0.658   4.674   2.671 -0.6194 -1.6679 -0.5542
  580MOL0     H78235   0.706   4.948   2.334 -1.0732 -1.3863  0.2577
  580MOL0     H78236   0.673   5.082   2.429 -2.4850 -1.8267  1.7438
  580MOL0     H78237   0.902   5.081   2.341 -0.8127 -0.2995 -0.4852
  580MOL0     H78238   0.936   4.921   2.413  0.5160  0.0474 -0.0548
  580MOL0     H78239   0.895   5.013   2.641 -3.5414  0.8290 -0.9979
  580MOL0     H78240   0.882   5.169   2.568  0.9885  2.0782 -3.4855
  580MOL0     H78241   1.116   4.986   2.537 -2.7919 -1.5882 -0.8930
  580MOL0     H78242   1.098   5.148   2.471 -0.3131 -0.4768  0.1137
  580MOL0     H78243   1.102   5.236   2.713  3.6475  1.3200 -1.8753
  580MOL0     H78244   1.108   5.067   2.773  0.6581  1.1998  0.9175
  580MOL0     H78245   1.326   5.194   2.602  1.4792 -0.2842  1.3697
  580MOL0     H78246   1.323   5.197   2.771  0.4375  0.2784 -1.1334
  580MOL0     H78247   1.344   4.945   2.602 -2.5027 -0.0268 -0.1018
  580MOL0     H78248   1.295   4.936   2.769 -0.4489  0.7257  0.1116
  580MOL0     H78249   1.571   4.949   2.700  1.6240  1.6354  0.3187
  580MOL0     H78250   1.528   5.117   2.695  3.0260 -0.2030 -0.6047
  580MOL0     H78251   1.611   4.849   2.951  1.3894 -0.8494  2.9117
  580MOL0     H78252   1.621   4.999   3.300  0.9934 -1.2607  0.9240
  580MOL0     H78253   1.566   4.843   3.230 -0.2303  0.1478  1.3167
  580MOL0     H78254   1.801   4.824   3.119  3.9145 -0.8602  2.1538
  580MOL0     H78255   1.829   4.999   3.146 -1.2369  1.2065  0.6258
  580MOL0     H78256   1.798   4.766   3.337  0.5389  0.2777  1.1255
  580MOL0     H78257   1.837   4.944   3.389  0.6803  1.1186  0.3000
  580MOL0     H78258   2.020   4.809   3.202  0.4746  0.4006  0.4853
  580MOL0     H78259   2.043   4.744   3.367 -0.6564  1.1524  1.8614
  580MOL0     H78260   2.256   4.748   3.286  2.1211 -1.4848  0.3184
  580MOL0     H78261   2.495   4.773   3.296  0.5451  0.4962 -0.6851
  580MOL0     H78262   2.830   5.098   3.645  1.9817 -0.8582 -0.6566
  580MOL0     H78263   3.082   5.155   3.657 -1.1877  0.6455  0.0140
  580MOL0     H78264   3.327   5.046   3.308 -0.2781  1.3481 -1.8055
  580MOL0     H78265   3.340   5.217   3.288  3.4222 -0.7092 -1.2470
  580MOL0     H78266   3.493   5.249   3.470  0.7041 -0.2506  1.6263
  580MOL0     H78267   3.493   5.069   3.500 -0.0653  0.7553  1.6584
  580MOL0     H78268   3.553   5.081   3.225  2.6515 -0.9827 -1.1061
  580MOL0     H78269   3.641   5.222   3.310  2.7257  0.1819  3.6523
  580MOL0     H78270   3.655   4.927   3.391  3.6888 -1.1864  0.5695
  580MOL0     H78271   3.748   5.060   3.462  1.3440 -0.4213 -0.8365
  580MOL0     H78272   3.768   4.984   3.170 -2.0266 -2.4690  1.7679
  580MOL0     H78273   3.858   4.913   3.297 -1.4967 -1.8807  1.8525
  580MOL0     H78274   3.854   5.187   3.188 -0.6587 -1.7029 -1.8099
  580MOL0     H78275   3.909   5.176   3.368  0.4576 -1.3936  0.7441
  580MOL0     H78276   4.017   5.015   3.137 -5.8232 -0.8121  1.5059
  580MOL0     H78277   4.092   5.021   3.298 -0.4885 -1.8861 -1.7144
  580MOL0     H78278   4.208   5.189   3.133 -0.5917 -0.6332 -0.9139
  580MOL0     H78279   4.055   5.282   3.150  1.0468  0.4722  0.3518
  580MOL0     H78280   3.096   5.196   3.234 -1.2329 -3.4348 -1.0501
  580MOL0     H78281   2.849   5.144   3.226  0.5128  1.3182 -0.8878
  580MOL0     H78282   2.443   5.171   3.466 -1.1632  1.3107 -1.4293
  580MOL0     H78283   2.224   5.163   3.442  2.0831  1.1145 -1.2700
  580MOL0     H78284   0.463   4.984   2.429 -1.2520  0.1019 -0.0656
  580MOL0     H78285   0.238   4.869   2.464  0.3831  2.6554 -0.3686
  580MOL0     H78286  -0.028   4.594   2.539 -1.0498  1.6365 -1.5620
  580MOL0     H78287  -0.260   4.561   2.506  0.7387  1.2375 -3.1468
  580MOL0     H78288  -0.534   4.570   2.526 -0.6398 -0.5672 -2.2225
  580MOL0     H78289  -0.468   4.714   2.435 -0.3340 -1.4037 -0.3058
  580MOL0     H78290  -0.652   4.845   2.517  0.3595 -0.1933 -0.1431
  580MOL0     H78291  -0.686   4.714   2.641 -0.9307  0.7244 -0.6038
  580MOL0     H78292  -0.776   4.565   2.474 -1.6312  0.5754  1.3007
  580MOL0     H78293  -0.712   4.669   2.351  0.3187 -0.9481  0.4047
  580MOL0     H78294  -0.885   4.838   2.370 -0.1188 -1.0669 -0.9054
  580MOL0     H78295  -0.963   4.680   2.369  2.1043  0.2376 -0.1356
  580MOL0     H78296  -1.068   4.881   2.733  3.4880  3.6326  0.4024
  580MOL0     H78297  -0.327   4.811   2.841  1.5971  2.7530  0.2152
  580MOL0     H78298  -0.071   4.973   2.900 -0.8508  0.5103 -1.3903
  580MOL0     H78299  -0.136   4.840   3.013  1.6430  2.5914  1.1791
  580MOL0     H78300   0.022   4.834   2.965 -0.5691 -0.2478 -0.3456
  581MOL0     O78301   5.511   7.559   9.473 -0.3488 -0.0499  0.4670
  581MOL0     C78302   5.530   7.631   9.373  0.5974 -0.0391 -0.3000
  581MOL0     O78303   5.642   7.642   9.299  0.0550 -0.4267  0.4310
  581MOL0     C78304   5.751   7.560   9.326 -0.1547 -0.0232 -0.2046
  581MOL0     C78305   5.734   7.418   9.333  1.4375 -0.2361 -0.9158
  581MOL0     C78306   5.847   7.336   9.349 -0.0443  0.0850 -0.5604
  581MOL0     C78307   5.975   7.395   9.356  0.5413  0.7722  0.1160
  581MOL0     O78308   6.079   7.304   9.379 -0.3695 -0.0784  0.4428
  581MOL0     C78309   6.196   7.355   9.450 -0.5392 -0.6067  0.5980
  581MOL0     C78310   6.300   7.249   9.460  0.2400  0.1988 -0.5756
  581MOL0     C78311   6.429   7.322   9.516  0.6561  0.1638  0.3513
  581MOL0     C78312   6.499   7.445   9.444  0.2811  0.2683  0.1009
  581MOL0     C78313   6.622   7.488   9.528  0.0901 -0.0276 -0.1189
  581MOL0     C78314   6.708   7.593   9.454  0.3563 -0.0289 -0.5013
  581MOL0     C78315   6.841   7.631   9.522  0.0001  0.5204 -0.3017
  581MOL0     C78316   6.935   7.511   9.534 -0.5824  0.7255  1.0025
  581MOL0     N78317   7.064   7.563   9.574 -0.4408 -0.2957  0.6743
  581MOL0     C78318   7.089   7.659   9.679  0.1594  1.1410  0.3968
  581MOL0     C78319   7.211   7.700   9.646  1.0510 -0.3392 -0.2482
  581MOL0     C78320   7.298   7.807   9.716 -0.8078  0.3179  0.8580
  581MOL0     C78321   7.443   7.759   9.749  0.4110  0.2314 -0.1913
  581MOL0     C78322   7.522   7.857   9.836  0.5807 -0.7101  0.2287
  581MOL0     C78323   7.660   7.791   9.835 -0.1182  0.8854  0.5270
  581MOL0     O78324   7.747   7.877   9.909  0.1453  0.7698  0.3144
  581MOL0     C78325   7.885   7.846   9.911 -0.1383 -1.1300  0.7421
  581MOL0     C78326   7.972   7.957   9.922  0.1629 -0.3111 -0.2877
  581MOL0     C78327   8.108   7.945   9.924 -0.5804  0.1774 -0.3924
  581MOL0     C78328   8.175   7.825   9.924 -0.5930  0.4073  0.4090
  581MOL0     C78329   8.326   7.823   9.946 -0.5901  0.2997 -0.2052
  581MOL0     O78330   8.397   7.706   9.942 -0.0259 -0.5605  0.1077
  581MOL0     C78331   8.523   7.707   9.985  0.2031  0.1755  0.2447
  581MOL0     C78332   8.571   7.779  10.098 -0.1589 -0.0131  0.4925
  581MOL0     C78333   8.702   7.762  10.135  0.2581  0.2345  0.5878
  581MOL0     C78334   8.792   7.681  10.073 -0.8348  0.1431 -0.7116
  581MOL0     O78335   8.917   7.681  10.128 -0.2065  0.6368  0.4363
  581MOL0     C78336   8.986   7.557  10.127 -0.5764  0.2203  0.4404
  581MOL0     C78337   9.113   7.549  10.208 -0.8187  0.1338 -0.5911
  581MOL0     C78338   9.189   7.408  10.219  0.1534 -0.0509 -0.4537
  581MOL0     C78339   9.273   7.410  10.351 -0.5470 -0.0186  0.0241
  581MOL0     C78340   9.379   7.294  10.342 -0.0293  0.0496  0.0663
  581MOL0     C78341   9.459   7.288  10.457 -0.1236  0.2933  0.0888
  581MOL0     C78342   9.568   7.178  10.448 -0.0476  0.2289  0.4430
  581MOL0     C78343   9.629   7.138  10.582 -0.1379 -0.2551  0.6829
  581MOL0    Cl78344   9.712   7.283  10.661 -0.2348  0.3003 -0.7658
  581MOL0     C78345   8.748   7.612   9.963 -0.5161 -0.5188 -0.8552
  581MOL0     C78346   8.620   7.626   9.924  0.0276 -0.6035 -0.1118
  581MOL0     O78347   8.379   7.933   9.963 -0.9127  0.3239 -0.2523
  581MOL0     C78348   8.089   7.717   9.925  0.0803  0.0230 -1.0749
  581MOL0     C78349   7.947   7.725   9.911 -1.1091  0.4662 -0.3214
  581MOL0     N78350   7.260   7.636   9.536 -0.4431 -0.0445 -0.3909
  581MOL0     N78351   7.168   7.565   9.489  0.2967 -0.5998 -0.2771
  581MOL0     C78352   5.992   7.536   9.358  0.0792 -0.1826  0.3872
  581MOL0     C78353   5.882   7.611   9.329 -0.3245 -0.1019 -0.7312
  581MOL0     C78354   5.416   7.717   9.327 -0.0150 -0.2479  0.1813
  581MOL0     C78355   5.287   7.663   9.322  0.0561 -0.7249 -0.9582
  581MOL0     C78356   5.174   7.744   9.288 -0.0544  0.3203  0.6238
  581MOL0     C78357   5.190   7.873   9.240 -0.0165  0.3103  0.7187
  581MOL0     O78358   5.073   7.946   9.213 -0.2914  0.1746 -0.2793
  581MOL0     C78359   5.080   8.086   9.189 -0.1493 -0.7037  0.2320
  581MOL0     C78360   4.949   8.155   9.139  0.1889 -0.0586  0.0899
  581MOL0     C78361   4.830   8.119   9.230  1.2151  0.2455 -0.5781
  581MOL0     C78362   4.701   8.165   9.149  1.0818 -0.6290 -0.5607
  581MOL0     C78363   4.578   8.143   9.225 -0.0615  0.3285 -0.0596
  581MOL0     C78364   4.474   8.121   9.287 -0.3942  0.6510 -0.2705
  581MOL0     C78365   5.318   7.922   9.225  0.3897 -0.5868 -0.2002
  581MOL0     C78366   5.428   7.845   9.267 -0.2357 -0.3491  0.3360
  581MOL0     C78367   5.570   7.924   9.275 -0.1416  0.3308  0.1981
  581MOL0     H78368   5.632   7.380   9.325  1.5125 -0.3085 -1.5019
  581MOL0     H78369   5.825   7.230   9.345 -1.3776  0.3575 -0.8925
  581MOL0     H78370   6.246   7.425   9.383  0.4541  0.5770  2.4874
  581MOL0     H78371   6.172   7.394   9.550  1.6421  0.2666  0.8456
  581MOL0     H78372   6.321   7.194   9.368 -0.4393 -0.3049 -0.4381
  581MOL0     H78373   6.268   7.170   9.528  1.5028  1.2754  1.3676
  581MOL0     H78374   6.498   7.238   9.519 -0.6285 -1.0921 -2.0570
  581MOL0     H78375   6.415   7.363   9.616  1.0648 -0.8763  0.8485
  581MOL0     H78376   6.533   7.424   9.342  0.2443 -0.1915  0.1813
  581MOL0     H78377   6.427   7.526   9.428 -2.6791 -2.1498  0.2628
  581MOL0     H78378   6.582   7.527   9.623 -1.5495 -0.0860 -0.7533
  581MOL0     H78379   6.693   7.407   9.548  0.4671  0.0970 -0.9379
  581MOL0     H78380   6.734   7.556   9.354  1.1751 -3.0691  0.7255
  581MOL0     H78381   6.649   7.684   9.440  0.1867  0.3323  2.1514
  581MOL0     H78382   6.824   7.683   9.617  0.0592 -1.0398  0.5904
  581MOL0     H78383   6.901   7.693   9.455  1.9836  0.9863  1.7930
  581MOL0     H78384   6.900   7.441   9.611  0.1493 -1.4659 -0.5585
  581MOL0     H78385   6.948   7.447   9.446 -2.4526 -3.5165  3.4939
  581MOL0     H78386   7.032   7.701   9.761  1.1934 -0.2864  1.9047
  581MOL0     H78387   7.309   7.892   9.648  0.2794  1.5025  2.4319
  581MOL0     H78388   7.258   7.852   9.807 -1.0609 -0.8616  1.3375
  581MOL0     H78389   7.430   7.655   9.782 -0.4599 -0.0638 -1.4081
  581MOL0     H78390   7.492   7.753   9.651  4.0425 -1.3443  1.5305
  581MOL0     H78391   7.490   7.867   9.940 -0.5564  0.7268 -0.2378
  581MOL0     H78392   7.529   7.956   9.791 -2.9477  0.1262  1.2429
  581MOL0     H78393   7.695   7.780   9.731  3.0275 -2.3756  1.7027
  581MOL0     H78394   7.652   7.688   9.869  0.0842  0.9724  0.8419
  581MOL0     H78395   7.931   8.056   9.937 -2.0100 -1.2975  0.6231
  581MOL0     H78396   8.168   8.035   9.932  0.4845 -0.5246 -0.1736
  581MOL0     H78397   8.516   7.862  10.141  2.2292  2.2786 -0.6637
  581MOL0     H78398   8.729   7.828  10.217 -1.0513 -0.0194  1.2615
  581MOL0     H78399   8.924   7.481  10.175  0.5938  0.0876  1.7965
  581MOL0     H78400   9.012   7.529  10.024  1.9813 -0.4824  1.2229
  581MOL0     H78401   9.178   7.628  10.170 -0.3938  0.5136  0.8490
  581MOL0     H78402   9.085   7.568  10.312 -0.1074 -4.3975  0.6704
  581MOL0     H78403   9.120   7.324  10.227 -0.7358  0.8323  2.0038
  581MOL0     H78404   9.251   7.384  10.132 -1.1363 -0.5075 -1.2786
  581MOL0     H78405   9.198   7.392  10.428  0.3047 -1.7010  0.4961
  581MOL0     H78406   9.315   7.510  10.369  2.3801 -0.9119 -1.2483
  581MOL0     H78407   9.446   7.316  10.258  3.1483  1.4728  2.7425
  581MOL0     H78408   9.327   7.203  10.310 -0.9471 -0.1927  2.1079
  581MOL0     H78409   9.519   7.378  10.470 -0.1281  0.5399 -1.3680
  581MOL0     H78410   9.398   7.259  10.543 -0.1121 -0.9701 -0.2959
  581MOL0     H78411   9.643   7.211  10.376  0.4246 -0.0468  0.8090
  581MOL0     H78412   9.529   7.089  10.397  0.3483 -0.0831  0.6782
  581MOL0     H78413   9.569   7.085  10.657 -1.5446  2.3995  1.5709
  581MOL0     H78414   9.713   7.072  10.558 -0.8993 -0.0756 -3.0301
  581MOL0     H78415   8.824   7.559   9.907  0.7407 -2.1546  2.1948
  581MOL0     H78416   8.591   7.577   9.831 -2.3604 -2.3999  1.4600
  581MOL0     H78417   8.134   7.618   9.931  2.5057  1.1390  0.6603
  581MOL0     H78418   7.897   7.630   9.928  2.4585 -1.9023 -1.8229
  581MOL0     H78419   6.088   7.584   9.350 -0.7464  1.6312  0.9143
  581MOL0     H78420   5.904   7.716   9.317  2.0938 -0.3945  0.6335
  581MOL0     H78421   5.276   7.556   9.334  2.2680 -0.8572  0.7283
  581MOL0     H78422   5.080   7.690   9.284  0.7945 -1.4831  2.8276
  581MOL0     H78423   5.156   8.102   9.112  0.2041  0.1800  0.7465
  581MOL0     H78424   5.117   8.141   9.277  2.8922  0.2913 -1.5256
  581MOL0     H78425   4.930   8.125   9.035  1.5475  0.1656 -0.2386
  581MOL0     H78426   4.962   8.263   9.141  0.6870 -0.1242  1.2866
  581MOL0     H78427   4.841   8.151   9.334 -2.8497 -0.6498  0.2888
  581MOL0     H78428   4.827   8.010   9.237  2.5305  0.1275 -1.3919
  581MOL0     H78429   4.708   8.271   9.124  2.3353 -1.0628 -2.2445
  581MOL0     H78430   4.684   8.110   9.056 -1.8089  1.3014 -1.3079
  581MOL0     H78431   4.377   8.101   9.328 -0.0155 -1.3938 -0.2748
  581MOL0     H78432   5.340   8.020   9.183  3.6295 -0.6066  1.2119
  581MOL0     H78433   5.564   8.008   9.204 -1.3017  1.0588  1.1061
  581MOL0     H78434   5.575   7.970   9.374  0.8430  2.5369 -0.8046
  581MOL0     H78435   5.658   7.864   9.253 -0.1793  0.2880  0.1634
  582MOL0     O78436   0.183   3.991   4.140  0.2119  0.1312 -0.1992
  582MOL0     C78437   0.148   4.010   4.024  0.2672  0.7089 -0.4888
  582MOL0     O78438   0.234   4.050   3.923 -0.3104 -0.9497 -0.0148
  582MOL0     C78439   0.358   4.095   3.954 -0.1447 -0.1794  0.1330
  582MOL0     C78440   0.411   4.214   3.902  0.7359 -0.3383 -0.0709
  582MOL0     C78441   0.541   4.250   3.927  0.3726 -0.8712  0.7876
  582MOL0     C78442   0.631   4.181   4.009 -0.1889 -0.0988 -0.3495
  582MOL0     O78443   0.760   4.229   4.031 -0.2374 -0.1753  0.1777
  582MOL0     C78444   0.855   4.136   4.078  0.5349 -0.6424 -0.6038
  582MOL0     C78445   0.994   4.204   4.087 -0.1294  0.6992 -0.3365
  582MOL0     C78446   1.077   4.131   4.188 -0.0370 -0.8817 -0.5952
  582MOL0     C78447   1.213   4.201   4.188 -0.3449  0.2332 -0.3531
  582MOL0     C78448   1.326   4.109   4.249 -0.4489 -0.8044  0.0972
  582MOL0     C78449   1.466   4.155   4.221 -1.0046  0.5170 -0.8868
  582MOL0     C78450   1.508   4.259   4.328 -0.6655 -0.3643 -0.0852
  582MOL0     C78451   1.574   4.213   4.460 -0.8160  0.5696 -0.0070
  582MOL0     N78452   1.686   4.121   4.436  0.0057  0.2215 -0.8617
  582MOL0     C78453   1.783   4.129   4.340  0.1503 -0.0533 -0.7498
  582MOL0     C78454   1.883   4.055   4.390  0.0319  0.3877 -0.3572
  582MOL0     C78455   2.013   4.042   4.307 -0.8517  0.1292 -0.1645
  582MOL0     C78456   2.126   4.113   4.383  0.2652 -0.2502  0.2540
  582MOL0     C78457   2.269   4.049   4.370 -0.1933 -0.1289  0.0812
  582MOL0     C78458   2.375   4.120   4.457  0.6862 -0.0319  0.3978
  582MOL0     O78459   2.494   4.045   4.436 -0.5073  0.5898 -0.4407
  582MOL0     C78460   2.606   4.105   4.498  0.2318  0.6802 -0.3957
  582MOL0     C78461   2.726   4.070   4.444 -0.5210 -0.0116  0.5029
  582MOL0     C78462   2.848   4.095   4.505  0.1263  0.1837 -0.2134
  582MOL0     C78463   2.850   4.185   4.615 -0.7651 -1.5948 -0.2001
  582MOL0     C78464   2.979   4.253   4.663  0.0955 -0.8130 -0.7982
  582MOL0     O78465   2.982   4.291   4.793 -0.1920 -0.7390 -0.0599
  582MOL0     C78466   3.091   4.351   4.850  0.3469  0.0231  0.3195
  582MOL0     C78467   3.215   4.305   4.841 -0.1138  0.5203  1.3442
  582MOL0     C78468   3.324   4.379   4.895  0.0469  0.3875  0.8743
  582MOL0     C78469   3.298   4.492   4.969 -0.0255  0.1662 -0.2122
  582MOL0     O78470   3.392   4.560   5.044  0.3718 -0.3976 -0.2461
  582MOL0     C78471   3.529   4.538   5.025 -0.0355  0.3586  0.1483
  582MOL0     C78472   3.610   4.580   5.149  0.1290 -0.1729 -1.3613
  582MOL0     C78473   3.763   4.581   5.144 -0.2524  0.3361  0.8190
  582MOL0     C78474   3.822   4.696   5.056 -0.4166  0.4435  0.1441
  582MOL0     C78475   3.927   4.676   4.949  0.3791  0.8241  0.1540
  582MOL0     C78476   3.847   4.607   4.825 -0.2650  0.0665 -0.3432
  582MOL0     C78477   3.932   4.600   4.706  0.7363 -1.5099  0.4312
  582MOL0     C78478   4.062   4.543   4.733  0.0836  0.5433  0.0405
  582MOL0    Cl78479   4.167   4.542   4.594  0.1054  0.4351 -0.0709
  582MOL0     C78480   3.171   4.530   4.994  0.2443 -0.4166 -0.2319
  582MOL0     C78481   3.064   4.464   4.937  0.0503  0.4199  1.2130
  582MOL0     O78482   3.072   4.273   4.580 -0.2485  0.0993 -0.4747
  582MOL0     C78483   2.724   4.224   4.678 -0.0124  0.2611  0.4788
  582MOL0     C78484   2.604   4.173   4.621  0.1677  0.2660  0.0907
  582MOL0     N78485   1.848   4.001   4.514  0.0649  0.1751 -0.0348
  582MOL0     N78486   1.735   4.053   4.544 -0.3873  0.2175 -0.0927
  582MOL0     C78487   0.578   4.058   4.048 -0.3169 -0.2229  0.3866
  582MOL0     C78488   0.450   4.013   4.019 -0.0033  0.0728 -0.4329
  582MOL0     C78489   0.005   3.992   3.995  0.6072  0.6677  0.0053
  582MOL0     C78490  -0.064   3.877   4.040  0.1912 -0.0889 -0.9390
  582MOL0     C78491  -0.204   3.860   4.018 -0.1316  0.1319 -0.5366
  582MOL0     C78492  -0.270   3.952   3.943 -0.0156  0.1603 -0.8270
  582MOL0     O78493  -0.390   3.923   3.893  0.3745  0.2582 -0.1644
  582MOL0     C78494  -0.481   4.021   3.847  0.4746  0.1304  0.3709
  582MOL0     C78495  -0.627   3.976   3.822  0.0030 -0.2906 -0.2181
  582MOL0     C78496  -0.683   3.917   3.956  1.4145  0.1250 -0.4787
  582MOL0     C78497  -0.841   3.888   3.947 -0.7528 -0.5637 -0.0330
  582MOL0     C78498  -0.863   3.788   3.848 -0.8738  0.1995  0.2238
  582MOL0     C78499  -0.895   3.694   3.776  0.5271 -0.2342 -0.1354
  582MOL0     C78500  -0.199   4.071   3.902 -0.3064  0.5832  0.3708
  582MOL0     C78501  -0.065   4.088   3.929 -0.2149  0.5896  0.3521
  582MOL0     C78502   0.001   4.220   3.879  0.5864 -0.0139 -0.7375
  582MOL0     H78503   0.344   4.271   3.839  1.6286  1.2902  0.3972
  582MOL0     H78504   0.589   4.341   3.891  0.5288 -1.1101  0.3773
  582MOL0     H78505   0.832   4.101   4.179  0.1347  1.0699 -0.0563
  582MOL0     H78506   0.859   4.053   4.007  0.7711 -0.0902 -1.2407
  582MOL0     H78507   0.978   4.303   4.131  1.0992  0.5415  0.5459
  582MOL0     H78508   1.041   4.221   3.989  2.3060 -0.5176  0.5318
  582MOL0     H78509   1.092   4.028   4.153  0.8145 -0.2495 -2.2472
  582MOL0     H78510   1.037   4.119   4.288 -1.9136 -0.7512 -1.2929
  582MOL0     H78511   1.245   4.217   4.085  1.9765 -0.9218  0.1120
  582MOL0     H78512   1.202   4.297   4.239  0.2969  1.2054 -1.9997
  582MOL0     H78513   1.309   4.103   4.357 -2.6391  0.0231 -0.1513
  582MOL0     H78514   1.326   4.010   4.203 -1.3856  0.3293 -2.5424
  582MOL0     H78515   1.539   4.077   4.243  1.3568  2.8918  0.1430
  582MOL0     H78516   1.483   4.198   4.122 -1.5200  1.5393 -0.5427
  582MOL0     H78517   1.422   4.319   4.358 -1.7791 -0.8844 -2.0445
  582MOL0     H78518   1.579   4.332   4.287 -1.2296  0.1485 -0.1529
  582MOL0     H78519   1.607   4.294   4.524  0.4682  0.3020 -0.2963
  582MOL0     H78520   1.500   4.164   4.523 -1.0574 -0.8448 -1.3134
  582MOL0     H78521   1.776   4.197   4.255 -1.5640  1.5241  0.5562
  582MOL0     H78522   2.031   3.934   4.310  1.0816  0.4323  1.7580
  582MOL0     H78523   2.005   4.089   4.209  4.4187  0.1479 -0.8864
  582MOL0     H78524   2.127   4.218   4.354  0.4053  0.3931  2.3944
  582MOL0     H78525   2.108   4.119   4.491 -1.1669 -1.9991  0.1622
  582MOL0     H78526   2.308   4.038   4.269 -0.1839 -3.2987  0.3463
  582MOL0     H78527   2.258   3.944   4.395  0.6735 -0.1998  0.2015
  582MOL0     H78528   2.350   4.110   4.563 -2.0196 -1.5262 -0.2796
  582MOL0     H78529   2.389   4.223   4.425  3.3069 -0.6955 -0.8829
  582MOL0     H78530   2.723   4.011   4.353  0.5592 -0.6659  0.8607
  582MOL0     H78531   2.940   4.070   4.452  0.2563 -0.3078  0.2389
  582MOL0     H78532   3.241   4.219   4.779  0.3263  1.0755  0.7461
  582MOL0     H78533   3.421   4.338   4.869 -0.1496 -0.1499  0.9841
  582MOL0     H78534   3.561   4.435   5.009  0.2079  0.4712 -0.1005
  582MOL0     H78535   3.559   4.615   4.953 -1.5795  2.7291  1.8745
  582MOL0     H78536   3.582   4.680   5.184 -0.9990 -0.4272 -1.4781
  582MOL0     H78537   3.576   4.505   5.221 -1.7527  0.5450 -1.4320
  582MOL0     H78538   3.795   4.605   5.246  0.1291  0.9988  0.5436
  582MOL0     H78539   3.801   4.482   5.118 -1.3394 -0.0131  0.5126
  582MOL0     H78540   3.862   4.775   5.120 -2.5586  1.8053 -0.0897
  582MOL0     H78541   3.733   4.728   5.001  0.2217  1.5895 -0.2667
  582MOL0     H78542   4.005   4.607   4.980 -0.0868 -1.0495 -2.5135
  582MOL0     H78543   3.979   4.769   4.921  1.7028  1.0305  3.0093
  582MOL0     H78544   3.819   4.507   4.858  0.5773  0.5730  2.1630
  582MOL0     H78545   3.760   4.662   4.789 -0.3491 -0.0623 -0.3340
  582MOL0     H78546   3.939   4.702   4.667 -2.3365  0.0072  3.2925
  582MOL0     H78547   3.876   4.526   4.647  0.6605 -0.6358 -0.6290
  582MOL0     H78548   4.110   4.603   4.811 -1.9542  1.8471  0.3607
  582MOL0     H78549   4.043   4.443   4.773  2.1223  0.0789 -0.0381
  582MOL0     H78550   3.162   4.602   5.075 -4.5893 -1.2446  0.2673
  582MOL0     H78551   2.967   4.511   4.951 -0.3830 -1.1333  3.9625
  582MOL0     H78552   2.713   4.288   4.765  2.8955  1.3444  0.1333
  582MOL0     H78553   2.518   4.196   4.683 -0.1264  0.3173 -0.3276
  582MOL0     H78554   0.636   3.997   4.115 -0.5135 -3.2649 -2.0048
  582MOL0     H78555   0.415   3.919   4.062 -0.9530 -0.2747 -1.8929
  582MOL0     H78556  -0.031   3.803   4.112 -0.7663  1.4744  1.2417
  582MOL0     H78557  -0.251   3.776   4.069  0.6048  0.1590  0.2211
  582MOL0     H78558  -0.439   4.046   3.749 -1.7911 -0.8722 -0.9428
  582MOL0     H78559  -0.476   4.111   3.909 -1.0756 -1.0833  2.3868
  582MOL0     H78560  -0.627   3.889   3.755 -1.4787 -0.3724 -0.1447
  582MOL0     H78561  -0.681   4.059   3.777  1.5515  0.8302 -0.0758
  582MOL0     H78562  -0.662   3.980   4.043 -0.3282  0.9352 -0.5962
  582MOL0     H78563  -0.634   3.823   3.984 -0.3669  0.2894  3.8818
  582MOL0     H78564  -0.876   3.856   4.046  1.2419 -1.6885  0.3514
  582MOL0     H78565  -0.884   3.983   3.913 -1.8221  0.6182  4.0035
  582MOL0     H78566  -0.935   3.614   3.716 -0.0312 -0.6134  0.7202
  582MOL0     H78567  -0.233   4.158   3.848 -0.1803 -0.4748 -1.4787
  582MOL0     H78568  -0.075   4.300   3.879  0.3032 -0.2550  0.5846
  582MOL0     H78569   0.072   4.264   3.950 -0.2564 -1.0628  0.8335
  582MOL0     H78570   0.045   4.194   3.783  1.1752  0.5523 -0.6272
  583MOL0     O78571   7.698   7.110   6.534 -1.0237  0.2547  0.1844
  583MOL0     C78572   7.675   6.992   6.514  0.0272 -0.4743  0.5413
  583MOL0     O78573   7.772   6.895   6.513  0.4335 -0.4315  0.5995
  583MOL0     C78574   7.895   6.924   6.569  0.9937 -0.1850  0.7269
  583MOL0     C78575   7.985   6.985   6.493 -0.5205 -0.1714 -0.2192
  583MOL0     C78576   8.113   7.002   6.546 -0.5527  0.3331 -0.6169
  583MOL0     C78577   8.153   6.947   6.668 -0.7785 -0.8318 -0.1569
  583MOL0     O78578   8.282   6.974   6.712  0.4581  0.7875  0.5650
  583MOL0     C78579   8.392   6.947   6.627  0.0928 -0.0224 -0.0801
  583MOL0     C78580   8.517   6.926   6.713  0.6978  0.0239  0.4084
  583MOL0     C78581   8.637   6.889   6.626  0.8185  0.0410  0.6686
  583MOL0     C78582   8.767   6.944   6.690  0.0517  1.3779  0.3107
  583MOL0     C78583   8.887   6.906   6.604 -0.0136 -0.1109 -0.2148
  583MOL0     C78584   9.026   6.932   6.680  0.4698  0.7824  0.8662
  583MOL0     C78585   9.076   7.076   6.657 -1.4121 -0.4872  0.3915
  583MOL0     C78586   9.236   7.093   6.662 -0.3198  0.1107 -0.5775
  583MOL0     N78587   9.311   6.995   6.588 -0.7554  0.3371 -0.4170
  583MOL0     C78588   9.397   6.907   6.651  0.5477  0.4658 -0.3227
  583MOL0     C78589   9.478   6.872   6.548  0.8361  0.2766  0.4891
  583MOL0     C78590   9.584   6.770   6.542 -0.2449 -0.7266  0.0087
  583MOL0     C78591   9.719   6.848   6.548 -0.2414  0.1641  0.3071
  583MOL0     C78592   9.849   6.769   6.516  0.2078  0.4852 -0.0094
  583MOL0     C78593   9.976   6.856   6.539  0.9218 -0.0596 -0.6820
  583MOL0     O78594  10.088   6.778   6.512  0.1300  0.1224  0.0952
  583MOL0     C78595  10.212   6.824   6.537 -0.3779  0.1596  0.6830
  583MOL0     C78596  10.236   6.940   6.610 -0.7720  0.0580 -0.6615
  583MOL0     C78597  10.365   6.977   6.644 -0.1381  0.0139  0.4373
  583MOL0     C78598  10.481   6.899   6.611  0.0068 -0.8689  0.0787
  583MOL0     C78599  10.616   6.939   6.638  0.8117  0.3334 -0.0216
  583MOL0     O78600  10.711   6.885   6.566 -0.1710  0.5943  0.5835
  583MOL0     C78601  10.835   6.922   6.591 -0.4252 -0.5183 -0.8077
  583MOL0     C78602  10.910   6.851   6.690  0.6514  0.3107  0.1518
  583MOL0     C78603  11.041   6.885   6.713  0.1132 -0.0508 -0.3443
  583MOL0     C78604  11.102   6.983   6.641 -0.1327 -0.2493 -0.4118
  583MOL0     O78605  11.235   7.001   6.646  0.6032  0.7195  0.1103
  583MOL0     C78606  11.297   7.011   6.770  0.2145 -0.5979  0.0261
  583MOL0     C78607  11.450   7.012   6.756  0.1062 -0.2872 -0.3158
  583MOL0     C78608  11.503   7.143   6.707 -0.8625 -0.9990  0.8980
  583MOL0     C78609  11.469   7.265   6.794  0.1563 -0.0502  0.0203
  583MOL0     C78610  11.547   7.386   6.759 -0.2157 -0.1713 -0.4035
  583MOL0     C78611  11.517   7.512   6.840 -0.3595  0.4662 -0.3857
  583MOL0     C78612  11.593   7.642   6.782  0.6135  0.0069  0.1958
  583MOL0     C78613  11.747   7.658   6.767 -0.8792 -0.2071  0.0139
  583MOL0    Cl78614  11.797   7.821   6.737  0.0221 -0.1471  0.6420
  583MOL0     C78615  11.028   7.059   6.548  0.2511 -0.3167  0.1957
  583MOL0     C78616  10.895   7.038   6.534  0.4146  1.0849 -0.0913
  583MOL0     O78617  10.628   7.038   6.711 -0.5832  0.5519 -0.1400
  583MOL0     C78618  10.459   6.784   6.532  0.1591 -0.1691 -0.2486
  583MOL0     C78619  10.325   6.751   6.491  0.6612  0.2960  1.0387
  583MOL0     N78620   9.430   6.937   6.431 -0.3761 -0.7697  0.8355
  583MOL0     N78621   9.337   7.011   6.455  0.4030 -0.0461 -0.9640
  583MOL0     C78622   8.058   6.864   6.735 -0.7572  1.2027  0.3255
  583MOL0     C78623   7.924   6.861   6.685 -0.4393  0.3019 -0.5851
  583MOL0     C78624   7.530   6.958   6.474 -0.0853 -0.3215  0.3381
  583MOL0     C78625   7.428   7.048   6.511  0.1957 -0.3946  0.7489
  583MOL0     C78626   7.290   7.017   6.483  0.2219  0.0289 -0.1366
  583MOL0     C78627   7.252   6.890   6.433  0.1759 -0.4496  0.5380
  583MOL0     O78628   7.126   6.846   6.394  0.8740 -1.1126 -0.3723
  583MOL0     C78629   7.052   6.943   6.330  0.5015 -0.9170  0.6914
  583MOL0     C78630   6.938   6.878   6.271  0.1520  0.0226 -0.4417
  583MOL0     C78631   6.834   6.842   6.378 -0.3076 -0.3256 -0.3058
  583MOL0     C78632   6.714   6.787   6.302  0.0372  0.1623  0.2211
  583MOL0     C78633   6.613   6.893   6.278  0.3028 -0.2235 -0.6830
  583MOL0     C78634   6.528   6.986   6.268  0.0319  0.0107 -0.1193
  583MOL0     C78635   7.354   6.799   6.411 -0.7381  0.3302 -0.7066
  583MOL0     C78636   7.490   6.826   6.429  0.3185 -0.0638 -0.0828
  583MOL0     C78637   7.586   6.720   6.390 -0.6071 -0.1481  0.5060
  583MOL0     H78638   7.975   7.022   6.392 -1.3258  2.3780  0.6898
  583MOL0     H78639   8.191   7.053   6.491  2.1884 -0.9807  1.7894
  583MOL0     H78640   8.370   6.867   6.556  0.4372 -1.3063  1.2211
  583MOL0     H78641   8.420   7.041   6.577 -1.0226  1.7423  2.3796
  583MOL0     H78642   8.502   6.838   6.777 -0.4965  0.3261  0.5787
  583MOL0     H78643   8.530   7.014   6.776  0.2800 -1.0776  2.1258
  583MOL0     H78644   8.624   6.925   6.524 -0.7432 -2.5900 -0.1475
  583MOL0     H78645   8.638   6.780   6.616 -0.5434  0.2028 -2.0844
  583MOL0     H78646   8.766   7.052   6.707  0.9515  1.6322 -1.0933
  583MOL0     H78647   8.783   6.894   6.786  2.2752  2.2607  0.4590
  583MOL0     H78648   8.886   6.798   6.587  1.2119 -0.3990  1.2923
  583MOL0     H78649   8.891   6.953   6.505  1.8950  1.0003  0.3276
  583MOL0     H78650   9.016   6.921   6.789  2.3855  4.1643  1.5425
  583MOL0     H78651   9.094   6.861   6.633 -0.2691  1.1343 -0.8035
  583MOL0     H78652   9.036   7.151   6.725  2.4615 -0.0994  2.5038
  583MOL0     H78653   9.052   7.113   6.556  0.3457 -0.0483  0.1071
  583MOL0     H78654   9.262   7.189   6.617  1.2423  0.0050  0.0526
  583MOL0     H78655   9.266   7.098   6.767 -0.8106  1.6716 -0.4910
  583MOL0     H78656   9.400   6.883   6.757  0.4056  2.6020  0.2225
  583MOL0     H78657   9.566   6.697   6.622 -3.9161  1.0385  1.0255
  583MOL0     H78658   9.577   6.715   6.448  0.5136 -1.7980  0.5674
  583MOL0     H78659   9.712   6.939   6.488 -1.4150 -0.6829 -0.8844
  583MOL0     H78660   9.714   6.875   6.654 -1.7626  1.3379 -0.0263
  583MOL0     H78661   9.848   6.747   6.409 -1.1136  0.4413 -0.0109
  583MOL0     H78662   9.839   6.681   6.581 -0.4036  0.2398 -0.4269
  583MOL0     H78663   9.983   6.893   6.642 -0.6915 -1.9413  0.1796
  583MOL0     H78664   9.973   6.938   6.466  0.3939  0.2163 -0.3670
  583MOL0     H78665  10.157   7.000   6.655 -3.0398 -3.6230  0.7170
  583MOL0     H78666  10.377   7.070   6.699  2.1779  0.5274 -0.8013
  583MOL0     H78667  10.858   6.762   6.724 -0.6539  1.1863  0.5463
  583MOL0     H78668  11.083   6.817   6.787 -1.7365 -0.2994  0.5225
  583MOL0     H78669  11.264   7.098   6.828  1.7282 -0.4320  0.6838
  583MOL0     H78670  11.278   6.929   6.840  0.8423  0.6694  1.7447
  583MOL0     H78671  11.501   6.998   6.852 -1.1269  1.7492  0.6915
  583MOL0     H78672  11.480   6.925   6.697  2.4142  0.1517  0.1346
  583MOL0     H78673  11.612   7.135   6.698 -0.9454  0.0212 -2.2577
  583MOL0     H78674  11.463   7.158   6.606  0.0188  1.1192  0.8016
  583MOL0     H78675  11.469   7.240   6.900  1.3892 -3.2327 -0.6468
  583MOL0     H78676  11.365   7.288   6.765  0.5655 -0.9849 -2.4342
  583MOL0     H78677  11.522   7.406   6.654 -2.4999  0.6469  0.2376
  583MOL0     H78678  11.651   7.353   6.766 -0.2591 -0.5143 -1.2896
  583MOL0     H78679  11.411   7.533   6.826 -0.8615 -0.1026  2.0189
  583MOL0     H78680  11.544   7.485   6.943  3.2882 -0.9475 -1.5303
  583MOL0     H78681  11.552   7.728   6.835  0.3101  0.2997 -0.5048
  583MOL0     H78682  11.557   7.662   6.681  0.6554  4.1445  0.8128
  583MOL0     H78683  11.799   7.628   6.859  2.2041  2.2394 -0.7275
  583MOL0     H78684  11.789   7.590   6.692  0.8731 -2.4062  2.7667
  583MOL0     H78685  11.073   7.139   6.489 -1.1448 -0.3975 -1.0307
  583MOL0     H78686  10.833   7.101   6.470 -0.7156 -0.8197 -0.9856
  583MOL0     H78687  10.541   6.726   6.490  0.0767  0.1373 -0.8364
  583MOL0     H78688  10.311   6.659   6.435 -2.9458  1.7898 -0.8671
  583MOL0     H78689   8.073   6.821   6.834 -0.3582 -0.4975 -0.4345
  583MOL0     H78690   7.843   6.808   6.735  0.2537  0.8466  1.1581
  583MOL0     H78691   7.452   7.150   6.541  2.8671 -0.1439 -1.8030
  583MOL0     H78692   7.215   7.096   6.477 -0.0218 -0.3230 -3.4855
  583MOL0     H78693   7.110   6.992   6.251 -0.5981  0.1310  0.4945
  583MOL0     H78694   7.019   7.020   6.401  1.5673 -1.5488  1.9124
  583MOL0     H78695   6.970   6.789   6.215 -1.7839 -0.7057 -0.4550
  583MOL0     H78696   6.894   6.941   6.193 -1.0117  1.8871  1.6073
  583MOL0     H78697   6.811   6.925   6.445  1.4947  0.5795 -0.7488
  583MOL0     H78698   6.876   6.762   6.441  1.6086  0.3374 -0.6502
  583MOL0     H78699   6.743   6.752   6.203  2.1176  0.1108  0.8031
  583MOL0     H78700   6.665   6.710   6.363  0.1185 -0.5212 -0.5538
  583MOL0     H78701   6.455   7.064   6.278  0.5601  0.4074  0.9021
  583MOL0     H78702   7.320   6.712   6.355  1.7449 -1.7715  0.8415
  583MOL0     H78703   7.673   6.767   6.344 -2.8095  0.4480 -3.4696
  583MOL0     H78704   7.629   6.671   6.478  1.5413  0.5570 -0.0921
  583MOL0     H78705   7.530   6.654   6.323  0.6338 -0.9994  0.2827
  584MOL0     O78706  11.162   1.451   3.768  0.0630 -0.3047  0.1656
  584MOL0     C78707  11.102   1.520   3.693 -0.2223 -0.2639 -0.3350
  584MOL0     O78708  11.150   1.643   3.643  0.8054 -0.4787 -0.0112
  584MOL0     C78709  11.249   1.709   3.722  0.4575 -0.1373  0.8309
  584MOL0     C78710  11.234   1.776   3.837  0.7129 -0.0294 -0.8143
  584MOL0     C78711  11.337   1.846   3.900 -0.6152 -0.7571  1.0980
  584MOL0     C78712  11.468   1.833   3.846 -0.0777 -0.2989 -0.8184
  584MOL0     O78713  11.583   1.883   3.900 -0.5167  0.1227 -0.0865
  584MOL0     C78714  11.593   1.890   4.038  0.2984 -0.3917  0.4317
  584MOL0     C78715  11.712   1.987   4.073 -0.3594 -0.2404 -0.2671
  584MOL0     C78716  11.854   1.930   4.083 -0.2516 -0.2998 -0.3287
  584MOL0     C78717  11.882   1.853   4.212  0.4977 -0.0350  0.0978
  584MOL0     C78718  12.018   1.829   4.247 -0.1737  0.3242  0.6761
  584MOL0     C78719  12.027   1.771   4.391 -0.2356 -0.4615  0.1576
  584MOL0     C78720  12.173   1.764   4.442 -0.7083  0.2730 -0.6969
  584MOL0     C78721  12.220   1.894   4.512  0.4440  0.0476  0.1487
  584MOL0     N78722  12.358   1.875   4.557 -0.2241  0.5641 -1.2123
  584MOL0     C78723  12.393   1.816   4.680 -0.0040 -0.3773 -0.7958
  584MOL0     C78724  12.528   1.799   4.682  0.1175  0.2403  0.0141
  584MOL0     C78725  12.612   1.723   4.786  0.2808 -0.3772 -0.4843
  584MOL0     C78726  12.635   1.803   4.918 -0.4291 -0.9921  0.2619
  584MOL0     C78727  12.512   1.807   5.005 -0.4480 -0.2785 -0.0997
  584MOL0     C78728  12.514   1.916   5.106 -0.0485  0.3057  0.1305
  584MOL0     O78729  12.586   1.881   5.225 -0.4915  0.3165 -0.2446
  584MOL0     C78730  12.721   1.871   5.213 -0.1828  0.3358  0.1526
  584MOL0     C78731  12.799   1.982   5.193  0.5160 -0.8873  0.3262
  584MOL0     C78732  12.938   1.977   5.204  0.4457  0.4508  0.7508
  584MOL0     C78733  13.005   1.864   5.252  0.4722  0.5769 -0.1076
  584MOL0     C78734  13.145   1.877   5.282 -0.1750  0.1849 -0.7458
  584MOL0     O78735  13.193   1.758   5.335 -0.1009  0.9094  0.0238
  584MOL0     C78736  13.331   1.759   5.362  0.0011  0.5010  0.2328
  584MOL0     C78737  13.404   1.847   5.436  0.7532 -0.3372  0.4453
  584MOL0     C78738  13.545   1.843   5.433 -0.5158  0.2895 -0.8115
  584MOL0     C78739  13.612   1.754   5.351  0.1707  0.2239 -0.2155
  584MOL0     O78740  13.748   1.747   5.363  0.0822  0.0036 -0.0102
  584MOL0     C78741  13.794   1.628   5.425  0.5055 -0.0082  0.5799
  584MOL0     C78742  13.890   1.656   5.541  0.1899  0.1260 -0.6979
  584MOL0     C78743  14.037   1.666   5.500  1.3950 -0.0083  0.5608
  584MOL0     C78744  14.122   1.686   5.621 -0.4931 -0.3387 -0.2849
  584MOL0     C78745  14.275   1.687   5.585  0.0094 -0.0427 -0.7150
  584MOL0     C78746  14.325   1.543   5.589  1.0121 -0.2490  0.2473
  584MOL0     C78747  14.415   1.484   5.480  0.0206 -0.1041  0.1317
  584MOL0     C78748  14.564   1.511   5.482 -0.6562 -0.8097  0.2808
  584MOL0    Cl78749  14.584   1.685   5.429  0.2092  0.1093  0.1615
  584MOL0     C78750  13.536   1.672   5.265 -0.0041 -0.3836 -0.2414
  584MOL0     C78751  13.400   1.676   5.275  1.0084  1.3222  0.2358
  584MOL0     O78752  13.204   1.985   5.280  0.1852 -0.3810  0.0637
  584MOL0     C78753  12.923   1.750   5.279 -0.3354  0.0228  0.6246
  584MOL0     C78754  12.786   1.752   5.260 -0.7442 -0.0235  0.3869
  584MOL0     N78755  12.564   1.858   4.562 -0.7394  0.2601 -0.0011
  584MOL0     N78756  12.469   1.915   4.494 -0.0071 -0.0996  0.2417
  584MOL0     C78757  11.484   1.767   3.724  0.2768 -0.1413 -0.2923
  584MOL0     C78758  11.373   1.702   3.665 -0.6330  0.6983  0.6732
  584MOL0     C78759  10.984   1.448   3.633  1.0844 -0.1407  0.8733
  584MOL0     C78760  10.916   1.509   3.530 -0.9548 -0.2213 -0.3805
  584MOL0     C78761  10.790   1.471   3.484 -0.4457  0.6611  0.0629
  584MOL0     C78762  10.736   1.355   3.539  1.6003  0.7558 -0.9275
  584MOL0     O78763  10.609   1.314   3.502 -0.8081 -0.3939  0.1019
  584MOL0     C78764  10.589   1.267   3.373 -0.1506 -0.2383  0.4275
  584MOL0     C78765  10.445   1.307   3.334 -0.3615 -0.3352  1.1269
  584MOL0     C78766  10.435   1.452   3.270 -0.2460  0.2072 -0.2059
  584MOL0     C78767  10.295   1.480   3.230  0.4212 -0.1556 -0.1711
  584MOL0     C78768  10.259   1.618   3.180 -0.0699  0.0744 -0.5766
  584MOL0     C78769  10.239   1.726   3.137  0.4517 -0.6281 -0.0697
  584MOL0     C78770  10.812   1.281   3.633 -0.1505  0.3181  0.9469
  584MOL0     C78771  10.926   1.327   3.693 -0.0323 -0.9523 -0.0183
  584MOL0     C78772  10.963   1.265   3.817  0.1824 -0.0068  0.2748
  584MOL0     H78773  11.133   1.794   3.874  0.7858  1.1350 -1.1599
  584MOL0     H78774  11.311   1.917   3.978  0.9398  0.3158  0.7019
  584MOL0     H78775  11.510   1.952   4.075 -1.0838 -2.1958  0.4456
  584MOL0     H78776  11.592   1.794   4.091  1.3700 -0.2913  0.6577
  584MOL0     H78777  11.691   2.035   4.169 -1.2160  0.2792 -0.6980
  584MOL0     H78778  11.721   2.061   3.993  0.8181 -0.3074 -0.2125
  584MOL0     H78779  11.919   2.017   4.081  0.7257 -1.0144 -0.2499
  584MOL0     H78780  11.873   1.869   3.994 -1.8830  1.1713 -1.7534
  584MOL0     H78781  11.848   1.913   4.296  4.4405  0.1878  1.7819
  584MOL0     H78782  11.825   1.760   4.205  0.5068  0.0908 -2.3724
  584MOL0     H78783  12.061   1.756   4.177  2.2740  0.4556  1.9331
  584MOL0     H78784  12.079   1.919   4.255  2.2554 -1.3250  2.1035
  584MOL0     H78785  11.965   1.825   4.463  0.5596 -0.4075  0.8239
  584MOL0     H78786  11.987   1.670   4.376  1.5418 -1.2570  0.5342
  584MOL0     H78787  12.234   1.743   4.353 -0.5881  2.0535 -1.0611
  584MOL0     H78788  12.187   1.674   4.503 -1.7061  0.0983 -0.6974
  584MOL0     H78789  12.210   1.977   4.441 -2.4379  0.1200  0.5273
  584MOL0     H78790  12.153   1.919   4.595  1.8408 -0.0804  1.3695
  584MOL0     H78791  12.321   1.782   4.754 -1.7557 -0.9252 -2.6795
  584MOL0     H78792  12.548   1.640   4.817 -2.6473  1.4647 -1.1051
  584MOL0     H78793  12.699   1.684   4.733  0.5972 -3.9198  2.2802
  584MOL0     H78794  12.712   1.746   4.970  1.8818  2.1032  0.4742
  584MOL0     H78795  12.668   1.906   4.905  1.8464 -1.9088 -1.9791
  584MOL0     H78796  12.502   1.708   5.050  0.1603 -1.1153 -1.6978
  584MOL0     H78797  12.428   1.817   4.935 -0.4761 -1.0277 -0.1812
  584MOL0     H78798  12.410   1.945   5.127 -0.5114 -2.7208  2.8434
  584MOL0     H78799  12.563   2.003   5.061  1.4413 -1.1702 -1.2182
  584MOL0     H78800  12.757   2.080   5.170  0.6974 -1.1307 -1.1460
  584MOL0     H78801  12.992   2.068   5.181  0.1639  0.5591  0.5041
  584MOL0     H78802  13.357   1.914   5.507  1.9069  2.7415 -1.4992
  584MOL0     H78803  13.608   1.902   5.498  1.5467 -0.5593 -1.9484
  584MOL0     H78804  13.714   1.560   5.455 -1.5048  1.6417 -0.7304
  584MOL0     H78805  13.842   1.578   5.341  0.3637  2.0351 -0.8113
  584MOL0     H78806  13.854   1.745   5.593  2.1252  0.5223  0.0441
  584MOL0     H78807  13.878   1.565   5.601  0.5700  0.1179 -0.6345
  584MOL0     H78808  14.072   1.576   5.448 -2.4317 -0.8129 -0.9788
  584MOL0     H78809  14.052   1.746   5.426  1.9933 -1.3220 -0.7957
  584MOL0     H78810  14.088   1.610   5.692 -0.3993 -0.5165 -0.4303
  584MOL0     H78811  14.097   1.777   5.675 -1.3876 -2.4985  3.2955
  584MOL0     H78812  14.330   1.734   5.667 -1.3089  2.5302 -1.2083
  584MOL0     H78813  14.287   1.742   5.491 -1.9117 -0.5679 -1.3115
  584MOL0     H78814  14.351   1.520   5.693 -1.3105  1.6521  1.3582
  584MOL0     H78815  14.226   1.496   5.577  0.3889  1.0682  0.0880
  584MOL0     H78816  14.385   1.520   5.381  0.1738  1.1670  0.5271
  584MOL0     H78817  14.393   1.377   5.482 -0.6457  0.0224  0.1045
  584MOL0     H78818  14.608   1.533   5.580  0.2679  0.4237 -0.3732
  584MOL0     H78819  14.616   1.431   5.429  1.4071  0.0554  0.8873
  584MOL0     H78820  13.584   1.601   5.198  0.1347 -0.3673 -0.1592
  584MOL0     H78821  13.343   1.604   5.219  0.7867  1.9085 -0.3055
  584MOL0     H78822  12.968   1.658   5.315  0.6023 -0.0354 -0.5950
  584MOL0     H78823  12.718   1.669   5.276 -0.0591 -0.4183  1.3701
  584MOL0     H78824  11.586   1.753   3.689  0.8031  1.2239  0.6101
  584MOL0     H78825  11.385   1.648   3.571  0.4307  1.3579  0.4111
  584MOL0     H78826  10.962   1.596   3.484  2.6665 -0.9618  1.4258
  584MOL0     H78827  10.740   1.521   3.402  0.0156  1.3900  0.2199
  584MOL0     H78828  10.596   1.158   3.388 -0.8857 -0.1139  1.9301
  584MOL0     H78829  10.662   1.295   3.297 -0.7890  2.4786  0.7326
  584MOL0     H78830  10.382   1.303   3.423 -0.2204  1.8789  1.3814
  584MOL0     H78831  10.405   1.243   3.255 -1.4462  1.7220 -0.0844
  584MOL0     H78832  10.502   1.457   3.183 -1.3028 -0.6294 -1.0955
  584MOL0     H78833  10.478   1.516   3.348  1.8889 -2.6557  1.1586
  584MOL0     H78834  10.268   1.407   3.154 -1.3268  0.3392 -0.0759
  584MOL0     H78835  10.232   1.472   3.319  1.0376  1.4460  0.4477
  584MOL0     H78836  10.222   1.828   3.107  0.9733 -0.9176 -1.4290
  584MOL0     H78837  10.762   1.188   3.658 -2.1730  0.6496 -1.4158
  584MOL0     H78838  11.060   1.222   3.791  0.6420  1.4990 -0.5520
  584MOL0     H78839  10.973   1.331   3.904  1.2111  0.2435 -0.0294
  584MOL0     H78840  10.896   1.186   3.853  0.5557 -0.1943  0.5694
  585MOL0     O78841   1.343   8.416   9.594 -0.2599 -0.2014 -0.2672
  585MOL0     C78842   1.272   8.318   9.570  0.6251 -0.3263  0.1419
  585MOL0     O78843   1.315   8.189   9.558  0.7135  0.9287  0.6062
  585MOL0     C78844   1.446   8.150   9.593 -0.7594 -0.6991 -0.6746
  585MOL0     C78845   1.543   8.113   9.506 -0.1155 -0.1133  1.0825
  585MOL0     C78846   1.668   8.062   9.546 -1.0033 -0.1390 -0.3210
  585MOL0     C78847   1.700   8.043   9.683  0.9381  0.2539  0.1470
  585MOL0     O78848   1.827   8.007   9.708 -0.3030 -1.1580 -0.2053
  585MOL0     C78849   1.856   7.955   9.842  0.1439  0.5238  0.2622
  585MOL0     C78850   1.997   7.902   9.839 -0.1639  0.1673  0.2716
  585MOL0     C78851   2.104   8.015   9.825 -0.4533  0.3691  0.2320
  585MOL0     C78852   2.136   8.091   9.959  0.1344  0.3563  0.3035
  585MOL0     C78853   2.284   8.134   9.957 -0.6061  0.2920 -0.3467
  585MOL0     C78854   2.330   8.224  10.080  1.4024  1.3136  0.1960
  585MOL0     C78855   2.460   8.305  10.049  0.5200 -0.0361  0.0256
  585MOL0     C78856   2.586   8.227  10.083 -0.4617 -0.2448 -0.6095
  585MOL0     N78857   2.712   8.303  10.053  0.8087 -0.1007  0.7861
  585MOL0     C78858   2.733   8.440  10.071  1.4556 -0.3905  0.0836
  585MOL0     C78859   2.843   8.470  10.000 -0.2362  0.1545 -0.2251
  585MOL0     C78860   2.893   8.611   9.966 -0.5035  0.4130 -0.7657
  585MOL0     C78861   3.045   8.618   9.985  0.9664 -0.5751 -0.3402
  585MOL0     C78862   3.087   8.754   9.932 -0.1224  0.3175 -0.2039
  585MOL0     C78863   3.239   8.773   9.939  0.7552  0.7446 -0.9201
  585MOL0     O78864   3.268   8.912   9.938 -0.6294 -0.4251 -0.0463
  585MOL0     C78865   3.397   8.953   9.923 -0.6288 -0.3600  1.4056
  585MOL0     C78866   3.419   9.092   9.935 -0.6163  1.2177 -0.1332
  585MOL0     C78867   3.550   9.149   9.926  0.0066  0.4118 -0.0029
  585MOL0     C78868   3.659   9.061   9.912 -0.7185 -0.1375  0.0533
  585MOL0     C78869   3.799   9.113   9.907 -0.2315 -0.5978  0.2941
  585MOL0     O78870   3.899   9.015   9.903 -0.8234 -0.5042 -0.2964
  585MOL0     C78871   4.033   9.046   9.926 -0.2173  0.0735  0.4403
  585MOL0     C78872   4.116   8.995   9.830  0.7245 -0.5615  0.0048
  585MOL0     C78873   4.250   9.036   9.830 -0.1462  0.5246  0.7175
  585MOL0     C78874   4.296   9.110   9.940 -0.2718 -0.5919 -0.3355
  585MOL0     O78875   4.429   9.157   9.947 -0.1513 -0.2242  0.0520
  585MOL0     C78876   4.508   9.160   9.828 -0.4651  0.8055 -0.2085
  585MOL0     C78877   4.640   9.214   9.866 -0.6653 -0.1723  0.2483
  585MOL0     C78878   4.725   9.258   9.745  0.1899  0.0113  0.1906
  585MOL0     C78879   4.878   9.278   9.784 -0.5152  0.9343 -0.1774
  585MOL0     C78880   4.966   9.343   9.673 -0.0279  0.0049 -0.0458
  585MOL0     C78881   5.113   9.312   9.671 -0.3501  0.6068 -0.5692
  585MOL0     C78882   5.200   9.396   9.576  0.3418  1.1091  0.8125
  585MOL0     C78883   5.278   9.316   9.468  0.6277 -0.3774  0.5128
  585MOL0    Cl78884   5.391   9.409   9.379 -0.1727 -0.7827 -0.0090
  585MOL0     C78885   4.213   9.161  10.034  0.2212 -0.3524 -0.1049
  585MOL0     C78886   4.082   9.126  10.025 -0.4290 -0.0963 -0.3606
  585MOL0     O78887   3.816   9.233   9.880  0.5721  0.8851 -0.2590
  585MOL0     C78888   3.636   8.926   9.897 -0.2219 -1.0721  0.7319
  585MOL0     C78889   3.504   8.863   9.909  0.7454 -0.2667 -0.4256
  585MOL0     N78890   2.889   8.351   9.943  0.1529  0.0232 -0.2203
  585MOL0     N78891   2.824   8.259   9.993 -0.2163  0.4592 -0.3644
  585MOL0     C78892   1.607   8.087   9.774  0.5724  0.0753 -0.3289
  585MOL0     C78893   1.482   8.146   9.733 -0.6756  1.0265  1.0998
  585MOL0     C78894   1.127   8.350   9.559 -0.2679 -0.2242 -0.1611
  585MOL0     C78895   1.081   8.458   9.628 -0.8584  0.1592  1.0331
  585MOL0     C78896   0.944   8.482   9.620  0.3643 -0.7712 -0.4371
  585MOL0     C78897   0.856   8.408   9.534 -0.5334  0.5767  0.2314
  585MOL0     O78898   0.731   8.446   9.525  0.0704  0.6690  0.1044
  585MOL0     C78899   0.621   8.353   9.536  0.4414  0.5943  0.9526
  585MOL0     C78900   0.485   8.426   9.534 -0.0412  0.1041  0.2331
  585MOL0     C78901   0.499   8.538   9.642  0.3438 -0.0599 -0.1467
  585MOL0     C78902   0.540   8.507   9.785 -0.1244  0.5026 -0.2129
  585MOL0     C78903   0.479   8.385   9.838  0.1422  0.5531 -0.1444
  585MOL0     C78904   0.427   8.283   9.881 -0.7516  0.0507  0.4743
  585MOL0     C78905   0.911   8.303   9.461  1.0149  0.6169 -0.2231
  585MOL0     C78906   1.048   8.278   9.462 -0.0865  0.3100 -0.2722
  585MOL0     C78907   1.099   8.169   9.372 -0.2746 -0.4787  0.5639
  585MOL0     H78908   1.507   8.116   9.403 -0.5762  0.0530  1.2458
  585MOL0     H78909   1.735   8.036   9.466  1.7928 -0.4005  1.9456
  585MOL0     H78910   1.845   8.030   9.921  4.3024 -0.6165  2.1919
  585MOL0     H78911   1.796   7.867   9.869  1.0164 -0.1107  0.1688
  585MOL0     H78912   2.013   7.822   9.766 -0.2797  1.3864 -1.1257
  585MOL0     H78913   2.006   7.872   9.944 -0.5139 -1.3251 -0.0920
  585MOL0     H78914   2.068   8.086   9.751  1.9015 -0.0161 -1.3752
  585MOL0     H78915   2.198   7.977   9.784 -2.3144 -2.2383 -1.9626
  585MOL0     H78916   2.060   8.169   9.970  0.2605  0.3564  1.2929
  585MOL0     H78917   2.136   8.013  10.036  1.4497 -1.1702 -1.1675
  585MOL0     H78918   2.345   8.044   9.951  1.4367  1.6972 -2.1547
  585MOL0     H78919   2.317   8.192   9.871  4.1344  1.7212  2.0652
  585MOL0     H78920   2.263   8.310  10.085  1.7512  1.6416 -0.5279
  585MOL0     H78921   2.338   8.167  10.173 -1.2757 -1.9479 -1.3411
  585MOL0     H78922   2.460   8.401  10.101  3.0742 -0.1162  0.2899
  585MOL0     H78923   2.474   8.323   9.942  2.2050 -0.1120  0.1977
  585MOL0     H78924   2.593   8.214  10.192  1.5629  1.5607 -0.4647
  585MOL0     H78925   2.589   8.134  10.026  1.0448 -0.3839 -0.3273
  585MOL0     H78926   2.658   8.511  10.106 -1.5523 -2.9949 -0.6186
  585MOL0     H78927   2.871   8.615   9.859  1.0262 -1.6823 -1.2333
  585MOL0     H78928   2.841   8.692  10.017 -0.8178  1.6931 -2.9578
  585MOL0     H78929   3.076   8.611  10.090 -0.5346  0.6315  0.2191
  585MOL0     H78930   3.100   8.547   9.923  0.5211  1.1758 -2.9214
  585MOL0     H78931   3.047   8.825  10.005 -3.2895 -0.7298 -0.7699
  585MOL0     H78932   3.043   8.759   9.832 -1.9869 -2.0388  0.4007
  585MOL0     H78933   3.279   8.722   9.850  1.6105 -2.0244  0.9294
  585MOL0     H78934   3.286   8.727  10.027  0.3473  2.1354  0.0591
  585MOL0     H78935   3.331   9.154   9.921 -0.7907  0.9947 -0.0376
  585MOL0     H78936   3.573   9.255   9.923  1.5317  0.1100 -3.2667
  585MOL0     H78937   4.083   8.936   9.745  1.4397 -1.0660  0.0693
  585MOL0     H78938   4.317   9.001   9.752  0.4431  1.5974  0.7173
  585MOL0     H78939   4.529   9.057   9.797  0.4252  0.9479 -0.1280
  585MOL0     H78940   4.456   9.215   9.750 -0.1117  0.6002 -0.5958
  585MOL0     H78941   4.638   9.307   9.924  2.1151 -0.2687  0.6423
  585MOL0     H78942   4.698   9.144   9.928 -0.2810  0.2094  0.3291
  585MOL0     H78943   4.716   9.182   9.666 -0.5796 -0.5432  0.7942
  585MOL0     H78944   4.684   9.347   9.696 -0.9532 -0.8807 -0.5496
  585MOL0     H78945   4.917   9.178   9.801 -1.9871  0.1150 -1.4078
  585MOL0     H78946   4.876   9.346   9.870  0.3804  2.3244 -1.2065
  585MOL0     H78947   4.958   9.452   9.681  3.8020  0.5901 -1.7253
  585MOL0     H78948   4.923   9.317   9.576  0.6503 -0.9252 -0.1122
  585MOL0     H78949   5.149   9.310   9.774 -0.7726 -2.4795 -0.3851
  585MOL0     H78950   5.138   9.207   9.649  1.8192  0.9409  0.0861
  585MOL0     H78951   5.276   9.442   9.639  1.6703  0.9824 -0.6292
  585MOL0     H78952   5.146   9.473   9.521  1.6793  1.1170 -0.5678
  585MOL0     H78953   5.336   9.236   9.514 -1.0257 -1.4832  0.7531
  585MOL0     H78954   5.200   9.268   9.408  1.0976  0.2973 -0.6829
  585MOL0     H78955   4.246   9.229  10.112  0.8780 -1.7779  0.8941
  585MOL0     H78956   4.011   9.155  10.102 -3.6446 -0.4030 -3.0066
  585MOL0     H78957   3.720   8.868   9.858  0.0241 -0.0948 -0.2482
  585MOL0     H78958   3.495   8.755   9.902 -0.6144 -0.2197  0.3475
  585MOL0     H78959   1.618   8.073   9.881 -1.8004  0.1881 -0.0197
  585MOL0     H78960   1.405   8.187   9.796 -1.3611 -0.8394  1.5364
  585MOL0     H78961   1.156   8.520   9.677 -0.2859 -0.8000  1.3919
  585MOL0     H78962   0.891   8.552   9.684  0.7439 -0.1131 -0.8399
  585MOL0     H78963   0.636   8.285   9.620  1.9053 -4.4299 -2.9537
  585MOL0     H78964   0.617   8.292   9.445 -1.0370 -0.6246  1.7994
  585MOL0     H78965   0.404   8.356   9.557 -0.0324 -1.1911 -3.1797
  585MOL0     H78966   0.475   8.468   9.434  1.4451  0.9301  0.4057
  585MOL0     H78967   0.409   8.601   9.643 -0.0236 -0.5742 -0.3181
  585MOL0     H78968   0.572   8.608   9.600  0.3722  0.0373  0.0663
  585MOL0     H78969   0.648   8.495   9.777  0.1053  1.2153  1.4028
  585MOL0     H78970   0.522   8.595   9.848  2.3373  1.3552 -0.5659
  585MOL0     H78971   0.372   8.195   9.908  0.9150 -1.2754 -0.2709
  585MOL0     H78972   0.846   8.239   9.403  2.2153  0.5707 -1.5677
  585MOL0     H78973   1.047   8.157   9.277 -1.4668 -3.9767  1.4765
  585MOL0     H78974   1.201   8.198   9.344 -1.2085  1.8724 -0.6075
  585MOL0     H78975   1.094   8.070   9.419  0.9561 -0.2271  1.2758
  586MOL0     O78976   2.043   8.648   0.208 -1.0789 -0.5094  0.2201
  586MOL0     C78977   2.019   8.532   0.207 -0.3864 -0.5661 -0.4785
  586MOL0     O78978   2.112   8.432   0.225  0.3375  0.8948 -0.1957
  586MOL0     C78979   2.247   8.479   0.230 -0.6885  1.4702  0.0864
  586MOL0     C78980   2.327   8.477   0.113  0.0718  0.9878  0.1298
  586MOL0     C78981   2.457   8.514   0.105  0.1232 -0.6513 -0.1483
  586MOL0     C78982   2.522   8.566   0.220  0.3066  1.1552  0.9211
  586MOL0     O78983   2.650   8.597   0.193  0.1966  0.1006 -0.2086
  586MOL0     C78984   2.706   8.709   0.268 -0.0404  0.0513 -0.2005
  586MOL0     C78985   2.853   8.728   0.217  0.5080 -0.2091  0.0852
  586MOL0     C78986   2.881   8.879   0.227 -0.3702 -0.2647 -0.3044
  586MOL0     C78987   3.036   8.888   0.211  0.0678  0.0716 -0.0651
  586MOL0     C78988   3.080   9.033   0.202  0.4219 -0.0214 -0.2114
  586MOL0     C78989   3.229   9.032   0.218 -0.3117 -0.0277  0.6622
  586MOL0     C78990   3.279   9.175   0.276  0.4946  0.1658  0.9965
  586MOL0     C78991   3.425   9.165   0.318 -0.3315 -0.8029 -0.0143
  586MOL0     N78992   3.488   9.298   0.338 -0.2727 -0.0041  0.3385
  586MOL0     C78993   3.592   9.355   0.268 -0.5374  0.3107  0.8254
  586MOL0     C78994   3.602   9.480   0.309 -0.1494 -0.2642 -0.4929
  586MOL0     C78995   3.712   9.562   0.251  0.3052 -0.3776 -0.1320
  586MOL0     C78996   3.719   9.701   0.331  0.4747 -0.2826 -0.1503
  586MOL0     C78997   3.809   9.806   0.262  0.1536 -0.0367 -0.0621
  586MOL0     C78998   3.946   9.761   0.220  0.1514  0.2321  0.1747
  586MOL0     O78999   4.000   9.717   0.342 -0.0370 -0.6471 -0.0456
  586MOL0     C79000   4.123   9.672   0.337  0.5966  0.9990  1.0960
  586MOL0     C79001   4.147   9.536   0.356 -0.8378 -0.7565  0.1071
  586MOL0     C79002   4.280   9.490   0.362 -0.7671  0.3980 -0.4568
  586MOL0     C79003   4.390   9.571   0.336 -0.4878 -0.2690 -0.7166
  586MOL0     C79004   4.530   9.513   0.354  0.2159 -0.2288  0.0537
  586MOL0     O79005   4.635   9.595   0.349 -0.1173  0.8846 -0.0917
  586MOL0     C79006   4.764   9.525   0.352 -0.6781 -0.9935 -1.5941
  586MOL0     C79007   4.844   9.535   0.242 -0.3169  0.1197  0.2538
  586MOL0     C79008   4.970   9.484   0.231 -0.1744  0.1353 -0.1886
  586MOL0     C79009   5.031   9.421   0.345 -1.2313 -0.5396 -0.3795
  586MOL0     O79010   5.166   9.387   0.363  0.3620 -0.8629  0.1081
  586MOL0     C79011   5.248   9.408   0.248 -0.5522 -0.6805  0.9446
  586MOL0     C79012   5.333   9.536   0.249 -0.0549 -0.1744  0.8183
  586MOL0     C79013   5.379   9.577   0.392 -1.0397  0.6087 -0.0355
  586MOL0     C79014   5.458   9.709   0.385 -0.1052 -0.5969 -0.1907
  586MOL0     C79015   5.538   9.735   0.510  0.0991  0.4605  0.7471
  586MOL0     C79016   5.620   9.859   0.485  0.8354 -0.2248  0.5603
  586MOL0     C79017   5.730   9.875   0.597  0.1483  0.5742 -0.0266
  586MOL0     C79018   5.849   9.793   0.561 -0.4599  0.2584  0.4058
  586MOL0    Cl79019   5.976   9.853   0.677 -0.1263  0.5455 -0.6059
  586MOL0     C79020   4.950   9.413   0.461 -1.1057  0.5768 -0.2350
  586MOL0     C79021   4.818   9.466   0.467 -0.5584  0.5179  0.6654
  586MOL0     O79022   4.528   9.387   0.365  0.0745  0.3249 -0.7333
  586MOL0     C79023   4.369   9.705   0.301 -0.6351 -0.0902 -0.4237
  586MOL0     C79024   4.232   9.759   0.314 -0.2301  0.2648  0.6888
  586MOL0     N79025   3.500   9.498   0.402 -0.0734  0.0215  0.5738
  586MOL0     N79026   3.425   9.392   0.414 -0.2854 -0.1314 -0.1713
  586MOL0     C79027   2.450   8.570   0.340 -0.2282  0.0224 -0.2436
  586MOL0     C79028   2.313   8.537   0.339  0.4619  0.7143  0.0591
  586MOL0     C79029   1.881   8.489   0.177  0.7937  0.2245 -0.0372
  586MOL0     C79030   1.865   8.369   0.109 -0.1235  0.3483  0.3624
  586MOL0     C79031   1.736   8.324   0.080 -0.4916  0.6872  0.2858
  586MOL0     C79032   1.628   8.393   0.117 -0.0188 -0.4833  0.5488
  586MOL0     O79033   1.516   8.319   0.104 -0.3134  0.5144 -0.0133
  586MOL0     C79034   1.389   8.369   0.125  0.6178 -0.4297 -0.9648
  586MOL0     C79035   1.282   8.258   0.137 -0.7300  0.4039  0.4435
  586MOL0     C79036   1.139   8.300   0.170  0.5081  0.2343 -0.3122
  586MOL0     C79037   1.049   8.175   0.177 -0.1389  0.8604  0.4270
  586MOL0     C79038   0.912   8.198   0.218 -0.7224 -0.0400 -0.0490
  586MOL0     C79039   0.803   8.212   0.248  0.4699 -0.7452 -0.1856
  586MOL0     C79040   1.635   8.523   0.166  0.3443 -0.4994  0.0036
  586MOL0     C79041   1.763   8.574   0.203  0.8527 -0.0923  1.2277
  586MOL0     C79042   1.760   8.697   0.292  0.2007  0.6783  0.1656
  586MOL0     H79043   2.276   8.433   0.027 -0.3765  0.7346  0.5249
  586MOL0     H79044   2.519   8.496   0.017  1.4426 -1.2959  0.8802
  586MOL0     H79045   2.643   8.797   0.254 -1.7586 -1.3554 -1.9173
  586MOL0     H79046   2.702   8.677   0.372 -2.0999 -1.8792 -0.8088
  586MOL0     H79047   2.865   8.696   0.114 -2.8867  2.5091 -1.3608
  586MOL0     H79048   2.917   8.664   0.279 -0.5166 -3.4827 -1.9505
  586MOL0     H79049   2.849   8.926   0.321 -2.9237  1.3936 -1.8593
  586MOL0     H79050   2.829   8.941   0.152  0.2765 -0.1348 -0.6532
  586MOL0     H79051   3.070   8.846   0.306 -1.0499 -1.3114 -0.2536
  586MOL0     H79052   3.087   8.834   0.131  1.5735  3.5684 -1.7021
  586MOL0     H79053   3.048   9.090   0.113  2.1841  0.4713 -0.5635
  586MOL0     H79054   3.028   9.088   0.281 -1.6891  0.6036 -1.9184
  586MOL0     H79055   3.261   8.952   0.286  3.2678  0.5837 -0.0743
  586MOL0     H79056   3.280   8.992   0.130 -4.7800 -0.4156 -2.0164
  586MOL0     H79057   3.214   9.205   0.359 -1.8544  1.6302 -1.2203
  586MOL0     H79058   3.266   9.250   0.197 -2.5053  0.4945  1.6825
  586MOL0     H79059   3.430   9.102   0.408 -0.8526  0.0039  0.5961
  586MOL0     H79060   3.483   9.103   0.249 -0.2961 -2.3416  1.3119
  586MOL0     H79061   3.649   9.307   0.188  2.0547  2.8990  0.9440
  586MOL0     H79062   3.804   9.508   0.275 -0.5326 -0.7422  2.6835
  586MOL0     H79063   3.700   9.584   0.145 -2.1048  1.9623  0.5257
  586MOL0     H79064   3.615   9.735   0.335  0.5199  0.0718 -1.5670
  586MOL0     H79065   3.754   9.679   0.432  0.8630  3.0886  0.5690
  586MOL0     H79066   3.820   9.888   0.335 -1.6335 -0.3978  0.6842
  586MOL0     H79067   3.742   9.845   0.184  1.0213  0.5736 -0.5149
  586MOL0     H79068   3.999   9.848   0.181  1.0715  0.6621  2.2465
  586MOL0     H79069   3.942   9.687   0.140  0.5065  2.4154 -1.9818
  586MOL0     H79070   4.066   9.465   0.369 -2.2441  0.2015 -2.6807
  586MOL0     H79071   4.285   9.382   0.371  2.4624  0.6028  1.7280
  586MOL0     H79072   4.806   9.583   0.152 -0.1450  0.7111  0.4961
  586MOL0     H79073   5.026   9.499   0.139  0.6153 -1.2956  0.0208
  586MOL0     H79074   5.321   9.327   0.255  0.3490 -0.0390 -0.5276
  586MOL0     H79075   5.194   9.396   0.154 -0.5888 -0.1646  0.8942
  586MOL0     H79076   5.424   9.512   0.192 -1.3585 -0.9772 -1.0100
  586MOL0     H79077   5.274   9.611   0.195  1.1450 -0.3774 -0.8821
  586MOL0     H79078   5.305   9.585   0.471 -0.8483 -1.4135  0.3853
  586MOL0     H79079   5.445   9.501   0.434 -2.4188 -0.6728 -0.1533
  586MOL0     H79080   5.390   9.794   0.369 -0.3277 -0.6582  0.4076
  586MOL0     H79081   5.528   9.706   0.301  1.7339 -0.6906  1.2767
  586MOL0     H79082   5.599   9.645   0.522  1.6513  0.9090 -2.6380
  586MOL0     H79083   5.464   9.756   0.588 -1.1586  1.8265 -0.7344
  586MOL0     H79084   5.665   9.847   0.386 -1.5149 -0.7320 -0.5146
  586MOL0     H79085   5.560   9.951   0.482  2.9260  1.1779 -0.9066
  586MOL0     H79086   5.690   9.835   0.690  1.1786 -0.6795 -0.0946
  586MOL0     H79087   5.758   9.980   0.600 -0.2736  0.6845  0.1974
  586MOL0     H79088   5.828   9.687   0.583  2.1043 -0.5627 -0.6951
  586MOL0     H79089   5.892   9.807   0.462  1.8018  1.6507  1.4914
  586MOL0     H79090   5.003   9.369   0.545  0.2005 -3.3369 -2.8400
  586MOL0     H79091   4.775   9.479   0.566 -0.4130  0.1171  0.7824
  586MOL0     H79092   4.450   9.774   0.284 -1.2470  0.0773 -3.0652
  586MOL0     H79093   4.229   9.867   0.306  1.4601  0.2985  0.0758
  586MOL0     H79094   2.495   8.602   0.434 -0.8867 -0.7483  0.3465
  586MOL0     H79095   2.251   8.525   0.428 -0.8149 -1.9378 -1.0443
  586MOL0     H79096   1.962   8.324   0.089  1.5060  4.0761 -1.1636
  586MOL0     H79097   1.720   8.227   0.034 -0.4297  0.9302 -0.2517
  586MOL0     H79098   1.359   8.434   0.042 -4.3672  1.4016  1.8349
  586MOL0     H79099   1.381   8.418   0.222  0.6893  0.6462 -1.4805
  586MOL0     H79100   1.321   8.183   0.206 -0.2391 -2.0649 -2.3335
  586MOL0     H79101   1.285   8.204   0.042 -0.6382 -1.1407  1.2967
  586MOL0     H79102   1.105   8.360   0.085  0.2567 -0.9708 -1.0888
  586MOL0     H79103   1.130   8.357   0.263  1.8483  0.9302 -0.5808
  586MOL0     H79104   1.047   8.136   0.075  3.6578 -0.0449  0.5268
  586MOL0     H79105   1.090   8.103   0.249 -1.3335 -1.2093 -0.8907
  586MOL0     H79106   0.698   8.203   0.269  0.3121 -2.2945 -1.4404
  586MOL0     H79107   1.544   8.567   0.206  0.3994 -0.6724  0.3244
  586MOL0     H79108   1.825   8.681   0.379  1.5878 -0.1545 -0.9807
  586MOL0     H79109   1.792   8.787   0.240  0.3621  1.1261  1.0182
  586MOL0     H79110   1.664   8.711   0.343  0.9058 -1.5790  2.3655
  587MOL0     O79111   0.624   4.821   5.714  0.5459 -0.2083 -0.2544
  587MOL0     C79112   0.538   4.911   5.728  0.1776  0.2754 -0.2626
  587MOL0     O79113   0.558   5.036   5.783 -0.4459  0.2552  0.7520
  587MOL0     C79114   0.661   5.044   5.866 -0.6003 -0.5033  0.5485
  587MOL0     C79115   0.799   5.020   5.819  0.3498  0.9250 -0.2236
  587MOL0     C79116   0.904   5.034   5.911  0.6784 -0.2302  0.3859
  587MOL0     C79117   0.882   5.068   6.045 -0.4273  0.5924  0.3297
  587MOL0     O79118   0.997   5.081   6.128  0.1280 -0.0202  0.5773
  587MOL0     C79119   0.974   5.056   6.273 -0.3583 -0.1355  0.6261
  587MOL0     C79120   1.109   5.019   6.326  0.3146  0.4004 -0.3877
  587MOL0     C79121   1.205   5.137   6.322 -0.0323 -0.5442 -0.5588
  587MOL0     C79122   1.355   5.105   6.301 -0.2916 -0.3570  0.6759
  587MOL0     C79123   1.416   5.237   6.248  0.6135 -0.1985  0.6641
  587MOL0     C79124   1.575   5.237   6.237 -0.7116 -0.6772  0.0933
  587MOL0     C79125   1.625   5.138   6.133  0.0662  0.2938 -0.4368
  587MOL0     C79126   1.773   5.163   6.122 -0.3041 -0.5594 -0.1718
  587MOL0     N79127   1.807   5.279   6.036  1.1527  0.0071 -0.2148
  587MOL0     C79128   1.920   5.347   6.040 -0.3762 -0.4098 -0.4905
  587MOL0     C79129   1.917   5.442   5.936  0.0408  0.3039 -0.0444
  587MOL0     C79130   2.033   5.528   5.899 -0.1681 -0.2146 -0.2358
  587MOL0     C79131   2.078   5.527   5.755 -0.5579 -0.7781  0.2180
  587MOL0     C79132   2.211   5.606   5.741  0.3144 -0.0676  0.7160
  587MOL0     C79133   2.286   5.559   5.612  0.6162 -0.6417  0.2871
  587MOL0     O79134   2.386   5.655   5.582 -0.1802  0.4424 -0.6756
  587MOL0     C79135   2.503   5.666   5.656  1.0789 -0.3319  0.6688
  587MOL0     C79136   2.541   5.559   5.738 -0.3582 -0.3686 -0.2390
  587MOL0     C79137   2.658   5.562   5.811 -0.8158 -1.6923  0.2070
  587MOL0     C79138   2.752   5.669   5.795  0.2919 -0.6241  0.4774
  587MOL0     C79139   2.884   5.667   5.866 -0.0637  0.0957  0.8260
  587MOL0     O79140   2.908   5.576   5.959 -0.5665 -0.0175  0.2768
  587MOL0     C79141   3.037   5.560   6.011 -0.2094  0.0881  0.6950
  587MOL0     C79142   3.124   5.669   6.051 -0.9098  0.3798 -0.1802
  587MOL0     C79143   3.237   5.646   6.123 -0.4995 -0.3476 -0.1336
  587MOL0     C79144   3.271   5.523   6.158  0.0584  0.8974 -0.1342
  587MOL0     O79145   3.391   5.515   6.220 -0.4270 -0.9453 -0.0020
  587MOL0     C79146   3.444   5.396   6.265  0.2342  0.4312 -0.4489
  587MOL0     C79147   3.547   5.420   6.375 -0.4365 -0.3876  0.0416
  587MOL0     C79148   3.492   5.517   6.481  0.1663 -0.0147  0.2551
  587MOL0     C79149   3.579   5.514   6.616 -0.8063 -0.6402 -0.5657
  587MOL0     C79150   3.522   5.605   6.724  0.3725 -0.4727 -0.8828
  587MOL0     C79151   3.389   5.554   6.772 -0.7393  0.2444 -0.6706
  587MOL0     C79152   3.335   5.661   6.874  0.3627 -0.3868  0.5830
  587MOL0     C79153   3.191   5.622   6.912  0.0833 -0.1175 -0.1000
  587MOL0    Cl79154   3.180   5.483   7.018  0.0588 -0.1405 -0.3979
  587MOL0     C79155   3.195   5.409   6.124 -0.0559 -0.2463 -0.0398
  587MOL0     C79156   3.077   5.432   6.053  0.6955  0.5888 -0.8905
  587MOL0     O79157   2.966   5.743   5.824 -0.1440  0.4509 -0.2395
  587MOL0     C79158   2.701   5.783   5.718 -0.7311  0.4766  0.1600
  587MOL0     C79159   2.580   5.778   5.649 -0.4417 -0.5308  0.1277
  587MOL0     N79160   1.808   5.400   5.857  0.1026 -0.6049  0.3253
  587MOL0     N79161   1.740   5.314   5.924  0.6368 -0.0338  0.2984
  587MOL0     C79162   0.745   5.092   6.089 -0.3575  0.1877 -0.6597
  587MOL0     C79163   0.637   5.084   6.000  0.5207  0.4672  0.2265
  587MOL0     C79164   0.415   4.899   5.653  0.4709 -0.1809  0.1528
  587MOL0     C79165   0.424   4.864   5.515  0.2542 -0.0886 -0.3609
  587MOL0     C79166   0.307   4.862   5.428 -0.4245 -0.5800 -0.2095
  587MOL0     C79167   0.183   4.897   5.482 -0.0363  0.1785 -0.4447
  587MOL0     O79168   0.072   4.906   5.398  0.1755 -0.0649  0.0809
  587MOL0     C79169   0.089   4.943   5.261  0.4328  0.2936  0.1897
  587MOL0     C79170  -0.034   5.020   5.213  0.1438 -0.0021 -0.6999
  587MOL0     C79171  -0.164   4.934   5.239 -0.5746 -0.3793  0.2878
  587MOL0     C79172  -0.288   5.021   5.212  0.5879  0.3592  0.0334
  587MOL0     C79173  -0.408   4.945   5.174  0.2295  0.1041  0.5703
  587MOL0     C79174  -0.501   4.874   5.151 -0.3550  0.7522  0.4484
  587MOL0     C79175   0.174   4.911   5.621 -0.1788  0.1999 -0.2848
  587MOL0     C79176   0.287   4.921   5.704 -0.0595  0.4926  0.7578
  587MOL0     C79177   0.260   4.956   5.850 -0.7934 -0.3550  0.0297
  587MOL0     H79178   0.814   4.969   5.724 -2.0805 -3.2851  1.3563
  587MOL0     H79179   1.003   5.007   5.877  0.3321 -0.0237 -0.8388
  587MOL0     H79180   0.933   5.141   6.328  0.0358 -0.3014  1.1756
  587MOL0     H79181   0.907   4.971   6.288 -1.6096  0.4115 -1.4174
  587MOL0     H79182   1.162   4.935   6.280  1.7578  0.6557  0.7079
  587MOL0     H79183   1.099   4.989   6.431  1.9933 -0.5773 -0.4744
  587MOL0     H79184   1.185   5.187   6.417  3.2836 -0.1198  0.0501
  587MOL0     H79185   1.177   5.210   6.245 -0.3359 -1.0675 -0.9531
  587MOL0     H79186   1.404   5.068   6.391 -0.0473 -4.3198 -0.8885
  587MOL0     H79187   1.373   5.028   6.225 -0.8504 -1.0451  1.2216
  587MOL0     H79188   1.369   5.271   6.155 -0.5737 -0.7749  1.0212
  587MOL0     H79189   1.401   5.309   6.329 -0.2917  1.3243 -0.7960
  587MOL0     H79190   1.604   5.338   6.204 -0.1912 -0.3273  1.5725
  587MOL0     H79191   1.633   5.216   6.327  0.2610  0.7940 -0.1592
  587MOL0     H79192   1.579   5.136   6.034  0.1305  0.4642 -0.4721
  587MOL0     H79193   1.592   5.046   6.181  0.1825  0.4486 -0.0583
  587MOL0     H79194   1.820   5.194   6.216  1.6567  1.5265 -1.7156
  587MOL0     H79195   1.827   5.074   6.091  0.3205  0.0369 -0.8326
  587MOL0     H79196   2.008   5.320   6.097 -0.8815 -4.2883 -1.2994
  587MOL0     H79197   2.003   5.632   5.915 -2.2626 -0.9981  1.6031
  587MOL0     H79198   2.116   5.497   5.963 -0.6928 -1.0808  0.0540
  587MOL0     H79199   2.088   5.423   5.724 -0.4349 -1.1091  1.3157
  587MOL0     H79200   2.001   5.575   5.694 -1.5001 -1.0918  1.1262
  587MOL0     H79201   2.279   5.577   5.821  0.9014 -0.0275  0.2424
  587MOL0     H79202   2.192   5.713   5.739  1.2803  0.1878  3.0626
  587MOL0     H79203   2.214   5.559   5.530 -1.5439 -2.6411  2.0407
  587MOL0     H79204   2.307   5.454   5.634  0.7271 -0.2969  1.9822
  587MOL0     H79205   2.478   5.471   5.734 -1.4777  0.3928  0.0939
  587MOL0     H79206   2.685   5.478   5.874 -0.0799  0.0412  2.3352
  587MOL0     H79207   3.097   5.767   6.014 -3.7770  0.2008  1.1579
  587MOL0     H79208   3.301   5.726   6.158 -0.7565 -0.2382  0.0910
  587MOL0     H79209   3.365   5.330   6.301  0.5661 -0.8196 -1.9213
  587MOL0     H79210   3.495   5.345   6.183 -0.0464  2.1391 -1.7235
  587MOL0     H79211   3.600   5.336   6.420  2.6814  1.6047  0.4182
  587MOL0     H79212   3.626   5.473   6.321 -1.6642  0.5876 -0.8823
  587MOL0     H79213   3.494   5.617   6.437  0.3575 -1.2375 -2.7204
  587MOL0     H79214   3.386   5.500   6.501 -0.2763  1.0294 -1.0313
  587MOL0     H79215   3.685   5.534   6.597 -0.7584  0.2495  0.5439
  587MOL0     H79216   3.579   5.416   6.663  0.9773 -0.1551  0.5363
  587MOL0     H79217   3.517   5.708   6.686 -0.7777  0.2082  1.0044
  587MOL0     H79218   3.584   5.605   6.814  0.8409 -0.5653 -1.2022
  587MOL0     H79219   3.318   5.535   6.690 -0.3266 -2.1411 -0.5625
  587MOL0     H79220   3.390   5.453   6.814 -3.2549 -0.2786 -1.6633
  587MOL0     H79221   3.335   5.761   6.831  0.9704 -0.6095  0.0394
  587MOL0     H79222   3.401   5.660   6.961 -1.3635 -1.8948  1.9522
  587MOL0     H79223   3.144   5.710   6.957  0.4945 -0.8066  1.7954
  587MOL0     H79224   3.135   5.603   6.820  1.5195  1.2951 -1.3176
  587MOL0     H79225   3.214   5.312   6.169 -2.0825  0.6019  2.9681
  587MOL0     H79226   3.004   5.354   6.037  1.5751 -0.9889  2.0219
  587MOL0     H79227   2.758   5.875   5.719 -2.3206  1.5316  2.6027
  587MOL0     H79228   2.560   5.859   5.580  0.1854 -0.4867 -0.0087
  587MOL0     H79229   0.727   5.112   6.194 -1.0051 -1.1481 -0.4972
  587MOL0     H79230   0.531   5.091   6.020 -0.6013  0.2579 -4.5478
  587MOL0     H79231   0.527   4.846   5.486  0.6328  2.9374 -1.2420
  587MOL0     H79232   0.320   4.836   5.324  2.5603  0.9160 -0.3260
  587MOL0     H79233   0.095   4.859   5.190  1.2282  2.3609 -2.3313
  587MOL0     H79234   0.178   5.005   5.245 -0.1534  0.9574 -0.5877
  587MOL0     H79235  -0.020   5.036   5.106  0.2646 -0.7501 -0.8067
  587MOL0     H79236  -0.049   5.117   5.260  0.6187 -1.4182  2.7250
  587MOL0     H79237  -0.165   4.918   5.347  0.7402  2.2873  0.7960
  587MOL0     H79238  -0.151   4.836   5.193 -0.4102  0.5516 -1.7909
  587MOL0     H79239  -0.302   5.082   5.302 -0.2808  0.3263 -0.0746
  587MOL0     H79240  -0.270   5.078   5.121 -3.3926 -0.7046 -1.6218
  587MOL0     H79241  -0.594   4.822   5.143 -0.5622  0.4516  3.6000
  587MOL0     H79242   0.073   4.927   5.657 -0.1071  2.1460 -0.8193
  587MOL0     H79243   0.331   4.912   5.920 -3.0334 -0.6217  2.2858
  587MOL0     H79244   0.263   5.065   5.866  0.2669 -0.3750 -0.0006
  587MOL0     H79245   0.164   4.925   5.893 -0.4609 -1.6560 -0.1266
  588MOL0     O79246   3.180   6.239   1.179 -0.2315 -0.2508 -0.4462
  588MOL0     C79247   3.072   6.176   1.170 -0.4127 -0.2496  1.2939
  588MOL0     O79248   3.034   6.095   1.056 -0.4814  0.3257  0.0799
  588MOL0     C79249   3.107   6.115   0.939 -0.3853 -0.2962 -0.4219
  588MOL0     C79250   3.083   6.223   0.853  0.2233  0.3159  0.3921
  588MOL0     C79251   3.154   6.240   0.736 -0.4075 -0.3593  0.2830
  588MOL0     C79252   3.256   6.158   0.696 -0.2209  0.0241  0.6232
  588MOL0     O79253   3.314   6.176   0.572  0.0931  0.0634  0.0217
  588MOL0     C79254   3.438   6.101   0.547  0.1867  0.4544  0.0799
  588MOL0     C79255   3.481   6.122   0.403  0.2905 -0.2190  0.0728
  588MOL0     C79256   3.572   6.008   0.350 -0.8071  0.4024 -0.4327
  588MOL0     C79257   3.675   5.958   0.446 -0.4066 -0.0597  0.4114
  588MOL0     C79258   3.773   5.862   0.378 -0.3729 -0.5445 -0.2214
  588MOL0     C79259   3.844   5.771   0.484  1.0070 -0.0894 -0.4322
  588MOL0     C79260   3.988   5.739   0.453 -0.3766  1.2835  0.1252
  588MOL0     C79261   4.016   5.654   0.324  0.5021 -0.0140  0.5371
  588MOL0     N79262   4.160   5.659   0.301  0.7455 -0.5242 -0.1569
  588MOL0     C79263   4.258   5.598   0.373  0.9622  0.2704 -0.7013
  588MOL0     C79264   4.376   5.653   0.327 -0.0648 -0.4183  0.3043
  588MOL0     C79265   4.515   5.615   0.371  1.0064 -0.2039  0.4297
  588MOL0     C79266   4.597   5.601   0.244 -0.1850 -0.5143  0.5828
  588MOL0     C79267   4.738   5.548   0.291 -0.6397  0.2186 -0.3674
  588MOL0     C79268   4.832   5.577   0.173 -0.7196  0.6918  0.2715
  588MOL0     O79269   4.959   5.515   0.195 -0.8488  0.3651  0.1215
  588MOL0     C79270   5.054   5.579   0.260  0.3699 -0.6129 -0.0440
  588MOL0     C79271   5.049   5.704   0.318  0.0191  0.1753 -0.7395
  588MOL0     C79272   5.159   5.755   0.384 -0.3609  0.4484  0.7822
  588MOL0     C79273   5.282   5.682   0.383 -0.0652 -0.2923  0.4268
  588MOL0     C79274   5.407   5.738   0.445 -0.1246 -0.2916 -0.5184
  588MOL0     O79275   5.518   5.670   0.415  0.2395 -0.1661 -0.3017
  588MOL0     C79276   5.642   5.715   0.455 -0.2060  0.6436 -1.0551
  588MOL0     C79277   5.751   5.632   0.482 -0.0455 -0.2884 -0.0029
  588MOL0     C79278   5.880   5.683   0.503  0.1500  0.1550 -0.0151
  588MOL0     C79279   5.912   5.814   0.475  0.8060 -0.3528  0.2357
  588MOL0     O79280   6.036   5.872   0.471 -0.2511 -0.5914 -0.3217
  588MOL0     C79281   6.138   5.793   0.525 -0.7454  0.2849 -0.6019
  588MOL0     C79282   6.275   5.869   0.509 -0.9681  0.4624 -0.1087
  588MOL0     C79283   6.387   5.776   0.559 -0.1908  0.4716 -0.7839
  588MOL0     C79284   6.532   5.836   0.561  0.4311  0.5052  0.8631
  588MOL0     C79285   6.593   5.798   0.688 -0.6562  0.1858 -0.7364
  588MOL0     C79286   6.724   5.881   0.719  0.2835 -0.3463 -0.2864
  588MOL0     C79287   6.846   5.810   0.675  0.1286  0.3386  0.0333
  588MOL0     C79288   6.960   5.895   0.709 -0.0606  0.0961 -0.2554
  588MOL0    Cl79289   6.979   5.895   0.889  0.1108  0.3854  0.1897
  588MOL0     C79290   5.807   5.904   0.458  0.4681  0.0809  0.9799
  588MOL0     C79291   5.679   5.850   0.447  0.6471  0.5972 -0.0536
  588MOL0     O79292   5.399   5.841   0.514 -0.2226 -0.3716  0.1402
  588MOL0     C79293   5.283   5.552   0.328 -0.7900  0.2349  0.2970
  588MOL0     C79294   5.168   5.502   0.265  0.0558 -0.5941 -0.1035
  588MOL0     N79295   4.341   5.743   0.229  0.9600  0.1053  0.4121
  588MOL0     N79296   4.215   5.750   0.215 -0.2816 -0.3161  0.3123
  588MOL0     C79297   3.282   6.048   0.784 -0.1300 -0.0990 -1.4818
  588MOL0     C79298   3.199   6.025   0.897 -0.4940 -0.3577  0.0503
  588MOL0     C79299   2.968   6.178   1.271  0.1960 -0.3065  0.4002
  588MOL0     C79300   2.836   6.188   1.220  0.4885  0.5598 -0.0891
  588MOL0     C79301   2.727   6.188   1.317 -0.0181  0.5060 -0.0077
  588MOL0     C79302   2.743   6.161   1.457  0.3515  0.0381  0.1102
  588MOL0     O79303   2.642   6.161   1.552  1.0028 -0.2750 -0.5347
  588MOL0     C79304   2.503   6.180   1.509 -0.3988  0.1686  0.3228
  588MOL0     C79305   2.401   6.184   1.618  0.2738  0.1305 -0.5954
  588MOL0     C79306   2.444   6.251   1.749 -0.5848  0.0581 -0.3997
  588MOL0     C79307   2.342   6.254   1.853  0.5083 -0.1717 -0.1096
  588MOL0     C79308   2.243   6.368   1.823 -0.7655  1.3395  1.2579
  588MOL0     C79309   2.156   6.448   1.797 -0.8961 -0.1488  0.2880
  588MOL0     C79310   2.877   6.147   1.503 -0.2947  0.4504  0.0785
  588MOL0     C79311   2.983   6.154   1.406 -0.8488 -0.8322 -0.0643
  588MOL0     C79312   3.127   6.134   1.459 -0.5474  0.3180  0.8812
  588MOL0     H79313   2.997   6.287   0.869  0.1385  1.6250 -4.0732
  588MOL0     H79314   3.127   6.323   0.671  1.1101  1.8762  2.2940
  588MOL0     H79315   3.523   6.130   0.609  0.6513 -0.6266 -0.0237
  588MOL0     H79316   3.416   5.995   0.561 -1.9487  0.5429 -2.0192
  588MOL0     H79317   3.539   6.213   0.391 -0.9128  0.6697  0.7573
  588MOL0     H79318   3.391   6.137   0.343  0.3813  1.2154  0.2673
  588MOL0     H79319   3.626   6.041   0.260  1.0559  1.1336  0.8873
  588MOL0     H79320   3.513   5.920   0.323  1.1631 -0.8588 -0.8053
  588MOL0     H79321   3.736   6.040   0.485 -0.9208  0.8419 -0.6201
  588MOL0     H79322   3.623   5.905   0.527 -0.4939 -0.9834 -0.2340
  588MOL0     H79323   3.732   5.797   0.300  0.3466 -0.2537 -0.8553
  588MOL0     H79324   3.846   5.923   0.323 -0.2870 -1.6036 -1.3267
  588MOL0     H79325   3.832   5.831   0.575  1.9684  2.0621 -1.6675
  588MOL0     H79326   3.789   5.679   0.507 -0.7656  1.1458  0.4968
  588MOL0     H79327   4.026   5.684   0.540 -1.0631  0.3145 -0.1684
  588MOL0     H79328   4.034   5.838   0.450 -0.1769  1.2795  2.0067
  588MOL0     H79329   3.977   5.554   0.345  0.8354 -0.4903 -0.9887
  588MOL0     H79330   3.964   5.697   0.238 -3.9077 -1.7101  2.0818
  588MOL0     H79331   4.245   5.528   0.455  0.2567 -1.5535 -2.2770
  588MOL0     H79332   4.557   5.695   0.433 -0.5728  2.0714 -1.2686
  588MOL0     H79333   4.513   5.520   0.426  0.4862 -0.5495 -0.1712
  588MOL0     H79334   4.558   5.528   0.172  0.9365 -0.8370  0.2825
  588MOL0     H79335   4.606   5.692   0.185 -1.2397 -1.3618 -0.9550
  588MOL0     H79336   4.732   5.441   0.316  0.4009  0.6177  1.9242
  588MOL0     H79337   4.774   5.600   0.381 -1.2845  2.6421 -1.4497
  588MOL0     H79338   4.828   5.682   0.142 -0.0643  0.9255  0.9495
  588MOL0     H79339   4.792   5.521   0.088  0.0089  0.0378  0.3465
  588MOL0     H79340   4.963   5.763   0.290  0.5852  1.0240 -0.7126
  588MOL0     H79341   5.163   5.858   0.419  2.8081  0.6742  0.0716
  588MOL0     H79342   5.742   5.524   0.479  1.1281 -0.3892 -0.3002
  588MOL0     H79343   5.953   5.603   0.512 -1.0861 -1.1799 -1.3362
  588MOL0     H79344   6.123   5.777   0.632  1.0600  2.6072  0.0698
  588MOL0     H79345   6.130   5.690   0.488 -3.0740 -0.5012  1.7442
  588MOL0     H79346   6.289   5.907   0.408 -0.2857  2.2740  0.6279
  588MOL0     H79347   6.287   5.961   0.567 -1.4490 -0.3540  1.3331
  588MOL0     H79348   6.350   5.737   0.654 -1.0828  0.4756 -1.1154
  588MOL0     H79349   6.397   5.691   0.490  0.1709  0.4645 -0.7222
  588MOL0     H79350   6.536   5.945   0.559 -1.2088  0.5789  0.2931
  588MOL0     H79351   6.590   5.779   0.489 -0.3146 -2.4791  2.4356
  588MOL0     H79352   6.614   5.691   0.680 -0.0946  0.3273 -1.2003
  588MOL0     H79353   6.523   5.820   0.769 -2.8955 -0.8070 -2.3047
  588MOL0     H79354   6.717   5.979   0.670 -1.3396 -0.0253  0.4989
  588MOL0     H79355   6.741   5.899   0.825  1.7483 -0.6198 -0.4565
  588MOL0     H79356   6.846   5.788   0.568  1.3105 -0.8561  0.2507
  588MOL0     H79357   6.848   5.710   0.718 -4.4194 -0.1328 -0.3225
  588MOL0     H79358   7.053   5.850   0.674  0.3370  0.9911 -0.3560
  588MOL0     H79359   6.957   5.996   0.668  1.4607  1.0833  1.8403
  588MOL0     H79360   5.822   6.011   0.443  0.4677  0.0499  0.7624
  588MOL0     H79361   5.603   5.922   0.420 -2.6527 -1.9092  1.7473
  588MOL0     H79362   5.368   5.485   0.332 -0.0311  1.0086 -1.5902
  588MOL0     H79363   5.176   5.401   0.227  0.6514 -0.5797 -0.0184
  588MOL0     H79364   3.359   5.974   0.764 -1.2786 -1.6943 -0.2347
  588MOL0     H79365   3.213   5.932   0.950 -0.9569 -0.3620  0.1719
  588MOL0     H79366   2.827   6.216   1.115  1.6391  2.0510  0.1709
  588MOL0     H79367   2.625   6.205   1.283  0.2491 -0.5057 -1.3801
  588MOL0     H79368   2.466   6.106   1.438 -1.5249  1.4890 -0.5012
  588MOL0     H79369   2.497   6.274   1.454 -0.1565  0.5883  0.9969
  588MOL0     H79370   2.373   6.081   1.639  0.5553  0.4528  1.5476
  588MOL0     H79371   2.314   6.232   1.573 -0.5638 -1.5794 -0.8551
  588MOL0     H79372   2.482   6.348   1.719  1.9841 -1.1187 -1.2053
  588MOL0     H79373   2.525   6.198   1.798 -0.4636  3.2005  3.2230
  588MOL0     H79374   2.291   6.158   1.846  2.2147 -0.9895 -2.2255
  588MOL0     H79375   2.393   6.260   1.950  0.7142 -0.0457 -0.2253
  588MOL0     H79376   2.080   6.523   1.785 -2.3399 -1.5807  0.0620
  588MOL0     H79377   2.907   6.109   1.600 -3.5674 -4.2679 -0.4324
  588MOL0     H79378   3.129   6.086   1.557 -1.7246 -0.6193  0.4627
  588MOL0     H79379   3.194   6.082   1.389 -2.3415 -1.0673  0.1304
  588MOL0     H79380   3.158   6.239   1.464 -1.9319  1.0479 -2.8447
  589MOL0     O79381   5.218   2.001   5.698 -0.2289  0.4736 -0.4947
  589MOL0     C79382   5.308   1.921   5.676 -0.1262  0.1806 -0.3479
  589MOL0     O79383   5.291   1.796   5.623  0.6144  0.0375 -0.3624
  589MOL0     C79384   5.160   1.750   5.600 -1.3761 -0.5620  0.3055
  589MOL0     C79385   5.135   1.665   5.494  0.0534 -0.1315  0.1034
  589MOL0     C79386   5.003   1.620   5.465  0.0698 -0.3957 -0.3061
  589MOL0     C79387   4.891   1.664   5.534  0.8513  0.8199  0.4895
  589MOL0     O79388   4.764   1.623   5.490 -0.3092  0.7463  0.8368
  589MOL0     C79389   4.665   1.719   5.518 -0.3745 -0.1548 -0.1225
  589MOL0     C79390   4.522   1.689   5.462 -0.5720 -0.3093  0.4443
  589MOL0     C79391   4.425   1.800   5.492 -0.1897 -0.1941 -0.2102
  589MOL0     C79392   4.280   1.747   5.477  0.2305  0.0418  0.0304
  589MOL0     C79393   4.185   1.856   5.511 -0.1952 -0.5973  0.5538
  589MOL0     C79394   4.038   1.800   5.506 -1.5513 -0.4832 -0.4512
  589MOL0     C79395   3.937   1.911   5.523 -0.1015 -0.9035 -0.3062
  589MOL0     C79396   3.803   1.861   5.471  0.8244 -0.3498 -0.5487
  589MOL0     N79397   3.687   1.953   5.499  0.6927  0.5629  0.0548
  589MOL0     C79398   3.556   1.929   5.481  0.7570 -0.7226 -0.5069
  589MOL0     C79399   3.500   2.051   5.510  0.2946  0.4808 -0.0875
  589MOL0     C79400   3.354   2.074   5.496  0.0315 -0.2007  0.3084
  589MOL0     C79401   3.338   2.187   5.384  0.6314 -0.3233 -0.0438
  589MOL0     C79402   3.365   2.133   5.242 -1.0522 -0.2521 -0.6268
  589MOL0     C79403   3.496   2.187   5.190 -0.6291  0.2743  0.1103
  589MOL0     O79404   3.543   2.087   5.096  0.3454 -0.2181  0.0435
  589MOL0     C79405   3.682   2.065   5.095  0.4916 -0.0423  0.2083
  589MOL0     C79406   3.782   2.109   5.183  0.6736  0.1552 -0.4198
  589MOL0     C79407   3.914   2.068   5.163  0.4209 -0.0381  0.0518
  589MOL0     C79408   3.948   1.991   5.053  0.1043 -0.0341 -0.5969
  589MOL0     C79409   4.095   1.948   5.036  0.4826  0.5321 -0.4398
  589MOL0     O79410   4.181   1.976   5.140 -0.1268 -0.6735  0.5489
  589MOL0     C79411   4.315   1.955   5.107  0.4168  0.0046 -0.0140
  589MOL0     C79412   4.404   2.060   5.091 -0.1828 -0.4897 -0.2373
  589MOL0     C79413   4.538   2.039   5.067  0.2172  0.6865 -0.1530
  589MOL0     C79414   4.595   1.910   5.082 -0.1453 -0.7731  0.9680
  589MOL0     O79415   4.733   1.899   5.060 -0.0088  0.5292 -0.2169
  589MOL0     C79416   4.792   1.798   5.140 -0.8695  1.0690  0.6388
  589MOL0     C79417   4.945   1.806   5.151 -0.4466 -0.8927 -0.6968
  589MOL0     C79418   4.987   1.917   5.251  0.3372  0.2649  0.3772
  589MOL0     C79419   5.143   1.929   5.241 -0.4722  0.3829  0.1718
  589MOL0     C79420   5.193   2.057   5.320 -0.6091 -0.3964  0.1031
  589MOL0     C79421   5.333   2.102   5.305  0.4861 -0.0880  0.3693
  589MOL0     C79422   5.364   2.170   5.171 -0.1314 -0.0858  0.3982
  589MOL0     C79423   5.512   2.206   5.158  0.0416  0.8840 -0.3652
  589MOL0    Cl79424   5.585   2.044   5.101  0.1593 -0.1677 -0.0388
  589MOL0     C79425   4.507   1.806   5.110 -0.8303 -0.1677 -0.1748
  589MOL0     C79426   4.366   1.822   5.122  0.1837  0.1104 -0.7170
  589MOL0     O79427   4.131   1.909   4.927  0.1102 -0.6229 -0.2040
  589MOL0     C79428   3.860   1.942   4.973 -0.2621 -0.8586  0.8847
  589MOL0     C79429   3.723   1.980   4.992 -0.2391 -0.2244  0.4535
  589MOL0     N79430   3.597   2.143   5.544  0.6141 -1.0107  0.1330
  589MOL0     N79431   3.709   2.081   5.542 -0.3183 -0.6591  0.1997
  589MOL0     C79432   4.920   1.736   5.662  0.8504  0.9220  0.9192
  589MOL0     C79433   5.056   1.773   5.689 -0.4039 -0.5781  0.5248
  589MOL0     C79434   5.441   1.963   5.687  1.0405  0.2937  0.4712
  589MOL0     C79435   5.522   1.931   5.576 -0.5804  0.0093 -0.5398
  589MOL0     C79436   5.664   1.955   5.587 -0.1061 -0.2015 -0.6484
  589MOL0     C79437   5.724   2.006   5.700 -0.4390  0.3366  0.1817
  589MOL0     O79438   5.861   2.014   5.709  0.0155 -0.1071 -0.0792
  589MOL0     C79439   5.908   2.124   5.784  0.1484  0.4955 -0.8057
  589MOL0     C79440   6.016   2.192   5.708  0.1627  0.3943 -0.7476
  589MOL0     C79441   6.032   2.341   5.736  0.1872  0.3235  0.2178
  589MOL0     C79442   6.129   2.419   5.651 -0.3762 -0.0774  0.5337
  589MOL0     C79443   6.269   2.367   5.655 -0.3898 -0.3534 -0.4556
  589MOL0     C79444   6.389   2.346   5.660  0.4943  0.8849  0.7118
  589MOL0     C79445   5.635   2.030   5.809 -0.3497  0.9922 -0.8845
  589MOL0     C79446   5.500   2.001   5.812  0.4824 -0.2304  0.1966
  589MOL0     C79447   5.414   2.013   5.942  0.9923  0.1297 -0.1069
  589MOL0     H79448   5.216   1.637   5.427  1.4250 -0.0483  1.6665
  589MOL0     H79449   4.987   1.555   5.379 -4.1994 -0.3868  0.2628
  589MOL0     H79450   4.657   1.736   5.626  0.0532 -0.1169 -0.0991
  589MOL0     H79451   4.688   1.818   5.477 -0.9495  0.3580  0.7398
  589MOL0     H79452   4.483   1.597   5.507 -0.8291 -1.3455 -1.7391
  589MOL0     H79453   4.533   1.669   5.355 -0.8326  0.7883  0.2047
  589MOL0     H79454   4.438   1.886   5.426  1.7303 -0.1050  0.2229
  589MOL0     H79455   4.443   1.838   5.593 -1.0373  2.4669 -0.9911
  589MOL0     H79456   4.263   1.702   5.379  0.6577  1.7847 -0.8869
  589MOL0     H79457   4.261   1.669   5.551  1.9095  0.0858  0.5620
  589MOL0     H79458   4.211   1.901   5.607  3.3849 -2.0327  0.4185
  589MOL0     H79459   4.189   1.934   5.434 -3.6597  1.9324  2.6840
  589MOL0     H79460   4.012   1.757   5.409  0.9214 -0.8530 -1.0208
  589MOL0     H79461   4.031   1.724   5.584  2.7916  1.1141  1.8111
  589MOL0     H79462   3.966   2.005   5.475 -0.5379 -0.2903  0.6183
  589MOL0     H79463   3.922   1.917   5.631 -1.7799 -3.1467 -0.3462
  589MOL0     H79464   3.811   1.848   5.363  0.9335 -3.1242 -0.2805
  589MOL0     H79465   3.768   1.772   5.524  1.6629  0.6620  1.8089
  589MOL0     H79466   3.518   1.833   5.446  1.7906 -0.7926 -1.4598
  589MOL0     H79467   3.296   1.983   5.481 -2.6854 -0.0359  6.6259
  589MOL0     H79468   3.321   2.109   5.595 -2.5474  1.2968 -0.9731
  589MOL0     H79469   3.231   2.211   5.383  1.0364  3.2510  4.7931
  589MOL0     H79470   3.380   2.283   5.417  0.1670 -1.1049  3.0375
  589MOL0     H79471   3.289   2.165   5.170  0.5095  4.1633 -0.6352
  589MOL0     H79472   3.380   2.026   5.254  3.4313  0.1462 -1.0415
  589MOL0     H79473   3.562   2.191   5.277  0.4776  1.0298 -0.7427
  589MOL0     H79474   3.501   2.290   5.152 -2.3127  1.1029  1.9801
  589MOL0     H79475   3.762   2.189   5.254  1.9089  2.0594 -2.1010
  589MOL0     H79476   3.981   2.110   5.237 -0.7358  1.8623  0.0822
  589MOL0     H79477   4.367   2.162   5.091  1.8563  0.3508  2.5200
  589MOL0     H79478   4.610   2.115   5.037  0.9781  0.3043  0.6619
  589MOL0     H79479   4.746   1.801   5.239  1.8059 -0.9778  2.0772
  589MOL0     H79480   4.781   1.701   5.090  2.3293  0.3491  1.1148
  589MOL0     H79481   4.982   1.705   5.170 -3.9074 -2.1509  0.1477
  589MOL0     H79482   4.978   1.829   5.049 -2.5744  2.4319 -0.7885
  589MOL0     H79483   4.938   2.013   5.234  1.3908  0.7055 -0.2265
  589MOL0     H79484   4.965   1.880   5.352  0.7896  2.6070  1.3916
  589MOL0     H79485   5.184   1.930   5.140 -2.5823  1.1010 -0.7418
  589MOL0     H79486   5.179   1.836   5.287 -0.4272  1.0917  1.6307
  589MOL0     H79487   5.175   2.030   5.425 -0.2866 -0.8486  0.0487
  589MOL0     H79488   5.137   2.148   5.298 -0.0423  0.1580  0.8902
  589MOL0     H79489   5.348   2.178   5.381 -2.1952  1.5038 -0.5824
  589MOL0     H79490   5.398   2.014   5.314  0.3539 -0.0828  1.4643
  589MOL0     H79491   5.304   2.261   5.171  0.4263  0.3933  3.3799
  589MOL0     H79492   5.341   2.103   5.088  0.5945  0.6643 -0.4325
  589MOL0     H79493   5.517   2.283   5.081 -1.4091  0.8760 -0.4829
  589MOL0     H79494   5.558   2.247   5.248  0.8018 -0.4868 -0.0852
  589MOL0     H79495   4.551   1.708   5.125  0.6243  0.6172  0.8300
  589MOL0     H79496   4.293   1.747   5.149  1.0751 -0.1510  1.0647
  589MOL0     H79497   3.900   1.887   4.888  0.9771  2.1598 -0.6602
  589MOL0     H79498   3.660   1.943   4.912  2.8464  3.2237 -4.0610
  589MOL0     H79499   4.830   1.763   5.716 -0.1705 -1.3723  0.5025
  589MOL0     H79500   5.075   1.835   5.776  0.0381 -0.4841  0.3651
  589MOL0     H79501   5.469   1.900   5.486 -0.9809  1.1874 -0.7251
  589MOL0     H79502   5.726   1.922   5.504 -0.9911  0.8576 -1.7829
  589MOL0     H79503   5.941   2.082   5.880  0.5625  1.8791 -0.3190
  589MOL0     H79504   5.829   2.197   5.806  0.5850  0.3100  1.7160
  589MOL0     H79505   5.997   2.170   5.603  0.9796  0.0816 -0.8395
  589MOL0     H79506   6.105   2.138   5.741 -0.9764 -0.9491  0.2691
  589MOL0     H79507   6.057   2.361   5.840 -0.4892 -1.0826  0.6869
  589MOL0     H79508   5.934   2.387   5.718 -0.2864 -1.5841 -2.9840
  589MOL0     H79509   6.089   2.424   5.549  1.8056 -0.6165 -0.4154
  589MOL0     H79510   6.138   2.519   5.693 -3.3537 -0.3051  1.9355
  589MOL0     H79511   6.493   2.322   5.667  0.5956  0.7700 -0.7958
  589MOL0     H79512   5.680   2.060   5.903  0.0215 -1.8449 -0.0691
  589MOL0     H79513   5.345   1.929   5.951  0.6972  0.4142  0.3307
  589MOL0     H79514   5.476   2.023   6.031  0.0189  2.1704  0.4032
  589MOL0     H79515   5.355   2.105   5.938 -0.0417 -0.5288 -0.3376
  590MOL0     O79516   5.119   3.227  10.186  0.1282  0.3745 -0.0124
  590MOL0     C79517   5.092   3.230  10.068 -0.1117 -0.4021 -0.5624
  590MOL0     O79518   5.172   3.175   9.963 -0.1082  0.2038  0.1961
  590MOL0     C79519   5.296   3.133   9.998  0.5952  1.1399  0.2900
  590MOL0     C79520   5.303   2.999  10.047 -0.6644 -0.0355  0.7145
  590MOL0     C79521   5.434   2.942  10.066  0.0998 -0.1997 -0.6492
  590MOL0     C79522   5.544   3.015  10.030 -0.3577  0.3513  0.1699
  590MOL0     O79523   5.674   2.968  10.039  0.8771  0.1951 -0.0853
  590MOL0     C79524   5.693   2.872  10.145  0.1282 -0.3534 -1.0201
  590MOL0     C79525   5.838   2.835  10.143  0.2639 -0.2830 -0.4770
  590MOL0     C79526   5.871   2.773  10.005 -0.7713 -0.1464  0.2605
  590MOL0     C79527   6.013   2.712  10.015 -0.2243 -0.4735 -0.1772
  590MOL0     C79528   6.041   2.639   9.884 -0.3604  0.6136 -0.5676
  590MOL0     C79529   6.172   2.554   9.882  0.1849  0.8910  0.0394
  590MOL0     C79530   6.289   2.638   9.915 -0.2263 -0.4891 -0.2230
  590MOL0     C79531   6.422   2.593   9.856 -0.2769  0.1929  0.6482
  590MOL0     N79532   6.457   2.450   9.889  0.3681  0.2565 -0.3490
  590MOL0     C79533   6.385   2.336   9.856  0.9247 -0.1837 -0.5002
  590MOL0     C79534   6.471   2.235   9.872 -1.2020  1.0172 -0.2419
  590MOL0     C79535   6.453   2.087   9.832 -0.3721 -0.4096  0.4623
  590MOL0     C79536   6.429   2.065   9.678  0.3793 -1.0077  0.4491
  590MOL0     C79537   6.538   2.140   9.592  0.1640  0.2567  0.7425
  590MOL0     C79538   6.686   2.086   9.607 -0.0011 -0.3981  0.2366
  590MOL0     O79539   6.681   1.945   9.564 -0.2255  0.0297  0.6119
  590MOL0     C79540   6.805   1.887   9.573  0.0975  0.2335  0.4118
  590MOL0     C79541   6.804   1.764   9.516  0.0258 -0.4305  0.3766
  590MOL0     C79542   6.918   1.680   9.515  0.1479  0.5501 -0.2728
  590MOL0     C79543   7.036   1.734   9.568 -0.3710  0.6570 -0.5341
  590MOL0     C79544   7.164   1.661   9.556 -0.9093 -0.6035 -0.4808
  590MOL0     O79545   7.277   1.728   9.609  0.0148 -0.2941 -0.0128
  590MOL0     C79546   7.396   1.664   9.623  0.1762  0.7104 -0.0747
  590MOL0     C79547   7.458   1.581   9.520  0.2408  0.7662  0.3420
  590MOL0     C79548   7.579   1.521   9.539  1.1038  1.0499 -0.0214
  590MOL0     C79549   7.658   1.553   9.655 -0.4877  0.3027  0.8843
  590MOL0     O79550   7.784   1.504   9.669 -0.3261 -0.3020  0.5186
  590MOL0     C79551   7.826   1.431   9.784 -0.7126 -1.6337  0.4454
  590MOL0     C79552   7.951   1.361   9.736 -0.5156  0.0467 -0.0050
  590MOL0     C79553   8.018   1.285   9.853 -0.2546  0.8158  0.4332
  590MOL0     C79554   8.167   1.263   9.832  0.7697 -0.1204  0.9181
  590MOL0     C79555   8.224   1.159   9.935 -0.0570  0.1359  0.2852
  590MOL0     C79556   8.373   1.150   9.912 -0.6531 -0.1595  0.2654
  590MOL0     C79557   8.427   1.029   9.989  0.7124 -0.3440 -0.3702
  590MOL0     C79558   8.423   0.898   9.918  0.0239  0.5455  0.4575
  590MOL0    Cl79559   8.515   0.885   9.768  0.1091  0.1536  0.1599
  590MOL0     C79560   7.599   1.633   9.754  0.0023 -0.0609 -0.3053
  590MOL0     C79561   7.466   1.678   9.744 -0.6542  0.1109 -0.0127
  590MOL0     O79562   7.168   1.551   9.506  0.6366  0.2486 -0.2200
  590MOL0     C79563   7.036   1.860   9.625  0.1483 -0.8633 -0.0793
  590MOL0     C79564   6.921   1.932   9.634  0.2740  0.2174 -0.6755
  590MOL0     N79565   6.590   2.285   9.923  0.1363  0.1774  0.4566
  590MOL0     N79566   6.580   2.412   9.920 -0.1536 -0.1656  0.1541
  590MOL0     C79567   5.529   3.143   9.971 -0.1564  0.0381  1.0739
  590MOL0     C79568   5.405   3.203   9.949  0.0718  0.6590 -0.3777
  590MOL0     C79569   4.965   3.290  10.034 -0.8253  1.0727  0.4338
  590MOL0     C79570   4.947   3.331   9.904  0.0689  0.0167  0.6326
  590MOL0     C79571   4.818   3.368   9.849  0.8621  0.1398 -0.1456
  590MOL0     C79572   4.713   3.376   9.941  0.0009 -0.1273 -0.7967
  590MOL0     O79573   4.592   3.421   9.906  0.3689 -0.4599 -0.4835
  590MOL0     C79574   4.559   3.468   9.776  0.8069 -0.9555  0.2118
  590MOL0     C79575   4.413   3.510   9.782 -0.5752  0.3612  0.4238
  590MOL0     C79576   4.402   3.647   9.859  0.4691  0.4923 -0.8241
  590MOL0     C79577   4.263   3.651   9.929 -0.5102  0.1262 -0.0324
  590MOL0     C79578   4.160   3.658   9.822  0.0905 -0.6520 -0.3384
  590MOL0     C79579   4.088   3.682   9.727  0.3070  0.1149  0.8164
  590MOL0     C79580   4.726   3.352  10.075 -0.6936  0.4154  0.1863
  590MOL0     C79581   4.853   3.304  10.123 -0.2804 -0.6821  0.1859
  590MOL0     C79582   4.861   3.301  10.269  0.5843 -0.1549  0.4972
  590MOL0     H79583   5.219   2.952  10.095 -2.2383  0.4406 -1.4392
  590MOL0     H79584   5.444   2.848  10.119 -2.9933  0.2393  0.9376
  590MOL0     H79585   5.669   2.906  10.246  4.0733 -0.5805  0.1573
  590MOL0     H79586   5.646   2.774  10.132  4.0580 -2.3895 -1.3110
  590MOL0     H79587   5.861   2.764  10.224  1.3026 -0.5882 -1.0139
  590MOL0     H79588   5.910   2.916  10.156  0.8707 -0.7098 -1.0842
  590MOL0     H79589   5.871   2.848   9.926 -0.7025 -0.3021  0.1116
  590MOL0     H79590   5.797   2.701   9.967  1.2651 -2.3706  0.2621
  590MOL0     H79591   6.095   2.784  10.030 -1.0842  0.1451  2.0333
  590MOL0     H79592   6.012   2.643  10.101 -3.1464 -1.4217 -0.8663
  590MOL0     H79593   5.957   2.571   9.867 -1.1770  1.8300 -1.6175
  590MOL0     H79594   6.053   2.708   9.799  1.6848  0.5664 -0.3716
  590MOL0     H79595   6.157   2.476   9.956 -0.7239 -2.0389 -2.9824
  590MOL0     H79596   6.187   2.498   9.789 -1.2708 -1.9988  1.4032
  590MOL0     H79597   6.311   2.649  10.022  0.6737  2.8949 -0.6221
  590MOL0     H79598   6.267   2.739   9.880 -0.3394 -0.4948 -0.1666
  590MOL0     H79599   6.411   2.607   9.748 -2.2007 -1.8586  0.4899
  590MOL0     H79600   6.496   2.661   9.899  0.8544  1.5132 -3.0472
  590MOL0     H79601   6.281   2.324   9.827  0.8076 -0.5519  0.0719
  590MOL0     H79602   6.542   2.031   9.863 -0.8810 -1.1222  0.6697
  590MOL0     H79603   6.369   2.042   9.886 -1.5235  0.7545 -0.3072
  590MOL0     H79604   6.428   1.960   9.647  2.7798 -1.3645  1.4074
  590MOL0     H79605   6.334   2.112   9.648  2.1661  1.1457 -2.3712
  590MOL0     H79606   6.529   2.246   9.619 -0.0840  1.1010 -2.2337
  590MOL0     H79607   6.515   2.131   9.485 -0.2463 -0.2503  0.8697
  590MOL0     H79608   6.720   2.125   9.704  0.3866  1.2214 -0.5200
  590MOL0     H79609   6.744   2.144   9.535  2.9186 -1.1698  1.7851
  590MOL0     H79610   6.712   1.725   9.475  0.5817 -0.2554 -1.0782
  590MOL0     H79611   6.931   1.576   9.483  1.1840 -0.1745  2.2824
  590MOL0     H79612   7.402   1.563   9.429  1.4687  0.9448 -0.4719
  590MOL0     H79613   7.624   1.453   9.468  1.6258  0.4226  0.8864
  590MOL0     H79614   7.837   1.492   9.874  0.2436 -1.8743  0.5011
  590MOL0     H79615   7.751   1.358   9.817  1.5455 -4.0672  0.6078
  590MOL0     H79616   7.916   1.298   9.654 -1.3777  1.3044 -0.6510
  590MOL0     H79617   8.015   1.436   9.688 -1.2049 -0.3484 -1.6425
  590MOL0     H79618   8.014   1.342   9.946 -1.0217  2.4163 -0.5509
  590MOL0     H79619   7.965   1.191   9.871  0.2873  0.9651  3.2315
  590MOL0     H79620   8.236   1.348   9.831  1.6332 -0.8042  0.5732
  590MOL0     H79621   8.165   1.215   9.734 -1.4210  3.5690 -1.0843
  590MOL0     H79622   8.173   1.064   9.919 -2.0282  1.2410 -0.4264
  590MOL0     H79623   8.204   1.184  10.040 -0.2315  0.8145  0.0980
  590MOL0     H79624   8.390   1.138   9.805  2.8742  3.2280  0.2509
  590MOL0     H79625   8.426   1.240   9.945  1.6612 -1.5519  0.5719
  590MOL0     H79626   8.371   1.037  10.084  2.8268  1.6776  0.8099
  590MOL0     H79627   8.529   1.040  10.026  0.6401  0.2027 -0.3132
  590MOL0     H79628   8.457   0.810   9.973  0.7604 -0.5804 -1.6623
  590MOL0     H79629   8.321   0.882   9.881  0.0474  3.6470 -1.2439
  590MOL0     H79630   7.650   1.644   9.849 -2.1441  2.7889  0.6326
  590MOL0     H79631   7.417   1.735   9.823 -2.1715 -0.9138 -0.1819
  590MOL0     H79632   7.123   1.911   9.667 -2.2073  0.7974  3.2447
  590MOL0     H79633   6.931   2.026   9.687 -2.7812  0.4681 -0.3851
  590MOL0     H79634   5.617   3.204   9.951 -2.5516  2.8927 -1.9611
  590MOL0     H79635   5.385   3.304   9.914 -1.1212  0.0793 -1.4647
  590MOL0     H79636   5.028   3.330   9.832 -2.5788 -2.5860 -2.6053
  590MOL0     H79637   4.787   3.379   9.746 -2.3597  0.6964  0.7928
  590MOL0     H79638   4.565   3.387   9.704 -2.5011  1.1723 -2.8396
  590MOL0     H79639   4.627   3.550   9.750  0.1631 -0.8563 -1.2534
  590MOL0     H79640   4.346   3.434   9.824 -2.5298  1.4511 -0.5785
  590MOL0     H79641   4.378   3.522   9.679 -2.8378  0.2408  1.1327
  590MOL0     H79642   4.425   3.729   9.790 -1.3840  0.8597 -1.0556
  590MOL0     H79643   4.474   3.648   9.941  1.0027 -1.7067 -1.2071
  590MOL0     H79644   4.236   3.557   9.978  0.1315 -0.1438 -0.2008
  590MOL0     H79645   4.269   3.733  10.001  0.0119 -1.4150  1.7460
  590MOL0     H79646   4.028   3.683   9.638 -0.4512 -2.5449  1.2342
  590MOL0     H79647   4.644   3.364  10.145 -2.2035 -2.1853 -0.9751
  590MOL0     H79648   4.927   3.380  10.306 -0.4606  1.0699 -0.1532
  590MOL0     H79649   4.761   3.307  10.313  0.6255 -3.4887  1.3466
  590MOL0     H79650   4.904   3.205  10.298  0.6331 -0.5600 -0.8762
  591MOL0     O79651   8.131   9.249   4.507  0.1660 -0.4142 -0.3532
  591MOL0     C79652   8.136   9.163   4.418 -0.8019 -0.3577  0.2764
  591MOL0     O79653   8.239   9.084   4.410  0.7214  0.6934 -0.1652
  591MOL0     C79654   8.351   9.079   4.486 -0.2933 -0.0422  0.2844
  591MOL0     C79655   8.364   9.002   4.594  0.3954 -0.7879 -0.4160
  591MOL0     C79656   8.483   8.996   4.668  0.4526  1.0760  0.4158
  591MOL0     C79657   8.583   9.080   4.632 -0.8607  0.0405  0.4314
  591MOL0     O79658   8.700   9.082   4.708  0.0441 -0.4842 -0.4973
  591MOL0     C79659   8.800   8.982   4.667  0.3570  0.4537  0.4827
  591MOL0     C79660   8.932   9.054   4.641  0.0246 -0.5676  1.2525
  591MOL0     C79661   9.044   8.969   4.582 -0.6813 -0.2929 -0.4006
  591MOL0     C79662   9.160   8.955   4.678  0.3809  0.6544 -0.0103
  591MOL0     C79663   9.296   8.912   4.611  0.3929 -0.6002 -0.1763
  591MOL0     C79664   9.400   8.898   4.726  0.1911 -0.9340 -0.3114
  591MOL0     C79665   9.541   8.887   4.671 -0.5169 -0.3257 -0.6618
  591MOL0     C79666   9.639   8.909   4.786  0.2631 -0.6960  0.1838
  591MOL0     N79667   9.780   8.866   4.750  0.2187 -0.4391 -0.2571
  591MOL0     C79668   9.821   8.736   4.725  1.0495 -0.6594 -0.8102
  591MOL0     C79669   9.947   8.743   4.688  0.3203 -0.5632 -0.7089
  591MOL0     C79670  10.026   8.623   4.649  0.1806 -0.0826 -0.5001
  591MOL0     C79671  10.178   8.647   4.673 -0.2671  0.2335  0.0122
  591MOL0     C79672  10.243   8.513   4.707 -0.5966  0.0316  0.3008
  591MOL0     C79673  10.393   8.529   4.711  0.4107 -0.0424 -0.7022
  591MOL0     O79674  10.433   8.653   4.764 -0.2579 -0.6851  0.5015
  591MOL0     C79675  10.557   8.701   4.724  0.1815  0.4819  0.4592
  591MOL0     C79676  10.676   8.634   4.747  0.4488 -0.1953  0.1078
  591MOL0     C79677  10.798   8.702   4.723  0.0639 -0.1725 -0.3717
  591MOL0     C79678  10.804   8.832   4.664  0.4106 -0.6179 -0.8142
  591MOL0     C79679  10.934   8.895   4.652  0.8874  0.2540  0.1813
  591MOL0     O79680  11.048   8.830   4.715  0.5697 -0.3395 -0.0890
  591MOL0     C79681  11.177   8.849   4.685 -0.5476  0.7197  0.6636
  591MOL0     C79682  11.261   8.940   4.747 -0.1281 -0.2033  0.7887
  591MOL0     C79683  11.392   8.957   4.702  0.1110  0.2898 -0.3653
  591MOL0     C79684  11.451   8.876   4.595  0.4192 -0.9566 -0.5248
  591MOL0     O79685  11.586   8.890   4.562  0.1943  0.2993 -0.4164
  591MOL0     C79686  11.639   8.783   4.475 -0.2951  0.8246 -0.4299
  591MOL0     C79687  11.788   8.808   4.465  0.1344 -0.6000  1.0321
  591MOL0     C79688  11.817   8.950   4.408 -0.0603  1.1202 -1.0254
  591MOL0     C79689  11.960   8.969   4.381 -0.0782 -1.2915 -0.6207
  591MOL0     C79690  11.985   9.117   4.334 -0.6515  0.3638  0.7017
  591MOL0     C79691  11.906   9.163   4.206 -0.6052 -0.6210 -0.3561
  591MOL0     C79692  11.925   9.313   4.189 -0.2223 -0.9729  0.7242
  591MOL0     C79693  11.828   9.377   4.088 -0.5470  0.5850 -0.1195
  591MOL0    Cl79694  11.864   9.555   4.059 -0.0582 -0.3082  0.2621
  591MOL0     C79695  11.372   8.781   4.541  0.9031 -0.7588  0.2097
  591MOL0     C79696  11.235   8.775   4.578  1.2139 -0.3760  0.8164
  591MOL0     O79697  10.943   8.987   4.572 -0.4162  0.5524  0.0674
  591MOL0     C79698  10.680   8.887   4.633  0.0632 -0.0262 -0.2586
  591MOL0     C79699  10.557   8.819   4.654 -0.3056  0.6713  0.1133
  591MOL0     N79700   9.982   8.886   4.680 -0.0293  0.4227  0.3856
  591MOL0     N79701   9.880   8.948   4.725 -0.9276 -0.2001  0.4608
  591MOL0     C79702   8.578   9.160   4.519  0.7764  1.0647  0.3078
  591MOL0     C79703   8.460   9.162   4.446 -0.2147  1.4048 -0.1286
  591MOL0     C79704   8.029   9.139   4.324  0.0501  0.1781  0.8958
  591MOL0     C79705   8.066   9.110   4.189 -0.1820  0.0821  0.3577
  591MOL0     C79706   7.984   9.095   4.078  0.4036 -0.1739 -0.3527
  591MOL0     C79707   7.849   9.089   4.105 -0.3653  0.6677  0.4221
  591MOL0     O79708   7.769   9.025   4.014 -0.4524 -0.3031 -0.1413
  591MOL0     C79709   7.681   9.109   3.937 -0.4917  0.3754  0.7666
  591MOL0     C79710   7.603   8.998   3.872  0.2338  0.1947  0.2014
  591MOL0     C79711   7.496   8.942   3.963  0.1924 -0.4646 -0.0430
  591MOL0     C79712   7.357   9.026   3.956 -0.3514 -0.2498 -0.2760
  591MOL0     C79713   7.244   8.937   3.981 -1.2598  0.8056  0.2381
  591MOL0     C79714   7.139   8.887   3.995  0.2439 -0.1725  0.3872
  591MOL0     C79715   7.804   9.109   4.235 -1.0671 -0.1296 -0.2372
  591MOL0     C79716   7.895   9.131   4.345  0.4090 -0.5731  0.1625
  591MOL0     C79717   7.828   9.147   4.477  1.0143 -0.0633 -0.8402
  591MOL0     H79718   8.287   8.933   4.625  1.9628 -2.2353  0.4320
  591MOL0     H79719   8.490   8.937   4.758 -1.4540 -1.7321 -1.1074
  591MOL0     H79720   8.810   8.899   4.738 -0.3469  0.9317  1.1718
  591MOL0     H79721   8.770   8.928   4.577  1.6616 -2.3375  1.6133
  591MOL0     H79722   8.973   9.095   4.733  0.8456 -0.6481  0.9245
  591MOL0     H79723   8.913   9.137   4.572 -0.3567 -0.3725  1.5844
  591MOL0     H79724   9.080   9.019   4.493  1.7691 -1.0298  0.1150
  591MOL0     H79725   9.012   8.867   4.557 -2.0905  0.3848 -1.4847
  591MOL0     H79726   9.176   9.053   4.724 -2.3904  0.6276  1.1955
  591MOL0     H79727   9.139   8.883   4.758  0.5577  1.8654  1.1521
  591MOL0     H79728   9.293   8.821   4.551  1.4622 -0.8440  0.1129
  591MOL0     H79729   9.332   8.996   4.550  2.3736 -1.4045 -0.1995
  591MOL0     H79730   9.397   8.994   4.779 -0.2288  0.1251 -2.1868
  591MOL0     H79731   9.371   8.821   4.799  0.2116  2.3750  3.5818
  591MOL0     H79732   9.550   8.958   4.589  0.0939 -0.4729 -0.7271
  591MOL0     H79733   9.548   8.784   4.634 -2.1436 -1.0655  0.9184
  591MOL0     H79734   9.643   9.017   4.802 -1.4837 -0.1856 -2.1889
  591MOL0     H79735   9.608   8.851   4.874 -1.1847 -0.8063 -0.3561
  591MOL0     H79736   9.758   8.648   4.737 -0.7164  0.3776 -1.8653
  591MOL0     H79737   9.982   8.547   4.714  0.5857  0.4750  0.4444
  591MOL0     H79738  10.005   8.599   4.544 -3.3027 -0.5750  0.1854
  591MOL0     H79739  10.220   8.692   4.582 -1.1497 -0.9587 -1.0048
  591MOL0     H79740  10.192   8.716   4.757  1.5663 -2.0876  1.7572
  591MOL0     H79741  10.210   8.438   4.635  2.0437 -0.6755 -0.2844
  591MOL0     H79742  10.216   8.477   4.807  0.4287 -1.1217  0.1836
  591MOL0     H79743  10.425   8.529   4.606  2.6890 -2.1436 -0.1004
  591MOL0     H79744  10.440   8.450   4.770  1.1060  0.4905 -0.5303
  591MOL0     H79745  10.657   8.538   4.795 -1.5940 -0.0469 -0.3359
  591MOL0     H79746  10.893   8.654   4.743  1.1282  1.6224 -0.8516
  591MOL0     H79747  11.220   8.983   4.837  1.7517  0.2756  1.4630
  591MOL0     H79748  11.461   9.022   4.755 -1.3154  0.7263  1.0416
  591MOL0     H79749  11.623   8.683   4.517  1.7105  0.1998 -1.0240
  591MOL0     H79750  11.586   8.782   4.380  2.3395  1.7684 -2.0086
  591MOL0     H79751  11.848   8.783   4.554 -0.1896  0.3099  1.5163
  591MOL0     H79752  11.812   8.734   4.388 -0.5920  0.6026 -0.3883
  591MOL0     H79753  11.751   8.967   4.323 -1.3460  0.1430 -0.2562
  591MOL0     H79754  11.786   9.026   4.480  0.9548  1.1475 -0.5965
  591MOL0     H79755  11.994   8.896   4.308 -0.6973 -0.8397 -1.3726
  591MOL0     H79756  12.008   8.959   4.479 -0.9113  2.8714  0.4314
  591MOL0     H79757  12.092   9.125   4.313 -0.5563 -2.1921 -0.1249
  591MOL0     H79758  11.972   9.186   4.418 -1.5549  1.3177 -0.1761
  591MOL0     H79759  11.928   9.103   4.117  0.3004 -0.4556 -0.2536
  591MOL0     H79760  11.800   9.140   4.219 -0.3853 -1.7508 -0.4482
  591MOL0     H79761  12.024   9.340   4.150 -0.2734  0.1164  1.3042
  591MOL0     H79762  11.910   9.366   4.283 -1.3759 -0.3584  0.2199
  591MOL0     H79763  11.825   9.324   3.993  0.5830 -0.7012  0.5323
  591MOL0     H79764  11.727   9.387   4.130 -1.2178  0.4310 -1.6454
  591MOL0     H79765  11.407   8.722   4.457  0.3832 -0.1682 -0.4363
  591MOL0     H79766  11.166   8.712   4.523 -0.4213  2.7256 -1.0172
  591MOL0     H79767  10.680   8.978   4.573  2.0412 -0.8217 -1.5613
  591MOL0     H79768  10.467   8.866   4.616 -1.7081 -1.9677 -0.0394
  591MOL0     H79769   8.662   9.221   4.488  0.7089  1.5071  0.9693
  591MOL0     H79770   8.442   9.223   4.359 -2.1325 -0.2634 -0.9746
  591MOL0     H79771   8.171   9.094   4.165 -0.5349 -1.3667 -0.3169
  591MOL0     H79772   8.027   9.079   3.980  0.3886 -1.9670 -0.1011
  591MOL0     H79773   7.739   9.155   3.856 -4.4942  2.0643 -1.4489
  591MOL0     H79774   7.617   9.180   3.990  1.4972  2.2128  0.8414
  591MOL0     H79775   7.665   8.912   3.845 -2.0627 -0.8841 -2.1055
  591MOL0     H79776   7.556   9.028   3.778 -1.6960  0.5137  1.2118
  591MOL0     H79777   7.524   8.943   4.069 -2.3781  0.7025  0.6976
  591MOL0     H79778   7.467   8.840   3.935 -0.8274  0.2694 -1.8517
  591MOL0     H79779   7.337   9.101   4.034 -0.4094 -2.6875  2.2055
  591MOL0     H79780   7.341   9.068   3.857  1.3191  0.2195 -0.3638
  591MOL0     H79781   7.048   8.831   4.007  0.0897 -0.4912 -1.7844
  591MOL0     H79782   7.698   9.106   4.259 -0.3731 -0.0056  3.4368
  591MOL0     H79783   7.900   9.142   4.560  1.5733 -1.7961 -1.3847
  591MOL0     H79784   7.775   9.243   4.480 -1.0246 -1.1331 -0.6360
  591MOL0     H79785   7.766   9.060   4.501  1.4621 -0.6348 -1.6908
  592MOL0     O79786  10.489   0.289   7.879 -0.2812 -0.7637 -0.1430
  592MOL0     C79787  10.480   0.164   7.897 -0.7216 -0.1633  0.0147
  592MOL0     O79788  10.584   0.079   7.890  0.5781 -0.2921 -0.5366
  592MOL0     C79789  10.697   0.131   7.852  0.3285  0.4984  0.1986
  592MOL0     C79790  10.748   0.077   7.733 -0.4014  0.4132 -0.2732
  592MOL0     C79791  10.865   0.132   7.677 -0.0268 -0.0934 -0.0525
  592MOL0     C79792  10.935   0.238   7.734  0.3163 -0.2435 -0.2420
  592MOL0     O79793  11.044   0.293   7.680  0.2803  0.2701  0.1716
  592MOL0     C79794  11.085   0.250   7.542  0.2284 -1.1974 -0.1087
  592MOL0     C79795  11.208   0.323   7.493 -0.1351  0.4326 -1.0222
  592MOL0     C79796  11.327   0.297   7.583  0.1367  0.9692  0.5297
  592MOL0     C79797  11.437   0.381   7.535 -0.7177  0.3864  0.1474
  592MOL0     C79798  11.566   0.347   7.621 -0.3233  1.2101  0.4982
  592MOL0     C79799  11.686   0.385   7.537  0.2156 -0.1243 -0.2303
  592MOL0     C79800  11.815   0.395   7.620  0.3877  0.6147  0.4900
  592MOL0     C79801  11.936   0.421   7.525 -0.4935 -0.2307 -1.0631
  592MOL0     N79802  11.930   0.560   7.466  0.1869  0.0806  0.5785
  592MOL0     C79803  11.991   0.674   7.514 -0.0566 -0.0001  0.2273
  592MOL0     C79804  11.929   0.775   7.452 -0.0877  0.4029 -0.0759
  592MOL0     C79805  11.943   0.924   7.462 -0.3709 -0.0634 -0.1151
  592MOL0     C79806  12.076   0.968   7.400 -0.0316  0.8378  0.9310
  592MOL0     C79807  12.074   0.938   7.248  0.7299 -0.3321  0.0323
  592MOL0     C79808  12.199   1.005   7.179  0.6317 -0.5115 -0.5510
  592MOL0     O79809  12.317   0.975   7.250 -0.5297  0.7712 -0.6982
  592MOL0     C79810  12.433   0.922   7.189  1.2295 -0.5860  0.2210
  592MOL0     C79811  12.456   0.903   7.054  0.3290 -0.6422  0.2287
  592MOL0     C79812  12.572   0.864   6.998 -0.5588 -0.3284 -0.2974
  592MOL0     C79813  12.680   0.840   7.085  0.2306 -1.0653 -0.1339
  592MOL0     C79814  12.807   0.793   7.027 -0.1285  0.2798  0.4339
  592MOL0     O79815  12.910   0.806   7.111 -0.0746 -0.2516  0.1214
  592MOL0     C79816  13.035   0.746   7.087  0.5168  0.4127 -0.3908
  592MOL0     C79817  13.048   0.619   7.026 -1.0818 -0.4846  0.3757
  592MOL0     C79818  13.176   0.569   7.015 -0.6490 -0.4737  0.4554
  592MOL0     C79819  13.290   0.642   7.054 -0.4559  2.0487  0.0543
  592MOL0     O79820  13.418   0.586   7.052  0.9479  0.1854 -0.6034
  592MOL0     C79821  13.453   0.473   6.966  0.4556 -0.1503 -0.1222
  592MOL0     C79822  13.611   0.467   6.963  0.3163  0.1240 -0.2186
  592MOL0     C79823  13.667   0.599   6.921  0.2466  0.1479 -0.0515
  592MOL0     C79824  13.819   0.595   6.929  0.8808  0.3117 -0.3224
  592MOL0     C79825  13.878   0.726   6.872  0.1494  0.1836  0.3706
  592MOL0     C79826  14.024   0.710   6.867 -0.7499 -0.6450  0.4296
  592MOL0     C79827  14.099   0.838   6.843 -0.1293 -0.6712 -0.1575
  592MOL0     C79828  14.248   0.833   6.817  0.4288 -0.2265  0.7621
  592MOL0    Cl79829  14.300   0.988   6.753 -0.0942  0.1816  0.4698
  592MOL0     C79830  13.270   0.765   7.121 -0.5896  0.2466  0.5919
  592MOL0     C79831  13.145   0.817   7.145  0.7338  0.1894 -0.1819
  592MOL0     O79832  12.805   0.743   6.914 -0.0599  0.6601 -0.9897
  592MOL0     C79833  12.674   0.864   7.222  0.6221 -1.2861 -0.1834
  592MOL0     C79834  12.545   0.904   7.272 -0.4873 -0.4995  0.4003
  592MOL0     N79835  11.842   0.733   7.361  0.5198  0.3444 -0.2768
  592MOL0     N79836  11.851   0.607   7.365 -0.1607 -0.2029 -0.0512
  592MOL0     C79837  10.885   0.283   7.861 -0.0171  0.7223  0.1800
  592MOL0     C79838  10.765   0.230   7.913  0.1325  0.0250  0.4124
  592MOL0     C79839  10.349   0.105   7.934  0.9299 -0.9921 -0.1139
  592MOL0     C79840  10.321  -0.031   7.912 -0.6755  0.7886 -0.6355
  592MOL0     C79841  10.206  -0.093   7.939 -0.3633  0.6112  1.2964
  592MOL0     C79842  10.102  -0.027   8.006 -0.1551  0.7760  0.7424
  592MOL0     O79843   9.986  -0.091   8.033 -0.4395  0.1299  0.3870
  592MOL0     C79844   9.955  -0.203   7.952 -0.5392 -0.5139  0.0854
  592MOL0     C79845   9.929  -0.197   7.803 -0.3388 -0.7466 -0.4940
  592MOL0     C79846   9.887  -0.331   7.735  0.1371  0.8805  0.3735
  592MOL0     C79847   9.966  -0.449   7.784  0.4193  0.6945 -0.5453
  592MOL0     C79848   9.912  -0.504   7.912  0.7014  0.2487 -0.6156
  592MOL0     C79849   9.855  -0.555   8.013  0.0788 -1.0522 -0.1682
  592MOL0     C79850  10.121   0.111   8.018 -0.3959  0.2319 -0.4831
  592MOL0     C79851  10.241   0.180   7.983  0.5058  0.3935 -0.9569
  592MOL0     C79852  10.249   0.333   8.018  0.2914  0.4702 -0.6851
  592MOL0     H79853  10.693  -0.006   7.690 -0.3511 -0.3452  1.0614
  592MOL0     H79854  10.901   0.083   7.587 -0.2355 -0.7394  0.2109
  592MOL0     H79855  11.100   0.144   7.519 -0.1878 -0.8414 -2.2286
  592MOL0     H79856  11.008   0.284   7.472 -0.9843  2.6948  2.7969
  592MOL0     H79857  11.198   0.431   7.484 -0.3559  0.5129  0.0346
  592MOL0     H79858  11.233   0.273   7.399  0.4443 -0.1112 -0.5886
  592MOL0     H79859  11.350   0.190   7.590 -0.9865  0.7512  0.9345
  592MOL0     H79860  11.299   0.320   7.686  0.4900 -0.9980  1.1121
  592MOL0     H79861  11.459   0.363   7.430 -0.5864 -0.2108  0.2712
  592MOL0     H79862  11.406   0.486   7.543 -2.0666  0.1890 -1.8566
  592MOL0     H79863  11.556   0.410   7.710  0.9461  3.2235 -0.6964
  592MOL0     H79864  11.566   0.244   7.658 -0.7155  0.6998 -0.8891
  592MOL0     H79865  11.693   0.313   7.455 -2.6281  0.5174 -1.1594
  592MOL0     H79866  11.667   0.479   7.484 -0.2647 -0.4456 -0.6436
  592MOL0     H79867  11.841   0.302   7.671  0.5697 -0.4370 -1.4292
  592MOL0     H79868  11.810   0.468   7.701 -0.4091  0.9217  0.1763
  592MOL0     H79869  12.024   0.414   7.590 -0.3539  1.0855 -1.0826
  592MOL0     H79870  11.946   0.344   7.448  0.5427 -1.5875  0.3534
  592MOL0     H79871  12.064   0.662   7.592  1.4191 -2.6548 -1.4299
  592MOL0     H79872  11.855   0.966   7.413 -1.6244 -1.2412  1.0166
  592MOL0     H79873  11.944   0.948   7.569  3.3608 -1.5846  0.3330
  592MOL0     H79874  12.097   1.073   7.421 -1.2506  1.1983  0.4667
  592MOL0     H79875  12.152   0.909   7.451 -0.5373  0.9916  1.8943
  592MOL0     H79876  11.985   0.990   7.212 -0.4938 -1.0459  1.9358
  592MOL0     H79877  12.059   0.833   7.223 -0.1877  0.1376 -1.5427
  592MOL0     H79878  12.185   1.113   7.184 -0.7607 -0.7405  2.0822
  592MOL0     H79879  12.206   0.967   7.076 -3.1630  1.4539 -1.7073
  592MOL0     H79880  12.373   0.911   6.984 -1.5671 -1.5939  2.2679
  592MOL0     H79881  12.563   0.828   6.896 -2.5657 -6.6184  1.7037
  592MOL0     H79882  12.956   0.568   6.996  0.6588 -1.4155 -4.2529
  592MOL0     H79883  13.197   0.468   6.980 -0.2066  0.5418 -2.4605
  592MOL0     H79884  13.420   0.381   7.015  0.7603  1.0342  2.4358
  592MOL0     H79885  13.411   0.482   6.865 -0.0033 -2.4961 -0.2084
  592MOL0     H79886  13.649   0.445   7.064 -1.0455  0.6094  0.4325
  592MOL0     H79887  13.643   0.387   6.896 -2.9135 -2.1457  0.6543
  592MOL0     H79888  13.635   0.620   6.818  0.5098  2.1431  0.2377
  592MOL0     H79889  13.629   0.680   6.983 -1.4204 -0.4811 -0.1992
  592MOL0     H79890  13.862   0.515   6.867  0.1833 -0.9643  0.7763
  592MOL0     H79891  13.853   0.560   7.026  2.0564  2.5156  0.1176
  592MOL0     H79892  13.849   0.808   6.939  0.5804 -0.7771  1.7929
  592MOL0     H79893  13.842   0.747   6.771  0.3293  0.9946  0.4672
  592MOL0     H79894  14.047   0.663   6.963  4.1982  1.4870  0.5491
  592MOL0     H79895  14.041   0.639   6.785  0.0114  0.5550 -0.4955
  592MOL0     H79896  14.083   0.900   6.932  0.7387 -1.7435  0.7741
  592MOL0     H79897  14.052   0.879   6.754  0.3677  1.4015  0.4868
  592MOL0     H79898  14.300   0.816   6.911  1.3514  0.7922  0.4555
  592MOL0     H79899  14.264   0.752   6.745 -0.2429  0.5138 -0.2474
  592MOL0     H79900  13.346   0.824   7.171  0.4299 -0.0107 -0.6208
  592MOL0     H79901  13.130   0.914   7.191 -1.0940 -0.0687 -0.1378
  592MOL0     H79902  12.748   0.870   7.301  1.3634  1.9399 -1.0169
  592MOL0     H79903  12.537   0.930   7.377  1.3357  0.3087  0.3761
  592MOL0     H79904  10.942   0.357   7.916  1.0318  0.2447 -0.2157
  592MOL0     H79905  10.729   0.274   8.006 -1.4449  1.6764 -0.9246
  592MOL0     H79906  10.394  -0.100   7.872 -0.8762 -0.3729  0.9320
  592MOL0     H79907  10.207  -0.198   7.913 -0.0564 -0.1495  3.9986
  592MOL0     H79908   9.857  -0.241   7.983 -0.3989 -1.6269 -0.7592
  592MOL0     H79909  10.025  -0.284   7.975  0.7883  0.5750 -0.0440
  592MOL0     H79910  10.019  -0.154   7.757  0.9778 -3.5171 -0.7208
  592MOL0     H79911   9.862  -0.113   7.785  2.7013  1.9104 -0.3198
  592MOL0     H79912   9.911  -0.319   7.629 -0.6252 -1.6459 -0.1408
  592MOL0     H79913   9.781  -0.356   7.744  1.4367 -6.4733  2.0621
  592MOL0     H79914   9.960  -0.530   7.711  0.5147  0.8180 -0.6914
  592MOL0     H79915  10.068  -0.423   7.815 -0.3563  1.0493  1.8999
  592MOL0     H79916   9.807  -0.570   8.107 -1.7391  1.8562 -0.5242
  592MOL0     H79917  10.042   0.178   8.051  0.3903  1.9097 -1.8816
  592MOL0     H79918  10.154   0.377   8.048  1.4422  2.8021 -0.2577
  592MOL0     H79919  10.322   0.348   8.097  3.9293 -2.0188 -3.2091
  592MOL0     H79920  10.277   0.390   7.929  0.3525 -1.2215 -1.7994
  593MOL0     O79921   9.639   1.948   7.623  0.4338  0.5427  0.6609
  593MOL0     C79922   9.690   1.923   7.730 -0.8763 -0.9353  0.4626
  593MOL0     O79923   9.674   1.805   7.798  0.8545 -0.0230  0.3676
  593MOL0     C79924   9.601   1.700   7.746 -0.1957  0.8857  0.4620
  593MOL0     C79925   9.468   1.705   7.703  0.7275 -0.1666  0.3157
  593MOL0     C79926   9.408   1.591   7.651  0.4409  0.1755  1.0083
  593MOL0     C79927   9.477   1.475   7.649  0.2861  0.1521  0.0711
  593MOL0     O79928   9.425   1.355   7.610 -0.2116  0.2283  0.6185
  593MOL0     C79929   9.286   1.344   7.591 -0.0810  0.7455  0.0303
  593MOL0     C79930   9.239   1.201   7.616 -0.4787 -0.3736 -0.8634
  593MOL0     C79931   9.097   1.184   7.563  0.9250 -0.0072  0.0911
  593MOL0     C79932   9.025   1.062   7.633 -0.6976  0.1348  0.8156
  593MOL0     C79933   8.881   1.069   7.595 -1.1978  0.1515  0.6032
  593MOL0     C79934   8.814   0.943   7.649  0.3052  0.2065 -0.3284
  593MOL0     C79935   8.682   0.913   7.576 -0.4747  0.0155 -0.0466
  593MOL0     C79936   8.608   0.787   7.646  0.1697  0.0684  0.2885
  593MOL0     N79937   8.510   0.710   7.562 -0.2715 -0.5349 -0.2119
  593MOL0     C79938   8.378   0.744   7.536 -0.4013 -0.2356  0.0977
  593MOL0     C79939   8.322   0.648   7.466  0.6013  0.2801  0.3834
  593MOL0     C79940   8.183   0.628   7.433  0.2478 -0.8357  0.4232
  593MOL0     C79941   8.125   0.529   7.533  0.0050 -0.4888 -0.3959
  593MOL0     C79942   7.975   0.521   7.515 -0.5797  0.0537  0.5906
  593MOL0     C79943   7.889   0.640   7.542  0.4352  0.3213 -0.1389
  593MOL0     O79944   7.761   0.618   7.490  0.3241  0.3591 -0.4660
  593MOL0     C79945   7.670   0.716   7.516  0.4349  0.3210 -0.1514
  593MOL0     C79946   7.547   0.709   7.461  0.3997 -0.0296  0.5559
  593MOL0     C79947   7.441   0.793   7.484  0.3275  0.3647 -0.1124
  593MOL0     C79948   7.461   0.909   7.562 -0.3507 -0.2045 -0.6158
  593MOL0     C79949   7.353   1.013   7.561  0.1851 -0.3819 -1.1811
  593MOL0     O79950   7.228   0.976   7.515 -0.4914  0.2405  0.0451
  593MOL0     C79951   7.132   1.068   7.527 -0.2040 -0.0569 -0.0282
  593MOL0     C79952   7.106   1.130   7.645 -0.0721  0.5585 -0.7662
  593MOL0     C79953   6.995   1.211   7.661  0.1597  0.5984  0.5646
  593MOL0     C79954   6.902   1.223   7.552 -0.6442  0.1572 -0.4900
  593MOL0     O79955   6.784   1.285   7.567  0.5787  0.3070  0.6626
  593MOL0     C79956   6.702   1.243   7.676 -0.3875  0.8998  1.1900
  593MOL0     C79957   6.554   1.263   7.655  0.2147 -0.2449 -0.4281
  593MOL0     C79958   6.514   1.409   7.629 -0.0468  0.0608  0.4114
  593MOL0     C79959   6.557   1.501   7.753 -0.7422  1.2992  0.4852
  593MOL0     C79960   6.498   1.645   7.773 -0.8433 -0.0584  0.2641
  593MOL0     C79961   6.479   1.744   7.656 -0.2870 -0.4382  0.1326
  593MOL0     C79962   6.406   1.875   7.698  0.1290  0.3507 -0.6325
  593MOL0     C79963   6.334   1.931   7.574 -0.1135 -0.5869 -0.4144
  593MOL0    Cl79964   6.452   1.963   7.446 -0.0746 -0.3888 -0.0367
  593MOL0     C79965   6.946   1.175   7.431  0.4983 -0.0481  0.3590
  593MOL0     C79966   7.061   1.099   7.411  0.0910 -0.2585 -1.0242
  593MOL0     O79967   7.390   1.129   7.584 -0.1292 -0.1280  0.6788
  593MOL0     C79968   7.587   0.929   7.618 -0.5916 -0.3398  0.3382
  593MOL0     C79969   7.694   0.839   7.595  0.3799 -0.3587 -0.4384
  593MOL0     N79970   8.416   0.567   7.413 -0.2927  0.2751  0.0355
  593MOL0     N79971   8.528   0.600   7.475 -0.0528  0.6995 -0.1283
  593MOL0     C79972   9.604   1.464   7.705  0.2463  0.4319  0.7930
  593MOL0     C79973   9.657   1.576   7.761 -0.3681  0.2053 -0.2275
  593MOL0     C79974   9.776   2.021   7.805  0.3910 -1.1859 -0.1975
  593MOL0     C79975   9.867   1.983   7.904 -0.7173  0.7005  0.5685
  593MOL0     C79976   9.954   2.071   7.976  0.4859 -0.1460  0.4734
  593MOL0     C79977   9.962   2.204   7.933  0.6024  0.2287 -0.1512
  593MOL0     O79978  10.060   2.298   7.969 -0.1895  0.7222 -0.2917
  593MOL0     C79979  10.145   2.274   8.088 -0.0535  0.2065  0.7348
  593MOL0     C79980  10.250   2.388   8.079 -1.0532 -0.3586 -0.5327
  593MOL0     C79981  10.349   2.370   8.190  0.8795 -0.1182  0.0558
  593MOL0     C79982  10.448   2.483   8.166  0.7799 -0.0427 -0.1528
  593MOL0     C79983  10.564   2.465   8.263  0.4626  0.2625 -0.1065
  593MOL0     C79984  10.643   2.447   8.346 -0.8401  0.0826  0.0899
  593MOL0     C79985   9.882   2.251   7.827  0.4716  0.5854 -0.9399
  593MOL0     C79986   9.779   2.164   7.772  0.3392 -0.4576  0.3201
  593MOL0     C79987   9.678   2.228   7.674  0.2213 -0.2558  0.0830
  593MOL0     H79988   9.431   1.807   7.699  1.4729  0.0884 -3.0462
  593MOL0     H79989   9.310   1.596   7.603  0.4889 -0.6897  0.8166
  593MOL0     H79990   9.232   1.412   7.657  0.6903  1.1666  0.2448
  593MOL0     H79991   9.260   1.366   7.487  1.2050 -1.8478 -0.9400
  593MOL0     H79992   9.251   1.174   7.721 -1.2354  0.1518 -0.6312
  593MOL0     H79993   9.294   1.120   7.569  1.3264  0.0072  0.4929
  593MOL0     H79994   9.091   1.174   7.454  0.5477  0.8740  0.0165
  593MOL0     H79995   9.043   1.278   7.579  0.7673  0.0827 -0.8656
  593MOL0     H79996   9.081   0.976   7.595  1.2361  0.6346  2.3506
  593MOL0     H79997   9.039   1.062   7.742  0.1136 -0.9352  0.7289
  593MOL0     H79998   8.825   1.152   7.639 -0.1082  1.2315  0.0228
  593MOL0     H79999   8.872   1.075   7.486  1.0083 -2.3642  0.1988
  593MOL0     H80000   8.878   0.855   7.637 -1.3519 -1.1910  0.6549
  593MOL0     H80001   8.804   0.954   7.758  1.5141  0.2181 -0.2030
  593MOL0     H80002   8.714   0.895   7.473  1.9586  0.3096  0.5852
  593MOL0     H80003   8.623   1.005   7.577 -0.7713 -0.1638 -0.6131
  593MOL0     H80004   8.686   0.721   7.686  0.9746  1.4620  1.0828
  593MOL0     H80005   8.560   0.818   7.739  2.4107  1.9850  0.9011
  593MOL0     H80006   8.338   0.836   7.579 -2.7682 -0.0189 -2.3323
  593MOL0     H80007   8.137   0.727   7.434  0.4767 -0.6711 -1.5836
  593MOL0     H80008   8.177   0.592   7.330  0.0213 -1.5911  0.6971
  593MOL0     H80009   8.177   0.436   7.509  0.4344  0.3242 -2.8345
  593MOL0     H80010   8.146   0.556   7.637 -0.3139  0.0260 -0.4672
  593MOL0     H80011   7.923   0.440   7.567 -1.9256 -1.0250 -2.2401
  593MOL0     H80012   7.964   0.480   7.414 -1.4807 -0.3170  0.8338
  593MOL0     H80013   7.930   0.733   7.501 -2.3873  0.8596 -1.9955
  593MOL0     H80014   7.876   0.654   7.649 -4.7895  4.2131 -0.8785
  593MOL0     H80015   7.534   0.623   7.395  0.9802  2.0327 -2.4726
  593MOL0     H80016   7.348   0.782   7.429 -0.5175  0.8494  1.1757
  593MOL0     H80017   7.169   1.097   7.728 -0.6812 -0.4779 -0.6973
  593MOL0     H80018   6.974   1.258   7.757  2.0475  1.3737  0.6482
  593MOL0     H80019   6.722   1.136   7.676  2.4076  1.3050 -0.6657
  593MOL0     H80020   6.754   1.282   7.765 -0.3732 -0.4332  1.7958
  593MOL0     H80021   6.515   1.208   7.568  2.3570 -0.7878 -1.1005
  593MOL0     H80022   6.515   1.234   7.753  1.7541  2.2204  1.0321
  593MOL0     H80023   6.552   1.449   7.534 -1.1279  3.8424  1.3911
  593MOL0     H80024   6.405   1.404   7.624 -0.0241 -1.2232  0.9664
  593MOL0     H80025   6.666   1.497   7.747 -0.5749  0.6150  2.7719
  593MOL0     H80026   6.524   1.452   7.845 -1.9656 -0.4243 -0.8116
  593MOL0     H80027   6.571   1.696   7.836  1.2844 -0.0200 -2.0672
  593MOL0     H80028   6.406   1.635   7.830 -1.0841  0.1874 -0.0792
  593MOL0     H80029   6.570   1.775   7.603 -1.4197 -1.0770 -2.3200
  593MOL0     H80030   6.424   1.682   7.585  3.8499 -0.8617 -3.0626
  593MOL0     H80031   6.482   1.948   7.727  0.3773 -0.1016 -0.1245
  593MOL0     H80032   6.340   1.850   7.782  0.2091  0.0782 -0.6497
  593MOL0     H80033   6.268   1.854   7.530  0.0230 -1.5924  1.0686
  593MOL0     H80034   6.270   2.016   7.600 -2.5871 -2.3925 -0.2146
  593MOL0     H80035   6.887   1.206   7.346 -0.0159 -0.6113  0.5083
  593MOL0     H80036   7.075   1.066   7.309 -0.9628  1.2850 -1.7210
  593MOL0     H80037   7.603   1.017   7.679  0.5165  1.6112 -2.5483
  593MOL0     H80038   7.796   0.860   7.626  1.5062 -3.5047 -1.5368
  593MOL0     H80039   9.636   1.360   7.703 -2.4911 -0.5646  2.6986
  593MOL0     H80040   9.752   1.568   7.813 -0.6262 -1.4983  0.0529
  593MOL0     H80041   9.869   1.878   7.929  0.4967  1.0043  1.8440
  593MOL0     H80042  10.017   2.025   8.051 -1.3206 -1.5681  1.1875
  593MOL0     H80043  10.192   2.176   8.084 -1.2401 -0.3551 -1.6229
  593MOL0     H80044  10.083   2.289   8.177  1.1854  1.4801  1.4288
  593MOL0     H80045  10.206   2.487   8.092 -0.1228  0.3100 -2.0958
  593MOL0     H80046  10.294   2.370   7.980  0.6668 -0.5888  0.2428
  593MOL0     H80047  10.397   2.272   8.186  0.2668 -0.3802 -1.3187
  593MOL0     H80048  10.294   2.375   8.284  1.5158  0.8738  0.3894
  593MOL0     H80049  10.491   2.506   8.068  1.3837  0.8736  0.3200
  593MOL0     H80050  10.399   2.580   8.178  0.9425 -0.0922  0.9601
  593MOL0     H80051  10.705   2.422   8.429 -0.2001 -0.0194 -0.4045
  593MOL0     H80052   9.913   2.352   7.802  1.4371  1.5447  3.3862
  593MOL0     H80053   9.672   2.170   7.581 -0.2498 -1.5108  0.8630
  593MOL0     H80054   9.579   2.235   7.720  0.7731 -0.1692  1.2916
  593MOL0     H80055   9.694   2.334   7.651 -1.9998 -0.3108 -2.1349
  594MOL0     O80056   8.439   4.770   7.039 -0.4188  0.0887 -0.6549
  594MOL0     C80057   8.379   4.753   7.144 -0.3117 -0.4144  0.0247
  594MOL0     O80058   8.408   4.822   7.263  0.8712  0.1648  0.0341
  594MOL0     C80059   8.499   4.929   7.283  0.6268  1.2207  0.2000
  594MOL0     C80060   8.592   4.983   7.191 -0.4645  0.7802 -0.7546
  594MOL0     C80061   8.678   5.091   7.224 -0.0427  0.6758  0.3014
  594MOL0     C80062   8.684   5.141   7.350  0.0625 -1.6604 -0.6572
  594MOL0     O80063   8.771   5.245   7.380 -0.6925  0.5851  0.0721
  594MOL0     C80064   8.757   5.327   7.493  0.0168 -0.3966  0.0640
  594MOL0     C80065   8.808   5.475   7.468  0.1583  0.1991 -0.3417
  594MOL0     C80066   8.947   5.489   7.512 -0.5968  0.6216 -0.1140
  594MOL0     C80067   8.977   5.640   7.500  0.0677 -0.1298  0.0979
  594MOL0     C80068   9.114   5.688   7.553 -0.3368  0.0450 -0.5363
  594MOL0     C80069   9.229   5.590   7.503 -0.6845 -0.0395 -0.1579
  594MOL0     C80070   9.371   5.635   7.554 -0.0630  0.4731 -2.0573
  594MOL0     C80071   9.464   5.682   7.440  0.0643 -0.4319  0.1816
  594MOL0     N80072   9.590   5.719   7.506  0.4956 -1.0494  1.0125
  594MOL0     C80073   9.674   5.834   7.497 -0.2119  0.4003  0.5146
  594MOL0     C80074   9.778   5.806   7.579  0.2627 -0.5986  0.1146
  594MOL0     C80075   9.900   5.894   7.605 -0.0596  0.0347  0.0311
  594MOL0     C80076  10.027   5.810   7.572 -0.9168 -0.6511 -0.2687
  594MOL0     C80077  10.145   5.909   7.603 -0.1199 -0.1071 -0.2972
  594MOL0     C80078  10.286   5.845   7.628 -0.0913 -0.4476  1.6177
  594MOL0     O80079  10.390   5.948   7.635 -0.1080  0.2861  0.6659
  594MOL0     C80080  10.524   5.911   7.633 -0.1639  0.2362 -0.7466
  594MOL0     C80081  10.617   6.014   7.609 -0.5432  0.4311 -0.4337
  594MOL0     C80082  10.752   5.981   7.607  0.5669  0.9060 -0.0876
  594MOL0     C80083  10.797   5.853   7.650 -0.2811  0.3111  0.1565
  594MOL0     C80084  10.938   5.821   7.663 -0.0126 -0.4295  0.3457
  594MOL0     O80085  11.023   5.933   7.673  0.0062 -0.4531  0.7921
  594MOL0     C80086  11.155   5.916   7.676  0.3783  0.2968  1.0661
  594MOL0     C80087  11.221   5.847   7.780 -0.2993  0.2401  0.8045
  594MOL0     C80088  11.355   5.845   7.775 -0.1194  0.0286  0.1453
  594MOL0     C80089  11.423   5.885   7.663  0.2821  0.6907  0.0029
  594MOL0     O80090  11.557   5.880   7.647 -0.6232 -0.3661  0.0355
  594MOL0     C80091  11.640   5.922   7.756 -0.3233 -0.4159 -0.8792
  594MOL0     C80092  11.775   5.921   7.695 -0.0685 -0.3992  0.9763
  594MOL0     C80093  11.877   5.994   7.781 -0.6072  0.7807  1.0111
  594MOL0     C80094  11.994   6.039   7.705 -0.8040 -0.6292  0.9311
  594MOL0     C80095  12.115   6.068   7.793 -0.1264 -0.4630  0.2195
  594MOL0     C80096  12.210   6.168   7.726  0.1466 -0.2058 -0.3078
  594MOL0     C80097  12.335   6.190   7.816 -0.5148 -0.6409  1.0173
  594MOL0     C80098  12.437   6.283   7.757 -1.2121  0.3017 -0.4278
  594MOL0    Cl80099  12.542   6.337   7.897  0.1248  0.2645  0.2791
  594MOL0     C80100  11.357   5.932   7.550  0.4530 -1.3894  0.1347
  594MOL0     C80101  11.224   5.951   7.558 -0.5637 -0.3258  0.2481
  594MOL0     O80102  10.975   5.710   7.681 -0.3579  0.3514  0.3587
  594MOL0     C80103  10.704   5.752   7.680  0.1555 -0.4539  0.2448
  594MOL0     C80104  10.567   5.781   7.666  1.0591 -0.0123 -0.2992
  594MOL0     N80105   9.758   5.677   7.627 -0.1606  0.3613  0.2927
  594MOL0     N80106   9.648   5.624   7.589  0.1285 -0.8956  1.0568
  594MOL0     C80107   8.599   5.084   7.452  0.0257 -0.1116  0.5508
  594MOL0     C80108   8.503   4.981   7.413 -0.0986 -0.0754 -0.0870
  594MOL0     C80109   8.263   4.663   7.150  0.4332  0.1390  0.1438
  594MOL0     C80110   8.207   4.621   7.276  0.6405 -0.1126  0.3842
  594MOL0     C80111   8.106   4.528   7.281 -0.4599 -0.5409 -0.1832
  594MOL0     C80112   8.049   4.465   7.170 -0.7526 -0.4752  0.4795
  594MOL0     O80113   7.954   4.374   7.177  0.3014 -0.1523  0.8004
  594MOL0     C80114   7.948   4.281   7.288  0.4607 -0.6807 -0.2670
  594MOL0     C80115   7.858   4.162   7.260 -0.7370  0.5329  0.2453
  594MOL0     C80116   7.920   4.054   7.165  0.1658  0.1482  0.1931
  594MOL0     C80117   7.831   3.931   7.128  0.0219 -0.5205 -0.9160
  594MOL0     C80118   7.797   3.854   7.251  0.4648  0.2503 -0.2290
  594MOL0     C80119   7.746   3.800   7.355  0.5777  1.0333 -0.4466
  594MOL0     C80120   8.097   4.506   7.044  0.1369 -0.4872 -0.4588
  594MOL0     C80121   8.204   4.603   7.035  0.7025  0.6271  1.1416
  594MOL0     C80122   8.240   4.645   6.891 -0.3239  0.7041  0.5658
  594MOL0     H80123   8.595   4.936   7.094 -1.8992 -1.6846  0.2951
  594MOL0     H80124   8.725   5.151   7.146 -0.6476  0.2694 -0.3886
  594MOL0     H80125   8.654   5.319   7.528 -0.1530 -0.4414 -0.4431
  594MOL0     H80126   8.814   5.296   7.581 -0.8027  0.3821  0.8916
  594MOL0     H80127   8.749   5.540   7.532  3.2501  1.5309  1.3937
  594MOL0     H80128   8.785   5.505   7.365 -0.7663 -0.1332 -0.2421
  594MOL0     H80129   9.005   5.424   7.445  3.4808  1.8437  1.8946
  594MOL0     H80130   8.965   5.460   7.616  0.3185  0.4684 -0.3066
  594MOL0     H80131   8.971   5.679   7.398 -0.4340  2.0198  0.8955
  594MOL0     H80132   8.899   5.705   7.541 -0.0879 -0.4699  0.3496
  594MOL0     H80133   9.138   5.791   7.525  0.7176  0.0825  0.4183
  594MOL0     H80134   9.117   5.682   7.663 -1.4416  1.2320 -0.4235
  594MOL0     H80135   9.209   5.487   7.535  3.0587 -1.5911 -2.1649
  594MOL0     H80136   9.229   5.586   7.393 -1.9371 -0.3195 -0.1679
  594MOL0     H80137   9.410   5.547   7.607 -0.0618  0.1940 -2.5170
  594MOL0     H80138   9.357   5.708   7.634  1.9028 -1.8296  0.6084
  594MOL0     H80139   9.480   5.606   7.364 -0.0145  0.2790 -0.5637
  594MOL0     H80140   9.412   5.772   7.406 -0.3812 -0.0747  1.7106
  594MOL0     H80141   9.659   5.908   7.418 -0.8447 -3.2484 -3.1341
  594MOL0     H80142   9.884   5.986   7.547 -2.0594 -1.1600 -1.4208
  594MOL0     H80143   9.904   5.923   7.711  2.8367  0.0245  0.0052
  594MOL0     H80144  10.025   5.742   7.657  2.4243 -1.9381 -1.0853
  594MOL0     H80145  10.024   5.763   7.473 -1.7233 -1.6728  0.2275
  594MOL0     H80146  10.117   5.957   7.697  1.2642  0.1155  0.0214
  594MOL0     H80147  10.144   5.981   7.521 -0.7149 -0.8202 -0.9307
  594MOL0     H80148  10.302   5.775   7.546 -3.9801 -0.5625  0.7723
  594MOL0     H80149  10.268   5.788   7.720 -2.1956 -1.3781  0.6926
  594MOL0     H80150  10.583   6.112   7.576  0.8665  1.3878  0.7735
  594MOL0     H80151  10.829   6.054   7.583  0.2737  1.0909 -0.4892
  594MOL0     H80152  11.153   5.816   7.858  1.4404 -0.1029  2.2428
  594MOL0     H80153  11.423   5.805   7.849  1.5472 -0.6214 -1.6627
  594MOL0     H80154  11.619   6.024   7.790 -0.8061 -0.0711 -2.1509
  594MOL0     H80155  11.636   5.849   7.837  0.9293  1.0349  0.5532
  594MOL0     H80156  11.797   5.815   7.676 -0.4666 -0.3085 -0.0241
  594MOL0     H80157  11.778   5.970   7.597 -0.1741 -0.4358  0.9549
  594MOL0     H80158  11.828   6.081   7.826  1.5781  1.8763  1.4215
  594MOL0     H80159  11.908   5.927   7.862 -0.8034 -0.2265  0.2610
  594MOL0     H80160  11.968   6.131   7.653  1.4577 -0.0831  0.6528
  594MOL0     H80161  12.019   5.964   7.630  2.5949 -1.0921  2.3457
  594MOL0     H80162  12.162   5.973   7.819 -0.4799 -0.2342  1.8089
  594MOL0     H80163  12.086   6.115   7.888 -1.5136  1.4632 -1.0706
  594MOL0     H80164  12.247   6.117   7.637 -3.0251 -0.4116 -1.6171
  594MOL0     H80165  12.161   6.264   7.706 -2.2906 -1.9117 -3.3032
  594MOL0     H80166  12.385   6.096   7.838 -0.2976 -0.6714  0.4146
  594MOL0     H80167  12.307   6.232   7.913  1.4012  2.6312  0.3165
  594MOL0     H80168  12.495   6.226   7.684 -0.5295 -0.8984  0.9731
  594MOL0     H80169  12.382   6.366   7.712 -2.9513  0.3132  1.5411
  594MOL0     H80170  11.412   5.939   7.457 -2.0627  0.9442 -1.3337
  594MOL0     H80171  11.167   5.990   7.475  1.7413 -1.5402 -2.0347
  594MOL0     H80172  10.730   5.662   7.735  1.9552  0.3904  0.8572
  594MOL0     H80173  10.505   5.695   7.688  0.2450  0.5501 -0.3828
  594MOL0     H80174   8.605   5.102   7.559 -1.8624  0.3730  0.6234
  594MOL0     H80175   8.439   4.952   7.495  0.5742  0.9467  0.8318
  594MOL0     H80176   8.243   4.659   7.371 -2.1418 -0.2615  1.6054
  594MOL0     H80177   8.077   4.507   7.383 -0.6474 -1.5204 -0.4330
  594MOL0     H80178   7.906   4.333   7.374  2.0033 -1.3536  0.9529
  594MOL0     H80179   8.043   4.242   7.327  0.1762  0.5598  1.8242
  594MOL0     H80180   7.769   4.201   7.210 -0.9788  0.2330  0.4321
  594MOL0     H80181   7.822   4.112   7.351 -2.2471  2.4055  0.7451
  594MOL0     H80182   8.006   4.013   7.219  0.1409 -0.7060 -0.3963
  594MOL0     H80183   7.960   4.095   7.072  1.2125 -1.8313 -0.3008
  594MOL0     H80184   7.739   3.965   7.080 -0.3670 -0.0639  0.1230
  594MOL0     H80185   7.881   3.867   7.055 -1.1795 -0.5221 -1.7681
  594MOL0     H80186   7.703   3.744   7.435  1.3955 -0.6767 -1.1702
  594MOL0     H80187   8.049   4.465   6.956  2.7665 -0.8359 -1.8193
  594MOL0     H80188   8.163   4.622   6.817 -1.0213  0.2157  1.4193
  594MOL0     H80189   8.261   4.751   6.882  5.6615 -0.2956 -1.8700
  594MOL0     H80190   8.337   4.600   6.869  0.0310  0.9161  1.6444
  595MOL0     O80191  10.380   7.490   3.640 -0.1348 -0.2109 -0.4419
  595MOL0     C80192  10.389   7.372   3.653 -1.3664  0.9372 -0.0479
  595MOL0     O80193  10.501   7.302   3.641  0.2151 -0.1802  0.1466
  595MOL0     C80194  10.612   7.351   3.576  0.4351  0.3478  0.0747
  595MOL0     C80195  10.613   7.449   3.482 -0.6172 -0.4210 -0.1346
  595MOL0     C80196  10.729   7.488   3.423  1.3750  0.2645  0.5080
  595MOL0     C80197  10.849   7.444   3.463 -0.1856  0.5560 -0.7354
  595MOL0     O80198  10.950   7.497   3.403  0.0258  0.1921 -0.0376
  595MOL0     C80199  11.076   7.443   3.435  0.0477 -0.3690  0.4701
  595MOL0     C80200  11.182   7.525   3.371 -0.1911 -0.7160 -0.1191
  595MOL0     C80201  11.310   7.449   3.364 -0.0990  0.6111  0.1874
  595MOL0     C80202  11.422   7.522   3.294 -0.7527  0.0570  0.5454
  595MOL0     C80203  11.561   7.469   3.326  0.1498 -0.5554  0.2125
  595MOL0     C80204  11.613   7.527   3.455 -0.5456  0.5783  0.0335
  595MOL0     C80205  11.757   7.477   3.475  0.1545 -0.0902 -0.0745
  595MOL0     C80206  11.864   7.581   3.450 -0.2472  0.2942  0.5814
  595MOL0     N80207  12.000   7.541   3.465  0.4265  0.4106 -0.1854
  595MOL0     C80208  12.110   7.621   3.487 -0.1208  0.8024  1.0968
  595MOL0     C80209  12.216   7.534   3.488 -0.0455  0.2890  0.1686
  595MOL0     C80210  12.357   7.565   3.514 -0.4048 -0.2648  0.2898
  595MOL0     C80211  12.427   7.477   3.609  0.3385  0.3781 -0.2553
  595MOL0     C80212  12.577   7.515   3.615  0.1527 -0.0131 -0.2877
  595MOL0     C80213  12.642   7.433   3.726  0.0032 -0.4462  0.3101
  595MOL0     O80214  12.781   7.450   3.736  0.0852 -1.0624 -0.6551
  595MOL0     C80215  12.857   7.355   3.789 -0.6551  0.1781 -0.1110
  595MOL0     C80216  12.912   7.258   3.711  1.3717  0.9557 -0.4433
  595MOL0     C80217  13.002   7.164   3.769  1.1008 -0.2102 -0.2030
  595MOL0     C80218  13.033   7.165   3.905  0.2897 -0.4319  0.1766
  595MOL0     C80219  13.125   7.071   3.969  0.4879  0.8043 -0.3145
  595MOL0     O80220  13.135   7.073   4.107  0.7003 -0.1335 -0.0231
  595MOL0     C80221  13.215   6.980   4.168 -0.0619  0.6348  0.5404
  595MOL0     C80222  13.173   6.849   4.206  0.3322 -0.3235  0.3232
  595MOL0     C80223  13.257   6.755   4.260  0.0687  0.3470 -0.4213
  595MOL0     C80224  13.395   6.778   4.268 -0.7714 -0.2442  0.8841
  595MOL0     O80225  13.477   6.670   4.303 -0.2831 -0.6510 -0.2854
  595MOL0     C80226  13.616   6.674   4.253 -0.5338 -0.6985 -0.4364
  595MOL0     C80227  13.626   6.629   4.101  0.5457 -0.7715 -0.5444
  595MOL0     C80228  13.768   6.616   4.039  0.2052  0.1812  0.2378
  595MOL0     C80229  13.845   6.750   4.034 -0.1007  0.1567  0.9249
  595MOL0     C80230  13.953   6.751   3.922 -0.3095  0.3941 -0.9106
  595MOL0     C80231  14.014   6.897   3.929 -0.8731 -0.1101 -0.1766
  595MOL0     C80232  14.148   6.904   3.855 -0.2319 -0.2784  0.2553
  595MOL0     C80233  14.256   6.807   3.919  0.2430 -0.6333 -0.7499
  595MOL0    Cl80234  14.431   6.858   3.874  0.1063 -0.4727  0.1515
  595MOL0     C80235  13.446   6.908   4.224  0.7937  0.2978  0.0821
  595MOL0     C80236  13.356   7.009   4.176 -0.0250  0.0665  0.3629
  595MOL0     O80237  13.190   7.003   3.889  0.6962 -0.0663  0.0962
  595MOL0     C80238  12.954   7.254   3.984 -0.5075 -0.0187  0.8095
  595MOL0     C80239  12.879   7.358   3.924 -0.6057  0.1859 -0.0249
  595MOL0     N80240  12.169   7.408   3.454 -0.2114 -0.7348 -0.4791
  595MOL0     N80241  12.044   7.415   3.448 -0.0410 -0.5892  0.4363
  595MOL0     C80242  10.847   7.344   3.565  0.2668 -1.2203  0.6927
  595MOL0     C80243  10.733   7.293   3.615  0.4084  0.2605  0.7665
  595MOL0     C80244  10.272   7.288   3.686  0.2421  0.5536 -0.1473
  595MOL0     C80245  10.291   7.149   3.668 -0.3502  0.5870 -0.8944
  595MOL0     C80246  10.186   7.053   3.701 -0.1451 -0.2008  0.6755
  595MOL0     C80247  10.073   7.102   3.766  0.5912 -0.7217 -0.0340
  595MOL0     O80248   9.981   7.008   3.815 -0.0561 -0.2899  0.1433
  595MOL0     C80249   9.866   7.052   3.887  0.3837  0.1026 -0.8049
  595MOL0     C80250   9.771   6.932   3.912  0.3014 -0.3057  0.3016
  595MOL0     C80251   9.631   6.964   3.983  0.1537  0.2290 -0.0464
  595MOL0     C80252   9.641   7.009   4.126  0.2223 -0.4074 -0.0418
  595MOL0     C80253   9.511   7.037   4.186  1.5062  0.2461  0.1066
  595MOL0     C80254   9.406   7.060   4.250  0.2055 -0.1426 -0.9683
  595MOL0     C80255  10.046   7.243   3.772  0.0314 -0.2553  1.3849
  595MOL0     C80256  10.144   7.332   3.733 -0.1991 -0.4726  0.2294
  595MOL0     C80257  10.105   7.477   3.737 -0.3548  0.0511 -1.5090
  595MOL0     H80258  10.514   7.480   3.450  0.2662 -0.6739 -3.5175
  595MOL0     H80259  10.716   7.558   3.341  0.7724 -0.1468  0.2451
  595MOL0     H80260  11.102   7.427   3.540 -0.3783 -0.7528  0.5226
  595MOL0     H80261  11.092   7.342   3.395 -3.2427 -1.0912  0.6334
  595MOL0     H80262  11.188   7.618   3.428  1.6166 -0.3067 -0.9063
  595MOL0     H80263  11.159   7.562   3.271  2.4070  2.7305  0.3731
  595MOL0     H80264  11.303   7.352   3.313  0.5099  1.9592 -2.6811
  595MOL0     H80265  11.338   7.407   3.461 -2.1316 -2.4994 -0.4177
  595MOL0     H80266  11.399   7.504   3.188 -1.4397  1.4177  0.4391
  595MOL0     H80267  11.421   7.630   3.310  0.5833  0.3504 -1.0927
  595MOL0     H80268  11.558   7.359   3.328  1.6591 -0.6167  0.3002
  595MOL0     H80269  11.621   7.504   3.241  0.9770  2.2039  1.8075
  595MOL0     H80270  11.602   7.635   3.450 -0.2367  0.6650  1.0498
  595MOL0     H80271  11.550   7.477   3.529  0.9678 -0.6099  0.5871
  595MOL0     H80272  11.774   7.395   3.404 -1.7696 -0.7630  0.1938
  595MOL0     H80273  11.761   7.434   3.575 -1.5183  1.1562  0.5866
  595MOL0     H80274  11.855   7.616   3.347 -0.0604 -0.0568  0.4435
  595MOL0     H80275  11.847   7.664   3.520 -1.5465  0.7062 -0.1790
  595MOL0     H80276  12.111   7.728   3.502  0.2616  0.8108  1.0167
  595MOL0     H80277  12.416   7.579   3.423 -3.0659 -1.7200 -1.7947
  595MOL0     H80278  12.360   7.663   3.564 -0.8435 -1.5251  2.9577
  595MOL0     H80279  12.378   7.470   3.706 -0.9348  0.5157 -0.8647
  595MOL0     H80280  12.434   7.372   3.577 -1.6840  0.4217 -0.9689
  595MOL0     H80281  12.582   7.623   3.633  1.2242  0.4203 -2.8147
  595MOL0     H80282  12.632   7.503   3.521  3.6413  1.2771  1.3968
  595MOL0     H80283  12.617   7.326   3.725  1.8327 -0.9013 -0.7905
  595MOL0     H80284  12.591   7.475   3.813  1.6329  1.1629  0.5273
  595MOL0     H80285  12.906   7.263   3.603  1.0076  2.1179 -0.3799
  595MOL0     H80286  13.041   7.091   3.699 -1.8012 -2.1755  0.0611
  595MOL0     H80287  13.067   6.829   4.190 -0.2483  0.3447  2.9052
  595MOL0     H80288  13.221   6.662   4.304  1.9192 -1.1091 -1.8033
  595MOL0     H80289  13.656   6.776   4.258 -0.6878 -0.5600 -1.6482
  595MOL0     H80290  13.678   6.607   4.313 -0.0490 -0.8238 -1.0734
  595MOL0     H80291  13.572   6.534   4.099  1.2810 -1.4282  2.9307
  595MOL0     H80292  13.565   6.702   4.047  2.6499  2.8785  1.5979
  595MOL0     H80293  13.821   6.542   4.101 -2.2470  0.7382  3.2227
  595MOL0     H80294  13.756   6.571   3.940 -0.4522 -1.3356  0.9764
  595MOL0     H80295  13.904   6.761   4.125 -1.6512 -1.0371  2.1182
  595MOL0     H80296  13.774   6.831   4.016  0.5875  0.2823 -1.5893
  595MOL0     H80297  13.906   6.724   3.827 -5.4398 -0.9586  1.5838
  595MOL0     H80298  14.027   6.673   3.942 -0.7888  0.5122  1.6334
  595MOL0     H80299  13.940   6.965   3.887  1.0546  2.7042  0.6825
  595MOL0     H80300  14.037   6.930   4.031 -3.1133 -0.9543  0.6738
  595MOL0     H80301  14.189   7.005   3.862  1.1712 -0.8649  0.9163
  595MOL0     H80302  14.124   6.888   3.750 -1.7578  2.5161  0.0911
  595MOL0     H80303  14.246   6.815   4.028 -1.5437  2.5544 -1.0125
  595MOL0     H80304  14.240   6.704   3.887  3.2365 -0.9864 -1.3340
  595MOL0     H80305  13.550   6.932   4.244  1.4838 -1.9115 -0.5028
  595MOL0     H80306  13.391   7.107   4.148 -1.8815 -0.1262 -3.3083
  595MOL0     H80307  12.971   7.258   4.091 -1.3149  0.7277  0.9251
  595MOL0     H80308  12.823   7.428   3.986  0.2216 -0.9735  2.1447
  595MOL0     H80309  10.936   7.299   3.609  0.7215  1.2914  2.5455
  595MOL0     H80310  10.739   7.202   3.673 -2.7309 -1.7021 -1.6457
  595MOL0     H80311  10.388   7.113   3.634  0.4252  2.6767 -1.0046
  595MOL0     H80312  10.220   6.950   3.701  1.2683  0.2503  0.6212
  595MOL0     H80313   9.816   7.146   3.860  1.8249  0.6561 -1.7083
  595MOL0     H80314   9.907   7.086   3.983 -1.9997  0.9823 -0.0245
  595MOL0     H80315   9.817   6.878   3.995 -1.7746  0.9346  2.3822
  595MOL0     H80316   9.756   6.884   3.815  1.8762  1.1281 -0.7134
  595MOL0     H80317   9.566   6.876   3.979 -0.4527  0.6670  0.0489
  595MOL0     H80318   9.574   7.038   3.928  1.1951 -0.1527 -1.7178
  595MOL0     H80319   9.678   6.921   4.179 -1.2267 -1.1273 -0.1911
  595MOL0     H80320   9.696   7.103   4.141 -0.6823 -0.1659  2.0680
  595MOL0     H80321   9.320   7.070   4.313 -0.2812  1.2358 -1.7979
  595MOL0     H80322   9.964   7.285   3.829 -1.1169 -1.0428  0.3599
  595MOL0     H80323  10.165   7.529   3.812  0.2838 -1.9682 -0.5294
  595MOL0     H80324  10.126   7.515   3.637 -0.4759  1.0919 -1.1539
  595MOL0     H80325   9.998   7.487   3.759 -0.2584 -1.2984 -0.1970
  596MOL0     O80326   6.003   7.210   5.014 -0.4703  0.0466  0.3934
  596MOL0     C80327   5.974   7.310   5.076 -0.9825 -0.7577  0.2318
  596MOL0     O80328   6.046   7.367   5.174  0.0599  0.5026 -0.6335
  596MOL0     C80329   6.155   7.293   5.215  0.2962  0.1051  0.7927
  596MOL0     C80330   6.289   7.330   5.176 -0.1200 -0.0464 -0.7608
  596MOL0     C80331   6.394   7.245   5.219 -0.0981 -0.1478  0.1066
  596MOL0     C80332   6.365   7.133   5.302  0.5148 -0.0290 -0.0751
  596MOL0     O80333   6.460   7.048   5.364  0.2420  0.6640 -0.1218
  596MOL0     C80334   6.595   7.040   5.319  0.2960 -0.6774 -0.9550
  596MOL0     C80335   6.677   6.972   5.424  0.5117  0.5335  0.2816
  596MOL0     C80336   6.823   6.965   5.380 -0.1754  0.1894  0.0769
  596MOL0     C80337   6.907   6.951   5.498  0.5156  0.4141  0.3821
  596MOL0     C80338   7.052   6.973   5.457 -0.5612  0.2630 -0.2047
  596MOL0     C80339   7.113   6.866   5.368  0.0168 -0.9427 -0.0056
  596MOL0     C80340   7.249   6.896   5.314 -0.3725 -0.1046 -0.0855
  596MOL0     C80341   7.289   6.801   5.197  0.3197  1.4374  0.1852
  596MOL0     N80342   7.430   6.813   5.147 -0.4287  0.0139 -0.7296
  596MOL0     C80343   7.531   6.876   5.215 -0.0427  0.5124 -0.1818
  596MOL0     C80344   7.641   6.827   5.157  0.1940 -0.4747 -0.0697
  596MOL0     C80345   7.783   6.866   5.194  1.3603 -0.1929 -0.9864
  596MOL0     C80346   7.892   6.751   5.182 -0.0216  0.6791  0.0821
  596MOL0     C80347   8.027   6.782   5.252  0.1458 -0.0073  0.0438
  596MOL0     C80348   8.135   6.682   5.204 -0.0694 -0.1040 -0.7655
  596MOL0     O80349   8.266   6.742   5.248 -0.0547  0.3648  1.0162
  596MOL0     C80350   8.368   6.656   5.231 -0.4173  0.3546 -0.5111
  596MOL0     C80351   8.372   6.524   5.183  0.2307 -0.6732  0.2160
  596MOL0     C80352   8.485   6.456   5.162  0.3240  0.5606  0.3816
  596MOL0     C80353   8.609   6.525   5.179 -0.3073 -0.3043  0.4817
  596MOL0     C80354   8.726   6.447   5.135 -0.3906 -0.0363  0.2726
  596MOL0     O80355   8.715   6.306   5.112  0.3374  0.2297  0.0352
  596MOL0     C80356   8.818   6.240   5.053  0.5768  0.2125  0.2277
  596MOL0     C80357   8.955   6.267   5.076 -0.2073  0.4620  0.1797
  596MOL0     C80358   9.056   6.188   5.021 -0.2548  0.3912  0.1079
  596MOL0     C80359   9.020   6.077   4.938 -0.0627 -0.5509  0.4559
  596MOL0     O80360   9.109   5.986   4.876 -0.3756 -0.4961  0.7662
  596MOL0     C80361   9.248   5.975   4.907 -0.6066  1.2386 -1.5567
  596MOL0     C80362   9.332   6.049   4.811  0.5202 -0.0641  0.1557
  596MOL0     C80363   9.478   6.021   4.835 -0.5784  0.3913  0.0401
  596MOL0     C80364   9.572   6.144   4.812 -0.0139 -0.8138  0.0477
  596MOL0     C80365   9.711   6.121   4.875  0.1099 -0.0033  0.2513
  596MOL0     C80366   9.804   6.039   4.787 -1.0242 -0.4007 -0.0441
  596MOL0     C80367   9.947   6.049   4.843  0.0303 -0.5128  0.5959
  596MOL0     C80368   9.951   6.052   4.995 -0.1030  0.0600  0.4027
  596MOL0    Cl80369   9.871   5.902   5.055 -0.1720 -0.0961  0.4898
  596MOL0     C80370   8.880   6.053   4.910 -0.0679 -0.3332 -0.0473
  596MOL0     C80371   8.782   6.132   4.967  0.4664 -0.3423 -0.6174
  596MOL0     O80372   8.830   6.518   5.117  0.3590 -0.2384 -0.8710
  596MOL0     C80373   8.615   6.660   5.208  0.7045  0.2480 -0.3771
  596MOL0     C80374   8.497   6.719   5.253  0.2494 -0.1323  0.5193
  596MOL0     N80375   7.605   6.755   5.049 -0.4301  1.4185  0.0188
  596MOL0     N80376   7.475   6.749   5.038 -0.8911  0.3231  0.3016
  596MOL0     C80377   6.234   7.116   5.354 -0.7097 -0.2904 -0.6623
  596MOL0     C80378   6.136   7.198   5.315  0.0890 -0.1906  0.0795
  596MOL0     C80379   5.851   7.384   5.041  0.0463 -0.9751  0.3453
  596MOL0     C80380   5.849   7.524   5.047 -0.2311  0.1551  0.1402
  596MOL0     C80381   5.744   7.603   5.029  0.1327 -0.0539 -0.4199
  596MOL0     C80382   5.625   7.535   5.004  0.3865 -0.3592 -0.2454
  596MOL0     O80383   5.510   7.606   4.996  0.7773 -0.1320  0.6483
  596MOL0     C80384   5.509   7.753   4.997  0.4055 -0.0023 -0.2549
  596MOL0     C80385   5.366   7.811   4.991 -0.5712 -0.1764  0.5598
  596MOL0     C80386   5.311   7.771   4.846 -0.2614  0.2532  0.0641
  596MOL0     C80387   5.160   7.793   4.816 -0.1317  0.1184 -0.5531
  596MOL0     C80388   5.128   7.932   4.789  0.1694 -0.3111 -0.1563
  596MOL0     C80389   5.075   8.042   4.779 -0.0764 -0.3793 -0.5611
  596MOL0     C80390   5.619   7.399   4.980 -0.9937  0.0146  0.0074
  596MOL0     C80391   5.734   7.320   4.997 -0.9762  0.3181  0.2743
  596MOL0     C80392   5.718   7.178   4.962 -0.0508  0.8318  0.1256
  596MOL0     H80393   6.308   7.407   5.102 -0.0753  0.0713 -0.6253
  596MOL0     H80394   6.495   7.264   5.185 -1.0420  1.1504 -2.2122
  596MOL0     H80395   6.601   6.990   5.222 -0.5875 -1.3352 -0.6863
  596MOL0     H80396   6.632   7.143   5.319 -1.1380 -0.1391 -0.2798
  596MOL0     H80397   6.648   6.869   5.450  2.4969 -0.6031 -1.6348
  596MOL0     H80398   6.660   7.033   5.513 -2.7063 -0.2306  0.2978
  596MOL0     H80399   6.843   7.059   5.328 -0.0371  0.3445  0.4074
  596MOL0     H80400   6.840   6.882   5.310 -0.8883  0.9564 -1.0462
  596MOL0     H80401   6.878   7.025   5.573  1.0182  0.5847  0.4074
  596MOL0     H80402   6.888   6.850   5.536 -1.6030  1.1988  1.5740
  596MOL0     H80403   7.058   7.077   5.425 -0.1088  0.4927  0.6037
  596MOL0     H80404   7.112   6.982   5.548 -0.9768 -0.2196  0.1252
  596MOL0     H80405   7.110   6.780   5.435  0.2738  1.5337  3.4103
  596MOL0     H80406   7.053   6.845   5.279 -0.9234 -1.0690  0.6440
  596MOL0     H80407   7.319   6.907   5.397 -0.4418 -0.2869 -0.0028
  596MOL0     H80408   7.242   6.993   5.264  0.5116 -0.0638 -0.1399
  596MOL0     H80409   7.266   6.696   5.215  1.0328  0.3909 -3.8523
  596MOL0     H80410   7.219   6.827   5.117  0.8488  1.7823 -0.1747
  596MOL0     H80411   7.520   6.946   5.297  1.7767  0.6069  0.0165
  596MOL0     H80412   7.819   6.947   5.129  0.3364  0.8707 -0.2475
  596MOL0     H80413   7.785   6.907   5.295 -0.1716 -0.4718 -0.8259
  596MOL0     H80414   7.855   6.655   5.218 -0.7810  1.1277  0.5172
  596MOL0     H80415   7.920   6.735   5.078  1.8623 -2.5475  0.9475
  596MOL0     H80416   8.014   6.774   5.360  1.9178 -1.7851  0.1864
  596MOL0     H80417   8.065   6.880   5.221  3.3500 -1.3313 -0.5845
  596MOL0     H80418   8.136   6.685   5.095  0.4176  1.8953 -0.7414
  596MOL0     H80419   8.113   6.584   5.248 -0.1291  2.2790  5.4541
  596MOL0     H80420   8.276   6.476   5.166 -0.9504  2.6697 -4.9995
  596MOL0     H80421   8.479   6.355   5.123 -0.5825  0.4133  0.8621
  596MOL0     H80422   8.971   6.346   5.149  0.8561 -0.1200  0.6039
  596MOL0     H80423   9.161   6.206   5.039 -0.5267  3.0555 -0.5318
  596MOL0     H80424   9.257   6.018   5.008  0.7950  1.9464 -1.9585
  596MOL0     H80425   9.280   5.870   4.902 -3.8179  0.1101 -1.0765
  596MOL0     H80426   9.293   6.034   4.710  0.8544 -0.0848  0.0277
  596MOL0     H80427   9.325   6.159   4.812 -0.5325 -0.1286  1.4551
  596MOL0     H80428   9.493   5.980   4.935  1.5581  0.5936 -0.1550
  596MOL0     H80429   9.517   5.939   4.774  0.7102  0.1842  1.1201
  596MOL0     H80430   9.531   6.235   4.858  1.3160  0.4602 -1.1764
  596MOL0     H80431   9.591   6.170   4.707  1.2398 -0.0486  0.4472
  596MOL0     H80432   9.692   6.066   4.968 -1.8267 -0.0122 -0.1072
  596MOL0     H80433   9.757   6.217   4.899  1.2119  0.0060 -1.7424
  596MOL0     H80434   9.774   5.934   4.782  0.6042 -1.0183  1.8100
  596MOL0     H80435   9.795   6.078   4.685 -0.7948  0.4941  0.2652
  596MOL0     H80436   9.998   6.132   4.793 -2.2693 -1.0192 -2.9195
  596MOL0     H80437  10.002   5.958   4.815  1.4349  0.6772 -0.7286
  596MOL0     H80438  10.054   6.048   5.029 -0.5679 -0.2322  1.8396
  596MOL0     H80439   9.911   6.145   5.038 -0.2684  0.7361 -1.1363
  596MOL0     H80440   8.857   5.971   4.843  3.0790 -0.8190 -0.7314
  596MOL0     H80441   8.679   6.109   4.940 -0.6595  2.2194  1.0934
  596MOL0     H80442   8.706   6.720   5.202  2.1786 -1.3814  2.9798
  596MOL0     H80443   8.507   6.822   5.288  0.8842 -0.4583  1.3106
  596MOL0     H80444   6.206   7.043   5.429 -1.9566  0.1514 -0.6855
  596MOL0     H80445   6.040   7.189   5.365  0.2730  1.4681  0.8147
  596MOL0     H80446   5.937   7.577   5.081  0.1131  0.1329 -0.6944
  596MOL0     H80447   5.751   7.710   5.043 -0.7189 -0.2978  2.5634
  596MOL0     H80448   5.559   7.793   4.909 -1.1743 -2.2610 -2.3377
  596MOL0     H80449   5.548   7.788   5.093  0.2529 -1.0945  0.2223
  596MOL0     H80450   5.357   7.920   5.002  1.1671  0.1811 -1.1845
  596MOL0     H80451   5.308   7.770   5.075  0.7718 -2.6126  0.4001
  596MOL0     H80452   5.325   7.667   4.818  0.6942 -0.2405  2.1678
  596MOL0     H80453   5.371   7.832   4.777  1.9323  0.8541  2.3282
  596MOL0     H80454   5.142   7.734   4.726  0.8110 -1.9386  0.5395
  596MOL0     H80455   5.087   7.761   4.891 -0.5901  2.8326  0.3010
  596MOL0     H80456   5.051   8.144   4.753  0.7652 -0.7693 -3.1785
  596MOL0     H80457   5.525   7.357   4.948 -1.8994  1.4992  0.6062
  596MOL0     H80458   5.784   7.106   5.011 -0.8891  0.0631  0.1615
  596MOL0     H80459   5.616   7.139   4.965  0.6140 -1.2232 -1.5216
  596MOL0     H80460   5.740   7.170   4.855 -0.1371  0.8057  0.1098
  597MOL0     O80461   1.448   3.888   2.819  0.0690 -0.1635  0.2821
  597MOL0     C80462   1.447   3.800   2.734  0.2143 -0.0568  0.1598
  597MOL0     O80463   1.536   3.693   2.728 -0.3520 -0.0922  0.1928
  597MOL0     C80464   1.630   3.675   2.829 -0.2277 -0.1941 -0.1867
  597MOL0     C80465   1.758   3.651   2.786 -0.0306  1.1123 -0.6717
  597MOL0     C80466   1.861   3.618   2.875  0.1311  0.4136 -0.0739
  597MOL0     C80467   1.838   3.629   3.014  0.4943  0.4702  0.2426
  597MOL0     O80468   1.952   3.598   3.093  0.2708  0.1959 -0.1152
  597MOL0     C80469   1.937   3.579   3.235  1.4100 -0.1972 -0.3420
  597MOL0     C80470   2.067   3.547   3.310  0.3227  0.0856  0.1066
  597MOL0     C80471   2.135   3.412   3.300  0.0756  0.4405  0.6955
  597MOL0     C80472   2.232   3.388   3.423  0.6649 -0.7215 -0.0211
  597MOL0     C80473   2.296   3.253   3.406 -0.5804 -0.6030 -0.4672
  597MOL0     C80474   2.355   3.208   3.546 -0.2291 -0.4516  0.2280
  597MOL0     C80475   2.460   3.092   3.546 -1.0391  0.8406  0.6226
  597MOL0     C80476   2.375   2.964   3.524 -0.3012  1.0013 -0.3031
  597MOL0     N80477   2.456   2.847   3.548  0.3165  0.7182 -0.1041
  597MOL0     C80478   2.486   2.787   3.666 -0.4641 -0.0179 -0.1825
  597MOL0     C80479   2.576   2.687   3.629 -0.2214 -0.2066  0.3133
  597MOL0     C80480   2.640   2.596   3.732  0.0149 -0.1921 -0.2119
  597MOL0     C80481   2.790   2.621   3.740  0.1668  0.3398 -0.1270
  597MOL0     C80482   2.867   2.531   3.842  0.1136 -0.4540 -0.1371
  597MOL0     C80483   3.023   2.551   3.842 -0.9242 -0.3115  0.4020
  597MOL0     O80484   3.094   2.497   3.954 -0.6450  0.2054  0.3599
  597MOL0     C80485   3.215   2.546   3.983 -0.2244 -0.4222  0.1340
  597MOL0     C80486   3.266   2.558   4.110  0.4502  0.0020  0.3272
  597MOL0     C80487   3.395   2.604   4.149  0.2277 -1.3162 -0.5540
  597MOL0     C80488   3.482   2.629   4.042  1.1776  0.2515  0.2312
  597MOL0     C80489   3.614   2.684   4.076 -0.2182 -0.3148  0.5751
  597MOL0     O80490   3.692   2.740   3.975 -0.1554  0.5550  0.0748
  597MOL0     C80491   3.814   2.788   4.001  0.3100 -0.5581  0.3430
  597MOL0     C80492   3.828   2.921   4.039  0.8606 -0.1983  0.3672
  597MOL0     C80493   3.965   2.966   4.053  0.6191 -0.0341 -1.0282
  597MOL0     C80494   4.073   2.881   4.053 -0.3231 -0.3303 -0.2208
  597MOL0     O80495   4.207   2.902   4.090  0.2587 -0.0976 -0.2634
  597MOL0     C80496   4.234   3.021   4.154 -0.6087 -0.5038  0.3558
  597MOL0     C80497   4.367   3.021   4.224 -0.1703 -0.4405 -0.5707
  597MOL0     C80498   4.488   2.990   4.132  0.0075 -0.0585  0.2245
  597MOL0     C80499   4.612   3.031   4.211 -0.5486  0.1317 -0.3028
  597MOL0     C80500   4.735   2.930   4.185  1.2811 -0.4288  1.0016
  597MOL0     C80501   4.759   2.904   4.037 -0.1176 -0.7383  0.8843
  597MOL0     C80502   4.903   2.849   4.026  0.5944  0.0374 -0.0551
  597MOL0     C80503   5.009   2.954   4.012  0.4219 -0.4826  0.1310
  597MOL0    Cl80504   5.165   2.868   3.989  0.1185 -0.3921 -0.3267
  597MOL0     C80505   4.047   2.748   4.030  0.4913 -0.2798  0.5425
  597MOL0     C80506   3.918   2.707   3.993 -0.0088  0.1025  0.1341
  597MOL0     O80507   3.648   2.689   4.199  0.5634  0.1235 -0.1895
  597MOL0     C80508   3.440   2.611   3.910 -0.1263  0.2058 -0.6663
  597MOL0     C80509   3.307   2.577   3.879 -0.6553  0.5559  0.0332
  597MOL0     N80510   2.609   2.698   3.496  0.1112  0.1390 -1.2020
  597MOL0     N80511   2.531   2.791   3.447 -0.5163  0.8148 -0.0623
  597MOL0     C80512   1.709   3.653   3.059 -0.0262 -0.6022  0.3645
  597MOL0     C80513   1.608   3.672   2.965 -0.6318  0.4921 -0.4790
  597MOL0     C80514   1.347   3.806   2.624  0.1720 -0.2360  0.4795
  597MOL0     C80515   1.378   3.746   2.504  0.5289  0.4025 -0.3256
  597MOL0     C80516   1.305   3.765   2.388 -0.3192  0.5348 -0.2197
  597MOL0     C80517   1.188   3.838   2.389  0.5343 -0.5829  0.6493
  597MOL0     O80518   1.116   3.864   2.276 -0.7550  0.6806 -0.1822
  597MOL0     C80519   0.983   3.900   2.284 -0.2000 -0.2647  0.5727
  597MOL0     C80520   0.898   3.894   2.152 -0.2580  0.8085  0.4474
  597MOL0     C80521   0.762   3.971   2.153 -0.1863  0.3395  0.1790
  597MOL0     C80522   0.692   3.985   2.019 -0.2936  0.2652 -0.3018
  597MOL0     C80523   0.764   4.080   1.940  0.5195 -0.1924 -0.6261
  597MOL0     C80524   0.832   4.149   1.866  0.5124  0.4086 -1.3612
  597MOL0     C80525   1.145   3.892   2.512 -0.7831  0.3016 -0.1701
  597MOL0     C80526   1.226   3.887   2.626  0.1135 -0.4537 -0.5232
  597MOL0     C80527   1.181   3.958   2.751 -0.1214  0.5082 -0.2534
  597MOL0     H80528   1.784   3.655   2.680  0.1536 -2.9723 -0.9433
  597MOL0     H80529   1.955   3.580   2.837 -0.3982 -1.2652  0.2204
  597MOL0     H80530   1.886   3.662   3.284  2.8775 -0.0520  1.0213
  597MOL0     H80531   1.864   3.498   3.248  0.1503  0.7113 -1.4957
  597MOL0     H80532   2.040   3.576   3.412 -1.5925  1.5515 -0.7577
  597MOL0     H80533   2.147   3.617   3.284  1.3776 -0.1832  2.3576
  597MOL0     H80534   2.194   3.404   3.208  2.8832  0.2930  2.4248
  597MOL0     H80535   2.056   3.336   3.293 -1.6366  2.2411 -0.7461
  597MOL0     H80536   2.302   3.471   3.437 -1.7076  1.8268 -1.9976
  597MOL0     H80537   2.169   3.372   3.511  0.4053 -2.0745 -0.4234
  597MOL0     H80538   2.221   3.184   3.364 -2.4167  0.6301  0.6721
  597MOL0     H80539   2.374   3.271   3.332  0.4351 -1.0064  0.4893
  597MOL0     H80540   2.400   3.295   3.596  0.5948 -0.2787 -0.7808
  597MOL0     H80541   2.270   3.178   3.609  0.9226 -2.6692  0.8145
  597MOL0     H80542   2.523   3.088   3.634  0.3097  4.2387 -0.0303
  597MOL0     H80543   2.535   3.093   3.466 -0.2677 -0.5930  1.2936
  597MOL0     H80544   2.290   2.970   3.593  0.4920  3.7975  0.5808
  597MOL0     H80545   2.344   2.968   3.420  0.7270  0.7592 -0.6314
  597MOL0     H80546   2.437   2.801   3.762 -0.5254 -0.2019 -0.1866
  597MOL0     H80547   2.607   2.604   3.836  2.9280  2.6332  0.6686
  597MOL0     H80548   2.615   2.491   3.712 -1.4370 -0.2484  1.6030
  597MOL0     H80549   2.834   2.617   3.640  2.0394  1.4646  0.6087
  597MOL0     H80550   2.791   2.725   3.774 -2.3720  0.0734  1.0200
  597MOL0     H80551   2.847   2.426   3.820  1.2238 -0.5389 -0.8546
  597MOL0     H80552   2.829   2.562   3.940  2.1521 -3.3429  1.7428
  597MOL0     H80553   3.039   2.659   3.842 -0.9585 -0.3003 -0.9584
  597MOL0     H80554   3.069   2.510   3.752 -0.2079  2.4487 -0.5839
  597MOL0     H80555   3.195   2.545   4.192  0.9353 -1.2874  0.5709
  597MOL0     H80556   3.428   2.608   4.252 -3.5080 -1.2937  0.7921
  597MOL0     H80557   3.750   2.994   4.053  0.6132 -0.5702  0.9729
  597MOL0     H80558   3.978   3.070   4.080  0.7142 -0.0695 -0.9377
  597MOL0     H80559   4.226   3.111   4.092 -2.1679 -1.4261 -0.8457
  597MOL0     H80560   4.156   3.039   4.228 -0.3400 -1.4516  0.8885
  597MOL0     H80561   4.380   3.121   4.268 -2.1335 -0.6460  0.6291
  597MOL0     H80562   4.369   2.943   4.301  0.4386  0.0313 -0.0983
  597MOL0     H80563   4.486   2.883   4.111  1.2068 -0.3568  1.5315
  597MOL0     H80564   4.501   3.044   4.037  4.9377 -3.8958 -1.6933
  597MOL0     H80565   4.586   3.021   4.317 -0.2552 -1.3733 -0.3499
  597MOL0     H80566   4.638   3.134   4.184 -1.1328  0.6717  1.1214
  597MOL0     H80567   4.706   2.833   4.228  1.4383 -0.7966  0.2983
  597MOL0     H80568   4.823   2.963   4.241  1.4864 -0.1480  0.5172
  597MOL0     H80569   4.678   2.837   4.007 -1.0047  0.3133  0.8331
  597MOL0     H80570   4.739   2.992   3.975 -1.0343 -2.5728 -1.5991
  597MOL0     H80571   4.898   2.787   3.936 -1.1173 -0.4968  0.3754
  597MOL0     H80572   4.929   2.786   4.112  2.3696 -1.7566 -1.7869
  597MOL0     H80573   4.973   3.009   3.925 -1.9611  0.3933  1.5792
  597MOL0     H80574   5.020   3.017   4.101 -1.1002 -0.2556  0.1797
  597MOL0     H80575   4.137   2.688   4.039 -0.0991 -1.1765  0.5658
  597MOL0     H80576   3.900   2.606   3.957  0.6850 -0.8711  2.3448
  597MOL0     H80577   3.508   2.620   3.826  0.9853 -0.0649  0.1768
  597MOL0     H80578   3.276   2.571   3.775 -1.9853  0.5115  0.4119
  597MOL0     H80579   1.688   3.668   3.164 -0.0220  0.4764  0.2277
  597MOL0     H80580   1.503   3.690   2.988 -1.0488 -1.1165 -0.9635
  597MOL0     H80581   1.462   3.679   2.487 -0.4814 -0.7286 -1.0053
  597MOL0     H80582   1.346   3.730   2.294  2.3745  0.3470  0.9158
  597MOL0     H80583   0.989   4.000   2.327  3.0176 -0.8092  1.6159
  597MOL0     H80584   0.932   3.842   2.362 -0.5534 -0.1702  0.4167
  597MOL0     H80585   0.874   3.787   2.156 -1.4326  1.0869  2.1231
  597MOL0     H80586   0.958   3.913   2.063 -1.4499 -1.3379 -0.8790
  597MOL0     H80587   0.780   4.069   2.200  0.7124  0.1351  0.2874
  597MOL0     H80588   0.693   3.920   2.221 -4.3420 -0.2117 -3.9490
  597MOL0     H80589   0.692   3.885   1.977  0.7450 -0.0364  0.3616
  597MOL0     H80590   0.589   4.019   2.033  0.2066  0.5449  4.5021
  597MOL0     H80591   0.886   4.210   1.797 -0.6714 -1.8931 -4.5983
  597MOL0     H80592   1.056   3.955   2.518  0.2425  2.0095 -1.6716
  597MOL0     H80593   1.087   4.007   2.724 -0.2888 -1.2091 -3.2594
  597MOL0     H80594   1.148   3.886   2.826 -1.1328  1.9659  0.7860
  597MOL0     H80595   1.251   4.028   2.796  0.2998  0.3331 -0.6334
  598MOL0     O80596   6.735   5.050   1.783 -0.2495 -0.3260  0.1324
  598MOL0     C80597   6.787   5.091   1.887 -0.2895  0.1636  0.3601
  598MOL0     O80598   6.921   5.088   1.909  0.3949  0.3426 -0.8545
  598MOL0     C80599   6.997   5.072   1.794 -0.0053  0.3438  0.5923
  598MOL0     C80600   7.006   4.955   1.722  0.5657  0.0966  0.5096
  598MOL0     C80601   7.082   4.940   1.607  0.8048 -0.0352 -0.2344
  598MOL0     C80602   7.141   5.056   1.550  0.2472 -0.1731  0.2754
  598MOL0     O80603   7.193   5.034   1.424 -0.5327 -0.2815  0.0405
  598MOL0     C80604   7.257   5.144   1.364  0.4161 -0.3924 -0.7295
  598MOL0     C80605   7.364   5.086   1.265  0.1664 -0.6715 -0.4381
  598MOL0     C80606   7.463   5.200   1.228 -0.1949  0.0858 -0.5926
  598MOL0     C80607   7.566   5.136   1.131 -0.4479 -0.2783  0.1018
  598MOL0     C80608   7.660   5.242   1.088 -0.0699 -0.0595  0.4450
  598MOL0     C80609   7.761   5.177   0.984 -0.2621  0.3041  0.4587
  598MOL0     C80610   7.878   5.265   0.933  0.1546  0.0907  0.3545
  598MOL0     C80611   7.840   5.379   0.840  0.1747 -0.4183 -0.3926
  598MOL0     N80612   7.944   5.449   0.769  0.0888  0.1078 -0.5882
  598MOL0     C80613   8.077   5.477   0.808  0.5304 -0.6326 -0.2516
  598MOL0     C80614   8.135   5.531   0.701 -0.7073  0.1441  0.2311
  598MOL0     C80615   8.273   5.583   0.691 -0.5068 -1.1123 -0.4000
  598MOL0     C80616   8.345   5.567   0.551 -0.2961  0.3433  0.4667
  598MOL0     C80617   8.443   5.696   0.549  0.1715  0.6115 -0.1676
  598MOL0     C80618   8.534   5.707   0.675 -0.5409 -0.0533  1.1724
  598MOL0     O80619   8.633   5.812   0.648 -0.3171  0.0689 -0.6056
  598MOL0     C80620   8.736   5.827   0.735 -0.2491  0.1513  0.0655
  598MOL0     C80621   8.847   5.892   0.684 -0.0394  0.3765  0.4844
  598MOL0     C80622   8.967   5.899   0.761 -0.5960 -0.1373  0.0346
  598MOL0     C80623   8.967   5.846   0.895  1.7673 -0.3414 -0.2688
  598MOL0     C80624   9.077   5.854   0.993 -0.2929  0.0446 -0.0710
  598MOL0     O80625   9.187   5.939   0.967 -0.8141 -0.1949 -0.0511
  598MOL0     C80626   9.295   5.944   1.048 -0.1042 -0.1633  0.0539
  598MOL0     C80627   9.293   5.945   1.187  0.3887 -0.3735 -0.1211
  598MOL0     C80628   9.409   5.944   1.269 -0.1403 -0.3964  0.4938
  598MOL0     C80629   9.535   5.941   1.207 -0.0070 -0.4434 -0.1324
  598MOL0     O80630   9.642   5.953   1.296 -0.3176  0.2271  0.6559
  598MOL0     C80631   9.770   5.896   1.268 -0.8009 -0.5389 -0.0128
  598MOL0     C80632   9.755   5.743   1.241  0.4331 -0.1434 -1.3790
  598MOL0     C80633   9.891   5.668   1.229 -0.5309 -0.5346  0.0419
  598MOL0     C80634   9.983   5.723   1.123 -0.5191  0.4718 -0.1668
  598MOL0     C80635   9.920   5.729   0.980 -0.1235 -0.8596 -0.5144
  598MOL0     C80636  10.005   5.786   0.857  0.1779  0.2348 -1.3054
  598MOL0     C80637  10.076   5.916   0.898  0.7460 -1.0647  0.5639
  598MOL0     C80638  10.161   5.969   0.772  0.2205  0.1089  0.0818
  598MOL0    Cl80639  10.251   5.836   0.677  0.5826 -0.0826  0.0334
  598MOL0     C80640   9.537   5.953   1.069 -1.2277  0.2871  0.0834
  598MOL0     C80641   9.417   5.953   0.991  0.2169 -0.1285  0.9601
  598MOL0     O80642   9.063   5.781   1.093  0.2374 -0.0305 -0.1153
  598MOL0     C80643   8.847   5.779   0.938 -0.2191  0.2744 -0.8997
  598MOL0     C80644   8.736   5.763   0.859  0.4176  0.0379 -0.6258
  598MOL0     N80645   8.040   5.537   0.602 -0.0550 -0.0281  0.1107
  598MOL0     N80646   7.936   5.483   0.636  0.1796 -0.7243  0.2095
  598MOL0     C80647   7.127   5.180   1.624 -0.0733  0.1211 -0.8067
  598MOL0     C80648   7.060   5.187   1.748  0.1704  0.2040 -0.0056
  598MOL0     C80649   6.704   5.126   2.000  0.4141  0.1573 -0.4828
  598MOL0     C80650   6.763   5.199   2.101  0.3236  0.2482  0.9579
  598MOL0     C80651   6.686   5.253   2.197 -0.1779  0.5796  0.8622
  598MOL0     C80652   6.550   5.225   2.215 -0.6761  1.2288 -0.2811
  598MOL0     O80653   6.469   5.284   2.310 -0.3906 -0.0031 -0.9290
  598MOL0     C80654   6.354   5.215   2.362 -0.1915  0.0130  0.5019
  598MOL0     C80655   6.241   5.315   2.376  0.9699 -0.3449 -0.2930
  598MOL0     C80656   6.139   5.299   2.257 -0.6927  0.6573 -0.0115
  598MOL0     C80657   6.031   5.394   2.265  0.0941 -0.3572 -0.4332
  598MOL0     C80658   5.959   5.392   2.393  0.4085 -0.6168  0.3759
  598MOL0     C80659   5.911   5.401   2.501  0.1388  0.0484  0.2874
  598MOL0     C80660   6.489   5.155   2.113  0.1905 -1.1560 -0.4437
  598MOL0     C80661   6.563   5.108   2.002  0.5175 -0.2715 -1.2771
  598MOL0     C80662   6.487   5.075   1.882 -0.3064  0.9924 -0.3596
  598MOL0     H80663   6.958   4.865   1.760 -0.0245 -0.7423 -2.0060
  598MOL0     H80664   7.083   4.844   1.557  0.0830 -0.8595  1.2530
  598MOL0     H80665   7.192   5.216   1.313 -2.3525 -2.3629 -0.2506
  598MOL0     H80666   7.320   5.199   1.434  0.0717  0.7101 -1.2641
  598MOL0     H80667   7.303   5.058   1.179 -0.1881  2.4993 -1.3330
  598MOL0     H80668   7.420   5.003   1.309 -1.0739 -1.1827  0.2688
  598MOL0     H80669   7.513   5.248   1.313 -0.7151  0.2741 -0.3901
  598MOL0     H80670   7.412   5.282   1.177 -1.3323 -0.2027  0.0408
  598MOL0     H80671   7.617   5.053   1.183  1.7305  0.0290 -1.4133
  598MOL0     H80672   7.516   5.090   1.046 -0.3792 -2.2323  1.0554
  598MOL0     H80673   7.601   5.324   1.046 -1.7289 -0.0103  2.7324
  598MOL0     H80674   7.718   5.274   1.175  0.4949  1.6029 -0.4989
  598MOL0     H80675   7.803   5.087   1.030  0.0390 -0.4106 -1.1393
  598MOL0     H80676   7.716   5.137   0.892  0.4890  0.0047  0.2170
  598MOL0     H80677   7.953   5.200   0.888 -0.0833  1.0243 -1.4616
  598MOL0     H80678   7.922   5.303   1.026  0.1683  2.1862 -0.4692
  598MOL0     H80679   7.766   5.339   0.770 -0.9695 -0.6772  0.9180
  598MOL0     H80680   7.782   5.450   0.900 -0.3693 -0.5133 -0.7992
  598MOL0     H80681   8.106   5.474   0.913 -2.7243  0.2082  0.7802
  598MOL0     H80682   8.273   5.692   0.704  0.7722 -1.2607  1.0472
  598MOL0     H80683   8.327   5.544   0.778 -2.4595 -1.9123  0.5144
  598MOL0     H80684   8.400   5.472   0.546 -0.0936  0.5013 -0.7814
  598MOL0     H80685   8.265   5.566   0.476  1.4605 -0.7271 -1.5282
  598MOL0     H80686   8.379   5.784   0.540  0.0591  0.5536  0.0588
  598MOL0     H80687   8.509   5.697   0.461 -1.6506 -1.1605 -1.6448
  598MOL0     H80688   8.577   5.608   0.692  2.0195  0.8734  0.6367
  598MOL0     H80689   8.472   5.731   0.761 -2.4797 -0.7624  0.0469
  598MOL0     H80690   8.823   5.936   0.588 -0.4761 -0.4184  0.2246
  598MOL0     H80691   9.058   5.945   0.722 -1.9956  1.7867 -1.1451
  598MOL0     H80692   9.196   5.946   1.235  1.7605 -0.7731  2.8984
  598MOL0     H80693   9.401   5.967   1.375  1.2774 -0.1524  0.5689
  598MOL0     H80694   9.822   5.943   1.184 -0.3223 -0.4723  0.3147
  598MOL0     H80695   9.840   5.897   1.353 -1.5929 -2.2109  0.7160
  598MOL0     H80696   9.706   5.687   1.321  1.1536 -1.3244 -1.7388
  598MOL0     H80697   9.696   5.731   1.150  1.5732  0.9743 -2.2989
  598MOL0     H80698   9.937   5.651   1.327 -0.1386  0.3088  0.0166
  598MOL0     H80699   9.871   5.564   1.204 -0.0882 -0.6894  0.3339
  598MOL0     H80700  10.067   5.652   1.115 -0.8287 -0.2025  1.9866
  598MOL0     H80701  10.015   5.823   1.152 -1.4165  1.1361 -1.3881
  598MOL0     H80702   9.835   5.797   0.991  1.5141  1.0979  0.7010
  598MOL0     H80703   9.891   5.626   0.958 -1.3350 -0.6887  0.1682
  598MOL0     H80704  10.081   5.711   0.833  1.3819  0.3775  1.6651
  598MOL0     H80705   9.939   5.800   0.770 -0.4422 -0.2244 -0.9149
  598MOL0     H80706  10.140   5.895   0.984 -1.7861 -1.6016  2.4316
  598MOL0     H80707  10.011   5.998   0.928 -1.3684 -2.8943  1.2838
  598MOL0     H80708  10.088   6.020   0.708 -0.0591 -3.0359 -2.3812
  598MOL0     H80709  10.234   6.046   0.801 -1.5105  1.5725  0.7393
  598MOL0     H80710   9.632   5.973   1.021  1.6993 -1.3134  4.5310
  598MOL0     H80711   9.416   5.964   0.883 -0.3077  1.3674  1.1020
  598MOL0     H80712   8.833   5.738   1.038  1.0134  3.4568  0.7210
  598MOL0     H80713   8.651   5.716   0.907  1.4790 -0.5674  0.7402
  598MOL0     H80714   7.170   5.270   1.582 -0.9262  1.3941  0.8965
  598MOL0     H80715   7.037   5.279   1.801  0.4539 -0.3022  1.0378
  598MOL0     H80716   6.867   5.229   2.097  0.3035  0.3962 -3.1469
  598MOL0     H80717   6.727   5.329   2.264 -0.7625  1.7707 -0.0932
  598MOL0     H80718   6.368   5.172   2.462 -0.0482 -1.0548  0.0408
  598MOL0     H80719   6.328   5.125   2.305 -1.4861  2.1107 -2.5165
  598MOL0     H80720   6.279   5.418   2.372 -2.1580  0.8753 -2.6449
  598MOL0     H80721   6.190   5.287   2.468 -0.6297  0.5721 -0.8662
  598MOL0     H80722   6.096   5.199   2.270  2.7253 -1.0414 -0.4886
  598MOL0     H80723   6.196   5.306   2.163 -0.5878  2.0307  0.1354
  598MOL0     H80724   6.060   5.499   2.249  0.6990  0.1942  3.3060
  598MOL0     H80725   5.958   5.365   2.190 -1.8641 -0.5117  1.4531
  598MOL0     H80726   5.867   5.418   2.597 -2.7046  1.2108 -1.0956
  598MOL0     H80727   6.382   5.138   2.103  0.2840 -2.6930  0.7461
  598MOL0     H80728   6.500   4.971   1.853  0.9233  0.9935  0.1296
  598MOL0     H80729   6.381   5.099   1.894 -0.4005  0.1315  0.6382
  598MOL0     H80730   6.518   5.147   1.806  1.4126  0.7057  0.0211
  599MOL0     O80731  10.585   8.524   7.429 -0.2560  0.3217 -0.9028
  599MOL0     C80732  10.541   8.525   7.544 -0.1683 -0.7387 -0.1529
  599MOL0     O80733  10.622   8.541   7.658 -0.0483 -0.3588  0.2680
  599MOL0     C80734  10.754   8.574   7.650 -0.1712  0.4482 -0.4221
  599MOL0     C80735  10.815   8.670   7.565  0.1479 -0.2536 -0.0198
  599MOL0     C80736  10.956   8.691   7.569  0.4819 -0.0708  0.7054
  599MOL0     C80737  11.029   8.612   7.655  0.1182  0.2282 -0.0191
  599MOL0     O80738  11.167   8.611   7.663  0.3331  0.6110  0.2664
  599MOL0     C80739  11.243   8.706   7.578  0.1291 -0.1383 -0.0442
  599MOL0     C80740  11.393   8.713   7.600 -0.0291 -0.7940 -0.0162
  599MOL0     C80741  11.453   8.853   7.567  0.3089  0.0380  0.9821
  599MOL0     C80742  11.605   8.841   7.572 -0.7577  0.2452  0.1224
  599MOL0     C80743  11.665   8.794   7.445 -0.1202  0.2639  0.8014
  599MOL0     C80744  11.820   8.775   7.439 -0.1576 -0.3621  0.3478
  599MOL0     C80745  11.859   8.656   7.531 -0.3626 -0.6056 -0.5539
  599MOL0     C80746  12.005   8.611   7.510  0.7505 -1.2275 -0.8248
  599MOL0     N80747  12.112   8.702   7.559 -0.8787  0.2887 -0.1687
  599MOL0     C80748  12.130   8.706   7.692  0.0689 -0.4392  0.3305
  599MOL0     C80749  12.235   8.797   7.708 -0.5218  0.7086  0.8665
  599MOL0     C80750  12.290   8.844   7.840  0.2360  1.0605 -0.0794
  599MOL0     C80751  12.437   8.857   7.829 -0.3151 -0.1317 -0.0171
  599MOL0     C80752  12.503   8.862   7.967 -1.2923 -0.5920 -0.4472
  599MOL0     C80753  12.656   8.869   7.968  0.4233 -0.0674 -0.1295
  599MOL0     O80754  12.692   8.927   8.097  0.4709 -0.6119  0.2193
  599MOL0     C80755  12.724   8.838   8.191  0.5050  0.0396 -0.0201
  599MOL0     C80756  12.631   8.790   8.289 -0.0358 -0.6761 -0.4442
  599MOL0     C80757  12.662   8.691   8.377 -0.2009 -0.3668 -0.0093
  599MOL0     C80758  12.793   8.640   8.377  0.0454  0.7710 -0.9522
  599MOL0     C80759  12.826   8.527   8.478  0.1610 -0.0879 -0.7792
  599MOL0     O80760  12.941   8.460   8.447 -0.4352  0.4258  0.0706
  599MOL0     C80761  12.986   8.365   8.534  0.8503  0.4438 -0.2950
  599MOL0     C80762  12.904   8.266   8.586  0.1895 -1.4019  0.5481
  599MOL0     C80763  12.950   8.169   8.675 -0.5221  0.7489  0.5663
  599MOL0     C80764  13.088   8.168   8.704  0.6160  0.4645 -0.0245
  599MOL0     O80765  13.142   8.082   8.796  0.1949  0.0449 -0.1167
  599MOL0     C80766  13.228   7.979   8.748 -0.3383  0.0719 -0.2388
  599MOL0     C80767  13.311   7.920   8.867  0.7969 -0.2873 -0.4275
  599MOL0     C80768  13.397   7.801   8.829 -0.2094  0.3066 -0.0272
  599MOL0     C80769  13.498   7.804   8.723 -0.4128  0.7825  0.0415
  599MOL0     C80770  13.557   7.655   8.700 -0.3892 -0.0206  0.5856
  599MOL0     C80771  13.688   7.651   8.608 -0.5259  0.0423  0.9962
  599MOL0     C80772  13.801   7.702   8.683  0.1594 -0.3778  0.3504
  599MOL0     C80773  13.884   7.597   8.759 -0.3342  1.2149 -0.5206
  599MOL0    Cl80774  14.030   7.667   8.816 -0.2255  0.2764 -0.1811
  599MOL0     C80775  13.171   8.254   8.636  0.4034  0.0642 -0.1434
  599MOL0     C80776  13.123   8.351   8.552  0.0515  1.2191 -0.3066
  599MOL0     O80777  12.762   8.510   8.581  0.2179  0.0812  0.6235
  599MOL0     C80778  12.882   8.684   8.278 -0.4167  0.6249 -0.2030
  599MOL0     C80779  12.853   8.789   8.193 -0.1667  0.1247  0.0465
  599MOL0     N80780  12.273   8.844   7.587  0.0748  0.1714  0.6126
  599MOL0     N80781  12.196   8.787   7.497 -0.0136  0.3195  0.8715
  599MOL0     C80782  10.966   8.515   7.732  0.2541  0.2184  0.0363
  599MOL0     C80783  10.834   8.497   7.729 -0.0921  0.0238  0.8185
  599MOL0     C80784  10.398   8.503   7.559  0.4849 -0.0096 -0.7812
  599MOL0     C80785  10.337   8.528   7.687 -0.0534 -0.0077  1.1998
  599MOL0     C80786  10.200   8.502   7.714 -0.3260 -0.5293  0.0147
  599MOL0     C80787  10.119   8.448   7.614  0.8363  0.2062  1.2077
  599MOL0     O80788   9.985   8.416   7.646 -0.6058  0.5481 -0.6346
  599MOL0     C80789   9.902   8.391   7.527 -0.7903  0.2842 -0.2271
  599MOL0     C80790   9.752   8.390   7.566 -0.4864 -1.1355 -0.2998
  599MOL0     C80791   9.724   8.320   7.707  0.4972 -0.4419 -0.3618
  599MOL0     C80792   9.586   8.360   7.755  0.6254  0.1297  0.3361
  599MOL0     C80793   9.477   8.336   7.653  0.1076 -1.0594 -0.0182
  599MOL0     C80794   9.380   8.317   7.581  0.2596 -0.0759 -0.5180
  599MOL0     C80795  10.175   8.431   7.484 -0.0772 -0.2689  0.3245
  599MOL0     C80796  10.314   8.456   7.456  0.0601  0.1232 -0.5160
  599MOL0     C80797  10.363   8.410   7.320  0.0994 -0.4935  0.1459
  599MOL0     H80798  10.751   8.726   7.499  0.6207  0.4636  0.1233
  599MOL0     H80799  11.001   8.761   7.498 -3.3415  1.3587 -0.5422
  599MOL0     H80800  11.222   8.688   7.472  0.8305  1.1867 -0.4307
  599MOL0     H80801  11.193   8.802   7.597 -2.4900 -1.4433  0.0963
  599MOL0     H80802  11.437   8.637   7.534 -1.6334 -4.3487  2.6541
  599MOL0     H80803  11.418   8.693   7.705  2.3109  0.9234 -0.1819
  599MOL0     H80804  11.414   8.930   7.635 -3.1029  0.1326 -0.8399
  599MOL0     H80805  11.422   8.875   7.464 -1.0427  0.4186  1.4400
  599MOL0     H80806  11.644   8.938   7.606 -0.2672  0.0163  0.2209
  599MOL0     H80807  11.640   8.778   7.654  1.6143  0.4465 -0.6572
  599MOL0     H80808  11.626   8.695   7.419 -0.1649  0.4342  0.2001
  599MOL0     H80809  11.640   8.857   7.359  1.7905  0.9962  0.7246
  599MOL0     H80810  11.854   8.756   7.337 -1.5500  0.3478 -0.2783
  599MOL0     H80811  11.874   8.863   7.477  1.0462 -1.2585  0.7830
  599MOL0     H80812  11.790   8.576   7.506  0.5972 -1.6427  0.0376
  599MOL0     H80813  11.858   8.673   7.639 -1.8405  1.3781 -0.8333
  599MOL0     H80814  12.018   8.524   7.575  3.9930  1.9883  3.4975
  599MOL0     H80815  12.018   8.591   7.404  0.6605  1.4383 -1.3947
  599MOL0     H80816  12.067   8.657   7.766 -0.6115  0.0764  0.1012
  599MOL0     H80817  12.229   8.927   7.876 -0.6532  0.4596 -0.1671
  599MOL0     H80818  12.279   8.753   7.900 -1.6793  1.9384  0.9760
  599MOL0     H80819  12.464   8.769   7.771 -2.7786 -0.4193 -0.8320
  599MOL0     H80820  12.463   8.948   7.774  1.1428 -1.0707 -0.9271
  599MOL0     H80821  12.468   8.780   8.030 -0.3453  1.0340  2.3775
  599MOL0     H80822  12.467   8.953   8.017 -1.4407 -0.8849 -0.0088
  599MOL0     H80823  12.686   8.944   7.894  0.8831  1.8487  1.8808
  599MOL0     H80824  12.703   8.774   7.942 -1.4585 -1.3043  0.8123
  599MOL0     H80825  12.528   8.821   8.277  0.3607  1.6008  1.3723
  599MOL0     H80826  12.582   8.652   8.439 -2.5451  1.6511 -1.5977
  599MOL0     H80827  12.799   8.268   8.558 -0.1359  1.6097  1.5566
  599MOL0     H80828  12.872   8.111   8.724 -0.2809  1.2357  1.5675
  599MOL0     H80829  13.163   7.905   8.702 -3.0853  2.7900 -1.1000
  599MOL0     H80830  13.295   8.025   8.673 -0.7958  2.1323  0.5374
  599MOL0     H80831  13.379   7.994   8.911 -0.4383  0.8893 -0.4448
  599MOL0     H80832  13.240   7.893   8.946  0.3555  0.2684 -0.6254
  599MOL0     H80833  13.470   7.788   8.909  3.0427 -4.0737 -3.2403
  599MOL0     H80834  13.327   7.717   8.832 -4.1431  3.2336  3.3207
  599MOL0     H80835  13.579   7.874   8.747  1.1920 -0.3453 -1.7135
  599MOL0     H80836  13.446   7.834   8.631  0.7529 -0.9150 -1.2369
  599MOL0     H80837  13.481   7.585   8.664  2.3822 -3.3992  0.6949
  599MOL0     H80838  13.584   7.615   8.798 -1.0265 -2.0004  0.0135
  599MOL0     H80839  13.704   7.552   8.565 -0.8144  0.2293  0.4492
  599MOL0     H80840  13.669   7.713   8.519 -0.8171 -0.5980  0.6071
  599MOL0     H80841  13.772   7.774   8.760  2.0607  0.2558  0.5319
  599MOL0     H80842  13.861   7.739   8.599 -1.9197 -0.8081 -1.4079
  599MOL0     H80843  13.833   7.558   8.848  0.3078  0.7402 -0.3455
  599MOL0     H80844  13.910   7.515   8.692  1.1280  0.7467  0.5573
  599MOL0     H80845  13.279   8.248   8.644  0.3992  0.1584  0.0058
  599MOL0     H80846  13.198   8.405   8.495  0.0477  0.1288 -1.3834
  599MOL0     H80847  12.970   8.621   8.276 -1.0328 -0.2904  0.3301
  599MOL0     H80848  12.924   8.806   8.113 -0.2371 -1.5194 -0.4163
  599MOL0     H80849  11.017   8.448   7.801 -0.2670 -1.3082 -0.9962
  599MOL0     H80850  10.780   8.429   7.794  0.9130  0.5560  2.2526
  599MOL0     H80851  10.403   8.568   7.763 -0.5155  1.6891  0.7531
  599MOL0     H80852  10.153   8.519   7.810  1.0935 -1.2653  0.8696
  599MOL0     H80853   9.926   8.298   7.477 -0.4260  1.1017 -1.6180
  599MOL0     H80854   9.908   8.460   7.442 -0.9878  0.7533  0.1330
  599MOL0     H80855   9.689   8.342   7.490 -0.5363 -1.6854  0.0879
  599MOL0     H80856   9.726   8.496   7.568 -1.0869 -1.2924  1.0961
  599MOL0     H80857   9.799   8.342   7.784 -0.4288  1.1624  0.1215
  599MOL0     H80858   9.721   8.212   7.692 -2.8075 -0.7242  1.4153
  599MOL0     H80859   9.559   8.311   7.849 -0.6080 -0.2711 -0.2160
  599MOL0     H80860   9.588   8.467   7.780  1.9824  0.0098  0.8128
  599MOL0     H80861   9.296   8.280   7.525 -0.4902 -2.4561  1.8794
  599MOL0     H80862  10.122   8.404   7.393 -0.9915  3.9450 -0.5952
  599MOL0     H80863  10.427   8.321   7.321 -0.0571 -0.6835  2.9435
  599MOL0     H80864  10.280   8.389   7.254  1.6059  1.2795 -2.4889
  599MOL0     H80865  10.409   8.498   7.275 -1.2602  0.8831  1.3375
  600MOL0     O80866   9.734  11.212   1.221 -0.0550 -0.4721 -0.0856
  600MOL0     C80867   9.676  11.223   1.325 -0.3698  0.2790 -0.0051
  600MOL0     O80868   9.726  11.199   1.449 -0.9012  0.4847  0.2998
  600MOL0     C80869   9.860  11.165   1.457  0.9683 -0.1773 -0.1696
  600MOL0     C80870   9.899  11.039   1.498  0.1036 -0.2358 -0.3290
  600MOL0     C80871  10.032  11.005   1.478  0.4393 -0.0232 -0.9546
  600MOL0     C80872  10.134  11.096   1.449 -0.0796  0.8100  0.0743
  600MOL0     O80873  10.261  11.037   1.452 -0.0776 -0.5209 -0.0935
  600MOL0     C80874  10.349  11.072   1.355  0.1092  0.8447  0.3332
  600MOL0     C80875  10.484  11.037   1.411  0.8068  0.0112 -0.1001
  600MOL0     C80876  10.495  10.888   1.396  0.2633  0.5700  0.1472
  600MOL0     C80877  10.631  10.842   1.455  0.0342  0.5270  0.7068
  600MOL0     C80878  10.630  10.690   1.498  0.3760  0.1149  0.4326
  600MOL0     C80879  10.770  10.640   1.534 -0.1881 -1.0723 -0.6098
  600MOL0     C80880  10.838  10.695   1.661  0.4052 -0.9009 -0.2004
  600MOL0     C80881  10.978  10.631   1.695 -0.4484 -0.0422 -0.3885
  600MOL0     N80882  10.968  10.511   1.787  0.5034  0.5273 -0.2951
  600MOL0     C80883  11.044  10.490   1.900  0.0112 -0.6337  0.1529
  600MOL0     C80884  11.035  10.358   1.921 -0.1815 -0.4512  0.1489
  600MOL0     C80885  11.110  10.293   2.037 -0.6520  0.6397  0.1470
  600MOL0     C80886  11.260  10.288   2.015 -0.7525 -0.2779  0.1189
  600MOL0     C80887  11.335  10.197   2.118 -0.1192  0.6408  0.5543
  600MOL0     C80888  11.323  10.222   2.264 -0.4448  0.8538 -0.9819
  600MOL0     O80889  11.350  10.359   2.286 -0.6921 -0.0270 -0.0690
  600MOL0     C80890  11.355  10.409   2.418 -0.8835 -0.6690 -0.2042
  600MOL0     C80891  11.339  10.544   2.434 -0.0753 -0.8547 -0.2611
  600MOL0     C80892  11.350  10.615   2.551 -0.5995 -1.0663  0.2013
  600MOL0     C80893  11.374  10.541   2.668  0.7192  0.1476  0.0583
  600MOL0     C80894  11.378  10.604   2.796 -0.0147  0.2125 -0.9343
  600MOL0     O80895  11.373  10.740   2.800  0.3386  0.2447  0.4585
  600MOL0     C80896  11.416  10.798   2.914  0.7392 -0.0369 -0.2957
  600MOL0     C80897  11.543  10.840   2.945 -0.2673  0.3662 -0.8803
  600MOL0     C80898  11.573  10.885   3.079  0.1243 -0.1169 -0.0793
  600MOL0     C80899  11.476  10.890   3.177 -0.0096  0.7658 -0.0715
  600MOL0     O80900  11.505  10.955   3.302 -0.5093  0.5432 -0.5005
  600MOL0     C80901  11.412  10.930   3.414 -0.1116 -1.0460  0.4989
  600MOL0     C80902  11.466  10.972   3.540  0.2287 -0.0743  0.2896
  600MOL0     C80903  11.390  10.904   3.665 -0.5570 -0.7387  0.3914
  600MOL0     C80904  11.233  10.924   3.661 -0.8724  0.1738  0.5213
  600MOL0     C80905  11.183  11.050   3.739 -0.7730 -0.2964  0.4163
  600MOL0     C80906  11.032  11.035   3.733  0.1629  0.8299  0.4960
  600MOL0     C80907  10.963  11.169   3.756  0.2446 -0.8198  0.9315
  600MOL0     C80908  10.814  11.157   3.768  0.7120 -1.1373  0.1943
  600MOL0    Cl80909  10.739  11.094   3.616  0.3184 -0.4284 -0.0745
  600MOL0     C80910  11.344  10.843   3.144 -0.4731 -0.1312  0.0979
  600MOL0     C80911  11.319  10.799   3.015  0.1239  0.2645  0.0858
  600MOL0     O80912  11.400  10.530   2.894 -0.2764 -0.3049 -0.5151
  600MOL0     C80913  11.374  10.402   2.660 -0.1906 -0.1134  0.6272
  600MOL0     C80914  11.366  10.330   2.537  0.2695  0.0827 -0.5405
  600MOL0     N80915  10.946  10.304   1.828 -0.2760 -0.6739 -0.1691
  600MOL0     N80916  10.916  10.395   1.742 -0.2983  0.6271  0.7497
  600MOL0     C80917  10.098  11.225   1.427  0.6230  0.5383 -0.2428
  600MOL0     C80918   9.965  11.261   1.432  0.3969 -0.0396 -0.0595
  600MOL0     C80919   9.539  11.273   1.321  0.1440  0.5296 -0.3589
  600MOL0     C80920   9.480  11.320   1.447  0.2095  0.4743  0.1167
  600MOL0     C80921   9.353  11.374   1.450 -0.1883  0.7582  0.8799
  600MOL0     C80922   9.279  11.376   1.337  0.7265  0.6736  0.7597
  600MOL0     O80923   9.150  11.406   1.361 -0.0133  0.1805 -0.0230
  600MOL0     C80924   9.051  11.378   1.263  0.7517  0.3005  0.3724
  600MOL0     C80925   8.922  11.428   1.319 -0.1328  1.3447 -0.1223
  600MOL0     C80926   8.927  11.571   1.373 -0.4463 -0.5059 -0.3711
  600MOL0     C80927   8.790  11.615   1.419  0.0004  0.6338 -0.2007
  600MOL0     C80928   8.698  11.641   1.307 -0.8325  0.0547 -0.2114
  600MOL0     C80929   8.625  11.668   1.215 -0.1487  0.0105  0.2742
  600MOL0     C80930   9.332  11.333   1.210 -0.4016 -0.1223  0.0982
  600MOL0     C80931   9.463  11.275   1.196 -0.1201  0.4761  0.0043
  600MOL0     C80932   9.504  11.234   1.062  0.7533 -1.1568 -0.0615
  600MOL0     H80933   9.820  10.971   1.529 -1.3131  0.7354 -1.6757
  600MOL0     H80934  10.061  10.900   1.476  0.7138 -0.0379  1.2092
  600MOL0     H80935  10.322  11.017   1.265  2.5940 -1.5236  0.8754
  600MOL0     H80936  10.345  11.181   1.342 -0.5701  0.8773  0.7785
  600MOL0     H80937  10.485  11.072   1.515 -3.3591 -4.0595  1.6653
  600MOL0     H80938  10.565  11.080   1.351  1.5157  0.5956  1.2391
  600MOL0     H80939  10.484  10.865   1.290  1.0765  0.5652  0.0581
  600MOL0     H80940  10.412  10.844   1.451 -0.7107 -0.4722 -2.0699
  600MOL0     H80941  10.710  10.851   1.379  0.1896  3.4119  1.1151
  600MOL0     H80942  10.668  10.903   1.538  0.4950 -0.9921  1.6576
  600MOL0     H80943  10.553  10.675   1.574 -2.2516 -2.0834 -2.3879
  600MOL0     H80944  10.583  10.635   1.416  0.2956  1.8027 -0.6920
  600MOL0     H80945  10.760  10.532   1.548 -2.9464 -0.5204  4.0657
  600MOL0     H80946  10.834  10.659   1.448  1.8081  1.0961  1.2204
  600MOL0     H80947  10.770  10.686   1.746 -1.2517 -3.6750 -1.6600
  600MOL0     H80948  10.843  10.804   1.658 -2.2880 -0.7333 -0.6571
  600MOL0     H80949  11.028  10.603   1.602  0.7972 -0.7916  0.4680
  600MOL0     H80950  11.036  10.712   1.741 -0.6075  0.8004 -1.6433
  600MOL0     H80951  11.099  10.561   1.962 -2.9671  2.3453 -0.3053
  600MOL0     H80952  11.089  10.367   2.115 -0.6121 -0.4236  1.1885
  600MOL0     H80953  11.067  10.195   2.058 -0.0664  0.2739 -0.3591
  600MOL0     H80954  11.276  10.264   1.909  0.3266  1.4823 -0.1583
  600MOL0     H80955  11.297  10.390   2.028 -0.8671 -0.5442  2.9768
  600MOL0     H80956  11.436  10.203   2.077 -1.5865  1.3766 -3.4002
  600MOL0     H80957  11.305  10.095   2.090  1.6529  0.7903 -2.3004
  600MOL0     H80958  11.405  10.169   2.312 -2.0350 -0.3436  0.5502
  600MOL0     H80959  11.231  10.178   2.305 -0.1895  0.8223 -0.4363
  600MOL0     H80960  11.327  10.600   2.343 -0.9594 -0.8879 -0.1743
  600MOL0     H80961  11.353  10.723   2.554 -0.0829 -1.0899  1.7531
  600MOL0     H80962  11.618  10.840   2.866 -0.1370  3.0266 -0.8543
  600MOL0     H80963  11.668  10.932   3.104  1.2611 -2.3794  0.1579
  600MOL0     H80964  11.322  10.991   3.398  0.7723  0.1188 -0.1737
  600MOL0     H80965  11.390  10.823   3.410  0.4314 -1.1458  0.0760
  600MOL0     H80966  11.569  10.936   3.549 -0.3769 -2.1754 -0.5134
  600MOL0     H80967  11.475  11.080   3.548  0.9877  0.1977 -2.9356
  600MOL0     H80968  11.404  10.795   3.655 -2.5577 -1.0743  0.8817
  600MOL0     H80969  11.428  10.938   3.761  1.8062  1.0063 -1.0601
  600MOL0     H80970  11.186  10.840   3.714 -0.4739 -0.8173 -0.6431
  600MOL0     H80971  11.208  10.923   3.555  4.0342 -0.6732 -0.9070
  600MOL0     H80972  11.224  11.135   3.683 -0.9675 -1.1333 -1.0473
  600MOL0     H80973  11.222  11.052   3.841  0.4558  1.8170 -0.0220
  600MOL0     H80974  10.996  11.007   3.634 -1.6285 -1.6916  1.7599
  600MOL0     H80975  11.000  10.963   3.809 -3.6823  0.2316 -1.4561
  600MOL0     H80976  10.991  11.230   3.669  0.6550 -0.3417  1.3917
  600MOL0     H80977  11.005  11.220   3.843 -1.9671  2.0705  0.4986
  600MOL0     H80978  10.793  11.096   3.857  1.5434 -0.5426  0.8267
  600MOL0     H80979  10.771  11.256   3.785  1.3890 -1.0979  1.9815
  600MOL0     H80980  11.265  10.840   3.219 -0.7318  2.9220  0.0667
  600MOL0     H80981  11.221  10.759   2.993 -0.2766  1.7781 -1.0743
  600MOL0     H80982  11.389  10.337   2.746  1.6432  0.1590  0.5617
  600MOL0     H80983  11.373  10.223   2.548  1.8956  0.1467 -0.7379
  600MOL0     H80984  10.172  11.293   1.386 -0.7992  1.0698 -2.0756
  600MOL0     H80985   9.938  11.362   1.405  0.7723  0.7825  2.3959
  600MOL0     H80986   9.529  11.305   1.543 -0.3696 -2.0386  0.0838
  600MOL0     H80987   9.297  11.404   1.538 -1.6596  1.1597 -0.1637
  600MOL0     H80988   9.042  11.270   1.245 -2.3598  0.7014 -1.1428
  600MOL0     H80989   9.070  11.441   1.176  0.1947  2.8462  1.9955
  600MOL0     H80990   8.886  11.356   1.392  3.5093 -1.8597 -1.1849
  600MOL0     H80991   8.849  11.423   1.237  0.7008  3.7901 -1.0939
  600MOL0     H80992   8.958  11.644   1.298 -4.2203 -0.3730 -2.0647
  600MOL0     H80993   8.996  11.578   1.457  1.4282 -0.6874 -1.8442
  600MOL0     H80994   8.746  11.542   1.487 -2.2321  1.6726 -0.4331
  600MOL0     H80995   8.804  11.709   1.474  2.7357 -0.1643  0.6301
  600MOL0     H80996   8.571  11.698   1.127 -0.3008  0.9914  0.6992
  600MOL0     H80997   9.268  11.348   1.124 -1.0625 -0.3822  0.5398
  600MOL0     H80998   9.601  11.276   1.031  0.5647 -1.7320 -1.5333
  600MOL0     H80999   9.519  11.126   1.055 -3.7729 -1.9380 -0.2179
  600MOL0     H81000   9.433  11.272   0.988  0.6410 -2.9595 -0.9549
  601MOL0     O81001   7.522   6.713   2.654  0.5314 -0.1761  0.5644
  601MOL0     C81002   7.531   6.833   2.627 -0.0023 -0.4771 -0.9782
  601MOL0     O81003   7.611   6.895   2.535 -0.7270  0.1482  0.0016
  601MOL0     C81004   7.710   6.815   2.480  0.0513 -0.4570  0.2195
  601MOL0     C81005   7.792   6.725   2.542 -0.0174  0.4260  0.3629
  601MOL0     C81006   7.874   6.646   2.462 -0.4717 -0.2287 -0.9529
  601MOL0     C81007   7.889   6.665   2.322 -0.4389 -0.2765  0.4295
  601MOL0     O81008   7.973   6.598   2.237  0.0187 -0.2549 -0.1046
  601MOL0     C81009   8.069   6.514   2.299 -0.2397  0.1187 -0.0893
  601MOL0     C81010   8.176   6.452   2.204 -0.2053 -0.6951 -0.4674
  601MOL0     C81011   8.250   6.558   2.119  0.0054  0.2436 -0.1721
  601MOL0     C81012   8.364   6.482   2.053  0.0145 -0.3028 -0.3327
  601MOL0     C81013   8.450   6.570   1.963 -0.3428  0.2256 -0.2669
  601MOL0     C81014   8.535   6.669   2.048  0.2326  0.1054  0.6359
  601MOL0     C81015   8.643   6.728   1.956 -0.5852 -0.3092 -0.4548
  601MOL0     C81016   8.725   6.831   2.037 -0.6080  0.8461  0.1709
  601MOL0     N81017   8.847   6.871   1.958 -0.2495  0.0495  0.0240
  601MOL0     C81018   8.964   6.933   2.006 -0.4270  0.8488  0.3889
  601MOL0     C81019   9.031   6.958   1.897 -0.3860 -0.7194  0.3808
  601MOL0     C81020   9.161   7.036   1.884  0.0776  0.6210  0.9786
  601MOL0     C81021   9.264   6.928   1.845 -0.0502 -0.0728 -0.2207
  601MOL0     C81022   9.397   6.994   1.873 -0.3089  1.0256  0.1329
  601MOL0     C81023   9.516   6.906   1.839 -0.2347 -0.0950 -0.3435
  601MOL0     O81024   9.635   6.988   1.842  0.4858  0.5337 -0.1279
  601MOL0     C81025   9.746   6.931   1.797 -0.2537  0.1760  0.1086
  601MOL0     C81026   9.846   7.024   1.752  0.3475 -0.1132  0.6260
  601MOL0     C81027   9.972   6.980   1.704 -0.2347 -0.4563 -0.6256
  601MOL0     C81028   9.993   6.840   1.694  0.2462  0.3281 -0.3277
  601MOL0     C81029  10.122   6.773   1.647  0.1449 -0.0301 -0.3352
  601MOL0     O81030  10.121   6.636   1.621  0.4302 -0.0382  0.5045
  601MOL0     C81031  10.227   6.553   1.593  0.9489  0.1706 -0.0791
  601MOL0     C81032  10.363   6.582   1.622 -0.1183 -0.4240 -0.3663
  601MOL0     C81033  10.469   6.492   1.596 -0.5007  0.1187  0.7334
  601MOL0     C81034  10.441   6.373   1.538  0.1879 -0.2986  0.0748
  601MOL0     O81035  10.544   6.288   1.507  0.2446  0.3972  0.5439
  601MOL0     C81036  10.558   6.251   1.374  0.9466 -0.3130  0.2072
  601MOL0     C81037  10.627   6.112   1.363  0.5810 -0.0101 -0.4659
  601MOL0     C81038  10.756   6.109   1.436 -0.2355 -0.4725 -0.0894
  601MOL0     C81039  10.876   6.202   1.392  0.4437 -0.1569  0.3388
  601MOL0     C81040  11.016   6.202   1.456  0.1959  0.1529  0.3846
  601MOL0     C81041  11.055   6.058   1.495  0.5132 -0.7752  0.6931
  601MOL0     C81042  11.073   5.986   1.361  0.7321  1.2154  0.3012
  601MOL0     C81043  11.094   5.836   1.388  0.7034 -0.6431  0.4350
  601MOL0    Cl81044  10.935   5.754   1.423 -0.3303 -0.0013  0.3744
  601MOL0     C81045  10.306   6.337   1.508  0.2016  0.3542 -0.5084
  601MOL0     C81046  10.201   6.431   1.530  0.1925 -0.1424 -0.0079
  601MOL0     O81047  10.217   6.853   1.632  0.2307  0.3807 -0.0009
  601MOL0     C81048   9.896   6.750   1.746  0.4164  0.0603 -0.6122
  601MOL0     C81049   9.772   6.794   1.801 -0.4936 -0.2699 -0.1596
  601MOL0     N81050   8.970   6.913   1.785 -0.3995 -0.8984  0.2731
  601MOL0     N81051   8.858   6.864   1.823 -0.4534 -0.1539  0.3414
  601MOL0     C81052   7.817   6.768   2.260  0.7775  0.0791 -0.1790
  601MOL0     C81053   7.734   6.842   2.341 -0.1800  0.2760 -0.2607
  601MOL0     C81054   7.436   6.927   2.704  0.8562  0.0507  0.9044
  601MOL0     C81055   7.455   7.064   2.686 -1.6427 -0.4457  0.5580
  601MOL0     C81056   7.377   7.154   2.759 -0.3177 -0.1887  0.1131
  601MOL0     C81057   7.266   7.115   2.832  0.5366  0.3149  0.7786
  601MOL0     O81058   7.193   7.217   2.883  0.2895 -0.3481  0.4679
  601MOL0     C81059   7.073   7.197   2.961  0.9601 -0.6472  0.2041
  601MOL0     C81060   7.003   7.325   2.981 -0.2912 -0.7147 -0.1391
  601MOL0     C81061   6.856   7.299   3.032 -0.4831  0.0996 -0.0930
  601MOL0     C81062   6.791   7.438   3.060 -0.1601  0.3171 -0.0021
  601MOL0     C81063   6.661   7.428   3.123  0.7256  0.6360  0.5103
  601MOL0     C81064   6.549   7.410   3.162  0.2866  0.8896  0.2803
  601MOL0     C81065   7.235   6.977   2.846 -0.4407 -0.1400 -0.2733
  601MOL0     C81066   7.318   6.888   2.777 -0.8695  0.3401 -0.0592
  601MOL0     C81067   7.300   6.754   2.812 -0.2612 -0.3361 -0.5420
  601MOL0     H81068   7.794   6.692   2.646  1.0706 -3.0822 -0.6086
  601MOL0     H81069   7.928   6.567   2.512  2.1375  1.8048 -0.3253
  601MOL0     H81070   8.121   6.575   2.373 -3.0301  0.4719  1.7154
  601MOL0     H81071   8.026   6.426   2.348  1.2461 -1.4530 -1.4645
  601MOL0     H81072   8.127   6.390   2.129 -0.5342  0.2487 -1.0559
  601MOL0     H81073   8.249   6.399   2.266  1.8909  4.3101  1.9908
  601MOL0     H81074   8.293   6.628   2.191  1.6603 -0.5432 -0.3570
  601MOL0     H81075   8.190   6.605   2.041  0.2632 -0.9046 -1.0855
  601MOL0     H81076   8.426   6.436   2.130 -0.1686  0.5341  0.3300
  601MOL0     H81077   8.319   6.410   1.984 -1.7406 -0.4807  0.9019
  601MOL0     H81078   8.522   6.503   1.914 -1.1785 -0.8305 -0.0899
  601MOL0     H81079   8.392   6.620   1.885  1.9165 -1.9331 -3.5901
  601MOL0     H81080   8.458   6.737   2.087 -0.1306  0.1843 -0.1775
  601MOL0     H81081   8.575   6.611   2.131  3.0638 -0.5315 -1.0409
  601MOL0     H81082   8.609   6.794   1.875  1.8821  3.0451  1.0062
  601MOL0     H81083   8.714   6.653   1.918  0.1866 -1.4153  2.8580
  601MOL0     H81084   8.656   6.915   2.052 -0.2610  1.0419  0.7067
  601MOL0     H81085   8.747   6.794   2.137  1.0756  1.7726  0.1801
  601MOL0     H81086   8.996   6.949   2.108  0.5558  3.0688 -0.2011
  601MOL0     H81087   9.158   7.111   1.804  1.9523  0.2191  0.4683
  601MOL0     H81088   9.176   7.084   1.981 -0.7478  0.9972  0.9218
  601MOL0     H81089   9.260   6.843   1.914 -1.3711  3.0493  3.8704
  601MOL0     H81090   9.250   6.901   1.739  0.5866  1.9338 -0.8566
  601MOL0     H81091   9.397   7.017   1.980 -3.2603  2.0293  0.0334
  601MOL0     H81092   9.415   7.082   1.811  1.6040 -0.8424 -2.1765
  601MOL0     H81093   9.498   6.866   1.738 -0.5922 -1.7417  0.3402
  601MOL0     H81094   9.515   6.821   1.907 -2.8747 -0.4013 -0.6586
  601MOL0     H81095   9.828   7.131   1.754  0.0268 -0.0451  5.0012
  601MOL0     H81096  10.050   7.052   1.679 -1.4169  1.1551  0.1733
  601MOL0     H81097  10.386   6.675   1.673 -2.1011  0.0805 -0.3030
  601MOL0     H81098  10.570   6.507   1.632  0.0269 -0.2682 -0.5452
  601MOL0     H81099  10.466   6.246   1.316  1.5461  2.1434 -1.0913
  601MOL0     H81100  10.627   6.321   1.326  2.7565 -1.5909  0.8616
  601MOL0     H81101  10.564   6.031   1.402  2.1521 -3.4578 -4.3877
  601MOL0     H81102  10.658   6.095   1.260  0.8028  0.1619 -0.4282
  601MOL0     H81103  10.734   6.136   1.540 -0.8166  2.3537 -0.8760
  601MOL0     H81104  10.787   6.004   1.436  0.2997 -0.3831  2.2450
  601MOL0     H81105  10.836   6.304   1.386  1.1746  0.1303  0.2351
  601MOL0     H81106  10.891   6.194   1.284 -0.5674  2.9989 -0.1482
  601MOL0     H81107  11.015   6.266   1.545 -0.6553  0.0130  0.4788
  601MOL0     H81108  11.098   6.230   1.389  0.3260 -1.9700 -0.4098
  601MOL0     H81109  11.147   6.066   1.554  0.9444  2.1734 -0.2208
  601MOL0     H81110  10.976   6.011   1.555 -0.5137  1.8646  1.5817
  601MOL0     H81111  11.155   6.030   1.303 -0.1745  0.1042 -1.9256
  601MOL0     H81112  10.985   5.981   1.296 -0.6343  0.0037  2.1591
  601MOL0     H81113  11.138   5.783   1.303  0.9480  0.2126  0.0187
  601MOL0     H81114  11.160   5.816   1.473 -0.1920  0.3544  1.3919
  601MOL0     H81115  10.290   6.236   1.473  0.9366  0.5379 -1.4316
  601MOL0     H81116  10.098   6.407   1.505  0.6300 -1.3112 -0.7896
  601MOL0     H81117   9.923   6.645   1.748 -0.2423 -0.1111  0.6471
  601MOL0     H81118   9.720   6.720   1.860  4.1296 -1.7823  2.5591
  601MOL0     H81119   7.830   6.796   2.156  1.4489 -0.5269 -0.2628
  601MOL0     H81120   7.679   6.923   2.295  1.6397  0.3581 -2.4530
  601MOL0     H81121   7.525   7.099   2.611 -1.2997  1.3242  1.6444
  601MOL0     H81122   7.404   7.259   2.769  2.4020 -0.6604 -1.2838
  601MOL0     H81123   7.097   7.151   3.057 -0.4712 -0.4131  0.7003
  601MOL0     H81124   7.003   7.129   2.912 -1.9106  2.2918 -0.0905
  601MOL0     H81125   6.996   7.383   2.889 -1.2912  0.6491  0.7568
  601MOL0     H81126   7.057   7.397   3.042 -3.0946  1.2651  0.1858
  601MOL0     H81127   6.846   7.245   3.126 -0.2844 -1.8507 -1.1464
  601MOL0     H81128   6.800   7.253   2.950  2.6202 -0.2978 -2.1485
  601MOL0     H81129   6.863   7.491   3.123 -2.4340  2.2435  1.0986
  601MOL0     H81130   6.787   7.494   2.966  2.6057 -0.8227 -0.9170
  601MOL0     H81131   6.448   7.382   3.184  0.3176 -0.2237 -0.8982
  601MOL0     H81132   7.157   6.937   2.910 -0.7365  2.9697  1.5153
  601MOL0     H81133   7.391   6.710   2.854  0.7283 -1.0039 -3.1909
  601MOL0     H81134   7.217   6.736   2.881 -0.8685  1.2127 -0.8354
  601MOL0     H81135   7.272   6.696   2.723  0.5363 -0.8862 -0.4457
  602MOL0     O81136   9.463  10.489   6.878  0.3729 -0.1125 -0.1611
  602MOL0     C81137   9.362  10.559   6.895 -0.5322  0.2191 -0.1948
  602MOL0     O81138   9.363  10.674   6.967  0.1706 -0.6412 -0.2850
  602MOL0     C81139   9.495  10.719   6.995  0.4121  0.3726  0.3775
  602MOL0     C81140   9.567  10.772   6.892  0.1212 -0.5435 -0.0477
  602MOL0     C81141   9.696  10.815   6.922 -0.2362  0.8176  0.2884
  602MOL0     C81142   9.760  10.786   7.042 -0.8177  1.1562 -0.2583
  602MOL0     O81143   9.893  10.808   7.073  0.4862  0.3047  0.1403
  602MOL0     C81144   9.967  10.913   7.006  0.0181  0.3794  0.3700
  602MOL0     C81145  10.041  10.866   6.885  0.4447  0.3855  0.4403
  602MOL0     C81146  10.100  10.991   6.824 -0.7030  0.1245 -0.5483
  602MOL0     C81147  10.192  10.964   6.707 -0.1029  0.1117 -0.0737
  602MOL0     C81148  10.331  10.895   6.730  0.0731  0.1511 -0.3542
  602MOL0     C81149  10.432  10.971   6.823 -0.4500  0.8365  0.2168
  602MOL0     C81150  10.562  10.893   6.850  0.0417  0.0731  1.5096
  602MOL0     C81151  10.640  10.952   6.971 -0.6700  0.5225 -0.6049
  602MOL0     N81152  10.783  10.912   6.954 -0.4404  0.6397  0.5769
  602MOL0     C81153  10.891  10.985   6.912  0.1462 -0.2516 -0.2937
  602MOL0     C81154  11.003  10.923   6.947  0.3290 -0.7904  0.1036
  602MOL0     C81155  11.142  10.987   6.919  0.4106 -0.4466  0.2844
  602MOL0     C81156  11.238  10.972   7.042 -0.0367 -0.8583  0.0265
  602MOL0     C81157  11.377  11.029   6.997  0.2599  0.2787 -0.3653
  602MOL0     C81158  11.472  11.026   7.110 -0.2728 -0.3852 -0.5428
  602MOL0     O81159  11.599  11.073   7.061  0.7031  0.0931  0.7066
  602MOL0     C81160  11.708  11.082   7.130 -0.1198  0.3086 -0.8300
  602MOL0     C81161  11.807  11.147   7.066 -0.3552 -0.2020  0.1813
  602MOL0     C81162  11.934  11.158   7.129 -0.2619  0.4119  1.2674
  602MOL0     C81163  11.962  11.088   7.246 -0.3785 -0.3325  0.0973
  602MOL0     C81164  12.093  11.088   7.300 -1.1252  0.1746 -0.6438
  602MOL0     O81165  12.191  11.128   7.220  0.3664  0.2003 -0.9276
  602MOL0     C81166  12.318  11.145   7.275 -0.3617 -0.1148  0.4649
  602MOL0     C81167  12.412  11.040   7.297 -0.8402  0.1935 -0.5139
  602MOL0     C81168  12.541  11.069   7.358 -0.6840  0.0015  0.6286
  602MOL0     C81169  12.582  11.199   7.385  0.0742 -0.3569  0.2016
  602MOL0     O81170  12.703  11.216   7.444 -0.0972  0.1106  0.1695
  602MOL0     C81171  12.818  11.182   7.368 -0.4919 -0.1576  0.2763
  602MOL0     C81172  12.934  11.277   7.392  0.2345  0.2126 -1.1801
  602MOL0     C81173  13.048  11.251   7.300 -1.1660 -0.0957  0.5941
  602MOL0     C81174  13.177  11.318   7.349  0.3051  0.5598  0.3947
  602MOL0     C81175  13.286  11.311   7.247 -0.3988 -0.5424 -0.6480
  602MOL0     C81176  13.419  11.381   7.287  0.1983 -0.0308 -0.9136
  602MOL0     C81177  13.515  11.384   7.164 -0.0576  0.5577  0.1627
  602MOL0     C81178  13.657  11.350   7.198  0.5382  0.3705 -0.0793
  602MOL0    Cl81179  13.751  11.493   7.199  0.6110 -0.5745 -0.3701
  602MOL0     C81180  12.481  11.296   7.367 -1.0352  0.5524 -0.5264
  602MOL0     C81181  12.363  11.273   7.304  0.8977  0.5430  0.3875
  602MOL0     O81182  12.108  11.048   7.413 -0.6331  0.1592  0.3118
  602MOL0     C81183  11.860  11.031   7.313 -0.1215  0.9566 -0.1147
  602MOL0     C81184  11.733  11.029   7.262  0.3092 -0.2850  0.2590
  602MOL0     N81185  10.967  10.812   7.019  0.2812  0.0569  0.0801
  602MOL0     N81186  10.843  10.802   7.015 -0.2759 -0.2753  0.8295
  602MOL0     C81187   9.683  10.730   7.147  0.3689 -0.6718 -0.3887
  602MOL0     C81188   9.550  10.696   7.119  0.6690 -0.6153  0.5240
  602MOL0     C81189   9.230  10.501   6.869  0.1069 -0.5479  0.9217
  602MOL0     C81190   9.121  10.554   6.941  0.3671  0.3351  0.4756
  602MOL0     C81191   8.987  10.498   6.925  0.3191 -0.4817  0.4171
  602MOL0     C81192   8.971  10.383   6.855  0.5715 -0.0501  0.6945
  602MOL0     O81193   8.847  10.314   6.846  0.0468 -0.2572 -0.2306
  602MOL0     C81194   8.758  10.325   6.954 -0.5476 -0.8574 -0.5534
  602MOL0     C81195   8.613  10.277   6.926 -0.0499 -0.3420 -0.6003
  602MOL0     C81196   8.516  10.274   7.048  0.5964  0.5611  0.5660
  602MOL0     C81197   8.435  10.405   7.043  0.6440 -0.0100  0.4913
  602MOL0     C81198   8.392  10.422   7.179 -0.2059 -0.2122 -0.7473
  602MOL0     C81199   8.375  10.456   7.293 -0.3539  0.3649  0.5641
  602MOL0     C81200   9.077  10.335   6.780 -0.6239  0.0435 -0.2702
  602MOL0     C81201   9.205  10.394   6.772 -1.0497 -0.1833 -0.4523
  602MOL0     C81202   9.311  10.357   6.671 -0.7460  0.9584  1.3950
  602MOL0     H81203   9.526  10.799   6.795 -0.2557  1.8127  0.7031
  602MOL0     H81204   9.752  10.860   6.840  2.0455 -1.3257  0.5509
  602MOL0     H81205   9.898  10.993   6.976 -1.2174 -0.3262  1.2289
  602MOL0     H81206  10.038  10.945   7.083  1.0745 -0.9207 -0.0283
  602MOL0     H81207   9.971  10.820   6.814 -0.1584 -0.8566  1.7655
  602MOL0     H81208  10.124  10.797   6.901  0.2991 -0.5695 -2.4383
  602MOL0     H81209  10.153  11.038   6.907 -1.6270  2.7327 -1.3360
  602MOL0     H81210  10.020  11.058   6.791  0.7838  1.5011 -1.4807
  602MOL0     H81211  10.138  10.904   6.634 -1.7592 -2.1162  2.7367
  602MOL0     H81212  10.221  11.055   6.654  2.2117  0.5657  1.8308
  602MOL0     H81213  10.310  10.799   6.778 -0.9844  0.8812  0.7087
  602MOL0     H81214  10.380  10.881   6.634 -0.9220  1.7618 -1.1445
  602MOL0     H81215  10.459  11.067   6.778  0.4154  0.2952 -0.4434
  602MOL0     H81216  10.396  10.994   6.924  1.0299  0.8101  0.7785
  602MOL0     H81217  10.623  10.887   6.759 -2.6677 -1.3996 -0.3395
  602MOL0     H81218  10.530  10.791   6.873  0.3815 -0.0475  1.4643
  602MOL0     H81219  10.628  11.060   6.971 -2.4134  0.3610 -1.5708
  602MOL0     H81220  10.602  10.909   7.064 -1.1854  0.6092 -0.7715
  602MOL0     H81221  10.883  11.081   6.861  0.4041  0.0575  0.2427
  602MOL0     H81222  11.192  10.935   6.837  0.4740 -1.0905  0.7263
  602MOL0     H81223  11.132  11.091   6.885 -0.4567 -0.5732  0.1429
  602MOL0     H81224  11.204  11.028   7.129 -0.2917 -1.2813  0.2020
  602MOL0     H81225  11.257  10.867   7.067  1.7988 -0.4982  0.2909
  602MOL0     H81226  11.365  11.126   6.948 -2.4279 -0.0840 -0.5367
  602MOL0     H81227  11.424  10.950   6.937 -0.0489 -1.7958  1.9512
  602MOL0     H81228  11.477  10.927   7.156 -0.4880 -0.3873 -0.5253
  602MOL0     H81229  11.459  11.102   7.188  2.6564  0.4285 -0.7047
  602MOL0     H81230  11.773  11.196   6.976 -0.8474  0.5867  0.7770
  602MOL0     H81231  12.012  11.208   7.072  0.2277 -1.3746  0.2914
  602MOL0     H81232  12.385  10.942   7.259 -1.3998 -1.1627  3.0490
  602MOL0     H81233  12.611  10.993   7.392  0.4604  0.4587 -0.6365
  602MOL0     H81234  12.843  11.077   7.388  1.1484 -0.0359 -0.9358
  602MOL0     H81235  12.797  11.197   7.262  0.1743  1.4107  0.3482
  602MOL0     H81236  12.912  11.384   7.384  0.6502  0.5437  1.3596
  602MOL0     H81237  12.967  11.267   7.495 -1.4636  0.6229 -0.5623
  602MOL0     H81238  13.074  11.145   7.293 -0.9560  0.0249 -0.5628
  602MOL0     H81239  13.013  11.290   7.205 -1.6145 -2.8965 -0.4853
  602MOL0     H81240  13.204  11.273   7.445  1.3735 -2.5450 -1.2305
  602MOL0     H81241  13.160  11.422   7.380  1.0234 -0.0186  3.0272
  602MOL0     H81242  13.254  11.373   7.162  4.3148  1.4782 -1.2752
  602MOL0     H81243  13.294  11.206   7.216 -2.4273 -0.7045 -0.7560
  602MOL0     H81244  13.414  11.485   7.322  2.0031 -0.4062  0.7026
  602MOL0     H81245  13.460  11.313   7.363  0.7633 -0.0706 -1.2525
  602MOL0     H81246  13.499  11.470   7.099 -1.5895  1.0537  1.1161
  602MOL0     H81247  13.479  11.307   7.095  0.3066  1.6491 -1.2929
  602MOL0     H81248  13.669  11.297   7.294 -0.2170  1.7574  0.8100
  602MOL0     H81249  13.685  11.276   7.122 -1.2027  0.1189 -0.5041
  602MOL0     H81250  12.504  11.396   7.402  1.1035 -0.3791  0.9578
  602MOL0     H81251  12.298  11.359   7.294 -2.2819 -1.4618  2.0961
  602MOL0     H81252  11.876  10.967   7.399 -0.6549 -1.2523 -1.5587
  602MOL0     H81253  11.662  10.975   7.324  2.2847 -2.5251  0.6994
  602MOL0     H81254   9.737  10.710   7.239  2.1740  1.7338 -0.8246
  602MOL0     H81255   9.480  10.646   7.185 -2.9234 -0.9230 -3.1691
  602MOL0     H81256   9.124  10.631   7.017 -0.3954 -0.5319  1.4049
  602MOL0     H81257   8.909  10.549   6.980 -0.9909 -1.1269 -0.7710
  602MOL0     H81258   8.743  10.430   6.980  1.4324 -0.3228 -1.3106
  602MOL0     H81259   8.794  10.264   7.038 -0.0759 -0.3030 -0.3458
  602MOL0     H81260   8.634  10.178   6.885 -0.4293  0.2334 -2.2320
  602MOL0     H81261   8.563  10.331   6.845 -0.9781  0.3483  0.4032
  602MOL0     H81262   8.574  10.260   7.139 -1.2463 -0.9549  1.5763
  602MOL0     H81263   8.447  10.190   7.041  1.1761  0.1161 -0.0627
  602MOL0     H81264   8.494  10.489   7.005  1.5379 -1.2047 -0.8675
  602MOL0     H81265   8.349  10.384   6.979 -0.0399 -2.4201  2.0614
  602MOL0     H81266   8.350  10.481   7.394 -0.0737 -1.8777  1.2463
  602MOL0     H81267   9.066  10.245   6.721  0.2105  0.8389 -1.6999
  602MOL0     H81268   9.271  10.269   6.619 -0.3602  0.4217  1.9901
  602MOL0     H81269   9.327  10.442   6.604 -1.0209  0.5902  0.8530
  602MOL0     H81270   9.409  10.328   6.709  0.3778  2.9467  0.2261
  603MOL0     O81271   5.998   0.913   9.882  0.5908  0.2924  0.0449
  603MOL0     C81272   5.986   1.023   9.941 -0.5902  1.1085 -0.5805
  603MOL0     O81273   6.090   1.102   9.988  0.2542  0.6528  0.4300
  603MOL0     C81274   6.218   1.053   9.980 -0.3214  0.2109 -0.3351
  603MOL0     C81275   6.263   0.968  10.085 -0.0370 -0.3072 -0.2624
  603MOL0     C81276   6.399   0.928  10.080  0.7816 -0.4080  0.0697
  603MOL0     C81277   6.492   0.973   9.983  0.0545  0.2976 -0.3606
  603MOL0     O81278   6.624   0.932   9.994  0.3377  0.4119 -0.4756
  603MOL0     C81279   6.697   0.991  10.098  0.2698  0.1964  0.2760
  603MOL0     C81280   6.792   1.092  10.028  0.0286  0.8265 -0.4148
  603MOL0     C81281   6.848   1.041   9.898  0.0761  0.4166  0.4370
  603MOL0     C81282   6.974   1.113   9.845  0.8878 -0.4232 -0.7197
  603MOL0     C81283   7.022   1.050   9.709 -0.3271  0.4404  0.0750
  603MOL0     C81284   7.133   1.143   9.656 -0.3709  0.6473  0.7184
  603MOL0     C81285   7.196   1.108   9.522  0.0157 -0.3016  0.1500
  603MOL0     C81286   7.263   1.242   9.469  0.2683 -0.6040  0.4121
  603MOL0     N81287   7.346   1.207   9.357 -0.3269 -0.5789 -0.0684
  603MOL0     C81288   7.481   1.188   9.370 -0.3829 -0.1981  0.0995
  603MOL0     C81289   7.517   1.144   9.253 -0.0293  0.0991  0.1154
  603MOL0     C81290   7.659   1.105   9.231  0.1880  0.6447 -0.5904
  603MOL0     C81291   7.687   0.973   9.151 -0.3711 -0.7482  0.9371
  603MOL0     C81292   7.715   0.995   9.000  0.1401 -0.0345 -0.1020
  603MOL0     C81293   7.866   0.970   8.970 -0.8988  0.5463 -0.3877
  603MOL0     O81294   7.915   1.006   8.844  0.3048 -0.5969  0.4465
  603MOL0     C81295   7.957   1.135   8.833 -0.4219  0.1973  0.0383
  603MOL0     C81296   8.031   1.156   8.716  0.3848 -0.0963 -0.1827
  603MOL0     C81297   8.091   1.279   8.683 -0.0716 -0.5712 -0.8578
  603MOL0     C81298   8.073   1.387   8.771  0.6270 -0.4625  0.1688
  603MOL0     C81299   8.140   1.518   8.748  0.0182 -0.5865  0.0619
  603MOL0     O81300   8.230   1.512   8.645  0.3578  0.6367 -0.4588
  603MOL0     C81301   8.309   1.622   8.616  0.1539  0.6529  0.4687
  603MOL0     C81302   8.443   1.600   8.608  0.2211  0.7320  0.0339
  603MOL0     C81303   8.535   1.701   8.581 -0.4000  1.2684 -0.0914
  603MOL0     C81304   8.496   1.833   8.561 -0.0992 -0.2017  0.4573
  603MOL0     O81305   8.573   1.942   8.526 -0.0591 -0.3304  0.2173
  603MOL0     C81306   8.718   1.937   8.523 -0.6955  0.1780  0.1270
  603MOL0     C81307   8.779   1.923   8.664  0.1666 -0.1360  0.2007
  603MOL0     C81308   8.926   1.962   8.668  0.2340  0.3256  0.8896
  603MOL0     C81309   8.965   1.998   8.810  0.1209 -0.7884  0.1158
  603MOL0     C81310   9.113   2.044   8.812 -0.0069 -0.2052  0.2562
  603MOL0     C81311   9.138   2.120   8.943 -0.2274  0.5947  0.4150
  603MOL0     C81312   9.301   2.139   8.953  0.0906  0.6743  0.4929
  603MOL0     C81313   9.335   2.210   9.084  0.2892  0.8309 -0.0684
  603MOL0    Cl81314   9.236   2.169   9.219  0.1661  0.1677  0.2503
  603MOL0     C81315   8.359   1.849   8.557  0.6189 -0.2029 -0.4443
  603MOL0     C81316   8.264   1.749   8.581  0.0528  1.5796  0.3014
  603MOL0     O81317   8.128   1.617   8.825 -0.2635  1.1390 -0.5721
  603MOL0     C81318   8.004   1.361   8.892 -0.1503  0.1913  0.9929
  603MOL0     C81319   7.933   1.242   8.919 -0.6587 -0.0685 -0.3683
  603MOL0     N81320   7.413   1.144   9.163 -0.8067 -0.2771 -0.7783
  603MOL0     N81321   7.309   1.173   9.233 -0.0326 -0.9034  0.0474
  603MOL0     C81322   6.442   1.061   9.886 -0.5596 -0.0002 -0.2411
  603MOL0     C81323   6.309   1.090   9.880  0.1110 -0.5111  0.6302
  603MOL0     C81324   5.859   1.084   9.953 -0.1452  0.1530  0.6874
  603MOL0     C81325   5.777   1.097   9.834 -0.5728 -0.2431 -0.2819
  603MOL0     C81326   5.660   1.176   9.840 -0.0092  0.0191  0.5788
  603MOL0     C81327   5.608   1.221   9.960  0.5245  0.1948 -0.0205
  603MOL0     O81328   5.498   1.305   9.954 -0.3383  0.8516 -0.5330
  603MOL0     C81329   5.372   1.242   9.957  0.6904 -0.1127  0.2776
  603MOL0     C81330   5.259   1.335   9.903 -0.3953  0.4987 -0.2603
  603MOL0     C81331   5.291   1.384   9.758 -0.1923  0.4110 -0.3278
  603MOL0     C81332   5.209   1.520   9.728  0.8130  0.5085 -0.0385
  603MOL0     C81333   5.068   1.501   9.735  0.0109 -0.9012  0.9069
  603MOL0     C81334   4.949   1.507   9.744  0.3292  0.2592  0.4472
  603MOL0     C81335   5.685   1.207  10.075  0.5570 -0.4522 -0.1500
  603MOL0     C81336   5.810   1.136  10.072  0.7420 -0.4744  0.3350
  603MOL0     C81337   5.879   1.122  10.207 -0.3486 -0.2548 -0.0257
  603MOL0     H81338   6.207   0.927  10.169  0.7072 -2.0453 -0.5731
  603MOL0     H81339   6.437   0.847  10.141 -1.4104  0.3070  2.5923
  603MOL0     H81340   6.636   1.029  10.180 -2.1528 -1.6594 -0.5448
  603MOL0     H81341   6.768   0.917  10.135 -1.1790 -1.1710  0.4569
  603MOL0     H81342   6.869   1.125  10.098 -2.1538  2.8402  1.2134
  603MOL0     H81343   6.739   1.187  10.011  0.7592  1.0469 -1.6260
  603MOL0     H81344   6.772   1.036   9.820  0.1931  0.9026  0.2885
  603MOL0     H81345   6.875   0.935   9.900 -0.5366  0.1710 -1.9745
  603MOL0     H81346   6.947   1.217   9.824  0.2681 -0.8090 -1.9830
  603MOL0     H81347   7.049   1.114   9.924  1.1906 -0.7605 -0.9973
  603MOL0     H81348   7.062   0.948   9.716  1.5592  0.9799 -1.8746
  603MOL0     H81349   6.947   1.056   9.629  0.4643  3.2455 -0.5737
  603MOL0     H81350   7.083   1.241   9.651 -2.7795 -0.5040  0.9276
  603MOL0     H81351   7.216   1.144   9.727 -1.3052 -1.5617  1.9433
  603MOL0     H81352   7.116   1.080   9.453  0.1276  0.2871 -0.2350
  603MOL0     H81353   7.258   1.020   9.541 -0.4795 -0.6277  0.2527
  603MOL0     H81354   7.184   1.312   9.439 -1.7159 -2.6011  0.7014
  603MOL0     H81355   7.319   1.290   9.550  2.8018 -0.5371 -1.2589
  603MOL0     H81356   7.538   1.198   9.462 -1.3722  2.7047  0.4852
  603MOL0     H81357   7.704   1.192   9.180  0.0942  1.8126  1.2401
  603MOL0     H81358   7.712   1.102   9.326  1.2033 -0.1373 -1.1629
  603MOL0     H81359   7.773   0.923   9.195  1.1821  1.7419  0.9031
  603MOL0     H81360   7.591   0.920   9.163 -1.5620  0.6855 -1.4053
  603MOL0     H81361   7.687   1.100   8.985  1.4170  1.0787  3.9521
  603MOL0     H81362   7.641   0.937   8.944  0.2059 -1.8459  1.5949
  603MOL0     H81363   7.889   0.869   9.006 -2.3422  0.4231  0.2980
  603MOL0     H81364   7.929   1.027   9.039 -0.4878  0.0037 -0.3064
  603MOL0     H81365   8.045   1.076   8.645  0.9161  1.6621 -2.1687
  603MOL0     H81366   8.152   1.301   8.596  0.2225  1.7881 -0.1171
  603MOL0     H81367   8.487   1.500   8.610 -1.8959 -0.2535  2.5251
  603MOL0     H81368   8.641   1.677   8.581 -0.9044 -1.3961  2.0608
  603MOL0     H81369   8.750   1.850   8.464  0.5586  1.5964 -1.3755
  603MOL0     H81370   8.750   2.024   8.466 -0.9693  1.2424  1.5641
  603MOL0     H81371   8.724   1.994   8.727 -1.0291  1.2149 -2.1913
  603MOL0     H81372   8.766   1.822   8.703 -0.3679  0.0116  0.4216
  603MOL0     H81373   8.986   1.876   8.637 -0.7452 -0.6252  1.5439
  603MOL0     H81374   8.936   2.052   8.606 -2.5133 -0.6137 -1.1419
  603MOL0     H81375   8.944   1.911   8.873  0.1174 -0.8001  0.0981
  603MOL0     H81376   8.903   2.074   8.858  2.8876  0.8922  1.2999
  603MOL0     H81377   9.154   2.103   8.730  3.2551 -1.9030  0.4798
  603MOL0     H81378   9.167   1.950   8.803 -0.5687 -0.3666 -1.8276
  603MOL0     H81379   9.090   2.218   8.952  0.4363  0.7852  2.3266
  603MOL0     H81380   9.100   2.060   9.025  0.8603  3.0721  2.9039
  603MOL0     H81381   9.326   2.210   8.875  0.8576 -1.3517 -1.2165
  603MOL0     H81382   9.354   2.044   8.939 -2.4169 -1.3314  3.1768
  603MOL0     H81383   9.443   2.197   9.099  0.2072  2.5263  2.5357
  603MOL0     H81384   9.318   2.315   9.057 -0.4943 -0.1636 -4.0792
  603MOL0     H81385   8.320   1.946   8.529 -0.3003 -0.6655 -0.8264
  603MOL0     H81386   8.158   1.770   8.568 -0.1720  0.0392 -0.6218
  603MOL0     H81387   7.998   1.451   8.954 -1.9100 -0.0813  1.2814
  603MOL0     H81388   7.878   1.238   9.012  0.6375 -0.4164  0.3996
  603MOL0     H81389   6.507   1.099   9.809  0.0167  0.1230  0.3015
  603MOL0     H81390   6.273   1.156   9.802  0.1780  1.9334  2.5246
  603MOL0     H81391   5.814   1.067   9.736 -0.8372 -1.5214  0.0004
  603MOL0     H81392   5.612   1.187   9.744  0.8819  0.4976  0.1761
  603MOL0     H81393   5.339   1.217  10.058 -0.2478  3.3223  0.9642
  603MOL0     H81394   5.372   1.150   9.898 -3.2477 -0.0358 -0.1055
  603MOL0     H81395   5.252   1.424   9.967  1.3620 -0.0433  0.7620
  603MOL0     H81396   5.163   1.283   9.901  0.7826 -1.7652 -1.0436
  603MOL0     H81397   5.263   1.311   9.681  0.1294  0.5184 -0.5508
  603MOL0     H81398   5.395   1.416   9.744  0.1829 -1.7158 -3.4002
  603MOL0     H81399   5.246   1.600   9.793 -0.1679  2.1139 -1.3793
  603MOL0     H81400   5.244   1.553   9.630  0.8763 -2.5187 -1.1201
  603MOL0     H81401   4.844   1.510   9.764  0.5937  0.7531  1.8887
  603MOL0     H81402   5.652   1.254  10.167 -3.8558 -2.4352 -0.4280
  603MOL0     H81403   5.895   1.016  10.229  0.3603 -0.4198 -1.2088
  603MOL0     H81404   5.976   1.172  10.197 -0.9263  0.4722 -3.4076
  603MOL0     H81405   5.822   1.180  10.280 -1.9902  0.2890 -1.6644
  604MOL0     O81406   0.678   3.543  11.129  0.2551  0.5853  0.7690
  604MOL0     C81407   0.607   3.628  11.192 -0.8753 -1.0831  0.5118
  604MOL0     O81408   0.651   3.720  11.285  0.4792  0.2011 -0.5828
  604MOL0     C81409   0.785   3.701  11.327  0.2699  0.3585  0.6686
  604MOL0     C81410   0.813   3.614  11.428 -0.3291  0.7151 -0.7481
  604MOL0     C81411   0.940   3.602  11.479 -0.8756 -0.4683 -0.8698
  604MOL0     C81412   1.056   3.670  11.428  0.6882 -0.4835 -0.0669
  604MOL0     O81413   1.185   3.656  11.471  0.7247 -0.4419  0.3897
  604MOL0     C81414   1.307   3.697  11.397  0.7783  0.0569  0.3011
  604MOL0     C81415   1.426   3.661  11.477 -0.6033 -0.3719 -0.2204
  604MOL0     C81416   1.560   3.650  11.383  0.3512  0.2655 -0.0760
  604MOL0     C81417   1.680   3.641  11.482  0.3403 -0.1271 -0.2231
  604MOL0     C81418   1.792   3.555  11.437 -0.2908  0.2389 -0.5667
  604MOL0     C81419   1.834   3.467  11.565  0.6048  0.2217 -0.2927
  604MOL0     C81420   1.912   3.344  11.530 -0.6158 -0.3470  0.0530
  604MOL0     C81421   1.961   3.263  11.660 -0.1756  0.2039 -0.0941
  604MOL0     N81422   2.049   3.338  11.749  0.5060  0.2503  0.1688
  604MOL0     C81423   2.170   3.375  11.724 -0.7851 -0.4989  0.2116
  604MOL0     C81424   2.209   3.416  11.844  0.0490 -0.3649  1.0541
  604MOL0     C81425   2.341   3.476  11.877 -1.2063  0.6094 -0.1613
  604MOL0     C81426   2.389   3.446  12.020 -0.8839  0.5000 -0.6414
  604MOL0     C81427   2.432   3.297  12.044 -0.3573 -1.0065 -0.0087
  604MOL0     C81428   2.446   3.257  12.190  0.4674  0.1344  0.0513
  604MOL0     O81429   2.541   3.335  12.258  0.8302 -0.4458 -0.4157
  604MOL0     C81430   2.668   3.317  12.231  0.6105 -0.7929 -0.2107
  604MOL0     C81431   2.733   3.215  12.175 -0.9165 -0.1088  0.0877
  604MOL0     C81432   2.875   3.208  12.167 -0.1346 -0.2536 -0.6798
  604MOL0     C81433   2.960   3.317  12.195  0.9808  0.2774 -0.5216
  604MOL0     C81434   3.109   3.319  12.180 -0.1929 -0.3583 -0.3773
  604MOL0     O81435   3.168   3.426  12.244  0.1433  0.0182  0.7852
  604MOL0     C81436   3.298   3.465  12.218 -0.3908  0.1932  0.8613
  604MOL0     C81437   3.365   3.544  12.312 -0.3975 -1.1079 -0.4799
  604MOL0     C81438   3.488   3.604  12.284  0.3401  0.0973  0.1987
  604MOL0     C81439   3.548   3.588  12.157 -0.0177 -0.6770  0.2680
  604MOL0     O81440   3.669   3.652  12.151 -0.7029  0.8918  0.7302
  604MOL0     C81441   3.765   3.597  12.060 -0.1417  0.1822 -0.4512
  604MOL0     C81442   3.909   3.653  12.082 -0.1209  0.5397 -0.5077
  604MOL0     C81443   3.998   3.615  11.962 -0.1443 -0.1235 -0.0397
  604MOL0     C81444   4.143   3.628  11.998 -0.8280  0.2898 -0.2266
  604MOL0     C81445   4.246   3.621  11.880  0.2534  0.5750  0.7483
  604MOL0     C81446   4.370   3.692  11.905  0.8408 -0.2078 -0.2430
  604MOL0     C81447   4.461   3.705  11.774 -0.0514 -0.0342  0.1324
  604MOL0     C81448   4.585   3.785  11.816  0.3091 -0.5583  0.1063
  604MOL0    Cl81449   4.547   3.944  11.883  0.3549 -0.3937  0.1792
  604MOL0     C81450   3.491   3.493  12.066 -0.2818  0.1980  0.6233
  604MOL0     C81451   3.368   3.434  12.098  0.4977  0.6747  0.0673
  604MOL0     O81452   3.159   3.221  12.123  0.7567  0.0843  1.0245
  604MOL0     C81453   2.890   3.421  12.253  0.4513  0.5128 -0.1510
  604MOL0     C81454   2.751   3.420  12.281  0.4839  0.1209 -0.2065
  604MOL0     N81455   2.110   3.408  11.939 -0.0531  0.2669  1.3312
  604MOL0     N81456   2.009   3.357  11.879 -0.2715  0.5016  0.4786
  604MOL0     C81457   1.020   3.759  11.324 -0.5169 -0.4789  0.2548
  604MOL0     C81458   0.887   3.778  11.279  0.1407  0.1721  1.0582
  604MOL0     C81459   0.464   3.632  11.143 -0.1201  0.1851  0.2252
  604MOL0     C81460   0.430   3.528  11.048 -0.5675 -0.3217 -0.0574
  604MOL0     C81461   0.312   3.526  10.981  0.6330  0.2356 -0.2605
  604MOL0     C81462   0.206   3.609  11.021 -0.2243 -0.2303  0.0725
  604MOL0     O81463   0.079   3.574  10.975 -0.1077 -0.9605 -0.2905
  604MOL0     C81464  -0.035   3.663  10.999  0.2536 -0.2532 -0.4240
  604MOL0     C81465  -0.145   3.635  10.896  0.7326 -0.6292  0.3460
  604MOL0     C81466  -0.276   3.711  10.931  0.2060  0.4738 -0.7476
  604MOL0     C81467  -0.382   3.663  10.835  0.8041 -0.0340  0.2093
  604MOL0     C81468  -0.488   3.765  10.811 -0.1931 -0.6053  0.5079
  604MOL0     C81469  -0.564   3.867  10.788  0.0880  0.0430  0.1096
  604MOL0     C81470   0.234   3.719  11.108 -0.4077  0.5428  0.1882
  604MOL0     C81471   0.357   3.723  11.172 -0.6622 -1.2548 -0.5391
  604MOL0     C81472   0.370   3.848  11.258 -0.3418  0.7357 -0.5601
  604MOL0     H81473   0.733   3.554  11.471  1.4932 -0.4700  1.1830
  604MOL0     H81474   0.952   3.530  11.559 -1.3404 -1.5180 -1.7085
  604MOL0     H81475   1.318   3.638  11.306 -0.7238  2.9320 -1.8769
  604MOL0     H81476   1.307   3.803  11.373  1.6048  0.2285  0.9900
  604MOL0     H81477   1.407   3.566  11.527 -2.5279  0.2191  0.2621
  604MOL0     H81478   1.442   3.735  11.556  3.7550 -1.0886 -0.1919
  604MOL0     H81479   1.555   3.740  11.321  3.1569  0.8293  0.3479
  604MOL0     H81480   1.547   3.566  11.315 -5.2635  1.7207 -1.3036
  604MOL0     H81481   1.723   3.740  11.496  3.7986 -1.6397  0.9516
  604MOL0     H81482   1.643   3.610  11.581  1.2373  1.6301  0.7053
  604MOL0     H81483   1.765   3.486  11.357  2.0075 -0.1805 -1.0646
  604MOL0     H81484   1.876   3.615  11.401  1.5448 -1.3485  0.8394
  604MOL0     H81485   1.883   3.525  11.643 -0.4721 -1.7538  1.9754
  604MOL0     H81486   1.740   3.425  11.601 -1.6718  3.0666 -2.4124
  604MOL0     H81487   2.000   3.378  11.475 -0.9254  1.5988  0.6874
  604MOL0     H81488   1.849   3.281  11.467 -0.7347 -0.1738 -0.0022
  604MOL0     H81489   1.877   3.222  11.717 -1.6391  1.3689 -1.3253
  604MOL0     H81490   2.018   3.182  11.614  0.5802  1.8832 -2.2361
  604MOL0     H81491   2.229   3.381  11.633 -2.4899  1.0454 -0.8732
  604MOL0     H81492   2.418   3.453  11.802 -2.9536  0.6077 -2.0167
  604MOL0     H81493   2.337   3.585  11.877 -1.3525  0.6058 -0.4160
  604MOL0     H81494   2.476   3.507  12.045 -0.2815 -1.2534  1.9362
  604MOL0     H81495   2.309   3.476  12.089 -0.7903  1.0410 -0.7672
  604MOL0     H81496   2.522   3.293  11.981 -0.1259  1.7078  0.0349
  604MOL0     H81497   2.361   3.228  11.998 -3.3230  1.0456  1.2068
  604MOL0     H81498   2.478   3.153  12.201  2.5775  0.9350  2.4376
  604MOL0     H81499   2.353   3.271  12.245  0.6253  2.2801 -0.1405
  604MOL0     H81500   2.688   3.122  12.141  3.4859 -1.7729 -1.9110
  604MOL0     H81501   2.916   3.118  12.123 -0.3460  0.0522 -1.5339
  604MOL0     H81502   3.308   3.562  12.403 -0.5094 -1.0319 -0.5638
  604MOL0     H81503   3.529   3.672  12.358  1.2968 -1.7278  1.4104
  604MOL0     H81504   3.773   3.489  12.069  0.3869  0.2767  0.3235
  604MOL0     H81505   3.736   3.620  11.957  0.3940  0.9543 -0.4430
  604MOL0     H81506   3.903   3.762  12.086  0.3577  0.6206 -1.6103
  604MOL0     H81507   3.952   3.620  12.177 -1.4028  0.6673  0.1423
  604MOL0     H81508   3.984   3.508  11.943 -1.5672  0.1693 -0.7835
  604MOL0     H81509   3.968   3.674  11.875 -2.5591 -1.4839 -0.2122
  604MOL0     H81510   4.163   3.547  12.069 -2.9310 -0.1560 -0.0930
  604MOL0     H81511   4.161   3.722  12.050  1.0722 -0.3067  0.2853
  604MOL0     H81512   4.212   3.649  11.780  2.2923 -0.2726 -0.2413
  604MOL0     H81513   4.262   3.513  11.881  0.3152  0.5759  0.2319
  604MOL0     H81514   4.336   3.790  11.940  0.2281 -0.4248 -0.2061
  604MOL0     H81515   4.413   3.631  11.985 -0.8479 -1.2177 -0.0408
  604MOL0     H81516   4.413   3.763  11.695  0.6791  0.0368 -0.2705
  604MOL0     H81517   4.484   3.603  11.742 -0.5704 -0.3735  0.8237
  604MOL0     H81518   4.655   3.741  11.889 -1.6301 -0.9250  1.8272
  604MOL0     H81519   4.648   3.805  11.729 -2.0626  0.3902 -1.4751
  604MOL0     H81520   3.538   3.467  11.971 -0.6650  1.0633  0.1811
  604MOL0     H81521   3.324   3.366  12.025  2.8932 -0.7452 -0.1701
  604MOL0     H81522   2.937   3.512  12.291 -0.5246  1.6157 -1.4846
  604MOL0     H81523   2.718   3.503  12.342 -1.0224  0.1301 -0.9935
  604MOL0     H81524   1.099   3.822  11.285  1.2420 -2.0464  1.1411
  604MOL0     H81525   0.867   3.858  11.209  1.4140 -1.5693 -1.4709
  604MOL0     H81526   0.497   3.447  11.019 -1.6289 -1.0791 -0.4720
  604MOL0     H81527   0.289   3.450  10.907 -0.7133 -0.2518  0.6190
  604MOL0     H81528  -0.019   3.771  11.001 -0.1806 -0.1933  1.6739
  604MOL0     H81529  -0.072   3.623  11.093  0.7692 -0.0708 -0.1399
  604MOL0     H81530  -0.167   3.528  10.906  1.0744 -0.6357  1.1331
  604MOL0     H81531  -0.125   3.649  10.790 -0.0465  1.9015  0.4714
  604MOL0     H81532  -0.270   3.819  10.914 -1.9438  0.8661  0.6749
  604MOL0     H81533  -0.298   3.683  11.035  0.8011 -1.2783 -1.0581
  604MOL0     H81534  -0.345   3.630  10.737 -0.9746 -0.5420 -0.3283
  604MOL0     H81535  -0.423   3.570  10.874  0.1311  0.8067  1.5789
  604MOL0     H81536  -0.594   3.967  10.765  2.6681  0.5544 -1.5894
  604MOL0     H81537   0.163   3.800  11.122 -0.9068  0.0654  0.4382
  604MOL0     H81538   0.473   3.879  11.239 -0.7374  2.7782  0.4364
  604MOL0     H81539   0.298   3.930  11.248 -0.6724  0.5825  0.4808
  604MOL0     H81540   0.357   3.828  11.365 -1.8956 -0.9519 -1.0090
  605MOL0     O81541   8.915   9.607   1.985  0.0659  0.5162  0.1267
  605MOL0     C81542   8.905   9.494   2.025 -0.7605  0.2681 -0.3441
  605MOL0     O81543   9.007   9.425   2.087 -0.2629 -0.3220  0.3856
  605MOL0     C81544   9.138   9.464   2.064 -0.4358  0.5360 -0.8709
  605MOL0     C81545   9.190   9.459   1.935 -0.1195  0.0324  1.0329
  605MOL0     C81546   9.323   9.487   1.912  0.4216 -0.4809 -0.1669
  605MOL0     C81547   9.407   9.531   2.015  0.1953 -0.6292 -1.1667
  605MOL0     O81548   9.542   9.570   1.989 -0.8303 -0.0485  0.7693
  605MOL0     C81549   9.583   9.586   1.851 -0.6303  0.5336  1.2231
  605MOL0     C81550   9.731   9.626   1.830  0.5883 -0.1737 -0.0581
  605MOL0     C81551   9.830   9.537   1.905 -0.5350 -0.1418 -0.1120
  605MOL0     C81552   9.978   9.550   1.866  0.9314 -0.5922  0.5717
  605MOL0     C81553  10.055   9.464   1.971 -0.0789  0.2067  0.1914
  605MOL0     C81554  10.207   9.480   1.979  0.4483  0.3691  0.0031
  605MOL0     C81555  10.268   9.472   1.839  0.4884 -0.1576  0.1110
  605MOL0     C81556  10.423   9.474   1.847  0.0804 -0.1123 -0.8559
  605MOL0     N81557  10.499   9.428   1.726  0.7064  0.4895  0.5965
  605MOL0     C81558  10.635   9.398   1.724 -0.3992 -0.1076 -0.6808
  605MOL0     C81559  10.667   9.397   1.594 -0.1891 -0.5945 -1.0803
  605MOL0     C81560  10.799   9.398   1.526 -0.1891 -0.7034  0.3456
  605MOL0     C81561  10.825   9.520   1.428  0.2494  0.4328  0.2560
  605MOL0     C81562  10.838   9.654   1.500 -0.5296 -0.0260 -0.5384
  605MOL0     C81563  10.887   9.768   1.412 -0.9440  0.1807 -0.4010
  605MOL0     O81564  10.999   9.737   1.328 -0.1184  0.0493 -0.0111
  605MOL0     C81565  11.115   9.715   1.392 -0.1463 -0.6045 -0.6902
  605MOL0     C81566  11.204   9.640   1.316  0.2277  0.1230 -0.1131
  605MOL0     C81567  11.331   9.612   1.359 -0.3942  0.2603 -0.1891
  605MOL0     C81568  11.379   9.660   1.484 -0.0473 -0.2405  0.0540
  605MOL0     C81569  11.525   9.659   1.515  0.2156  0.1769 -0.7653
  605MOL0     O81570  11.593   9.543   1.482  0.4531 -0.2883  0.3300
  605MOL0     C81571  11.725   9.544   1.516 -0.0094 -0.0314  0.5458
  605MOL0     C81572  11.826   9.580   1.419  1.0925  0.9461 -0.5517
  605MOL0     C81573  11.960   9.562   1.446  0.6065  0.5087  0.5287
  605MOL0     C81574  12.002   9.509   1.571  0.6044  0.1358 -0.6846
  605MOL0     O81575  12.128   9.448   1.597 -0.1236 -0.2238  0.1190
  605MOL0     C81576  12.223   9.471   1.498 -0.7489  0.5305 -0.0921
  605MOL0     C81577  12.367   9.444   1.548  0.6870 -0.2044 -0.3134
  605MOL0     C81578  12.468   9.459   1.434 -0.2752  0.4137 -0.4633
  605MOL0     C81579  12.611   9.439   1.473 -0.2659  0.3627 -0.6337
  605MOL0     C81580  12.661   9.559   1.552  0.1722  0.4645  0.3284
  605MOL0     C81581  12.818   9.546   1.551 -0.0166 -0.4838 -0.4232
  605MOL0     C81582  12.887   9.658   1.636 -0.2892 -0.7192 -0.0737
  605MOL0     C81583  13.025   9.616   1.680  0.3772  0.4055  0.5530
  605MOL0    Cl81584  13.120   9.554   1.539 -0.1902 -0.1928 -0.2418
  605MOL0     C81585  11.902   9.488   1.668  0.3877  0.3850 -0.3771
  605MOL0     C81586  11.763   9.497   1.644 -1.5438 -0.5483 -0.2715
  605MOL0     O81587  11.575   9.764   1.570 -0.1785 -0.4369  0.5161
  605MOL0     C81588  11.285   9.736   1.559  0.2171 -0.1434 -0.1794
  605MOL0     C81589  11.155   9.770   1.519  0.5825  0.2776  0.3506
  605MOL0     N81590  10.550   9.425   1.516 -1.1748  0.1838 -0.3238
  605MOL0     N81591  10.459   9.450   1.596  1.2391 -0.1677 -1.1647
  605MOL0     C81592   9.356   9.544   2.151 -0.1407  0.3856 -0.0461
  605MOL0     C81593   9.222   9.504   2.172  0.2985  0.1614  0.0857
  605MOL0     C81594   8.769   9.439   2.010 -0.1573 -0.1238  0.4335
  605MOL0     C81595   8.667   9.522   1.944  0.2104 -0.0654  0.3180
  605MOL0     C81596   8.540   9.465   1.920 -0.5533  0.3249  0.3996
  605MOL0     C81597   8.515   9.334   1.953 -0.5380  0.4984 -1.0022
  605MOL0     O81598   8.389   9.273   1.936  0.0081 -0.0796 -0.2263
  605MOL0     C81599   8.273   9.355   1.932  0.1588 -0.1773  0.7608
  605MOL0     C81600   8.157   9.256   1.947 -0.3556  1.0581  0.2384
  605MOL0     C81601   8.020   9.317   1.928  0.2225  0.7714  0.0569
  605MOL0     C81602   7.987   9.405   2.037 -0.5264 -0.7264  0.9944
  605MOL0     C81603   7.859   9.471   2.015 -0.7274 -0.5061  0.2686
  605MOL0     C81604   7.758   9.523   1.986  0.4923  0.0423  0.2963
  605MOL0     C81605   8.618   9.253   2.005 -0.0269  0.2146 -0.3665
  605MOL0     C81606   8.739   9.307   2.038 -0.3854  0.1609  0.4249
  605MOL0     C81607   8.840   9.216   2.114  0.0897 -0.0091 -0.0658
  605MOL0     H81608   9.133   9.426   1.849  1.3779 -0.2934  0.1121
  605MOL0     H81609   9.356   9.479   1.809  0.0179 -0.1042 -0.3276
  605MOL0     H81610   9.565   9.495   1.792 -2.4562  0.0293  2.4772
  605MOL0     H81611   9.523   9.668   1.812 -3.7033 -2.0728  0.0843
  605MOL0     H81612   9.759   9.729   1.855  2.4317 -0.6847  0.1600
  605MOL0     H81613   9.743   9.600   1.724  1.6503 -2.1491  0.4936
  605MOL0     H81614   9.808   9.431   1.889 -0.3790 -0.6878  2.7538
  605MOL0     H81615   9.814   9.551   2.012  3.5809 -3.0016  1.1385
  605MOL0     H81616  10.004   9.511   1.767 -0.4880 -0.4470  0.1302
  605MOL0     H81617   9.997   9.658   1.865 -4.4874  0.6291 -0.3584
  605MOL0     H81618  10.014   9.483   2.071 -0.7558 -0.1506 -0.0162
  605MOL0     H81619  10.031   9.360   1.948  3.1109 -0.2764 -1.5335
  605MOL0     H81620  10.207   9.584   2.014 -1.2798  0.7162 -0.9550
  605MOL0     H81621  10.254   9.406   2.045  3.0224  1.2088 -0.7328
  605MOL0     H81622  10.238   9.559   1.780 -5.3848  0.0021  2.5492
  605MOL0     H81623  10.235   9.386   1.779  0.9758  0.5378 -1.1925
  605MOL0     H81624  10.446   9.578   1.870 -0.9123  0.2389 -1.4177
  605MOL0     H81625  10.459   9.417   1.934  1.5577  2.9466  0.7154
  605MOL0     H81626  10.704   9.377   1.805  1.3429 -2.0757 -2.5678
  605MOL0     H81627  10.886   9.389   1.593  2.3688 -2.0245 -2.8743
  605MOL0     H81628  10.801   9.310   1.461 -0.7993  0.4239 -1.2669
  605MOL0     H81629  10.916   9.493   1.374 -0.7758 -0.6571 -1.0132
  605MOL0     H81630  10.749   9.525   1.349 -1.0280 -1.4140  1.2901
  605MOL0     H81631  10.910   9.639   1.581  0.9186 -0.6671 -1.8735
  605MOL0     H81632  10.743   9.682   1.546 -0.4772  1.3985 -1.2630
  605MOL0     H81633  10.900   9.865   1.462  0.5889  0.3898 -1.1213
  605MOL0     H81634  10.802   9.786   1.345 -2.2093  2.1403  1.5997
  605MOL0     H81635  11.172   9.597   1.221 -2.3777 -2.2488  1.6989
  605MOL0     H81636  11.385   9.546   1.292  1.7790 -1.2887  2.8601
  605MOL0     H81637  11.796   9.623   1.325  1.2181 -1.3927 -1.7340
  605MOL0     H81638  12.029   9.579   1.364 -0.3765  1.4408 -0.1299
  605MOL0     H81639  12.200   9.411   1.410  0.2890  2.6167 -1.8659
  605MOL0     H81640  12.214   9.576   1.469  1.6462  0.3579 -1.6952
  605MOL0     H81641  12.383   9.516   1.629  1.3851  1.3745 -1.7836
  605MOL0     H81642  12.372   9.341   1.585  1.8077 -0.5902 -1.4568
  605MOL0     H81643  12.442   9.383   1.360  1.2446 -2.1247  1.4757
  605MOL0     H81644  12.452   9.550   1.376  1.0912  0.5173 -0.7126
  605MOL0     H81645  12.677   9.427   1.387  1.6174 -1.6627  0.9706
  605MOL0     H81646  12.618   9.348   1.533 -0.8502 -1.4488 -3.1916
  605MOL0     H81647  12.627   9.551   1.656  2.5224 -2.4065  1.0081
  605MOL0     H81648  12.625   9.651   1.507  0.2733 -0.1023 -0.9400
  605MOL0     H81649  12.843   9.446   1.588  0.1869  0.1702  1.3210
  605MOL0     H81650  12.865   9.551   1.453  3.6761  0.5150  1.2338
  605MOL0     H81651  12.836   9.682   1.730  0.3162 -0.2252  0.1378
  605MOL0     H81652  12.899   9.751   1.579 -0.7569 -0.8420 -0.3671
  605MOL0     H81653  13.073   9.697   1.735 -2.6691  2.2202  0.7735
  605MOL0     H81654  13.013   9.530   1.746 -0.1418 -0.2858 -0.4115
  605MOL0     H81655  11.923   9.453   1.769 -2.4866 -1.5539 -0.3087
  605MOL0     H81656  11.691   9.475   1.722 -1.3127 -0.9185 -0.1588
  605MOL0     H81657  11.322   9.773   1.655  0.9720  0.3627 -0.6539
  605MOL0     H81658  11.092   9.840   1.572  0.4384 -0.1677  0.7773
  605MOL0     H81659   9.432   9.581   2.219 -0.0409  0.3094 -0.1167
  605MOL0     H81660   9.174   9.502   2.269 -0.5864 -1.3414 -0.3465
  605MOL0     H81661   8.685   9.624   1.912  1.2522 -0.5073 -0.5854
  605MOL0     H81662   8.469   9.525   1.865  3.7910  2.8194 -3.2574
  605MOL0     H81663   8.263   9.401   1.833  0.5046 -2.0707 -0.2092
  605MOL0     H81664   8.268   9.428   2.013 -0.4055 -1.3912  1.8579
  605MOL0     H81665   8.156   9.215   2.049 -0.2683  1.0490  0.2353
  605MOL0     H81666   8.173   9.174   1.877  2.1573  2.3945 -0.9016
  605MOL0     H81667   7.941   9.241   1.934  1.6090 -0.6970  0.4900
  605MOL0     H81668   8.017   9.361   1.828  0.4261  1.0178  0.1573
  605MOL0     H81669   7.990   9.349   2.131  1.2650 -1.1943  0.6905
  605MOL0     H81670   8.058   9.488   2.047  0.1506 -1.1697 -0.0660
  605MOL0     H81671   7.662   9.566   1.967 -0.2755 -0.8655  1.9134
  605MOL0     H81672   8.593   9.149   2.021  0.8944 -0.2826 -1.8768
  605MOL0     H81673   8.931   9.194   2.058 -0.3910 -0.9034 -0.5150
  605MOL0     H81674   8.864   9.262   2.210 -1.2095 -0.1090  0.3231
  605MOL0     H81675   8.792   9.118   2.126  0.4902  0.0175  2.0693
  606MOL0     O81676   1.529   2.794   3.990  0.0664 -0.3720  0.2435
  606MOL0     C81677   1.590   2.693   3.955 -0.4529  0.4846  0.3084
  606MOL0     O81678   1.530   2.572   3.917 -0.5778 -0.1284 -0.5986
  606MOL0     C81679   1.394   2.545   3.906 -0.4723 -0.7610 -1.3476
  606MOL0     C81680   1.359   2.410   3.921  0.1828 -0.0914 -0.0819
  606MOL0     C81681   1.226   2.364   3.927  0.1045 -0.7029 -0.3864
  606MOL0     C81682   1.118   2.458   3.914 -0.0608 -0.2174  0.3177
  606MOL0     O81683   0.991   2.413   3.909 -0.4913  0.4548  0.4440
  606MOL0     C81684   0.895   2.478   3.822  0.3634  0.8920 -0.6553
  606MOL0     C81685   0.779   2.380   3.799  0.3174  0.2356  0.1020
  606MOL0     C81686   0.817   2.230   3.772  0.7474  0.7756 -0.2640
  606MOL0     C81687   0.698   2.157   3.712 -0.0767  0.0308  1.0032
  606MOL0     C81688   0.726   2.009   3.732 -0.0935  0.1100  0.1721
  606MOL0     C81689   0.592   1.922   3.710  0.6269  0.3749 -0.2830
  606MOL0     C81690   0.636   1.782   3.681  0.2213 -0.3970  0.2512
  606MOL0     C81691   0.648   1.733   3.535  0.7479 -0.3836 -0.1753
  606MOL0     N81692   0.526   1.717   3.455 -0.0949  0.1473 -0.6966
  606MOL0     C81693   0.518   1.748   3.323  0.1242  0.6052  0.0948
  606MOL0     C81694   0.403   1.698   3.281 -0.6286 -0.3245 -0.2355
  606MOL0     C81695   0.359   1.707   3.142  0.5802 -0.2507  0.9790
  606MOL0     C81696   0.389   1.579   3.065 -0.1116 -0.4288 -0.2700
  606MOL0     C81697   0.528   1.538   3.053 -0.6305 -0.5983  1.1415
  606MOL0     C81698   0.548   1.419   2.957  0.2147 -0.2381 -0.2393
  606MOL0     O81699   0.455   1.314   2.977 -0.2920  0.7411 -0.5808
  606MOL0     C81700   0.447   1.203   2.887  0.4036  0.1259 -0.1677
  606MOL0     C81701   0.526   1.174   2.777 -0.5063 -0.1311 -0.2396
  606MOL0     C81702   0.512   1.071   2.687  0.4594  0.4175  0.0820
  606MOL0     C81703   0.417   0.972   2.718  0.2524  0.1039 -0.4125
  606MOL0     C81704   0.400   0.859   2.630  0.5950  0.5178 -0.2700
  606MOL0     O81705   0.485   0.850   2.531  0.3639 -0.1903  0.0595
  606MOL0     C81706   0.479   0.739   2.450  0.6388 -0.0713  0.2197
  606MOL0     C81707   0.599   0.664   2.428  0.3406  0.2571 -0.1413
  606MOL0     C81708   0.601   0.557   2.337 -0.2909  1.3542 -0.3095
  606MOL0     C81709   0.486   0.531   2.251 -0.3208  0.2427 -0.3575
  606MOL0     O81710   0.485   0.452   2.145  0.0028  0.7107 -0.1634
  606MOL0     C81711   0.619   0.405   2.101 -0.3336 -0.7086 -0.9289
  606MOL0     C81712   0.614   0.350   1.958 -0.4202  0.3307 -0.0028
  606MOL0     C81713   0.531   0.220   1.954  0.0700  0.0619 -0.6853
  606MOL0     C81714   0.488   0.184   1.814  0.8605 -0.0032 -0.6307
  606MOL0     C81715   0.380   0.075   1.803  0.4960 -0.8639 -1.0410
  606MOL0     C81716   0.311   0.063   1.660  0.0686  0.2133  0.1689
  606MOL0     C81717   0.407   0.013   1.545  0.2009  0.2375 -0.1895
  606MOL0     C81718   0.435  -0.142   1.562  0.2440  0.3540 -0.7243
  606MOL0    Cl81719   0.294  -0.244   1.625 -0.1975 -0.1020  0.1216
  606MOL0     C81720   0.363   0.597   2.279  0.3280 -0.1537  0.1230
  606MOL0     C81721   0.362   0.700   2.370 -0.0060 -0.4468 -0.3782
  606MOL0     O81722   0.308   0.777   2.653  0.1384  0.7864  0.0885
  606MOL0     C81723   0.335   0.991   2.833  0.7521 -0.3661  0.5453
  606MOL0     C81724   0.347   1.107   2.911  0.1962  0.5103 -0.4131
  606MOL0     N81725   0.335   1.649   3.397 -0.2118  1.1196  0.7281
  606MOL0     N81726   0.413   1.658   3.498 -0.2001 -0.0528 -0.0565
  606MOL0     C81727   1.151   2.597   3.902 -0.3545  0.9078 -1.1758
  606MOL0     C81728   1.290   2.640   3.893  0.0075  0.1743 -0.2395
  606MOL0     C81729   1.734   2.715   3.942 -1.3005  0.1765 -0.3960
  606MOL0     C81730   1.797   2.822   4.012  0.2270  0.1688  0.3832
  606MOL0     C81731   1.937   2.850   4.000 -0.8532 -0.5356 -0.2754
  606MOL0     C81732   2.015   2.760   3.924  0.6003  0.2745 -0.0761
  606MOL0     O81733   2.155   2.777   3.919  0.6753 -0.2328  0.2341
  606MOL0     C81734   2.229   2.666   3.963 -0.5737 -0.4234 -0.6601
  606MOL0     C81735   2.227   2.666   4.115 -0.2577 -0.3509  0.0586
  606MOL0     C81736   2.326   2.765   4.188 -0.2516 -0.2165 -0.7821
  606MOL0     C81737   2.333   2.731   4.340 -0.0066 -0.1706  0.4961
  606MOL0     C81738   2.458   2.791   4.400  0.3793  0.2753 -0.8930
  606MOL0     C81739   2.547   2.837   4.472  0.2595  0.2929  0.4789
  606MOL0     C81740   1.960   2.652   3.853  0.1237 -0.0511 -2.1080
  606MOL0     C81741   1.818   2.632   3.859  0.5681 -0.2492  0.3724
  606MOL0     C81742   1.753   2.537   3.766 -0.8910 -0.5597 -0.0364
  606MOL0     H81743   1.446   2.348   3.934  1.1229  1.4027  1.0992
  606MOL0     H81744   1.205   2.257   3.932 -3.5223 -0.0929  1.4058
  606MOL0     H81745   0.844   2.565   3.863 -0.3697  0.2510 -0.1794
  606MOL0     H81746   0.940   2.493   3.723 -1.0172  2.8834 -1.0472
  606MOL0     H81747   0.717   2.416   3.716  1.5759  3.6941  0.4804
  606MOL0     H81748   0.722   2.366   3.892  0.7109 -2.2445  0.0329
  606MOL0     H81749   0.835   2.184   3.870 -0.6977  0.8644  0.0512
  606MOL0     H81750   0.909   2.219   3.713  1.3689 -0.6098  0.8851
  606MOL0     H81751   0.603   2.185   3.759 -2.6067 -2.1788 -2.3115
  606MOL0     H81752   0.690   2.181   3.605  0.4433 -0.0451  0.9483
  606MOL0     H81753   0.800   1.972   3.661  0.4546  2.1245 -0.3703
  606MOL0     H81754   0.767   1.991   3.832 -0.9040  0.7803  0.6404
  606MOL0     H81755   0.541   1.939   3.805  1.5498  0.4768  0.2031
  606MOL0     H81756   0.517   1.962   3.641 -0.4335 -2.3624 -0.8390
  606MOL0     H81757   0.564   1.722   3.738  0.7348 -1.6821 -0.4121
  606MOL0     H81758   0.728   1.758   3.734  2.2767 -1.6511 -3.5154
  606MOL0     H81759   0.717   1.805   3.488 -1.3148  2.1469  0.4551
  606MOL0     H81760   0.699   1.636   3.538  1.3539 -0.2283 -2.7286
  606MOL0     H81761   0.582   1.796   3.250 -1.8879  0.5972 -1.7766
  606MOL0     H81762   0.250   1.698   3.133  0.1946  4.2368 -2.0207
  606MOL0     H81763   0.382   1.799   3.088 -3.9261  0.4843 -0.1343
  606MOL0     H81764   0.336   1.496   3.112 -0.1237 -1.3267 -1.7775
  606MOL0     H81765   0.333   1.586   2.971  2.3264 -1.5224 -1.9078
  606MOL0     H81766   0.572   1.521   3.151  0.6390 -1.1978  0.4875
  606MOL0     H81767   0.573   1.623   3.001  0.3504 -1.4998  0.4505
  606MOL0     H81768   0.652   1.389   2.966  0.7347  1.1924 -1.0967
  606MOL0     H81769   0.548   1.467   2.858  1.0400  2.1235  0.8299
  606MOL0     H81770   0.610   1.239   2.755 -0.4460 -0.2566 -0.3778
  606MOL0     H81771   0.576   1.063   2.599  2.0589 -0.6945  1.2833
  606MOL0     H81772   0.689   0.687   2.484  0.1177 -0.7167  0.6483
  606MOL0     H81773   0.695   0.508   2.314 -0.1620  1.6586 -0.4390
  606MOL0     H81774   0.685   0.492   2.099 -2.3794  1.0685  2.0908
  606MOL0     H81775   0.658   0.335   2.176 -1.2085 -1.0252 -0.7622
  606MOL0     H81776   0.568   0.419   1.886  1.9479  0.8726 -1.0857
  606MOL0     H81777   0.714   0.331   1.917 -0.2561 -2.2000  1.3752
  606MOL0     H81778   0.592   0.135   1.985 -0.8030 -0.5951 -0.7177
  606MOL0     H81779   0.448   0.225   2.026  0.7879  1.7122  0.0815
  606MOL0     H81780   0.577   0.153   1.758 -0.0503 -2.8956 -0.6072
  606MOL0     H81781   0.453   0.277   1.767 -2.6929 -0.4207  0.8939
  606MOL0     H81782   0.296   0.103   1.867 -0.1373  0.0319 -2.2144
  606MOL0     H81783   0.408  -0.025   1.836 -3.1803 -1.4046  1.0100
  606MOL0     H81784   0.221   0.002   1.673 -0.5203  0.4249 -2.4767
  606MOL0     H81785   0.270   0.161   1.635  0.1714 -0.0871 -1.2433
  606MOL0     H81786   0.509   0.052   1.535  0.3542  0.5336  1.9901
  606MOL0     H81787   0.355   0.021   1.449 -0.2724 -0.3968  0.0084
  606MOL0     H81788   0.470  -0.175   1.463 -0.7428  2.5091 -1.8601
  606MOL0     H81789   0.522  -0.157   1.627  0.5873 -0.3353 -1.3248
  606MOL0     H81790   0.280   0.576   2.212  0.6916  1.0197 -0.7182
  606MOL0     H81791   0.273   0.761   2.381  0.6836  0.3709  1.0684
  606MOL0     H81792   0.257   0.923   2.867  2.2055 -3.3240 -1.6014
  606MOL0     H81793   0.288   1.106   3.002  1.9712 -0.0938  0.7899
  606MOL0     H81794   1.075   2.674   3.907 -0.0909  1.0769  2.4349
  606MOL0     H81795   1.324   2.739   3.866 -1.7768  0.0929 -3.1223
  606MOL0     H81796   1.745   2.894   4.074 -1.5444  0.5940 -1.4837
  606MOL0     H81797   1.982   2.937   4.045  1.4408 -1.8128  0.0587
  606MOL0     H81798   2.336   2.673   3.938 -0.4408 -1.9890 -0.6389
  606MOL0     H81799   2.198   2.569   3.924 -2.0128  1.0881 -3.5793
  606MOL0     H81800   2.245   2.566   4.154  0.2924 -0.3929 -0.2875
  606MOL0     H81801   2.124   2.687   4.143 -0.3062  1.6656 -1.3952
  606MOL0     H81802   2.295   2.869   4.170 -1.4499 -0.4558 -0.2519
  606MOL0     H81803   2.429   2.759   4.155 -0.5121  0.3340 -1.7312
  606MOL0     H81804   2.246   2.760   4.400  0.5788 -0.9644  1.7830
  606MOL0     H81805   2.344   2.623   4.342  1.2318 -0.0703 -0.3084
  606MOL0     H81806   2.622   2.890   4.527 -2.2113  2.5199  1.9476
  606MOL0     H81807   2.021   2.589   3.790  2.0540  2.1506 -2.5740
  606MOL0     H81808   1.743   2.439   3.813 -0.7419  0.0073  1.2091
  606MOL0     H81809   1.659   2.572   3.721 -2.6168 -1.8226  2.3555
  606MOL0     H81810   1.808   2.520   3.673 -2.3842 -0.5713 -0.9538
  607MOL0     O81811   8.423   2.431  10.743  0.3532  0.3456 -0.6959
  607MOL0     C81812   8.372   2.469  10.642  0.0705  0.0053 -0.2533
  607MOL0     O81813   8.431   2.465  10.513  0.1470  0.2710 -0.2598
  607MOL0     C81814   8.557   2.404  10.498  0.4926 -0.1595 -0.9746
  607MOL0     C81815   8.592   2.282  10.546 -0.7149  0.4681 -0.9613
  607MOL0     C81816   8.727   2.236  10.526  0.8283  0.4945 -0.8072
  607MOL0     C81817   8.821   2.317  10.448 -0.6831  0.1931  0.2263
  607MOL0     O81818   8.953   2.272  10.418  0.4139 -0.4872  0.2146
  607MOL0     C81819   9.026   2.195  10.521 -0.1052  0.0197 -0.1904
  607MOL0     C81820   9.181   2.203  10.506 -0.5326 -0.2204  0.0882
  607MOL0     C81821   9.254   2.114  10.611  1.0227  0.2992  0.6562
  607MOL0     C81822   9.401   2.132  10.594 -0.5330 -0.0763  0.1146
  607MOL0     C81823   9.478   2.061  10.702  0.2080 -0.0371  0.4665
  607MOL0     C81824   9.636   2.042  10.685  0.9938  0.0022 -0.2376
  607MOL0     C81825   9.673   1.895  10.677  0.1517  0.3443  0.1455
  607MOL0     C81826   9.820   1.868  10.627 -0.8203 -0.3169 -1.5330
  607MOL0     N81827   9.930   1.902  10.714 -0.1413 -0.0682 -0.2593
  607MOL0     C81828   9.931   1.912  10.850 -0.0305 -0.3691  0.9025
  607MOL0     C81829  10.060   1.928  10.884 -0.1220  0.3933  0.5431
  607MOL0     C81830  10.105   1.970  11.025 -0.0464 -0.1485  0.6003
  607MOL0     C81831  10.126   2.126  11.013 -0.0785  1.4598 -0.2493
  607MOL0     C81832  10.150   2.183  11.153 -0.8325 -0.4530 -0.1445
  607MOL0     C81833  10.162   2.335  11.151  0.7855  0.5318 -0.0801
  607MOL0     O81834  10.251   2.377  11.047 -1.2679  0.2955 -0.8318
  607MOL0     C81835  10.389   2.387  11.067  1.1254  0.5614  0.3027
  607MOL0     C81836  10.451   2.382  11.197 -0.5944  0.2305 -0.3920
  607MOL0     C81837  10.586   2.396  11.222  0.2626  1.1917  1.0891
  607MOL0     C81838  10.670   2.416  11.110 -0.4601 -0.5815  1.0439
  607MOL0     C81839  10.821   2.440  11.125  0.0577 -0.0265 -0.1538
  607MOL0     O81840  10.898   2.431  11.017 -1.1884 -0.6623 -0.4774
  607MOL0     C81841  11.030   2.406  11.035  0.0198  0.1092  0.2941
  607MOL0     C81842  11.073   2.282  10.998 -0.6069  0.0946 -0.2925
  607MOL0     C81843  11.208   2.248  11.000  0.2739  0.5649  0.0353
  607MOL0     C81844  11.301   2.341  11.042  0.7734  0.7260 -0.9496
  607MOL0     O81845  11.432   2.294  11.050 -0.4194 -0.2749  0.7410
  607MOL0     C81846  11.518   2.357  10.951 -0.1171  0.0440  0.3430
  607MOL0     C81847  11.646   2.277  10.927 -0.5718  0.3613  1.5080
  607MOL0     C81848  11.730   2.275  11.050 -0.3738 -0.3180 -0.0067
  607MOL0     C81849  11.876   2.224  11.010  1.2107  0.4220  0.8925
  607MOL0     C81850  11.953   2.192  11.138  0.3648 -0.0508  0.1556
  607MOL0     C81851  12.097   2.145  11.086  0.1220 -0.0147 -0.4293
  607MOL0     C81852  12.177   2.096  11.209 -1.4332  0.0034  0.8231
  607MOL0     C81853  12.277   1.991  11.157 -0.3301  0.3169 -0.1769
  607MOL0    Cl81854  12.383   2.052  11.018  0.4285 -0.5240  0.0773
  607MOL0     C81855  11.255   2.469  11.073 -0.6551  0.1080 -0.5081
  607MOL0     C81856  11.122   2.502  11.081  0.3700 -0.1664 -0.3701
  607MOL0     O81857  10.857   2.453  11.243 -0.0946  0.3191 -0.7462
  607MOL0     C81858  10.611   2.408  10.979 -0.5191 -0.6865  0.5829
  607MOL0     C81859  10.469   2.401  10.954 -0.9804 -1.0356  0.5857
  607MOL0     N81860  10.134   1.921  10.767 -0.9561  0.7231  0.9329
  607MOL0     N81861  10.058   1.898  10.674 -0.0387 -0.1063 -0.1965
  607MOL0     C81862   8.768   2.434  10.388 -0.4682 -0.5901 -0.3693
  607MOL0     C81863   8.643   2.485  10.425  0.0420 -0.7555 -0.1599
  607MOL0     C81864   8.229   2.507  10.647 -0.0095 -0.3119  0.3557
  607MOL0     C81865   8.159   2.545  10.523  0.8391  0.2121 -0.5612
  607MOL0     C81866   8.007   2.544  10.522  0.2508  0.0436 -0.2332
  607MOL0     C81867   7.939   2.517  10.637  0.2128 -0.0686 -0.5963
  607MOL0     O81868   7.803   2.520  10.623 -0.1577 -0.2395 -0.6742
  607MOL0     C81869   7.730   2.562  10.748  0.2865 -0.4933 -0.4748
  607MOL0     C81870   7.576   2.549  10.732  0.3780 -0.6269 -0.2456
  607MOL0     C81871   7.514   2.634  10.622  0.4064  0.2949 -0.1706
  607MOL0     C81872   7.363   2.634  10.630 -0.6544  0.3239 -0.4698
  607MOL0     C81873   7.308   2.508  10.592  0.0624  0.6228 -0.1377
  607MOL0     C81874   7.267   2.395  10.560  0.0381 -0.5126  0.0286
  607MOL0     C81875   8.011   2.504  10.757 -0.1425 -0.4979 -0.0789
  607MOL0     C81876   8.150   2.492  10.768 -0.0995 -0.8060  0.1946
  607MOL0     C81877   8.196   2.482  10.908 -0.4957 -0.1166 -0.3365
  607MOL0     H81878   8.511   2.223  10.586 -1.2212 -0.8427 -3.6439
  607MOL0     H81879   8.767   2.138  10.551 -0.6645  0.8942  4.4042
  607MOL0     H81880   8.991   2.242  10.613  0.4717 -0.2442  0.1704
  607MOL0     H81881   8.994   2.090  10.521 -1.9923  0.5389 -1.2332
  607MOL0     H81882   9.205   2.310  10.499 -0.2261 -0.3415 -0.9530
  607MOL0     H81883   9.215   2.160  10.411  2.0703  3.6040 -0.9686
  607MOL0     H81884   9.221   2.010  10.602 -2.3616  1.1785  1.3370
  607MOL0     H81885   9.234   2.143  10.715 -0.2197 -1.5290  0.9805
  607MOL0     H81886   9.431   2.092  10.497  0.9680  1.7241 -0.2202
  607MOL0     H81887   9.426   2.239  10.591  1.3859 -0.4350  1.5001
  607MOL0     H81888   9.454   2.122  10.789  0.2164 -0.0219  0.4584
  607MOL0     H81889   9.436   1.962  10.722  0.3485  0.0029  0.9568
  607MOL0     H81890   9.667   2.096  10.595 -3.1812  1.0201 -1.2779
  607MOL0     H81891   9.682   2.099  10.767  0.1849  1.9839 -1.0871
  607MOL0     H81892   9.602   1.842  10.614  2.8901  0.2371 -3.1038
  607MOL0     H81893   9.661   1.850  10.776  0.3133 -0.1574 -0.0596
  607MOL0     H81894   9.836   1.763  10.602  1.5750  0.1314 -2.1550
  607MOL0     H81895   9.836   1.931  10.539 -3.2563  1.4015 -0.8548
  607MOL0     H81896   9.847   1.901  10.918 -1.8804 -1.7258 -1.4631
  607MOL0     H81897  10.023   1.948  11.094 -2.7039  0.1933 -2.2121
  607MOL0     H81898  10.193   1.909  11.049  0.0017 -0.8612 -1.2109
  607MOL0     H81899  10.221   2.136  10.959  0.2156 -1.7509 -0.4841
  607MOL0     H81900  10.040   2.172  10.963 -0.2978  1.4531  0.1158
  607MOL0     H81901  10.250   2.154  11.187  1.2056  3.6284 -1.8932
  607MOL0     H81902  10.074   2.152  11.224 -0.7772 -1.6171 -0.5695
  607MOL0     H81903  10.188   2.376  11.249 -1.6716  2.0340  0.0446
  607MOL0     H81904  10.063   2.375  11.123 -0.3270 -0.2910  2.3995
  607MOL0     H81905  10.392   2.365  11.287 -0.1328 -1.7600 -0.4172
  607MOL0     H81906  10.631   2.399  11.321  0.6774 -1.6755  1.0728
  607MOL0     H81907  10.992   2.212  10.979 -0.2085 -0.3680 -0.2956
  607MOL0     H81908  11.240   2.149  10.969 -1.4838 -0.3570  0.9994
  607MOL0     H81909  11.460   2.370  10.859 -0.6050  1.2106  0.8021
  607MOL0     H81910  11.552   2.456  10.985 -1.9737  0.4699  1.0489
  607MOL0     H81911  11.630   2.173  10.897  2.2097  0.2444  0.1044
  607MOL0     H81912  11.702   2.320  10.843 -1.3867 -2.0149 -0.3816
  607MOL0     H81913  11.733   2.373  11.098 -1.0633 -0.3149  0.0418
  607MOL0     H81914  11.684   2.208  11.123  1.1182  0.3938  1.6583
  607MOL0     H81915  11.924   2.302  10.951  0.3138  1.8616  2.0283
  607MOL0     H81916  11.869   2.144  10.935  1.4928  1.3448 -0.1387
  607MOL0     H81917  11.905   2.116  11.201 -0.0588 -1.3574 -1.6607
  607MOL0     H81918  11.962   2.290  11.186 -0.0629  1.5327 -2.8010
  607MOL0     H81919  12.087   2.069  11.008  0.6137  1.5050 -2.0501
  607MOL0     H81920  12.151   2.225  11.035  1.7124 -1.4255 -1.0761
  607MOL0     H81921  12.111   2.069  11.291 -2.2503  1.0044  0.5148
  607MOL0     H81922  12.243   2.178  11.240  1.4998 -1.8471 -0.1086
  607MOL0     H81923  12.337   1.952  11.240 -1.5870 -0.3046  0.4609
  607MOL0     H81924  12.221   1.905  11.121 -1.8229  0.5221  1.4947
  607MOL0     H81925  11.327   2.546  11.097  0.5920 -1.3441  0.6070
  607MOL0     H81926  11.086   2.602  11.101  1.8172  0.6601 -1.7017
  607MOL0     H81927  10.678   2.423  10.895  0.9174  0.8698  1.9261
  607MOL0     H81928  10.428   2.406  10.854 -1.9198 -1.7529  0.9254
  607MOL0     H81929   8.822   2.488  10.311  0.4939 -2.7332 -1.2652
  607MOL0     H81930   8.616   2.581  10.383 -0.4107  0.3328  2.4790
  607MOL0     H81931   8.207   2.576  10.431 -1.3561  1.7448 -1.2554
  607MOL0     H81932   7.960   2.559  10.425 -1.9676  2.0349  1.0557
  607MOL0     H81933   7.759   2.657  10.793 -0.7314 -1.9755  3.8266
  607MOL0     H81934   7.752   2.496  10.832  0.0918  2.3392  1.9451
  607MOL0     H81935   7.523   2.561  10.827 -1.5620  1.9887 -1.5081
  607MOL0     H81936   7.563   2.446  10.697 -0.7660  0.3724 -3.0645
  607MOL0     H81937   7.541   2.615  10.517 -1.9687 -0.5571 -0.7000
  607MOL0     H81938   7.543   2.737  10.643  1.1068 -0.0332  0.5312
  607MOL0     H81939   7.342   2.663  10.733  0.6465 -0.2105 -0.0383
  607MOL0     H81940   7.329   2.715  10.565  0.7918  0.5724 -0.9509
  607MOL0     H81941   7.246   2.296  10.526 -1.9998 -1.6189  3.8762
  607MOL0     H81942   7.972   2.485  10.856  3.3851 -0.0440  1.5485
  607MOL0     H81943   8.195   2.376  10.934  1.8229  0.5160  2.9340
  607MOL0     H81944   8.298   2.514  10.932 -1.0237  0.4258  1.3160
  607MOL0     H81945   8.132   2.518  10.988 -0.8099 -3.5735  1.1138
  608MOL0     O81946   7.789   4.159   3.986 -0.4730  0.3555  0.0564
  608MOL0     C81947   7.845   4.128   4.090  0.3622  0.1402 -0.4904
  608MOL0     O81948   7.972   4.071   4.106 -0.9092 -0.6912  0.3603
  608MOL0     C81949   8.033   4.018   3.996  0.2272 -0.6149  0.1849
  608MOL0     C81950   7.971   3.930   3.906 -0.3183  0.4139 -0.9029
  608MOL0     C81951   8.035   3.888   3.788 -0.7350  0.3455  0.0463
  608MOL0     C81952   8.161   3.943   3.759  0.1278  0.1605  0.1222
  608MOL0     O81953   8.242   3.908   3.647 -0.0363  0.0165 -0.3428
  608MOL0     C81954   8.188   3.827   3.542 -0.1045  0.2702  0.4653
  608MOL0     C81955   8.284   3.813   3.426 -0.1122 -0.7350  0.7251
  608MOL0     C81956   8.420   3.771   3.485  0.9408 -0.1522  0.0045
  608MOL0     C81957   8.526   3.731   3.378  0.5836 -0.0892 -0.3158
  608MOL0     C81958   8.578   3.844   3.296 -0.5804 -0.0512 -0.0272
  608MOL0     C81959   8.663   3.795   3.173 -1.5426 -0.4122 -0.2428
  608MOL0     C81960   8.732   3.913   3.106 -0.1981  0.5514  0.3832
  608MOL0     C81961   8.788   3.875   2.965 -0.0438 -0.3389 -0.2378
  608MOL0     N81962   8.900   3.782   2.979  0.5918  0.1842  0.4405
  608MOL0     C81963   9.029   3.824   2.958  0.0159 -0.1268  0.1781
  608MOL0     C81964   9.104   3.723   2.979  0.2063  0.3150 -0.5982
  608MOL0     C81965   9.255   3.725   2.977  0.3758 -0.5331 -0.0299
  608MOL0     C81966   9.306   3.733   2.838 -0.6516 -0.3968  0.3987
  608MOL0     C81967   9.458   3.762   2.839  0.7150  0.6304  0.7534
  608MOL0     C81968   9.519   3.754   2.701  0.1034  0.0365  0.7484
  608MOL0     O81969   9.552   3.619   2.674 -0.2945 -0.3247 -0.5859
  608MOL0     C81970   9.639   3.602   2.569 -0.5989  0.0438 -0.8687
  608MOL0     C81971   9.612   3.647   2.437 -0.1772 -0.3352 -0.0053
  608MOL0     C81972   9.701   3.627   2.335 -0.8236 -0.7861 -0.3624
  608MOL0     C81973   9.829   3.570   2.358  0.8802  0.0837  0.4485
  608MOL0     C81974   9.924   3.553   2.244 -0.1345 -0.3596  0.3962
  608MOL0     O81975   9.990   3.436   2.246 -0.5542 -0.5139  0.8840
  608MOL0     C81976  10.104   3.425   2.161  0.7436  0.4294 -0.5900
  608MOL0     C81977  10.093   3.355   2.042  0.5923 -0.6422 -0.6320
  608MOL0     C81978  10.194   3.348   1.946  0.5597 -0.4982 -0.0480
  608MOL0     C81979  10.318   3.417   1.976 -0.5678 -0.0224  0.7164
  608MOL0     O81980  10.417   3.412   1.873 -0.1125 -0.7758  0.2695
  608MOL0     C81981  10.430   3.530   1.791  0.5020 -0.2779  0.5357
  608MOL0     C81982  10.542   3.498   1.684  0.1289  0.4391  0.2612
  608MOL0     C81983  10.590   3.619   1.602  0.4816  0.4582  0.7431
  608MOL0     C81984  10.707   3.584   1.497  0.0385 -0.7458  0.1911
  608MOL0     C81985  10.834   3.666   1.544 -0.2224 -0.9215 -0.6848
  608MOL0     C81986  10.950   3.650   1.442  0.0118 -0.0683  0.0748
  608MOL0     C81987  11.073   3.746   1.463  0.4084  0.5244 -1.0579
  608MOL0     C81988  11.151   3.712   1.588  0.0490  0.3542  0.3562
  608MOL0    Cl81989  11.269   3.839   1.611 -0.0246 -0.1811 -0.4818
  608MOL0     C81990  10.332   3.474   2.104  0.1381  0.6400  0.7685
  608MOL0     C81991  10.227   3.481   2.197  0.4573  0.3444 -0.1602
  608MOL0     O81992   9.934   3.645   2.160  0.5841  0.1017 -0.6713
  608MOL0     C81993   9.858   3.536   2.490  0.3738 -0.6241 -0.1660
  608MOL0     C81994   9.773   3.556   2.597  0.0820  0.4534  1.4416
  608MOL0     N81995   9.018   3.609   2.983 -0.1792 -0.0241 -0.4227
  608MOL0     N81996   8.902   3.644   2.973 -0.4082 -0.3865  0.0517
  608MOL0     C81997   8.228   4.020   3.852  1.0908  0.3762  1.1152
  608MOL0     C81998   8.163   4.065   3.965  0.7272  0.4143  0.0367
  608MOL0     C81999   7.781   4.165   4.223  1.1924  0.2168 -0.1777
  608MOL0     C82000   7.852   4.141   4.341  0.3649  0.4469 -0.3600
  608MOL0     C82001   7.803   4.184   4.461  0.1967  0.8992 -0.3726
  608MOL0     C82002   7.680   4.229   4.477  1.0958 -0.0484  0.2604
  608MOL0     O82003   7.630   4.261   4.602 -0.3032 -0.0339  0.0795
  608MOL0     C82004   7.643   4.159   4.707 -0.3763 -0.3479 -0.2592
  608MOL0     C82005   7.636   4.011   4.667 -0.7151 -0.3582 -0.2977
  608MOL0     C82006   7.519   3.975   4.571  0.2452 -0.1966  0.2345
  608MOL0     C82007   7.379   4.044   4.592  0.5971 -0.3644  0.3699
  608MOL0     C82008   7.339   4.028   4.726  0.1762  0.8254 -0.6342
  608MOL0     C82009   7.323   4.029   4.841  0.5669 -0.4912 -0.4026
  608MOL0     C82010   7.602   4.244   4.357  0.3779 -0.5430 -0.3150
  608MOL0     C82011   7.651   4.222   4.233  0.0140  0.1711  0.1383
  608MOL0     C82012   7.558   4.269   4.133 -0.3027 -0.5955 -0.4268
  608MOL0     H82013   7.873   3.894   3.935  2.0125 -5.2549  1.4261
  608MOL0     H82014   7.991   3.830   3.707  0.1639  0.5857 -0.6279
  608MOL0     H82015   8.178   3.721   3.567  2.6377 -1.0358 -3.0713
  608MOL0     H82016   8.091   3.870   3.515 -0.0372  0.2656  0.2108
  608MOL0     H82017   8.285   3.909   3.374  0.2695 -2.0085 -1.7794
  608MOL0     H82018   8.244   3.740   3.354 -1.9792  2.3492 -1.6202
  608MOL0     H82019   8.396   3.687   3.551 -2.8219 -0.2483 -1.2503
  608MOL0     H82020   8.467   3.856   3.535  0.8860  0.7529 -1.4293
  608MOL0     H82021   8.603   3.672   3.428 -0.6773 -1.5153  0.0251
  608MOL0     H82022   8.480   3.660   3.309 -0.2610  0.9073 -0.8072
  608MOL0     H82023   8.487   3.896   3.267 -1.0698  0.2456  1.9052
  608MOL0     H82024   8.644   3.908   3.355 -2.2110  0.8677  0.8413
  608MOL0     H82025   8.734   3.724   3.218 -1.0112  1.4310  2.0391
  608MOL0     H82026   8.600   3.748   3.097 -3.0716  0.1909  0.6131
  608MOL0     H82027   8.805   3.952   3.178  0.0413 -0.3743  0.6604
  608MOL0     H82028   8.659   3.991   3.085 -1.2837 -0.8631 -1.4239
  608MOL0     H82029   8.707   3.837   2.903 -0.4150  2.7485 -1.8340
  608MOL0     H82030   8.812   3.975   2.926  0.9336 -0.5238 -0.1500
  608MOL0     H82031   9.064   3.927   2.964 -3.0061  0.9425  4.6261
  608MOL0     H82032   9.272   3.821   3.027 -1.5139 -0.9070  1.4669
  608MOL0     H82033   9.307   3.648   3.035 -1.8891 -2.3056 -0.2258
  608MOL0     H82034   9.299   3.638   2.784  0.9651  0.0961 -0.7251
  608MOL0     H82035   9.255   3.812   2.783 -0.8154 -0.6416  0.1951
  608MOL0     H82036   9.513   3.684   2.893 -0.7408  0.0553  1.4475
  608MOL0     H82037   9.478   3.858   2.888  0.5811  0.6648  0.7413
  608MOL0     H82038   9.606   3.817   2.682  0.0466  0.3001  1.3436
  608MOL0     H82039   9.440   3.790   2.634  1.4775  0.7119 -0.5726
  608MOL0     H82040   9.509   3.682   2.432 -0.7317 -1.4502  2.1661
  608MOL0     H82041   9.688   3.654   2.230 -0.3590  3.1425  0.4135
  608MOL0     H82042   9.995   3.310   2.036 -0.9879  1.8004  2.9801
  608MOL0     H82043  10.173   3.291   1.856 -3.6241  0.5315  0.0719
  608MOL0     H82044  10.331   3.556   1.752 -0.4353 -3.0686  0.7721
  608MOL0     H82045  10.471   3.606   1.857  0.7475  0.2724 -0.2406
  608MOL0     H82046  10.632   3.470   1.740  0.0248 -3.6442 -1.2914
  608MOL0     H82047  10.508   3.413   1.624  0.1842  0.0543  0.7625
  608MOL0     H82048  10.504   3.657   1.546  0.6437 -2.5698 -1.8470
  608MOL0     H82049  10.628   3.684   1.681 -0.4263 -0.8045  2.2741
  608MOL0     H82050  10.687   3.611   1.393 -2.0199 -0.6449  0.5658
  608MOL0     H82051  10.733   3.478   1.498 -2.1665 -1.3829 -1.2138
  608MOL0     H82052  10.866   3.656   1.648  1.2898  1.2939 -0.8588
  608MOL0     H82053  10.808   3.772   1.553  1.2780 -0.7175  3.6610
  608MOL0     H82054  10.993   3.550   1.447  0.0153 -0.1400 -1.1013
  608MOL0     H82055  10.909   3.660   1.341  3.4468 -3.4047 -1.9146
  608MOL0     H82056  11.042   3.850   1.465  2.2660  1.1238 -1.4687
  608MOL0     H82057  11.145   3.741   1.381  1.6036  0.1508 -0.0162
  608MOL0     H82058  11.083   3.697   1.672 -0.1728 -0.9094 -0.0260
  608MOL0     H82059  11.196   3.615   1.563 -1.3051  0.4182 -2.8819
  608MOL0     H82060  10.425   3.513   2.143  0.6710  0.8861 -0.6714
  608MOL0     H82061  10.252   3.534   2.289 -0.4949  2.9099 -1.2980
  608MOL0     H82062   9.955   3.493   2.516 -0.8264 -2.0318  2.4001
  608MOL0     H82063   9.786   3.525   2.700  0.6079  0.0302  1.2516
  608MOL0     H82064   8.323   4.061   3.821  0.8701  1.3289  1.6606
  608MOL0     H82065   8.201   4.153   4.015 -0.6904  2.9131 -2.9625
  608MOL0     H82066   7.950   4.094   4.340 -0.2795 -0.9587  0.5788
  608MOL0     H82067   7.861   4.162   4.551  0.1055  1.6649 -0.1226
  608MOL0     H82068   7.557   4.190   4.767  0.5952  1.0950  0.4377
  608MOL0     H82069   7.738   4.178   4.757  0.4205  0.2341 -1.9144
  608MOL0     H82070   7.629   3.943   4.752  0.3099 -1.9987 -1.4607
  608MOL0     H82071   7.729   3.974   4.622  0.9594  1.6742  1.3089
  608MOL0     H82072   7.498   3.868   4.577  0.0934 -0.3804 -2.4084
  608MOL0     H82073   7.557   3.990   4.469 -0.9362 -1.4631 -0.4137
  608MOL0     H82074   7.372   4.148   4.560  2.6573 -1.1329 -3.1030
  608MOL0     H82075   7.324   3.977   4.526  0.4671  0.9554 -0.9006
  608MOL0     H82076   7.307   4.012   4.945  0.1218  1.3555 -0.1436
  608MOL0     H82077   7.500   4.280   4.366  0.0851 -1.6099  0.9850
  608MOL0     H82078   7.454   4.265   4.168  0.2691 -1.4750  1.2779
  608MOL0     H82079   7.585   4.371   4.106  0.6570 -0.4414  1.0380
  608MOL0     H82080   7.552   4.205   4.044 -1.5410 -1.3838  0.1819
  609MOL0     O82081  10.679  10.282   9.153  0.6892  0.0168 -0.3159
  609MOL0     C82082  10.585  10.257   9.072 -0.1316  0.5834 -0.2657
  609MOL0     O82083  10.601  10.242   8.939 -0.5950 -0.4418  0.2261
  609MOL0     C82084  10.727  10.265   8.878 -0.7097 -0.2495 -0.7474
  609MOL0     C82085  10.729  10.302   8.744 -0.9388  0.2940  0.5224
  609MOL0     C82086  10.849  10.328   8.677  0.3633 -0.7675  0.4718
  609MOL0     C82087  10.973  10.308   8.731 -0.0292  0.2870  0.3535
  609MOL0     O82088  11.077  10.343   8.650  0.3826  0.2657 -0.0992
  609MOL0     C82089  11.180  10.425   8.708  0.2077  0.0079  0.6707
  609MOL0     C82090  11.301  10.325   8.724 -0.0130 -0.3005 -0.4547
  609MOL0     C82091  11.414  10.389   8.806 -0.3054 -0.3908  0.4462
  609MOL0     C82092  11.493  10.469   8.703 -0.0339  0.5640 -0.2740
  609MOL0     C82093  11.631  10.508   8.773  0.8471  0.3324  0.5379
  609MOL0     C82094  11.715  10.598   8.695  0.5563 -0.4447 -0.1926
  609MOL0     C82095  11.862  10.602   8.730  0.0460 -0.4332  0.9958
  609MOL0     C82096  11.936  10.692   8.622  0.4008  1.0179  0.1496
  609MOL0     N82097  11.942  10.840   8.651 -0.8735  0.7525  0.4658
  609MOL0     C82098  11.969  10.936   8.563  0.4002  0.2138 -0.5455
  609MOL0     C82099  12.007  11.053   8.612 -0.6517  0.7353 -0.5905
  609MOL0     C82100  12.053  11.171   8.537  0.4990  0.6613  0.3712
  609MOL0     C82101  12.205  11.182   8.535  0.2969 -0.6560 -0.3267
  609MOL0     C82102  12.268  11.198   8.679 -0.0013 -0.4067  0.6355
  609MOL0     C82103  12.412  11.253   8.675 -0.9971  0.1563  0.8180
  609MOL0     O82104  12.507  11.169   8.601 -0.5296 -0.0824  0.0001
  609MOL0     C82105  12.642  11.201   8.602  0.2095  0.5907  0.5631
  609MOL0     C82106  12.699  11.325   8.647 -0.1322  0.7754 -0.8924
  609MOL0     C82107  12.833  11.348   8.645 -0.5657  0.3797  0.2634
  609MOL0     C82108  12.922  11.236   8.620  0.2773  0.5090 -0.6372
  609MOL0     C82109  13.067  11.252   8.608 -0.1672 -0.6294 -0.2030
  609MOL0     O82110  13.147  11.164   8.525 -0.1972  0.3750 -0.3351
  609MOL0     C82111  13.286  11.165   8.545 -0.3707 -0.1254 -0.7697
  609MOL0     C82112  13.348  11.094   8.646  0.0122 -1.1516 -0.2364
  609MOL0     C82113  13.486  11.084   8.665 -0.2680 -0.0018  0.9011
  609MOL0     C82114  13.574  11.141   8.567 -0.9037 -0.9714 -0.1010
  609MOL0     O82115  13.712  11.123   8.572  0.8390  0.4337  1.0846
  609MOL0     C82116  13.797  11.198   8.489  0.3568  0.0819  0.1823
  609MOL0     C82117  13.941  11.190   8.531 -0.4686 -0.0582 -0.8032
  609MOL0     C82118  13.987  11.043   8.550 -0.0055 -0.0620  0.3567
  609MOL0     C82119  14.134  11.017   8.600 -0.0074 -0.0997  0.0320
  609MOL0     C82120  14.141  10.908   8.711  0.2634  0.9025 -0.3416
  609MOL0     C82121  14.287  10.889   8.751 -0.4695  0.6240  0.4503
  609MOL0     C82122  14.370  10.801   8.655 -0.6704  0.2486 -0.6342
  609MOL0     C82123  14.424  10.674   8.727  0.0982 -0.2545 -0.2671
  609MOL0    Cl82124  14.294  10.561   8.761 -0.0815 -0.1004 -0.0758
  609MOL0     C82125  13.506  11.214   8.457 -1.2652  0.0615 -1.1560
  609MOL0     C82126  13.369  11.226   8.456 -0.0026 -0.2493 -0.3631
  609MOL0     O82127  13.109  11.347   8.664  0.1057  0.2910 -0.1589
  609MOL0     C82128  12.868  11.113   8.569  0.4405  0.1887  0.2218
  609MOL0     C82129  12.726  11.099   8.558 -0.3362 -0.6637 -0.1218
  609MOL0     N82130  12.018  11.021   8.749  0.2281  0.5507 -0.0239
  609MOL0     N82131  11.983  10.894   8.764 -0.4862 -0.0124  0.0946
  609MOL0     C82132  10.972  10.268   8.862  0.6352 -0.0117 -0.4741
  609MOL0     C82133  10.852  10.256   8.932 -0.1457 -0.9684  0.0153
  609MOL0     C82134  10.448  10.250   9.116 -0.5141 -0.4129 -0.5933
  609MOL0     C82135  10.355  10.196   9.028 -0.1416 -0.2097  0.3370
  609MOL0     C82136  10.225  10.190   9.061  0.7830  0.0132  0.0910
  609MOL0     C82137  10.177  10.250   9.177 -0.3417 -0.1304 -0.1824
  609MOL0     O82138  10.042  10.266   9.196  0.1606  0.5341  1.3634
  609MOL0     C82139   9.989  10.341   9.303 -0.1014  0.2852 -0.4720
  609MOL0     C82140   9.844  10.363   9.291 -0.2703 -0.4922  0.9249
  609MOL0     C82141   9.750  10.235   9.289  0.2495 -0.1214  0.1190
  609MOL0     C82142   9.603  10.272   9.288  0.6567  0.2092 -0.4121
  609MOL0     C82143   9.518  10.155   9.270 -0.4581 -0.3753 -0.4862
  609MOL0     C82144   9.454  10.056   9.286  0.5575  0.3606  0.0904
  609MOL0     C82145  10.269  10.296   9.268 -0.3874 -0.3025 -0.2474
  609MOL0     C82146  10.402  10.300   9.239 -0.5044  0.8174  0.3016
  609MOL0     C82147  10.493  10.347   9.339 -0.0989  0.9427 -0.6396
  609MOL0     H82148  10.631  10.311   8.698 -0.9641 -0.8451  0.3179
  609MOL0     H82149  10.849  10.370   8.577  1.7454  1.1265  1.1994
  609MOL0     H82150  11.211  10.509   8.645  0.9795  1.3552  2.7702
  609MOL0     H82151  11.141  10.467   8.801  1.4939  0.4011  1.0487
  609MOL0     H82152  11.331  10.287   8.626 -1.2556 -2.5095 -0.0391
  609MOL0     H82153  11.277  10.235   8.780  3.8117 -2.2063 -1.5161
  609MOL0     H82154  11.484  10.311   8.837  1.7796  0.6388 -1.4174
  609MOL0     H82155  11.386  10.455   8.889  0.8279  0.5670  0.0884
  609MOL0     H82156  11.514  10.410   8.614  0.5270  2.6668 -1.6069
  609MOL0     H82157  11.443  10.558   8.666  0.6311  1.7528  1.5399
  609MOL0     H82158  11.605  10.559   8.866  2.0624  1.7304  0.1523
  609MOL0     H82159  11.683  10.414   8.792  0.0262 -0.0433  0.9867
  609MOL0     H82160  11.715  10.562   8.591  1.0039  2.0189 -1.1064
  609MOL0     H82161  11.671  10.698   8.696 -1.3005 -1.2261 -0.3559
  609MOL0     H82162  11.908  10.504   8.733  1.1574  0.0344 -0.2056
  609MOL0     H82163  11.877  10.645   8.830 -0.8387  2.4840  0.0008
  609MOL0     H82164  12.038  10.657   8.604  0.1489  0.8488 -1.0544
  609MOL0     H82165  11.896  10.676   8.521  0.7033  0.0232  0.1813
  609MOL0     H82166  11.961  10.932   8.455  0.6123  2.6574 -0.6959
  609MOL0     H82167  12.023  11.165   8.432  2.1540  1.5792 -0.1852
  609MOL0     H82168  12.014  11.268   8.571 -2.0193  1.5074 -4.2170
  609MOL0     H82169  12.259  11.099   8.489 -1.0576 -1.7775  0.0441
  609MOL0     H82170  12.235  11.276   8.487  2.1437 -2.1479 -2.2610
  609MOL0     H82171  12.252  11.100   8.725 -1.5428 -0.5696 -0.1939
  609MOL0     H82172  12.215  11.274   8.738 -0.5028 -0.6914  0.5525
  609MOL0     H82173  12.445  11.270   8.778 -0.6971  1.1231  0.5760
  609MOL0     H82174  12.408  11.348   8.621 -0.2347  0.2421  0.8967
  609MOL0     H82175  12.635  11.401   8.692 -1.2560 -0.7845  0.2442
  609MOL0     H82176  12.871  11.443   8.682 -0.6686  0.2520  0.7039
  609MOL0     H82177  13.276  11.035   8.702  1.3455 -2.4539  0.1937
  609MOL0     H82178  13.530  11.030   8.748 -1.1598  0.9643  2.0405
  609MOL0     H82179  13.790  11.176   8.383  0.9153 -0.1091  0.1828
  609MOL0     H82180  13.768  11.303   8.500 -0.5580  0.0997 -1.9704
  609MOL0     H82181  13.996  11.246   8.455 -0.0633  2.3715  1.1600
  609MOL0     H82182  13.961  11.243   8.625 -1.9515  3.8211 -2.4532
  609MOL0     H82183  13.916  11.003   8.623 -0.0736 -1.5318 -0.4762
  609MOL0     H82184  13.970  10.991   8.455  0.4596  1.3158 -0.5154
  609MOL0     H82185  14.182  11.107   8.640 -0.8897 -1.2561  4.1595
  609MOL0     H82186  14.200  10.988   8.518 -1.3042 -2.6232 -0.2171
  609MOL0     H82187  14.098  10.817   8.668  1.3579 -0.0327  0.4885
  609MOL0     H82188  14.082  10.937   8.799  1.2676  1.4984  0.1601
  609MOL0     H82189  14.340  10.985   8.743  2.2986 -0.7950  0.4717
  609MOL0     H82190  14.282  10.835   8.846 -1.9405 -1.7668 -0.8794
  609MOL0     H82191  14.458  10.855   8.618  0.0701 -1.0495 -0.8186
  609MOL0     H82192  14.307  10.768   8.572 -1.3297 -1.0633  0.3454
  609MOL0     H82193  14.505  10.632   8.666  0.5482  3.0556 -2.1868
  609MOL0     H82194  14.466  10.705   8.823  1.5663  0.9640 -1.2588
  609MOL0     H82195  13.571  11.252   8.379 -1.2603 -1.2545 -1.8170
  609MOL0     H82196  13.321  11.278   8.374 -2.5977 -2.6719 -0.5406
  609MOL0     H82197  12.936  11.036   8.534 -0.9726 -0.6301 -0.8515
  609MOL0     H82198  12.692  11.002   8.526 -1.4255 -0.3099 -0.0834
  609MOL0     H82199  11.063  10.269   8.921 -1.4702 -0.4355  3.0687
  609MOL0     H82200  10.871  10.239   9.038 -0.9273  1.4873  0.6128
  609MOL0     H82201  10.375  10.163   8.926  0.0720 -1.2361  0.6989
  609MOL0     H82202  10.158  10.145   8.989  2.2835  1.4621 -2.3634
  609MOL0     H82203  10.048  10.432   9.312  1.9589 -1.0756  0.5692
  609MOL0     H82204   9.999  10.288   9.398 -2.4239  0.5176 -0.0526
  609MOL0     H82205   9.844  10.423   9.200  2.9396 -1.2166  0.3039
  609MOL0     H82206   9.820  10.411   9.386 -1.1093 -1.2314  1.1048
  609MOL0     H82207   9.769  10.173   9.377 -1.4636 -0.1231  0.5174
  609MOL0     H82208   9.775  10.165   9.209 -1.1397 -1.2995  0.6799
  609MOL0     H82209   9.560  10.326   9.373 -0.2895 -0.4977 -0.4319
  609MOL0     H82210   9.592  10.333   9.198  0.0932 -2.5891 -2.3475
  609MOL0     H82211   9.398   9.970   9.320  1.3865 -0.4115 -0.4401
  609MOL0     H82212  10.241  10.343   9.362  3.3134  0.1224  0.7988
  609MOL0     H82213  10.450  10.390   9.430  0.9134  0.9920 -0.1759
  609MOL0     H82214  10.558  10.269   9.380  0.6849  1.2647 -1.2409
  609MOL0     H82215  10.558  10.425   9.298 -0.0028  1.2036 -0.0065
  610MOL0     O82216   0.959   6.154   6.822  0.0140 -0.4688  0.0360
  610MOL0     C82217   0.903   6.239   6.891 -0.3715  0.7489 -0.2044
  610MOL0     O82218   0.952   6.360   6.921  0.8425  0.6417  0.3800
  610MOL0     C82219   1.086   6.386   6.913 -0.1336  0.2615  0.9689
  610MOL0     C82220   1.176   6.288   6.961 -0.6250 -0.4212 -0.3385
  610MOL0     C82221   1.314   6.314   6.953  0.2220 -0.7765 -0.2101
  610MOL0     C82222   1.364   6.430   6.886 -1.3132  0.7483  0.0001
  610MOL0     O82223   1.503   6.449   6.880 -0.4212 -0.7744  0.5058
  610MOL0     C82224   1.582   6.453   7.003  0.5952  0.0731 -0.4025
  610MOL0     C82225   1.704   6.537   7.011  0.3585  0.3191 -0.2476
  610MOL0     C82226   1.771   6.537   6.867 -0.0880  0.1252  0.0806
  610MOL0     C82227   1.908   6.603   6.853  0.7801  0.2597 -0.0461
  610MOL0     C82228   2.010   6.583   6.963 -0.1105 -0.0620  0.2877
  610MOL0     C82229   2.135   6.661   6.949  0.0290  0.0010 -0.4377
  610MOL0     C82230   2.209   6.683   7.084 -0.0469  0.1066  0.1115
  610MOL0     C82231   2.332   6.763   7.054 -0.1964  0.4129  0.8169
  610MOL0     N82232   2.426   6.790   7.169 -0.0108 -0.2361  0.3347
  610MOL0     C82233   2.388   6.832   7.300 -0.4217 -0.3224  0.4908
  610MOL0     C82234   2.512   6.847   7.359 -0.0572 -0.1952  0.7515
  610MOL0     C82235   2.540   6.921   7.490  0.2054 -0.3703  0.8318
  610MOL0     C82236   2.436   6.892   7.594  1.1232 -0.2461  0.3966
  610MOL0     C82237   2.493   6.861   7.732 -1.1608 -1.1445 -0.6402
  610MOL0     C82238   2.507   6.983   7.830 -0.7183  0.4063 -0.0500
  610MOL0     O82239   2.605   7.074   7.780  0.2959  0.1300 -0.2085
  610MOL0     C82240   2.731   7.032   7.771  0.0542  0.8073  0.2778
  610MOL0     C82241   2.804   6.939   7.851 -0.5935  0.2630  0.2541
  610MOL0     C82242   2.935   6.915   7.810  0.8396 -0.0314  1.0255
  610MOL0     C82243   3.005   6.970   7.702 -0.0073  0.1596  0.2049
  610MOL0     C82244   3.146   6.941   7.673  0.3760 -0.7942  0.3049
  610MOL0     O82245   3.225   6.896   7.777  0.0024  0.8144  0.1981
  610MOL0     C82246   3.342   6.833   7.734 -0.1757  0.2896 -0.4195
  610MOL0     C82247   3.458   6.857   7.817  0.1109 -0.0766  0.5670
  610MOL0     C82248   3.575   6.795   7.784 -0.2911  0.1090 -0.0210
  610MOL0     C82249   3.580   6.695   7.682 -0.4348  0.5853  0.2377
  610MOL0     O82250   3.695   6.637   7.649 -0.3569 -0.1747  0.3308
  610MOL0     C82251   3.813   6.707   7.695 -0.2714  0.0254 -0.3556
  610MOL0     C82252   3.933   6.651   7.611  0.4717  0.5030 -0.1458
  610MOL0     C82253   4.067   6.728   7.641 -0.4081  0.7058  0.2590
  610MOL0     C82254   4.196   6.651   7.605  0.4013  0.0637  0.5347
  610MOL0     C82255   4.321   6.724   7.646 -0.4338  0.6434  0.2026
  610MOL0     C82256   4.448   6.644   7.620 -1.2058  1.2962 -0.1874
  610MOL0     C82257   4.490   6.653   7.473  0.2638 -0.0115  0.3634
  610MOL0     C82258   4.615   6.576   7.431  0.0849  0.1729  0.6052
  610MOL0    Cl82259   4.564   6.404   7.407 -0.0420 -0.3064  0.1912
  610MOL0     C82260   3.467   6.663   7.610 -0.5712 -0.6079  0.9831
  610MOL0     C82261   3.346   6.730   7.633 -0.5831 -0.2068  0.6895
  610MOL0     O82262   3.181   6.966   7.559 -0.2976  0.3124 -0.0611
  610MOL0     C82263   2.932   7.063   7.631  0.5884  0.6388  1.3633
  610MOL0     C82264   2.800   7.092   7.656  0.0008 -0.1059 -0.3238
  610MOL0     N82265   2.615   6.823   7.275 -0.4918 -0.9591  0.1756
  610MOL0     N82266   2.560   6.788   7.157 -0.6975  0.1980  0.1465
  610MOL0     C82267   1.278   6.519   6.841 -0.1842 -0.1203 -0.4836
  610MOL0     C82268   1.134   6.497   6.847  0.1155 -0.2928 -0.1234
  610MOL0     C82269   0.764   6.209   6.927 -0.7514 -0.4337 -0.4035
  610MOL0     C82270   0.688   6.099   6.878 -0.0712 -0.3940 -0.5954
  610MOL0     C82271   0.560   6.077   6.920  0.1850 -0.3498  0.3837
  610MOL0     C82272   0.490   6.162   7.004 -1.4389 -0.0657 -0.1918
  610MOL0     O82273   0.360   6.139   7.029  0.1439  0.0115 -0.2982
  610MOL0     C82274   0.275   6.248   7.062  0.2422  0.1246  0.0415
  610MOL0     C82275   0.125   6.211   7.044 -0.2161 -0.2817 -0.6159
  610MOL0     C82276   0.085   6.063   7.099 -0.4423 -0.2284  0.0692
  610MOL0     C82277  -0.056   6.024   7.055 -1.2191  0.4934  0.0751
  610MOL0     C82278  -0.102   5.898   7.114 -0.5104  0.3769 -0.0957
  610MOL0     C82279  -0.137   5.798   7.177  0.4768  0.1658 -0.5218
  610MOL0     C82280   0.560   6.280   7.035  0.3911 -1.1054  0.4779
  610MOL0     C82281   0.688   6.306   7.007  0.2952 -0.1345  0.6511
  610MOL0     C82282   0.738   6.435   7.072  0.0011  0.9542  0.3006
  610MOL0     H82283   1.130   6.200   7.006 -1.8284 -0.1695 -1.0068
  610MOL0     H82284   1.381   6.238   6.992 -0.7571 -1.2909  0.4951
  610MOL0     H82285   1.506   6.486   7.075 -1.2333 -0.4333 -2.0336
  610MOL0     H82286   1.622   6.352   7.016  0.7899  0.2127  0.1277
  610MOL0     H82287   1.768   6.497   7.091  2.6746 -0.8563 -2.5483
  610MOL0     H82288   1.673   6.639   7.035  1.6125  0.8496 -0.8163
  610MOL0     H82289   1.709   6.585   6.791  2.6248  0.3183 -2.1603
  610MOL0     H82290   1.807   6.435   6.848  1.3263  0.9304 -1.8616
  610MOL0     H82291   1.950   6.578   6.755  1.3063  2.3980 -0.4093
  610MOL0     H82292   1.891   6.711   6.848 -1.5006 -0.0603 -0.4564
  610MOL0     H82293   1.960   6.617   7.054 -1.2119 -0.9298  0.0296
  610MOL0     H82294   2.036   6.478   6.979 -0.7636 -0.1324  0.9477
  610MOL0     H82295   2.197   6.606   6.878 -1.4474 -0.4126 -1.4502
  610MOL0     H82296   2.100   6.752   6.899 -1.9076  0.4404  1.5771
  610MOL0     H82297   2.235   6.584   7.123  1.5571 -0.1984 -1.6303
  610MOL0     H82298   2.143   6.736   7.153 -1.5276  0.8320 -1.7811
  610MOL0     H82299   2.393   6.710   6.981  2.5667  0.5429  2.8755
  610MOL0     H82300   2.304   6.858   7.008 -0.1366  0.1825  0.3086
  610MOL0     H82301   2.286   6.854   7.328  0.2786 -0.0853  3.1874
  610MOL0     H82302   2.639   6.884   7.520  0.5152 -4.4041 -3.9303
  610MOL0     H82303   2.545   7.028   7.466 -0.3725 -0.7155 -0.9920
  610MOL0     H82304   2.368   6.977   7.604  1.7373  0.3855 -0.6171
  610MOL0     H82305   2.380   6.803   7.565 -0.2058  0.0895  1.7982
  610MOL0     H82306   2.594   6.820   7.730 -2.1903 -3.9377 -2.9740
  610MOL0     H82307   2.421   6.795   7.780 -0.8803 -1.4864 -0.6856
  610MOL0     H82308   2.545   6.944   7.924  1.7184 -1.1615 -1.5758
  610MOL0     H82309   2.419   7.045   7.849 -0.3762  0.5831  0.9934
  610MOL0     H82310   2.764   6.882   7.935 -2.5054  1.3466  0.1397
  610MOL0     H82311   2.982   6.840   7.873 -1.4690 -2.0300  0.5136
  610MOL0     H82312   3.443   6.918   7.906  0.2583 -2.2664  2.1897
  610MOL0     H82313   3.658   6.811   7.853 -1.1620 -0.7709  1.2847
  610MOL0     H82314   3.800   6.813   7.671 -1.1766  0.2473  1.0023
  610MOL0     H82315   3.829   6.687   7.802 -1.1711 -1.4050 -0.4596
  610MOL0     H82316   3.945   6.545   7.637 -0.0691  0.2331 -0.9584
  610MOL0     H82317   3.898   6.661   7.508 -2.6434 -0.1248  0.7603
  610MOL0     H82318   4.065   6.830   7.602 -0.5611  1.1054  1.2958
  610MOL0     H82319   4.070   6.748   7.748  4.1045 -1.9051  0.8903
  610MOL0     H82320   4.188   6.631   7.498  0.8522 -3.0033  0.9870
  610MOL0     H82321   4.198   6.555   7.658  3.5359 -0.3338 -0.1611
  610MOL0     H82322   4.298   6.743   7.752 -0.9397 -0.9549  0.4034
  610MOL0     H82323   4.321   6.823   7.598 -0.8764  0.7629  0.4383
  610MOL0     H82324   4.528   6.670   7.691  0.0082 -4.1408  0.8747
  610MOL0     H82325   4.428   6.538   7.637 -1.6799  1.4487  0.2198
  610MOL0     H82326   4.488   6.759   7.447 -1.5208  0.3092  1.5898
  610MOL0     H82327   4.415   6.599   7.415  0.0398 -2.5048  2.7352
  610MOL0     H82328   4.653   6.628   7.342 -5.0206  1.7422 -0.9894
  610MOL0     H82329   4.685   6.589   7.514  0.8341  0.3359 -0.0291
  610MOL0     H82330   3.472   6.582   7.537  0.6917  0.5384 -0.2669
  610MOL0     H82331   3.258   6.692   7.583 -0.2004 -0.1397 -0.0604
  610MOL0     H82332   2.974   7.122   7.551 -3.5580  1.0025 -0.8611
  610MOL0     H82333   2.748   7.156   7.586  1.2989  2.2469  0.7553
  610MOL0     H82334   1.315   6.614   6.804  0.8268 -0.1228  0.4722
  610MOL0     H82335   1.073   6.578   6.809  1.1391  1.7766  2.3478
  610MOL0     H82336   0.743   6.038   6.808  0.5747 -0.3131 -0.1626
  610MOL0     H82337   0.520   5.982   6.888 -0.6111  0.9676 -2.9252
  610MOL0     H82338   0.302   6.334   7.001  0.8059 -1.5162 -2.1418
  610MOL0     H82339   0.296   6.274   7.166 -1.0119 -3.1590  1.2675
  610MOL0     H82340   0.100   6.203   6.938 -1.3631  0.4885 -0.4165
  610MOL0     H82341   0.053   6.281   7.087  1.1582  0.1644  1.0593
  610MOL0     H82342   0.093   6.049   7.207 -1.0737  1.0680  0.2987
  610MOL0     H82343   0.152   5.986   7.060 -0.3336  0.2172 -0.6471
  610MOL0     H82344  -0.129   6.100   7.084 -2.0796  0.7800 -2.6101
  610MOL0     H82345  -0.055   6.019   6.946  4.8217  2.2576 -0.3015
  610MOL0     H82346  -0.180   5.707   7.215 -0.8614 -0.0704 -2.4966
  610MOL0     H82347   0.502   6.340   7.105  1.5247  1.9904 -1.0309
  610MOL0     H82348   0.761   6.502   6.988  0.3512 -1.0568 -1.2836
  610MOL0     H82349   0.662   6.478   7.138  1.1013 -0.1024  2.3385
  610MOL0     H82350   0.826   6.421   7.135 -0.9628  1.3248  1.7804
  611MOL0     O82351   5.150   6.055  10.074 -0.1580 -0.1206  0.3803
  611MOL0     C82352   5.088   6.141  10.012  1.3905 -1.0744  0.6508
  611MOL0     O82353   5.072   6.153   9.875  0.4581 -0.3165  0.5239
  611MOL0     C82354   5.149   6.084   9.781 -0.1865 -0.1842 -0.0071
  611MOL0     C82355   5.108   6.076   9.645 -0.1289 -0.2757 -0.3780
  611MOL0     C82356   5.189   6.015   9.548 -0.4119 -0.0411  0.6369
  611MOL0     C82357   5.309   5.962   9.574  0.1276  0.0535  0.7438
  611MOL0     O82358   5.389   5.906   9.476  0.4046 -0.0985  0.1693
  611MOL0     C82359   5.433   5.980   9.365  0.5843 -1.0469  0.4833
  611MOL0     C82360   5.535   5.884   9.297  0.8476  0.0275  0.1114
  611MOL0     C82361   5.626   5.954   9.198  0.0898  0.3377 -0.1090
  611MOL0     C82362   5.547   5.956   9.064  0.0790  0.0009  0.4632
  611MOL0     C82363   5.637   5.992   8.946 -0.7012  0.5811  0.1536
  611MOL0     C82364   5.668   6.138   8.962 -0.9498  0.0669 -0.3514
  611MOL0     C82365   5.744   6.183   8.833 -0.1161 -0.1389  0.6890
  611MOL0     C82366   5.733   6.336   8.829 -0.2705  0.1927  0.0424
  611MOL0     N82367   5.800   6.402   8.717 -0.4022  0.3424  0.5844
  611MOL0     C82368   5.929   6.380   8.685  0.5348 -0.4344  0.2305
  611MOL0     C82369   5.951   6.457   8.579 -0.1023  0.5790  0.3808
  611MOL0     C82370   6.075   6.466   8.491 -1.3719 -0.3673 -0.7038
  611MOL0     C82371   6.208   6.447   8.562  0.3604  0.6942  0.2977
  611MOL0     C82372   6.256   6.565   8.634  0.0019  0.5753  0.7226
  611MOL0     C82373   6.399   6.562   8.672 -0.2422 -0.2815  1.0404
  611MOL0     O82374   6.430   6.692   8.729 -0.2704  0.2952 -0.3509
  611MOL0     C82375   6.561   6.742   8.732  0.9218 -0.4491 -0.0249
  611MOL0     C82376   6.671   6.663   8.712  0.1761 -0.3153  0.1235
  611MOL0     C82377   6.800   6.714   8.740 -0.6009 -0.4597  0.3601
  611MOL0     C82378   6.820   6.835   8.798 -1.4152 -0.2780  0.4326
  611MOL0     C82379   6.959   6.879   8.840  0.3275  0.1378  0.2956
  611MOL0     O82380   7.046   6.773   8.859  0.4341  0.3145  0.1125
  611MOL0     C82381   7.156   6.799   8.939  0.3277  0.5788  1.1773
  611MOL0     C82382   7.154   6.834   9.074 -0.7111  0.4546  0.6135
  611MOL0     C82383   7.267   6.863   9.140  0.3584 -0.2826 -0.9419
  611MOL0     C82384   7.391   6.850   9.079  0.2297 -0.2833 -1.4585
  611MOL0     O82385   7.504   6.896   9.147 -0.6848 -0.5181 -0.3579
  611MOL0     C82386   7.634   6.850   9.106 -0.3782  0.2649  0.1510
  611MOL0     C82387   7.738   6.918   9.188  0.2974 -0.3029 -0.4051
  611MOL0     C82388   7.882   6.887   9.136  0.1672 -0.7288 -0.0658
  611MOL0     C82389   7.986   6.987   9.194  0.2237  0.1010  0.2824
  611MOL0     C82390   8.006   6.963   9.341 -0.5791 -0.3916  0.8361
  611MOL0     C82391   8.145   7.020   9.380  0.1018  0.3286  0.0280
  611MOL0     C82392   8.178   6.966   9.517  0.2993 -0.0707  0.8028
  611MOL0     C82393   8.325   7.004   9.555 -0.0090 -0.8888 -0.8570
  611MOL0    Cl82394   8.456   6.939   9.449  0.3181  0.0033 -0.4754
  611MOL0     C82395   7.404   6.783   8.957  0.6314  0.4841  0.2281
  611MOL0     C82396   7.280   6.764   8.889  0.1172  0.8405  0.2462
  611MOL0     O82397   6.984   6.995   8.875  0.2758 -0.3413  0.3629
  611MOL0     C82398   6.708   6.921   8.822 -0.3520  1.4170 -0.8495
  611MOL0     C82399   6.576   6.870   8.792 -0.3579  0.3569  0.3152
  611MOL0     N82400   5.833   6.516   8.531 -0.4066 -0.0020 -0.0776
  611MOL0     N82401   5.749   6.480   8.621  0.1845  0.4133 -0.0267
  611MOL0     C82402   5.354   5.972   9.707 -0.6641  0.2050  0.2645
  611MOL0     C82403   5.281   6.036   9.805  1.2525  0.5525  0.5374
  611MOL0     C82404   5.006   6.251  10.092 -0.4570  0.4444 -0.1417
  611MOL0     C82405   4.905   6.324  10.024  0.0347  0.0971 -0.4670
  611MOL0     C82406   4.813   6.398  10.095 -0.7279 -0.3488 -0.3699
  611MOL0     C82407   4.817   6.410  10.234  0.1932  0.1564 -1.2596
  611MOL0     O82408   4.697   6.462  10.280 -0.1831 -0.3508  0.2178
  611MOL0     C82409   4.672   6.450  10.418  0.4929 -0.0383  0.3649
  611MOL0     C82410   4.540   6.496  10.456  0.7048 -0.0682  0.3271
  611MOL0     C82411   4.535   6.638  10.493  0.3690 -0.2026 -0.5368
  611MOL0     C82412   4.599   6.670  10.626  0.5755 -0.0448 -0.2583
  611MOL0     C82413   4.519   6.614  10.739  0.4026 -0.2630 -0.2347
  611MOL0     C82414   4.461   6.568  10.837  0.1451  0.4842 -0.1894
  611MOL0     C82415   4.912   6.329  10.307 -0.3723 -0.7824 -0.8148
  611MOL0     C82416   5.007   6.251  10.237  0.0186 -0.5870  0.3205
  611MOL0     C82417   5.109   6.191  10.332 -0.7812  0.4772  0.2365
  611MOL0     H82418   5.012   6.117   9.616 -0.3316 -1.7167 -1.9036
  611MOL0     H82419   5.145   6.002   9.449  0.5444  0.4316  0.1328
  611MOL0     H82420   5.348   6.007   9.302 -0.6352 -0.5076  2.2661
  611MOL0     H82421   5.482   6.072   9.399  0.0631 -0.2606 -0.8071
  611MOL0     H82422   5.477   5.805   9.249 -1.0078  1.8045 -0.7138
  611MOL0     H82423   5.600   5.845   9.375  0.5171  2.3412  1.6488
  611MOL0     H82424   5.713   5.890   9.186 -0.6769 -1.3448  2.4137
  611MOL0     H82425   5.664   6.049   9.236  1.4586 -0.8418  1.6207
  611MOL0     H82426   5.504   5.858   9.039  2.6555 -0.7462 -1.4729
  611MOL0     H82427   5.458   6.019   9.068 -0.6216 -0.6564 -2.2081
  611MOL0     H82428   5.721   5.924   8.936 -1.2924 -0.5061  2.0822
  611MOL0     H82429   5.574   5.978   8.858 -4.3960  1.2329  2.4481
  611MOL0     H82430   5.579   6.202   8.970  1.3924  3.4517  0.7660
  611MOL0     H82431   5.723   6.158   9.054 -1.1675 -0.4737 -0.1011
  611MOL0     H82432   5.696   6.143   8.743 -0.4404  0.2294  0.6961
  611MOL0     H82433   5.852   6.166   8.839 -0.0682 -0.8353 -1.2444
  611MOL0     H82434   5.625   6.352   8.836 -0.3730 -1.1253  2.7521
  611MOL0     H82435   5.771   6.380   8.922 -1.7422  0.4859  0.5370
  611MOL0     H82436   5.995   6.322   8.748  1.7868  2.4636  1.7791
  611MOL0     H82437   6.076   6.391   8.411  0.9754 -0.0424 -1.0483
  611MOL0     H82438   6.084   6.566   8.447  2.8818 -0.5700 -0.7249
  611MOL0     H82439   6.203   6.365   8.634  0.7200 -0.1583 -0.6295
  611MOL0     H82440   6.277   6.420   8.482 -2.3445 -1.7108 -1.4147
  611MOL0     H82441   6.193   6.587   8.721  0.2918  0.4635  0.9615
  611MOL0     H82442   6.251   6.647   8.562  0.5520  1.2984  1.4776
  611MOL0     H82443   6.463   6.551   8.584 -3.2227 -1.1159 -1.2255
  611MOL0     H82444   6.411   6.477   8.739 -0.4810 -2.0615 -1.0507
  611MOL0     H82445   6.667   6.570   8.656 -1.8547  0.9874 -2.0837
  611MOL0     H82446   6.882   6.645   8.720 -1.5112 -1.4676 -0.0240
  611MOL0     H82447   7.058   6.855   9.120 -0.4067  0.5336  1.2235
  611MOL0     H82448   7.255   6.912   9.236 -2.2971  1.3730 -2.0183
  611MOL0     H82449   7.652   6.744   9.129  1.8390  0.5389 -0.1084
  611MOL0     H82450   7.646   6.874   9.000 -3.4531 -0.1955 -0.4067
  611MOL0     H82451   7.708   7.023   9.185  0.1403 -0.3658 -1.2373
  611MOL0     H82452   7.731   6.877   9.289 -0.4469 -0.1905 -0.4044
  611MOL0     H82453   7.914   6.789   9.173 -0.6684 -1.2604 -0.7199
  611MOL0     H82454   7.888   6.884   9.027  0.3617 -1.9767 -0.0361
  611MOL0     H82455   7.950   7.089   9.177  0.1042 -0.0822 -0.6147
  611MOL0     H82456   8.079   6.973   9.139  1.2148  0.0258  1.9218
  611MOL0     H82457   7.999   6.858   9.368 -0.5726 -0.1342  1.8625
  611MOL0     H82458   7.942   7.023   9.407  0.7624  1.0250  0.9194
  611MOL0     H82459   8.217   6.979   9.308  0.4130  0.9505 -0.0180
  611MOL0     H82460   8.137   7.128   9.364  2.6540  0.8634  1.7555
  611MOL0     H82461   8.173   6.857   9.517 -0.1726 -0.1148  3.8094
  611MOL0     H82462   8.103   7.002   9.587  0.5325  0.0655  0.9833
  611MOL0     H82463   8.338   7.111   9.569  1.2601 -1.1505  0.2057
  611MOL0     H82464   8.338   6.961   9.655 -1.5726  2.7546  1.0859
  611MOL0     H82465   7.496   6.764   8.902  1.3608  1.4135  1.0808
  611MOL0     H82466   7.277   6.723   8.788  3.5225 -0.3249  0.5008
  611MOL0     H82467   6.719   7.022   8.860  0.0152  1.2915 -0.6108
  611MOL0     H82468   6.488   6.920   8.832  0.0896  3.3045 -1.9685
  611MOL0     H82469   5.447   5.926   9.739  0.4390  0.2762 -2.5534
  611MOL0     H82470   5.321   6.032   9.905  0.5251 -0.6866  0.8121
  611MOL0     H82471   4.896   6.319   9.915 -2.2486  0.6146 -0.3601
  611MOL0     H82472   4.736   6.457  10.045 -0.9526  1.8866  2.3765
  611MOL0     H82473   4.745   6.496  10.486  1.6631 -0.5426 -0.5239
  611MOL0     H82474   4.685   6.343  10.434 -0.4042 -0.2697 -0.4164
  611MOL0     H82475   4.495   6.430  10.532  2.4627 -4.1783 -1.8544
  611MOL0     H82476   4.471   6.473  10.374 -0.6371  0.8702  1.1491
  611MOL0     H82477   4.431   6.669  10.509  0.8720  0.4326  1.9591
  611MOL0     H82478   4.567   6.689  10.401 -1.4114  1.0288 -0.5360
  611MOL0     H82479   4.699   6.628  10.642  0.8597  0.6844 -0.1016
  611MOL0     H82480   4.619   6.777  10.630  0.1478 -0.0107  1.7177
  611MOL0     H82481   4.418   6.513  10.918  0.2668 -1.2098 -1.2346
  611MOL0     H82482   4.907   6.322  10.416 -0.8674  2.5569 -0.5233
  611MOL0     H82483   5.098   6.084  10.350  0.3924  0.3003 -0.0648
  611MOL0     H82484   5.206   6.215  10.290 -1.4783  3.0307 -0.0855
  611MOL0     H82485   5.115   6.236  10.432 -1.4228 -0.3574  0.6673
  612MOL0     O82486   9.755   5.852  10.439  0.0309  0.3683  0.4076
  612MOL0     C82487   9.814   5.755  10.390  0.9266  0.1693  0.9573
  612MOL0     O82488   9.759   5.656  10.300 -0.4212  0.2533  0.1951
  612MOL0     C82489   9.629   5.686  10.266 -0.5213  0.2160 -0.5166
  612MOL0     C82490   9.525   5.698  10.362 -0.2878 -0.6728  0.0097
  612MOL0     C82491   9.385   5.724  10.326 -0.8798 -0.2972 -0.8907
  612MOL0     C82492   9.356   5.747  10.193  0.2684  0.3725 -0.3546
  612MOL0     O82493   9.224   5.764  10.163  0.3525 -0.2830 -0.3985
  612MOL0     C82494   9.186   5.803  10.028 -0.0582 -0.1731  0.2469
  612MOL0     C82495   9.032   5.835  10.004 -0.7953  0.1588 -0.3429
  612MOL0     C82496   8.951   5.712  10.018  0.7127 -0.2008 -0.4268
  612MOL0     C82497   8.801   5.723   9.964 -0.0161 -0.2338  0.2423
  612MOL0     C82498   8.722   5.613  10.019  0.4851 -0.3265 -0.4104
  612MOL0     C82499   8.585   5.614   9.960  0.5034 -0.1233 -0.2658
  612MOL0     C82500   8.485   5.548  10.060 -0.3472  0.0178 -0.3597
  612MOL0     C82501   8.500   5.394  10.085 -0.8567  0.1743 -0.6489
  612MOL0     N82502   8.374   5.359  10.163  0.3145  0.4872  0.8808
  612MOL0     C82503   8.253   5.341  10.100  0.9492 -0.9632  0.0151
  612MOL0     C82504   8.170   5.280  10.193 -0.0646 -1.6273 -1.1499
  612MOL0     C82505   8.026   5.242  10.174  0.1714 -0.2495  0.1103
  612MOL0     C82506   7.935   5.356  10.116 -0.9424  0.2131  0.2165
  612MOL0     C82507   7.930   5.481  10.191 -0.0768 -0.0108 -0.2794
  612MOL0     C82508   7.888   5.605  10.109 -0.0846  0.5621 -0.3388
  612MOL0     O82509   7.984   5.654  10.019  0.5919 -0.4690 -0.5153
  612MOL0     C82510   8.088   5.720  10.074  0.2238  0.0342 -0.0705
  612MOL0     C82511   8.119   5.738  10.217  0.3084 -0.0616  0.4862
  612MOL0     C82512   8.224   5.814  10.258 -1.1858 -0.9142  0.0966
  612MOL0     C82513   8.314   5.868  10.161  0.4807 -0.0003 -0.3922
  612MOL0     C82514   8.428   5.953  10.203 -1.1680 -0.4881  0.0511
  612MOL0     O82515   8.523   5.965  10.104  0.1734  0.8452  0.8968
  612MOL0     C82516   8.640   6.020  10.151  0.4326  0.8864 -0.3460
  612MOL0     C82517   8.723   5.936  10.225 -0.2885 -0.1724  0.5637
  612MOL0     C82518   8.829   5.992  10.286  0.3192 -0.2157 -0.6282
  612MOL0     C82519   8.863   6.125  10.277 -0.4796  1.2184  0.2000
  612MOL0     O82520   8.970   6.183  10.330  0.0079 -0.3346 -0.3216
  612MOL0     C82521   9.017   6.147  10.458 -1.1083  0.4598  0.2732
  612MOL0     C82522   9.123   6.245  10.521 -0.4204  0.1330  0.0917
  612MOL0     C82523   9.260   6.244  10.461 -0.2037  0.0375  0.5799
  612MOL0     C82524   9.316   6.099  10.437  0.1122  0.5152  0.2190
  612MOL0     C82525   9.469   6.102  10.415 -1.1049  0.0414 -0.5011
  612MOL0     C82526   9.521   6.171  10.286  0.0293  0.2145 -0.4135
  612MOL0     C82527   9.666   6.155  10.250 -0.5522  0.8692 -0.6964
  612MOL0     C82528   9.757   6.195  10.362 -0.6605 -0.6224  0.0162
  612MOL0    Cl82529   9.916   6.213  10.278 -0.4170  0.1003 -0.0300
  612MOL0     C82530   8.782   6.207  10.199  0.6580 -0.2051 -0.5454
  612MOL0     C82531   8.657   6.157  10.138 -0.3158  0.1443 -1.0848
  612MOL0     O82532   8.438   6.005  10.320  0.5276  0.1734  1.1414
  612MOL0     C82533   8.290   5.841  10.023 -0.0362 -0.7003  0.1488
  612MOL0     C82534   8.176   5.770   9.979 -0.6885 -0.1378 -0.4883
  612MOL0     N82535   8.239   5.267  10.308 -0.1177 -0.4679  0.6678
  612MOL0     N82536   8.359   5.317  10.295  0.3239 -0.0495  0.5285
  612MOL0     C82537   9.464   5.733  10.094 -0.4653 -0.3140  0.2012
  612MOL0     C82538   9.597   5.713  10.134  0.3620  1.3338  0.5520
  612MOL0     C82539   9.954   5.733  10.424 -0.8522  0.5185 -0.3371
  612MOL0     C82540  10.029   5.640  10.350  0.1295 -0.1743 -0.5537
  612MOL0     C82541  10.166   5.615  10.370  0.5634 -0.7020 -0.1318
  612MOL0     C82542  10.236   5.687  10.462 -0.9919  0.3178  0.7209
  612MOL0     O82543  10.371   5.681  10.474  0.0409  0.2743  0.1462
  612MOL0     C82544  10.435   5.561  10.422  0.1473  0.7285  0.0582
  612MOL0     C82545  10.581   5.568  10.460 -0.0376  0.5501  0.2873
  612MOL0     C82546  10.645   5.701  10.407  0.4550 -0.2502  0.1647
  612MOL0     C82547  10.795   5.694  10.423 -0.5370 -0.7831 -0.6998
  612MOL0     C82548  10.848   5.829  10.390  0.5593 -0.2240 -0.0214
  612MOL0     C82549  10.884   5.941  10.358 -0.6619 -0.0706  0.0660
  612MOL0     C82550  10.168   5.775  10.534  0.1537 -0.0352 -0.0655
  612MOL0     C82551  10.036   5.808  10.516  0.2623 -0.5067 -0.0431
  612MOL0     C82552   9.969   5.913  10.607 -0.3815 -0.3402  0.0624
  612MOL0     H82553   9.563   5.671  10.460  2.7869 -0.7556 -1.0927
  612MOL0     H82554   9.313   5.727  10.408  0.4071 -1.5015  0.3262
  612MOL0     H82555   9.240   5.894   9.999 -1.4088  1.5799  2.7660
  612MOL0     H82556   9.207   5.724   9.956  0.5353 -0.2580  0.5097
  612MOL0     H82557   9.026   5.854   9.896  0.9027 -1.5014 -0.7816
  612MOL0     H82558   9.002   5.924  10.060 -1.0667  0.0787 -0.3638
  612MOL0     H82559   8.940   5.704  10.127 -1.8592  3.9348 -0.1448
  612MOL0     H82560   9.001   5.631   9.964  2.4829  0.3142  0.3658
  612MOL0     H82561   8.767   5.820   9.999  0.2066 -1.0670  3.0065
  612MOL0     H82562   8.803   5.708   9.856  3.3554 -1.3096  0.3125
  612MOL0     H82563   8.774   5.518  10.005  1.8117  0.2310  0.5223
  612MOL0     H82564   8.711   5.629  10.126 -0.5185  0.1610 -0.5697
  612MOL0     H82565   8.551   5.718   9.956  0.8553  0.3465  4.4438
  612MOL0     H82566   8.582   5.569   9.860  0.8498  1.3049 -0.9446
  612MOL0     H82567   8.395   5.577  10.005  1.0306 -0.3814 -3.0238
  612MOL0     H82568   8.473   5.599  10.156  1.4221  1.3833 -0.8067
  612MOL0     H82569   8.501   5.341   9.990 -1.5331  0.4314 -0.8008
  612MOL0     H82570   8.582   5.368  10.153 -1.0677 -3.3308 -1.5624
  612MOL0     H82571   8.233   5.378  10.000 -1.7074  1.1481  1.2119
  612MOL0     H82572   8.020   5.156  10.106 -0.9807 -1.1742  1.3323
  612MOL0     H82573   7.977   5.192  10.257  1.5860 -1.0790  0.4882
  612MOL0     H82574   7.977   5.381  10.018  0.1042  3.4943  1.3786
  612MOL0     H82575   7.837   5.308  10.107 -0.1545 -1.3709 -0.3901
  612MOL0     H82576   8.030   5.490  10.235  0.3676  0.3974 -1.3190
  612MOL0     H82577   7.862   5.478  10.276  0.7021  1.1941  0.4180
  612MOL0     H82578   7.853   5.682  10.178 -1.7853 -0.3599 -0.1160
  612MOL0     H82579   7.797   5.582  10.052 -0.4627  1.5039 -0.1236
  612MOL0     H82580   8.048   5.696  10.288 -1.2678 -0.1268 -1.0323
  612MOL0     H82581   8.236   5.843  10.362  2.0990  0.5483 -0.5760
  612MOL0     H82582   8.700   5.830  10.230  1.4250 -0.5454  1.4022
  612MOL0     H82583   8.896   5.926  10.342  0.3442  0.8382  0.6188
  612MOL0     H82584   8.942   6.138  10.537 -0.3773  2.6881  1.2680
  612MOL0     H82585   9.064   6.048  10.458 -1.4539  0.2960  0.4746
  612MOL0     H82586   9.083   6.346  10.508  0.3437  0.1524 -2.6114
  612MOL0     H82587   9.141   6.212  10.624  3.3818 -0.9602 -0.7738
  612MOL0     H82588   9.255   6.300  10.368  0.4979 -1.1482 -0.2035
  612MOL0     H82589   9.321   6.294  10.537 -0.1361 -0.5777  0.9413
  612MOL0     H82590   9.269   6.046  10.353 -0.1393  0.8757  0.1278
  612MOL0     H82591   9.297   6.038  10.525  3.3213 -0.3715  0.4030
  612MOL0     H82592   9.512   6.002  10.417 -1.1675  0.0213  0.2078
  612MOL0     H82593   9.511   6.156  10.501 -1.4461 -0.3290 -0.0975
  612MOL0     H82594   9.457   6.142  10.203  2.9279 -2.2754 -1.9729
  612MOL0     H82595   9.509   6.280  10.296  2.2301  0.7183 -2.3051
  612MOL0     H82596   9.679   6.225  10.167 -1.1534  2.9265  0.8656
  612MOL0     H82597   9.696   6.056  10.215 -0.4406  0.2543  1.0265
  612MOL0     H82598   9.733   6.294  10.402  1.6744  1.2181 -2.7301
  612MOL0     H82599   9.770   6.120  10.441  0.1578  0.7486  1.2319
  612MOL0     H82600   8.808   6.311  10.183  0.9311  0.0712  1.3655
  612MOL0     H82601   8.587   6.222  10.086 -1.5398  0.4225  0.8017
  612MOL0     H82602   8.358   5.884   9.950 -0.4532  1.2344  0.8239
  612MOL0     H82603   8.143   5.769   9.876 -1.1793  2.4026 -0.4125
  612MOL0     H82604   9.434   5.726   9.990  0.8776  1.6948 -0.3974
  612MOL0     H82605   9.670   5.708  10.054 -3.9354 -2.6922 -3.6745
  612MOL0     H82606   9.994   5.583  10.263  2.9249 -1.1640 -1.1214
  612MOL0     H82607  10.218   5.557  10.295  2.8171 -1.0765  1.6272
  612MOL0     H82608  10.417   5.561  10.314 -3.9182  2.2194  0.5554
  612MOL0     H82609  10.388   5.475  10.471 -1.3465  0.3473 -1.9139
  612MOL0     H82610  10.642   5.498  10.402 -0.7819 -2.0114  2.4021
  612MOL0     H82611  10.585   5.567  10.569  0.7469  3.6650  0.3909
  612MOL0     H82612  10.613   5.787  10.466  1.0791 -0.5711  1.0004
  612MOL0     H82613  10.625   5.712  10.300  0.1500  1.8931  0.3993
  612MOL0     H82614  10.823   5.672  10.526 -1.8979 -3.3754 -0.8113
  612MOL0     H82615  10.836   5.615  10.360  0.9168 -1.5865  1.1518
  612MOL0     H82616  10.903   6.039  10.320 -1.4212  0.1662  0.2668
  612MOL0     H82617  10.242   5.820  10.599  1.9450 -0.5625 -1.6251
  612MOL0     H82618  10.048   5.978  10.645  0.2695 -1.3331  0.4652
  612MOL0     H82619   9.904   5.975  10.546 -1.0393 -2.6263 -1.7332
  612MOL0     H82620   9.910   5.855  10.679 -2.0999  0.3139 -0.7825
  613MOL0     O82621   8.232   9.444   7.010  0.4040  0.6052  0.8335
  613MOL0     C82622   8.296   9.341   7.034 -0.4424 -0.5042  0.1106
  613MOL0     O82623   8.432   9.343   7.076  0.3895  0.0512  0.2331
  613MOL0     C82624   8.509   9.462   7.059 -0.3606 -0.1457 -0.1036
  613MOL0     C82625   8.503   9.535   6.940 -0.8335  0.3163  0.0185
  613MOL0     C82626   8.591   9.647   6.924 -0.1072  0.2609  0.6573
  613MOL0     C82627   8.666   9.696   7.029  0.3183 -0.3639  0.2865
  613MOL0     O82628   8.761   9.792   6.998 -0.1772 -0.5815 -0.0337
  613MOL0     C82629   8.827   9.855   7.101  0.0519  0.2831  0.1997
  613MOL0     C82630   8.918   9.973   7.048 -0.5725  0.2685  0.5182
  613MOL0     C82631   8.995  10.033   7.168 -0.8467 -0.1919 -0.4742
  613MOL0     C82632   8.904  10.091   7.279 -0.2727 -0.4240 -0.9414
  613MOL0     C82633   8.956  10.221   7.341  0.1829  0.4730 -0.0804
  613MOL0     C82634   9.054  10.211   7.461  0.3272  0.1737  0.0222
  613MOL0     C82635   9.064  10.349   7.531 -0.2673  0.7696  0.6371
  613MOL0     C82636   9.141  10.458   7.445 -0.2771  0.7099 -0.1079
  613MOL0     N82637   9.292  10.433   7.441  0.4157  0.2830  0.0195
  613MOL0     C82638   9.378  10.451   7.551  0.2109 -1.5842  0.4353
  613MOL0     C82639   9.498  10.452   7.492 -0.0796  0.7630  0.6200
  613MOL0     C82640   9.638  10.472   7.556  0.2365  0.1757 -0.8770
  613MOL0     C82641   9.735  10.540   7.455 -0.1604 -0.7386 -0.5040
  613MOL0     C82642   9.880  10.499   7.487 -1.0809  0.9333 -0.1559
  613MOL0     C82643   9.966  10.524   7.363 -0.7713 -0.8854  0.2447
  613MOL0     O82644  10.008  10.665   7.356  0.3273 -1.1937 -0.2967
  613MOL0     C82645  10.110  10.728   7.427 -0.0229 -0.3282  0.2790
  613MOL0     C82646  10.130  10.864   7.419  0.1530  0.1808 -0.1136
  613MOL0     C82647  10.222  10.928   7.502  0.1463  0.0735 -0.1511
  613MOL0     C82648  10.306  10.859   7.590 -0.3068 -1.0771  0.2385
  613MOL0     C82649  10.386  10.934   7.693 -0.4838  0.1185  0.1500
  613MOL0     O82650  10.484  10.857   7.752 -0.1062 -0.1161 -0.6695
  613MOL0     C82651  10.554  10.918   7.854  0.2713  0.7999  0.2192
  613MOL0     C82652  10.570  10.863   7.978  0.4005  0.3046 -0.2845
  613MOL0     C82653  10.641  10.919   8.082  0.1260 -0.6458 -0.2584
  613MOL0     C82654  10.707  11.040   8.060 -0.6215  0.1528 -0.6726
  613MOL0     O82655  10.774  11.109   8.162  0.7530 -0.1526 -0.2386
  613MOL0     C82656  10.700  11.228   8.204  0.9108  0.4815 -0.0475
  613MOL0     C82657  10.775  11.302   8.318  0.1066  0.3886 -0.2928
  613MOL0     C82658  10.924  11.335   8.287 -0.2891  0.3442 -0.2331
  613MOL0     C82659  10.940  11.446   8.178  0.7239 -0.2364 -0.0034
  613MOL0     C82660  11.077  11.503   8.180 -0.2808 -0.2519 -0.0673
  613MOL0     C82661  11.085  11.602   8.302 -0.0166  0.7444  0.0375
  613MOL0     C82662  11.226  11.669   8.307  0.1525  0.7808 -0.0101
  613MOL0     C82663  11.229  11.787   8.404  0.6800 -0.2718  0.2972
  613MOL0    Cl82664  11.241  11.725   8.566  0.4292  0.4361 -0.0357
  613MOL0     C82665  10.706  11.087   7.926 -0.2663  0.0628  0.2179
  613MOL0     C82666  10.626  11.039   7.830 -0.7605  0.5380 -0.4367
  613MOL0     O82667  10.365  11.055   7.705 -0.5452  0.0506 -0.8454
  613MOL0     C82668  10.295  10.721   7.593 -0.0444 -0.1315 -0.3176
  613MOL0     C82669  10.195  10.658   7.511 -0.8894  0.8552  0.9009
  613MOL0     N82670   9.486  10.431   7.354 -0.3793  0.3449  0.2405
  613MOL0     N82671   9.360  10.414   7.323 -0.2902 -0.2050  0.0164
  613MOL0     C82672   8.677   9.612   7.141 -0.0175 -0.5137  0.0786
  613MOL0     C82673   8.597   9.502   7.161  0.2364  0.3394 -0.0850
  613MOL0     C82674   8.229   9.204   7.042 -0.8586  0.4220 -0.7527
  613MOL0     C82675   8.286   9.119   7.145 -0.5005 -1.2069  1.0309
  613MOL0     C82676   8.233   8.983   7.162 -0.7127  0.0551  0.3095
  613MOL0     C82677   8.116   8.954   7.094  0.0768  0.4886 -0.6475
  613MOL0     O82678   8.057   8.831   7.137  0.2029  0.1546 -0.7096
  613MOL0     C82679   7.918   8.793   7.127 -0.0844  0.3818 -0.3327
  613MOL0     C82680   7.851   8.880   7.228  0.9620  0.5880 -0.4267
  613MOL0     C82681   7.722   8.827   7.283 -0.5636  0.3416  0.3937
  613MOL0     C82682   7.630   8.747   7.181 -0.0795  0.1392 -0.5531
  613MOL0     C82683   7.514   8.680   7.256  0.1907  1.1668  0.4961
  613MOL0     C82684   7.436   8.613   7.319  0.3503  0.2707 -0.2346
  613MOL0     C82685   8.056   9.034   7.005 -0.3076  1.0748 -0.1722
  613MOL0     C82686   8.109   9.157   6.972  0.1715 -0.1562  0.4212
  613MOL0     C82687   8.044   9.258   6.874  0.1705 -0.8553  0.0412
  613MOL0     H82688   8.437   9.500   6.862  0.2417 -4.9253  1.1164
  613MOL0     H82689   8.595   9.703   6.831 -1.3215 -1.3682 -0.4454
  613MOL0     H82690   8.746   9.896   7.162  1.0099  0.8118  1.1522
  613MOL0     H82691   8.883   9.782   7.161 -0.6628 -1.4237 -1.1230
  613MOL0     H82692   8.852  10.048   7.003  0.4406  1.9397  1.6988
  613MOL0     H82693   8.980   9.934   6.967  0.1486  0.0723  1.1557
  613MOL0     H82694   9.045  10.123   7.133 -1.0554  0.5551  1.0737
  613MOL0     H82695   9.074   9.968   7.208  1.6799  2.7354 -0.3609
  613MOL0     H82696   8.806  10.110   7.236  0.3252  1.6848 -1.5138
  613MOL0     H82697   8.887  10.013   7.354 -1.8885  0.8341  0.0658
  613MOL0     H82698   9.000  10.288   7.267 -0.0836  0.1651 -0.5190
  613MOL0     H82699   8.874  10.284   7.380  0.7181  2.0429 -1.3684
  613MOL0     H82700   9.019  10.138   7.534 -1.5038 -1.6715 -2.5382
  613MOL0     H82701   9.141  10.168   7.409 -3.0358 -2.6931 -3.9538
  613MOL0     H82702   9.116  10.335   7.626 -0.3712  0.4102  0.6453
  613MOL0     H82703   8.969  10.394   7.563  0.1683  1.9636  0.2802
  613MOL0     H82704   9.102  10.451   7.343 -1.0001 -1.4119  0.2561
  613MOL0     H82705   9.124  10.561   7.478 -1.3521  0.2081  0.9861
  613MOL0     H82706   9.358  10.464   7.657  0.2426 -0.4169  0.3050
  613MOL0     H82707   9.623  10.545   7.636  0.4877 -0.3901 -0.3082
  613MOL0     H82708   9.666  10.372   7.590 -2.7704 -2.2536 -4.6581
  613MOL0     H82709   9.720  10.513   7.350 -0.6635  1.6491 -1.1088
  613MOL0     H82710   9.741  10.648   7.473  0.5950 -1.1767  2.2974
  613MOL0     H82711   9.895  10.393   7.509  3.0159  0.9680 -1.8466
  613MOL0     H82712   9.919  10.551   7.575  1.4629 -0.8637 -0.0913
  613MOL0     H82713   9.912  10.505   7.270 -0.8572 -0.9521  0.3091
  613MOL0     H82714  10.050  10.454   7.357 -0.4901 -0.5112 -0.4011
  613MOL0     H82715  10.070  10.917   7.346 -1.4320 -0.1421  0.9133
  613MOL0     H82716  10.232  11.036   7.511  1.4732  0.1581 -2.0879
  613MOL0     H82717  10.515  10.772   7.999  1.0203 -0.0669 -0.2535
  613MOL0     H82718  10.628  10.893   8.186  3.0725 -0.4487  0.2566
  613MOL0     H82719  10.694  11.297   8.119 -1.6323  1.2959  0.7204
  613MOL0     H82720  10.600  11.204   8.238  0.4551 -1.9981 -2.7455
  613MOL0     H82721  10.735  11.399   8.350 -0.7691 -0.8211  2.5372
  613MOL0     H82722  10.776  11.249   8.413 -2.7637  1.7764  0.6222
  613MOL0     H82723  10.969  11.363   8.383 -1.1769  1.8669 -0.2254
  613MOL0     H82724  10.976  11.243   8.260  0.5829  1.0202 -0.8937
  613MOL0     H82725  10.865  11.525   8.192  0.4338 -0.5667  0.3421
  613MOL0     H82726  10.929  11.409   8.076  1.6363  4.4604 -2.0682
  613MOL0     H82727  11.086  11.546   8.080 -1.5561  0.0305 -0.0740
  613MOL0     H82728  11.139  11.414   8.191 -1.3287 -0.7869  2.0227
  613MOL0     H82729  11.017  11.684   8.282  1.7917  2.0244 -1.1928
  613MOL0     H82730  11.064  11.551   8.396 -0.0435 -0.0469 -0.3876
  613MOL0     H82731  11.246  11.717   8.211  2.2799 -0.2866 -0.1543
  613MOL0     H82732  11.308  11.603   8.335 -0.0326  1.2218  1.6559
  613MOL0     H82733  11.318  11.847   8.380 -0.0961  0.9220  0.3384
  613MOL0     H82734  11.147  11.857   8.390 -1.5077 -2.1134  2.9032
  613MOL0     H82735  10.744  11.188   7.916 -2.9063  1.0051 -1.1337
  613MOL0     H82736  10.621  11.083   7.731  3.6413  0.9318 -0.7068
  613MOL0     H82737  10.351  10.667   7.668  1.0370  1.5410  0.1374
  613MOL0     H82738  10.193  10.550   7.502 -0.4506  0.9676 -1.1470
  613MOL0     H82739   8.748   9.628   7.222 -2.4249  0.8983  2.0503
  613MOL0     H82740   8.607   9.443   7.252  0.6873 -0.9061 -0.9179
  613MOL0     H82741   8.359   9.158   7.215  0.1131 -2.2509  1.0136
  613MOL0     H82742   8.262   8.910   7.236 -0.0826 -1.7591 -1.6402
  613MOL0     H82743   7.905   8.684   7.131 -0.5755  0.2581 -3.2622
  613MOL0     H82744   7.863   8.816   7.036 -2.7351  2.1773  1.5967
  613MOL0     H82745   7.819   8.973   7.181 -0.8785  1.6316  2.6289
  613MOL0     H82746   7.925   8.904   7.305  1.0851 -1.3776  0.1139
  613MOL0     H82747   7.662   8.912   7.316 -0.6434  1.1292 -1.6630
  613MOL0     H82748   7.753   8.759   7.362 -0.2939  0.0741  0.0604
  613MOL0     H82749   7.602   8.809   7.095  0.1078  1.2421  0.1630
  613MOL0     H82750   7.689   8.665   7.138 -1.1183 -0.3424 -1.0884
  613MOL0     H82751   7.368   8.564   7.386  1.9309  1.0692  2.0749
  613MOL0     H82752   7.965   8.997   6.960  0.1055 -1.2156  0.7423
  613MOL0     H82753   8.011   9.341   6.936 -0.6327 -2.1122  1.3624
  613MOL0     H82754   8.102   9.276   6.783 -3.9629  0.7991 -2.5741
  613MOL0     H82755   7.946   9.222   6.840  0.6950 -1.0827 -1.2828
  614MOL0     O82756   9.663   3.062   0.462 -0.5102  0.8224 -0.1950
  614MOL0     C82757   9.718   2.957   0.496  0.2124 -0.8957  0.5805
  614MOL0     O82758   9.754   2.860   0.404 -0.7174  0.0358 -0.9451
  614MOL0     C82759   9.726   2.869   0.272 -0.4098 -0.4904  0.5326
  614MOL0     C82760   9.810   2.935   0.187  0.3485  0.1891 -0.0895
  614MOL0     C82761   9.790   2.941   0.047  0.0324  0.4999 -0.4586
  614MOL0     C82762   9.672   2.882  -0.005 -0.0853  0.4984  0.0055
  614MOL0     O82763   9.648   2.880  -0.144 -0.2383 -0.2114  0.2314
  614MOL0     C82764   9.563   2.781  -0.203  0.2738  0.1205 -0.1546
  614MOL0     C82765   9.610   2.727  -0.340 -0.2313  0.6007  0.6063
  614MOL0     C82766   9.720   2.619  -0.339  0.5256 -0.8766  0.2544
  614MOL0     C82767   9.742   2.560  -0.480 -0.1161  0.1731 -0.9082
  614MOL0     C82768   9.851   2.454  -0.483 -0.6763  0.4045 -0.5863
  614MOL0     C82769   9.856   2.365  -0.609  0.0264  0.2242  0.0601
  614MOL0     C82770   9.970   2.261  -0.623 -0.1652  0.7349 -0.1945
  614MOL0     C82771  10.117   2.321  -0.612 -0.1012 -1.0522 -0.1368
  614MOL0     N82772  10.131   2.415  -0.727 -0.9963  0.7559  0.1497
  614MOL0     C82773  10.230   2.409  -0.825 -0.2298  0.0435 -0.1702
  614MOL0     C82774  10.214   2.526  -0.897  0.0844 -0.6143  0.2194
  614MOL0     C82775  10.298   2.573  -1.013 -0.0583  0.0138  0.0338
  614MOL0     C82776  10.419   2.653  -0.978 -0.0068 -1.0136  0.1297
  614MOL0     C82777  10.476   2.713  -1.104  0.1850  0.2608  0.1068
  614MOL0     C82778  10.603   2.787  -1.080 -0.7522 -0.2719  0.0720
  614MOL0     O82779  10.706   2.690  -1.057  0.4543  0.3411  0.7584
  614MOL0     C82780  10.830   2.733  -1.040 -0.4323 -0.5295 -0.4308
  614MOL0     C82781  10.912   2.640  -0.991 -0.4015 -0.2706  0.4456
  614MOL0     C82782  11.053   2.676  -0.962 -0.1134  0.2119  0.1669
  614MOL0     C82783  11.096   2.814  -0.966 -0.3106 -0.0317 -0.3206
  614MOL0     C82784  11.236   2.857  -0.928 -0.0385  0.0691  0.2905
  614MOL0     O82785  11.329   2.758  -0.927 -0.5264 -0.2736 -0.3640
  614MOL0     C82786  11.464   2.777  -0.892  0.6109  0.6782  0.3564
  614MOL0     C82787  11.567   2.728  -0.970  0.0584  0.7461 -0.9384
  614MOL0     C82788  11.698   2.761  -0.933  0.3784  0.1717  0.2223
  614MOL0     C82789  11.728   2.852  -0.827 -0.2757 -0.3137  0.7035
  614MOL0     O82790  11.860   2.879  -0.814 -0.5947  0.1088 -0.5652
  614MOL0     C82791  11.898   2.851  -0.673 -0.3790  0.2548  0.5430
  614MOL0     C82792  12.052   2.880  -0.663  1.6316 -0.4497  0.3478
  614MOL0     C82793  12.134   2.751  -0.701 -0.2348  0.0056 -0.5494
  614MOL0     C82794  12.283   2.779  -0.712  0.1269  0.8216  0.5379
  614MOL0     C82795  12.355   2.823  -0.593  0.2182  0.5134  0.7269
  614MOL0     C82796  12.513   2.829  -0.612  0.7473 -0.1625 -0.2236
  614MOL0     C82797  12.594   2.882  -0.486 -0.9831 -0.3755  0.6820
  614MOL0     C82798  12.740   2.888  -0.513 -0.5022 -0.2037 -0.2368
  614MOL0    Cl82799  12.823   2.980  -0.372  0.1128 -0.1157 -0.2238
  614MOL0     C82800  11.615   2.892  -0.753 -0.3805  0.4116 -0.8825
  614MOL0     C82801  11.491   2.841  -0.776 -0.1109 -0.0960 -0.0529
  614MOL0     O82802  11.258   2.981  -0.900 -0.2462  1.0649 -1.3099
  614MOL0     C82803  11.000   2.903  -1.022 -0.5356 -0.8397 -0.3114
  614MOL0     C82804  10.867   2.864  -1.060 -0.0925 -0.0612  0.6714
  614MOL0     N82805  10.121   2.606  -0.839 -0.3706  0.0585  0.3214
  614MOL0     N82806  10.083   2.539  -0.730  0.4051 -0.4709 -0.2050
  614MOL0     C82807   9.576   2.828   0.093  0.1058  0.1404  0.0841
  614MOL0     C82808   9.606   2.826   0.228 -0.7226 -0.5281 -0.8905
  614MOL0     C82809   9.754   2.943   0.646 -0.1719  0.5119  0.2109
  614MOL0     C82810   9.792   2.811   0.691 -0.2670 -0.4564 -0.1498
  614MOL0     C82811   9.827   2.796   0.820 -0.7300  0.5213  0.4580
  614MOL0     C82812   9.829   2.906   0.909 -0.2012  0.1045  0.3398
  614MOL0     O82813   9.867   2.861   1.036  0.3530 -0.6701 -0.2848
  614MOL0     C82814   9.786   2.899   1.145 -0.3596 -0.2934 -0.7268
  614MOL0     C82815   9.636   2.852   1.150 -1.0465  0.2232 -0.1599
  614MOL0     C82816   9.625   2.698   1.113 -0.2256  0.7649  0.6107
  614MOL0     C82817   9.716   2.611   1.204  0.0042  0.1795 -0.5390
  614MOL0     C82818   9.680   2.468   1.185 -0.6531  0.3657  0.4756
  614MOL0     C82819   9.643   2.351   1.181  0.2992 -0.5260 -0.0181
  614MOL0     C82820   9.794   3.032   0.868  0.0247  0.3075  1.2713
  614MOL0     C82821   9.764   3.053   0.735 -0.5152 -0.6912 -0.1052
  614MOL0     C82822   9.730   3.196   0.698 -0.2256 -0.7662  0.5863
  614MOL0     H82823   9.888   2.994   0.233  1.6713 -0.6721 -1.1535
  614MOL0     H82824   9.854   3.000  -0.017  2.3890  2.4919  3.3472
  614MOL0     H82825   9.532   2.695  -0.142  1.3149  0.1339  0.4086
  614MOL0     H82826   9.471   2.834  -0.229 -0.2768  0.2949  1.9521
  614MOL0     H82827   9.646   2.810  -0.402 -0.8110 -1.2932 -2.5066
  614MOL0     H82828   9.530   2.691  -0.405 -0.9607  3.2796 -0.1175
  614MOL0     H82829   9.690   2.543  -0.266 -0.6173  0.3653  1.1261
  614MOL0     H82830   9.816   2.669  -0.323 -1.1533  2.4122  0.9754
  614MOL0     H82831   9.651   2.507  -0.508 -0.7973  0.9966 -0.3090
  614MOL0     H82832   9.773   2.638  -0.550  2.9270 -0.3431 -0.2727
  614MOL0     H82833   9.949   2.499  -0.464 -0.5742  0.7601 -1.9059
  614MOL0     H82834   9.835   2.393  -0.393  0.6333  2.9474  1.4777
  614MOL0     H82835   9.764   2.306  -0.596 -0.0232  0.3980  0.5310
  614MOL0     H82836   9.855   2.427  -0.698 -1.6406 -0.5795 -0.5095
  614MOL0     H82837   9.960   2.224  -0.725  0.7882 -1.9648  0.6140
  614MOL0     H82838   9.952   2.175  -0.558 -0.1959  0.0775 -1.0619
  614MOL0     H82839  10.132   2.366  -0.513 -1.3831 -0.7249 -0.0743
  614MOL0     H82840  10.193   2.243  -0.622  1.0128  0.0863 -0.9848
  614MOL0     H82841  10.290   2.322  -0.848 -2.1677 -1.2037 -0.7290
  614MOL0     H82842  10.337   2.490  -1.072  0.3615 -0.0477  0.3945
  614MOL0     H82843  10.229   2.633  -1.074  0.6946  2.0240  1.0548
  614MOL0     H82844  10.391   2.730  -0.905 -1.0986 -0.3653 -0.9291
  614MOL0     H82845  10.483   2.585  -0.921  1.5453  0.6025  0.4090
  614MOL0     H82846  10.406   2.790  -1.139  0.0702  0.0300 -0.1727
  614MOL0     H82847  10.494   2.638  -1.181 -1.1861 -1.5962  1.4961
  614MOL0     H82848  10.598   2.861  -1.000 -1.3019  0.4919 -0.6437
  614MOL0     H82849  10.623   2.834  -1.177 -0.4492 -0.9734 -0.2089
  614MOL0     H82850  10.894   2.534  -0.979  0.7990 -0.9303 -2.6723
  614MOL0     H82851  11.124   2.604  -0.923 -1.8122 -1.5396  0.1760
  614MOL0     H82852  11.543   2.658  -1.050 -0.5962  1.3963 -1.3171
  614MOL0     H82853  11.777   2.720  -0.995  0.5271  1.1117 -0.2274
  614MOL0     H82854  11.844   2.917  -0.605  1.9533 -0.1832  2.9848
  614MOL0     H82855  11.871   2.748  -0.645 -1.6561  0.4168 -0.0005
  614MOL0     H82856  12.083   2.961  -0.731  1.6677 -1.7400 -1.2323
  614MOL0     H82857  12.070   2.915  -0.561  2.3455  2.1425 -0.5883
  614MOL0     H82858  12.112   2.673  -0.628  1.3855 -0.2069 -0.2378
  614MOL0     H82859  12.099   2.710  -0.796 -0.5234 -0.2860 -0.3197
  614MOL0     H82860  12.292   2.869  -0.773  0.2267  2.0585  2.3151
  614MOL0     H82861  12.326   2.689  -0.756  2.2828  1.5071  1.1478
  614MOL0     H82862  12.319   2.772  -0.503  2.0063  0.8341  1.6828
  614MOL0     H82863  12.317   2.923  -0.569 -2.5327 -1.0277  3.4702
  614MOL0     H82864  12.550   2.729  -0.633  0.6421  0.3498 -3.2638
  614MOL0     H82865  12.531   2.888  -0.702 -0.4159 -0.5296 -0.7095
  614MOL0     H82866  12.581   2.812  -0.403 -0.2115  0.3699  1.4464
  614MOL0     H82867  12.564   2.984  -0.457 -1.2271 -0.1628 -0.2897
  614MOL0     H82868  12.786   2.793  -0.543 -0.1084  0.5299 -2.1221
  614MOL0     H82869  12.762   2.949  -0.601  0.4135 -0.3938 -0.1506
  614MOL0     H82870  11.635   2.954  -0.666 -2.7195 -0.9560  0.7233
  614MOL0     H82871  11.421   2.861  -0.695 -0.4786 -0.2744 -0.3254
  614MOL0     H82872  11.034   3.005  -1.041  1.5720 -1.7380 -1.7040
  614MOL0     H82873  10.801   2.928  -1.118 -1.2549 -1.1103  0.7929
  614MOL0     H82874   9.483   2.783   0.058  0.7812 -1.7350  0.5956
  614MOL0     H82875   9.542   2.771   0.296 -1.2563 -2.1601 -2.6073
  614MOL0     H82876   9.796   2.722   0.629 -0.1945  0.1390 -1.0247
  614MOL0     H82877   9.861   2.696   0.846  0.6002  0.4837 -1.2640
  614MOL0     H82878   9.792   3.008   1.149  3.3176 -0.3337 -1.8901
  614MOL0     H82879   9.838   2.853   1.230  0.5404 -3.1857 -2.6858
  614MOL0     H82880   9.576   2.913   1.082 -3.0709  0.0435  1.3875
  614MOL0     H82881   9.601   2.857   1.253  1.0494 -0.9916  0.6839
  614MOL0     H82882   9.657   2.677   1.010 -2.6977 -1.6332  0.2069
  614MOL0     H82883   9.521   2.665   1.119  0.3131 -1.4526 -0.9760
  614MOL0     H82884   9.819   2.633   1.174  0.4079 -2.3272 -1.2270
  614MOL0     H82885   9.707   2.630   1.311  1.2750 -1.6115 -0.0654
  614MOL0     H82886   9.587   2.263   1.159 -1.2551  0.5417 -0.5482
  614MOL0     H82887   9.791   3.111   0.942  2.4575 -0.9081  2.8023
  614MOL0     H82888   9.623   3.208   0.679 -0.2685  1.3960  1.8851
  614MOL0     H82889   9.765   3.269   0.771 -3.4081 -0.6131  2.1532
  614MOL0     H82890   9.782   3.211   0.603  0.0751  1.1456  1.0328
  615MOL0     O82891   9.999   4.528   9.556  0.4597 -0.3364 -0.0034
  615MOL0     C82892  10.012   4.493   9.442 -0.6895 -0.5907 -0.0231
  615MOL0     O82893  10.130   4.467   9.375  1.2820  0.5283  0.5436
  615MOL0     C82894  10.244   4.498   9.441 -0.1915 -0.9601  0.7408
  615MOL0     C82895  10.271   4.606   9.522 -0.7172 -0.6780 -0.5727
  615MOL0     C82896  10.396   4.617   9.581  0.5751 -0.2484  0.0400
  615MOL0     C82897  10.483   4.508   9.577 -0.4341  0.3244 -0.3786
  615MOL0     O82898  10.603   4.508   9.634 -0.9454 -0.3071 -0.1917
  615MOL0     C82899  10.606   4.563   9.769  0.5937  0.1609 -0.6924
  615MOL0     C82900  10.742   4.530   9.829  0.6961  0.5519 -0.1667
  615MOL0     C82901  10.796   4.383   9.840  0.2224  0.6208 -0.4240
  615MOL0     C82902  10.920   4.389   9.931  0.1616 -0.1840  0.0388
  615MOL0     C82903  11.058   4.429   9.857  1.0750 -0.4515  0.1641
  615MOL0     C82904  11.167   4.457   9.956  0.2793  0.5844  0.7974
  615MOL0     C82905  11.307   4.453   9.883 -0.1916 -0.6366 -0.4894
  615MOL0     C82906  11.422   4.457   9.993  1.0729  0.5052  1.2555
  615MOL0     N82907  11.543   4.523   9.945 -0.3388 -0.0472  0.4876
  615MOL0     C82908  11.644   4.565  10.032  0.4617  0.0782 -0.8939
  615MOL0     C82909  11.739   4.601   9.945 -1.0592  1.0174 -0.6349
  615MOL0     C82910  11.879   4.655   9.981 -0.6533 -0.1067 -0.6358
  615MOL0     C82911  11.988   4.549   9.979 -0.3859 -0.4712  1.3477
  615MOL0     C82912  12.106   4.570  10.071 -0.1810 -0.3904  0.3102
  615MOL0     C82913  12.247   4.558  10.003 -0.3895 -1.3780  0.8127
  615MOL0     O82914  12.345   4.615  10.096 -0.1332 -0.3875  0.2344
  615MOL0     C82915  12.460   4.683  10.051 -0.9281  0.3585  0.4905
  615MOL0     C82916  12.499   4.713   9.911  0.0016 -0.0932 -0.2064
  615MOL0     C82917  12.629   4.771   9.886 -0.1062  1.1198  0.2882
  615MOL0     C82918  12.708   4.806   9.985  0.1043  0.2855  0.3492
  615MOL0     C82919  12.830   4.876   9.949 -0.2833 -0.4819 -0.0390
  615MOL0     O82920  12.900   4.936  10.055 -0.2780  0.3423 -0.4655
  615MOL0     C82921  13.000   5.023  10.037  0.9167 -0.1725  0.0512
  615MOL0     C82922  13.113   5.016  10.109  0.4594 -0.3686 -0.4336
  615MOL0     C82923  13.218   5.093  10.081 -0.5251 -0.2452 -0.9970
  615MOL0     C82924  13.214   5.189   9.983  0.4141  0.1749 -0.1419
  615MOL0     O82925  13.312   5.277   9.978 -0.4834 -0.0741  0.5917
  615MOL0     C82926  13.280   5.415   9.990  0.1136 -0.0012 -0.2218
  615MOL0     C82927  13.275   5.461  10.138  0.2958 -0.5415  0.1147
  615MOL0     C82928  13.424   5.457  10.190  0.1143 -0.2074 -0.1788
  615MOL0     C82929  13.488   5.599  10.194 -0.3659 -0.3891  0.6596
  615MOL0     C82930  13.621   5.593  10.278 -0.3384 -0.2175  0.1298
  615MOL0     C82931  13.692   5.727  10.290 -0.3267  0.0836  0.9422
  615MOL0     C82932  13.829   5.719  10.354  0.0313  0.0706 -0.8984
  615MOL0     C82933  13.927   5.629  10.286  0.8767  0.0886  0.8000
  615MOL0    Cl82934  14.097   5.663  10.317  0.2787  0.1949  0.2147
  615MOL0     C82935  13.099   5.200   9.903  0.7020 -0.3025 -0.0437
  615MOL0     C82936  12.986   5.125   9.937  0.5989  0.5882  0.5479
  615MOL0     O82937  12.868   4.872   9.836 -0.0363 -0.0909  0.0067
  615MOL0     C82938  12.666   4.780  10.114 -0.0667 -1.1606  0.1958
  615MOL0     C82939  12.545   4.728  10.143 -0.2926 -0.0026  0.0637
  615MOL0     N82940  11.702   4.557   9.814 -0.5796  0.6925 -0.1775
  615MOL0     N82941  11.583   4.525   9.815  0.8654 -0.3312 -0.5935
  615MOL0     C82942  10.464   4.411   9.486 -0.1648  1.5170 -0.1467
  615MOL0     C82943  10.341   4.401   9.422  0.5324  0.1930 -0.1314
  615MOL0     C82944   9.877   4.479   9.363 -0.9142  1.2986  0.0520
  615MOL0     C82945   9.884   4.408   9.244 -0.3659 -1.0391  0.0873
  615MOL0     C82946   9.773   4.378   9.164 -0.0248 -0.3199  1.2953
  615MOL0     C82947   9.644   4.427   9.211 -0.0622  0.5478 -0.8182
  615MOL0     O82948   9.521   4.419   9.147  0.0432  0.0312  0.3067
  615MOL0     C82949   9.513   4.399   9.003 -0.2382  0.1089 -0.0407
  615MOL0     C82950   9.369   4.391   8.955 -0.1188  0.0982  0.4331
  615MOL0     C82951   9.354   4.364   8.808  0.5033  0.0337 -0.4620
  615MOL0     C82952   9.422   4.231   8.765 -0.0270  0.7575  0.8934
  615MOL0     C82953   9.369   4.181   8.635  0.6613 -0.5619 -0.3993
  615MOL0     C82954   9.351   4.138   8.521 -0.1122  0.2478 -0.1506
  615MOL0     C82955   9.633   4.486   9.340 -0.3799 -0.5174  0.1376
  615MOL0     C82956   9.746   4.519   9.413 -0.0002 -0.3926 -0.3879
  615MOL0     C82957   9.729   4.613   9.536  0.3949  0.4730 -0.3111
  615MOL0     H82958  10.206   4.691   9.539  2.2419  1.5974  0.2326
  615MOL0     H82959  10.419   4.713   9.627 -1.1215  0.0438  0.3439
  615MOL0     H82960  10.586   4.671   9.774 -2.3954 -0.3527  0.6624
  615MOL0     H82961  10.531   4.521   9.836 -1.1104  2.5373 -0.9873
  615MOL0     H82962  10.736   4.568   9.931 -2.6188  0.7112 -0.3341
  615MOL0     H82963  10.810   4.590   9.768 -0.7662 -0.7741 -3.3271
  615MOL0     H82964  10.829   4.339   9.746  1.5867 -0.4458  0.5163
  615MOL0     H82965  10.731   4.319   9.901  1.2429  0.5785  0.6615
  615MOL0     H82966  10.899   4.454  10.016  1.3710 -2.3016  2.1029
  615MOL0     H82967  10.949   4.289   9.964 -1.0762 -0.7102 -0.3992
  615MOL0     H82968  11.082   4.337   9.804 -2.4970 -2.4863  1.6927
  615MOL0     H82969  11.043   4.509   9.784  3.2588 -0.2607 -0.1320
  615MOL0     H82970  11.164   4.561   9.990 -0.4678  1.3198 -1.3405
  615MOL0     H82971  11.153   4.387  10.038 -0.9853 -0.0501  0.0691
  615MOL0     H82972  11.304   4.544   9.823 -1.9622 -0.6571 -0.4816
  615MOL0     H82973  11.322   4.358   9.831  3.3310 -1.2077  1.2666
  615MOL0     H82974  11.397   4.523  10.077  0.1325  2.9384 -0.8232
  615MOL0     H82975  11.439   4.355  10.028 -1.2432 -0.1353  0.6956
  615MOL0     H82976  11.633   4.561  10.140 -0.1240 -0.1889 -0.9594
  615MOL0     H82977  11.913   4.743   9.927  0.3371  2.2966  3.4775
  615MOL0     H82978  11.870   4.695  10.082 -0.4815 -0.9791 -0.2619
  615MOL0     H82979  11.951   4.449  10.005  0.6192 -1.3393 -0.3440
  615MOL0     H82980  12.022   4.537   9.875  0.8687  1.7486  1.4443
  615MOL0     H82981  12.106   4.497  10.152  1.6368  1.2428  1.8675
  615MOL0     H82982  12.094   4.671  10.111 -1.5690 -1.2362  2.1763
  615MOL0     H82983  12.248   4.616   9.910  3.6288  0.0997  1.6019
  615MOL0     H82984  12.269   4.454   9.976 -2.6331 -1.9449  0.9412
  615MOL0     H82985  12.432   4.677   9.834  1.4294  0.0638 -1.5673
  615MOL0     H82986  12.636   4.786   9.779 -1.5285  0.0330  0.0158
  615MOL0     H82987  13.114   4.934  10.181 -1.5631  0.4620  0.6240
  615MOL0     H82988  13.306   5.085  10.143  0.0009 -1.5987 -1.8786
  615MOL0     H82989  13.353   5.477   9.936 -1.3532 -0.3556 -2.7653
  615MOL0     H82990  13.181   5.440   9.952  0.2651 -0.6517 -1.0828
  615MOL0     H82991  13.239   5.564  10.143  2.2200  0.1372  1.0483
  615MOL0     H82992  13.213   5.397  10.201  1.9275 -0.3943  1.9489
  615MOL0     H82993  13.415   5.436  10.297  1.3030  1.4703  0.2731
  615MOL0     H82994  13.493   5.390  10.137 -1.0602 -0.1735 -1.8442
  615MOL0     H82995  13.435   5.685  10.233 -2.4151 -1.7008  0.9165
  615MOL0     H82996  13.512   5.620  10.089 -4.0598  0.3881 -0.1714
  615MOL0     H82997  13.695   5.522  10.238  2.8844  0.4914  4.0817
  615MOL0     H82998  13.589   5.562  10.377  0.9343 -1.5827  0.1632
  615MOL0     H82999  13.695   5.770  10.190 -3.0858  1.3764  1.3268
  615MOL0     H83000  13.638   5.801  10.350 -2.3747  0.2528 -0.9780
  615MOL0     H83001  13.810   5.697  10.460 -0.3731  1.2009 -0.7255
  615MOL0     H83002  13.874   5.818  10.350  0.2220 -0.0437 -1.6871
  615MOL0     H83003  13.906   5.526  10.315  0.7433 -0.7377 -1.9110
  615MOL0     H83004  13.915   5.627  10.177 -2.7706  1.7501  1.0196
  615MOL0     H83005  13.090   5.265   9.817 -1.1876 -2.6368 -1.7248
  615MOL0     H83006  12.898   5.129   9.874  1.0379  0.7184 -0.0645
  615MOL0     H83007  12.748   4.803  10.182 -0.4717 -2.7358  1.2894
  615MOL0     H83008  12.522   4.718  10.248 -1.7653 -1.9849 -0.3879
  615MOL0     H83009  10.539   4.332   9.476  0.1056  1.2176  3.2425
  615MOL0     H83010  10.335   4.314   9.358  3.1062 -0.7076  0.7079
  615MOL0     H83011   9.981   4.367   9.218 -0.2504  0.2865 -1.8483
  615MOL0     H83012   9.778   4.334   9.065 -0.8392 -0.2537  1.2178
  615MOL0     H83013   9.568   4.307   8.980 -3.5021 -2.1203  0.5153
  615MOL0     H83014   9.565   4.484   8.957 -0.3441  1.2970  1.9359
  615MOL0     H83015   9.320   4.486   8.979  0.0306  0.5911 -1.0891
  615MOL0     H83016   9.310   4.314   9.005 -2.8920  1.5869 -0.3191
  615MOL0     H83017   9.395   4.449   8.753 -0.0463 -0.5893 -1.8715
  615MOL0     H83018   9.246   4.356   8.792  0.3232 -2.1693  1.3629
  615MOL0     H83019   9.527   4.259   8.751 -0.2203  1.4328  0.7124
  615MOL0     H83020   9.415   4.158   8.846 -1.8629  1.7257  1.6843
  615MOL0     H83021   9.346   4.099   8.421  1.7386 -1.1114  0.2286
  615MOL0     H83022   9.540   4.527   9.377 -0.4274  1.7525 -2.1538
  615MOL0     H83023   9.629   4.656   9.539 -1.4751 -3.3787 -1.4728
  615MOL0     H83024   9.738   4.559   9.630 -0.3672 -1.5293 -1.3424
  615MOL0     H83025   9.801   4.696   9.527 -0.2552  0.8950 -1.9366
  616MOL0     O83026   0.126   4.982   3.990  0.2656 -0.4855 -0.4050
  616MOL0     C83027   0.015   5.037   4.006  0.1689  0.6983 -0.5804
  616MOL0     O83028  -0.014   5.113   4.125  0.2349 -0.0301  0.9270
  616MOL0     C83029   0.088   5.179   4.193  0.5136  0.3455 -0.1136
  616MOL0     C83030   0.214   5.220   4.137 -0.2422  0.0626  0.4766
  616MOL0     C83031   0.316   5.288   4.217 -0.4248  0.0966  0.2379
  616MOL0     C83032   0.303   5.294   4.357 -0.2706 -0.4528 -1.0799
  616MOL0     O83033   0.394   5.348   4.449  1.0747  0.4377 -0.1219
  616MOL0     C83034   0.523   5.353   4.398  0.4600 -0.6559 -0.5266
  616MOL0     C83035   0.617   5.358   4.528  0.5070  0.1229  0.3411
  616MOL0     C83036   0.750   5.424   4.503  0.0847  0.0083 -0.6169
  616MOL0     C83037   0.865   5.371   4.590 -0.7073  0.4400  0.4856
  616MOL0     C83038   1.000   5.446   4.565  0.4841  0.1372  0.1698
  616MOL0     C83039   0.991   5.597   4.619  0.4167 -0.3273  0.2072
  616MOL0     C83040   1.131   5.668   4.611  0.0538  0.0482  0.0915
  616MOL0     C83041   1.121   5.817   4.644  0.8513 -0.9527  0.3163
  616MOL0     N83042   1.247   5.882   4.618  0.2641  0.4227 -0.1775
  616MOL0     C83043   1.297   5.917   4.492 -0.7713  0.9599  0.2843
  616MOL0     C83044   1.418   5.974   4.521  0.9795 -0.9772  0.0110
  616MOL0     C83045   1.508   6.023   4.415  0.5372  0.7722 -0.3848
  616MOL0     C83046   1.626   5.930   4.395  0.2405 -0.2036 -0.5490
  616MOL0     C83047   1.603   5.787   4.351  0.4660 -0.8787  0.6506
  616MOL0     C83048   1.733   5.714   4.310 -0.4924  0.0274  0.0998
  616MOL0     O83049   1.807   5.706   4.430 -0.7106  0.5798 -0.2528
  616MOL0     C83050   1.944   5.680   4.429  0.3727  0.3991 -0.7683
  616MOL0     C83051   2.002   5.617   4.311 -0.2715 -0.0355 -0.2289
  616MOL0     C83052   2.138   5.615   4.295 -0.6491 -0.0665  0.6559
  616MOL0     C83053   2.220   5.648   4.405  1.0411  0.6923  0.5604
  616MOL0     C83054   2.373   5.641   4.396  0.4694 -0.0969 -0.2783
  616MOL0     O83055   2.444   5.701   4.486 -0.4959 -0.3970  0.3074
  616MOL0     C83056   2.579   5.670   4.486 -0.5865  1.0245 -0.5231
  616MOL0     C83057   2.660   5.689   4.373 -0.6936  0.3060  0.4833
  616MOL0     C83058   2.792   5.661   4.386 -0.1590  0.3636  0.2556
  616MOL0     C83059   2.857   5.617   4.501 -0.2484  0.0257  0.2148
  616MOL0     O83060   2.988   5.566   4.511 -0.5064  0.1577  0.1055
  616MOL0     C83061   3.086   5.629   4.432 -0.0102  0.8731 -0.6138
  616MOL0     C83062   3.222   5.585   4.490  0.3048  0.7675  1.2158
  616MOL0     C83063   3.246   5.434   4.450 -0.4345  0.3526 -0.4853
  616MOL0     C83064   3.372   5.374   4.518  0.2755 -0.2673 -0.4174
  616MOL0     C83065   3.415   5.241   4.454  0.4510 -0.6484 -0.7878
  616MOL0     C83066   3.550   5.176   4.501  0.3362  0.0599 -0.0632
  616MOL0     C83067   3.566   5.031   4.444 -0.0970 -0.0239 -0.2671
  616MOL0     C83068   3.707   4.975   4.489 -0.0388 -0.0488 -1.2746
  616MOL0    Cl83069   3.709   4.947   4.675 -0.0652  0.2521  0.3167
  616MOL0     C83070   2.772   5.596   4.609  0.1069  0.3505 -0.4546
  616MOL0     C83071   2.638   5.623   4.600 -0.2313 -0.4138  0.0507
  616MOL0     O83072   2.410   5.559   4.310  0.2973 -0.6554 -0.9291
  616MOL0     C83073   2.163   5.679   4.530  1.1029  0.4940 -0.7712
  616MOL0     C83074   2.027   5.702   4.540 -0.1845 -0.0824 -0.1167
  616MOL0     N83075   1.443   5.968   4.658 -0.5192 -0.5008 -0.2651
  616MOL0     N83076   1.341   5.913   4.716 -0.4907 -0.0759 -0.1166
  616MOL0     C83077   0.178   5.255   4.408  0.3639 -0.2629 -0.5564
  616MOL0     C83078   0.076   5.203   4.327  0.9207 -0.5474 -0.8698
  616MOL0     C83079  -0.093   5.005   3.905 -0.2246  0.7208  0.2194
  616MOL0     C83080  -0.221   5.027   3.943  0.0203 -0.3000 -0.1402
  616MOL0     C83081  -0.327   4.996   3.861 -0.0392 -0.2743 -0.0686
  616MOL0     C83082  -0.301   4.923   3.739 -0.3426  0.1686 -0.0996
  616MOL0     O83083  -0.396   4.877   3.642 -0.0979 -0.3769 -0.5028
  616MOL0     C83084  -0.532   4.911   3.663  0.8021 -0.0313  0.1189
  616MOL0     C83085  -0.611   4.864   3.545  0.4548 -0.6010  0.2045
  616MOL0     C83086  -0.601   4.716   3.521  0.1023  0.3075  0.0592
  616MOL0     C83087  -0.691   4.665   3.414 -0.1592 -0.5080 -0.7572
  616MOL0     C83088  -0.829   4.676   3.448  0.1221 -0.5826 -0.5382
  616MOL0     C83089  -0.945   4.690   3.477  0.0885 -0.8120 -0.0911
  616MOL0     C83090  -0.171   4.911   3.695  0.6881 -0.3025  0.0954
  616MOL0     C83091  -0.071   4.955   3.774 -0.0021  0.5195 -0.2717
  616MOL0     C83092   0.064   4.939   3.708  0.4239 -0.7452  0.0697
  616MOL0     H83093   0.229   5.206   4.031 -1.0433  3.3677 -0.2033
  616MOL0     H83094   0.403   5.322   4.163 -1.0248  1.6753  0.2097
  616MOL0     H83095   0.552   5.268   4.335 -1.8641 -0.4077 -2.0714
  616MOL0     H83096   0.524   5.450   4.347  0.8855 -1.0687 -1.3269
  616MOL0     H83097   0.637   5.254   4.558  2.3510 -1.2814 -4.7670
  616MOL0     H83098   0.563   5.388   4.618 -2.6266 -0.8414 -1.0780
  616MOL0     H83099   0.733   5.531   4.523 -0.9220 -0.3413  0.4999
  616MOL0     H83100   0.779   5.407   4.399  2.7964  2.2569 -0.3658
  616MOL0     H83101   0.835   5.365   4.695 -1.2044 -4.0562  0.2925
  616MOL0     H83102   0.876   5.269   4.551 -3.3022  0.7956 -1.4730
  616MOL0     H83103   1.076   5.390   4.620 -1.4254 -0.6383  2.1675
  616MOL0     H83104   1.027   5.448   4.459 -1.8399  1.0439 -0.4697
  616MOL0     H83105   0.908   5.651   4.572  1.4349 -0.9565 -2.4880
  616MOL0     H83106   0.963   5.585   4.724 -0.3978 -0.5625 -0.0315
  616MOL0     H83107   1.156   5.644   4.507  1.4334 -0.7935  0.5943
  616MOL0     H83108   1.205   5.611   4.669 -0.0683  0.6393  0.8350
  616MOL0     H83109   1.043   5.856   4.579  0.5579 -0.9182  0.6856
  616MOL0     H83110   1.096   5.814   4.751  0.0315 -4.4611  0.1579
  616MOL0     H83111   1.266   5.903   4.389  4.5273 -0.9471 -1.4019
  616MOL0     H83112   1.454   6.036   4.321 -1.5551 -0.4843  0.5499
  616MOL0     H83113   1.542   6.124   4.439 -0.7503  1.0750  0.2931
  616MOL0     H83114   1.686   5.979   4.317 -1.7534  0.8828 -1.4732
  616MOL0     H83115   1.684   5.936   4.487 -0.0281  1.3542 -0.4541
  616MOL0     H83116   1.527   5.800   4.272  0.9396 -1.7202  0.0398
  616MOL0     H83117   1.562   5.732   4.436  0.3993 -1.6266  0.1512
  616MOL0     H83118   1.781   5.763   4.225  0.0023  0.2384  0.5020
  616MOL0     H83119   1.715   5.609   4.285  0.5655 -0.4392  1.1817
  616MOL0     H83120   1.940   5.590   4.226  0.1177 -0.1985 -0.4646
  616MOL0     H83121   2.172   5.585   4.197  2.0688 -0.5596  1.6752
  616MOL0     H83122   2.607   5.717   4.283 -0.5674 -1.4457 -0.1665
  616MOL0     H83123   2.852   5.684   4.299  0.4099  1.9749  1.0229
  616MOL0     H83124   3.077   5.598   4.327 -1.6089  1.4914 -0.6783
  616MOL0     H83125   3.074   5.737   4.444  1.9400  1.1529 -0.8247
  616MOL0     H83126   3.302   5.645   4.445  1.2652 -0.9102  0.6016
  616MOL0     H83127   3.223   5.594   4.599  2.3077  0.2423  1.2711
  616MOL0     H83128   3.166   5.370   4.487  0.2305  0.4304  1.1849
  616MOL0     H83129   3.255   5.427   4.341 -0.4789 -0.6316 -0.4294
  616MOL0     H83130   3.358   5.371   4.627  0.3047 -0.4846 -0.4184
  616MOL0     H83131   3.443   5.457   4.517 -1.1133  0.9672 -0.3790
  616MOL0     H83132   3.440   5.265   4.350  2.8710 -3.8880 -1.1106
  616MOL0     H83133   3.333   5.168   4.453 -0.2935 -0.1108  3.4873
  616MOL0     H83134   3.637   5.228   4.462  1.2282  0.1853  1.9938
  616MOL0     H83135   3.550   5.175   4.611 -2.3771 -0.0336  0.0196
  616MOL0     H83136   3.569   5.041   4.336  1.0161  4.7529  0.0208
  616MOL0     H83137   3.487   4.959   4.470 -0.1088  0.1062  0.0737
  616MOL0     H83138   3.717   4.876   4.443 -0.9276 -1.0434  0.5585
  616MOL0     H83139   3.786   5.041   4.451  1.5004 -0.9140  0.2783
  616MOL0     H83140   2.817   5.556   4.700 -0.9139  0.6622  0.2070
  616MOL0     H83141   2.578   5.618   4.690  2.0471  0.1548  1.6934
  616MOL0     H83142   2.225   5.682   4.619  1.3400 -1.5207 -0.8071
  616MOL0     H83143   1.981   5.739   4.631 -0.9283 -1.1673 -0.0278
  616MOL0     H83144   0.163   5.260   4.515  1.5951 -0.5359 -0.3640
  616MOL0     H83145  -0.016   5.170   4.374 -0.3559  0.6206 -2.4744
  616MOL0     H83146  -0.253   5.071   4.037  0.1548  0.3796 -0.4099
  616MOL0     H83147  -0.427   5.023   3.892  0.0601 -0.6259  0.5756
  616MOL0     H83148  -0.546   5.018   3.680 -1.3933 -0.6029  2.5077
  616MOL0     H83149  -0.572   4.867   3.755  2.1426  0.2231  0.8592
  616MOL0     H83150  -0.590   4.917   3.452  3.2234 -0.8049  0.6320
  616MOL0     H83151  -0.712   4.901   3.566  1.0598  0.4441  1.3898
  616MOL0     H83152  -0.614   4.664   3.616 -0.3303  1.9150  0.9052
  616MOL0     H83153  -0.497   4.697   3.494 -0.1010  0.2876 -0.7350
  616MOL0     H83154  -0.662   4.718   3.323 -1.8704  2.8823  0.4855
  616MOL0     H83155  -0.675   4.559   3.390 -1.1599 -1.3375  1.8670
  616MOL0     H83156  -1.051   4.693   3.490 -0.2743 -2.8984 -1.8649
  616MOL0     H83157  -0.156   4.878   3.593  1.0530  1.8772 -0.6216
  616MOL0     H83158   0.052   4.897   3.608 -0.2609 -1.4433  0.4339
  616MOL0     H83159   0.121   5.032   3.707  1.4333 -1.2749  1.9312
  616MOL0     H83160   0.123   4.864   3.762 -0.5387 -1.2433  0.4586
  617MOL0     O83161  10.430   8.034   6.884 -0.6130  0.2256  0.9776
  617MOL0     C83162  10.413   8.043   7.005 -0.9518  0.1538 -0.5670
  617MOL0     O83163  10.455   8.156   7.085 -0.5663  0.6586  1.1227
  617MOL0     C83164  10.507   8.260   7.018 -0.2940  0.8017  0.3480
  617MOL0     C83165  10.437   8.324   6.911 -0.4330 -0.1706 -0.3032
  617MOL0     C83166  10.493   8.441   6.856 -0.1965  0.4901  0.0029
  617MOL0     C83167  10.612   8.490   6.910 -0.5461 -1.0759  0.9813
  617MOL0     O83168  10.658   8.599   6.838  0.9543  0.0532  0.4209
  617MOL0     C83169  10.801   8.613   6.828  0.8192  0.3012  0.6453
  617MOL0     C83170  10.839   8.744   6.750 -0.2545  0.0555  0.0698
  617MOL0     C83171  10.986   8.776   6.769  0.3512 -0.1416 -0.2853
  617MOL0     C83172  11.087   8.670   6.730 -0.9225  0.0019 -0.1621
  617MOL0     C83173  11.218   8.714   6.778  0.2214  0.0211  0.0550
  617MOL0     C83174  11.322   8.618   6.717  0.2674 -0.1620  0.3407
  617MOL0     C83175  11.462   8.651   6.778  0.1045  0.0840 -0.7930
  617MOL0     C83176  11.526   8.540   6.854 -0.9951 -0.1014 -0.2372
  617MOL0     N83177  11.672   8.539   6.838 -0.0752 -0.3413  0.4653
  617MOL0     C83178  11.739   8.441   6.759  0.5102  0.0361 -0.0975
  617MOL0     C83179  11.863   8.481   6.779  0.2170  0.5784  1.3688
  617MOL0     C83180  11.988   8.433   6.704  0.6904 -1.2597  0.0610
  617MOL0     C83181  12.010   8.285   6.690  0.4841 -0.1037 -0.1121
  617MOL0     C83182  12.028   8.199   6.819 -0.0281 -0.1487  0.6619
  617MOL0     C83183  12.164   8.224   6.890 -1.3154  0.0693  0.4206
  617MOL0     O83184  12.261   8.156   6.805  0.4466  0.3950 -0.2311
  617MOL0     C83185  12.395   8.188   6.831  0.2653  0.2242  0.1952
  617MOL0     C83186  12.447   8.274   6.928 -0.1288 -0.3460  0.2805
  617MOL0     C83187  12.590   8.284   6.934 -0.1217  0.2679 -0.4870
  617MOL0     C83188  12.677   8.212   6.856 -0.0371 -0.5406  0.0264
  617MOL0     C83189  12.821   8.226   6.876 -0.3338  0.0122 -0.0190
  617MOL0     O83190  12.889   8.116   6.836 -0.5437  0.1291 -0.2359
  617MOL0     C83191  13.026   8.115   6.837 -0.5684  0.5202 -0.8787
  617MOL0     C83192  13.092   7.992   6.843 -0.0884  0.3616 -0.0770
  617MOL0     C83193  13.229   7.976   6.855  0.1179  0.5041 -0.4860
  617MOL0     C83194  13.310   8.091   6.850  0.7156 -0.4259 -0.3560
  617MOL0     O83195  13.451   8.087   6.849  0.4717 -0.2264 -0.9079
  617MOL0     C83196  13.525   7.966   6.869  0.3585  0.2235  0.5538
  617MOL0     C83197  13.672   7.990   6.829  0.2122  0.6608 -0.2771
  617MOL0     C83198  13.750   7.870   6.889  0.9891 -0.2336 -0.4913
  617MOL0     C83199  13.896   7.868   6.853  0.4743  0.2532  0.1434
  617MOL0     C83200  13.966   7.745   6.891 -0.0424  0.4066 -0.6242
  617MOL0     C83201  14.114   7.769   6.886  0.1773  0.2684 -0.2448
  617MOL0     C83202  14.169   7.801   6.742  0.4714  0.8730  0.5246
  617MOL0     C83203  14.186   7.683   6.643  0.1563  0.6412 -0.6984
  617MOL0    Cl83204  14.035   7.629   6.572 -0.3909 -0.2498  0.0455
  617MOL0     C83205  13.246   8.215   6.835 -0.4519 -0.0579  0.3452
  617MOL0     C83206  13.111   8.228   6.832 -0.6046  0.1073 -0.1990
  617MOL0     O83207  12.863   8.334   6.926  0.3889 -0.1390  0.3860
  617MOL0     C83208  12.619   8.128   6.760  0.1190 -0.1877  0.3100
  617MOL0     C83209  12.481   8.115   6.749  0.5286 -1.1897  0.5116
  617MOL0     N83210  11.866   8.588   6.869  0.2508  0.0304  0.1585
  617MOL0     N83211  11.753   8.624   6.905  0.0114 -0.1634  0.1239
  617MOL0     C83212  10.680   8.427   7.017  1.1200 -1.0045 -1.2239
  617MOL0     C83213  10.626   8.305   7.063 -0.2669  1.2684 -0.1584
  617MOL0     C83214  10.355   7.928   7.070 -0.0963 -0.7337  0.6511
  617MOL0     C83215  10.381   7.802   7.022  0.1279  0.4042 -0.2980
  617MOL0     C83216  10.330   7.691   7.089  0.9122  0.2223  1.0891
  617MOL0     C83217  10.269   7.695   7.214 -0.0924 -0.0915  0.9072
  617MOL0     O83218  10.225   7.583   7.286 -0.2492 -0.2103  0.5405
  617MOL0     C83219  10.232   7.452   7.222 -0.1008  0.4307  0.2879
  617MOL0     C83220  10.145   7.377   7.328 -0.1745  0.5850  0.2911
  617MOL0     C83221  10.203   7.380   7.476 -0.7967 -0.0922  0.1931
  617MOL0     C83222  10.117   7.286   7.557  0.3835  0.5415  0.1073
  617MOL0     C83223   9.976   7.328   7.548  0.5620  0.0334 -0.8571
  617MOL0     C83224   9.864   7.373   7.530  0.1776 -0.4007 -0.1795
  617MOL0     C83225  10.248   7.820   7.266  0.2256  0.7096  0.1516
  617MOL0     C83226  10.277   7.939   7.194  0.8783 -0.4179  0.8841
  617MOL0     C83227  10.240   8.077   7.252 -0.4267  0.0379 -0.4082
  617MOL0     H83228  10.346   8.271   6.884  0.8154 -4.0170  2.1833
  617MOL0     H83229  10.449   8.491   6.770 -4.0760  0.8808  2.0193
  617MOL0     H83230  10.846   8.625   6.927  3.0684  0.9347 -0.3843
  617MOL0     H83231  10.854   8.531   6.781  2.1297  2.7141 -2.4545
  617MOL0     H83232  10.780   8.824   6.797  0.3241 -0.6346  2.0278
  617MOL0     H83233  10.809   8.750   6.644 -1.9728 -0.2691  0.4994
  617MOL0     H83234  10.996   8.802   6.874 -0.3336 -1.2850  0.0760
  617MOL0     H83235  11.012   8.867   6.714  2.6976 -1.4495 -1.4769
  617MOL0     H83236  11.069   8.580   6.789 -1.4049  1.0679  1.3707
  617MOL0     H83237  11.091   8.651   6.622 -0.2704 -0.2886 -0.0935
  617MOL0     H83238  11.257   8.813   6.753 -1.3946  0.6745  0.0104
  617MOL0     H83239  11.234   8.698   6.885  0.2272  1.8107  0.3561
  617MOL0     H83240  11.288   8.518   6.745  1.3626  0.2530  3.6071
  617MOL0     H83241  11.315   8.624   6.608 -3.2382 -0.4169  0.4210
  617MOL0     H83242  11.444   8.744   6.832 -0.8913 -0.7189  0.3409
  617MOL0     H83243  11.521   8.676   6.690 -3.6620  0.8767 -3.3440
  617MOL0     H83244  11.515   8.543   6.963  0.0215  1.2042 -0.1426
  617MOL0     H83245  11.484   8.448   6.812 -0.4975 -0.0973 -0.7591
  617MOL0     H83246  11.698   8.375   6.683 -0.0545 -0.2577  0.4518
  617MOL0     H83247  11.978   8.469   6.601 -3.0647  0.2251  0.7742
  617MOL0     H83248  12.079   8.480   6.743  1.9241 -0.0035 -3.9051
  617MOL0     H83249  11.928   8.237   6.637 -2.8075  0.8882  3.5484
  617MOL0     H83250  12.100   8.273   6.630 -0.2676 -2.0488 -0.8976
  617MOL0     H83251  12.019   8.093   6.794  1.2196 -0.3163  0.8208
  617MOL0     H83252  11.940   8.222   6.880 -0.6140  1.2845 -0.6612
  617MOL0     H83253  12.161   8.187   6.993 -3.2255 -0.0462  0.3633
  617MOL0     H83254  12.183   8.332   6.886 -2.1030  0.1799 -1.4037
  617MOL0     H83255  12.379   8.338   6.983 -0.2817 -1.0167  0.8856
  617MOL0     H83256  12.625   8.359   7.004 -0.1263  0.8793 -1.1262
  617MOL0     H83257  13.024   7.907   6.844 -1.2958  1.3153  0.2687
  617MOL0     H83258  13.266   7.874   6.864 -2.9245 -0.5662  2.0125
  617MOL0     H83259  13.511   7.929   6.971  0.6656  0.9211  0.8553
  617MOL0     H83260  13.490   7.886   6.802  0.7199  1.4149 -1.1191
  617MOL0     H83261  13.673   8.001   6.721  1.2509  3.9653 -0.0661
  617MOL0     H83262  13.721   8.080   6.869 -1.4533  1.7742 -0.6300
  617MOL0     H83263  13.747   7.876   6.998 -0.5837  0.8670 -0.5762
  617MOL0     H83264  13.708   7.770   6.874 -1.4161  0.1278  2.8649
  617MOL0     H83265  13.947   7.948   6.907 -1.0681  0.9217  0.6693
  617MOL0     H83266  13.910   7.886   6.746 -1.0590  0.5727 -0.0310
  617MOL0     H83267  13.932   7.659   6.833 -0.7064  0.6542 -0.6122
  617MOL0     H83268  13.940   7.734   6.996 -2.7179 -0.8992 -1.3272
  617MOL0     H83269  14.143   7.848   6.956 -0.0372 -1.7856  2.3125
  617MOL0     H83270  14.169   7.680   6.916  0.3828 -0.5123 -2.7165
  617MOL0     H83271  14.272   7.838   6.750  1.4148 -1.4979  0.2429
  617MOL0     H83272  14.110   7.872   6.684  2.1887  0.6453 -1.6568
  617MOL0     H83273  14.236   7.727   6.556  0.7265  2.4218  0.4790
  617MOL0     H83274  14.239   7.596   6.682  1.0089  1.1103 -0.7825
  617MOL0     H83275  13.324   8.290   6.825 -0.3490 -0.3473 -1.1513
  617MOL0     H83276  13.064   8.324   6.813  0.7617  0.9822  0.6557
  617MOL0     H83277  12.690   8.062   6.711  0.0769 -1.2233  1.6022
  617MOL0     H83278  12.435   8.049   6.675 -3.2188  0.3749  1.2100
  617MOL0     H83279  10.757   8.469   7.080 -0.4657  0.4623 -0.1755
  617MOL0     H83280  10.674   8.247   7.142 -4.1917  0.3729  1.8123
  617MOL0     H83281  10.440   7.786   6.933 -1.9615 -1.4408 -1.4436
  617MOL0     H83282  10.341   7.593   7.043 -0.3539  0.9755 -0.9364
  617MOL0     H83283  10.335   7.419   7.213 -0.2645 -0.7607  2.1738
  617MOL0     H83284  10.186   7.463   7.124  0.6086  0.7537 -0.0136
  617MOL0     H83285  10.144   7.275   7.289  2.8762  0.7895 -0.5484
  617MOL0     H83286  10.046   7.425   7.324  0.4799  1.9848 -3.9311
  617MOL0     H83287  10.199   7.482   7.515  3.6194  0.5702 -0.6686
  617MOL0     H83288  10.306   7.345   7.469 -1.0876 -0.6276 -1.7112
  617MOL0     H83289  10.124   7.180   7.534 -0.5600  0.1544  1.4971
  617MOL0     H83290  10.153   7.293   7.660 -1.3548  1.3773  0.6915
  617MOL0     H83291   9.760   7.397   7.520 -0.2951 -0.7735  2.7437
  617MOL0     H83292  10.213   7.818   7.369  3.2415  1.3805  1.2818
  617MOL0     H83293  10.161   8.059   7.325  0.2825 -1.2721  0.0877
  617MOL0     H83294  10.324   8.111   7.314 -1.1590 -1.4430  1.4898
  617MOL0     H83295  10.198   8.146   7.179  1.0103 -0.8279 -2.1489
  618MOL0     O83296   9.780   2.194  11.223  0.9647 -0.1747 -0.1696
  618MOL0     C83297   9.680   2.224  11.288 -0.2960  0.1375  0.6869
  618MOL0     O83298   9.675   2.298  11.400 -0.1831 -0.2725  0.3062
  618MOL0     C83299   9.794   2.366  11.431 -0.8030  0.3412 -0.7539
  618MOL0     C83300   9.909   2.298  11.483  0.2061 -0.3630 -0.4155
  618MOL0     C83301  10.019   2.373  11.519 -0.0478  0.0184  0.5871
  618MOL0     C83302  10.023   2.512  11.505  0.7979 -0.1704  0.3082
  618MOL0     O83303  10.146   2.563  11.545  0.0374  0.2438 -0.0809
  618MOL0     C83304  10.167   2.700  11.514 -0.0040 -0.2101 -0.2860
  618MOL0     C83305  10.243   2.707  11.379 -0.2188 -0.2807  0.4320
  618MOL0     C83306  10.393   2.672  11.400 -0.6670  0.0024  0.3880
  618MOL0     C83307  10.473   2.715  11.276 -0.5105 -1.0699  0.2499
  618MOL0     C83308  10.620   2.711  11.317 -0.5814  0.2819 -0.0781
  618MOL0     C83309  10.715   2.750  11.200 -0.2804  0.2491  0.5390
  618MOL0     C83310  10.720   2.895  11.170 -0.2073 -0.9419  0.3714
  618MOL0     C83311  10.832   2.944  11.069  0.6584  0.5649  0.2946
  618MOL0     N83312  10.799   3.088  11.046 -0.4607 -0.1859  0.5131
  618MOL0     C83313  10.685   3.140  10.987 -0.0863 -0.3412 -0.2731
  618MOL0     C83314  10.676   3.274  11.025  0.8830  0.2524  0.2859
  618MOL0     C83315  10.555   3.372  11.009 -0.1861 -0.1790  0.6226
  618MOL0     C83316  10.596   3.478  10.907 -0.5987  0.1105  0.9025
  618MOL0     C83317  10.511   3.600  10.904 -0.2958 -0.6696  0.9037
  618MOL0     C83318  10.530   3.688  11.032  0.0982  0.0953 -0.4718
  618MOL0     O83319  10.466   3.814  11.017  0.4917  0.4059 -0.4885
  618MOL0     C83320  10.337   3.827  11.040 -0.6355 -0.1766 -0.0175
  618MOL0     C83321  10.249   3.724  11.075  0.3004  0.0637  0.4326
  618MOL0     C83322  10.114   3.752  11.112  0.4745  0.3083 -0.2403
  618MOL0     C83323  10.070   3.885  11.133  0.0361  0.0182 -0.0616
  618MOL0     C83324   9.937   3.906  11.180  0.2276  0.8838 -0.2344
  618MOL0     O83325   9.870   3.808  11.246  0.7795 -0.3728 -0.8461
  618MOL0     C83326   9.738   3.830  11.283 -0.2135 -0.3835  0.1358
  618MOL0     C83327   9.642   3.739  11.239 -0.2857 -0.3444  0.2642
  618MOL0     C83328   9.511   3.756  11.274  0.2489  0.0372  0.2592
  618MOL0     C83329   9.466   3.870  11.345 -1.2064  1.2992 -0.0331
  618MOL0     O83330   9.327   3.868  11.374 -0.2276  0.0974  0.0534
  618MOL0     C83331   9.283   3.992  11.442  0.0200  0.1088  0.5962
  618MOL0     C83332   9.137   3.981  11.472 -0.3132  0.4033  0.6503
  618MOL0     C83333   9.059   4.106  11.515  0.5672  0.4839 -0.4509
  618MOL0     C83334   8.909   4.103  11.516  0.3685  0.0137  0.7266
  618MOL0     C83335   8.844   4.230  11.588  0.3819  0.8160 -0.1347
  618MOL0     C83336   8.693   4.202  11.609 -0.0093 -0.0886 -0.2314
  618MOL0     C83337   8.636   4.315  11.690  0.6648 -0.2576  0.4026
  618MOL0     C83338   8.492   4.285  11.734 -0.4628  0.3329 -1.1911
  618MOL0    Cl83339   8.386   4.263  11.598 -0.2931  0.1550  0.5002
  618MOL0     C83340   9.562   3.965  11.383  0.8126 -0.8781 -0.5415
  618MOL0     C83341   9.696   3.938  11.358 -0.2128  0.7191  0.9259
  618MOL0     O83342   9.892   4.021  11.159  0.3349 -0.0390 -0.1321
  618MOL0     C83343  10.154   3.986  11.082  0.3979 -0.3016 -0.9896
  618MOL0     C83344  10.288   3.954  11.046 -0.1739  0.1002 -0.6186
  618MOL0     N83345  10.782   3.295  11.104  0.4691  0.1697 -0.6436
  618MOL0     N83346  10.853   3.191  11.118  0.6176  0.1784  0.6882
  618MOL0     C83347   9.911   2.585  11.458  0.1386  0.5116 -0.0704
  618MOL0     C83348   9.800   2.511  11.423 -0.0278 -0.3787  0.5970
  618MOL0     C83349   9.553   2.144  11.269  0.2432  0.1118 -0.0177
  618MOL0     C83350   9.470   2.119  11.380  0.9806  0.3928 -0.2817
  618MOL0     C83351   9.363   2.029  11.375 -0.3263 -0.9765  0.2759
  618MOL0     C83352   9.346   1.948  11.265  0.8133  0.3595  0.0437
  618MOL0     O83353   9.257   1.848  11.247  0.2915 -0.6639 -0.3803
  618MOL0     C83354   9.168   1.815  11.343  0.0766  1.0536  0.0274
  618MOL0     C83355   9.229   1.740  11.474 -0.2562 -0.7683 -0.6687
  618MOL0     C83356   9.268   1.593  11.463  0.1248  0.2768 -0.0526
  618MOL0     C83357   9.371   1.584  11.340 -0.8257 -0.3595  0.2215
  618MOL0     C83358   9.429   1.450  11.332  0.8289 -0.2425  0.2263
  618MOL0     C83359   9.476   1.333  11.318  0.6565 -0.6808 -0.0145
  618MOL0     C83360   9.419   1.975  11.154 -1.0987  0.1106 -0.1664
  618MOL0     C83361   9.522   2.073  11.144  0.5313 -0.6797 -0.7301
  618MOL0     C83362   9.607   2.079  11.017 -0.0717 -0.2222 -0.0884
  618MOL0     H83363   9.904   2.192  11.504 -0.0549 -0.3025 -0.1612
  618MOL0     H83364  10.097   2.319  11.573 -2.0629 -1.7575  1.8653
  618MOL0     H83365  10.081   2.767  11.526 -0.9060 -1.6405  1.7533
  618MOL0     H83366  10.230   2.751  11.587 -0.1316  1.4237 -1.2702
  618MOL0     H83367  10.232   2.808  11.338  0.6172  0.7863  2.6929
  618MOL0     H83368  10.198   2.639  11.306  2.9433 -1.2498 -0.7768
  618MOL0     H83369  10.417   2.566  11.397  0.8847  0.3191  0.4954
  618MOL0     H83370  10.445   2.712  11.489  0.9232  0.3725 -0.6608
  618MOL0     H83371  10.456   2.646  11.194 -1.5065 -2.0554  1.2610
  618MOL0     H83372  10.453   2.814  11.234  2.6394 -0.6153 -0.5051
  618MOL0     H83373  10.644   2.760  11.412  1.4088 -1.5350  0.4288
  618MOL0     H83374  10.653   2.613  11.352  1.8663  2.1677  3.5930
  618MOL0     H83375  10.816   2.716  11.223 -0.0456 -1.0330 -2.0172
  618MOL0     H83376  10.682   2.703  11.106  1.5275  2.5759 -1.3977
  618MOL0     H83377  10.736   2.947  11.266 -0.7352 -0.3882  0.1663
  618MOL0     H83378  10.631   2.941  11.126 -0.6253 -1.5646  0.5645
  618MOL0     H83379  10.933   2.930  11.107  1.4154  1.2316 -1.3448
  618MOL0     H83380  10.827   2.903  10.967  2.1241 -1.0706  0.8413
  618MOL0     H83381  10.616   3.079  10.929 -1.7994  1.5734 -0.3587
  618MOL0     H83382  10.470   3.309  10.979  1.5192 -1.7548 -1.2323
  618MOL0     H83383  10.525   3.413  11.105 -0.6904 -1.2647  0.9519
  618MOL0     H83384  10.699   3.504  10.930 -0.5426 -0.5031  1.3843
  618MOL0     H83385  10.603   3.427  10.811  0.0495  0.3630  0.8121
  618MOL0     H83386  10.404   3.580  10.895 -0.4164  0.5668 -1.1486
  618MOL0     H83387  10.525   3.663  10.816 -0.8933 -0.6836  0.7960
  618MOL0     H83388  10.637   3.701  11.047 -0.2263  1.8973  0.6174
  618MOL0     H83389  10.498   3.650  11.130 -0.3217  0.0791 -0.6106
  618MOL0     H83390  10.288   3.622  11.074 -0.3643 -0.2050  0.9732
  618MOL0     H83391  10.045   3.674  11.144  0.1947  1.9310  3.7345
  618MOL0     H83392   9.689   3.676  11.163  1.9531  1.5399 -0.0404
  618MOL0     H83393   9.443   3.683  11.230 -0.1203  2.9887 -4.9524
  618MOL0     H83394   9.342   4.005  11.533 -5.0203  3.0595  3.9814
  618MOL0     H83395   9.297   4.080  11.379 -0.4106  0.1332  0.5268
  618MOL0     H83396   9.084   3.957  11.379  0.0021  0.5188  0.4405
  618MOL0     H83397   9.124   3.903  11.547  2.8475 -2.4476 -1.4357
  618MOL0     H83398   9.099   4.121  11.616  1.8636 -0.2336 -0.8349
  618MOL0     H83399   9.088   4.190  11.451  0.3600  0.1130 -1.0317
  618MOL0     H83400   8.885   4.014  11.575  1.8484 -0.8201  0.1387
  618MOL0     H83401   8.871   4.089  11.414 -1.4343  1.1957  1.1912
  618MOL0     H83402   8.861   4.322  11.530  1.3879  0.5106 -0.3532
  618MOL0     H83403   8.897   4.241  11.683  1.2567 -0.9074 -0.3901
  618MOL0     H83404   8.638   4.196  11.515  1.3006 -0.4972 -1.0034
  618MOL0     H83405   8.677   4.107  11.661 -1.1505 -0.1337 -0.6538
  618MOL0     H83406   8.622   4.403  11.627 -2.0747 -1.4288 -0.8082
  618MOL0     H83407   8.703   4.339  11.773  4.2446 -3.3708 -1.2772
  618MOL0     H83408   8.488   4.197  11.799  1.5325  2.7944  2.6479
  618MOL0     H83409   8.457   4.372  11.791  1.9525 -0.1356  1.2489
  618MOL0     H83410   9.531   4.057  11.433  2.0279 -1.7150  1.9087
  618MOL0     H83411   9.770   4.013  11.384  3.6718 -2.3381 -0.4014
  618MOL0     H83412  10.104   4.082  11.086 -0.6839 -0.8907  0.9503
  618MOL0     H83413  10.355   4.038  11.033  0.8221 -0.3142  1.4404
  618MOL0     H83414   9.907   2.693  11.447  0.1694  0.8483  2.5999
  618MOL0     H83415   9.712   2.563  11.387 -1.6140 -2.3431  1.4534
  618MOL0     H83416   9.500   2.168  11.472  1.0588  1.1786 -0.7065
  618MOL0     H83417   9.291   2.023  11.456 -1.7935  0.0911 -0.8902
  618MOL0     H83418   9.094   1.750  11.295  0.9492  0.1037 -0.0596
  618MOL0     H83419   9.116   1.909  11.366  0.3975  1.6389 -1.4864
  618MOL0     H83420   9.151   1.748  11.550  1.0944  0.8334  0.6370
  618MOL0     H83421   9.319   1.782  11.519 -0.7694 -1.5194  1.1180
  618MOL0     H83422   9.186   1.532  11.424 -0.0300 -0.0300  0.7479
  618MOL0     H83423   9.303   1.559  11.560  0.5846  2.9971  0.8149
  618MOL0     H83424   9.330   1.607  11.241  1.7921  1.5683 -0.5296
  618MOL0     H83425   9.441   1.669  11.339 -2.5535  1.1438  0.9083
  618MOL0     H83426   9.502   1.229  11.329 -1.2493 -1.3194 -1.0752
  618MOL0     H83427   9.378   1.930  11.063 -0.8892 -0.1568 -0.1303
  618MOL0     H83428   9.607   2.175  10.964  1.3169  0.8750  1.7610
  618MOL0     H83429   9.713   2.060  11.038  0.6403  1.6361 -1.6397
  618MOL0     H83430   9.581   2.001  10.944 -2.2911 -0.5736  0.9932
  619MOL0     O83431  10.103   9.226   8.881  0.0252 -0.3856  0.0747
  619MOL0     C83432  10.072   9.343   8.897  0.6182 -0.5033  0.0212
  619MOL0     O83433  10.150   9.453   8.871  0.2943 -0.3460  0.1770
  619MOL0     C83434  10.261   9.424   8.798 -0.1732 -0.0277 -1.1742
  619MOL0     C83435  10.269   9.355   8.676  0.6340 -0.1718 -0.1963
  619MOL0     C83436  10.394   9.327   8.612  0.3769  0.0711 -0.2149
  619MOL0     C83437  10.511   9.377   8.666  0.5974 -0.9655 -1.1985
  619MOL0     O83438  10.625   9.349   8.600 -0.4402 -1.0628  0.1186
  619MOL0     C83439  10.751   9.415   8.628  0.6224  0.1097 -0.4934
  619MOL0     C83440  10.851   9.386   8.516 -0.3106 -0.0034 -0.2077
  619MOL0     C83441  10.992   9.423   8.554 -1.1410  0.7525  0.8474
  619MOL0     C83442  11.085   9.435   8.432  0.1766  0.9235  1.0255
  619MOL0     C83443  11.220   9.488   8.479 -0.0559 -0.5129 -0.2145
  619MOL0     C83444  11.321   9.489   8.356  0.5396  0.3389 -0.4091
  619MOL0     C83445  11.449   9.566   8.408  0.3171  1.2473  0.6309
  619MOL0     C83446  11.436   9.719   8.425  0.2358  0.4871  0.3807
  619MOL0     N83447  11.570   9.773   8.392 -0.0630  0.2803  0.4651
  619MOL0     C83448  11.659   9.811   8.486 -0.3848 -0.6522 -0.1780
  619MOL0     C83449  11.756   9.873   8.422 -0.2656  0.2100 -0.9790
  619MOL0     C83450  11.890   9.920   8.471  0.1092 -0.1488  0.0572
  619MOL0     C83451  11.961   9.797   8.526 -0.2226  0.0950  0.8801
  619MOL0     C83452  12.080   9.826   8.618  0.2120  0.4512 -0.5918
  619MOL0     C83453  12.164   9.943   8.588 -0.2837  0.6096 -0.9595
  619MOL0     O83454  12.284   9.933   8.663  0.3999  0.3395 -0.0036
  619MOL0     C83455  12.391  10.006   8.621  0.3820  0.6365 -0.1802
  619MOL0     C83456  12.410  10.076   8.495  0.3617 -0.7584 -0.2412
  619MOL0     C83457  12.529  10.139   8.461  0.0142 -0.1204  0.3428
  619MOL0     C83458  12.627  10.146   8.555 -0.1262  0.0659  0.9324
  619MOL0     C83459  12.762  10.217   8.536  0.1453 -0.2895  0.1573
  619MOL0     O83460  12.769  10.297   8.422  1.0196 -0.3341  0.7097
  619MOL0     C83461  12.881  10.358   8.390  0.0785 -0.0940  0.7587
  619MOL0     C83462  12.907  10.351   8.257  0.2645 -0.0779 -0.2895
  619MOL0     C83463  13.021  10.417   8.206  0.0018  0.7590 -0.2325
  619MOL0     C83464  13.103  10.493   8.295  0.0365  0.0105 -0.0979
  619MOL0     O83465  13.217  10.556   8.238  0.7020 -0.6365 -0.3403
  619MOL0     C83466  13.319  10.603   8.319  0.3025 -0.3436 -0.3749
  619MOL0     C83467  13.440  10.664   8.241 -0.1581  0.3620 -0.1575
  619MOL0     C83468  13.540  10.687   8.347 -0.7035 -0.0320 -0.8710
  619MOL0     C83469  13.659  10.770   8.289  0.3920 -0.3444 -0.3179
  619MOL0     C83470  13.782  10.774   8.372  0.6515  0.7507  0.3433
  619MOL0     C83471  13.852  10.633   8.366  0.0969 -0.1310 -0.0797
  619MOL0     C83472  13.993  10.647   8.423 -0.0412 -0.1213 -0.0418
  619MOL0     C83473  14.055  10.502   8.414  0.4696 -1.0154 -0.2426
  619MOL0    Cl83474  14.029  10.425   8.249 -0.0198  0.4952 -0.0779
  619MOL0     C83475  13.074  10.491   8.430  0.6228  0.2376 -0.0291
  619MOL0     C83476  12.964  10.427   8.477  0.0864 -0.2029  0.1276
  619MOL0     O83477  12.854  10.193   8.613  0.3004 -0.5152 -0.3223
  619MOL0     C83478  12.619  10.066   8.671 -0.1821 -0.4071  0.4187
  619MOL0     C83479  12.501   9.997   8.706  0.7778 -0.3063 -0.1166
  619MOL0     N83480  11.726   9.867   8.291  0.3666 -0.1059  0.4335
  619MOL0     N83481  11.607   9.813   8.267 -0.6949  0.3883 -0.2634
  619MOL0     C83482  10.503   9.451   8.785 -1.0137 -0.0563  0.5249
  619MOL0     C83483  10.387   9.470   8.852  0.1859  0.6338  0.1220
  619MOL0     C83484   9.943   9.371   8.960  0.0742 -0.1499 -0.0125
  619MOL0     C83485   9.928   9.495   9.034  0.5928 -0.7409 -0.6141
  619MOL0     C83486   9.803   9.516   9.103 -1.0029  0.4314  0.0843
  619MOL0     C83487   9.698   9.422   9.112 -0.3596  0.1062  0.4421
  619MOL0     O83488   9.595   9.455   9.197  0.0051 -0.3960 -0.3109
  619MOL0     C83489   9.481   9.368   9.201  0.2598 -0.3598  0.4660
  619MOL0     C83490   9.352   9.443   9.236 -0.1155 -0.1858  0.0817
  619MOL0     C83491   9.307   9.553   9.141 -1.1037 -0.2118 -0.4432
  619MOL0     C83492   9.167   9.603   9.181  0.1691 -0.2084  0.6014
  619MOL0     C83493   9.107   9.703   9.100 -0.6858 -0.2767  0.9545
  619MOL0     C83494   9.038   9.779   9.043  0.4563 -0.2392 -0.0950
  619MOL0     C83495   9.716   9.302   9.032 -0.2710 -0.1537 -0.3543
  619MOL0     C83496   9.832   9.280   8.960  0.4185  0.0356 -0.0498
  619MOL0     C83497   9.823   9.166   8.862 -0.9984  0.0684 -0.4118
  619MOL0     H83498  10.173   9.314   8.645  0.8050 -0.2899 -0.5674
  619MOL0     H83499  10.394   9.274   8.518 -0.8072  0.9697 -0.7464
  619MOL0     H83500  10.725   9.521   8.631 -0.4648 -0.1498  2.5283
  619MOL0     H83501  10.796   9.393   8.725 -0.7111  4.1819  1.2632
  619MOL0     H83502  10.823   9.443   8.427 -0.3637  1.4258  0.6794
  619MOL0     H83503  10.839   9.281   8.490 -0.7217 -0.7492  2.6004
  619MOL0     H83504  11.024   9.354   8.632 -1.2020  1.2100  1.2827
  619MOL0     H83505  10.990   9.522   8.600 -1.8627  1.2205 -0.1512
  619MOL0     H83506  11.091   9.335   8.389  2.2994  0.5939  1.9304
  619MOL0     H83507  11.038   9.485   8.347 -3.8794 -1.4650  1.6099
  619MOL0     H83508  11.207   9.591   8.516  1.4563 -0.3270 -0.1399
  619MOL0     H83509  11.260   9.422   8.557 -0.9457 -0.5477  0.2285
  619MOL0     H83510  11.355   9.387   8.333  1.3996  0.5908 -0.3179
  619MOL0     H83511  11.296   9.530   8.258 -0.6259  0.5515 -0.0311
  619MOL0     H83512  11.530   9.543   8.338  0.2758 -1.5287  1.3759
  619MOL0     H83513  11.484   9.527   8.504  1.2608  3.7588  1.3984
  619MOL0     H83514  11.362   9.761   8.356 -0.0461 -0.3768  0.1400
  619MOL0     H83515  11.399   9.737   8.526 -2.8132  0.0531 -0.5475
  619MOL0     H83516  11.648   9.799   8.594 -3.2365  1.6603 -0.0916
  619MOL0     H83517  11.943   9.965   8.387 -1.0192 -2.5034 -2.0641
  619MOL0     H83518  11.881   9.996   8.548  0.1384 -0.0961  0.0088
  619MOL0     H83519  11.894   9.733   8.584 -1.1365 -0.2485 -0.5293
  619MOL0     H83520  11.997   9.741   8.439  1.7985  1.3658  0.8189
  619MOL0     H83521  12.142   9.736   8.608 -0.0448  0.3833 -1.7767
  619MOL0     H83522  12.042   9.827   8.721  0.2729  1.6021 -0.5636
  619MOL0     H83523  12.121  10.039   8.618 -0.3403  1.1977 -2.8194
  619MOL0     H83524  12.187   9.930   8.482 -1.4630 -0.6634 -1.0800
  619MOL0     H83525  12.338  10.100   8.418 -1.7935  2.9623  2.5602
  619MOL0     H83526  12.543  10.194   8.368 -1.1730 -0.1986  0.1002
  619MOL0     H83527  12.827  10.316   8.193 -1.1657  1.2634  0.6897
  619MOL0     H83528  13.036  10.405   8.099 -1.0924  1.9718 -0.5447
  619MOL0     H83529  13.267  10.678   8.379 -2.4950 -1.0206 -1.7869
  619MOL0     H83530  13.362  10.535   8.394 -0.9710 -0.1421  0.5629
  619MOL0     H83531  13.476  10.589   8.170 -3.5057 -2.3719  0.7636
  619MOL0     H83532  13.417  10.756   8.186  1.7572  0.6863 -0.5134
  619MOL0     H83533  13.495  10.743   8.430  2.3992  0.2244  0.7955
  619MOL0     H83534  13.574  10.593   8.390  1.4513  0.9957 -0.2246
  619MOL0     H83535  13.616  10.866   8.258 -0.7375 -1.2320 -1.6342
  619MOL0     H83536  13.687  10.724   8.195  0.0439 -0.4181 -0.3882
  619MOL0     H83537  13.768  10.807   8.476  2.7041 -0.3449  1.0151
  619MOL0     H83538  13.848  10.849   8.329 -0.6105  1.4682 -0.4130
  619MOL0     H83539  13.788  10.556   8.410 -0.3755 -1.0367 -2.2351
  619MOL0     H83540  13.862  10.607   8.260  0.3115 -0.5623  0.0437
  619MOL0     H83541  13.995  10.695   8.522  1.9506  0.9065 -0.5212
  619MOL0     H83542  14.046  10.715   8.356  1.4537  0.6423  1.8253
  619MOL0     H83543  14.160  10.522   8.440  0.0392 -0.2966  1.0911
  619MOL0     H83544  14.006  10.457   8.501 -3.2620  1.0596 -1.0394
  619MOL0     H83545  13.142  10.544   8.497  2.3123 -2.5433  0.6212
  619MOL0     H83546  12.937  10.429   8.582 -1.0908 -0.0266 -0.1702
  619MOL0     H83547  12.705  10.070   8.737  0.6266  1.7682 -0.6662
  619MOL0     H83548  12.506   9.948   8.803  1.7243  2.6042  1.4366
  619MOL0     H83549  10.595   9.488   8.829  1.3123 -1.9919 -2.3831
  619MOL0     H83550  10.391   9.519   8.949  0.4791 -2.0318  1.5652
  619MOL0     H83551  10.010   9.565   9.042 -0.0914  0.1142 -0.8681
  619MOL0     H83552   9.794   9.604   9.166  4.2921  1.4557 -0.1024
  619MOL0     H83553   9.498   9.299   9.284  0.4227 -2.7195 -1.3840
  619MOL0     H83554   9.457   9.316   9.107 -1.2506 -2.9626  2.1712
  619MOL0     H83555   9.363   9.490   9.334 -3.7111  1.3334 -0.1068
  619MOL0     H83556   9.268   9.373   9.243 -0.8647  0.7626  0.8181
  619MOL0     H83557   9.316   9.511   9.040  0.8693 -0.7259 -0.1062
  619MOL0     H83558   9.386   9.629   9.148  1.0485 -2.4097  0.8793
  619MOL0     H83559   9.101   9.517   9.169 -1.5482  1.3652 -2.8070
  619MOL0     H83560   9.173   9.636   9.285  0.9684 -3.1829  1.6028
  619MOL0     H83561   8.997   9.852   8.976  2.6631  1.3700  0.2058
  619MOL0     H83562   9.634   9.230   9.040 -0.6742  0.3034 -0.3108
  619MOL0     H83563   9.829   9.198   8.757  0.0024 -1.8300 -0.9877
  619MOL0     H83564   9.901   9.091   8.877  0.0744  1.4534  1.3602
  619MOL0     H83565   9.732   9.110   8.883 -3.0118  2.7931 -1.2921
  620MOL0     O83566   4.644   9.189   5.075 -0.1366 -0.2498  0.0440
  620MOL0     C83567   4.587   9.291   5.103  1.2365  0.0121 -0.3563
  620MOL0     O83568   4.646   9.399   5.156  0.3098  0.5218  0.3951
  620MOL0     C83569   4.780   9.400   5.178 -0.0482  0.4390 -0.5251
  620MOL0     C83570   4.837   9.351   5.301  0.1662  0.2953 -0.2599
  620MOL0     C83571   4.974   9.378   5.326 -0.7441  0.4356 -0.0905
  620MOL0     C83572   5.047   9.447   5.227 -0.0116 -0.2969 -0.7734
  620MOL0     O83573   5.173   9.479   5.279 -0.1021  0.4734 -0.1739
  620MOL0     C83574   5.237   9.590   5.223  0.4841  0.0926  0.3679
  620MOL0     C83575   5.361   9.635   5.311  0.0022 -0.0771  0.2061
  620MOL0     C83576   5.475   9.524   5.314  0.1436 -0.5099 -0.8133
  620MOL0     C83577   5.564   9.541   5.198 -0.2187 -0.1674  0.0511
  620MOL0     C83578   5.657   9.424   5.174 -0.2431 -0.1817  0.6015
  620MOL0     C83579   5.755   9.471   5.060 -0.1953 -0.1642 -1.4256
  620MOL0     C83580   5.844   9.350   5.038 -0.8713 -0.9373  0.0373
  620MOL0     C83581   5.959   9.389   4.935  0.8626 -0.4649  0.8084
  620MOL0     N83582   5.923   9.403   4.795 -0.5467 -0.0378 -0.7323
  620MOL0     C83583   5.864   9.307   4.720  0.6249  0.3138  0.0314
  620MOL0     C83584   5.890   9.338   4.591 -0.1178 -0.0992  0.0415
  620MOL0     C83585   5.853   9.264   4.459 -0.4337  0.9056 -0.4459
  620MOL0     C83586   5.967   9.177   4.410 -0.5594 -0.5437 -0.2871
  620MOL0     C83587   6.105   9.244   4.379  0.8531 -0.2885 -0.2582
  620MOL0     C83588   6.201   9.141   4.320 -0.3375 -0.1749  0.7496
  620MOL0     O83589   6.334   9.184   4.331 -0.4257  0.1387 -0.0688
  620MOL0     C83590   6.405   9.189   4.442  0.2131 -0.0153  0.1037
  620MOL0     C83591   6.540   9.236   4.427  0.9592  0.2878  0.1404
  620MOL0     C83592   6.621   9.247   4.541 -0.0888  0.0881 -0.0930
  620MOL0     C83593   6.577   9.194   4.671 -0.0690  0.6244  0.9449
  620MOL0     C83594   6.668   9.220   4.784 -0.2469 -0.3651  0.7481
  620MOL0     O83595   6.788   9.280   4.757  0.3175  0.5901 -0.3581
  620MOL0     C83596   6.874   9.304   4.855  0.2719 -0.0080 -0.0014
  620MOL0     C83597   6.973   9.216   4.872 -0.4195 -0.2078 -0.1097
  620MOL0     C83598   7.062   9.251   4.973  0.0382  0.4798  0.1648
  620MOL0     C83599   7.048   9.361   5.055  0.3227  0.3089  0.5721
  620MOL0     O83600   7.144   9.376   5.147 -0.5835 -0.5864  0.1717
  620MOL0     C83601   7.152   9.499   5.224 -0.1953 -0.3874 -0.2512
  620MOL0     C83602   7.241   9.453   5.341 -0.1809 -0.7376  0.0163
  620MOL0     C83603   7.232   9.556   5.454 -0.0818  0.1578  0.0541
  620MOL0     C83604   7.346   9.550   5.567  0.2840  0.2453  0.5247
  620MOL0     C83605   7.320   9.677   5.657  0.3842 -0.3672 -0.5753
  620MOL0     C83606   7.434   9.725   5.737  0.1535  0.1939 -0.8525
  620MOL0     C83607   7.468   9.612   5.835 -0.5736  0.5602 -0.5719
  620MOL0     C83608   7.571   9.661   5.935 -0.1370 -0.4336  0.3475
  620MOL0    Cl83609   7.708   9.745   5.854 -0.5208 -0.5432  0.1777
  620MOL0     C83610   6.950   9.458   5.027 -0.5356 -0.1325 -0.7460
  620MOL0     C83611   6.855   9.429   4.924  0.1136  0.4076 -0.1226
  620MOL0     O83612   6.631   9.189   4.898  0.4790 -0.3730 -0.1757
  620MOL0     C83613   6.451   9.142   4.680  1.1100  0.5890 -0.3319
  620MOL0     C83614   6.367   9.138   4.565 -0.2694  0.1931 -0.0853
  620MOL0     N83615   5.959   9.458   4.596  0.4314 -0.0331 -0.1149
  620MOL0     N83616   5.987   9.493   4.713  0.6040 -0.0216  0.5475
  620MOL0     C83617   4.990   9.490   5.105  0.8513  0.0906 -0.3465
  620MOL0     C83618   4.852   9.471   5.080 -1.0040  0.8432  1.0479
  620MOL0     C83619   4.435   9.286   5.083 -0.3008 -1.4155 -0.7116
  620MOL0     C83620   4.351   9.328   5.193 -0.4779  0.1702 -0.3709
  620MOL0     C83621   4.208   9.328   5.178 -0.2003  0.0577  0.6724
  620MOL0     C83622   4.150   9.303   5.055 -0.6555 -0.2586 -0.2823
  620MOL0     O83623   4.009   9.322   5.053  0.4201 -0.3815  0.5614
  620MOL0     C83624   3.949   9.323   4.921  0.0940 -0.0280  0.3580
  620MOL0     C83625   3.812   9.373   4.949 -0.3907  0.7206 -0.0258
  620MOL0     C83626   3.728   9.360   4.817  0.2595  0.0867  0.2468
  620MOL0     C83627   3.592   9.430   4.826 -0.3907  0.0696 -0.3793
  620MOL0     C83628   3.505   9.333   4.901  0.3278  0.4341  0.5286
  620MOL0     C83629   3.440   9.265   4.973 -0.3680  0.9201  0.2332
  620MOL0     C83630   4.228   9.277   4.944  0.6097  0.6658 -0.5183
  620MOL0     C83631   4.364   9.256   4.960 -0.4821  0.2000 -0.2106
  620MOL0     C83632   4.437   9.210   4.837  0.5837 -0.6581 -0.1988
  620MOL0     H83633   4.769   9.295   5.363 -0.3604  1.3422  0.1301
  620MOL0     H83634   5.043   9.346   5.404  3.6559  2.9517 -2.4954
  620MOL0     H83635   5.268   9.567   5.121 -0.6872 -0.6573  0.1686
  620MOL0     H83636   5.175   9.680   5.233 -0.6853 -0.9583  6.0028
  620MOL0     H83637   5.331   9.657   5.414  0.4303  0.7035  0.1714
  620MOL0     H83638   5.398   9.730   5.271  2.1939 -1.0693 -0.2727
  620MOL0     H83639   5.432   9.425   5.328 -1.2096  0.1833  0.1271
  620MOL0     H83640   5.524   9.526   5.412 -0.9641 -1.1134 -0.2321
  620MOL0     H83641   5.507   9.555   5.105 -0.2175  0.1385  0.0962
  620MOL0     H83642   5.619   9.634   5.218 -1.2208  0.6851 -1.0226
  620MOL0     H83643   5.712   9.404   5.266  1.2253 -3.2133 -0.7830
  620MOL0     H83644   5.598   9.337   5.141  1.6595 -1.0628 -0.6829
  620MOL0     H83645   5.698   9.480   4.967  0.4944 -1.5506 -2.0113
  620MOL0     H83646   5.798   9.568   5.087  1.6397 -1.2555 -0.1405
  620MOL0     H83647   5.781   9.270   4.997 -3.9031  0.9067  0.7107
  620MOL0     H83648   5.887   9.325   5.136 -0.0137  1.4857  0.3291
  620MOL0     H83649   6.009   9.483   4.955 -1.5295  0.8135  1.2087
  620MOL0     H83650   6.033   9.308   4.938  1.1641 -0.2006  0.5282
  620MOL0     H83651   5.800   9.227   4.757 -0.2788  0.9417 -0.1240
  620MOL0     H83652   5.761   9.204   4.465  0.7692 -1.0825 -0.9670
  620MOL0     H83653   5.845   9.343   4.383 -0.3209 -0.1038 -1.5467
  620MOL0     H83654   5.983   9.095   4.480  0.2548 -0.9389 -0.9272
  620MOL0     H83655   5.930   9.144   4.313 -2.7358 -1.7684  0.9008
  620MOL0     H83656   6.140   9.296   4.468  0.9954  5.0449 -3.0170
  620MOL0     H83657   6.092   9.317   4.299 -1.2119 -1.7381 -1.3486
  620MOL0     H83658   6.187   9.107   4.217 -0.9764 -0.8004  1.0409
  620MOL0     H83659   6.188   9.055   4.386  2.0601 -0.9440  0.3354
  620MOL0     H83660   6.563   9.268   4.326  1.3002 -0.3531  0.0086
  620MOL0     H83661   6.715   9.295   4.514  0.2932  0.2712  1.4479
  620MOL0     H83662   6.970   9.123   4.816 -1.2150 -1.4833  1.9228
  620MOL0     H83663   7.147   9.187   4.994 -0.0815  0.1366 -0.3819
  620MOL0     H83664   7.194   9.584   5.169 -1.4050 -0.7434 -1.8035
  620MOL0     H83665   7.054   9.528   5.262 -0.2760 -0.1558 -0.6278
  620MOL0     H83666   7.206   9.356   5.377 -0.9079 -0.3336  0.4278
  620MOL0     H83667   7.340   9.451   5.295 -0.0365 -0.6546  0.3166
  620MOL0     H83668   7.248   9.653   5.405  1.1703  0.4070  0.8991
  620MOL0     H83669   7.134   9.559   5.501  0.2111  1.3364  0.6549
  620MOL0     H83670   7.445   9.549   5.520 -0.8633 -2.3995 -2.1437
  620MOL0     H83671   7.329   9.462   5.629 -0.9350 -1.8935 -2.5802
  620MOL0     H83672   7.240   9.644   5.724  1.8845 -0.6652  1.1458
  620MOL0     H83673   7.292   9.761   5.592  0.2222 -0.2836 -0.3965
  620MOL0     H83674   7.517   9.744   5.669  0.1803  3.6135 -0.0552
  620MOL0     H83675   7.402   9.813   5.795 -0.8038 -1.4811  1.3235
  620MOL0     H83676   7.513   9.535   5.772 -0.5128  0.8138 -0.8400
  620MOL0     H83677   7.379   9.577   5.890 -0.6301 -1.7359 -2.0002
  620MOL0     H83678   7.522   9.733   6.001 -3.7578 -2.3837  0.0589
  620MOL0     H83679   7.613   9.577   5.990 -0.4405  0.2103  1.5910
  620MOL0     H83680   6.928   9.545   5.088 -4.2780 -1.4933  0.0667
  620MOL0     H83681   6.775   9.497   4.896  3.6766  4.7915 -0.7697
  620MOL0     H83682   6.420   9.107   4.778  3.2857 -0.8195 -0.0972
  620MOL0     H83683   6.265   9.100   4.575  0.6860 -2.1891  1.3053
  620MOL0     H83684   5.042   9.549   5.031 -0.4611  0.7313 -0.7791
  620MOL0     H83685   4.795   9.491   4.991 -0.3615 -2.8837 -0.3773
  620MOL0     H83686   4.381   9.353   5.294 -1.3246  2.4732 -0.6216
  620MOL0     H83687   4.154   9.367   5.264  0.9004  2.6318  0.2863
  620MOL0     H83688   3.950   9.228   4.867 -2.2031  0.9659 -1.6225
  620MOL0     H83689   4.001   9.392   4.854 -0.9576 -0.8094 -1.3362
  620MOL0     H83690   3.804   9.475   4.987 -3.1645 -0.1686  2.1315
  620MOL0     H83691   3.776   9.295   5.017  2.4377 -1.3996 -0.7660
  620MOL0     H83692   3.707   9.255   4.796  0.2224 -0.2544  1.8532
  620MOL0     H83693   3.789   9.400   4.735  0.6487 -1.8109 -0.4394
  620MOL0     H83694   3.597   9.526   4.877 -1.1795 -0.3877  0.5893
  620MOL0     H83695   3.559   9.433   4.722  3.0714  1.1387 -1.5964
  620MOL0     H83696   3.382   9.198   5.034  2.2629  0.2325  2.1681
  620MOL0     H83697   4.182   9.267   4.846 -0.2818  0.8555 -0.1276
  620MOL0     H83698   4.438   9.293   4.766 -1.5146 -0.1603  0.3002
  620MOL0     H83699   4.541   9.186   4.862  0.1212  0.0042  2.8473
  620MOL0     H83700   4.392   9.120   4.796  0.9784 -0.6739 -0.5976
  621MOL0     O83701   4.726   1.761   9.462  0.5366 -0.2888  0.4965
  621MOL0     C83702   4.708   1.858   9.537  0.1789 -0.1103 -0.2824
  621MOL0     O83703   4.787   1.963   9.558 -0.3497  0.2580  0.5874
  621MOL0     C83704   4.922   1.962   9.529 -0.6583 -0.5700 -0.5575
  621MOL0     C83705   4.977   2.082   9.514  0.3379 -0.1267  0.0843
  621MOL0     C83706   5.122   2.093   9.501 -0.4450  0.8877  0.1755
  621MOL0     C83707   5.203   1.982   9.520  0.2255  0.0143 -0.0278
  621MOL0     O83708   5.339   1.989   9.515  1.0629  0.8101 -0.1854
  621MOL0     C83709   5.420   1.878   9.552 -0.8115 -0.3207 -0.0538
  621MOL0     C83710   5.555   1.908   9.491 -0.2244  0.3799  0.0831
  621MOL0     C83711   5.665   1.848   9.580  0.7985  0.2227  0.0540
  621MOL0     C83712   5.664   1.693   9.589 -0.5354 -0.1436 -0.8714
  621MOL0     C83713   5.796   1.646   9.655  0.1217  0.2048 -0.8289
  621MOL0     C83714   5.802   1.493   9.706  0.8286  0.2713  0.1915
  621MOL0     C83715   5.909   1.452   9.807 -0.2300  0.0991 -0.2518
  621MOL0     C83716   6.042   1.521   9.774 -0.2606 -1.5530  0.2506
  621MOL0     N83717   6.093   1.510   9.635 -0.7594 -0.0550  0.3672
  621MOL0     C83718   6.120   1.381   9.584  0.0047  0.7959 -0.0757
  621MOL0     C83719   6.211   1.400   9.486 -0.2708 -0.6938  0.6906
  621MOL0     C83720   6.286   1.299   9.399 -0.1717  0.1302  0.3212
  621MOL0     C83721   6.236   1.162   9.411 -0.0188 -0.0482 -1.7189
  621MOL0     C83722   6.278   1.079   9.292  0.2093 -0.3208 -0.3737
  621MOL0     C83723   6.429   1.058   9.280  0.5481  0.4416 -0.5932
  621MOL0     O83724   6.478   1.008   9.409  0.0338 -0.9081  0.3764
  621MOL0     C83725   6.589   0.925   9.417 -0.4538 -0.4492  0.0342
  621MOL0     C83726   6.679   0.906   9.312  0.7279 -0.3761  0.2398
  621MOL0     C83727   6.809   0.846   9.331  0.7139 -0.0415 -0.2988
  621MOL0     C83728   6.852   0.811   9.465 -0.1552  0.1243  0.3493
  621MOL0     C83729   6.991   0.742   9.475 -0.0829 -0.0745  0.2639
  621MOL0     O83730   7.059   0.708   9.360  0.5768  0.0175  0.0126
  621MOL0     C83731   7.194   0.676   9.382 -0.0296  0.2329  0.9578
  621MOL0     C83732   7.296   0.776   9.369 -0.5400  0.4334  0.5493
  621MOL0     C83733   7.435   0.741   9.381  0.3467  0.1793 -0.3796
  621MOL0     C83734   7.469   0.601   9.405 -0.5326 -0.2284  0.2141
  621MOL0     O83735   7.604   0.569   9.413 -0.5495  0.8405  0.6077
  621MOL0     C83736   7.636   0.437   9.387 -0.8664 -0.4297 -0.3727
  621MOL0     C83737   7.785   0.440   9.377 -0.4423  0.5694 -0.4576
  621MOL0     C83738   7.835   0.304   9.344  0.9607  0.6002  0.5184
  621MOL0     C83739   7.991   0.299   9.325 -0.4746 -0.0707  1.2151
  621MOL0     C83740   8.050   0.173   9.265  0.1995  0.3133 -0.1040
  621MOL0     C83741   8.191   0.203   9.226 -0.3481  0.0263 -0.2446
  621MOL0     C83742   8.255   0.092   9.137 -0.1181 -0.0764  0.2687
  621MOL0     C83743   8.404   0.129   9.103 -0.1783  0.6056 -0.0014
  621MOL0    Cl83744   8.505   0.205   9.233 -0.3179 -0.8277  0.0525
  621MOL0     C83745   7.360   0.507   9.405  1.0021  0.5324 -0.6326
  621MOL0     C83746   7.223   0.541   9.382 -0.3188  0.5492 -0.4898
  621MOL0     O83747   7.027   0.710   9.589 -0.0246 -0.4226  0.1339
  621MOL0     C83748   6.761   0.828   9.570  0.5668  0.3983  0.4781
  621MOL0     C83749   6.636   0.889   9.545 -1.1024 -0.0528 -0.0124
  621MOL0     N83750   6.212   1.540   9.464 -0.0004  0.3365 -0.2345
  621MOL0     N83751   6.141   1.604   9.550 -0.6866 -0.0418  0.6642
  621MOL0     C83752   5.136   1.852   9.548  0.0038 -0.2269  0.8430
  621MOL0     C83753   4.998   1.846   9.560  0.8830 -0.3272  0.1560
  621MOL0     C83754   4.573   1.861   9.602  0.0475 -0.6789 -0.0135
  621MOL0     C83755   4.562   1.841   9.744  0.6308  1.1090  0.9601
  621MOL0     C83756   4.431   1.840   9.803  0.5901  0.2501  0.5309
  621MOL0     C83757   4.312   1.846   9.720 -0.5659 -0.8962 -0.3223
  621MOL0     O83758   4.180   1.838   9.752  0.0686 -0.5552  0.2257
  621MOL0     C83759   4.143   1.819   9.892 -0.0957  0.5102 -0.0385
  621MOL0     C83760   3.994   1.782   9.894  0.3242  0.4700 -0.3063
  621MOL0     C83761   3.928   1.816  10.027  0.2652  0.6535 -0.6280
  621MOL0     C83762   3.890   1.959  10.048 -0.1077 -0.0530  0.5796
  621MOL0     C83763   3.764   1.997   9.989  0.9330  0.5079  0.1116
  621MOL0     C83764   3.659   2.029   9.936 -0.4586 -1.2145  0.0698
  621MOL0     C83765   4.331   1.874   9.583 -0.3987 -0.2784 -0.1178
  621MOL0     C83766   4.459   1.877   9.524 -0.6198  0.7680  0.2069
  621MOL0     C83767   4.460   1.889   9.373  0.2672  0.1748 -0.0040
  621MOL0     H83768   4.911   2.168   9.514  0.0680 -0.2040 -2.9373
  621MOL0     H83769   5.174   2.187   9.483  1.3640 -0.0522  0.2740
  621MOL0     H83770   5.420   1.849   9.657 -0.6811 -2.0744 -0.5187
  621MOL0     H83771   5.395   1.784   9.502  0.9377 -0.7214 -0.2217
  621MOL0     H83772   5.567   2.016   9.484 -2.2529  0.6272 -0.1540
  621MOL0     H83773   5.551   1.861   9.392 -1.7980  0.6109  0.0125
  621MOL0     H83774   5.661   1.895   9.679 -2.7538  0.3401 -0.0333
  621MOL0     H83775   5.760   1.884   9.538 -1.1611  4.8652 -1.0170
  621MOL0     H83776   5.574   1.665   9.645  0.1883 -0.2754  0.2584
  621MOL0     H83777   5.654   1.651   9.489  1.1182  1.2649 -1.6756
  621MOL0     H83778   5.877   1.670   9.585  0.1764  2.8939  0.0400
  621MOL0     H83779   5.808   1.715   9.739  3.9849  0.5883 -1.5160
  621MOL0     H83780   5.706   1.470   9.754  2.6889 -1.1124  3.5939
  621MOL0     H83781   5.796   1.421   9.624  1.5969  0.4455 -0.0292
  621MOL0     H83782   5.928   1.345   9.792  1.7192 -0.0890  2.7709
  621MOL0     H83783   5.875   1.468   9.910 -1.5144  2.5020 -0.9553
  621MOL0     H83784   6.039   1.630   9.784  4.3842 -1.0364 -1.3261
  621MOL0     H83785   6.113   1.474   9.842 -0.7270 -3.6988 -0.6563
  621MOL0     H83786   6.103   1.281   9.623  3.3351 -0.1117 -0.6094
  621MOL0     H83787   6.278   1.325   9.293 -1.5622 -2.3208 -0.2496
  621MOL0     H83788   6.392   1.303   9.426 -0.1875 -0.8093  0.5596
  621MOL0     H83789   6.285   1.119   9.499  1.1640  1.2738 -1.6965
  621MOL0     H83790   6.128   1.160   9.427 -0.1696 -1.4709 -2.7511
  621MOL0     H83791   6.235   1.125   9.203  1.2280 -0.6806 -1.0715
  621MOL0     H83792   6.234   0.979   9.298 -1.9805  0.6288  0.1333
  621MOL0     H83793   6.465   1.159   9.261 -0.4606  1.1889  1.2402
  621MOL0     H83794   6.454   0.984   9.203 -2.0238 -3.1550  1.6656
  621MOL0     H83795   6.630   0.933   9.219 -3.5929  0.2771  2.4483
  621MOL0     H83796   6.877   0.832   9.248  1.4069 -0.3234  0.3109
  621MOL0     H83797   7.262   0.879   9.363 -6.0177 -1.1412 -1.2889
  621MOL0     H83798   7.515   0.813   9.387 -0.5926  1.2437 -0.1699
  621MOL0     H83799   7.604   0.366   9.463 -1.3365  0.0655 -0.0980
  621MOL0     H83800   7.590   0.403   9.294  0.1705  0.8072 -1.3712
  621MOL0     H83801   7.809   0.495   9.286 -2.7469 -1.7843 -2.6348
  621MOL0     H83802   7.848   0.487   9.454  2.0667  2.0862 -3.2505
  621MOL0     H83803   7.810   0.223   9.413  0.8044  1.2424  1.2170
  621MOL0     H83804   7.791   0.273   9.248  3.8131 -3.1281  0.1636
  621MOL0     H83805   8.050   0.318   9.415  3.2635  5.1228 -1.8059
  621MOL0     H83806   8.020   0.384   9.263 -0.0023  0.9513  2.7584
  621MOL0     H83807   7.995   0.135   9.178  0.3692  0.6768 -0.3729
  621MOL0     H83808   8.040   0.101   9.347  2.0024  0.6141  0.4253
  621MOL0     H83809   8.195   0.299   9.173  0.6843 -0.3208 -0.8188
  621MOL0     H83810   8.236   0.221   9.324 -0.7956 -3.0644  0.6046
  621MOL0     H83811   8.192   0.066   9.051 -0.3782  0.1394  0.3925
  621MOL0     H83812   8.266   0.002   9.199 -0.9972 -0.6760 -0.4114
  621MOL0     H83813   8.447   0.034   9.069 -2.8563 -1.5075  2.1308
  621MOL0     H83814   8.402   0.196   9.016  1.1087  3.1036  1.7633
  621MOL0     H83815   7.369   0.400   9.393 -1.6362  0.3017 -1.0633
  621MOL0     H83816   7.141   0.473   9.360 -0.1052  0.5398 -1.2842
  621MOL0     H83817   6.788   0.808   9.673 -0.8177  0.6959  0.9279
  621MOL0     H83818   6.583   0.910   9.637 -1.4395 -1.3463  0.1007
  621MOL0     H83819   5.195   1.763   9.571  1.5733  0.6033  0.2011
  621MOL0     H83820   4.952   1.752   9.591  0.0295  0.3368  0.9688
  621MOL0     H83821   4.649   1.817   9.804 -0.3008 -0.6782  1.6552
  621MOL0     H83822   4.431   1.824   9.910 -1.9045 -1.5680  0.3509
  621MOL0     H83823   4.169   1.901   9.960  2.0132 -0.2733  0.1565
  621MOL0     H83824   4.199   1.734   9.933 -0.2728 -1.6487 -3.8573
  621MOL0     H83825   3.986   1.677   9.864 -0.2272  0.7158 -1.0647
  621MOL0     H83826   3.943   1.848   9.822 -0.4848 -1.1114 -1.2464
  621MOL0     H83827   3.997   1.778  10.104 -1.4678  1.1901  1.2799
  621MOL0     H83828   3.839   1.755  10.045  1.5418 -1.2469 -0.5168
  621MOL0     H83829   3.876   1.976  10.155 -3.2830  0.0357  0.2402
  621MOL0     H83830   3.967   2.029  10.015 -0.0506  0.2438  1.3184
  621MOL0     H83831   3.564   2.050   9.891 -0.0620 -1.2510 -0.7958
  621MOL0     H83832   4.247   1.877   9.514  0.2642  1.9211 -0.9056
  621MOL0     H83833   4.561   1.884   9.332 -0.0407  0.3057 -0.8040
  621MOL0     H83834   4.392   1.816   9.328 -0.7413  1.1714 -0.1201
  621MOL0     H83835   4.422   1.986   9.340  0.7745  0.1113 -0.8002
  622MOL0     O83836   2.520   9.478   3.423  0.1286  0.0073 -0.5712
  622MOL0     C83837   2.505   9.357   3.408 -0.7295 -0.3093 -0.4572
  622MOL0     O83838   2.608   9.271   3.372 -0.0474 -0.4121 -0.0281
  622MOL0     C83839   2.722   9.325   3.313  1.0384  0.0073 -0.2454
  622MOL0     C83840   2.718   9.381   3.187 -0.5407 -0.3660 -0.9103
  622MOL0     C83841   2.845   9.408   3.126  0.1461 -1.0572 -0.7870
  622MOL0     C83842   2.966   9.376   3.186  0.2596 -0.7720 -0.9555
  622MOL0     O83843   3.083   9.391   3.112 -0.0977 -0.4182  0.1719
  622MOL0     C83844   3.108   9.525   3.047  0.4348  0.7935 -0.6334
  622MOL0     C83845   3.254   9.529   3.002  0.1812  0.1824  0.1535
  622MOL0     C83846   3.346   9.518   3.118 -0.1724 -0.3005  0.6074
  622MOL0     C83847   3.490   9.475   3.086 -0.1441 -0.2271 -1.0185
  622MOL0     C83848   3.586   9.518   3.195  0.1495 -0.1273 -0.1949
  622MOL0     C83849   3.729   9.525   3.135 -1.0907  0.0395  0.3523
  622MOL0     C83850   3.830   9.415   3.173 -0.7767  0.8822 -0.8722
  622MOL0     C83851   3.873   9.404   3.318  0.4017  0.5805  0.2730
  622MOL0     N83852   3.944   9.525   3.354 -0.4600  0.4994 -0.2928
  622MOL0     C83853   4.080   9.537   3.350 -0.8203 -0.3635  0.2549
  622MOL0     C83854   4.109   9.647   3.426  1.0004  0.8246  0.1707
  622MOL0     C83855   4.237   9.717   3.460  0.4940 -0.5457  0.6753
  622MOL0     C83856   4.341   9.613   3.503 -0.7293 -0.1697 -0.5995
  622MOL0     C83857   4.455   9.685   3.567 -0.3147  0.5794 -0.7921
  622MOL0     C83858   4.582   9.603   3.530 -0.7764 -0.3939  0.1097
  622MOL0     O83859   4.586   9.466   3.572 -0.3976  0.3163 -0.2187
  622MOL0     C83860   4.713   9.408   3.599  0.7882  0.8615 -0.1991
  622MOL0     C83861   4.711   9.288   3.663 -0.3398 -0.3166  0.3133
  622MOL0     C83862   4.830   9.224   3.699 -0.2457  0.1539  0.0660
  622MOL0     C83863   4.952   9.279   3.655  0.3462  0.0472 -0.1180
  622MOL0     C83864   5.083   9.210   3.695 -0.0116 -0.3846  0.6002
  622MOL0     O83865   5.189   9.232   3.615 -0.4519 -0.5733  0.3221
  622MOL0     C83866   5.291   9.144   3.630 -0.6538  0.3908  0.0243
  622MOL0     C83867   5.424   9.195   3.643 -0.5077  0.3298 -0.4861
  622MOL0     C83868   5.531   9.111   3.659 -0.6572 -0.1684  0.7683
  622MOL0     C83869   5.521   8.974   3.659  0.9568  0.9688 -0.3727
  622MOL0     O83870   5.643   8.917   3.671  1.1955 -0.0463  0.2307
  622MOL0     C83871   5.650   8.779   3.704  0.2116  0.5671  0.3696
  622MOL0     C83872   5.603   8.747   3.844 -0.3951  1.1935  0.0849
  622MOL0     C83873   5.690   8.626   3.889  0.0665  0.2222  1.3202
  622MOL0     C83874   5.666   8.592   4.035 -0.0858  0.2167 -0.2641
  622MOL0     C83875   5.780   8.500   4.093  1.8905  0.3444 -0.1358
  622MOL0     C83876   5.744   8.425   4.219  0.9104 -0.8332 -0.4868
  622MOL0     C83877   5.829   8.298   4.248 -0.3901 -0.2497 -0.6032
  622MOL0     C83878   5.971   8.333   4.294  0.0804 -0.3580 -0.0101
  622MOL0    Cl83879   5.957   8.440   4.442  0.0757  0.1909  0.1171
  622MOL0     C83880   5.392   8.920   3.651  0.4636 -0.0219  0.1546
  622MOL0     C83881   5.280   9.005   3.638  0.7018 -0.3805 -0.8528
  622MOL0     O83882   5.088   9.157   3.806  0.1284  0.0018  0.2137
  622MOL0     C83883   4.952   9.395   3.581 -0.0677 -0.7376  0.4741
  622MOL0     C83884   4.832   9.459   3.550 -0.4737  0.3104  0.0938
  622MOL0     N83885   3.994   9.687   3.482 -0.3699  0.6272 -1.2184
  622MOL0     N83886   3.896   9.620   3.440  0.0580  0.0638  0.2810
  622MOL0     C83887   2.965   9.317   3.314 -0.7808 -1.4124  0.3701
  622MOL0     C83888   2.842   9.303   3.383  0.4664 -0.0176 -0.0625
  622MOL0     C83889   2.379   9.293   3.451  0.0158  0.8448 -0.0232
  622MOL0     C83890   2.287   9.355   3.535  0.3062 -0.7101  0.5414
  622MOL0     C83891   2.169   9.296   3.577  0.1084 -0.2933  0.2581
  622MOL0     C83892   2.131   9.168   3.532 -0.2441 -1.0351 -0.4177
  622MOL0     O83893   2.022   9.108   3.571 -0.4266  0.3174 -0.3342
  622MOL0     C83894   1.907   9.180   3.622 -0.1364 -0.9161 -0.0059
  622MOL0     C83895   1.792   9.072   3.616 -0.2394 -0.0061 -0.4243
  622MOL0     C83896   1.762   9.022   3.477 -0.5433  0.3431 -0.0797
  622MOL0     C83897   1.670   8.911   3.487  0.8344 -0.6123  0.1911
  622MOL0     C83898   1.735   8.781   3.510  0.2932 -0.2323  0.3626
  622MOL0     C83899   1.768   8.662   3.532 -0.0711  0.1390  0.2148
  622MOL0     C83900   2.227   9.103   3.460  0.4130 -0.6631  0.1164
  622MOL0     C83901   2.343   9.161   3.407 -0.1211  0.0701 -0.1279
  622MOL0     C83902   2.413   9.077   3.305  0.0604 -0.7073 -0.6217
  622MOL0     H83903   2.626   9.383   3.130 -1.3607 -1.4080  0.3057
  622MOL0     H83904   2.843   9.433   3.020 -0.9756 -2.6772 -1.1828
  622MOL0     H83905   3.041   9.538   2.961  0.0457  1.5474 -0.2287
  622MOL0     H83906   3.087   9.611   3.112 -0.9609  0.8352 -1.0995
  622MOL0     H83907   3.270   9.622   2.946 -0.4237 -0.5893 -1.3562
  622MOL0     H83908   3.275   9.451   2.928  0.0667 -0.0661  0.3848
  622MOL0     H83909   3.309   9.438   3.183  0.3056 -0.6195  0.4881
  622MOL0     H83910   3.339   9.612   3.174  1.3893  0.0696  0.2181
  622MOL0     H83911   3.501   9.369   3.062 -0.4823 -0.7337  0.8440
  622MOL0     H83912   3.511   9.524   2.991  0.0599 -0.4736 -1.1042
  622MOL0     H83913   3.552   9.615   3.231 -0.4018 -0.4347  0.1148
  622MOL0     H83914   3.576   9.440   3.271 -2.7402 -0.5666 -0.9236
  622MOL0     H83915   3.710   9.533   3.027 -0.2687  2.2695  0.3297
  622MOL0     H83916   3.776   9.617   3.171 -0.2495  0.9692 -2.8070
  622MOL0     H83917   3.921   9.408   3.113  0.2124  0.6763  0.5966
  622MOL0     H83918   3.786   9.318   3.149  2.8168 -0.7123 -1.7233
  622MOL0     H83919   3.779   9.382   3.369 -0.4420  1.6669 -0.7768
  622MOL0     H83920   3.939   9.317   3.313  1.5064  1.4175 -0.2324
  622MOL0     H83921   4.148   9.472   3.295 -1.2891  0.3464 -1.2095
  622MOL0     H83922   4.270   9.781   3.377  0.3191  1.5950  2.1785
  622MOL0     H83923   4.219   9.781   3.546  1.8045  0.6420  0.0943
  622MOL0     H83924   4.298   9.536   3.569 -2.7236 -1.5752 -3.2953
  622MOL0     H83925   4.370   9.551   3.417 -2.0634 -1.6035 -0.0730
  622MOL0     H83926   4.443   9.707   3.674 -0.6748  0.6661 -0.8493
  622MOL0     H83927   4.473   9.780   3.515 -2.4476  0.8549 -1.1008
  622MOL0     H83928   4.664   9.659   3.576 -1.8216 -0.5414  2.2776
  622MOL0     H83929   4.582   9.618   3.421  2.3705  0.8299  0.1688
  622MOL0     H83930   4.619   9.245   3.700  0.5707 -2.6537  0.0287
  622MOL0     H83931   4.835   9.135   3.761  2.4612  0.1550 -0.0466
  622MOL0     H83932   5.437   9.302   3.633  1.5084  0.0995 -0.7188
  622MOL0     H83933   5.632   9.148   3.672 -0.5918 -0.2612  0.5352
  622MOL0     H83934   5.598   8.722   3.626  0.5523 -1.6147  1.6633
  622MOL0     H83935   5.758   8.763   3.690  0.2043  1.3549 -0.7494
  622MOL0     H83936   5.612   8.831   3.914 -3.0301  0.3251  1.6213
  622MOL0     H83937   5.496   8.726   3.845 -0.1719 -0.0046  0.5444
  622MOL0     H83938   5.661   8.544   3.823  0.3548 -0.2309  1.7510
  622MOL0     H83939   5.797   8.644   3.873  0.4318 -0.2470  3.0573
  622MOL0     H83940   5.568   8.547   4.053 -1.0044  3.1359  3.1377
  622MOL0     H83941   5.662   8.688   4.085 -0.6408  0.1122 -0.1017
  622MOL0     H83942   5.865   8.561   4.123  2.4264  0.8507 -2.4612
  622MOL0     H83943   5.803   8.431   4.011  1.8054  1.1240 -0.8384
  622MOL0     H83944   5.746   8.494   4.304 -1.2440  0.2324 -1.2209
  622MOL0     H83945   5.638   8.396   4.211  1.0872 -1.1081 -2.5274
  622MOL0     H83946   5.822   8.231   4.162 -1.0431 -0.4006 -0.4409
  622MOL0     H83947   5.788   8.257   4.341  1.3304  1.8861  1.2261
  622MOL0     H83948   6.031   8.245   4.320 -0.8170 -1.2914 -0.9562
  622MOL0     H83949   6.017   8.385   4.210  1.1412 -1.0108  0.1513
  622MOL0     H83950   5.360   8.816   3.649  3.1963 -0.9802  0.8316
  622MOL0     H83951   5.186   8.951   3.642  1.0073 -0.8450  0.0246
  622MOL0     H83952   5.044   9.443   3.549 -0.9145  0.2647 -0.5807
  622MOL0     H83953   4.833   9.543   3.482 -2.2213  0.3684  0.0837
  622MOL0     H83954   3.058   9.286   3.360 -1.6964 -2.7183  1.4317
  622MOL0     H83955   2.843   9.266   3.484 -0.4861  0.8270  0.2739
  622MOL0     H83956   2.307   9.454   3.572  2.2751 -0.8333 -0.0651
  622MOL0     H83957   2.087   9.349   3.623 -0.7709  0.2963 -1.8601
  622MOL0     H83958   1.877   9.256   3.550  0.7112 -1.7268 -1.2603
  622MOL0     H83959   1.923   9.237   3.715  2.0214  2.1349 -2.0630
  622MOL0     H83960   1.713   9.129   3.667  1.5092  1.0587  1.2639
  622MOL0     H83961   1.830   8.993   3.682 -0.2635 -0.0789 -0.4988
  622MOL0     H83962   1.852   8.976   3.435  0.0043 -0.7496  2.1487
  622MOL0     H83963   1.719   9.105   3.420  1.1671  1.6756  0.4510
  622MOL0     H83964   1.591   8.934   3.560 -1.6664  1.8500 -2.9997
  622MOL0     H83965   1.621   8.905   3.390  2.2026  2.6004 -0.8318
  622MOL0     H83966   1.785   8.559   3.557 -1.7788 -0.1840  0.1593
  622MOL0     H83967   2.207   8.999   3.434  0.1815 -0.6686  0.3158
  622MOL0     H83968   2.369   8.983   3.272  1.4972 -0.8905 -2.1727
  622MOL0     H83969   2.440   9.134   3.215  0.0988 -1.9074 -1.3942
  622MOL0     H83970   2.512   9.052   3.344  0.6919 -1.6577 -2.6819
  623MOL0     O83971   6.854   3.811   9.033 -0.3900 -0.7109  0.3850
  623MOL0     C83972   6.961   3.859   8.989 -0.3891  0.1354  0.6665
  623MOL0     O83973   6.979   3.979   8.932 -0.9837  0.8698 -0.0540
  623MOL0     C83974   6.881   4.070   8.924  0.4485 -0.1512 -0.5621
  623MOL0     C83975   6.921   4.206   8.940 -0.3197 -0.1486  0.3805
  623MOL0     C83976   6.826   4.303   8.927 -0.3043 -0.4808 -0.2541
  623MOL0     C83977   6.699   4.275   8.885 -0.0071  0.2029 -0.0599
  623MOL0     O83978   6.609   4.372   8.860 -0.4465 -0.1820  0.1746
  623MOL0     C83979   6.481   4.353   8.795  0.7034 -0.6830 -0.0688
  623MOL0     C83980   6.405   4.476   8.823  0.0593 -0.4632  0.0153
  623MOL0     C83981   6.453   4.601   8.748  0.8613 -0.5778 -0.6185
  623MOL0     C83982   6.362   4.721   8.770 -0.0411 -0.3972  0.6972
  623MOL0     C83983   6.427   4.847   8.716 -0.5831  0.5305  0.2245
  623MOL0     C83984   6.338   4.980   8.735  0.1228  0.3209 -0.0515
  623MOL0     C83985   6.416   5.102   8.700  0.4462 -0.5776  0.0419
  623MOL0     C83986   6.534   5.149   8.793 -1.0393  0.4629  0.4389
  623MOL0     N83987   6.661   5.085   8.775 -0.6773  0.1991  0.4695
  623MOL0     C83988   6.723   4.989   8.854 -0.5447 -0.5470  1.0168
  623MOL0     C83989   6.837   4.954   8.792 -0.6284  0.9934  1.0702
  623MOL0     C83990   6.950   4.864   8.831  0.0879 -0.0846  0.1555
  623MOL0     C83991   6.957   4.746   8.730  1.1264 -0.4518  0.4417
  623MOL0     C83992   7.057   4.640   8.775 -0.4928  0.5961  0.6304
  623MOL0     C83993   7.201   4.676   8.734 -0.0775 -0.3734 -0.3665
  623MOL0     O83994   7.292   4.621   8.831 -0.0920  0.2355 -0.3698
  623MOL0     C83995   7.426   4.635   8.809 -0.1952  0.1285  0.0724
  623MOL0     C83996   7.512   4.620   8.918  0.6162  0.5896  0.4019
  623MOL0     C83997   7.647   4.653   8.912 -0.5428 -0.2818 -0.1180
  623MOL0     C83998   7.705   4.709   8.794  0.1397  0.4224  0.4450
  623MOL0     C83999   7.852   4.735   8.788 -0.3359  0.0055 -0.4038
  623MOL0     O84000   7.930   4.698   8.891 -0.1361  0.5421 -0.0173
  623MOL0     C84001   8.066   4.724   8.894 -0.7320 -0.3568  0.1368
  623MOL0     C84002   8.155   4.721   8.785 -0.0143 -0.1636 -0.1612
  623MOL0     C84003   8.290   4.743   8.805 -0.0404 -0.1045 -0.2442
  623MOL0     C84004   8.341   4.763   8.930 -0.4360 -0.8140  0.5659
  623MOL0     O84005   8.476   4.771   8.940 -0.1052 -0.2377 -1.2695
  623MOL0     C84006   8.524   4.857   9.044 -0.3279  0.3418 -0.5647
  623MOL0     C84007   8.677   4.874   9.017  0.4968 -0.5835  0.7579
  623MOL0     C84008   8.704   4.956   8.889 -0.0726 -0.9119  0.6099
  623MOL0     C84009   8.773   5.090   8.901 -0.0268  0.2836  0.1898
  623MOL0     C84010   8.779   5.154   8.771  0.4632 -0.0247 -0.1369
  623MOL0     C84011   8.853   5.296   8.781 -0.7308 -0.1458 -0.7538
  623MOL0     C84012   8.850   5.361   8.633 -0.2044 -0.2451 -0.5858
  623MOL0     C84013   8.915   5.500   8.639  0.0079 -0.4909  0.9172
  623MOL0    Cl84014   9.090   5.473   8.688  0.2773 -0.5007 -0.2290
  623MOL0     C84015   8.255   4.753   9.040  0.6115  0.9995  0.0897
  623MOL0     C84016   8.117   4.745   9.025 -0.3458 -1.3486 -0.3484
  623MOL0     O84017   7.891   4.801   8.685  0.9794 -0.2389 -0.4802
  623MOL0     C84018   7.624   4.724   8.676  0.3060  0.0667 -0.0389
  623MOL0     C84019   7.482   4.691   8.692 -0.8755  0.0260  0.0303
  623MOL0     N84020   6.847   5.031   8.679 -0.2097 -0.7185 -0.2757
  623MOL0     N84021   6.742   5.101   8.671 -0.1682  0.0500  0.0008
  623MOL0     C84022   6.665   4.142   8.859 -0.1017  0.3251 -0.3631
  623MOL0     C84023   6.750   4.040   8.883  0.8063  0.5469  1.0266
  623MOL0     C84024   7.090   3.793   9.015  0.7185 -1.1118 -0.7537
  623MOL0     C84025   7.199   3.873   9.069 -0.3107  0.2724 -0.5736
  623MOL0     C84026   7.324   3.809   9.089  0.7280 -0.5457 -0.2095
  623MOL0     C84027   7.341   3.674   9.059 -0.5016  0.5233 -0.1386
  623MOL0     O84028   7.453   3.602   9.079 -0.5933  0.2986  0.7497
  623MOL0     C84029   7.550   3.649   9.175 -0.5980  0.0413  0.4094
  623MOL0     C84030   7.632   3.530   9.216 -0.7241 -0.2781 -0.2482
  623MOL0     C84031   7.767   3.581   9.273  0.1588 -1.0816 -0.9790
  623MOL0     C84032   7.844   3.474   9.342 -0.6296  0.4389 -0.0386
  623MOL0     C84033   7.906   3.381   9.249 -0.7923  0.1129  0.4346
  623MOL0     C84034   7.958   3.307   9.167 -0.4957 -0.7206  0.0909
  623MOL0     C84035   7.227   3.602   9.017  0.4865  0.0765  0.4670
  623MOL0     C84036   7.105   3.655   8.980 -0.4988 -0.1157  0.0224
  623MOL0     C84037   7.013   3.566   8.917  0.0588 -0.1928  0.2929
  623MOL0     H84038   7.020   4.232   8.977  0.1436 -1.3300  0.0277
  623MOL0     H84039   6.854   4.407   8.941  2.4187 -1.4366  2.3017
  623MOL0     H84040   6.485   4.330   8.688  1.9595  3.0443 -0.9778
  623MOL0     H84041   6.427   4.273   8.846  2.1099  1.0720  4.7425
  623MOL0     H84042   6.406   4.496   8.930 -4.5541  0.8631  0.0285
  623MOL0     H84043   6.299   4.462   8.799  0.2859  0.5865 -1.8271
  623MOL0     H84044   6.446   4.573   8.642  2.1751 -1.5379 -0.4705
  623MOL0     H84045   6.558   4.611   8.774  0.8326 -1.6060 -0.0577
  623MOL0     H84046   6.262   4.708   8.726  0.9356 -0.9596 -1.5151
  623MOL0     H84047   6.349   4.739   8.877  0.7838  1.2644  0.5447
  623MOL0     H84048   6.516   4.856   8.779 -0.9299  1.5014  0.6036
  623MOL0     H84049   6.457   4.837   8.612 -0.2878  1.3412  0.2246
  623MOL0     H84050   6.254   4.970   8.665  0.8571  0.7267 -1.0025
  623MOL0     H84051   6.291   4.981   8.834 -0.1307  0.8816 -0.1735
  623MOL0     H84052   6.346   5.187   8.692  2.3211  0.9666 -0.7648
  623MOL0     H84053   6.456   5.088   8.599  1.0999  2.2351 -0.1760
  623MOL0     H84054   6.552   5.257   8.783  1.1971 -0.0477 -2.3723
  623MOL0     H84055   6.512   5.126   8.897  1.9079 -0.0807  1.0318
  623MOL0     H84056   6.696   4.955   8.954 -0.0475 -3.4969  0.2313
  623MOL0     H84057   7.043   4.921   8.828 -1.2278  2.1272 -2.2424
  623MOL0     H84058   6.928   4.820   8.929 -0.0772  1.1233  0.6750
  623MOL0     H84059   6.860   4.697   8.732  0.8510  0.0698  2.8560
  623MOL0     H84060   6.975   4.782   8.628  0.0503  0.4503  0.5488
  623MOL0     H84061   7.025   4.550   8.720  1.1970  2.2598 -3.4855
  623MOL0     H84062   7.048   4.618   8.882 -0.2217 -2.5193  0.1124
  623MOL0     H84063   7.210   4.785   8.740  1.0413 -0.3631 -1.7233
  623MOL0     H84064   7.216   4.634   8.635 -0.1713  0.0373 -0.5573
  623MOL0     H84065   7.464   4.576   9.006 -1.7457 -1.1190 -1.5905
  623MOL0     H84066   7.702   4.646   9.005  0.0090  0.3876 -0.3763
  623MOL0     H84067   8.119   4.706   8.684 -0.5586 -3.5256  0.4115
  623MOL0     H84068   8.363   4.732   8.726  2.1778  1.6015  1.4099
  623MOL0     H84069   8.468   4.951   9.050 -1.5513 -0.3201 -1.2289
  623MOL0     H84070   8.511   4.799   9.136  0.5834  1.1434  0.0843
  623MOL0     H84071   8.721   4.917   9.107 -2.2651  2.4234  0.8304
  623MOL0     H84072   8.725   4.776   9.011 -1.0237 -1.3294 -0.0715
  623MOL0     H84073   8.766   4.894   8.824  1.5032  1.2055 -0.0139
  623MOL0     H84074   8.609   4.967   8.836  0.3001  0.9874  0.2780
  623MOL0     H84075   8.874   5.070   8.939 -0.5989 -0.9768  1.0962
  623MOL0     H84076   8.719   5.151   8.974 -1.3810 -0.2445 -0.3554
  623MOL0     H84077   8.677   5.181   8.744  0.2242  2.3257  2.5858
  623MOL0     H84078   8.815   5.080   8.699  0.1741 -0.6928  0.3913
  623MOL0     H84079   8.791   5.358   8.846 -1.7982  0.1838 -2.0336
  623MOL0     H84080   8.952   5.287   8.826 -0.8884  0.2187 -0.3250
  623MOL0     H84081   8.749   5.378   8.593 -1.3178  0.3846  2.2375
  623MOL0     H84082   8.901   5.291   8.568 -2.0023  0.4928 -2.9249
  623MOL0     H84083   8.912   5.551   8.542  1.9045  0.4260  1.2880
  623MOL0     H84084   8.858   5.564   8.708 -2.5535 -0.8972 -0.6855
  623MOL0     H84085   8.290   4.768   9.141 -1.3429  3.1491  0.5257
  623MOL0     H84086   8.049   4.748   9.110  1.7526 -0.5134  1.4177
  623MOL0     H84087   7.665   4.750   8.579 -1.4923 -2.9434 -1.7622
  623MOL0     H84088   7.427   4.706   8.600 -0.6209  0.2890 -0.0826
  623MOL0     H84089   6.562   4.119   8.832 -0.1833 -2.8597  2.1262
  623MOL0     H84090   6.721   3.936   8.872  0.2518  0.6339  1.6008
  623MOL0     H84091   7.184   3.978   9.092  2.0142  0.5606 -0.1320
  623MOL0     H84092   7.407   3.866   9.128  2.1148  1.0346 -4.7941
  623MOL0     H84093   7.491   3.703   9.249 -1.5886 -0.0172 -0.3278
  623MOL0     H84094   7.607   3.729   9.128 -1.2561  1.2939  1.6604
  623MOL0     H84095   7.639   3.452   9.140  2.3918 -0.3779  0.0098
  623MOL0     H84096   7.585   3.478   9.300 -0.1075 -0.3428  0.0619
  623MOL0     H84097   7.744   3.660   9.345  1.8695 -1.6023  0.1999
  623MOL0     H84098   7.840   3.620   9.200  0.0846  1.0046 -0.0120
  623MOL0     H84099   7.917   3.525   9.404 -2.2039  2.7154  0.0663
  623MOL0     H84100   7.783   3.415   9.411  0.9858  0.4311  1.4424
  623MOL0     H84101   7.981   3.219   9.110 -1.7710 -2.7588  2.5177
  623MOL0     H84102   7.229   3.495   8.999 -0.6670  0.2762 -1.0172
  623MOL0     H84103   7.071   3.490   8.864 -0.1393 -0.4802  0.4915
  623MOL0     H84104   6.956   3.516   8.995 -1.2233  1.9121  0.7828
  623MOL0     H84105   6.936   3.614   8.856 -0.8730 -2.5790 -0.5335
  624MOL0     O84106  10.030   1.469   0.352  0.3279  0.1159 -0.2018
  624MOL0     C84107   9.989   1.543   0.441  0.0737 -0.7535  0.7435
  624MOL0     O84108  10.055   1.580   0.554 -0.0679 -0.3028 -0.8150
  624MOL0     C84109  10.180   1.631   0.525 -0.4860  0.1538  0.1495
  624MOL0     C84110  10.215   1.699   0.408  0.0650 -0.6897 -0.2294
  624MOL0     C84111  10.337   1.745   0.379 -0.3558 -0.0859 -0.4150
  624MOL0     C84112  10.439   1.719   0.465 -0.5434 -0.8766 -0.0333
  624MOL0     O84113  10.575   1.761   0.441 -0.0017 -0.1176 -0.6641
  624MOL0     C84114  10.625   1.803   0.309 -0.0068 -0.2309 -0.2814
  624MOL0     C84115  10.780   1.827   0.326  0.9311 -1.4888  0.0818
  624MOL0     C84116  10.853   1.696   0.294 -0.5075 -1.1509  0.1978
  624MOL0     C84117  10.999   1.691   0.327 -1.0028  0.1789 -0.1766
  624MOL0     C84118  11.075   1.594   0.243 -0.7561  0.3585 -0.1108
  624MOL0     C84119  11.229   1.598   0.269  0.2590  0.5107 -0.2980
  624MOL0     C84120  11.318   1.511   0.178  0.7013  0.3745  0.2997
  624MOL0     C84121  11.458   1.492   0.231  0.1161 -0.0200  0.0134
  624MOL0     N84122  11.553   1.419   0.145 -0.4363  0.5763 -0.3599
  624MOL0     C84123  11.545   1.290   0.085  0.5540 -0.5284  0.0318
  624MOL0     C84124  11.669   1.267   0.033 -0.2928 -0.4350  0.5947
  624MOL0     C84125  11.713   1.136  -0.033  0.0625 -1.0058  0.2180
  624MOL0     C84126  11.858   1.112   0.002  0.0062  0.3198 -0.6636
  624MOL0     C84127  11.869   0.974   0.070  0.2761  0.6490  0.3550
  624MOL0     C84128  12.016   0.944   0.109  0.5287  0.0775 -0.3793
  624MOL0     O84129  12.026   0.828   0.186  0.4709 -0.0390 -0.8769
  624MOL0     C84130  12.144   0.802   0.241 -0.2417 -0.5623 -0.3562
  624MOL0     C84131  12.263   0.865   0.214 -0.3645 -0.3142  0.4050
  624MOL0     C84132  12.381   0.833   0.274  0.0470 -0.9146 -0.5138
  624MOL0     C84133  12.385   0.742   0.377  0.1688  0.2378  0.7701
  624MOL0     C84134  12.511   0.708   0.445 -0.6882 -0.5313  0.0923
  624MOL0     O84135  12.625   0.776   0.401 -0.3291  0.0254 -0.5136
  624MOL0     C84136  12.729   0.774   0.490  0.8432  0.6765  0.1735
  624MOL0     C84137  12.841   0.706   0.466 -0.3609  0.1114 -0.6104
  624MOL0     C84138  12.943   0.713   0.558 -1.1388  0.2427 -0.2581
  624MOL0     C84139  12.928   0.791   0.671  0.1897 -0.4519 -0.9957
  624MOL0     O84140  13.027   0.799   0.764  0.0393  0.4035 -0.4405
  624MOL0     C84141  13.134   0.703   0.768 -0.8698 -0.5311  1.2319
  624MOL0     C84142  13.092   0.565   0.816  0.2035 -0.4918  0.8164
  624MOL0     C84143  13.204   0.494   0.896  1.0796  0.6725  0.8328
  624MOL0     C84144  13.164   0.348   0.911  1.3475  0.8708 -0.2066
  624MOL0     C84145  13.256   0.259   0.997  0.1139 -0.4753 -0.5554
  624MOL0     C84146  13.271   0.116   0.947  0.2419 -0.5536 -0.1826
  624MOL0     C84147  13.342   0.032   1.056 -0.3311  0.1001 -0.1636
  624MOL0     C84148  13.437  -0.067   0.992 -0.2665  0.3009 -0.2021
  624MOL0    Cl84149  13.505  -0.188   1.120  0.4808  0.2339  0.0195
  624MOL0     C84150  12.816   0.858   0.693  0.2864  0.6888 -0.6958
  624MOL0     C84151  12.711   0.852   0.601 -0.2067  0.3825 -0.3957
  624MOL0     O84152  12.503   0.618   0.528 -0.9651 -0.8263 -0.1048
  624MOL0     C84153  12.261   0.669   0.411 -0.0747 -0.2889  1.1208
  624MOL0     C84154  12.147   0.705   0.338  0.4424 -0.2775 -0.5684
  624MOL0     N84155  11.738   1.387   0.026 -1.2129 -0.7067 -0.0374
  624MOL0     N84156  11.668   1.473   0.098 -0.0299  0.2202  0.1372
  624MOL0     C84157  10.409   1.646   0.583  0.0807 -0.1561 -0.7127
  624MOL0     C84158  10.279   1.611   0.620  0.9497  0.8283 -0.0923
  624MOL0     C84159   9.841   1.566   0.455  0.8375 -0.7659  0.5468
  624MOL0     C84160   9.798   1.655   0.558 -0.5149  0.1949 -0.0745
  624MOL0     C84161   9.662   1.695   0.573  0.0508  0.6264 -0.4430
  624MOL0     C84162   9.561   1.630   0.501 -0.4046  0.5261 -0.7000
  624MOL0     O84163   9.425   1.650   0.504  0.0478  0.5704 -0.1805
  624MOL0     C84164   9.391   1.751   0.604  0.5703 -0.2100 -0.6200
  624MOL0     C84165   9.243   1.775   0.584  0.3976  0.5115  1.5495
  624MOL0     C84166   9.186   1.861   0.700  0.0335 -0.3967 -0.3065
  624MOL0     C84167   9.135   1.766   0.816  0.4191 -0.5992 -0.3479
  624MOL0     C84168   9.088   1.840   0.936  0.6417 -0.5535 -0.2297
  624MOL0     C84169   9.053   1.897   1.040 -0.3037  0.8226 -0.3648
  624MOL0     C84170   9.603   1.533   0.404 -0.9950  0.2573  0.5019
  624MOL0     C84171   9.736   1.499   0.385 -0.5564  0.9226  0.1913
  624MOL0     C84172   9.766   1.405   0.276  0.5834 -0.2232  0.3155
  624MOL0     H84173  10.136   1.721   0.337  1.2943 -0.5374 -1.5828
  624MOL0     H84174  10.365   1.791   0.285 -0.2029  0.4564 -0.1085
  624MOL0     H84175  10.613   1.724   0.235 -0.9819 -1.4766  1.1468
  624MOL0     H84176  10.578   1.894   0.268 -0.1237 -1.1284 -2.2435
  624MOL0     H84177  10.802   1.851   0.430  0.2037 -2.1593  0.4016
  624MOL0     H84178  10.818   1.905   0.260 -3.2836  1.3998  0.6433
  624MOL0     H84179  10.848   1.673   0.187 -0.8124  2.9060 -0.8220
  624MOL0     H84180  10.813   1.620   0.361 -0.8691 -1.6931 -0.6190
  624MOL0     H84181  11.047   1.786   0.301  0.0997 -0.4558 -0.5087
  624MOL0     H84182  11.009   1.668   0.433 -1.0599 -1.0995 -0.4366
  624MOL0     H84183  11.041   1.492   0.259  3.4915 -0.8375  3.6471
  624MOL0     H84184  11.067   1.633   0.141 -1.0675  7.1851  1.9912
  624MOL0     H84185  11.260   1.703   0.266  2.5554  0.2180  4.2847
  624MOL0     H84186  11.246   1.571   0.373  0.5695 -0.3408 -0.5594
  624MOL0     H84187  11.318   1.554   0.078 -1.5437 -1.0627 -0.3945
  624MOL0     H84188  11.281   1.410   0.160 -1.7234  1.3352 -0.5249
  624MOL0     H84189  11.500   1.592   0.248  0.3424  0.0336 -0.7812
  624MOL0     H84190  11.463   1.447   0.330  1.4228 -0.2224 -0.1221
  624MOL0     H84191  11.462   1.219   0.084 -3.0030  3.2246  1.0252
  624MOL0     H84192  11.647   1.055   0.002  1.0893 -2.4894 -1.1128
  624MOL0     H84193  11.698   1.151  -0.140 -0.1287  1.7776  0.5693
  624MOL0     H84194  11.920   1.115  -0.088  1.2803  2.3190  0.2186
  624MOL0     H84195  11.899   1.189   0.068  0.4331 -0.6684  0.2501
  624MOL0     H84196  11.840   0.888   0.010  1.5942  0.8478 -0.6134
  624MOL0     H84197  11.799   0.986   0.153 -0.3441  1.0986 -0.2236
  624MOL0     H84198  12.054   1.024   0.173  0.6661 -0.0499 -0.2992
  624MOL0     H84199  12.071   0.942   0.014 -1.7164  0.2302 -1.7344
  624MOL0     H84200  12.276   0.936   0.132  4.3324  1.0603  2.0434
  624MOL0     H84201  12.472   0.881   0.238 -0.1124  0.9523  1.3853
  624MOL0     H84202  12.850   0.656   0.370  1.1421 -0.8516  0.0152
  624MOL0     H84203  13.037   0.661   0.544  0.8950  3.5399  0.0221
  624MOL0     H84204  13.195   0.687   0.679  1.2421  0.4972  2.4080
  624MOL0     H84205  13.217   0.739   0.830  0.2452 -1.5922  0.4151
  624MOL0     H84206  13.002   0.582   0.875  1.2212 -1.8113  2.8387
  624MOL0     H84207  13.059   0.507   0.729  1.4077 -2.1419  1.4112
  624MOL0     H84208  13.298   0.502   0.841  0.8499 -2.3025 -0.1431
  624MOL0     H84209  13.211   0.532   0.998 -1.1540 -1.1838  1.7644
  624MOL0     H84210  13.159   0.313   0.808  0.5120 -0.8181  0.3730
  624MOL0     H84211  13.065   0.348   0.956  2.2228  1.4669  1.8475
  624MOL0     H84212  13.214   0.260   1.098  0.9459 -3.5669 -0.0978
  624MOL0     H84213  13.355   0.301   1.020 -0.4622 -1.4139  5.2632
  624MOL0     H84214  13.167   0.087   0.929 -0.2904  0.1270  1.5572
  624MOL0     H84215  13.332   0.114   0.856  2.2750  1.5575  1.0266
  624MOL0     H84216  13.258  -0.018   1.105 -1.0190  2.0329  0.6994
  624MOL0     H84217  13.391   0.091   1.134 -2.4463  2.5619 -0.5719
  624MOL0     H84218  13.381  -0.116   0.911 -0.3410  2.0052 -1.2436
  624MOL0     H84219  13.516  -0.002   0.955  2.0207 -1.4831  1.2572
  624MOL0     H84220  12.813   0.929   0.775 -2.5588  1.8740 -1.6959
  624MOL0     H84221  12.622   0.914   0.598  0.2458  0.9998 -1.4529
  624MOL0     H84222  12.263   0.597   0.492  1.4320 -1.5511  0.0120
  624MOL0     H84223  12.052   0.653   0.337 -0.5360  1.4312 -0.6444
  624MOL0     H84224  10.497   1.620   0.641 -1.2694 -2.0786  0.5767
  624MOL0     H84225  10.255   1.548   0.706  2.5677 -0.7609 -0.7507
  624MOL0     H84226   9.866   1.701   0.629 -0.6034 -1.8792  1.4500
  624MOL0     H84227   9.651   1.774   0.646 -0.0831 -1.1700  1.5869
  624MOL0     H84228   9.442   1.848   0.596  0.7272 -0.2468 -0.1052
  624MOL0     H84229   9.403   1.705   0.702 -1.0959 -1.4498 -0.9645
  624MOL0     H84230   9.191   1.679   0.581  1.8122 -0.2472 -0.4192
  624MOL0     H84231   9.228   1.818   0.485 -3.2271 -0.6707  1.4318
  624MOL0     H84232   9.100   1.916   0.662  0.1979 -0.7145 -1.1668
  624MOL0     H84233   9.263   1.934   0.725  0.1513 -0.2727 -0.9941
  624MOL0     H84234   9.045   1.711   0.789 -0.3211 -0.4185  1.6430
  624MOL0     H84235   9.213   1.693   0.841  0.0475 -0.4533  1.3676
  624MOL0     H84236   9.034   1.941   1.136 -1.2886  2.2760 -1.1758
  624MOL0     H84237   9.520   1.489   0.348 -2.2516  0.4430  2.1557
  624MOL0     H84238   9.830   1.326   0.315  0.9531 -0.0401  0.0882
  624MOL0     H84239   9.681   1.364   0.220  0.3404 -3.3202  2.7091
  624MOL0     H84240   9.826   1.464   0.206  4.0481 -3.5947  0.1335
  625MOL0     O84241   2.126   1.789   8.960  0.1918  0.8815  0.4598
  625MOL0     C84242   2.107   1.897   9.023 -1.0066  0.6355 -0.3805
  625MOL0     O84243   2.190   2.000   9.031 -0.1336 -0.6728  0.1654
  625MOL0     C84244   2.320   1.979   8.991 -0.8526  0.4154 -0.8475
  625MOL0     C84245   2.423   1.960   9.089  0.0192  0.0757 -0.7433
  625MOL0     C84246   2.553   1.943   9.043 -0.1963 -0.4814 -0.1681
  625MOL0     C84247   2.593   1.941   8.908  0.9605 -0.1759  0.0598
  625MOL0     O84248   2.726   1.929   8.887  0.1426 -0.2901  0.6470
  625MOL0     C84249   2.763   1.820   8.807 -0.1521 -0.1721  0.5570
  625MOL0     C84250   2.910   1.777   8.832 -0.3519  0.0831  0.3073
  625MOL0     C84251   2.927   1.701   8.970 -0.1250 -0.1014 -0.0536
  625MOL0     C84252   3.004   1.569   8.955  0.5521  0.3573  0.1526
  625MOL0     C84253   3.149   1.573   8.898 -0.3002 -0.3149 -0.7937
  625MOL0     C84254   3.243   1.459   8.931 -0.8832  0.6683  0.2814
  625MOL0     C84255   3.173   1.323   8.925  0.1095 -0.5680 -0.2626
  625MOL0     C84256   3.263   1.199   8.927  0.1593 -0.4050 -0.9201
  625MOL0     N84257   3.377   1.211   9.023  0.2387  0.7770 -0.1149
  625MOL0     C84258   3.382   1.130   9.138  0.7803  0.6992  0.3702
  625MOL0     C84259   3.513   1.132   9.177 -0.0701  0.2160 -0.0138
  625MOL0     C84260   3.575   1.055   9.298 -0.6890  0.3007  0.5559
  625MOL0     C84261   3.719   1.017   9.259 -0.0560 -0.2707 -1.1989
  625MOL0     C84262   3.789   0.925   9.365  0.6430 -0.4061  0.2594
  625MOL0     C84263   3.939   0.914   9.328  0.6739 -0.0229 -0.2530
  625MOL0     O84264   3.992   0.831   9.436 -0.3431  0.0993  0.1006
  625MOL0     C84265   4.128   0.813   9.434 -1.0130  0.0084  0.4584
  625MOL0     C84266   4.205   0.824   9.313 -0.7495  0.1954 -0.2320
  625MOL0     C84267   4.340   0.792   9.318  0.7406 -0.8977 -0.8858
  625MOL0     C84268   4.408   0.754   9.439 -0.2024 -0.3160 -0.2286
  625MOL0     C84269   4.554   0.737   9.427 -0.4363  0.3105  0.1662
  625MOL0     O84270   4.613   0.762   9.312  0.1053  0.0391 -0.4331
  625MOL0     C84271   4.739   0.815   9.302 -0.2385 -0.4845  0.4568
  625MOL0     C84272   4.842   0.730   9.266 -0.1350 -0.3237  0.8709
  625MOL0     C84273   4.971   0.772   9.263  0.7443 -0.0131  0.6285
  625MOL0     C84274   5.004   0.893   9.327  0.3819 -0.4856 -0.1487
  625MOL0     O84275   5.135   0.922   9.337 -0.1327  0.1854 -0.4557
  625MOL0     C84276   5.180   0.935   9.472  0.1795 -0.5013 -0.2260
  625MOL0     C84277   5.317   0.998   9.478  0.5101  0.2524 -0.2985
  625MOL0     C84278   5.419   0.917   9.403  0.2148 -0.1471 -0.3595
  625MOL0     C84279   5.561   0.968   9.435  0.0237  0.4304 -0.0921
  625MOL0     C84280   5.657   0.883   9.352  0.2124  0.2522 -0.4052
  625MOL0     C84281   5.785   0.863   9.428  0.2098 -0.3079  0.2796
  625MOL0     C84282   5.894   0.804   9.337  0.4890  0.7146 -0.3513
  625MOL0     C84283   5.977   0.702   9.416  0.1936 -0.6304  0.5519
  625MOL0    Cl84284   6.149   0.720   9.347 -0.3327 -0.2770  0.3913
  625MOL0     C84285   4.907   0.981   9.362  0.7317 -0.5159  0.5297
  625MOL0     C84286   4.778   0.946   9.339  0.5231 -0.6149  0.0083
  625MOL0     O84287   4.611   0.718   9.533  0.5474 -0.3796 -0.4053
  625MOL0     C84288   4.331   0.737   9.548  0.2407  1.0658 -0.4818
  625MOL0     C84289   4.190   0.754   9.547 -0.0638  0.0861  1.2423
  625MOL0     N84290   3.588   1.205   9.088  0.6128 -0.6904  0.1866
  625MOL0     N84291   3.501   1.253   8.998  0.3248  0.2505  0.5998
  625MOL0     C84292   2.495   1.948   8.814 -0.0782  0.6885 -0.4530
  625MOL0     C84293   2.358   1.969   8.856 -0.0287 -0.1732  0.3047
  625MOL0     C84294   1.974   1.908   9.095 -0.5463 -0.5737 -0.0337
  625MOL0     C84295   1.862   1.889   9.021 -0.4663  1.1868  0.7215
  625MOL0     C84296   1.733   1.906   9.076 -0.3229 -0.3892  0.3765
  625MOL0     C84297   1.720   1.931   9.217  0.0552  0.5383 -0.1983
  625MOL0     O84298   1.605   1.990   9.270  0.2886 -0.4655 -0.0675
  625MOL0     C84299   1.635   2.091   9.372  0.3183  0.5193  0.6141
  625MOL0     C84300   1.499   2.142   9.415  0.5262  0.6275 -0.3638
  625MOL0     C84301   1.438   2.196   9.284  0.4302 -0.0361  0.3706
  625MOL0     C84302   1.497   2.322   9.236  0.6688 -0.5913  0.3138
  625MOL0     C84303   1.437   2.367   9.110  0.2806  0.9009 -0.0577
  625MOL0     C84304   1.391   2.393   8.998 -0.3556 -0.0831  0.4133
  625MOL0     C84305   1.839   1.925   9.292 -0.8474 -0.1454 -0.7001
  625MOL0     C84306   1.967   1.921   9.228  0.2331 -0.5292 -0.1792
  625MOL0     C84307   2.091   1.930   9.323 -0.1113 -0.4813  0.2231
  625MOL0     H84308   2.405   1.948   9.195 -1.4642  1.5433 -0.7988
  625MOL0     H84309   2.631   1.924   9.117 -1.1891 -1.8969  0.5500
  625MOL0     H84310   2.693   1.738   8.823  1.1898 -1.8434 -1.4835
  625MOL0     H84311   2.759   1.846   8.700 -1.4097  0.3133  0.7108
  625MOL0     H84312   2.966   1.870   8.852 -1.1110  0.7068 -0.4018
  625MOL0     H84313   2.947   1.721   8.746  0.3462 -0.9204  1.2419
  625MOL0     H84314   2.830   1.676   9.014 -0.3553 -1.2978 -1.1980
  625MOL0     H84315   2.985   1.762   9.040 -1.7188  0.9997  0.3891
  625MOL0     H84316   3.007   1.525   9.055  2.2661 -0.0881 -0.0728
  625MOL0     H84317   2.950   1.496   8.894  1.9855 -0.0913 -0.6149
  625MOL0     H84318   3.140   1.586   8.789 -1.6540  2.3482 -0.4436
  625MOL0     H84319   3.200   1.664   8.932 -0.8383 -0.6340  0.9235
  625MOL0     H84320   3.326   1.454   8.860  0.7227 -0.8743  2.1412
  625MOL0     H84321   3.287   1.475   9.030 -1.1515 -3.2599  1.2137
  625MOL0     H84322   3.103   1.316   8.841 -2.1438  0.7574  1.3881
  625MOL0     H84323   3.103   1.312   9.009 -0.2360  0.2388 -0.4432
  625MOL0     H84324   3.194   1.116   8.940  0.6713 -0.6334  0.4381
  625MOL0     H84325   3.302   1.188   8.825  2.4657  1.1570 -0.2942
  625MOL0     H84326   3.295   1.088   9.186  0.1690  2.2105  0.6269
  625MOL0     H84327   3.566   1.114   9.390 -1.9251 -2.5525  2.4391
  625MOL0     H84328   3.511   0.968   9.318 -0.3510  0.4528  2.5490
  625MOL0     H84329   3.717   0.956   9.168 -1.5568 -0.5731 -0.9948
  625MOL0     H84330   3.781   1.106   9.242 -3.0754  2.4755  0.8563
  625MOL0     H84331   3.740   0.828   9.381 -1.2334  0.5607  0.7894
  625MOL0     H84332   3.782   0.977   9.461  1.2675 -1.2495  0.7761
  625MOL0     H84333   3.992   1.010   9.325 -0.2302  0.5275  0.7193
  625MOL0     H84334   3.958   0.873   9.228  1.7718  1.4145 -0.6700
  625MOL0     H84335   4.152   0.855   9.224  0.2762  0.4923 -0.7543
  625MOL0     H84336   4.389   0.803   9.222  2.5565 -0.1887  0.0776
  625MOL0     H84337   4.812   0.631   9.235 -0.0611 -0.0899  0.0166
  625MOL0     H84338   5.039   0.696   9.229 -0.3215  2.0999 -9.0141
  625MOL0     H84339   5.111   1.001   9.524  1.3382 -0.3049  1.0995
  625MOL0     H84340   5.173   0.842   9.529 -0.7400  0.0941  0.6531
  625MOL0     H84341   5.315   1.102   9.443  1.4975  0.9233  1.5250
  625MOL0     H84342   5.345   1.017   9.582  1.1011  2.3216 -0.8026
  625MOL0     H84343   5.415   0.810   9.428 -1.1865 -0.2882 -1.0837
  625MOL0     H84344   5.384   0.923   9.299 -0.4438  0.0276 -0.1305
  625MOL0     H84345   5.580   0.962   9.543 -1.1438  0.8109  0.1613
  625MOL0     H84346   5.567   1.073   9.405  4.2361  0.6756  1.0762
  625MOL0     H84347   5.681   0.946   9.266  1.3133 -0.4592 -0.6463
  625MOL0     H84348   5.615   0.792   9.309 -1.4359  0.3039  0.9805
  625MOL0     H84349   5.807   0.967   9.454 -2.1513  0.3590 -0.1124
  625MOL0     H84350   5.767   0.802   9.518 -1.2325  0.5055  0.5846
  625MOL0     H84351   5.950   0.889   9.297  0.4381  0.9838  0.1520
  625MOL0     H84352   5.865   0.757   9.242  2.7199 -1.0093 -0.2773
  625MOL0     H84353   5.981   0.722   9.523 -1.2580 -1.0989  0.7131
  625MOL0     H84354   5.935   0.606   9.382  2.9005 -1.6000 -0.2941
  625MOL0     H84355   4.927   1.079   9.403 -1.4528  0.6195 -0.9528
  625MOL0     H84356   4.705   1.020   9.370 -0.8281 -1.7774 -0.2517
  625MOL0     H84357   4.370   0.705   9.645 -0.9288 -0.4362 -0.4583
  625MOL0     H84358   4.128   0.724   9.631 -1.6772 -0.5866 -0.1368
  625MOL0     H84359   2.509   1.936   8.707 -0.9710 -0.1672 -0.4837
  625MOL0     H84360   2.271   1.969   8.791  0.3141  0.5225 -0.1699
  625MOL0     H84361   1.862   1.856   8.918 -1.3161  3.4408 -0.0644
  625MOL0     H84362   1.651   1.921   9.007 -0.4835 -1.7560  0.2409
  625MOL0     H84363   1.705   2.164   9.330  1.1667 -0.9457 -0.6858
  625MOL0     H84364   1.677   2.044   9.462  0.7805  0.5030  0.3952
  625MOL0     H84365   1.502   2.217   9.494  1.2030  0.1372  0.0827
  625MOL0     H84366   1.446   2.051   9.447  1.6617 -0.0841 -0.4614
  625MOL0     H84367   1.331   2.212   9.303  0.7648  1.5237  1.1429
  625MOL0     H84368   1.436   2.123   9.203 -2.1383 -1.3837  1.5065
  625MOL0     H84369   1.475   2.403   9.306 -2.1205  0.2387 -1.3724
  625MOL0     H84370   1.604   2.317   9.216  0.6792  1.7902 -0.5036
  625MOL0     H84371   1.351   2.421   8.903  1.3865  0.2039 -0.2844
  625MOL0     H84372   1.844   1.948   9.398 -0.0525 -0.0410 -0.7550
  625MOL0     H84373   2.134   2.031   9.316  0.0447 -0.4772  1.1486
  625MOL0     H84374   2.078   1.917   9.431 -1.5900  0.8219  0.2407
  625MOL0     H84375   2.159   1.856   9.279 -1.3870 -1.3583 -0.3062
  626MOL0     O84376   1.561   7.537   2.342  0.4416  0.1226  0.0517
  626MOL0     C84377   1.656   7.471   2.301 -0.4602  0.8383 -1.1661
  626MOL0     O84378   1.784   7.517   2.285  0.3701  0.4609 -0.0779
  626MOL0     C84379   1.822   7.648   2.297  0.1408 -0.0087  0.7525
  626MOL0     C84380   1.941   7.666   2.367  0.0472 -0.3144 -0.2874
  626MOL0     C84381   1.991   7.792   2.401  0.0042 -0.3323 -0.1053
  626MOL0     C84382   1.927   7.910   2.346  0.6015 -0.3032 -0.3234
  626MOL0     O84383   1.982   8.036   2.355  0.6129 -0.2219  0.1418
  626MOL0     C84384   2.124   8.046   2.321 -0.3174  0.1369 -0.6143
  626MOL0     C84385   2.166   7.965   2.206  0.3291  0.0806 -0.0833
  626MOL0     C84386   2.307   8.006   2.150  0.6130 -0.2864 -0.0774
  626MOL0     C84387   2.343   7.930   2.024 -0.3673 -0.3448  0.3232
  626MOL0     C84388   2.480   7.973   1.968 -0.7291 -0.3905 -0.1102
  626MOL0     C84389   2.490   8.107   1.895  0.0975 -0.1649  0.4378
  626MOL0     C84390   2.628   8.169   1.886  0.1388  0.4733 -0.9576
  626MOL0     C84391   2.721   8.089   1.797  0.5071 -0.0843 -0.1771
  626MOL0     N84392   2.817   8.177   1.732  0.4241  0.0739  0.2637
  626MOL0     C84393   2.851   8.177   1.596 -0.6364 -0.5866  1.2525
  626MOL0     C84394   2.966   8.263   1.590 -0.1001 -0.0296 -0.5540
  626MOL0     C84395   3.031   8.297   1.453 -0.2289 -0.7514 -0.2723
  626MOL0     C84396   3.116   8.429   1.447  0.9131 -0.2461  0.0574
  626MOL0     C84397   3.240   8.428   1.538  0.5989 -0.6489 -0.5175
  626MOL0     C84398   3.340   8.530   1.489  0.0618 -0.5213  0.9352
  626MOL0     O84399   3.460   8.531   1.575  0.6805  0.1109  0.3379
  626MOL0     C84400   3.577   8.576   1.508  0.0345 -0.6385 -0.3034
  626MOL0     C84401   3.686   8.488   1.485 -0.1185  0.2172 -0.1554
  626MOL0     C84402   3.807   8.531   1.428 -0.4193  0.8788  0.0875
  626MOL0     C84403   3.819   8.668   1.409 -0.1265 -0.8540 -0.2338
  626MOL0     C84404   3.947   8.726   1.351  0.7055  0.0852 -0.2376
  626MOL0     O84405   4.061   8.657   1.384  0.5764  0.1563 -0.4466
  626MOL0     C84406   4.175   8.687   1.309  0.0316  0.3287 -0.4207
  626MOL0     C84407   4.253   8.580   1.260 -0.3314  0.6388  0.1101
  626MOL0     C84408   4.379   8.602   1.194  0.4170  1.0020  0.0617
  626MOL0     C84409   4.423   8.736   1.181 -0.1410 -0.5809  0.3940
  626MOL0     O84410   4.547   8.748   1.128 -0.3134  0.1825 -0.0179
  626MOL0     C84411   4.589   8.864   1.055  0.3905  1.0958 -0.1954
  626MOL0     C84412   4.736   8.899   1.082 -0.6058  0.2409  0.0764
  626MOL0     C84413   4.849   8.796   1.051 -0.1397 -0.1689  0.0512
  626MOL0     C84414   4.993   8.834   1.081 -0.6047  0.0327 -0.3033
  626MOL0     C84415   5.052   8.919   0.966  0.3732  0.0698 -0.4967
  626MOL0     C84416   5.197   8.957   1.003  0.3776 -0.4138  0.1821
  626MOL0     C84417   5.271   9.035   0.897 -0.1933 -0.6622 -0.2181
  626MOL0     C84418   5.408   9.082   0.925 -0.5134 -0.3853  0.1301
  626MOL0    Cl84419   5.498   9.108   0.772 -0.2802  0.2508  0.2099
  626MOL0     C84420   4.343   8.840   1.227  0.4019 -0.1821 -0.2355
  626MOL0     C84421   4.225   8.817   1.285  0.3551 -0.1849  0.3399
  626MOL0     O84422   3.934   8.818   1.272 -0.2497 -0.6332 -0.0380
  626MOL0     C84423   3.707   8.759   1.423 -0.6396 -0.0847 -0.7585
  626MOL0     C84424   3.584   8.709   1.469 -0.3095  0.4845 -0.0050
  626MOL0     N84425   2.993   8.300   1.720  0.8214 -0.2388 -0.3408
  626MOL0     N84426   2.900   8.256   1.801 -0.5517  0.4001 -0.1156
  626MOL0     C84427   1.811   7.888   2.279 -0.2029  0.0004  0.5594
  626MOL0     C84428   1.753   7.766   2.260  0.5143  0.6477 -0.3318
  626MOL0     C84429   1.635   7.320   2.292  0.5234  0.0422  0.0708
  626MOL0     C84430   1.494   7.276   2.287  0.6537  0.6642 -0.0659
  626MOL0     C84431   1.462   7.142   2.265  0.1610 -0.7015 -0.4734
  626MOL0     C84432   1.564   7.044   2.269  0.4815 -0.2824  0.5172
  626MOL0     O84433   1.539   6.912   2.276  0.0164 -0.3367  0.4368
  626MOL0     C84434   1.518   6.863   2.143 -0.7628  0.1509 -0.1169
  626MOL0     C84435   1.629   6.767   2.096 -0.9101 -0.1409 -0.4885
  626MOL0     C84436   1.761   6.838   2.046 -0.5588  0.7938 -0.2294
  626MOL0     C84437   1.840   6.749   1.948 -0.1265 -0.2929 -0.2159
  626MOL0     C84438   1.949   6.679   2.023  0.3060  0.0213  0.1253
  626MOL0     C84439   2.026   6.608   2.088  0.0914 -0.2619 -0.3575
  626MOL0     C84440   1.697   7.083   2.292  0.0624 -1.0227 -0.4832
  626MOL0     C84441   1.738   7.223   2.295 -0.7498  0.5881 -0.0026
  626MOL0     C84442   1.885   7.243   2.328 -0.8040  0.4443 -0.0564
  626MOL0     H84443   2.004   7.583   2.397  0.0007 -0.2329  0.0449
  626MOL0     H84444   2.085   7.812   2.453  1.5232  0.1121 -2.8432
  626MOL0     H84445   2.142   8.150   2.291 -0.8726  0.3427 -0.2488
  626MOL0     H84446   2.183   8.019   2.409  0.6267 -1.3947 -1.6719
  626MOL0     H84447   2.092   7.986   2.128  1.9663 -1.0914 -2.0360
  626MOL0     H84448   2.161   7.858   2.229 -0.4446  0.2551  0.6257
  626MOL0     H84449   2.377   8.003   2.234  0.0328  1.8799  0.5573
  626MOL0     H84450   2.302   8.111   2.119  1.9362 -0.4339 -0.8460
  626MOL0     H84451   2.352   7.827   2.058  0.2475 -0.6798 -0.7742
  626MOL0     H84452   2.273   7.935   1.940 -1.0361 -0.8588  0.8448
  626MOL0     H84453   2.549   7.969   2.053 -1.3938  0.4410  0.4953
  626MOL0     H84454   2.512   7.888   1.908  0.0251  0.6257 -1.1977
  626MOL0     H84455   2.456   8.104   1.791  0.3057  1.1427  0.3120
  626MOL0     H84456   2.418   8.177   1.939 -1.3428 -0.0572 -1.8749
  626MOL0     H84457   2.669   8.167   1.988  1.5301  0.2788 -1.4989
  626MOL0     H84458   2.624   8.275   1.861  1.0443  1.3436  2.1354
  626MOL0     H84459   2.766   8.018   1.867 -0.0495 -1.9951 -1.6545
  626MOL0     H84460   2.659   8.035   1.726  0.0894  2.0880 -1.5809
  626MOL0     H84461   2.822   8.121   1.507  1.7239  0.1541 -0.0810
  626MOL0     H84462   3.085   8.211   1.412 -2.4533 -1.5180 -1.7607
  626MOL0     H84463   2.949   8.302   1.381  0.1833  2.2813 -0.6457
  626MOL0     H84464   3.143   8.442   1.342 -0.0557 -1.3177 -0.3544
  626MOL0     H84465   3.055   8.512   1.483  0.4053 -1.0754  1.1957
  626MOL0     H84466   3.290   8.332   1.555 -0.2098 -1.4907 -2.4717
  626MOL0     H84467   3.214   8.459   1.640  1.0901  1.0160 -0.8699
  626MOL0     H84468   3.299   8.631   1.478 -1.0276 -1.2008 -2.5117
  626MOL0     H84469   3.363   8.507   1.385 -2.9514  0.8904 -0.1593
  626MOL0     H84470   3.680   8.384   1.515  0.4659 -0.2665 -1.6077
  626MOL0     H84471   3.889   8.464   1.405  1.1273  2.4963  0.6327
  626MOL0     H84472   4.226   8.476   1.269  1.2421  0.1799 -0.2467
  626MOL0     H84473   4.436   8.518   1.157 -0.5146 -0.5220  1.8734
  626MOL0     H84474   4.564   8.860   0.949 -3.5346  0.1195  0.5866
  626MOL0     H84475   4.536   8.952   1.093 -0.2363  0.8588 -0.5147
  626MOL0     H84476   4.761   8.978   1.011  1.8122 -0.6274 -0.1505
  626MOL0     H84477   4.748   8.916   1.189 -0.3521 -0.9937  0.2648
  626MOL0     H84478   4.827   8.702   1.102 -1.3294 -0.2101 -0.5068
  626MOL0     H84479   4.849   8.772   0.944  0.2310  0.1169 -0.0158
  626MOL0     H84480   5.057   8.746   1.071  0.9573  1.3036 -2.3628
  626MOL0     H84481   5.012   8.879   1.179  1.6697  1.8103 -1.4528
  626MOL0     H84482   4.988   9.003   0.938 -2.0140 -1.3445  0.4637
  626MOL0     H84483   5.052   8.861   0.873  1.1502 -0.5162 -0.1385
  626MOL0     H84484   5.205   9.009   1.099 -1.2651  2.2156 -0.9986
  626MOL0     H84485   5.252   8.864   1.022 -0.8587 -1.0612  0.7417
  626MOL0     H84486   5.204   9.106   0.848  1.7829  0.3048 -1.6855
  626MOL0     H84487   5.301   8.964   0.819  0.0654 -1.4955  0.6167
  626MOL0     H84488   5.395   9.176   0.980  0.6454  0.4784 -1.0197
  626MOL0     H84489   5.463   9.018   0.996 -0.5053  0.5374  0.9783
  626MOL0     H84490   4.379   8.942   1.225 -1.1553  0.3967 -1.3498
  626MOL0     H84491   4.162   8.904   1.301 -0.2285 -0.2756 -1.2705
  626MOL0     H84492   3.716   8.863   1.392  1.5692  0.1115  0.3613
  626MOL0     H84493   3.502   8.779   1.485 -0.9816 -0.1627 -0.5546
  626MOL0     H84494   1.765   7.978   2.241  1.7169  0.4048 -0.9715
  626MOL0     H84495   1.655   7.747   2.219 -1.4777  2.1135  3.3048
  626MOL0     H84496   1.407   7.338   2.275 -0.0485 -0.2788  0.0032
  626MOL0     H84497   1.356   7.129   2.244 -0.5710  0.6311  1.9641
  626MOL0     H84498   1.498   6.941   2.069 -1.9816 -0.5008 -0.4920
  626MOL0     H84499   1.423   6.811   2.155 -1.6960  1.5438 -1.1357
  626MOL0     H84500   1.583   6.713   2.012 -1.7248  0.2670 -0.3134
  626MOL0     H84501   1.668   6.698   2.172  1.2224  1.9920  0.4771
  626MOL0     H84502   1.809   6.866   2.140 -2.7166 -2.7263  2.1402
  626MOL0     H84503   1.732   6.933   2.001 -0.4982  0.4844 -0.9361
  626MOL0     H84504   1.777   6.674   1.899 -1.2739 -0.1691  1.0229
  626MOL0     H84505   1.897   6.803   1.872  3.6869 -1.7056  1.3939
  626MOL0     H84506   2.093   6.557   2.154  0.0567 -1.5401 -1.2877
  626MOL0     H84507   1.777   7.012   2.312 -0.3821 -0.5187  3.9883
  626MOL0     H84508   1.929   7.144   2.348 -0.1869  0.2803 -2.0121
  626MOL0     H84509   1.931   7.301   2.247 -1.4717  0.3072 -0.5439
  626MOL0     H84510   1.892   7.291   2.426 -0.9678 -2.8523  1.7055
  627MOL0     O84511  10.683   0.135   0.744 -0.2688 -0.8746  0.7651
  627MOL0     C84512  10.613   0.228   0.778 -0.8377  0.0055  0.0667
  627MOL0     O84513  10.657   0.329   0.855  0.4238 -0.7895 -0.1589
  627MOL0     C84514  10.766   0.321   0.933 -0.4341 -0.1983 -0.2806
  627MOL0     C84515  10.888   0.259   0.887 -0.1537 -0.3049 -0.2598
  627MOL0     C84516  10.991   0.245   0.973 -1.1242 -0.4405 -1.0699
  627MOL0     C84517  10.986   0.298   1.105 -0.1217  0.3331 -0.0235
  627MOL0     O84518  11.097   0.286   1.193  0.0453 -0.1306  0.7195
  627MOL0     C84519  11.182   0.175   1.171  0.6353  0.0510 -0.3336
  627MOL0     C84520  11.248   0.126   1.295  0.2208  0.7966  0.3246
  627MOL0     C84521  11.158   0.046   1.374 -0.1144 -0.4914 -0.5802
  627MOL0     C84522  11.236   0.021   1.507  0.8379  0.1006 -0.3838
  627MOL0     C84523  11.140  -0.058   1.599 -0.9924 -0.5372 -0.6902
  627MOL0     C84524  11.201  -0.082   1.732 -0.4614  1.1964  0.2965
  627MOL0     C84525  11.247  -0.224   1.751 -0.0592 -0.0435  0.0131
  627MOL0     C84526  11.248  -0.254   1.895 -0.1949 -0.5705 -0.2527
  627MOL0     N84527  11.319  -0.384   1.913  0.0063  0.5954  0.5657
  627MOL0     C84528  11.458  -0.400   1.926  0.3526  0.0708  0.2601
  627MOL0     C84529  11.481  -0.525   1.976 -0.5734 -0.1317  0.0456
  627MOL0     C84530  11.623  -0.563   2.036 -0.5933 -0.4431  0.4020
  627MOL0     C84531  11.661  -0.464   2.141 -0.4371  0.1988  0.1228
  627MOL0     C84532  11.558  -0.452   2.261  0.1574  0.5256  0.7462
  627MOL0     C84533  11.592  -0.347   2.359 -0.3263 -0.2245  0.0339
  627MOL0     O84534  11.486  -0.340   2.457 -0.1567 -0.3506  0.7251
  627MOL0     C84535  11.489  -0.258   2.563 -0.6830 -0.0080  0.4385
  627MOL0     C84536  11.383  -0.254   2.647  0.4302 -0.0555 -0.6122
  627MOL0     C84537  11.369  -0.170   2.755  0.8828  0.3430  0.1437
  627MOL0     C84538  11.477  -0.092   2.788  0.3992 -0.7237  0.7342
  627MOL0     C84539  11.483  -0.024   2.924  0.0326 -0.0546  0.0817
  627MOL0     O84540  11.610   0.001   2.983  0.4167  0.6058  0.5427
  627MOL0     C84541  11.604   0.040   3.117 -1.0687  0.7186  0.2632
  627MOL0     C84542  11.617   0.178   3.140 -0.4319  0.5194  0.5006
  627MOL0     C84543  11.624   0.229   3.273 -0.8866 -0.1505  0.2944
  627MOL0     C84544  11.630   0.138   3.382  0.4391  0.2463  0.1537
  627MOL0     O84545  11.633   0.179   3.512  0.8775 -0.1371  0.8079
  627MOL0     C84546  11.763   0.147   3.571 -0.3679  0.2299 -0.4404
  627MOL0     C84547  11.791   0.254   3.675  0.4654  0.4220  0.1495
  627MOL0     C84548  11.822   0.394   3.614 -0.0204  0.1200 -0.6716
  627MOL0     C84549  11.843   0.501   3.723  1.4240  0.3643  0.0248
  627MOL0     C84550  11.989   0.504   3.782 -0.5460  0.3350  0.3651
  627MOL0     C84551  11.988   0.617   3.889  0.1923 -0.6862 -0.2093
  627MOL0     C84552  12.124   0.628   3.955  0.8346 -0.9544 -1.3525
  627MOL0     C84553  12.124   0.739   4.060 -0.4371 -0.3749  0.4292
  627MOL0    Cl84554  12.260   0.735   4.175  0.2556 -0.0456 -0.3165
  627MOL0     C84555  11.605  -0.005   3.360  0.3858  0.6571 -0.5599
  627MOL0     C84556  11.597  -0.050   3.225 -0.1107 -0.3456 -0.1375
  627MOL0     O84557  11.376  -0.008   2.987  0.2215 -0.8155  0.3722
  627MOL0     C84558  11.585  -0.086   2.701  0.1896  0.6104 -0.3325
  627MOL0     C84559  11.588  -0.164   2.585  0.0278 -0.0400  0.1696
  627MOL0     N84560  11.354  -0.584   1.998  0.5200 -0.2046  1.0231
  627MOL0     N84561  11.263  -0.494   1.965  0.4513  0.8528 -0.4515
  627MOL0     C84562  10.871   0.361   1.151 -0.0389  0.1079 -0.6237
  627MOL0     C84563  10.762   0.377   1.064 -0.1972 -0.1264 -0.2126
  627MOL0     C84564  10.473   0.246   0.722 -0.5686 -0.1719  0.0103
  627MOL0     C84565  10.410   0.142   0.651 -0.0535 -0.4908 -0.2909
  627MOL0     C84566  10.268   0.140   0.618  0.0844  0.3172 -0.1110
  627MOL0     C84567  10.191   0.252   0.651 -0.1142 -1.2693  0.8858
  627MOL0     O84568  10.062   0.275   0.619  0.1644  0.2517  0.5496
  627MOL0     C84569  10.005   0.168   0.544  0.9498 -0.4389  0.3089
  627MOL0     C84570   9.857   0.195   0.501 -1.2021  0.1331 -0.5446
  627MOL0     C84571   9.831   0.319   0.406  0.4735 -0.5863  0.1389
  627MOL0     C84572   9.908   0.307   0.279  0.0633  0.4505  0.5641
  627MOL0     C84573  10.039   0.370   0.302 -0.1189  1.3170  0.8114
  627MOL0     C84574  10.151   0.420   0.321 -0.0002  0.4215  0.2263
  627MOL0     C84575  10.255   0.359   0.725 -0.5341 -0.2184  0.3135
  627MOL0     C84576  10.388   0.361   0.762  0.2742  0.2626 -0.0850
  627MOL0     C84577  10.427   0.481   0.843 -0.4277 -0.9183  0.2005
  627MOL0     H84578  10.897   0.214   0.788  0.3760  0.2687 -0.4759
  627MOL0     H84579  11.081   0.198   0.933 -0.4512  1.1910 -1.5596
  627MOL0     H84580  11.128   0.091   1.127 -2.0339  0.1250  2.4378
  627MOL0     H84581  11.271   0.201   1.113  0.4084 -0.7410 -1.0545
  627MOL0     H84582  11.308   0.204   1.343  0.4977  2.2695 -2.2579
  627MOL0     H84583  11.325   0.057   1.260 -0.4661  1.6607 -3.3097
  627MOL0     H84584  11.138  -0.048   1.323 -3.8201  0.4824 -1.2289
  627MOL0     H84585  11.059   0.091   1.387 -1.0835 -2.9613  1.6171
  627MOL0     H84586  11.322  -0.042   1.481  0.0070 -1.7468  1.1558
  627MOL0     H84587  11.273   0.114   1.552  2.6503 -0.7436 -0.0374
  627MOL0     H84588  11.046  -0.004   1.614 -1.1370 -1.5878  3.9266
  627MOL0     H84589  11.116  -0.152   1.549  0.5210  0.3102 -3.1707
  627MOL0     H84590  11.277  -0.007   1.757 -0.3237  1.2859 -0.3783
  627MOL0     H84591  11.139  -0.068   1.822  1.3582  0.2584  1.7798
  627MOL0     H84592  11.347  -0.240   1.710  0.5604 -0.3961  1.5898
  627MOL0     H84593  11.190  -0.294   1.689 -2.1128  2.4816 -1.1229
  627MOL0     H84594  11.302  -0.172   1.943 -1.4520  0.3892 -0.4513
  627MOL0     H84595  11.145  -0.268   1.927 -0.4493  0.3565 -0.6406
  627MOL0     H84596  11.534  -0.326   1.900 -0.5837  0.4989 -1.4079
  627MOL0     H84597  11.619  -0.661   2.086  0.8947  0.6493  2.8411
  627MOL0     H84598  11.704  -0.556   1.963 -1.3788  1.0542 -0.3814
  627MOL0     H84599  11.745  -0.509   2.195  0.5011  0.9078 -0.7169
  627MOL0     H84600  11.688  -0.369   2.093  1.6829  0.2653  1.3550
  627MOL0     H84601  11.564  -0.550   2.310  1.1499 -0.6862 -1.6252
  627MOL0     H84602  11.462  -0.430   2.213  0.2000 -0.1399  0.3416
  627MOL0     H84603  11.610  -0.249   2.314 -1.8882  0.3779  0.6658
  627MOL0     H84604  11.679  -0.391   2.409 -0.6255 -1.6497 -0.6365
  627MOL0     H84605  11.298  -0.318   2.626 -0.1654  0.9984 -1.5423
  627MOL0     H84606  11.275  -0.175   2.808 -0.1394  3.5892 -1.0939
  627MOL0     H84607  11.605   0.243   3.054  2.4040  0.5375  0.0074
  627MOL0     H84608  11.635   0.335   3.292  0.1782  0.8572 -4.5754
  627MOL0     H84609  11.768   0.046   3.611 -1.5916  0.9906  1.8179
  627MOL0     H84610  11.835   0.170   3.492  0.6401  0.4429  0.5242
  627MOL0     H84611  11.703   0.259   3.740 -0.1098  1.2892 -0.6573
  627MOL0     H84612  11.873   0.221   3.740 -1.6645 -2.4402  1.6173
  627MOL0     H84613  11.911   0.386   3.551  1.1453 -1.9444  1.1202
  627MOL0     H84614  11.737   0.424   3.551 -0.8004  1.1240  0.7926
  627MOL0     H84615  11.772   0.464   3.797  2.4749 -1.6883  0.0902
  627MOL0     H84616  11.820   0.602   3.688 -0.5764  0.1116  0.5057
  627MOL0     H84617  12.056   0.523   3.697 -0.4578 -0.7237  0.1837
  627MOL0     H84618  12.013   0.405   3.823  0.6940  0.1385 -0.7662
  627MOL0     H84619  11.976   0.711   3.834  3.1725 -0.2298 -0.2394
  627MOL0     H84620  11.908   0.588   3.958 -0.4568 -2.5937 -1.6710
  627MOL0     H84621  12.190   0.651   3.871 -1.2441  1.9555 -2.3359
  627MOL0     H84622  12.150   0.536   4.007 -1.5844  0.1486  2.1788
  627MOL0     H84623  12.124   0.834   4.006 -0.1441 -0.0403  1.0085
  627MOL0     H84624  12.029   0.722   4.113  0.0455 -0.5875  1.2466
  627MOL0     H84625  11.601  -0.078   3.440 -1.1860 -0.6545 -1.7810
  627MOL0     H84626  11.588  -0.158   3.224  2.7013 -0.7366  2.1243
  627MOL0     H84627  11.660  -0.014   2.733 -0.1626  1.9923 -2.4133
  627MOL0     H84628  11.669  -0.155   2.513 -0.2198 -4.4957 -0.9651
  627MOL0     H84629  10.869   0.405   1.250 -2.3477  1.0120 -0.9926
  627MOL0     H84630  10.673   0.430   1.099 -0.0413 -0.4105  0.6251
  627MOL0     H84631  10.476   0.064   0.615 -0.7393 -0.4663 -1.6474
  627MOL0     H84632  10.225   0.053   0.569  0.3154 -0.2903  0.7433
  627MOL0     H84633  10.004   0.076   0.603 -3.0400  0.2969  1.7127
  627MOL0     H84634  10.058   0.147   0.450 -0.7532 -0.2389 -0.7384
  627MOL0     H84635   9.809   0.209   0.599  2.1619  3.8087  0.8276
  627MOL0     H84636   9.834   0.099   0.453  2.7261 -0.1559 -2.2665
  627MOL0     H84637   9.864   0.396   0.476 -2.3528  0.4732  0.4273
  627MOL0     H84638   9.723   0.332   0.397  0.0971 -0.7362  3.2181
  627MOL0     H84639   9.927   0.203   0.254  0.7446  0.3423  1.4876
  627MOL0     H84640   9.860   0.365   0.199 -0.3736 -1.4287 -0.5822
  627MOL0     H84641  10.242   0.472   0.343 -0.0147 -0.1423  1.7129
  627MOL0     H84642  10.184   0.436   0.755  0.5622  0.4190  1.3449
  627MOL0     H84643  10.453   0.460   0.947 -1.3174 -0.4085  0.5413
  627MOL0     H84644  10.517   0.523   0.798 -1.7282 -0.1076 -1.7680
  627MOL0     H84645  10.358   0.566   0.842  1.6944  0.9328  1.7375
  628MOL0     O84646   1.498   1.441   3.655 -0.1490  0.9540 -0.1822
  628MOL0     C84647   1.561   1.365   3.727 -0.4434  0.9047  0.4609
  628MOL0     O84648   1.698   1.384   3.760  0.0476  0.2607 -0.4097
  628MOL0     C84649   1.757   1.491   3.701  0.0211  0.3486 -0.4065
  628MOL0     C84650   1.837   1.456   3.597 -0.1759 -0.1687 -0.0118
  628MOL0     C84651   1.914   1.562   3.539 -0.6128 -0.1586  0.1488
  628MOL0     C84652   1.900   1.688   3.579 -0.7597  0.2243  0.1635
  628MOL0     O84653   1.975   1.795   3.537  0.2450 -0.6218 -0.5892
  628MOL0     C84654   2.101   1.819   3.613 -0.2464 -0.6232 -0.3401
  628MOL0     C84655   2.184   1.687   3.620  0.7309 -0.3013  0.7093
  628MOL0     C84656   2.318   1.693   3.693  0.0339 -0.3890  0.9883
  628MOL0     C84657   2.408   1.790   3.623 -0.4957  0.5164  0.2246
  628MOL0     C84658   2.497   1.721   3.515  0.7357  0.1110 -0.4087
  628MOL0     C84659   2.631   1.683   3.580  0.3700  0.3575  0.5972
  628MOL0     C84660   2.736   1.804   3.597  0.5913  0.1067  0.2503
  628MOL0     C84661   2.848   1.771   3.695 -0.2772 -0.7680  0.4445
  628MOL0     N84662   2.961   1.857   3.659  0.0917  0.4953  0.6096
  628MOL0     C84663   2.993   1.988   3.698  0.4685 -0.0114  0.6326
  628MOL0     C84664   3.098   2.025   3.634 -0.8715 -0.0198 -0.1133
  628MOL0     C84665   3.163   2.155   3.653  0.5487 -1.9059  0.4500
  628MOL0     C84666   3.292   2.137   3.724  0.5891  0.7493  0.2378
  628MOL0     C84667   3.359   2.267   3.749  0.2555 -0.5245 -0.3740
  628MOL0     C84668   3.509   2.250   3.765  0.9182  0.6039  0.2089
  628MOL0     O84669   3.565   2.385   3.775  0.6983  0.0992  0.2460
  628MOL0     C84670   3.696   2.391   3.764 -0.1373 -0.0561 -1.1436
  628MOL0     C84671   3.756   2.499   3.699 -0.5717  0.6876  0.0516
  628MOL0     C84672   3.895   2.517   3.688  0.1017  0.0257 -0.4511
  628MOL0     C84673   3.982   2.415   3.735 -0.3927 -0.6409  0.1997
  628MOL0     C84674   4.129   2.425   3.717  0.5504 -0.3311  0.3738
  628MOL0     O84675   4.177   2.544   3.684  0.5774  0.3078 -0.8529
  628MOL0     C84676   4.309   2.578   3.667  0.2885  0.1794 -0.0179
  628MOL0     C84677   4.416   2.492   3.632 -0.3820  0.1464 -0.1213
  628MOL0     C84678   4.547   2.548   3.630  0.3245  0.7031 -0.5668
  628MOL0     C84679   4.576   2.679   3.653 -0.2284 -0.5586 -0.6897
  628MOL0     O84680   4.711   2.714   3.647  0.5436  0.2634  0.0119
  628MOL0     C84681   4.747   2.852   3.624  0.5214  0.8651 -0.2437
  628MOL0     C84682   4.892   2.875   3.650 -0.3598 -0.6822  0.1783
  628MOL0     C84683   4.967   2.826   3.529  0.2945  0.0055 -0.6786
  628MOL0     C84684   5.117   2.816   3.558 -0.3870 -0.5216 -0.6006
  628MOL0     C84685   5.197   2.827   3.418 -0.9051  0.6244 -0.2654
  628MOL0     C84686   5.202   2.973   3.354 -0.4731  0.2001  0.2994
  628MOL0     C84687   5.297   2.977   3.230  1.2460 -0.1777 -0.2234
  628MOL0     C84688   5.440   2.980   3.278  0.9887  0.8007  0.4497
  628MOL0    Cl84689   5.562   3.004   3.142  0.2193 -0.1081 -0.3948
  628MOL0     C84690   4.471   2.762   3.696 -0.9423  0.0545  1.1090
  628MOL0     C84691   4.343   2.707   3.710  0.2343 -0.8273 -0.6848
  628MOL0     O84692   4.196   2.325   3.739 -0.0594 -0.5984  0.1235
  628MOL0     C84693   3.922   2.300   3.796  0.2057 -0.7132  0.2104
  628MOL0     C84694   3.784   2.289   3.809 -0.1593  0.3859 -0.2018
  628MOL0     N84695   3.133   1.927   3.543 -0.1923  0.4548 -0.7646
  628MOL0     N84696   3.052   1.827   3.557  0.2862  0.3722 -0.3292
  628MOL0     C84697   1.822   1.716   3.684 -0.5529 -0.2060 -0.2505
  628MOL0     C84698   1.746   1.620   3.750 -0.2392 -0.1924 -0.0737
  628MOL0     C84699   1.495   1.233   3.763 -1.0642 -1.2833  0.0815
  628MOL0     C84700   1.578   1.145   3.838  0.7175  0.0198  0.8576
  628MOL0     C84701   1.539   1.016   3.870  0.7026  0.5291 -0.2878
  628MOL0     C84702   1.420   0.961   3.821 -0.0115 -0.0815 -0.4230
  628MOL0     O84703   1.403   0.831   3.842 -0.8522  0.4695  0.1839
  628MOL0     C84704   1.289   0.762   3.806 -0.6463  0.5541  0.4169
  628MOL0     C84705   1.285   0.632   3.876  0.7227  0.4682 -0.5330
  628MOL0     C84706   1.171   0.550   3.812  0.0259  0.7834  0.2282
  628MOL0     C84707   1.099   0.452   3.915 -0.0910 -0.4170  0.3718
  628MOL0     C84708   1.012   0.362   3.840 -0.3380  0.2419  0.2857
  628MOL0     C84709   0.947   0.268   3.798 -0.1143 -0.4373  0.4242
  628MOL0     C84710   1.331   1.054   3.761  0.2595 -0.5345 -0.5746
  628MOL0     C84711   1.359   1.192   3.740  0.1479  0.0471  0.6404
  628MOL0     C84712   1.247   1.278   3.681  0.1584  0.4440 -0.7171
  628MOL0     H84713   1.841   1.359   3.548  1.9809 -0.6238  0.9479
  628MOL0     H84714   1.977   1.548   3.452  0.2405  1.1987  0.5218
  628MOL0     H84715   2.158   1.892   3.556 -0.4540 -0.5832 -0.4982
  628MOL0     H84716   2.081   1.868   3.709 -1.9842  1.4561 -1.6920
  628MOL0     H84717   2.187   1.646   3.519  2.2389  2.5512 -0.4888
  628MOL0     H84718   2.142   1.611   3.688  5.6805 -0.7385  3.7817
  628MOL0     H84719   2.371   1.598   3.700  2.6962  0.9724  0.4238
  628MOL0     H84720   2.302   1.733   3.794 -0.3306  5.1511 -0.9188
  628MOL0     H84721   2.361   1.873   3.570  2.0153  2.1158  0.3200
  628MOL0     H84722   2.472   1.843   3.694 -0.1070  0.6581 -0.2268
  628MOL0     H84723   2.459   1.629   3.469 -1.9849  0.5208  0.8641
  628MOL0     H84724   2.527   1.783   3.430  3.1847 -1.2807 -0.6653
  628MOL0     H84725   2.622   1.620   3.669  0.0360 -1.1864 -0.4955
  628MOL0     H84726   2.674   1.613   3.508 -1.8837 -2.3418  1.6974
  628MOL0     H84727   2.682   1.889   3.638  1.2836  0.3848  0.5890
  628MOL0     H84728   2.775   1.830   3.498 -2.7259 -0.6572 -1.4190
  628MOL0     H84729   2.806   1.787   3.794 -0.1528 -2.4855  0.8047
  628MOL0     H84730   2.871   1.665   3.686  0.1084 -0.5744 -1.2704
  628MOL0     H84731   2.941   2.053   3.768  2.0030  1.9465  0.0586
  628MOL0     H84732   3.179   2.187   3.550  0.0862 -2.5046  0.1868
  628MOL0     H84733   3.105   2.235   3.699  0.1909 -0.3011 -2.5367
  628MOL0     H84734   3.269   2.092   3.821  2.5354 -1.4310 -0.2023
  628MOL0     H84735   3.346   2.064   3.662 -2.5231  1.0524 -3.1455
  628MOL0     H84736   3.313   2.320   3.834  1.2306 -1.4678  0.7819
  628MOL0     H84737   3.349   2.319   3.653  0.8964  1.1137  0.3978
  628MOL0     H84738   3.557   2.189   3.689  0.8445 -1.1468  1.5079
  628MOL0     H84739   3.532   2.192   3.855  0.8939  1.2313  0.6278
  628MOL0     H84740   3.697   2.585   3.673 -1.3476  0.7816  1.9888
  628MOL0     H84741   3.940   2.601   3.636  0.3808 -2.2341 -4.2778
  628MOL0     H84742   4.421   2.384   3.630  0.3579  0.0910  2.2782
  628MOL0     H84743   4.625   2.481   3.597  0.0666  0.0877  0.0508
  628MOL0     H84744   4.727   2.879   3.520  0.5817  1.5387 -0.0872
  628MOL0     H84745   4.697   2.925   3.689  2.5844  1.3266  0.9258
  628MOL0     H84746   4.922   2.979   3.661 -2.7491  0.0668  0.2816
  628MOL0     H84747   4.927   2.816   3.736  0.6134 -4.3556 -2.4938
  628MOL0     H84748   4.935   2.723   3.508  0.4064  0.4253 -3.1389
  628MOL0     H84749   4.939   2.888   3.444 -0.5784  3.2733  1.7798
  628MOL0     H84750   5.143   2.719   3.601  0.9003 -0.1446 -0.4596
  628MOL0     H84751   5.158   2.895   3.622  1.7657 -1.7044 -0.3992
  628MOL0     H84752   5.156   2.754   3.347  0.4184 -0.2601 -0.1435
  628MOL0     H84753   5.297   2.787   3.430 -1.9615 -2.3640 -0.6148
  628MOL0     H84754   5.104   3.008   3.319 -0.0310  1.1303 -0.0407
  628MOL0     H84755   5.245   3.045   3.425 -2.0766  0.5809  0.9329
  628MOL0     H84756   5.284   3.067   3.169  0.1038 -0.6434 -0.7042
  628MOL0     H84757   5.269   2.887   3.175  0.9634 -0.1392 -0.1423
  628MOL0     H84758   5.453   3.063   3.348 -1.2953  1.6715 -0.0564
  628MOL0     H84759   5.459   2.886   3.330 -4.5263 -1.5769 -1.0118
  628MOL0     H84760   4.499   2.866   3.710  3.5619 -0.8898  0.5861
  628MOL0     H84761   4.265   2.775   3.743  1.3279  1.4755 -2.5228
  628MOL0     H84762   3.994   2.226   3.831  0.1694 -1.1226 -0.5511
  628MOL0     H84763   3.747   2.203   3.863  0.4620 -0.3622 -0.9447
  628MOL0     H84764   1.829   1.815   3.728  0.5605 -1.3054  2.2656
  628MOL0     H84765   1.695   1.641   3.843  1.1105  0.8480  0.4608
  628MOL0     H84766   1.671   1.178   3.883  1.6834 -0.7355 -0.5503
  628MOL0     H84767   1.598   0.945   3.928  0.8590 -0.1805 -1.2845
  628MOL0     H84768   1.304   0.737   3.701  0.8029 -0.1205  0.7550
  628MOL0     H84769   1.195   0.808   3.839 -0.9675  0.7540 -0.7381
  628MOL0     H84770   1.252   0.643   3.980 -2.9311  0.0646 -1.5293
  628MOL0     H84771   1.376   0.571   3.868 -1.8297 -4.2084  1.8884
  628MOL0     H84772   1.205   0.495   3.724 -1.5441 -0.0140  0.0833
  628MOL0     H84773   1.105   0.622   3.763 -0.5106 -0.5442 -1.0704
  628MOL0     H84774   1.172   0.396   3.974  0.5427  1.4026  1.4145
  628MOL0     H84775   1.042   0.513   3.986  1.0903  1.6831 -0.3775
  628MOL0     H84776   0.880   0.191   3.766 -0.7550  0.0899  0.4725
  628MOL0     H84777   1.231   1.023   3.733 -0.5320  1.1336  0.3074
  628MOL0     H84778   1.250   1.272   3.572 -1.4025 -1.7786 -0.7209
  628MOL0     H84779   1.155   1.242   3.728  0.6741  0.3734  0.2661
  628MOL0     H84780   1.252   1.383   3.712 -0.6927  0.6693 -1.3196
  629MOL0     O84781   6.675  10.518   6.341 -0.1052  0.2820  0.4608
  629MOL0     C84782   6.636  10.580   6.439 -0.7259  0.2361  0.8849
  629MOL0     O84783   6.725  10.639   6.524 -0.8026 -1.2892  0.3627
  629MOL0     C84784   6.859  10.603   6.513  0.2691 -0.5395  0.0182
  629MOL0     C84785   6.907  10.474   6.541 -0.2130  0.5699 -0.2780
  629MOL0     C84786   7.045  10.443   6.521  0.1139 -0.3514  0.4964
  629MOL0     C84787   7.132  10.545   6.477 -0.2626  0.4280  0.2346
  629MOL0     O84788   7.272  10.529   6.468 -0.5054  0.4943 -0.5624
  629MOL0     C84789   7.317  10.410   6.406  0.1749  0.6140 -0.0913
  629MOL0     C84790   7.438  10.435   6.313  0.5617 -0.1285 -0.6245
  629MOL0     C84791   7.541  10.514   6.382  0.0335  0.0690  0.1760
  629MOL0     C84792   7.629  10.428   6.474 -0.0701 -0.5766  0.2644
  629MOL0     C84793   7.712  10.518   6.566 -0.7179  0.0283  0.1912
  629MOL0     C84794   7.809  10.434   6.648 -0.1578 -0.0197  0.3388
  629MOL0     C84795   7.943  10.497   6.694  0.1522 -0.2004 -0.4109
  629MOL0     C84796   8.049  10.485   6.585 -0.1406 -0.6594  0.1632
  629MOL0     N84797   8.186  10.522   6.634  0.3225  0.6385 -0.5276
  629MOL0     C84798   8.256  10.633   6.584  0.6795  0.1982 -0.0839
  629MOL0     C84799   8.378  10.623   6.639  0.4537 -0.6485  0.9366
  629MOL0     C84800   8.485  10.724   6.618 -0.5759 -0.1890 -0.2142
  629MOL0     C84801   8.574  10.736   6.740  0.5997 -1.1642  0.0441
  629MOL0     C84802   8.674  10.620   6.746  0.4615 -0.0210 -0.3809
  629MOL0     C84803   8.808  10.649   6.685 -0.4774  0.4369 -0.2084
  629MOL0     O84804   8.894  10.744   6.756 -0.2762  0.6310  0.5717
  629MOL0     C84805   9.015  10.767   6.698 -0.3044 -0.1477 -0.3372
  629MOL0     C84806   9.075  10.691   6.599 -0.6609  0.0948  0.4056
  629MOL0     C84807   9.206  10.719   6.551 -0.5404  0.1875 -0.1926
  629MOL0     C84808   9.270  10.825   6.613 -0.4224  0.0259 -0.1286
  629MOL0     C84809   9.411  10.860   6.582 -0.2239  0.8140 -0.0460
  629MOL0     O84810   9.479  10.777   6.512  0.1253 -0.0279  0.0854
  629MOL0     C84811   9.615  10.783   6.488 -0.2670  0.0476 -0.0711
  629MOL0     C84812   9.673  10.663   6.441  0.5821  0.2383  0.3615
  629MOL0     C84813   9.812  10.653   6.423 -0.1365  0.5784 -0.7053
  629MOL0     C84814   9.895  10.760   6.457 -0.3454  0.0489  0.5213
  629MOL0     O84815  10.031  10.761   6.430 -1.1436  0.3240 -0.1493
  629MOL0     C84816  10.071  10.739   6.296  0.0444  0.5602 -0.0015
  629MOL0     C84817  10.209  10.674   6.295 -0.9684  0.0516  0.6053
  629MOL0     C84818  10.323  10.773   6.334  0.7574 -0.5929  0.8283
  629MOL0     C84819  10.347  10.881   6.230  0.8232 -0.3329 -0.4547
  629MOL0     C84820  10.475  10.961   6.231 -0.3951 -1.2493 -0.1559
  629MOL0     C84821  10.498  11.055   6.354 -1.2597 -0.9362  0.1928
  629MOL0     C84822  10.651  11.094   6.384  0.6572  0.0155  0.5237
  629MOL0     C84823  10.713  10.968   6.443 -0.2287  0.5570  0.0050
  629MOL0    Cl84824  10.880  11.013   6.474  0.5062 -0.1935 -0.1479
  629MOL0     C84825   9.836  10.881   6.501  0.3884 -0.1948 -0.0344
  629MOL0     C84826   9.695  10.892   6.517 -0.1013 -0.7683  1.1697
  629MOL0     O84827   9.450  10.963   6.633  0.0770 -0.5300 -0.3783
  629MOL0     C84828   9.214  10.886   6.726  0.1360  0.8328 -0.7095
  629MOL0     C84829   9.094  10.853   6.769  0.5781 -1.8620  1.0510
  629MOL0     N84830   8.373  10.522   6.728 -1.7093  0.2194 -0.6014
  629MOL0     N84831   8.262  10.460   6.731 -0.7443 -1.0439 -0.0606
  629MOL0     C84832   7.082  10.674   6.453  0.5362 -0.4931 -0.2635
  629MOL0     C84833   6.946  10.703   6.470  0.6081 -0.0034  0.2916
  629MOL0     C84834   6.488  10.597   6.448 -0.2086 -0.5368  0.1489
  629MOL0     C84835   6.442  10.706   6.522 -0.3539 -0.0466 -0.3068
  629MOL0     C84836   6.311  10.733   6.539 -0.7131  0.2448 -0.5043
  629MOL0     C84837   6.216  10.648   6.492 -0.4086 -0.2208 -0.3776
  629MOL0     O84838   6.082  10.671   6.491 -0.0448  0.3082 -0.2526
  629MOL0     C84839   6.041  10.809   6.494 -0.2808  0.2584  0.5365
  629MOL0     C84840   5.920  10.810   6.406 -0.5445 -0.4005  0.2249
  629MOL0     C84841   5.857  10.948   6.404  0.1335 -0.1531 -1.2224
  629MOL0     C84842   5.740  10.955   6.307  0.0247  0.0813  1.2054
  629MOL0     C84843   5.631  10.861   6.347 -0.2271  0.1506 -1.0338
  629MOL0     C84844   5.545  10.775   6.364 -0.2749  0.2596  0.2684
  629MOL0     C84845   6.250  10.528   6.441  0.3726 -0.6840 -0.3199
  629MOL0     C84846   6.385  10.501   6.419  0.3191 -0.6188 -0.0041
  629MOL0     C84847   6.408  10.376   6.341 -0.0465 -0.1033 -0.1506
  629MOL0     H84848   6.827  10.412   6.582 -2.2443  1.6936 -2.2875
  629MOL0     H84849   7.086  10.346   6.550 -0.5004  0.3267  4.0840
  629MOL0     H84850   7.338  10.348   6.494 -0.8590 -0.0602 -0.3059
  629MOL0     H84851   7.241  10.355   6.349 -0.6279  1.0082  0.5833
  629MOL0     H84852   7.404  10.488   6.223  1.9147 -0.8249 -1.5637
  629MOL0     H84853   7.478  10.340   6.278  1.5252  0.3670 -0.9141
  629MOL0     H84854   7.503  10.596   6.444  0.7953  0.0952  0.6155
  629MOL0     H84855   7.603  10.555   6.302 -0.4499  0.1918 -0.1452
  629MOL0     H84856   7.566  10.360   6.532  1.7507 -0.3386  2.6615
  629MOL0     H84857   7.695  10.367   6.410 -0.6657 -0.7059 -0.2451
  629MOL0     H84858   7.769  10.590   6.506 -0.5205  0.1974  0.5759
  629MOL0     H84859   7.644  10.561   6.641 -0.8968 -3.9272  2.5991
  629MOL0     H84860   7.755  10.414   6.741 -1.9447  0.8831 -0.4675
  629MOL0     H84861   7.829  10.338   6.599  2.3879  0.5890  0.0368
  629MOL0     H84862   7.979  10.462   6.791 -1.2822  0.4547  0.4028
  629MOL0     H84863   7.930  10.600   6.730  2.2999 -0.3737  1.0197
  629MOL0     H84864   8.039  10.382   6.550  0.2120 -0.5679 -0.2216
  629MOL0     H84865   8.021  10.557   6.508 -2.6766  1.0012  2.4903
  629MOL0     H84866   8.218  10.701   6.508  3.2820  0.8439 -0.9026
  629MOL0     H84867   8.554  10.696   6.538 -1.5512 -0.7581 -0.8720
  629MOL0     H84868   8.447  10.825   6.600  2.2226  1.0166  0.1359
  629MOL0     H84869   8.623  10.832   6.722 -1.1525 -0.0640  0.9343
  629MOL0     H84870   8.510  10.734   6.828 -0.1900 -1.4100 -0.5268
  629MOL0     H84871   8.637  10.527   6.701 -2.1142  0.2461  1.0003
  629MOL0     H84872   8.685  10.589   6.851 -1.7946  0.7361  0.1404
  629MOL0     H84873   8.797  10.686   6.582 -0.6683  0.2866 -0.2429
  629MOL0     H84874   8.849  10.547   6.686 -1.0918  0.1875  0.4617
  629MOL0     H84875   9.022  10.603   6.563 -2.6826  2.4231 -2.8861
  629MOL0     H84876   9.244  10.649   6.477  0.3395  1.1692 -0.6991
  629MOL0     H84877   9.609  10.583   6.406  0.7198  0.8397 -1.3893
  629MOL0     H84878   9.851  10.555   6.398 -1.8446 -0.7027  1.3586
  629MOL0     H84879  10.011  10.659   6.251 -0.5798 -1.1669  3.5331
  629MOL0     H84880  10.071  10.836   6.246  1.2568  1.3162  1.3868
  629MOL0     H84881  10.217  10.588   6.362  0.8433  0.8873  1.5525
  629MOL0     H84882  10.219  10.645   6.190 -1.6844  0.0919  0.5246
  629MOL0     H84883  10.296  10.814   6.432 -3.3547 -0.6031 -0.1257
  629MOL0     H84884  10.421  10.725   6.337  1.5494  0.8230 -0.8005
  629MOL0     H84885  10.260  10.946   6.239 -1.0828 -2.6813 -0.8664
  629MOL0     H84886  10.320  10.840   6.132 -5.1095 -0.7117  0.9670
  629MOL0     H84887  10.483  11.023   6.141  2.8691 -2.3083 -0.7280
  629MOL0     H84888  10.557  10.889   6.224 -1.1888 -2.3507  1.2701
  629MOL0     H84889  10.436  11.145   6.349  0.6844  0.4193 -0.8498
  629MOL0     H84890  10.470  11.003   6.446  1.0788 -4.0028 -0.6512
  629MOL0     H84891  10.661  11.174   6.458 -0.3262  1.4975 -0.8951
  629MOL0     H84892  10.703  11.126   6.293  1.3576 -0.5754  0.7047
  629MOL0     H84893  10.672  10.925   6.535  3.3473 -0.2925  1.4035
  629MOL0     H84894  10.706  10.891   6.366 -2.1800  1.9030 -1.2157
  629MOL0     H84895   9.897  10.968   6.521 -1.7057  1.4905 -0.6313
  629MOL0     H84896   9.651  10.989   6.539 -0.2740 -0.7406  0.7030
  629MOL0     H84897   9.273  10.959   6.780 -1.7289  2.5275 -0.8302
  629MOL0     H84898   9.062  10.896   6.863  0.4215 -0.8756  0.5635
  629MOL0     H84899   7.138  10.756   6.409  2.8355 -2.0892 -0.4970
  629MOL0     H84900   6.901  10.801   6.457  0.8936  0.1579  0.5240
  629MOL0     H84901   6.509  10.775   6.572 -0.6228  0.4345 -0.6096
  629MOL0     H84902   6.297  10.826   6.594 -0.4284 -0.2509  0.4263
  629MOL0     H84903   6.120  10.870   6.450  0.5563 -2.3440 -1.8769
  629MOL0     H84904   6.020  10.835   6.598 -2.1048 -1.4305  0.6536
  629MOL0     H84905   5.857  10.722   6.422  0.6193 -1.4367 -0.6698
  629MOL0     H84906   5.950  10.803   6.301 -3.0829  0.0913 -0.6019
  629MOL0     H84907   5.937  11.018   6.374 -0.4280  0.1790 -1.9792
  629MOL0     H84908   5.822  10.971   6.505 -1.8375 -1.7007 -1.4891
  629MOL0     H84909   5.700  11.057   6.310 -0.4485 -0.0853  0.7186
  629MOL0     H84910   5.783  10.937   6.207  1.2036 -0.4487  1.7842
  629MOL0     H84911   5.466  10.703   6.359 -1.0682  1.0297  1.2503
  629MOL0     H84912   6.169  10.473   6.394 -0.1560  0.4538 -0.7925
  629MOL0     H84913   6.368  10.292   6.399 -1.5133  1.7444  1.6843
  629MOL0     H84914   6.350  10.394   6.251  0.5349  2.4931 -0.0894
  629MOL0     H84915   6.512  10.357   6.313  0.5319  1.2718  0.9664
  630MOL0     O84916   9.369   3.815   5.534 -0.1167  0.2287  0.4676
  630MOL0     C84917   9.286   3.881   5.597  0.2212 -0.9914  0.4513
  630MOL0     O84918   9.304   3.927   5.733  0.0844  0.2305 -0.2257
  630MOL0     C84919   9.405   3.878   5.813  1.0296  0.7153  0.6516
  630MOL0     C84920   9.366   3.838   5.942 -0.2329  0.1282 -0.5334
  630MOL0     C84921   9.471   3.812   6.027  0.0264 -0.1582  0.2056
  630MOL0     C84922   9.609   3.817   6.002  0.2660 -0.5310  0.3235
  630MOL0     O84923   9.686   3.798   6.109 -0.4973  0.2113 -0.5608
  630MOL0     C84924   9.829   3.830   6.117  0.2817  0.4424 -0.4969
  630MOL0     C84925   9.882   3.814   6.256  0.0959  1.0228  0.4768
  630MOL0     C84926  10.007   3.897   6.276 -0.3977 -0.2397  0.3716
  630MOL0     C84927  10.042   3.921   6.422 -0.6098 -0.4319 -0.0805
  630MOL0     C84928  10.178   3.989   6.417  0.4468 -0.0250 -0.1928
  630MOL0     C84929  10.207   4.026   6.567  0.6536  0.4544  0.8367
  630MOL0     C84930  10.316   4.131   6.578  0.6687  0.0704  0.0156
  630MOL0     C84931  10.351   4.143   6.730 -0.4212 -0.8224  0.2222
  630MOL0     N84932  10.454   4.246   6.748  0.8197  0.0074  0.5321
  630MOL0     C84933  10.588   4.227   6.784  0.4161  0.0006  1.0050
  630MOL0     C84934  10.649   4.342   6.753 -0.7008  0.2470 -1.6783
  630MOL0     C84935  10.798   4.366   6.764  0.2939 -0.2833  0.0978
  630MOL0     C84936  10.828   4.429   6.911 -0.6173  0.2262 -0.1451
  630MOL0     C84937  10.973   4.473   6.918  0.2905 -0.4813 -0.5647
  630MOL0     C84938  11.007   4.514   7.057  1.4127 -0.5436 -0.5192
  630MOL0     O84939  11.133   4.580   7.052  0.4908  0.5988 -0.0258
  630MOL0     C84940  11.232   4.541   7.137 -0.5343 -0.3665  0.0237
  630MOL0     C84941  11.224   4.459   7.249 -0.6360 -0.1686  0.0799
  630MOL0     C84942  11.334   4.437   7.327  0.2373 -0.2724  0.8077
  630MOL0     C84943  11.456   4.506   7.312 -0.6422  0.0897 -0.7446
  630MOL0     C84944  11.581   4.479   7.393 -0.0191 -0.4615  0.8715
  630MOL0     O84945  11.697   4.553   7.366 -0.4040 -0.3769  0.6619
  630MOL0     C84946  11.813   4.557   7.440  1.6778  0.2462  0.5213
  630MOL0     C84947  11.936   4.581   7.365 -0.8370 -0.2394 -0.6965
  630MOL0     C84948  12.056   4.596   7.439 -0.0031  0.1865 -0.2636
  630MOL0     C84949  12.053   4.590   7.578 -0.1124  0.4130 -0.5831
  630MOL0     O84950  12.168   4.625   7.631 -0.6713  0.3631 -0.3463
  630MOL0     C84951  12.192   4.608   7.774 -0.8474 -0.3371 -0.7179
  630MOL0     C84952  12.338   4.623   7.807 -0.1340  0.2381 -0.6959
  630MOL0     C84953  12.390   4.762   7.784  0.2813 -0.7699 -0.0367
  630MOL0     C84954  12.534   4.759   7.820  0.2981 -0.1876  0.5864
  630MOL0     C84955  12.589   4.905   7.818  0.1342 -0.6723 -0.0293
  630MOL0     C84956  12.699   4.916   7.926 -0.5402  0.1778  0.3733
  630MOL0     C84957  12.778   5.038   7.911  0.2300 -0.0614 -0.1691
  630MOL0     C84958  12.869   5.060   7.793 -0.0876  0.1445 -0.1642
  630MOL0    Cl84959  12.996   5.176   7.826 -0.2622 -0.0941  0.1573
  630MOL0     C84960  11.937   4.563   7.653 -0.0309  0.1682  0.0170
  630MOL0     C84961  11.808   4.548   7.582 -0.4317  0.2002  0.3238
  630MOL0     O84962  11.564   4.398   7.481 -0.2483  0.3803  0.0511
  630MOL0     C84963  11.458   4.604   7.215  0.2269  0.8809 -0.1597
  630MOL0     C84964  11.347   4.623   7.127 -0.2003 -0.2503 -0.2007
  630MOL0     N84965  10.550   4.430   6.705 -0.2989  0.1272  0.8521
  630MOL0     N84966  10.438   4.374   6.714  0.2761 -0.8650 -0.0641
  630MOL0     C84967   9.644   3.846   5.871  0.1592  0.0804  0.7430
  630MOL0     C84968   9.541   3.882   5.778  0.2460  0.2071  0.0760
  630MOL0     C84969   9.163   3.930   5.517  0.4731  0.0402 -0.0193
  630MOL0     C84970   9.093   4.042   5.574  0.2492 -0.1886 -0.2841
  630MOL0     C84971   8.984   4.091   5.510  0.2968 -0.2714  0.2020
  630MOL0     C84972   8.936   4.031   5.400 -0.5003 -0.3639  0.3034
  630MOL0     O84973   8.833   4.078   5.330  0.2186 -0.1201  0.4569
  630MOL0     C84974   8.720   4.142   5.395 -0.5192  0.4335 -0.8116
  630MOL0     C84975   8.602   4.096   5.312  0.2440  0.0532 -0.1256
  630MOL0     C84976   8.570   4.196   5.199 -0.3648 -0.1221  0.3778
  630MOL0     C84977   8.461   4.143   5.101 -0.0151 -0.0418 -0.1185
  630MOL0     C84978   8.334   4.128   5.181  0.1481  0.4980  0.3753
  630MOL0     C84979   8.237   4.117   5.260 -1.4613 -0.1739  0.3004
  630MOL0     C84980   8.992   3.916   5.344 -0.2501 -0.3058 -0.0527
  630MOL0     C84981   9.107   3.863   5.405  0.1882 -0.1246 -0.3333
  630MOL0     C84982   9.163   3.730   5.352  0.3467 -0.8845 -0.0391
  630MOL0     H84983   9.260   3.842   5.966 -0.1595  2.5396 -0.3036
  630MOL0     H84984   9.437   3.787   6.127 -0.7624  0.8838  0.2145
  630MOL0     H84985   9.888   3.767   6.050 -1.1603 -3.0800  1.2852
  630MOL0     H84986   9.848   3.932   6.084 -2.3669  1.0205 -0.4348
  630MOL0     H84987   9.910   3.711   6.279 -0.1465 -0.0564 -3.3405
  630MOL0     H84988   9.802   3.852   6.320  0.7231  0.0052  1.9114
  630MOL0     H84989   9.994   3.995   6.228 -0.2886  0.6797  2.1210
  630MOL0     H84990  10.094   3.844   6.236  1.9087 -0.2925  4.7858
  630MOL0     H84991   9.961   3.988   6.453 -3.2145 -2.8719 -1.1072
  630MOL0     H84992  10.046   3.834   6.488  3.4721  0.0825  0.5836
  630MOL0     H84993  10.258   3.918   6.392 -0.0564 -1.9920  3.1937
  630MOL0     H84994  10.184   4.075   6.350 -0.0877  0.3888  0.2755
  630MOL0     H84995  10.114   4.067   6.609 -0.0655 -1.5424  1.2958
  630MOL0     H84996  10.249   3.940   6.620  1.2188 -0.6112 -1.2668
  630MOL0     H84997  10.282   4.224   6.531 -0.1847 -1.2313 -2.1088
  630MOL0     H84998  10.406   4.104   6.522  1.1302  3.2350 -1.0008
  630MOL0     H84999  10.262   4.176   6.784  0.1069  1.6122 -0.2337
  630MOL0     H85000  10.385   4.047   6.769  0.8540 -0.1052  0.9577
  630MOL0     H85001  10.641   4.136   6.812  0.2633 -0.3420  0.2157
  630MOL0     H85002  10.848   4.270   6.754 -1.1109 -1.0868  0.4284
  630MOL0     H85003  10.826   4.430   6.680 -3.6513  0.3007 -0.9628
  630MOL0     H85004  10.770   4.521   6.925  0.2791  0.7738  0.0274
  630MOL0     H85005  10.790   4.362   6.988 -3.6050  1.2681 -0.5911
  630MOL0     H85006  10.977   4.558   6.848 -1.8036 -0.6764 -0.9859
  630MOL0     H85007  11.039   4.390   6.893 -0.8279 -0.8016 -2.7723
  630MOL0     H85008  11.000   4.427   7.122 -0.3372  1.1775  1.7364
  630MOL0     H85009  10.945   4.592   7.102  2.5545  0.5478 -0.7588
  630MOL0     H85010  11.130   4.407   7.264 -0.4298 -1.1196 -1.5825
  630MOL0     H85011  11.329   4.358   7.401  1.0173 -3.0101 -1.8664
  630MOL0     H85012  11.948   4.600   7.259 -0.0257 -0.5309 -0.6631
  630MOL0     H85013  12.156   4.619   7.401  0.8104 -0.6732  1.2721
  630MOL0     H85014  12.135   4.675   7.839  0.0819 -1.6239  1.5548
  630MOL0     H85015  12.149   4.514   7.809 -1.9463  0.6498  0.7249
  630MOL0     H85016  12.358   4.593   7.911  0.3276 -1.4905 -1.2464
  630MOL0     H85017  12.390   4.543   7.753  1.7358 -0.2786  1.6482
  630MOL0     H85018  12.391   4.781   7.676  3.5206 -4.2679 -0.8572
  630MOL0     H85019  12.332   4.833   7.844  0.1241  0.0420 -1.1189
  630MOL0     H85020  12.590   4.711   7.739  1.3516  3.9404 -1.4010
  630MOL0     H85021  12.556   4.707   7.913  0.6898 -0.1410  0.5226
  630MOL0     H85022  12.511   4.977   7.847  0.1133 -0.0110 -1.6227
  630MOL0     H85023  12.618   4.935   7.717 -0.6989  1.9380  0.4259
  630MOL0     H85024  12.653   4.913   8.026 -1.9484 -0.5166 -0.2737
  630MOL0     H85025  12.765   4.829   7.917  0.3685  0.8262  0.5909
  630MOL0     H85026  12.849   5.048   7.993  0.3865  0.9421 -0.4097
  630MOL0     H85027  12.712   5.125   7.923  0.1784 -0.2742  1.1792
  630MOL0     H85028  12.909   4.963   7.764  0.7188  0.0468  1.1919
  630MOL0     H85029  12.798   5.086   7.713  0.1219 -2.0818 -1.1631
  630MOL0     H85030  11.933   4.562   7.761  2.8223 -0.9658  0.2246
  630MOL0     H85031  11.716   4.529   7.638  0.7041  1.6286  2.8639
  630MOL0     H85032  11.542   4.672   7.204  1.0940 -0.2472 -0.6544
  630MOL0     H85033  11.365   4.697   7.049 -1.9599 -0.3508 -0.7323
  630MOL0     H85034   9.746   3.847   5.834  0.2522 -0.5067  0.9780
  630MOL0     H85035   9.564   3.911   5.676  0.8156  1.0813  0.4422
  630MOL0     H85036   9.141   4.083   5.663  2.4460 -0.8566 -1.0735
  630MOL0     H85037   8.920   4.170   5.548 -0.1470  0.7077 -2.3596
  630MOL0     H85038   8.730   4.251   5.388  0.9765  0.2979 -0.9568
  630MOL0     H85039   8.712   4.117   5.502 -0.1956  1.5057 -0.5235
  630MOL0     H85040   8.513   4.103   5.374 -1.6562  1.7951 -2.8208
  630MOL0     H85041   8.615   3.996   5.268 -0.9816 -0.3215  0.3215
  630MOL0     H85042   8.659   4.207   5.137 -0.1492  1.3623  0.9117
  630MOL0     H85043   8.532   4.293   5.233 -1.2356 -1.0458  2.1960
  630MOL0     H85044   8.442   4.225   5.031  0.9230  0.3592  0.0795
  630MOL0     H85045   8.486   4.050   5.050 -0.5106 -0.5921  0.6380
  630MOL0     H85046   8.156   4.107   5.329 -1.9473  2.2681  0.1420
  630MOL0     H85047   8.954   3.869   5.254 -1.2272  0.2052  0.0801
  630MOL0     H85048   9.149   3.656   5.431 -1.8883  0.8737  1.3845
  630MOL0     H85049   9.118   3.692   5.260  1.0433  1.5089 -1.4559
  630MOL0     H85050   9.268   3.740   5.323  0.4188 -1.8657 -0.1421
  631MOL0     O85051   3.227   9.429   2.432  0.2156  0.8033  0.7756
  631MOL0     C85052   3.133   9.349   2.404  0.7682  0.5276 -0.2975
  631MOL0     O85053   3.081   9.325   2.281  0.4861 -0.3830  0.3176
  631MOL0     C85054   3.143   9.388   2.180  0.1099 -0.6444 -0.2118
  631MOL0     C85055   3.275   9.355   2.152 -0.3461  0.3817  0.4026
  631MOL0     C85056   3.345   9.426   2.048 -0.0880  0.0606 -1.2574
  631MOL0     C85057   3.265   9.525   1.976 -0.5223 -0.0492 -0.1187
  631MOL0     O85058   3.342   9.619   1.899  0.2417  0.1758  0.3275
  631MOL0     C85059   3.477   9.650   1.936 -0.3862 -0.6802  0.0540
  631MOL0     C85060   3.504   9.795   1.889 -0.5937 -0.0319 -0.2372
  631MOL0     C85061   3.642   9.858   1.917 -0.0715  0.1973 -0.6922
  631MOL0     C85062   3.747   9.770   1.844 -0.4127  0.9528  0.5417
  631MOL0     C85063   3.870   9.848   1.796 -0.4468  0.6584 -1.1720
  631MOL0     C85064   3.964   9.882   1.916  0.0560  0.5139  0.2333
  631MOL0     C85065   4.090   9.952   1.872 -0.0481 -0.4527  0.7682
  631MOL0     C85066   4.199   9.980   1.971 -0.2643 -0.2513  0.3168
  631MOL0     N85067   4.330  10.021   1.917  0.6797  0.3683 -0.2070
  631MOL0     C85068   4.442  10.014   1.984 -0.8294 -0.7171 -1.0687
  631MOL0     C85069   4.529  10.076   1.894 -0.2178  0.2843 -0.4872
  631MOL0     C85070   4.675  10.088   1.907  0.7568 -0.5239 -0.5383
  631MOL0     C85071   4.732   9.952   1.859  0.1238 -0.3033 -0.8698
  631MOL0     C85072   4.782   9.961   1.721 -1.0771  0.7535 -0.4945
  631MOL0     C85073   4.852   9.838   1.675 -0.6424 -0.4715  0.5796
  631MOL0     O85074   4.944   9.775   1.768  1.2948 -0.4615  0.2474
  631MOL0     C85075   5.077   9.816   1.777  0.1393 -0.1967  1.0393
  631MOL0     C85076   5.152   9.752   1.872  0.4572  0.2230 -0.3170
  631MOL0     C85077   5.286   9.786   1.897 -0.1073  0.1838  0.2455
  631MOL0     C85078   5.344   9.885   1.820 -0.2115  0.4727  0.6787
  631MOL0     C85079   5.488   9.903   1.819  0.4866 -0.4372  0.3632
  631MOL0     O85080   5.556   9.798   1.858  0.2797 -0.2808 -0.2188
  631MOL0     C85081   5.685   9.797   1.826  0.0647  0.0396  1.2054
  631MOL0     C85082   5.730   9.778   1.694  0.1245  0.6370  0.0263
  631MOL0     C85083   5.868   9.778   1.668  0.5790  0.3430  0.1128
  631MOL0     C85084   5.970   9.797   1.766  0.1863 -0.1469 -0.0361
  631MOL0     O85085   6.101   9.809   1.733  0.3527  0.2421 -0.4810
  631MOL0     C85086   6.136   9.835   1.602  0.0462 -0.7931  1.0322
  631MOL0     C85087   6.276   9.898   1.590 -0.3296 -0.3903  0.1027
  631MOL0     C85088   6.387   9.798   1.604  0.6297  0.3480  0.0200
  631MOL0     C85089   6.524   9.834   1.526 -0.5247 -0.6435  0.7018
  631MOL0     C85090   6.616   9.711   1.524  0.1605 -0.0293 -0.3046
  631MOL0     C85091   6.759   9.743   1.472  0.4156 -0.7173 -0.2810
  631MOL0     C85092   6.842   9.614   1.472 -0.2937 -0.2398 -0.3128
  631MOL0     C85093   6.998   9.642   1.469  0.5471 -0.2492 -0.4977
  631MOL0    Cl85094   7.093   9.503   1.437 -0.2107 -0.4469 -0.3958
  631MOL0     C85095   5.921   9.802   1.901  0.7596 -0.3581 -0.4001
  631MOL0     C85096   5.780   9.801   1.932 -0.9352  0.3925  0.0722
  631MOL0     O85097   5.531   9.993   1.742 -0.8724  0.4162 -0.6467
  631MOL0     C85098   5.266   9.957   1.728  0.3573 -0.0155 -0.5357
  631MOL0     C85099   5.139   9.921   1.691 -0.0813 -0.1647 -0.4010
  631MOL0     N85100   4.463  10.106   1.775  0.6626  1.0818  1.2974
  631MOL0     N85101   4.340  10.080   1.796 -0.0246  0.5457 -0.0122
  631MOL0     C85102   3.130   9.552   2.003  0.1394  0.2598 -0.1765
  631MOL0     C85103   3.070   9.477   2.102 -0.6549  0.6150  0.8910
  631MOL0     C85104   3.061   9.274   2.516 -0.0429 -0.1803  0.5692
  631MOL0     C85105   2.929   9.232   2.489 -0.2434 -0.1818  0.7917
  631MOL0     C85106   2.849   9.170   2.582  0.5710 -0.5685  0.1833
  631MOL0     C85107   2.897   9.140   2.708  0.6890  0.7267  0.1022
  631MOL0     O85108   2.813   9.064   2.792  0.3510  0.2026  0.0410
  631MOL0     C85109   2.808   9.113   2.927  0.0167 -0.6207 -0.1513
  631MOL0     C85110   2.718   9.022   3.015 -0.6087  0.0269  0.5599
  631MOL0     C85111   2.577   9.001   2.951  0.6772  1.1984 -0.3790
  631MOL0     C85112   2.495   9.133   2.928 -0.3015 -0.2303  0.5511
  631MOL0     C85113   2.349   9.115   2.932 -0.1963 -0.0377 -1.1796
  631MOL0     C85114   2.228   9.101   2.940  0.1319 -0.0149 -0.2867
  631MOL0     C85115   3.025   9.183   2.741  0.2132 -0.6276 -0.3274
  631MOL0     C85116   3.104   9.244   2.650  0.2526  0.2646  1.1996
  631MOL0     C85117   3.248   9.279   2.691 -0.2480  0.0131  0.1123
  631MOL0     H85118   3.323   9.270   2.198 -2.2928 -0.8756  0.2140
  631MOL0     H85119   3.448   9.400   2.025  0.1425 -1.3921  1.1009
  631MOL0     H85120   3.483   9.652   2.045 -3.8338 -0.8473  0.3362
  631MOL0     H85121   3.563   9.590   1.904 -0.2093  0.3900 -1.5929
  631MOL0     H85122   3.423   9.859   1.925 -1.5824 -0.2616 -1.9384
  631MOL0     H85123   3.499   9.784   1.780  0.2415 -0.0564 -0.2793
  631MOL0     H85124   3.666   9.872   2.023  1.0094  0.2875 -0.9336
  631MOL0     H85125   3.649   9.955   1.867  2.6007 -0.9616 -2.8433
  631MOL0     H85126   3.775   9.680   1.900 -0.1591  0.0477 -0.9713
  631MOL0     H85127   3.699   9.722   1.758 -0.4437 -1.2216  1.7059
  631MOL0     H85128   3.925   9.789   1.722  0.2340  0.2864 -0.3778
  631MOL0     H85129   3.846   9.951   1.766  1.0556  0.9094 -1.5733
  631MOL0     H85130   3.904   9.943   1.984 -1.0943  1.0109 -1.2033
  631MOL0     H85131   3.996   9.793   1.972 -1.0962 -0.0746 -0.0071
  631MOL0     H85132   4.047  10.047   1.838 -3.3844 -0.4388  4.3532
  631MOL0     H85133   4.135   9.897   1.789  1.7361  1.4178  0.3931
  631MOL0     H85134   4.157  10.042   2.050 -2.8284 -0.6749 -0.6156
  631MOL0     H85135   4.209   9.885   2.025 -0.8441 -1.3217 -1.3718
  631MOL0     H85136   4.456   9.969   2.081 -0.3260  0.3602 -0.6318
  631MOL0     H85137   4.720  10.182   1.873 -3.2526  2.0562  0.5590
  631MOL0     H85138   4.691  10.089   2.015 -3.1098 -3.6337  0.2826
  631MOL0     H85139   4.808   9.916   1.929  0.2684 -1.3670 -1.5545
  631MOL0     H85140   4.645   9.886   1.856 -0.2404  0.2154 -2.9634
  631MOL0     H85141   4.865  10.031   1.727 -0.4167  0.0624 -1.2885
  631MOL0     H85142   4.706   9.997   1.652 -1.4935 -0.1402 -0.5244
  631MOL0     H85143   4.897   9.856   1.577  1.6868 -0.0198  1.6559
  631MOL0     H85144   4.769   9.769   1.659 -1.6223 -0.2924  4.0093
  631MOL0     H85145   5.111   9.679   1.941  0.0527 -0.2665 -1.0593
  631MOL0     H85146   5.346   9.726   1.964  0.5475 -0.4463 -0.8820
  631MOL0     H85147   5.642   9.773   1.630  0.1729 -1.0324  0.0300
  631MOL0     H85148   5.898   9.784   1.564 -3.1544  2.4477 -1.0473
  631MOL0     H85149   6.141   9.744   1.540  0.2358 -0.3737  0.4225
  631MOL0     H85150   6.067   9.912   1.566 -1.4025  0.1826  5.3189
  631MOL0     H85151   6.275   9.942   1.490  1.3025 -0.5616 -0.0103
  631MOL0     H85152   6.290   9.976   1.665 -0.8674 -1.8989  1.8576
  631MOL0     H85153   6.420   9.784   1.707  2.3955  1.9384 -0.2684
  631MOL0     H85154   6.353   9.704   1.561 -0.2626  1.1952 -1.2069
  631MOL0     H85155   6.570   9.911   1.590 -1.6581  1.5607 -1.0181
  631MOL0     H85156   6.502   9.871   1.426  0.6282  1.1768  1.0618
  631MOL0     H85157   6.569   9.633   1.464 -0.4066  0.8474 -1.0371
  631MOL0     H85158   6.623   9.679   1.629 -3.4465  2.2507  0.8038
  631MOL0     H85159   6.755   9.780   1.369  1.2249  0.7025  0.1637
  631MOL0     H85160   6.800   9.827   1.529 -2.4969  0.3019  0.4836
  631MOL0     H85161   6.812   9.543   1.394  0.6329 -1.8731  0.7675
  631MOL0     H85162   6.822   9.566   1.568 -0.0130 -0.6344 -0.4509
  631MOL0     H85163   7.030   9.709   1.388  1.1155  0.8454  0.6106
  631MOL0     H85164   7.008   9.689   1.567 -0.4600  3.1570 -1.8946
  631MOL0     H85165   5.984   9.810   1.989 -1.5511 -1.2966  1.4203
  631MOL0     H85166   5.746   9.802   2.035 -3.1098 -1.1401 -0.5662
  631MOL0     H85167   5.302  10.041   1.670 -1.2825  2.1329  1.3538
  631MOL0     H85168   5.087   9.965   1.606 -1.5604 -1.9071 -0.4439
  631MOL0     H85169   3.077   9.626   1.944 -3.0707 -1.9007 -0.2374
  631MOL0     H85170   2.966   9.505   2.112 -0.4880  1.0065  1.5779
  631MOL0     H85171   2.891   9.238   2.387 -0.3779 -0.2738  0.8367
  631MOL0     H85172   2.748   9.136   2.562 -0.3207  2.4766 -1.1969
  631MOL0     H85173   2.779   9.218   2.928 -0.7892 -0.8407  0.0238
  631MOL0     H85174   2.907   9.113   2.973  0.6737  0.6159 -1.4842
  631MOL0     H85175   2.709   9.088   3.102 -3.2167  0.5960 -0.0331
  631MOL0     H85176   2.766   8.926   3.034 -0.6781 -0.6938 -2.4266
  631MOL0     H85177   2.522   8.934   3.017  1.3486 -0.3711 -1.3558
  631MOL0     H85178   2.591   8.945   2.858  0.6453 -1.0533  0.9110
  631MOL0     H85179   2.522   9.201   3.010  1.0652  0.6936 -0.6193
  631MOL0     H85180   2.537   9.173   2.835  2.8635 -3.1074  0.5879
  631MOL0     H85181   2.121   9.101   2.942  0.1267  0.4944  2.1413
  631MOL0     H85182   3.073   9.179   2.838  1.3277  2.0414 -0.6851
  631MOL0     H85183   3.269   9.239   2.790 -0.8324 -1.5692 -0.3780
  631MOL0     H85184   3.323   9.242   2.621 -0.0049  0.7071 -0.0088
  631MOL0     H85185   3.263   9.388   2.682 -0.8800 -0.0525 -2.9238
  632MOL0     O85186   2.704  10.728   6.373 -0.3031  0.2382  0.5136
  632MOL0     C85187   2.631  10.633   6.358  0.6889  0.2245 -0.0077
  632MOL0     O85188   2.668  10.506   6.357  0.4386  0.5738 -0.3592
  632MOL0     C85189   2.796  10.479   6.310  1.6505  0.0870  0.8395
  632MOL0     C85190   2.821  10.491   6.170  0.0259 -0.3150  1.1417
  632MOL0     C85191   2.950  10.446   6.116 -0.6445 -0.0649 -0.6293
  632MOL0     C85192   3.054  10.384   6.195 -0.4873 -1.1663  0.3276
  632MOL0     O85193   3.176  10.354   6.133  0.1399  0.1550 -0.6952
  632MOL0     C85194   3.270  10.276   6.207 -0.3903  0.0674 -0.3988
  632MOL0     C85195   3.366  10.208   6.110  0.5665 -0.3996 -0.8146
  632MOL0     C85196   3.471  10.117   6.182  0.2221  0.0867  0.1478
  632MOL0     C85197   3.571  10.204   6.257  0.6138  0.1566 -0.3380
  632MOL0     C85198   3.685  10.120   6.323 -0.0660  0.4557  0.6323
  632MOL0     C85199   3.785  10.053   6.219 -0.5962 -0.2895  0.8460
  632MOL0     C85200   3.903   9.987   6.288 -0.4110 -0.2716 -0.1626
  632MOL0     C85201   3.867   9.873   6.374 -0.1120 -0.2859 -0.7914
  632MOL0     N85202   3.989   9.799   6.419  0.8526 -0.1987  0.1758
  632MOL0     C85203   4.040   9.696   6.351  0.1536  0.8667  0.6204
  632MOL0     C85204   4.162   9.674   6.410  0.3362  0.5306  0.6014
  632MOL0     C85205   4.271   9.574   6.383  0.2260  0.5490  0.2333
  632MOL0     C85206   4.281   9.527   6.231  0.0579  0.0168  0.4953
  632MOL0     C85207   4.340   9.395   6.210 -1.1304 -0.1845 -0.3629
  632MOL0     C85208   4.491   9.398   6.209  0.1594 -0.1465 -0.1803
  632MOL0     O85209   4.547   9.268   6.208  0.0520  0.3317 -0.2773
  632MOL0     C85210   4.684   9.253   6.208 -0.3995  1.3710  0.7852
  632MOL0     C85211   4.738   9.125   6.220 -0.0112 -0.3808 -0.3081
  632MOL0     C85212   4.874   9.103   6.210  0.0142 -0.9211  0.1390
  632MOL0     C85213   4.965   9.209   6.206 -0.1862  0.5980  0.0231
  632MOL0     C85214   5.110   9.190   6.213 -1.1227  0.1320  0.0441
  632MOL0     O85215   5.149   9.080   6.286  0.6151  0.5270 -0.8472
  632MOL0     C85216   5.282   9.062   6.303 -0.1253 -0.2000 -0.1928
  632MOL0     C85217   5.361   8.991   6.213 -0.0306  0.4199 -0.1405
  632MOL0     C85218   5.491   8.952   6.236  0.8465 -0.5877  0.4402
  632MOL0     C85219   5.546   8.992   6.355  0.3614  0.4284 -0.0708
  632MOL0     O85220   5.682   8.964   6.385 -0.4339 -0.1296 -0.6437
  632MOL0     C85221   5.731   8.851   6.321  0.5275  0.0303 -0.6231
  632MOL0     C85222   5.872   8.813   6.364  0.5400 -0.4957  0.4716
  632MOL0     C85223   5.902   8.680   6.289  0.8471  0.4544  0.6740
  632MOL0     C85224   6.048   8.663   6.264  0.2075 -0.1564 -0.2497
  632MOL0     C85225   6.127   8.601   6.385  0.4247 -0.3587  0.1661
  632MOL0     C85226   6.276   8.592   6.340  0.2672 -0.2619  0.0045
  632MOL0     C85227   6.370   8.556   6.466  0.0976  0.1786  0.1666
  632MOL0     C85228   6.518   8.542   6.436 -0.6663  0.7683 -0.1554
  632MOL0    Cl85229   6.555   8.400   6.330  0.0326  0.1649 -0.4113
  632MOL0     C85230   5.472   9.064   6.451 -0.3497  0.0411  0.7013
  632MOL0     C85231   5.339   9.087   6.425 -0.2941 -0.5528 -0.9693
  632MOL0     O85232   5.182   9.280   6.179  0.0392 -0.9397  0.0778
  632MOL0     C85233   4.923   9.338   6.208 -0.0373 -0.5401  0.4111
  632MOL0     C85234   4.782   9.355   6.211 -0.4453  0.2719  0.3855
  632MOL0     N85235   4.174   9.767   6.508 -0.7321 -0.5861 -0.8668
  632MOL0     N85236   4.068   9.834   6.518 -0.7654  0.2740  0.9166
  632MOL0     C85237   3.023  10.380   6.332  0.7216  1.2421 -0.4887
  632MOL0     C85238   2.900  10.419   6.383 -0.0605  0.1181 -0.1407
  632MOL0     C85239   2.478  10.660   6.365 -0.4300 -1.1206  0.2597
  632MOL0     C85240   2.389  10.594   6.276  0.2876 -0.1513 -0.2895
  632MOL0     C85241   2.254  10.627   6.258  0.0882 -0.0662  0.0534
  632MOL0     C85242   2.206  10.732   6.337  0.3494  0.4479  0.1777
  632MOL0     O85243   2.074  10.783   6.340  0.2764 -0.9149  0.1062
  632MOL0     C85244   1.981  10.696   6.268 -0.1931  0.1677  0.3777
  632MOL0     C85245   1.838  10.758   6.289  0.0673 -0.3228  0.0247
  632MOL0     C85246   1.840  10.915   6.258 -0.1895 -0.1969 -0.2706
  632MOL0     C85247   1.698  10.974   6.247 -0.2046 -0.6003 -0.1151
  632MOL0     C85248   1.699  11.118   6.216 -0.0341  0.5012 -0.3834
  632MOL0     C85249   1.677  11.229   6.175  0.7419 -0.1552 -0.1157
  632MOL0     C85250   2.285  10.799   6.435 -0.5571 -0.0851  0.1863
  632MOL0     C85251   2.414  10.762   6.443 -0.1522  0.6851 -0.7879
  632MOL0     C85252   2.492  10.839   6.548 -0.8296 -0.1093 -0.0239
  632MOL0     H85253   2.749  10.536   6.102  0.1330  0.5759  1.5903
  632MOL0     H85254   2.978  10.460   6.012  0.3723 -1.0346 -0.5080
  632MOL0     H85255   3.333  10.343   6.266  3.0154 -0.7046 -2.8905
  632MOL0     H85256   3.210  10.203   6.262 -3.1811  0.5532 -2.5662
  632MOL0     H85257   3.415  10.288   6.053 -0.1666  1.0645  0.5073
  632MOL0     H85258   3.305  10.149   6.041  0.6864 -0.8271 -0.5559
  632MOL0     H85259   3.523  10.054   6.109 -1.5567 -0.2268 -0.8945
  632MOL0     H85260   3.424  10.052   6.257 -0.2630 -2.6265 -2.3239
  632MOL0     H85261   3.627  10.278   6.198  1.8230  0.9962  1.7483
  632MOL0     H85262   3.519  10.261   6.334  0.3401 -0.9314  0.2987
  632MOL0     H85263   3.752  10.183   6.382  1.2070 -0.3467  0.0897
  632MOL0     H85264   3.639  10.054   6.397 -0.0310  1.8829  1.9808
  632MOL0     H85265   3.745   9.981   6.147  1.3216  0.0485 -0.6498
  632MOL0     H85266   3.826  10.135   6.159  0.8950 -1.7236 -0.2033
  632MOL0     H85267   3.960  10.045   6.361 -0.2667 -1.2413  0.5217
  632MOL0     H85268   3.974   9.960   6.209 -1.3081 -0.1169 -1.0414
  632MOL0     H85269   3.809   9.908   6.459  1.2780 -0.1809  0.1366
  632MOL0     H85270   3.803   9.799   6.325 -3.4011  0.9519  1.2989
  632MOL0     H85271   4.002   9.644   6.263 -1.0030  2.0648  0.3756
  632MOL0     H85272   4.362   9.628   6.408 -0.1536  2.3681 -2.0262
  632MOL0     H85273   4.254   9.484   6.444 -4.2273  0.5596 -0.6438
  632MOL0     H85274   4.181   9.533   6.188 -0.0570  0.4046  0.8063
  632MOL0     H85275   4.327   9.608   6.173 -0.0262 -0.8164 -0.7485
  632MOL0     H85276   4.304   9.352   6.116  0.0191 -1.6692 -0.1772
  632MOL0     H85277   4.307   9.327   6.289  1.2674 -1.6225 -0.4858
  632MOL0     H85278   4.533   9.446   6.298  3.1287 -0.3880 -1.3264
  632MOL0     H85279   4.519   9.456   6.120 -1.9741  1.7212  0.2675
  632MOL0     H85280   4.668   9.043   6.232  0.1235 -0.2896  1.3726
  632MOL0     H85281   4.908   9.000   6.216  1.3102 -0.5275 -0.0472
  632MOL0     H85282   5.299   8.957   6.130 -1.3639 -2.7045  1.9186
  632MOL0     H85283   5.544   8.899   6.157 -1.5891 -0.6409 -1.2638
  632MOL0     H85284   5.668   8.764   6.343 -1.6520  2.1548  2.2589
  632MOL0     H85285   5.728   8.866   6.213 -0.4046 -0.3935 -0.6687
  632MOL0     H85286   5.926   8.901   6.326 -0.7701 -0.6876 -2.0224
  632MOL0     H85287   5.881   8.813   6.473  0.3185 -2.5211  0.5174
  632MOL0     H85288   5.868   8.593   6.347 -0.4369 -0.9977 -2.0325
  632MOL0     H85289   5.849   8.675   6.194 -2.3884  1.2687  2.2626
  632MOL0     H85290   6.090   8.758   6.231 -1.0771  0.6129  0.2557
  632MOL0     H85291   6.060   8.587   6.187 -0.4721 -0.4344 -0.0901
  632MOL0     H85292   6.087   8.505   6.417  0.4832 -0.1097  1.0042
  632MOL0     H85293   6.116   8.669   6.470 -0.4964 -1.1352  0.6878
  632MOL0     H85294   6.289   8.520   6.259 -2.0185 -0.1757 -0.5194
  632MOL0     H85295   6.302   8.692   6.304  1.2456 -0.5260 -0.0527
  632MOL0     H85296   6.326   8.465   6.506  0.8590  0.6547  2.2540
  632MOL0     H85297   6.350   8.619   6.553 -0.7417  0.6206 -0.3319
  632MOL0     H85298   6.549   8.638   6.394 -0.1661  1.5985  1.9841
  632MOL0     H85299   6.570   8.535   6.532 -0.1453 -2.3696 -0.5657
  632MOL0     H85300   5.514   9.107   6.542  0.0060  3.4585 -0.9089
  632MOL0     H85301   5.276   9.142   6.495 -0.4832 -2.8210  0.7525
  632MOL0     H85302   4.991   9.422   6.203  0.8395 -1.2548 -0.0747
  632MOL0     H85303   4.757   9.460   6.217  0.8918  0.7189 -1.1859
  632MOL0     H85304   3.084  10.320   6.399 -2.4735 -1.5195  0.2700
  632MOL0     H85305   2.892  10.412   6.491  0.5578 -1.3862 -0.1754
  632MOL0     H85306   2.415  10.528   6.194 -0.2046 -0.8512  0.1094
  632MOL0     H85307   2.190  10.593   6.178 -1.7649  1.8094  0.6614
  632MOL0     H85308   1.991  10.594   6.307  3.5197 -0.9150 -2.7046
  632MOL0     H85309   2.006  10.701   6.162  1.8291 -1.6746  0.6909
  632MOL0     H85310   1.822  10.730   6.394  0.9811 -1.6145 -0.1540
  632MOL0     H85311   1.757  10.708   6.236  0.7445 -2.3141  0.7749
  632MOL0     H85312   1.901  10.937   6.170 -0.4897  2.2365  0.0462
  632MOL0     H85313   1.894  10.968   6.337 -1.2203 -0.8302  0.8956
  632MOL0     H85314   1.651  10.921   6.163  2.6686 -0.0653 -2.2430
  632MOL0     H85315   1.647  10.960   6.342 -0.4437  0.0948 -0.1401
  632MOL0     H85316   1.659  11.329   6.143  1.5400 -0.1778 -0.6597
  632MOL0     H85317   2.241  10.864   6.509 -2.0964 -1.4824  0.5686
  632MOL0     H85318   2.431  10.902   6.613 -1.4226  0.0692 -0.7323
  632MOL0     H85319   2.531  10.768   6.622 -0.5092  1.5792  1.4913
  632MOL0     H85320   2.571  10.902   6.509 -0.1489  1.6560  3.7832
  633MOL0     O85321   0.558   3.586   7.620 -0.9657 -0.8253 -0.3096
  633MOL0     C85322   0.538   3.540   7.733 -0.3322 -0.7352  0.1778
  633MOL0     O85323   0.634   3.535   7.834  0.5648  0.8750 -0.2509
  633MOL0     C85324   0.763   3.570   7.831 -0.3786  0.8015 -0.0839
  633MOL0     C85325   0.821   3.643   7.728 -0.5516 -1.0504  1.2612
  633MOL0     C85326   0.959   3.671   7.731 -0.0918 -0.6085 -0.2506
  633MOL0     C85327   1.047   3.622   7.832 -0.2282  0.0407  0.0009
  633MOL0     O85328   1.177   3.661   7.821  1.0492  0.0646  0.8504
  633MOL0     C85329   1.273   3.591   7.905  0.6264 -0.2859 -0.5456
  633MOL0     C85330   1.407   3.626   7.855 -0.1433 -0.1964 -1.0014
  633MOL0     C85331   1.462   3.754   7.914  0.1405  0.2374 -0.1786
  633MOL0     C85332   1.569   3.833   7.832  0.4947 -0.3596  1.1077
  633MOL0     C85333   1.689   3.743   7.812 -0.1681  0.4124  0.2645
  633MOL0     C85334   1.822   3.814   7.781 -0.2580 -0.5649 -0.7051
  633MOL0     C85335   1.933   3.710   7.774 -0.5791 -0.1813  0.1048
  633MOL0     C85336   2.078   3.783   7.758  0.5934  0.6060  0.3013
  633MOL0     N85337   2.187   3.689   7.747 -0.2268  0.1819 -1.0718
  633MOL0     C85338   2.192   3.555   7.790 -0.0838 -0.6028 -0.8493
  633MOL0     C85339   2.321   3.524   7.769  0.2646  0.5083 -0.3971
  633MOL0     C85340   2.387   3.389   7.806 -0.2273 -0.0756 -0.8139
  633MOL0     C85341   2.511   3.357   7.727 -0.7054  0.7176 -0.3014
  633MOL0     C85342   2.616   3.268   7.798  0.1902 -0.5651  0.4685
  633MOL0     C85343   2.730   3.235   7.713 -1.1046 -0.4359 -0.7715
  633MOL0     O85344   2.803   3.129   7.789 -0.3093  0.1361  0.1301
  633MOL0     C85345   2.942   3.129   7.788  0.2497  0.3772 -0.0697
  633MOL0     C85346   3.028   3.095   7.897  0.2599  0.6541  0.3651
  633MOL0     C85347   3.166   3.104   7.888  0.1031 -0.1689 -0.2963
  633MOL0     C85348   3.225   3.115   7.768  0.5406 -0.1456  0.1351
  633MOL0     C85349   3.371   3.104   7.734 -0.8401 -0.6450 -0.9893
  633MOL0     O85350   3.456   3.058   7.833  0.1504  0.0647  0.1315
  633MOL0     C85351   3.588   3.034   7.806  0.2878 -0.2969  2.1269
  633MOL0     C85352   3.693   3.132   7.816  0.2204  0.8161 -0.8727
  633MOL0     C85353   3.829   3.107   7.789  0.8005 -0.3636 -0.4963
  633MOL0     C85354   3.867   2.984   7.740  0.3815 -0.6692 -0.4090
  633MOL0     O85355   3.996   2.955   7.714  0.3301 -0.2380  0.1040
  633MOL0     C85356   4.021   2.878   7.592  0.4961 -0.2206  0.9081
  633MOL0     C85357   4.168   2.898   7.550 -1.2719  0.2827 -0.0347
  633MOL0     C85358   4.254   2.789   7.612  0.4956 -0.0309 -1.0780
  633MOL0     C85359   4.388   2.781   7.540  0.8626  0.1500 -0.3115
  633MOL0     C85360   4.452   2.646   7.582 -0.0853 -0.2515  0.3926
  633MOL0     C85361   4.589   2.629   7.516  0.0907 -0.2946  0.5777
  633MOL0     C85362   4.683   2.522   7.579  0.7875  0.4276 -0.3046
  633MOL0     C85363   4.807   2.481   7.503  0.0553  0.6181 -0.3949
  633MOL0    Cl85364   4.877   2.330   7.579  0.1313 -0.1388  0.1780
  633MOL0     C85365   3.765   2.899   7.705 -0.4984  1.4239  0.1263
  633MOL0     C85366   3.633   2.920   7.746  0.2586 -0.5718  0.2164
  633MOL0     O85367   3.406   3.128   7.623 -0.2845 -0.6413 -0.0881
  633MOL0     C85368   3.144   3.143   7.654 -0.9666  0.8296 -0.4983
  633MOL0     C85369   3.006   3.154   7.667 -0.0485  0.3047 -0.7354
  633MOL0     N85370   2.389   3.632   7.734  0.1558  0.5443  0.1261
  633MOL0     N85371   2.316   3.734   7.734  1.1792  0.3810 -0.8411
  633MOL0     C85372   0.989   3.550   7.946 -0.0747  0.1191 -0.8994
  633MOL0     C85373   0.849   3.518   7.937  0.1027  0.8306 -0.2147
  633MOL0     C85374   0.398   3.498   7.770 -0.1953 -0.1203 -0.0682
  633MOL0     C85375   0.382   3.463   7.908 -0.2830  0.3534  0.5472
  633MOL0     C85376   0.259   3.423   7.956 -0.0648 -0.3578 -0.0605
  633MOL0     C85377   0.144   3.427   7.873 -0.4992  0.0257  0.0432
  633MOL0     O85378   0.016   3.394   7.914 -0.8202 -0.4797 -0.5375
  633MOL0     C85379   0.007   3.311   8.031  0.4709 -0.7195  0.1949
  633MOL0     C85380  -0.119   3.230   8.011 -1.2127 -0.1227 -0.2088
  633MOL0     C85381  -0.080   3.098   7.946 -0.1992 -0.2581  0.6505
  633MOL0     C85382  -0.201   3.010   7.918 -0.2098 -0.5436 -0.6994
  633MOL0     C85383  -0.170   2.883   7.851 -0.5786  0.4276 -0.1781
  633MOL0     C85384  -0.151   2.770   7.796  0.0284 -0.1843  0.6761
  633MOL0     C85385   0.152   3.460   7.744  0.2639  0.4461  0.6768
  633MOL0     C85386   0.281   3.500   7.689  0.4290 -0.4621 -0.8260
  633MOL0     C85387   0.270   3.550   7.544 -0.3021  0.3388 -0.2169
  633MOL0     H85388   0.765   3.696   7.652 -0.5581 -1.0037  1.2984
  633MOL0     H85389   0.996   3.754   7.672 -0.9066  0.8718  1.2528
  633MOL0     H85390   1.255   3.622   8.008 -0.5640  2.9221 -1.6174
  633MOL0     H85391   1.256   3.483   7.895  0.9883 -0.3519 -0.4593
  633MOL0     H85392   1.403   3.629   7.746 -1.7773 -2.0709 -1.0508
  633MOL0     H85393   1.482   3.552   7.888  0.9780  1.1011 -0.5404
  633MOL0     H85394   1.481   3.743   8.021 -0.1987 -1.0030 -0.2287
  633MOL0     H85395   1.384   3.831   7.919  0.8305  0.9165  3.6340
  633MOL0     H85396   1.527   3.869   7.737 -2.1958  0.7235  2.6026
  633MOL0     H85397   1.591   3.928   7.881 -0.2146  0.6599 -0.4623
  633MOL0     H85398   1.706   3.697   7.909  0.4290 -0.6414 -0.3255
  633MOL0     H85399   1.663   3.665   7.739 -1.0742  0.4117  0.5712
  633MOL0     H85400   1.822   3.866   7.685 -1.2236  0.7120 -0.0466
  633MOL0     H85401   1.850   3.890   7.855 -1.7081 -0.1722 -0.5261
  633MOL0     H85402   1.934   3.647   7.684  1.8120 -1.9830  1.2557
  633MOL0     H85403   1.934   3.636   7.855  2.8986  2.4223  2.7328
  633MOL0     H85404   2.077   3.837   7.663 -1.2398 -0.0509 -0.1135
  633MOL0     H85405   2.087   3.856   7.839  0.2888  0.0214  0.8709
  633MOL0     H85406   2.109   3.491   7.821 -0.2380 -0.4686 -0.9789
  633MOL0     H85407   2.406   3.380   7.913  0.3813 -2.6103 -1.0668
  633MOL0     H85408   2.316   3.307   7.791  0.0388 -0.6726  0.9978
  633MOL0     H85409   2.472   3.307   7.638 -1.0839 -0.0656  0.2891
  633MOL0     H85410   2.563   3.449   7.699 -0.2096  0.2581 -0.9178
  633MOL0     H85411   2.558   3.183   7.837 -2.8267 -0.2416 -2.7990
  633MOL0     H85412   2.654   3.324   7.884 -1.3817  0.3752  0.5972
  633MOL0     H85413   2.794   3.323   7.693  1.0408 -1.5081  0.9369
  633MOL0     H85414   2.694   3.204   7.614 -1.5618 -1.7149 -0.2115
  633MOL0     H85415   2.985   3.053   7.988  1.7367  0.1905  0.8695
  633MOL0     H85416   3.230   3.080   7.972  0.5863  0.0989 -0.5882
  633MOL0     H85417   3.665   3.231   7.850 -2.9347  0.3353 -1.7180
  633MOL0     H85418   3.903   3.184   7.802 -0.0669 -0.0725  4.3849
  633MOL0     H85419   4.001   2.775   7.622  1.2537 -0.2770  1.2448
  633MOL0     H85420   3.956   2.901   7.507  1.8675  3.0937  0.5845
  633MOL0     H85421   4.175   2.905   7.441 -0.1162 -1.3135 -0.0980
  633MOL0     H85422   4.207   2.990   7.593  0.0855 -0.1730 -0.2575
  633MOL0     H85423   4.275   2.800   7.718  0.2083 -0.8658 -0.9271
  633MOL0     H85424   4.202   2.693   7.600 -1.3539  0.3625  2.3895
  633MOL0     H85425   4.459   2.864   7.551  0.2387  0.5235  1.1663
  633MOL0     H85426   4.375   2.771   7.432 -2.1272 -0.0713 -0.0084
  633MOL0     H85427   4.395   2.559   7.548  2.6011 -0.8579 -3.1960
  633MOL0     H85428   4.464   2.638   7.690  2.4192  0.2203  0.2096
  633MOL0     H85429   4.563   2.594   7.416 -2.4118 -2.6819  1.9166
  633MOL0     H85430   4.643   2.724   7.509 -2.0125  0.9233  0.1451
  633MOL0     H85431   4.624   2.431   7.592  2.1270 -0.5715 -1.0539
  633MOL0     H85432   4.716   2.561   7.676 -3.1318 -3.5663  3.0422
  633MOL0     H85433   4.778   2.452   7.401 -1.0793 -2.6377  0.7231
  633MOL0     H85434   4.878   2.564   7.500  1.4204 -0.4808 -3.4213
  633MOL0     H85435   3.788   2.803   7.661 -1.0389  1.1557  0.4242
  633MOL0     H85436   3.561   2.841   7.724 -2.6537  2.0672 -0.4282
  633MOL0     H85437   3.177   3.163   7.553  1.1470 -3.3244 -0.8198
  633MOL0     H85438   2.945   3.186   7.583 -3.9162  1.0241  2.0452
  633MOL0     H85439   1.039   3.517   8.037 -2.5052 -0.4730  0.3380
  633MOL0     H85440   0.805   3.460   8.017  0.9122  2.5293  1.5342
  633MOL0     H85441   0.457   3.466   7.985  0.2519  0.3545  0.0319
  633MOL0     H85442   0.249   3.395   8.061  0.3030  0.8658  0.3242
  633MOL0     H85443  -0.006   3.382   8.113 -0.9482  0.8083 -1.2627
  633MOL0     H85444   0.095   3.249   8.053  0.8172 -1.0538 -1.9232
  633MOL0     H85445  -0.194   3.286   7.954 -1.4756 -1.9594 -1.7879
  633MOL0     H85446  -0.140   3.193   8.112 -4.5204 -0.6201 -0.9502
  633MOL0     H85447  -0.014   3.049   8.018  2.1098  1.8051  0.0928
  633MOL0     H85448  -0.022   3.112   7.854 -0.5363 -0.5225  0.3975
  633MOL0     H85449  -0.250   2.992   8.014  2.7222  0.9779  1.2608
  633MOL0     H85450  -0.270   3.066   7.854 -1.4959  0.0440  1.1168
  633MOL0     H85451  -0.137   2.671   7.756  1.4359  0.3162 -0.1703
  633MOL0     H85452   0.058   3.446   7.690 -0.5228  0.7333  1.9309
  633MOL0     H85453   0.369   3.551   7.497  1.0889  2.4333  2.4507
  633MOL0     H85454   0.192   3.493   7.494  0.5019 -1.1916  0.2298
  633MOL0     H85455   0.241   3.655   7.549 -0.0661  0.3688  0.6773
  634MOL0     O85456   9.573   5.351   2.728 -0.3733  0.1737  0.2400
  634MOL0     C85457   9.539   5.267   2.813  0.2156  0.3583 -0.6006
  634MOL0     O85458   9.627   5.182   2.871  0.4033 -0.2341  0.0349
  634MOL0     C85459   9.764   5.176   2.835  0.1996 -0.1106  0.8140
  634MOL0     C85460   9.843   5.291   2.827  0.1229  0.1388 -0.0316
  634MOL0     C85461   9.980   5.280   2.793  0.0554  0.1232 -0.3675
  634MOL0     C85462  10.035   5.158   2.750  0.1677  0.4142  0.0962
  634MOL0     O85463  10.164   5.126   2.718  0.0723  0.0998  0.2586
  634MOL0     C85464  10.249   5.236   2.688 -0.4467  0.0291 -0.2226
  634MOL0     C85465  10.368   5.170   2.631  0.3718 -0.2843 -0.7098
  634MOL0     C85466  10.474   5.278   2.578 -0.5479  0.8398 -0.1696
  634MOL0     C85467  10.585   5.197   2.521 -0.5507 -0.8048 -0.0817
  634MOL0     C85468  10.674   5.308   2.450 -0.5587 -0.1470  0.2381
  634MOL0     C85469  10.772   5.236   2.350  0.6988  0.1614 -0.0687
  634MOL0     C85470  10.864   5.338   2.277 -0.4216  1.0206 -1.1189
  634MOL0     C85471  10.999   5.270   2.229 -0.5708 -0.0417  0.0436
  634MOL0     N85472  11.086   5.355   2.156 -0.1624 -1.1588  0.2606
  634MOL0     C85473  11.111   5.493   2.192 -0.2176 -0.0977  0.4490
  634MOL0     C85474  11.213   5.526   2.108 -0.4432  0.8355 -0.0903
  634MOL0     C85475  11.284   5.654   2.118 -0.7728  0.7367 -0.1500
  634MOL0     C85476  11.387   5.645   2.241 -0.4094 -0.1920 -0.2354
  634MOL0     C85477  11.479   5.769   2.251 -0.0371  0.0340  0.4997
  634MOL0     C85478  11.595   5.758   2.352  0.0293 -0.8634 -0.4345
  634MOL0     O85479  11.709   5.715   2.280 -0.2936 -0.0637 -0.1334
  634MOL0     C85480  11.832   5.762   2.317 -0.3292  0.0356 -0.7783
  634MOL0     C85481  11.935   5.774   2.221  0.4770  0.5276  0.3522
  634MOL0     C85482  12.061   5.819   2.251 -0.1116  0.2513 -0.4473
  634MOL0     C85483  12.094   5.856   2.381 -0.5953 -0.0685 -0.5086
  634MOL0     C85484  12.234   5.882   2.409  0.0868 -0.2070 -0.9619
  634MOL0     O85485  12.329   5.867   2.311  0.1250 -0.1899  0.5339
  634MOL0     C85486  12.453   5.888   2.343 -1.0425  0.2602  0.0840
  634MOL0     C85487  12.537   5.955   2.251 -0.2831  0.2747  0.4401
  634MOL0     C85488  12.669   5.993   2.272 -0.6033  0.7343 -0.5068
  634MOL0     C85489  12.732   5.945   2.390  0.3705 -0.8519  0.4845
  634MOL0     O85490  12.864   5.973   2.403  0.6583 -0.0459  0.1160
  634MOL0     C85491  12.925   5.955   2.537  0.7550  0.3553  0.6507
  634MOL0     C85492  13.069   6.000   2.522 -0.4609  0.0571 -0.4995
  634MOL0     C85493  13.149   5.968   2.649  0.0731  0.6975  0.0214
  634MOL0     C85494  13.286   6.040   2.646 -0.3550  0.3226  0.1731
  634MOL0     C85495  13.341   6.043   2.784  1.2213 -1.0067 -0.7384
  634MOL0     C85496  13.473   6.122   2.799  0.1227 -0.5302  0.4028
  634MOL0     C85497  13.533   6.114   2.945 -0.6387  0.3872 -0.6443
  634MOL0     C85498  13.666   6.180   2.961  0.9890 -0.2727  1.0704
  634MOL0    Cl85499  13.735   6.228   2.808 -0.3162 -0.1113 -0.8171
  634MOL0     C85500  12.653   5.878   2.487  0.2473 -0.3514  0.5411
  634MOL0     C85501  12.515   5.846   2.464  0.0239 -0.6614  0.4741
  634MOL0     O85502  12.254   5.947   2.511  0.4895 -0.4644  0.6414
  634MOL0     C85503  11.992   5.846   2.486  0.3864 -0.2254 -0.0005
  634MOL0     C85504  11.862   5.805   2.448 -0.7145 -1.3114 -0.9465
  634MOL0     N85505  11.246   5.426   2.019  0.5601 -0.3473 -0.6819
  634MOL0     N85506  11.173   5.320   2.051 -0.4798  0.0635  0.1553
  634MOL0     C85507   9.947   5.047   2.754  0.9086  1.2329 -0.1392
  634MOL0     C85508   9.814   5.055   2.797 -0.3539  0.0009  0.4287
  634MOL0     C85509   9.392   5.255   2.843  0.7714  0.0679 -0.2421
  634MOL0     C85510   9.307   5.371   2.824 -0.1303 -0.0732  0.2202
  634MOL0     C85511   9.166   5.372   2.835  0.2068  0.8334 -0.6047
  634MOL0     C85512   9.104   5.255   2.888 -0.4508  0.3319  0.5187
  634MOL0     O85513   8.969   5.274   2.909  0.1784  0.1145  0.2065
  634MOL0     C85514   8.910   5.181   3.002 -0.0760  0.8608 -0.9648
  634MOL0     C85515   8.795   5.239   3.076  0.5005 -0.5671 -0.1397
  634MOL0     C85516   8.690   5.306   2.991 -0.6849  0.2172  1.0140
  634MOL0     C85517   8.567   5.327   3.066  0.6293 -1.0397 -0.4278
  634MOL0     C85518   8.477   5.432   2.997 -0.1522 -0.4851  0.5079
  634MOL0     C85519   8.418   5.509   2.923 -0.0464  0.0562 -0.0551
  634MOL0     C85520   9.183   5.145   2.909  0.5309 -0.1263 -0.8704
  634MOL0     C85521   9.323   5.139   2.880 -0.1987  0.7965 -0.6245
  634MOL0     C85522   9.388   5.007   2.870  0.0588  0.3312  0.9044
  634MOL0     H85523   9.792   5.382   2.858 -0.6568  0.3262 -1.7385
  634MOL0     H85524  10.040   5.370   2.805 -0.4844  0.6830 -1.5632
  634MOL0     H85525  10.204   5.303   2.614 -0.1401  0.6578  0.1470
  634MOL0     H85526  10.277   5.287   2.781  2.5790 -1.2827 -0.3189
  634MOL0     H85527  10.347   5.098   2.551 -0.3600 -2.4583  1.3330
  634MOL0     H85528  10.412   5.108   2.709 -2.0180 -1.4181 -0.1843
  634MOL0     H85529  10.516   5.326   2.667  0.6695 -1.0624  0.3435
  634MOL0     H85530  10.421   5.335   2.502 -0.7832 -0.3478 -0.9253
  634MOL0     H85531  10.630   5.128   2.593  0.7705 -0.0651 -0.1730
  634MOL0     H85532  10.544   5.125   2.450  0.2578 -4.5959  2.9464
  634MOL0     H85533  10.617   5.378   2.388  1.2839  0.0424 -1.3647
  634MOL0     H85534  10.729   5.367   2.524  2.1520 -2.9408  0.6454
  634MOL0     H85535  10.821   5.158   2.408  0.0615  0.9860  1.6751
  634MOL0     H85536  10.722   5.177   2.273  1.3387 -0.4974  0.0146
  634MOL0     H85537  10.888   5.417   2.349  0.1285  0.3119 -0.5040
  634MOL0     H85538  10.807   5.378   2.192 -0.5276  1.5573 -0.7987
  634MOL0     H85539  11.062   5.243   2.314  1.5503  2.4588 -0.6076
  634MOL0     H85540  10.972   5.183   2.168 -0.9824 -0.9153  1.4201
  634MOL0     H85541  11.060   5.560   2.260  1.5795  0.4312  1.3250
  634MOL0     H85542  11.336   5.684   2.027 -2.0587 -0.9903 -1.5277
  634MOL0     H85543  11.207   5.726   2.146 -0.0549  0.0316  4.4332
  634MOL0     H85544  11.334   5.618   2.333 -0.7144  1.1228 -0.0117
  634MOL0     H85545  11.452   5.557   2.232  1.3714  1.1192 -0.8258
  634MOL0     H85546  11.425   5.862   2.271  2.4282  1.8179 -0.6201
  634MOL0     H85547  11.513   5.784   2.148 -3.0118 -1.3582 -0.8301
  634MOL0     H85548  11.580   5.681   2.428  1.4722 -0.3589  0.3986
  634MOL0     H85549  11.621   5.855   2.395 -0.0663 -1.5242  1.1637
  634MOL0     H85550  11.927   5.740   2.118 -0.6687  1.3198  0.1719
  634MOL0     H85551  12.130   5.835   2.169 -1.0195 -0.4364 -1.3597
  634MOL0     H85552  12.498   5.979   2.153  1.0202 -0.0602 -0.1944
  634MOL0     H85553  12.722   6.067   2.214  1.4174 -0.1911  0.0697
  634MOL0     H85554  12.871   6.026   2.601  2.5207  2.1002  0.2946
  634MOL0     H85555  12.920   5.857   2.585  2.5427 -0.6494 -1.0956
  634MOL0     H85556  13.119   5.949   2.439 -0.1640  1.6565 -1.3503
  634MOL0     H85557  13.073   6.107   2.500 -1.9167  0.1961 -0.1725
  634MOL0     H85558  13.093   5.987   2.741  1.3332 -1.9196  1.4473
  634MOL0     H85559  13.177   5.863   2.656 -3.0048 -0.2634 -0.7924
  634MOL0     H85560  13.275   6.139   2.599 -1.9323 -0.9806 -2.4710
  634MOL0     H85561  13.354   5.975   2.589  0.0950  1.3475 -0.4972
  634MOL0     H85562  13.355   5.941   2.820 -1.7652 -1.6521 -1.1219
  634MOL0     H85563  13.266   6.085   2.852  0.6473  0.5114 -2.2544
  634MOL0     H85564  13.541   6.078   2.725 -0.7539  0.3531 -0.9661
  634MOL0     H85565  13.459   6.228   2.776  3.9922  0.0427 -0.0646
  634MOL0     H85566  13.546   6.006   2.961 -3.0479  0.2370  0.8216
  634MOL0     H85567  13.454   6.140   3.016 -0.2222 -0.5992  0.2131
  634MOL0     H85568  13.650   6.268   3.025  0.5043  1.2791 -1.0635
  634MOL0     H85569  13.736   6.124   3.023 -0.0981  0.7263  3.3545
  634MOL0     H85570  12.693   5.844   2.582 -1.2181  0.0612  1.3550
  634MOL0     H85571  12.463   5.798   2.546  1.3829  0.6570  2.1775
  634MOL0     H85572  12.013   5.874   2.588 -3.1026 -0.3033  0.8647
  634MOL0     H85573  11.782   5.808   2.521  0.8865  1.8802  0.8887
  634MOL0     H85574   9.990   4.953   2.721 -0.0103  1.2133 -1.3233
  634MOL0     H85575   9.754   4.966   2.785 -1.8209  1.1929 -1.8559
  634MOL0     H85576   9.338   5.465   2.778  0.0764 -0.7541 -1.0920
  634MOL0     H85577   9.110   5.461   2.809 -1.1527  0.8055  1.9284
  634MOL0     H85578   8.982   5.145   3.075  3.1020  0.1084 -4.1847
  634MOL0     H85579   8.871   5.097   2.943  0.5537 -0.9192  1.0557
  634MOL0     H85580   8.842   5.313   3.142 -0.5888 -1.1221  1.3007
  634MOL0     H85581   8.750   5.153   3.127  1.7736 -0.7897  0.6496
  634MOL0     H85582   8.679   5.235   2.908  2.0138  1.5127 -0.6019
  634MOL0     H85583   8.726   5.405   2.961  1.1820 -0.8639 -0.5143
  634MOL0     H85584   8.500   5.242   3.082 -1.4707  0.4495 -0.7785
  634MOL0     H85585   8.594   5.368   3.164 -0.4631  0.0514 -0.5426
  634MOL0     H85586   8.357   5.577   2.867 -1.4098 -1.1133 -0.0504
  634MOL0     H85587   9.135   5.059   2.954 -1.5371  2.0314  1.3237
  634MOL0     H85588   9.424   4.995   2.768  0.8766 -3.1726  1.4661
  634MOL0     H85589   9.474   4.998   2.937  1.1722 -2.5290 -0.7426
  634MOL0     H85590   9.326   4.918   2.883  0.5496 -0.6921 -2.8469
  635MOL0     O85591   9.257   9.385   3.506  0.4719  0.4146 -0.3504
  635MOL0     C85592   9.197   9.493   3.499 -0.0796  0.0530 -0.2464
  635MOL0     O85593   9.232   9.609   3.564  0.0823  0.4701  0.7070
  635MOL0     C85594   9.354   9.648   3.615  0.0422  0.2470 -0.3125
  635MOL0     C85595   9.369   9.771   3.667 -0.7230  0.0336  0.8798
  635MOL0     C85596   9.481   9.816   3.732 -0.1241  0.5290 -0.3210
  635MOL0     C85597   9.603   9.747   3.735  0.5200 -0.3003 -0.7565
  635MOL0     O85598   9.709   9.782   3.811 -0.1902  0.1030 -0.1041
  635MOL0     C85599   9.688   9.866   3.931 -0.5376 -1.1028  0.0422
  635MOL0     C85600   9.819   9.890   4.012  0.0332  0.6895  0.2170
  635MOL0     C85601   9.879   9.756   4.047 -0.2010  0.2491  0.8147
  635MOL0     C85602   9.995   9.775   4.147  0.6635 -1.2997 -0.8572
  635MOL0     C85603  10.041   9.641   4.213  1.2373  1.0524 -0.6399
  635MOL0     C85604  10.174   9.654   4.282  0.5344 -0.0141 -1.2044
  635MOL0     C85605  10.233   9.509   4.313 -0.7835  0.9968  0.2044
  635MOL0     C85606  10.354   9.514   4.407 -0.8063 -0.0544  0.1457
  635MOL0     N85607  10.471   9.569   4.339 -0.5340  0.3052  0.3756
  635MOL0     C85608  10.520   9.515   4.221 -0.0931 -0.5086 -0.4256
  635MOL0     C85609  10.590   9.625   4.166  0.6185  0.5661 -0.0080
  635MOL0     C85610  10.642   9.629   4.024 -0.3327 -0.9494 -0.5710
  635MOL0     C85611  10.532   9.630   3.909 -0.6054  0.4017 -0.1367
  635MOL0     C85612  10.415   9.731   3.924 -0.3367  0.0825 -0.7791
  635MOL0     C85613  10.297   9.690   3.848  0.0237  0.9212  0.8537
  635MOL0     O85614  10.337   9.700   3.713  0.3768  0.4033 -0.1280
  635MOL0     C85615  10.226   9.716   3.638  0.1097  0.0005  0.3966
  635MOL0     C85616  10.261   9.751   3.503  0.4611 -0.4894  0.8573
  635MOL0     C85617  10.164   9.761   3.401  0.2593  0.3223  0.2510
  635MOL0     C85618  10.025   9.744   3.437 -0.5798  0.1734 -0.0549
  635MOL0     C85619   9.926   9.761   3.338 -0.1786  0.3514 -0.6065
  635MOL0     O85620   9.796   9.775   3.384  0.0683  0.4437 -0.4430
  635MOL0     C85621   9.678   9.771   3.308  0.3857  0.1255 -0.0364
  635MOL0     C85622   9.562   9.822   3.365  0.0233  0.2878  0.4013
  635MOL0     C85623   9.446   9.832   3.281  1.0744 -1.1277 -0.8180
  635MOL0     C85624   9.446   9.785   3.150  0.0466  0.7029 -0.8421
  635MOL0     O85625   9.326   9.797   3.083 -0.3505 -0.2061  0.4666
  635MOL0     C85626   9.318   9.719   2.963 -0.6767  0.0165  0.2450
  635MOL0     C85627   9.180   9.718   2.903  0.8336 -0.1985  0.4380
  635MOL0     C85628   9.145   9.861   2.852 -0.0426 -0.0226 -0.5239
  635MOL0     C85629   8.994   9.872   2.823  1.2411  0.7100  0.1342
  635MOL0     C85630   8.937  10.012   2.807  0.0947  0.0363  0.7485
  635MOL0     C85631   8.784  10.011   2.822  0.7256 -0.0983  0.6105
  635MOL0     C85632   8.721  10.130   2.759  0.0199 -0.9205 -0.3641
  635MOL0     C85633   8.669  10.242   2.852 -0.4995 -0.0380 -0.1641
  635MOL0    Cl85634   8.542  10.330   2.761  0.0416  0.0952  0.7908
  635MOL0     C85635   9.561   9.736   3.097  0.4310 -0.1909 -0.3842
  635MOL0     C85636   9.675   9.717   3.177  1.8425  0.1174  0.4252
  635MOL0     O85637   9.960   9.762   3.221 -0.9008  0.1122  0.6729
  635MOL0     C85638   9.994   9.692   3.561 -0.1393 -0.8141 -0.2995
  635MOL0     C85639  10.094   9.686   3.661 -0.1641 -0.1386  1.1544
  635MOL0     N85640  10.583   9.731   4.247  0.5047 -0.5309  0.8420
  635MOL0     N85641  10.492   9.704   4.338 -0.1274  0.9715  0.2435
  635MOL0     C85642   9.598   9.621   3.666 -0.3441 -0.0097  0.2697
  635MOL0     C85643   9.475   9.569   3.625 -0.0391  0.5475 -1.0319
  635MOL0     C85644   9.070   9.480   3.423 -0.3016  0.4377 -0.5081
  635MOL0     C85645   9.009   9.352   3.424  0.1465  0.9593  0.0462
  635MOL0     C85646   8.879   9.327   3.380 -0.7426  0.2639 -0.1480
  635MOL0     C85647   8.802   9.435   3.331  0.2283 -1.1540 -0.7090
  635MOL0     O85648   8.673   9.423   3.279 -0.5274  0.3506 -0.0063
  635MOL0     C85649   8.601   9.309   3.321 -0.3196 -0.9221  0.3386
  635MOL0     C85650   8.455   9.320   3.271  0.2283 -0.3778  0.6752
  635MOL0     C85651   8.451   9.335   3.121 -0.0203 -0.1286 -0.3716
  635MOL0     C85652   8.305   9.361   3.058 -0.7661 -0.5525  0.2685
  635MOL0     C85653   8.307   9.385   2.911  0.3838  0.1213  0.1712
  635MOL0     C85654   8.319   9.414   2.796 -0.5895 -0.7853 -0.5112
  635MOL0     C85655   8.859   9.563   3.320  0.2471  0.7289 -0.1971
  635MOL0     C85656   8.993   9.585   3.364  0.0674 -0.1054 -1.7155
  635MOL0     C85657   9.049   9.732   3.345 -0.0925  0.3426 -0.8293
  635MOL0     H85658   9.285   9.840   3.659 -1.6524 -1.0300  1.2237
  635MOL0     H85659   9.454   9.910   3.779 -2.1028  0.6700 -1.6157
  635MOL0     H85660   9.661   9.971   3.921  1.6414 -0.3718  1.1788
  635MOL0     H85661   9.620   9.817   4.002 -2.6728  3.7385  1.7594
  635MOL0     H85662   9.788   9.941   4.104 -1.9315 -0.3699  0.1916
  635MOL0     H85663   9.887   9.958   3.959  1.0521 -0.4529  0.0010
  635MOL0     H85664   9.912   9.704   3.957 -1.2697 -1.6351  1.4525
  635MOL0     H85665   9.809   9.697   4.108 -2.1189  0.1181 -1.3608
  635MOL0     H85666  10.083   9.822   4.101 -0.5685  2.1923  0.0574
  635MOL0     H85667   9.971   9.849   4.224  1.8273 -0.6249 -1.1198
  635MOL0     H85668   9.971   9.602   4.288  0.2944 -0.9636 -2.4534
  635MOL0     H85669  10.046   9.571   4.129 -2.6559 -1.2125  0.7540
  635MOL0     H85670  10.250   9.719   4.237  0.0541  2.9103  1.8032
  635MOL0     H85671  10.139   9.704   4.373 -0.3192 -1.7104 -0.5508
  635MOL0     H85672  10.265   9.476   4.213 -0.9387 -0.6271  0.6739
  635MOL0     H85673  10.170   9.432   4.358  1.9159 -1.0584  0.7072
  635MOL0     H85674  10.332   9.566   4.500 -0.8752 -0.8802  0.5921
  635MOL0     H85675  10.384   9.418   4.448 -0.8382 -0.1325 -0.0132
  635MOL0     H85676  10.506   9.413   4.187 -2.4400 -1.9675  4.0587
  635MOL0     H85677  10.711   9.713   4.019 -2.4106  0.8352 -0.8494
  635MOL0     H85678  10.700   9.539   4.003 -1.2492 -1.3771 -1.3830
  635MOL0     H85679  10.580   9.636   3.811  2.1568  0.2863  1.1317
  635MOL0     H85680  10.494   9.528   3.908  1.6192 -0.4684 -0.5083
  635MOL0     H85681  10.447   9.831   3.894 -1.8518  0.2758 -1.8635
  635MOL0     H85682  10.396   9.718   4.031 -1.0559  0.2953 -0.8780
  635MOL0     H85683  10.219   9.760   3.879 -0.0145  0.8298  0.9646
  635MOL0     H85684  10.259   9.592   3.877 -0.9787  0.3460 -2.0290
  635MOL0     H85685  10.362   9.770   3.467  0.0821  0.8196  0.4319
  635MOL0     H85686  10.200   9.785   3.301  0.2307 -3.5713 -0.8865
  635MOL0     H85687   9.572   9.859   3.466  1.3503 -1.2680  0.8956
  635MOL0     H85688   9.361   9.886   3.323  0.4132  1.1705 -4.6313
  635MOL0     H85689   9.385   9.757   2.885 -1.9667  3.6036  0.6756
  635MOL0     H85690   9.349   9.617   2.986  0.1573  0.1470 -0.2536
  635MOL0     H85691   9.188   9.640   2.827  2.2775 -1.0283  1.4016
  635MOL0     H85692   9.106   9.679   2.974 -0.2279 -1.6479 -1.3583
  635MOL0     H85693   9.181   9.936   2.924  0.9915  0.0797 -1.1328
  635MOL0     H85694   9.202   9.874   2.760 -1.1768 -0.9887 -1.3782
  635MOL0     H85695   8.934   9.840   2.908 -0.7534  0.3568 -1.3232
  635MOL0     H85696   8.961   9.811   2.738 -1.6125  0.8349  1.0538
  635MOL0     H85697   8.966  10.058   2.712 -1.7019  0.6799  0.4744
  635MOL0     H85698   8.973  10.082   2.883 -1.3354 -0.0146  1.4961
  635MOL0     H85699   8.746   9.919   2.778  1.2984 -0.6250  1.1879
  635MOL0     H85700   8.763   9.998   2.929  1.3281 -0.7259  0.6641
  635MOL0     H85701   8.629  10.088   2.717  0.2222 -1.5102 -0.2242
  635MOL0     H85702   8.787  10.175   2.684 -0.3010 -1.8452 -1.2169
  635MOL0     H85703   8.630  10.194   2.942 -0.0759  2.3003  1.3451
  635MOL0     H85704   8.750  10.305   2.889  1.8872 -2.1556 -1.4450
  635MOL0     H85705   9.558   9.699   2.995 -0.7753 -0.2905 -0.3254
  635MOL0     H85706   9.758   9.661   3.135 -0.1399 -2.4373 -0.3383
  635MOL0     H85707   9.893   9.669   3.591 -0.0736  1.3630  1.9594
  635MOL0     H85708  10.058   9.667   3.761  0.6024 -1.7973  1.1497
  635MOL0     H85709   9.689   9.561   3.665  0.6357  1.4279  0.6444
  635MOL0     H85710   9.486   9.466   3.591 -0.3872 -0.1303  0.7927
  635MOL0     H85711   9.054   9.256   3.445  0.3237  1.1360  0.4954
  635MOL0     H85712   8.851   9.222   3.374  1.8365 -0.4611 -0.9558
  635MOL0     H85713   8.600   9.308   3.430 -2.3944 -2.3988  0.3735
  635MOL0     H85714   8.648   9.217   3.284  1.4593  1.4643 -4.0753
  635MOL0     H85715   8.408   9.404   3.322  1.3206 -0.5001  1.9312
  635MOL0     H85716   8.411   9.224   3.300  2.1674 -0.6828  2.8746
  635MOL0     H85717   8.493   9.244   3.077 -1.0106  0.0550 -1.7839
  635MOL0     H85718   8.519   9.416   3.093 -1.0743  0.8507 -0.1823
  635MOL0     H85719   8.226   9.288   3.077  1.7235 -3.0823  1.7614
  635MOL0     H85720   8.267   9.454   3.100 -1.1340 -1.0821  1.1377
  635MOL0     H85721   8.329   9.430   2.691  1.2146  4.1059  0.1325
  635MOL0     H85722   8.813   9.650   3.274  0.7865  1.2908  0.3050
  635MOL0     H85723   8.982   9.787   3.279 -1.9156 -0.9323 -0.1433
  635MOL0     H85724   9.051   9.786   3.440 -1.8399  1.6834 -1.4994
  635MOL0     H85725   9.144   9.729   3.292  1.0052  1.5371  0.9498
  636MOL0     O85726   1.375  10.052   1.429 -0.5451 -0.2170  0.2451
  636MOL0     C85727   1.265  10.087   1.394  0.9774  0.2383  0.7393
  636MOL0     O85728   1.211  10.213   1.407  0.1820  0.1805 -0.0932
  636MOL0     C85729   1.298  10.307   1.453 -0.0390 -0.0939 -0.0623
  636MOL0     C85730   1.321  10.328   1.590 -0.1195 -0.0335 -0.4321
  636MOL0     C85731   1.406  10.430   1.634  0.6536  0.0030  0.4817
  636MOL0     C85732   1.466  10.516   1.545 -0.7797 -0.7378  0.7594
  636MOL0     O85733   1.550  10.621   1.582 -0.3972 -0.0031  0.3706
  636MOL0     C85734   1.588  10.653   1.719  0.2845  0.5002 -0.8234
  636MOL0     C85735   1.723  10.736   1.727  0.1073  0.3857  1.0367
  636MOL0     C85736   1.796  10.742   1.598 -0.3339  0.2033 -0.6209
  636MOL0     C85737   1.933  10.789   1.634 -0.5280 -0.5063  0.2621
  636MOL0     C85738   2.016  10.833   1.516 -0.5553 -0.5919 -0.1708
  636MOL0     C85739   2.135  10.908   1.569 -0.6236  0.5073 -0.2507
  636MOL0     C85740   2.243  10.931   1.456  0.5859  0.1211 -0.3614
  636MOL0     C85741   2.275  10.808   1.363  0.8934 -1.0771 -0.6843
  636MOL0     N85742   2.388  10.841   1.283 -0.5255 -0.3143 -0.7515
  636MOL0     C85743   2.396  10.867   1.143 -0.1536 -0.9506 -0.0341
  636MOL0     C85744   2.531  10.895   1.125  0.4010  0.3913  0.5329
  636MOL0     C85745   2.583  10.938   0.991 -0.5175  0.5509  0.5613
  636MOL0     C85746   2.730  10.887   0.967  0.0584 -0.5685  0.8200
  636MOL0     C85747   2.787  10.917   0.831 -0.8310  0.0627  0.4637
  636MOL0     C85748   2.940  10.888   0.821  1.0342  0.3975 -0.3517
  636MOL0     O85749   2.963  10.894   0.680 -0.0712  0.0569  0.1836
  636MOL0     C85750   3.083  10.946   0.645 -0.3218  0.5903  0.8871
  636MOL0     C85751   3.209  10.952   0.710  0.4631  0.2452 -0.2370
  636MOL0     C85752   3.322  11.009   0.653  0.1419 -0.9038  0.0609
  636MOL0     C85753   3.318  11.071   0.528 -0.0007  0.0294  0.3252
  636MOL0     C85754   3.436  11.126   0.459 -0.2837  0.6321 -0.8760
  636MOL0     O85755   3.425  11.133   0.314 -0.3149  0.1741 -1.1399
  636MOL0     C85756   3.526  11.186   0.238 -0.8990 -0.8320 -0.2533
  636MOL0     C85757   3.503  11.266   0.126  0.0791 -0.0881  0.4687
  636MOL0     C85758   3.604  11.318   0.045  0.0381  0.5873 -0.0700
  636MOL0     C85759   3.743  11.278   0.072 -0.0137 -0.9788  0.5839
  636MOL0     O85760   3.835  11.301  -0.020  0.8815  0.0784 -0.1838
  636MOL0     C85761   3.946  11.221  -0.036  0.0255  0.2663  0.1088
  636MOL0     C85762   4.067  11.311  -0.050 -0.0264  0.5549  0.5290
  636MOL0     C85763   4.118  11.381   0.076  0.1400 -0.0568 -0.6940
  636MOL0     C85764   4.245  11.461   0.047  0.0369 -0.0426  0.0659
  636MOL0     C85765   4.281  11.551   0.166 -0.7121  0.5507  0.8439
  636MOL0     C85766   4.426  11.585   0.161 -0.4065 -0.1094 -0.1738
  636MOL0     C85767   4.461  11.690   0.274  0.4097  0.3155  0.5797
  636MOL0     C85768   4.587  11.765   0.250 -0.0115 -0.8342  0.0681
  636MOL0    Cl85769   4.722  11.663   0.243  0.4307  0.0080 -0.0239
  636MOL0     C85770   3.769  11.204   0.190  0.1465  0.3766  0.3621
  636MOL0     C85771   3.659  11.169   0.273 -0.2173  1.1613  0.3646
  636MOL0     O85772   3.520  11.190   0.525 -0.3591 -0.1232 -0.0393
  636MOL0     C85773   3.194  11.064   0.463  0.5897 -0.3235  0.5934
  636MOL0     C85774   3.088  10.995   0.522  0.0115  0.3110  0.0283
  636MOL0     N85775   2.602  10.867   1.242  0.3932 -0.5822  0.0748
  636MOL0     N85776   2.513  10.848   1.329 -0.9347  0.3821  0.3636
  636MOL0     C85777   1.429  10.502   1.408 -0.4725 -0.1046  0.5248
  636MOL0     C85778   1.348  10.400   1.364 -0.3618 -0.4281  1.1257
  636MOL0     C85779   1.171   9.979   1.353  0.8203 -0.6969  0.5440
  636MOL0     C85780   1.038  10.007   1.372  0.1935 -0.3239  0.1715
  636MOL0     C85781   0.946   9.920   1.324 -0.1398  0.4477 -0.5319
  636MOL0     C85782   0.969   9.803   1.264 -0.0902  0.6730  0.4620
  636MOL0     O85783   0.861   9.725   1.218 -0.1307  0.0010  0.3048
  636MOL0     C85784   0.870   9.599   1.144  0.3250 -0.5863 -0.7968
  636MOL0     C85785   0.784   9.619   1.012  0.4887  1.0525  0.3351
  636MOL0     C85786   0.632   9.655   1.043  0.2100  0.8074 -0.7557
  636MOL0     C85787   0.529   9.539   1.050  1.0690 -0.2960  0.0617
  636MOL0     C85788   0.386   9.581   1.053 -0.0397 -0.0702 -0.0153
  636MOL0     C85789   0.269   9.615   1.055  0.2631  0.6855  1.3081
  636MOL0     C85790   1.098   9.773   1.250 -1.2323 -0.1079  0.8745
  636MOL0     C85791   1.201   9.856   1.289  0.0496  0.3845 -0.8765
  636MOL0     C85792   1.348   9.816   1.261 -0.2451  0.1899 -0.2615
  636MOL0     H85793   1.259  10.283   1.667  0.3066 -1.1510 -0.7259
  636MOL0     H85794   1.398  10.449   1.740 -0.4735  0.2110  0.3642
  636MOL0     H85795   1.501  10.705   1.761 -0.5888 -0.9230 -0.8168
  636MOL0     H85796   1.606  10.562   1.777  0.6676  0.8885 -0.3196
  636MOL0     H85797   1.778  10.687   1.807 -0.5844  0.2792  1.4552
  636MOL0     H85798   1.695  10.838   1.755 -0.6860  0.8519 -1.1947
  636MOL0     H85799   1.759  10.810   1.520  0.2642  0.1466 -0.9561
  636MOL0     H85800   1.796  10.644   1.551  0.7493 -0.5934  0.9361
  636MOL0     H85801   1.935  10.875   1.701  0.8829 -1.8505  2.0588
  636MOL0     H85802   1.985  10.708   1.686 -2.2986 -1.8564  0.0378
  636MOL0     H85803   2.043  10.744   1.458 -0.2491 -0.8650  0.3907
  636MOL0     H85804   1.964  10.898   1.444 -1.4357 -0.3614  0.6562
  636MOL0     H85805   2.105  11.010   1.593  0.0411  0.9770 -1.3588
  636MOL0     H85806   2.173  10.857   1.658 -1.1793  2.1427  0.9637
  636MOL0     H85807   2.337  10.964   1.500 -0.1725 -0.3404  1.7436
  636MOL0     H85808   2.203  11.009   1.390  0.4362 -0.2254 -0.6822
  636MOL0     H85809   2.293  10.720   1.425 -0.8035 -1.2708 -0.3942
  636MOL0     H85810   2.187  10.791   1.300 -1.2037  1.3774  1.3507
  636MOL0     H85811   2.310  10.868   1.078 -1.4342  1.6289  1.5511
  636MOL0     H85812   2.523  10.914   0.902  0.3805  2.9263 -0.7581
  636MOL0     H85813   2.583  11.047   0.992 -1.2814  0.5563  0.6140
  636MOL0     H85814   2.788  10.940   1.044 -2.9139  1.9045  1.5222
  636MOL0     H85815   2.733  10.778   0.977  2.5738 -0.7355 -0.6872
  636MOL0     H85816   2.777  11.022   0.799  0.3981 -1.0466 -4.3041
  636MOL0     H85817   2.746  10.845   0.760  1.8183  0.7300 -1.9224
  636MOL0     H85818   2.969  10.792   0.865 -0.0926  0.7458  1.2685
  636MOL0     H85819   2.993  10.971   0.867  3.1168  0.4289 -2.6089
  636MOL0     H85820   3.216  10.917   0.812  2.7721 -0.3335 -0.5489
  636MOL0     H85821   3.410  11.020   0.714  1.7884  0.2263 -2.3551
  636MOL0     H85822   3.397  11.282   0.105  0.0451 -3.1925 -2.8457
  636MOL0     H85823   3.577  11.366  -0.049 -0.1728  1.7588  0.5831
  636MOL0     H85824   3.959  11.154   0.049 -1.1380  0.0911  0.1620
  636MOL0     H85825   3.940  11.162  -0.129  0.4707 -1.2708  1.0096
  636MOL0     H85826   4.148  11.248  -0.087 -0.1109  1.5073 -1.4054
  636MOL0     H85827   4.039  11.381  -0.130  0.3571  0.5312  0.3695
  636MOL0     H85828   4.034  11.448   0.097  0.2869  0.7259 -2.3867
  636MOL0     H85829   4.128  11.310   0.158  1.5416 -0.5434 -1.2470
  636MOL0     H85830   4.234  11.522  -0.043  0.8209  0.8150  0.5359
  636MOL0     H85831   4.333  11.398   0.029  0.5171  0.5653  0.2490
  636MOL0     H85832   4.273  11.490   0.256 -2.9230  0.1914  0.4649
  636MOL0     H85833   4.214  11.638   0.165  0.7237  1.7498 -1.6845
  636MOL0     H85834   4.485  11.495   0.179  0.2519  0.4034  0.3145
  636MOL0     H85835   4.446  11.620   0.059  0.3718  2.2126  0.6986
  636MOL0     H85836   4.480  11.631   0.365 -1.6708 -3.7156 -1.3324
  636MOL0     H85837   4.377  11.760   0.284  1.0770  1.8409 -3.0285
  636MOL0     H85838   4.581  11.814   0.152  0.6471  1.5764  1.1655
  636MOL0     H85839   4.605  11.841   0.326 -1.6737  0.0393 -0.3748
  636MOL0     H85840   3.866  11.166   0.224  1.0010  2.1474  0.0314
  636MOL0     H85841   3.685  11.101   0.354  0.3386 -1.2826 -1.7311
  636MOL0     H85842   3.184  11.080   0.357  1.5460 -2.3589  0.1349
  636MOL0     H85843   3.003  10.977   0.457 -0.3223 -2.0493  1.0192
  636MOL0     H85844   1.483  10.562   1.335  1.6163  1.4825  3.1766
  636MOL0     H85845   1.318  10.383   1.261 -4.1372 -2.7444  2.3546
  636MOL0     H85846   1.001  10.096   1.422  1.3715  0.5903 -0.5259
  636MOL0     H85847   0.842   9.950   1.333  0.0493  0.5443  2.2888
  636MOL0     H85848   0.827   9.515   1.200  3.5709 -2.2516 -0.6195
  636MOL0     H85849   0.974   9.576   1.122  1.3291 -0.2700  2.9270
  636MOL0     H85850   0.782   9.524   0.958  3.1226  0.5455  0.9578
  636MOL0     H85851   0.827   9.685   0.937 -0.3025 -1.5655 -2.6739
  636MOL0     H85852   0.603   9.718   0.958 -3.2801 -0.6220 -0.8106
  636MOL0     H85853   0.627   9.706   1.139  0.0835 -2.5319  1.1893
  636MOL0     H85854   0.549   9.485   0.957 -0.7483  0.9363 -1.1074
  636MOL0     H85855   0.550   9.482   1.141  1.4695  1.5396  1.1693
  636MOL0     H85856   0.165   9.632   1.037  0.2200 -1.3171 -0.8024
  636MOL0     H85857   1.122   9.675   1.211 -0.0330  0.3737  0.3404
  636MOL0     H85858   1.350   9.713   1.225  0.1879  0.0058  0.2693
  636MOL0     H85859   1.393   9.878   1.183 -0.3774 -0.0358 -0.5204
  636MOL0     H85860   1.406   9.810   1.353 -1.1619  3.3873  0.6740
  637MOL0     O85861   9.505  10.055   0.495 -0.0798 -0.4828 -0.5218
  637MOL0     C85862   9.402  10.081   0.433 -0.2030  0.4171 -0.6720
  637MOL0     O85863   9.387  10.100   0.297  0.1440 -0.4117 -0.0327
  637MOL0     C85864   9.498  10.071   0.228 -0.4678  0.6010  0.8025
  637MOL0     C85865   9.527   9.934   0.195  0.3564 -0.5701 -0.9006
  637MOL0     C85866   9.646   9.899   0.133  0.4747 -0.3122 -0.5175
  637MOL0     C85867   9.751   9.997   0.116 -0.3147 -0.5221  0.0851
  637MOL0     O85868   9.871   9.954   0.067 -0.0086  0.1559 -0.1107
  637MOL0     C85869   9.990  10.043   0.073 -0.2780 -0.2219 -0.6152
  637MOL0     C85870  10.084   9.963  -0.019 -0.1013 -0.3735 -0.5020
  637MOL0     C85871  10.223  10.026  -0.033  0.1292  0.5926 -0.0488
  637MOL0     C85872  10.309   9.925  -0.110  0.0049  0.6235 -0.0035
  637MOL0     C85873  10.462   9.954  -0.089 -0.2442 -0.8209 -0.3650
  637MOL0     C85874  10.543   9.870  -0.190  0.1091 -0.2103 -0.7013
  637MOL0     C85875  10.688   9.899  -0.166  0.1235  0.1793  0.1385
  637MOL0     C85876  10.775   9.804  -0.244 -0.4317  0.6813 -0.5179
  637MOL0     N85877  10.917   9.785  -0.192  0.3013 -0.8490  0.7328
  637MOL0     C85878  11.013   9.702  -0.248  0.6730  0.4283  0.6059
  637MOL0     C85879  11.124   9.708  -0.169  0.0513 -0.5506  0.5226
  637MOL0     C85880  11.250   9.633  -0.188 -0.9171 -0.5109 -0.7255
  637MOL0     C85881  11.307   9.645  -0.325 -0.0192 -0.4433 -0.5125
  637MOL0     C85882  11.440   9.559  -0.333 -0.1217 -0.5283 -0.2134
  637MOL0     C85883  11.552   9.618  -0.252 -0.1211 -0.4942  0.6811
  637MOL0     O85884  11.667   9.534  -0.272 -0.4235 -0.0302 -0.6047
  637MOL0     C85885  11.793   9.590  -0.270  0.0078 -0.1776 -0.5349
  637MOL0     C85886  11.888   9.513  -0.331  0.0039  1.2278  0.5497
  637MOL0     C85887  12.021   9.552  -0.333  0.3577  0.2569 -0.1726
  637MOL0     C85888  12.062   9.666  -0.265 -0.0076  0.1236 -0.5425
  637MOL0     C85889  12.208   9.706  -0.275 -0.0179  0.6873  0.9422
  637MOL0     O85890  12.240   9.823  -0.204  0.5570 -0.7478 -0.3688
  637MOL0     C85891  12.363   9.857  -0.166  0.2146  0.6876  0.0300
  637MOL0     C85892  12.366   9.987  -0.120  0.6997 -0.2609  0.9825
  637MOL0     C85893  12.489  10.048  -0.076 -0.1868  0.1673 -0.2999
  637MOL0     C85894  12.612   9.977  -0.073  0.2059 -0.3034 -0.6229
  637MOL0     O85895  12.727  10.049  -0.050 -0.4730 -0.1823 -0.3313
  637MOL0     C85896  12.860   9.993  -0.064 -0.1976 -0.2186  0.1236
  637MOL0     C85897  12.967  10.105  -0.035  0.9657  0.5221  0.0994
  637MOL0     C85898  13.121  10.076  -0.057  0.9674 -0.6997 -0.4472
  637MOL0     C85899  13.171   9.942  -0.002  0.6048  0.1593  0.2057
  637MOL0     C85900  13.319   9.941   0.009 -0.6165  0.6546 -0.4221
  637MOL0     C85901  13.374   9.821   0.083  0.1555 -0.6196 -0.7092
  637MOL0     C85902  13.524   9.792   0.058  0.2176  0.0412  0.0780
  637MOL0     C85903  13.610   9.914   0.092  0.4446  0.2982 -0.0691
  637MOL0    Cl85904  13.784   9.860   0.079  0.2524  0.0529  0.1244
  637MOL0     C85905  12.608   9.847  -0.115  0.1006  0.9096  0.4379
  637MOL0     C85906  12.484   9.780  -0.155  0.8742  0.4492 -0.6889
  637MOL0     O85907  12.293   9.640  -0.334 -0.4678 -0.3854  1.1674
  637MOL0     C85908  11.962   9.738  -0.197 -1.0000 -0.4591 -0.7068
  637MOL0     C85909  11.826   9.703  -0.202  0.1276 -0.1668  0.1899
  637MOL0     N85910  11.097   9.793  -0.067 -0.4284  0.4102 -0.3541
  637MOL0     N85911  10.979   9.838  -0.078 -0.5241 -0.5436  0.3350
  637MOL0     C85912   9.716  10.139   0.136 -0.0734 -0.4379 -0.0727
  637MOL0     C85913   9.588  10.168   0.189 -0.5844 -0.0906 -0.7439
  637MOL0     C85914   9.288  10.103   0.518  0.4013  0.0898  0.6051
  637MOL0     C85915   9.166  10.142   0.445 -0.0839  0.2484  0.0080
  637MOL0     C85916   9.045  10.153   0.507 -0.3159  0.1877 -0.2785
  637MOL0     C85917   9.039  10.141   0.642  0.1379  0.3312  0.1023
  637MOL0     O85918   8.927  10.137   0.718  0.6094 -0.4059 -0.6457
  637MOL0     C85919   8.795  10.159   0.662 -0.3708 -0.2856 -0.8283
  637MOL0     C85920   8.691  10.192   0.767 -0.1626  0.1619 -0.6147
  637MOL0     C85921   8.726  10.304   0.874 -0.3697  0.4715 -0.4644
  637MOL0     C85922   8.611  10.360   0.958 -0.4018 -0.9596 -0.1492
  637MOL0     C85923   8.509  10.410   0.868 -0.0896  0.1377 -1.0746
  637MOL0     C85924   8.412  10.464   0.814 -0.1386  0.0208  0.3675
  637MOL0     C85925   9.152  10.110   0.719 -0.6646  0.0702 -0.6706
  637MOL0     C85926   9.278  10.097   0.656  0.4510 -0.3033  0.3269
  637MOL0     C85927   9.398  10.090   0.748 -0.4590 -0.1123  1.0057
  637MOL0     H85928   9.447   9.864   0.214 -0.5385  1.0299  1.8958
  637MOL0     H85929   9.665   9.794   0.109 -2.3678 -1.1245  0.3611
  637MOL0     H85930   9.967  10.143   0.035 -3.8212 -0.1693  1.2003
  637MOL0     H85931  10.030  10.049   0.175  0.3293  2.7073 -0.9454
  637MOL0     H85932  10.039   9.963  -0.119  0.8666 -1.5041 -0.9554
  637MOL0     H85933  10.099   9.859   0.012  1.6119  0.0928  0.3609
  637MOL0     H85934  10.271  10.042   0.064  2.2649 -0.4314 -0.8755
  637MOL0     H85935  10.225  10.123  -0.084 -0.0046 -1.2153 -3.7971
  637MOL0     H85936  10.306   9.823  -0.069  0.4055  0.9748  0.9322
  637MOL0     H85937  10.275   9.927  -0.214 -2.1160  3.3794  0.6266
  637MOL0     H85938  10.472  10.061  -0.111  0.0237 -0.7091  0.2928
  637MOL0     H85939  10.480   9.942   0.018 -2.4685 -0.1235  0.1338
  637MOL0     H85940  10.507   9.767  -0.181 -3.5609  0.7839 -2.2072
  637MOL0     H85941  10.515   9.899  -0.292  0.5602  3.8621  0.1754
  637MOL0     H85942  10.703   9.874  -0.060  1.0750 -2.5873 -0.5552
  637MOL0     H85943  10.714  10.004  -0.179 -2.7515  1.3582  2.6953
  637MOL0     H85944  10.724   9.707  -0.242 -2.5208  1.7171  1.7757
  637MOL0     H85945  10.787   9.845  -0.345  0.6770  2.6497  0.3688
  637MOL0     H85946  11.009   9.642  -0.338 -1.6748 -1.2471  1.7016
  637MOL0     H85947  11.321   9.663  -0.110 -2.4956 -1.3912  1.1580
  637MOL0     H85948  11.226   9.527  -0.170 -0.3570 -1.0778 -3.0631
  637MOL0     H85949  11.231   9.620  -0.400  1.7551  0.5325 -2.7678
  637MOL0     H85950  11.338   9.750  -0.328  0.8817 -0.6000  1.5701
  637MOL0     H85951  11.461   9.545  -0.439  0.6315 -2.0208  0.1027
  637MOL0     H85952  11.413   9.459  -0.297  1.5813 -0.4227  1.5329
  637MOL0     H85953  11.529   9.619  -0.145  2.5565  4.0046  1.4525
  637MOL0     H85954  11.581   9.718  -0.284  1.3194 -0.6414  1.4346
  637MOL0     H85955  11.849   9.424  -0.380  0.5390  1.2119  0.1461
  637MOL0     H85956  12.097   9.482  -0.368  1.0370 -0.5932  2.7796
  637MOL0     H85957  12.273  10.040  -0.135  0.0213 -1.8485 -0.7276
  637MOL0     H85958  12.490  10.152  -0.046  0.2276 -0.1570  0.8443
  637MOL0     H85959  12.876   9.912   0.008  0.0945 -0.3711 -0.1125
  637MOL0     H85960  12.868   9.958  -0.167 -0.4395  0.8812 -0.2741
  637MOL0     H85961  12.948  10.190  -0.102 -1.4819 -0.0828 -0.0720
  637MOL0     H85962  12.942  10.141   0.065  1.1789 -1.6403  0.9691
  637MOL0     H85963  13.135  10.079  -0.165  1.0465  2.6039 -0.4535
  637MOL0     H85964  13.172  10.161  -0.011  0.0709 -0.5314  0.2685
  637MOL0     H85965  13.133   9.865  -0.070 -0.4491  1.4252 -0.7004
  637MOL0     H85966  13.133   9.933   0.100  0.7665  0.6293  0.3099
  637MOL0     H85967  13.352  10.032   0.060 -1.0426 -0.2979  1.6295
  637MOL0     H85968  13.372   9.940  -0.087 -0.2652  0.4495 -0.2291
  637MOL0     H85969  13.362   9.841   0.190 -2.7566 -0.0015 -1.0802
  637MOL0     H85970  13.321   9.730   0.054 -0.2921 -0.0941 -1.5624
  637MOL0     H85971  13.542   9.769  -0.047 -4.8036 -0.5042 -0.9090
  637MOL0     H85972  13.556   9.713   0.126 -2.6463  0.3487  1.9487
  637MOL0     H85973  13.591  10.005   0.034  1.8413  0.7008  0.0698
  637MOL0     H85974  13.594   9.938   0.198  1.1093 -0.2763  0.1703
  637MOL0     H85975  12.694   9.781  -0.124 -0.9661 -0.4962  0.1501
  637MOL0     H85976  12.480   9.674  -0.175 -0.4673  0.5188 -0.8958
  637MOL0     H85977  11.991   9.822  -0.134 -0.5584 -1.6148  0.6740
  637MOL0     H85978  11.748   9.761  -0.154  0.1619  0.5398 -0.5770
  637MOL0     H85979   9.785  10.212   0.094 -0.9642  0.4329 -0.0642
  637MOL0     H85980   9.560  10.270   0.214  1.8493  0.9382 -1.9361
  637MOL0     H85981   9.169  10.149   0.336 -2.3723  1.8810 -0.0246
  637MOL0     H85982   8.954  10.167   0.449 -1.4699  3.1708  2.0044
  637MOL0     H85983   8.757  10.070   0.612 -0.0102  0.2442 -2.0841
  637MOL0     H85984   8.792  10.241   0.590 -2.0997 -1.1895 -1.8578
  637MOL0     H85985   8.666  10.100   0.819 -3.6784 -0.7356 -3.5114
  637MOL0     H85986   8.596  10.221   0.721 -0.1915  0.6266 -0.2760
  637MOL0     H85987   8.770  10.383   0.813 -0.0025  0.6786  0.0694
  637MOL0     H85988   8.804  10.260   0.937  0.1912  0.9673 -0.8048
  637MOL0     H85989   8.572  10.294   1.036 -2.1925 -0.4289 -0.5422
  637MOL0     H85990   8.653  10.449   1.005  3.2959 -1.6099 -1.8863
  637MOL0     H85991   8.332  10.495   0.750 -0.1812  0.7537  0.7662
  637MOL0     H85992   9.147  10.115   0.827 -0.4032  0.6229 -0.6773
  637MOL0     H85993   9.461  10.178   0.732 -3.8430  3.8262  6.0110
  637MOL0     H85994   9.365  10.098   0.852 -2.4755 -2.7251  0.6537
  637MOL0     H85995   9.460  10.001   0.751  1.1897  1.0095  3.2662
  638MOL0     O85996   9.760   4.830   1.670  0.1203  0.3188  0.3019
  638MOL0     C85997   9.761   4.826   1.549 -0.0312 -0.0363  0.9015
  638MOL0     O85998   9.661   4.752   1.468  0.2382  0.2192 -0.7088
  638MOL0     C85999   9.546   4.705   1.532  0.0283  0.0700 -0.5343
  638MOL0     C86000   9.490   4.590   1.472  0.4490 -0.4954  0.6732
  638MOL0     C86001   9.367   4.533   1.525  0.0001 -0.9110  1.0184
  638MOL0     C86002   9.311   4.598   1.637 -0.4438 -0.0652  0.0697
  638MOL0     O86003   9.199   4.530   1.683  0.4212 -0.4597 -0.0152
  638MOL0     C86004   9.119   4.585   1.792 -0.3344  0.7948  0.3474
  638MOL0     C86005   9.001   4.500   1.808  0.3297 -0.5525  0.3873
  638MOL0     C86006   8.927   4.485   1.672  0.1718  0.3392  0.3051
  638MOL0     C86007   8.848   4.356   1.698  0.4572 -0.5111 -0.6834
  638MOL0     C86008   8.736   4.338   1.593 -0.6872  0.2913 -0.0347
  638MOL0     C86009   8.658   4.210   1.627 -0.3394 -0.0820  0.1541
  638MOL0     C86010   8.567   4.178   1.508 -0.0538  0.2875 -0.8929
  638MOL0     C86011   8.475   4.060   1.547 -0.0585  0.9169 -0.1995
  638MOL0     N86012   8.555   3.938   1.568  0.4226 -0.6341  0.0788
  638MOL0     C86013   8.653   3.905   1.480 -1.2716  0.1887  0.0537
  638MOL0     C86014   8.739   3.820   1.547 -0.3861 -0.1405  0.3743
  638MOL0     C86015   8.863   3.757   1.490  0.6005  0.3740  0.0788
  638MOL0     C86016   8.979   3.854   1.484  0.1750  0.5770  0.5822
  638MOL0     C86017   8.984   3.953   1.610 -0.1623 -0.6430  0.2940
  638MOL0     C86018   9.093   4.068   1.608  0.7164  0.2048 -0.0781
  638MOL0     O86019   9.220   4.006   1.627 -0.2314 -0.7275 -0.3669
  638MOL0     C86020   9.332   4.079   1.637  0.3278 -0.9611 -0.1070
  638MOL0     C86021   9.451   4.025   1.590 -0.1561  2.0631  0.2018
  638MOL0     C86022   9.570   4.093   1.589  0.4972  0.2073 -0.1443
  638MOL0     C86023   9.583   4.216   1.658 -0.1515 -0.3746  0.6068
  638MOL0     C86024   9.708   4.288   1.682 -0.0947  1.2485 -0.2460
  638MOL0     O86025   9.809   4.274   1.600  0.1198  0.5101  0.2800
  638MOL0     C86026   9.921   4.356   1.606  0.0870  0.2361  0.4641
  638MOL0     C86027  10.041   4.300   1.570 -0.0955 -0.3806  0.4830
  638MOL0     C86028  10.161   4.368   1.566 -0.0094  0.6835 -0.7278
  638MOL0     C86029  10.158   4.508   1.582 -0.1835  0.0218  0.2190
  638MOL0     O86030  10.285   4.569   1.593  0.3362  0.2100 -0.4211
  638MOL0     C86031  10.295   4.707   1.564  0.2592 -0.7959 -0.2477
  638MOL0     C86032  10.448   4.748   1.551  1.1707  0.3073 -0.7209
  638MOL0     C86033  10.448   4.896   1.549 -0.5150 -0.3421 -0.3850
  638MOL0     C86034  10.584   4.959   1.500  0.8497  0.3756 -0.7802
  638MOL0     C86035  10.547   5.078   1.408 -0.6134  0.3087 -0.9327
  638MOL0     C86036  10.648   5.197   1.409 -0.3701 -1.2518  0.4968
  638MOL0     C86037  10.584   5.333   1.357  0.7166 -0.1818  0.0935
  638MOL0     C86038  10.657   5.452   1.414  0.0506  0.2722 -0.2744
  638MOL0    Cl86039  10.581   5.508   1.564  0.3154  0.1572 -0.1204
  638MOL0     C86040  10.038   4.573   1.600 -0.2937  0.5860  0.1196
  638MOL0     C86041   9.919   4.497   1.612  0.6972  0.0215 -0.0197
  638MOL0     O86042   9.699   4.374   1.769  0.3445 -0.3322  0.0917
  638MOL0     C86043   9.462   4.273   1.702 -0.0957  0.8585 -0.1848
  638MOL0     C86044   9.342   4.208   1.695  0.0205 -0.0680  0.1885
  638MOL0     N86045   8.704   3.816   1.676  0.6597  0.7795 -0.0040
  638MOL0     N86046   8.597   3.889   1.689  0.3129 -0.9614 -0.7735
  638MOL0     C86047   9.357   4.718   1.689 -0.0219  0.6354  0.7407
  638MOL0     C86048   9.474   4.770   1.638 -0.4072  0.2139  0.3444
  638MOL0     C86049   9.869   4.895   1.479 -0.9293  0.4140 -0.1407
  638MOL0     C86050   9.889   4.876   1.341  0.8283  0.1155  0.3411
  638MOL0     C86051   9.990   4.938   1.271 -0.3764  0.6790  0.5431
  638MOL0     C86052  10.086   5.015   1.329  0.3927 -0.1447 -0.0349
  638MOL0     O86053  10.193   5.058   1.263  0.3022  0.1948 -0.2926
  638MOL0     C86054  10.178   5.092   1.128  1.2381  0.2881  1.1088
  638MOL0     C86055  10.262   5.216   1.086 -0.3185  0.3410 -0.0020
  638MOL0     C86056  10.242   5.338   1.182 -0.4188  0.3957 -0.4373
  638MOL0     C86057  10.322   5.466   1.139 -0.2477 -0.2101 -1.0006
  638MOL0     C86058  10.346   5.556   1.257  0.4448 -0.3599 -0.2833
  638MOL0     C86059  10.362   5.634   1.353 -0.5886 -0.7937  0.3838
  638MOL0     C86060  10.077   5.028   1.475  0.9160 -1.0975  0.1079
  638MOL0     C86061   9.965   4.984   1.547  0.2166  0.0392  0.1518
  638MOL0     C86062   9.967   5.013   1.697  0.3412  0.0705 -0.3981
  638MOL0     H86063   9.548   4.544   1.393 -0.8096 -3.2128  1.1840
  638MOL0     H86064   9.336   4.439   1.480  1.6327 -1.8593  1.7753
  638MOL0     H86065   9.170   4.581   1.889 -0.6454  2.8560  0.6642
  638MOL0     H86066   9.084   4.687   1.775 -0.3011  0.9582  1.1876
  638MOL0     H86067   8.932   4.545   1.879 -0.2711 -1.9404  0.7262
  638MOL0     H86068   9.024   4.401   1.848 -1.8708 -2.1545 -1.9294
  638MOL0     H86069   8.991   4.479   1.583  1.9632 -1.9642  1.6119
  638MOL0     H86070   8.851   4.563   1.662  1.0900  1.1751 -0.3683
  638MOL0     H86071   8.909   4.266   1.710  0.0693 -0.6567  0.2970
  638MOL0     H86072   8.791   4.378   1.788 -2.4340  1.8074 -2.8861
  638MOL0     H86073   8.673   4.427   1.593 -1.0687  0.0276 -1.1716
  638MOL0     H86074   8.781   4.324   1.494  2.2759  0.6323  1.1631
  638MOL0     H86075   8.731   4.129   1.636  1.5750  1.4835 -0.5831
  638MOL0     H86076   8.604   4.219   1.722  0.8240 -2.0867  1.0488
  638MOL0     H86077   8.619   4.157   1.415  1.2153 -0.4954 -0.0415
  638MOL0     H86078   8.500   4.264   1.495 -0.3365  0.1048 -0.6774
  638MOL0     H86079   8.422   4.079   1.641  3.1553  1.3443  1.6567
  638MOL0     H86080   8.409   4.044   1.461 -1.1818  2.7734  0.2552
  638MOL0     H86081   8.667   3.932   1.376 -0.0271  2.4114  0.7181
  638MOL0     H86082   8.891   3.671   1.551 -0.1994  1.4796  2.1217
  638MOL0     H86083   8.833   3.713   1.395  0.4263  2.7689 -1.0481
  638MOL0     H86084   9.070   3.794   1.489  0.5045  1.1807  3.1551
  638MOL0     H86085   8.975   3.911   1.391 -0.8270 -1.9116 -1.0156
  638MOL0     H86086   8.997   3.895   1.702 -2.2635  1.0832  1.7847
  638MOL0     H86087   8.883   3.995   1.620 -1.0267 -2.8134  1.4938
  638MOL0     H86088   9.066   4.130   1.694 -1.6418 -1.2058  0.2811
  638MOL0     H86089   9.081   4.130   1.519  1.6148  1.3137  0.5462
  638MOL0     H86090   9.466   3.925   1.549  0.5581  2.1245  0.3035
  638MOL0     H86091   9.657   4.040   1.550  0.0903 -1.0175  0.5512
  638MOL0     H86092  10.060   4.195   1.554 -0.1488 -0.3317  0.0924
  638MOL0     H86093  10.256   4.318   1.549  0.2385  1.0896 -0.5373
  638MOL0     H86094  10.242   4.732   1.472 -0.0099 -0.0122  0.1146
  638MOL0     H86095  10.249   4.755   1.651  0.1134 -2.3550  0.5748
  638MOL0     H86096  10.503   4.695   1.630 -1.2496  1.0797  1.6405
  638MOL0     H86097  10.484   4.722   1.451  3.8748  1.1226 -0.0373
  638MOL0     H86098  10.372   4.941   1.483  1.1020  2.0339 -0.7813
  638MOL0     H86099  10.414   4.945   1.641 -1.3467  3.2346 -2.3695
  638MOL0     H86100  10.631   4.877   1.444 -0.3514  0.0926 -1.4118
  638MOL0     H86101  10.649   4.986   1.584 -3.1237 -2.0876  3.5400
  638MOL0     H86102  10.452   5.120   1.443 -0.2166 -0.5820  1.4445
  638MOL0     H86103  10.527   5.033   1.310 -0.4441 -1.9428  0.0099
  638MOL0     H86104  10.694   5.203   1.508 -0.5161 -3.4352  0.7527
  638MOL0     H86105  10.729   5.171   1.340 -0.3631  2.8532 -1.3440
  638MOL0     H86106  10.476   5.343   1.374  1.1738  0.6914  3.0411
  638MOL0     H86107  10.590   5.333   1.248 -1.5175 -1.4684 -0.1014
  638MOL0     H86108  10.758   5.420   1.442 -0.3927 -1.2392 -0.3113
  638MOL0     H86109  10.647   5.535   1.343 -3.2097  3.6607  3.6081
  638MOL0     H86110  10.032   4.680   1.615  2.1590  1.2942 -2.9583
  638MOL0     H86111   9.821   4.542   1.615  2.0019  3.2293 -1.2118
  638MOL0     H86112   9.469   4.366   1.757 -2.9902  0.4114  1.1530
  638MOL0     H86113   9.256   4.248   1.748  0.0925 -1.6408  1.5633
  638MOL0     H86114   9.307   4.771   1.769 -1.0025  2.7449 -1.1349
  638MOL0     H86115   9.506   4.864   1.683 -2.4088  1.0332  0.1617
  638MOL0     H86116   9.827   4.809   1.282 -0.7316  0.4642  1.5053
  638MOL0     H86117   9.993   4.922   1.163 -0.9583  0.3802  0.5719
  638MOL0     H86118  10.074   5.125   1.118  0.8158 -1.4663 -1.3074
  638MOL0     H86119  10.189   5.007   1.059  1.6242  1.7394 -0.6765
  638MOL0     H86120  10.234   5.238   0.982 -0.5617 -1.4287 -0.3360
  638MOL0     H86121  10.368   5.189   1.086 -0.6852 -1.2004 -0.2162
  638MOL0     H86122  10.281   5.307   1.279  0.0030  1.5079 -0.2378
  638MOL0     H86123  10.137   5.361   1.204 -0.4936 -1.7001  1.7545
  638MOL0     H86124  10.418   5.435   1.097 -0.4355 -0.1748 -1.4537
  638MOL0     H86125  10.262   5.529   1.072 -3.8958 -0.2621  1.8571
  638MOL0     H86126  10.355   5.708   1.429 -0.4958  0.0230 -0.3799
  638MOL0     H86127  10.149   5.087   1.531 -0.2361 -0.8524  1.3952
  638MOL0     H86128   9.995   4.920   1.747 -1.7234 -0.1019  0.5312
  638MOL0     H86129  10.032   5.096   1.725  0.2933 -0.1232  0.3072
  638MOL0     H86130   9.869   5.050   1.727  1.4991  0.7727  2.9846
  639MOL0     O86131   1.279   2.565   1.717  0.7794  0.1636  0.2799
  639MOL0     C86132   1.296   2.653   1.799 -0.6462  0.1856  0.7999
  639MOL0     O86133   1.417   2.710   1.836  0.2009  0.4725  0.2560
  639MOL0     C86134   1.532   2.642   1.803 -0.6302 -0.4833  1.0744
  639MOL0     C86135   1.568   2.565   1.688  0.9797 -0.0112 -0.1346
  639MOL0     C86136   1.702   2.545   1.655 -0.4421 -0.9544  0.9619
  639MOL0     C86137   1.804   2.586   1.742 -0.1644 -0.8621 -0.6465
  639MOL0     O86138   1.934   2.548   1.717  1.0907 -0.4724  0.2206
  639MOL0     C86139   2.041   2.620   1.755 -0.2348  0.3805  0.2875
  639MOL0     C86140   2.166   2.571   1.673 -0.3241 -0.2990  0.3709
  639MOL0     C86141   2.142   2.557   1.518  0.6606  0.7527  0.1707
  639MOL0     C86142   2.267   2.574   1.425  0.0104 -1.3516 -0.1486
  639MOL0     C86143   2.252   2.504   1.288 -0.4253  0.2794  0.5594
  639MOL0     C86144   2.336   2.581   1.179 -0.1368 -0.2944 -0.6920
  639MOL0     C86145   2.361   2.486   1.070  0.1408 -0.4822  0.8129
  639MOL0     C86146   2.401   2.557   0.937  0.7020 -0.1619 -0.4005
  639MOL0     N86147   2.528   2.627   0.962 -0.3152 -0.7273 -0.2373
  639MOL0     C86148   2.652   2.573   0.972 -0.0288  0.4341 -0.2123
  639MOL0     C86149   2.727   2.670   1.035 -0.0322  0.0354  0.9513
  639MOL0     C86150   2.865   2.654   1.086 -0.2756 -0.5636  0.1078
  639MOL0     C86151   2.960   2.770   1.095 -0.0582 -0.3453  0.4242
  639MOL0     C86152   2.998   2.825   0.959 -0.3774 -0.8489 -0.3076
  639MOL0     C86153   3.113   2.912   0.947 -0.6676  0.5804  0.5778
  639MOL0     O86154   3.222   2.831   1.000  0.6882 -0.1487  0.4661
  639MOL0     C86155   3.323   2.922   1.027  0.4421 -0.1780 -0.2855
  639MOL0     C86156   3.396   2.897   1.146 -0.4221 -0.2614 -0.3165
  639MOL0     C86157   3.507   2.984   1.184 -0.4132  0.3541 -0.2404
  639MOL0     C86158   3.550   3.088   1.097  0.3155  0.4523 -0.1702
  639MOL0     C86159   3.675   3.158   1.128  0.3659 -0.3589 -0.3122
  639MOL0     O86160   3.727   3.238   1.024 -0.7710  0.0569  1.2164
  639MOL0     C86161   3.838   3.317   1.054 -0.0013  0.1025 -0.1924
  639MOL0     C86162   3.957   3.315   0.980  0.2491 -0.5457  0.3240
  639MOL0     C86163   4.075   3.370   1.032 -0.0557  0.3999  0.5400
  639MOL0     C86164   4.067   3.464   1.140 -0.4350  0.5998 -0.9122
  639MOL0     O86165   4.173   3.541   1.180  0.0333 -0.4407  0.6017
  639MOL0     C86166   4.305   3.541   1.123  0.5955  0.5727 -0.7939
  639MOL0     C86167   4.327   3.636   0.994 -0.7671 -0.5253  0.1838
  639MOL0     C86168   4.354   3.775   1.048  0.2328 -0.6184  0.3160
  639MOL0     C86169   4.508   3.809   1.051 -0.8517 -0.3815 -1.4860
  639MOL0     C86170   4.570   3.894   0.939 -0.3834  0.7069 -0.6354
  639MOL0     C86171   4.720   3.928   0.965  0.5898  0.0638  0.1146
  639MOL0     C86172   4.777   4.018   0.847  0.8313  0.4697  0.6549
  639MOL0     C86173   4.864   3.944   0.753  0.1849  0.0150 -1.1046
  639MOL0    Cl86174   4.995   3.869   0.838 -0.1814 -0.1138  0.1364
  639MOL0     C86175   3.944   3.478   1.200  0.0325 -0.2827  1.2824
  639MOL0     C86176   3.826   3.407   1.163 -0.1543  0.0266 -0.1569
  639MOL0     O86177   3.712   3.157   1.243 -0.1977 -0.5603  0.1725
  639MOL0     C86178   3.474   3.108   0.985 -0.1360 -0.2213 -1.2204
  639MOL0     C86179   3.364   3.036   0.952  0.4406 -0.1188 -0.6927
  639MOL0     N86180   2.648   2.779   1.063 -0.0303  0.3095 -0.0706
  639MOL0     N86181   2.527   2.752   1.019  0.5269  0.0315  0.0415
  639MOL0     C86182   1.772   2.659   1.862  0.1798  0.1334 -0.2101
  639MOL0     C86183   1.639   2.689   1.877  0.2918 -0.8453 -0.7006
  639MOL0     C86184   1.179   2.705   1.880 -0.9022  0.5085 -0.9541
  639MOL0     C86185   1.205   2.763   2.007  0.4055  0.3799 -0.0672
  639MOL0     C86186   1.096   2.816   2.086 -0.1132 -0.2378  1.2128
  639MOL0     C86187   0.969   2.817   2.037  0.0394  0.5024 -0.1638
  639MOL0     O86188   0.874   2.878   2.118 -0.1379 -0.8686  0.1344
  639MOL0     C86189   0.752   2.805   2.129  1.6869 -0.0815  0.3778
  639MOL0     C86190   0.687   2.836   2.262 -0.7456 -0.4178  0.5986
  639MOL0     C86191   0.663   2.980   2.276  0.8353 -0.2728  0.0251
  639MOL0     C86192   0.556   3.018   2.175  0.9056 -0.0111 -0.1140
  639MOL0     C86193   0.471   3.131   2.216  0.5104  0.3387  0.0877
  639MOL0     C86194   0.424   3.233   2.258 -0.5050 -0.3302  0.2500
  639MOL0     C86195   0.938   2.771   1.910 -0.3210  0.6079  0.6011
  639MOL0     C86196   1.040   2.707   1.835  0.0988  0.5942  0.7154
  639MOL0     C86197   0.990   2.636   1.709 -0.1816  0.5157 -0.0908
  639MOL0     H86198   1.488   2.532   1.623  2.2543 -0.7933 -1.3313
  639MOL0     H86199   1.744   2.492   1.570 -2.0121  0.1293 -0.5525
  639MOL0     H86200   2.028   2.728   1.742 -1.9977  0.0106 -1.6107
  639MOL0     H86201   2.069   2.607   1.860 -1.0242 -1.6609  0.2833
  639MOL0     H86202   2.196   2.473   1.712  0.1750 -0.4245 -0.3003
  639MOL0     H86203   2.249   2.641   1.691 -0.2713 -0.2656  0.0139
  639MOL0     H86204   2.078   2.635   1.475  1.6060  2.2053  1.2786
  639MOL0     H86205   2.104   2.455   1.505 -1.6351  1.3463  1.6600
  639MOL0     H86206   2.291   2.679   1.405  0.6914 -1.5532 -0.4181
  639MOL0     H86207   2.350   2.528   1.479 -2.1479 -2.6051  2.3428
  639MOL0     H86208   2.300   2.406   1.299  0.0708  0.3334 -0.8269
  639MOL0     H86209   2.152   2.500   1.244 -0.1513 -1.1625 -0.0056
  639MOL0     H86210   2.287   2.674   1.151  0.7583 -0.0771 -1.6164
  639MOL0     H86211   2.432   2.611   1.222  0.2538 -1.2030 -0.8982
  639MOL0     H86212   2.272   2.428   1.045  0.3728 -0.2697 -0.5725
  639MOL0     H86213   2.430   2.410   1.106 -0.3304 -0.2482  2.2802
  639MOL0     H86214   2.415   2.477   0.863  0.7112 -1.4158  0.9227
  639MOL0     H86215   2.323   2.626   0.901  0.7092  0.4247  0.6678
  639MOL0     H86216   2.690   2.476   0.943 -0.3975  0.8704 -2.3473
  639MOL0     H86217   2.853   2.609   1.185  1.5370 -2.5710 -0.4852
  639MOL0     H86218   2.904   2.569   1.029 -2.6951 -0.6624 -1.5008
  639MOL0     H86219   2.902   2.844   1.151  0.1079  0.2024 -0.1266
  639MOL0     H86220   3.045   2.737   1.155 -0.5751  1.1570  2.0683
  639MOL0     H86221   2.910   2.882   0.927  0.5881 -0.6008 -2.7588
  639MOL0     H86222   3.007   2.743   0.887 -0.5648 -1.0724 -0.0813
  639MOL0     H86223   3.091   2.998   1.012 -2.2745 -0.3277  1.2952
  639MOL0     H86224   3.123   2.945   0.843 -1.4446  1.3865  0.7417
  639MOL0     H86225   3.357   2.814   1.204 -0.1321 -0.2427 -0.0896
  639MOL0     H86226   3.560   2.945   1.270  1.5376 -2.4165 -2.4974
  639MOL0     H86227   3.968   3.253   0.891 -3.2542 -1.9029  0.6634
  639MOL0     H86228   4.176   3.361   0.992 -0.0901  1.4056  0.2069
  639MOL0     H86229   4.368   3.582   1.202  0.5797 -2.4529  0.9491
  639MOL0     H86230   4.313   3.437   1.088 -4.4059 -0.0847 -0.8353
  639MOL0     H86231   4.414   3.600   0.939  0.8175  0.6907  1.7576
  639MOL0     H86232   4.234   3.626   0.937 -1.2491 -0.7491  0.9931
  639MOL0     H86233   4.314   3.845   0.973  0.6139 -2.6989 -1.9779
  639MOL0     H86234   4.307   3.785   1.146 -0.0511  2.3772 -0.0269
  639MOL0     H86235   4.566   3.717   1.061  0.3698  0.6070  2.6007
  639MOL0     H86236   4.518   3.858   1.148  1.4192  1.3496 -2.5097
  639MOL0     H86237   4.514   3.987   0.930 -0.6296  1.0656  3.0802
  639MOL0     H86238   4.547   3.840   0.847 -0.3829  0.7653 -0.6697
  639MOL0     H86239   4.732   3.985   1.057 -3.3696  2.1216 -0.4579
  639MOL0     H86240   4.779   3.836   0.973 -2.0411 -1.7731 -0.2473
  639MOL0     H86241   4.842   4.097   0.887  3.0281 -0.5817 -0.6116
  639MOL0     H86242   4.701   4.068   0.787 -1.3900 -0.8936  2.1973
  639MOL0     H86243   4.801   3.866   0.710  0.7321 -1.0415 -0.0166
  639MOL0     H86244   4.906   4.011   0.677 -0.0325  2.4602  0.7825
  639MOL0     H86245   3.951   3.550   1.281  1.6696 -1.4866  2.2654
  639MOL0     H86246   3.744   3.414   1.234  0.3707 -0.7544  0.5546
  639MOL0     H86247   3.495   3.188   0.915  0.8386  0.0398 -0.6403
  639MOL0     H86248   3.326   3.042   0.850 -2.9396 -1.0212  0.3870
  639MOL0     H86249   1.853   2.690   1.927  1.7267 -1.8689 -1.0920
  639MOL0     H86250   1.603   2.747   1.962  0.4717 -1.6288 -0.0814
  639MOL0     H86251   1.302   2.752   2.055  0.2558 -4.1098 -0.4275
  639MOL0     H86252   1.112   2.850   2.188  0.5000  1.8805  0.4703
  639MOL0     H86253   0.765   2.697   2.141  1.2648 -0.1749  0.0435
  639MOL0     H86254   0.691   2.847   2.049 -1.4863 -1.4956  1.8567
  639MOL0     H86255   0.757   2.815   2.344  1.7605 -0.1710 -1.3566
  639MOL0     H86256   0.594   2.779   2.262 -0.2752 -1.1994  0.6093
  639MOL0     H86257   0.755   3.035   2.257  0.0745  1.0395  0.0155
  639MOL0     H86258   0.630   3.002   2.378  1.3136  1.9136 -0.2434
  639MOL0     H86259   0.594   3.053   2.078  1.5473 -2.1916 -0.6998
  639MOL0     H86260   0.490   2.933   2.154  0.0950  0.1568  1.5871
  639MOL0     H86261   0.400   3.329   2.299  1.1977 -0.1280  0.8403
  639MOL0     H86262   0.832   2.772   1.886  0.0310  2.0123 -1.0006
  639MOL0     H86263   0.890   2.676   1.688 -0.5186 -0.6936 -0.8619
  639MOL0     H86264   1.058   2.666   1.628 -0.5494  0.5248 -0.4039
  639MOL0     H86265   0.979   2.531   1.737 -0.3851  0.2127 -1.2407
  640MOL0     O86266  10.577   0.605   1.815 -0.7647 -0.1724  0.2374
  640MOL0     C86267  10.550   0.642   1.928 -0.4216 -0.2701 -0.4729
  640MOL0     O86268  10.620   0.735   2.005 -0.2312  0.6026  0.3159
  640MOL0     C86269  10.748   0.779   1.971  0.5325  0.6426 -0.6087
  640MOL0     C86270  10.841   0.724   1.885 -0.4746  0.3461 -0.5441
  640MOL0     C86271  10.965   0.788   1.852  0.2191  0.6411 -0.2076
  640MOL0     C86272  10.994   0.912   1.904 -0.3890  0.3183  0.1316
  640MOL0     O86273  11.112   0.980   1.864 -0.1730 -0.1678 -0.7319
  640MOL0     C86274  11.121   1.123   1.890 -0.4952  0.5437  0.2913
  640MOL0     C86275  11.256   1.154   1.830  0.1779  0.7667  0.4934
  640MOL0     C86276  11.312   1.294   1.853  0.1652  0.2912 -0.4905
  640MOL0     C86277  11.435   1.317   1.769  0.5299  0.7136  0.9891
  640MOL0     C86278  11.548   1.215   1.787  0.1654 -0.6185  0.0087
  640MOL0     C86279  11.687   1.252   1.745 -0.6653  0.7607 -0.4005
  640MOL0     C86280  11.767   1.133   1.683 -0.1691 -0.0087  0.1531
  640MOL0     C86281  11.896   1.165   1.618  0.0339  0.9760  0.3134
  640MOL0     N86282  12.003   1.189   1.722  0.2520 -0.0726 -0.2550
  640MOL0     C86283  12.065   1.303   1.739  1.3520 -0.1216 -0.6766
  640MOL0     C86284  12.172   1.286   1.805 -0.0984 -0.7604 -0.7757
  640MOL0     C86285  12.258   1.398   1.856 -0.2957  0.1104 -0.2844
  640MOL0     C86286  12.402   1.390   1.791  0.9523 -0.3232  0.8701
  640MOL0     C86287  12.476   1.269   1.829 -0.2427  0.8415  0.0219
  640MOL0     C86288  12.605   1.265   1.753 -0.7222  0.2079  0.9401
  640MOL0     O86289  12.584   1.239   1.615  0.0305 -0.5582  0.4630
  640MOL0     C86290  12.696   1.250   1.537  0.5430 -0.0738  0.4852
  640MOL0     C86291  12.675   1.246   1.397  0.8842 -0.0478  0.2513
  640MOL0     C86292  12.779   1.233   1.301 -0.0693  0.5542 -0.1541
  640MOL0     C86293  12.907   1.210   1.345 -0.3626  0.1904  0.7217
  640MOL0     C86294  13.013   1.189   1.257 -0.2120  0.1039 -0.1532
  640MOL0     O86295  13.117   1.108   1.291 -0.1762 -0.1452 -0.0586
  640MOL0     C86296  13.223   1.100   1.199  0.2585  0.5128 -0.1574
  640MOL0     C86297  13.217   1.024   1.073 -0.5540 -0.4732  0.1798
  640MOL0     C86298  13.338   1.012   1.003  0.5267  0.0594 -0.7644
  640MOL0     C86299  13.454   1.087   1.038  0.1148 -0.1967  0.5623
  640MOL0     O86300  13.574   1.069   0.968  0.4999 -0.0699 -0.3362
  640MOL0     C86301  13.695   1.140   1.015  0.3459  0.7624  0.3203
  640MOL0     C86302  13.806   1.133   0.912  0.2906 -0.2937  0.8059
  640MOL0     C86303  13.802   1.243   0.811  0.5380 -0.3665 -0.0163
  640MOL0     C86304  13.942   1.255   0.746 -1.3355  0.3068  0.0167
  640MOL0     C86305  13.940   1.359   0.635 -0.8757 -0.9810  0.9905
  640MOL0     C86306  14.079   1.371   0.571  0.1564  0.2961 -0.2498
  640MOL0     C86307  14.163   1.474   0.634 -0.3434  0.3407 -0.0555
  640MOL0     C86308  14.277   1.499   0.536  1.0246  0.4184  0.7196
  640MOL0    Cl86309  14.207   1.571   0.393  0.1631 -0.2657 -0.6534
  640MOL0     C86310  13.450   1.157   1.167  0.0558 -0.3761  0.7869
  640MOL0     C86311  13.335   1.163   1.240 -0.0326 -0.2965  0.1566
  640MOL0     O86312  13.005   1.249   1.145  0.6209 -0.2972 -0.2335
  640MOL0     C86313  12.931   1.201   1.486 -0.5719 -0.2957 -0.1403
  640MOL0     C86314  12.825   1.214   1.574 -0.5050  0.0266  0.4236
  640MOL0     N86315  12.172   1.156   1.848 -0.8941 -0.1004  0.6877
  640MOL0     N86316  12.077   1.100   1.795  1.0238  0.5214  0.4777
  640MOL0     C86317  10.904   0.966   1.998 -0.3810 -0.3565 -0.0134
  640MOL0     C86318  10.789   0.896   2.031  0.0975  0.3413 -0.0586
  640MOL0     C86319  10.427   0.593   1.995 -0.6995 -0.1676 -0.5502
  640MOL0     C86320  10.378   0.663   2.114 -0.5535 -0.5643  0.3458
  640MOL0     C86321  10.258   0.626   2.173 -0.1848  0.5121  0.5200
  640MOL0     C86322  10.177   0.522   2.120  0.0406 -0.6004 -0.0010
  640MOL0     O86323  10.054   0.510   2.170  1.0531  0.3287 -0.1457
  640MOL0     C86324   9.984   0.383   2.143  0.0144 -0.1480 -1.2054
  640MOL0     C86325   9.880   0.330   2.257 -0.1977  0.5259  0.3553
  640MOL0     C86326   9.808   0.203   2.225  0.2415  0.2911 -0.8799
  640MOL0     C86327   9.715   0.142   2.334 -0.2099 -0.0250  0.0380
  640MOL0     C86328   9.637   0.028   2.280 -0.3426 -0.8113 -0.4801
  640MOL0     C86329   9.577  -0.065   2.241  0.1235  0.3817  0.1363
  640MOL0     C86330  10.227   0.458   2.007 -0.0076  0.3911 -0.2038
  640MOL0     C86331  10.352   0.484   1.948  0.2103 -0.4484 -0.3400
  640MOL0     C86332  10.406   0.396   1.839 -0.3229 -0.8155  0.0893
  640MOL0     H86333  10.836   0.625   1.842 -2.4896 -0.0854  0.5703
  640MOL0     H86334  11.039   0.736   1.791  0.5498  0.3896  0.3998
  640MOL0     H86335  11.048   1.177   1.827  2.5271  1.9990 -2.2460
  640MOL0     H86336  11.124   1.157   1.993  0.9831  1.4410 -0.0193
  640MOL0     H86337  11.251   1.137   1.722  0.9270 -0.9919  0.7097
  640MOL0     H86338  11.331   1.081   1.861  2.2373  1.8048 -1.6912
  640MOL0     H86339  11.317   1.310   1.961  1.9808  0.2818 -0.5345
  640MOL0     H86340  11.238   1.363   1.811 -0.5024  0.2945  0.6645
  640MOL0     H86341  11.405   1.302   1.665 -0.9873 -0.8778  1.6262
  640MOL0     H86342  11.475   1.419   1.767  3.1904 -0.2687  0.3663
  640MOL0     H86343  11.548   1.205   1.896 -0.1032  0.5737  0.1392
  640MOL0     H86344  11.514   1.123   1.739  2.0605 -0.6479 -1.3860
  640MOL0     H86345  11.690   1.333   1.671 -0.6463 -0.1018 -1.3519
  640MOL0     H86346  11.745   1.280   1.834  3.0983 -0.2469 -2.3246
  640MOL0     H86347  11.699   1.095   1.606 -2.2926  1.0304  1.4390
  640MOL0     H86348  11.794   1.050   1.749  1.9791  0.0607 -0.5448
  640MOL0     H86349  11.926   1.087   1.547 -1.0867  0.2290  0.6414
  640MOL0     H86350  11.883   1.258   1.562 -0.6466  0.0125 -1.2211
  640MOL0     H86351  12.026   1.400   1.708 -0.0534 -0.6699 -0.7051
  640MOL0     H86352  12.210   1.492   1.826 -0.0145 -0.8982 -4.5664
  640MOL0     H86353  12.254   1.407   1.965 -0.9996 -0.8440 -0.2201
  640MOL0     H86354  12.390   1.396   1.683 -0.9494  0.1907  1.0825
  640MOL0     H86355  12.462   1.478   1.817 -0.0627 -0.1470  2.7804
  640MOL0     H86356  12.418   1.180   1.804  0.3272  0.0317  1.4451
  640MOL0     H86357  12.499   1.269   1.937 -2.1605  2.1291  0.4776
  640MOL0     H86358  12.670   1.191   1.801  3.2004  2.3403 -0.6188
  640MOL0     H86359  12.657   1.361   1.759 -0.7985  0.5121 -1.9664
  640MOL0     H86360  12.572   1.255   1.363  0.1004 -0.6236  2.3092
  640MOL0     H86361  12.765   1.249   1.195  0.7207 -1.3322 -0.5700
  640MOL0     H86362  13.124   0.979   1.041  1.0381 -1.5647 -3.4353
  640MOL0     H86363  13.358   0.944   0.921  0.1696 -0.8887 -0.0731
  640MOL0     H86364  13.682   1.247   1.030  2.5185  1.5780 -2.6546
  640MOL0     H86365  13.739   1.092   1.104  0.7552  1.8035  0.6973
  640MOL0     H86366  13.894   1.130   0.976 -0.1064  0.8141  1.4340
  640MOL0     H86367  13.819   1.037   0.862 -1.8769 -0.4019  0.3345
  640MOL0     H86368  13.724   1.213   0.740  1.5531 -3.1201 -0.0747
  640MOL0     H86369  13.777   1.336   0.864 -2.3236 -1.6816  1.1258
  640MOL0     H86370  13.984   1.167   0.697 -1.1737  0.2770  0.2090
  640MOL0     H86371  14.013   1.268   0.829 -1.6673 -0.3332  0.4075
  640MOL0     H86372  13.906   1.456   0.672  0.2559 -0.1111 -0.1875
  640MOL0     H86373  13.869   1.333   0.556 -0.3446  0.7391 -0.1267
  640MOL0     H86374  14.123   1.271   0.583 -1.3172 -0.2491  1.0606
  640MOL0     H86375  14.072   1.381   0.462  4.6223  1.7338 -0.5982
  640MOL0     H86376  14.212   1.423   0.717  1.4950 -0.9501 -1.8379
  640MOL0     H86377  14.117   1.565   0.672  0.1106 -0.1754  1.8490
  640MOL0     H86378  14.364   1.554   0.574  1.8725  1.7673 -2.7767
  640MOL0     H86379  14.323   1.402   0.515 -0.9785 -0.7163  1.3696
  640MOL0     H86380  13.537   1.199   1.217  0.7527 -1.1251  0.2408
  640MOL0     H86381  13.331   1.219   1.333 -3.1455 -0.1555  0.0497
  640MOL0     H86382  13.029   1.182   1.530 -1.0306 -0.1085  1.0087
  640MOL0     H86383  12.851   1.194   1.678 -1.0453  3.1677  1.2672
  640MOL0     H86384  10.938   1.058   2.044 -0.3277  0.6686 -1.9996
  640MOL0     H86385  10.723   0.948   2.100 -0.6069 -1.2679  0.5138
  640MOL0     H86386  10.430   0.753   2.145  0.4409 -1.7739  2.4361
  640MOL0     H86387  10.236   0.683   2.263  1.4314  0.3604  1.0378
  640MOL0     H86388  10.054   0.300   2.128 -0.3319 -0.8964  1.0079
  640MOL0     H86389   9.923   0.402   2.054 -1.6203 -0.2504 -0.1469
  640MOL0     H86390   9.805   0.408   2.272 -1.3821 -0.1615 -1.6233
  640MOL0     H86391   9.932   0.304   2.350  1.1134 -0.8983 -0.7154
  640MOL0     H86392   9.887   0.132   2.198  2.3053  1.9279  0.5609
  640MOL0     H86393   9.738   0.221   2.142 -1.0843 -2.0079 -0.3586
  640MOL0     H86394   9.774   0.107   2.419  0.2300  1.4415  0.3672
  640MOL0     H86395   9.637   0.217   2.350  0.6279  0.9861 -0.4931
  640MOL0     H86396   9.518  -0.146   2.204 -0.6085  1.0533 -0.1946
  640MOL0     H86397  10.170   0.376   1.964 -1.9163 -0.1374  3.0074
  640MOL0     H86398  10.380   0.450   1.747  0.1259 -0.2290  0.3062
  640MOL0     H86399  10.513   0.382   1.851 -0.4886 -1.4636  0.9545
  640MOL0     H86400  10.352   0.301   1.838 -2.1817  0.0855  2.7752
  641MOL0     O86401   0.251   8.969   6.068 -0.2156 -0.2707 -0.2705
  641MOL0     C86402   0.224   8.861   6.017  0.1271 -0.3634  0.0455
  641MOL0     O86403   0.312   8.782   5.952 -0.1415  0.5368  1.2364
  641MOL0     C86404   0.449   8.782   5.971 -0.0210 -0.4306 -0.0098
  641MOL0     C86405   0.511   8.691   6.060 -0.2980  0.8377 -0.1207
  641MOL0     C86406   0.648   8.695   6.075  0.8115 -0.3809 -1.2900
  641MOL0     C86407   0.725   8.788   6.008 -0.1434 -0.0174  0.7255
  641MOL0     O86408   0.860   8.781   6.027 -0.7545  0.0325 -0.1147
  641MOL0     C86409   0.940   8.790   5.905  0.3036  0.3155  0.3780
  641MOL0     C86410   1.061   8.705   5.902 -0.5479  0.0044  0.0441
  641MOL0     C86411   1.170   8.735   6.018  0.0747  0.0699  0.2005
  641MOL0     C86412   1.238   8.597   6.055 -0.4979  0.4140 -0.1882
  641MOL0     C86413   1.346   8.598   6.163  0.2562 -0.1045  0.4947
  641MOL0     C86414   1.460   8.686   6.117  0.0943  0.3583  0.6412
  641MOL0     C86415   1.585   8.644   6.193 -0.7023 -0.8017 -0.3040
  641MOL0     C86416   1.702   8.728   6.133  0.1191 -0.3718 -0.5311
  641MOL0     N86417   1.822   8.707   6.209 -0.5814 -0.2878 -0.3895
  641MOL0     C86418   1.902   8.597   6.189 -0.1872 -0.2355  0.5296
  641MOL0     C86419   2.002   8.618   6.284  0.4227  0.5753  0.5651
  641MOL0     C86420   2.109   8.517   6.291 -0.4157 -0.1984 -0.4261
  641MOL0     C86421   2.166   8.491   6.437  0.3662  0.0123 -0.5901
  641MOL0     C86422   2.237   8.355   6.453  0.0455 -0.3453  0.7197
  641MOL0     C86423   2.316   8.331   6.583 -0.2156  0.1445  0.0830
  641MOL0     O86424   2.437   8.261   6.539 -0.6457  0.8849  0.1226
  641MOL0     C86425   2.546   8.255   6.624  0.3458  0.1900  0.0985
  641MOL0     C86426   2.547   8.299   6.763  0.2267 -0.0452  1.0929
  641MOL0     C86427   2.662   8.269   6.842 -0.0266 -0.5969  0.0017
  641MOL0     C86428   2.780   8.221   6.785  0.7658  0.1887  0.6468
  641MOL0     C86429   2.908   8.216   6.864  0.2832 -0.0508  0.4290
  641MOL0     O86430   3.026   8.188   6.797  1.0406 -0.2764  0.0456
  641MOL0     C86431   3.139   8.199   6.875  0.6893 -0.1788  0.3147
  641MOL0     C86432   3.177   8.102   6.970 -0.0900  0.5383 -0.1272
  641MOL0     C86433   3.295   8.118   7.041  0.5256 -0.3094 -0.6657
  641MOL0     C86434   3.380   8.225   7.018  0.1643  0.1879  1.2268
  641MOL0     O86435   3.499   8.234   7.079  0.1942  0.5521  0.3053
  641MOL0     C86436   3.485   8.240   7.228 -0.9314  0.4672  0.4893
  641MOL0     C86437   3.567   8.365   7.271 -0.7332  0.8308  0.3453
  641MOL0     C86438   3.710   8.317   7.290 -0.3355  0.0008 -0.4115
  641MOL0     C86439   3.787   8.304   7.151 -0.4769  0.3647  0.2524
  641MOL0     C86440   3.936   8.284   7.158 -0.8090 -0.6106  0.8353
  641MOL0     C86441   4.001   8.298   7.022 -0.2933 -0.2785 -0.3236
  641MOL0     C86442   3.966   8.180   6.927  0.5789 -0.2615 -0.0563
  641MOL0     C86443   4.026   8.191   6.783 -0.6003  0.4228  0.0419
  641MOL0    Cl86444   4.202   8.228   6.795 -0.3776  0.0760 -0.1425
  641MOL0     C86445   3.340   8.326   6.931 -0.1298 -0.4288  0.1879
  641MOL0     C86446   3.222   8.312   6.857 -0.4801  0.6962 -0.4161
  641MOL0     O86447   2.896   8.242   6.983 -0.2022 -0.4907  0.4884
  641MOL0     C86448   2.765   8.170   6.656  0.5740  0.2393 -0.8859
  641MOL0     C86449   2.655   8.183   6.570  0.0481 -0.1532  0.1253
  641MOL0     N86450   1.963   8.717   6.372 -0.0973  0.2635 -0.3848
  641MOL0     N86451   1.866   8.776   6.319 -0.3667 -0.9336  0.7346
  641MOL0     C86452   0.668   8.886   5.926  0.4046  0.5468  0.1673
  641MOL0     C86453   0.529   8.886   5.910  0.9902  0.3165 -0.1556
  641MOL0     C86454   0.088   8.809   6.016  0.1264  0.8547 -0.2833
  641MOL0     C86455   0.072   8.664   6.020 -0.2906 -0.7208  0.9211
  641MOL0     C86456  -0.051   8.607   6.024 -0.3833 -0.1169  0.4599
  641MOL0     C86457  -0.168   8.681   6.030 -0.1029 -0.0266 -0.1915
  641MOL0     O86458  -0.281   8.600   6.042  0.0457  0.5871 -0.0867
  641MOL0     C86459  -0.407   8.674   6.065 -0.5307 -0.2912 -0.6826
  641MOL0     C86460  -0.527   8.575   6.082 -0.1162  0.0215  0.3959
  641MOL0     C86461  -0.661   8.650   6.073 -0.5989 -0.4781  0.1051
  641MOL0     C86462  -0.686   8.750   6.179  0.0795 -0.4860  0.1462
  641MOL0     C86463  -0.807   8.825   6.168  0.1030  0.3604  0.6218
  641MOL0     C86464  -0.919   8.873   6.151 -0.7920  1.2742  0.1627
  641MOL0     C86465  -0.159   8.817   6.031 -0.2423 -0.6256  0.8986
  641MOL0     C86466  -0.037   8.881   6.027 -0.1114  0.1711  0.3051
  641MOL0     C86467  -0.031   9.032   6.023  0.4522  0.0955  0.0621
  641MOL0     H86468   0.461   8.606   6.106 -0.9692  1.5656  0.5243
  641MOL0     H86469   0.698   8.625   6.140 -0.9200 -0.9758 -0.5504
  641MOL0     H86470   0.886   8.751   5.818  0.8725  1.0953 -0.3502
  641MOL0     H86471   0.958   8.898   5.894  0.2133  0.3826  0.8760
  641MOL0     H86472   1.112   8.715   5.806  0.3518  1.4421  0.6344
  641MOL0     H86473   1.037   8.598   5.896 -0.1537 -0.1486  0.9660
  641MOL0     H86474   1.125   8.773   6.110 -0.8498  0.9384 -0.5860
  641MOL0     H86475   1.228   8.820   5.981 -1.4375  1.5063  0.9828
  641MOL0     H86476   1.155   8.539   6.098 -1.3021 -0.1418 -2.3807
  641MOL0     H86477   1.267   8.552   5.960  1.0659 -1.7198  1.2026
  641MOL0     H86478   1.318   8.650   6.255  2.1197  3.2725 -0.6712
  641MOL0     H86479   1.385   8.495   6.167 -1.4295 -1.0186 -3.2191
  641MOL0     H86480   1.470   8.654   6.013 -2.9937  0.5285  0.2078
  641MOL0     H86481   1.426   8.790   6.121 -2.3942 -0.4193  1.9924
  641MOL0     H86482   1.607   8.537   6.184  4.5295  0.0352 -0.4635
  641MOL0     H86483   1.574   8.679   6.296  0.9769  1.3019 -0.7599
  641MOL0     H86484   1.714   8.710   6.026  1.1053 -0.2313 -0.4486
  641MOL0     H86485   1.678   8.835   6.143  1.7246 -0.0681  0.3962
  641MOL0     H86486   1.906   8.520   6.112 -2.2814 -0.2066  0.3294
  641MOL0     H86487   2.072   8.424   6.249  0.6369  0.1422 -2.2284
  641MOL0     H86488   2.194   8.551   6.231  1.0934 -1.6903  0.7434
  641MOL0     H86489   2.234   8.573   6.462  0.7133 -0.5585  0.3665
  641MOL0     H86490   2.079   8.494   6.503  0.8294 -1.3647  0.1052
  641MOL0     H86491   2.304   8.365   6.367 -1.0065 -1.5473 -0.2841
  641MOL0     H86492   2.176   8.268   6.426  0.7094 -0.7914  0.6376
  641MOL0     H86493   2.262   8.271   6.657 -1.3199  2.1201  0.9494
  641MOL0     H86494   2.346   8.431   6.615 -5.6827  2.4511 -0.8744
  641MOL0     H86495   2.466   8.349   6.814 -1.9460 -2.1088 -0.0936
  641MOL0     H86496   2.649   8.278   6.950  1.2860 -2.3958  0.3581
  641MOL0     H86497   3.121   8.010   6.987  0.2884  0.3934  0.3519
  641MOL0     H86498   3.331   8.044   7.112 -1.9072 -0.1367  0.8725
  641MOL0     H86499   3.379   8.249   7.256 -1.8087  1.4124 -2.7658
  641MOL0     H86500   3.512   8.150   7.285  1.0607  1.3331  0.9794
  641MOL0     H86501   3.556   8.447   7.200  4.4383  0.9058 -0.7547
  641MOL0     H86502   3.526   8.397   7.368 -0.7889  1.3003  0.1715
  641MOL0     H86503   3.754   8.394   7.353 -0.5554 -1.7187  1.9503
  641MOL0     H86504   3.718   8.227   7.351  2.7120  1.5773  1.7661
  641MOL0     H86505   3.772   8.389   7.084 -1.3420 -0.4502 -0.6342
  641MOL0     H86506   3.746   8.221   7.093 -2.1960  0.6594  0.9766
  641MOL0     H86507   3.971   8.189   7.198  0.2152 -0.0472  1.3011
  641MOL0     H86508   3.970   8.363   7.226 -0.9968 -0.3196  0.5933
  641MOL0     H86509   3.963   8.394   6.986  0.3263  0.1015  0.0174
  641MOL0     H86510   4.109   8.301   7.039 -0.6938  1.0900  2.7672
  641MOL0     H86511   3.858   8.162   6.920  0.4066 -0.2506  1.8828
  641MOL0     H86512   4.012   8.088   6.963 -1.8267 -1.8896 -0.9290
  641MOL0     H86513   4.005   8.099   6.728 -0.2875  0.9247 -0.9324
  641MOL0     H86514   3.986   8.271   6.721 -0.4584  1.0239  0.7124
  641MOL0     H86515   3.413   8.407   6.928  0.9183 -1.3750 -2.3546
  641MOL0     H86516   3.178   8.393   6.800  1.2320  2.6822  0.9489
  641MOL0     H86517   2.848   8.115   6.612 -2.3554 -1.1661 -5.3803
  641MOL0     H86518   2.654   8.128   6.476 -1.1307 -0.1202  0.1085
  641MOL0     H86519   0.736   8.957   5.880 -0.8965  1.2720 -0.6721
  641MOL0     H86520   0.484   8.967   5.853 -0.1088 -1.1416 -1.4640
  641MOL0     H86521   0.158   8.598   6.019 -1.0607 -1.7433 -0.0218
  641MOL0     H86522  -0.053   8.499   6.026  0.5573 -0.1809 -0.8812
  641MOL0     H86523  -0.410   8.747   5.983  0.6086  0.2288 -0.2844
  641MOL0     H86524  -0.403   8.728   6.160 -2.2596 -1.6389  0.2094
  641MOL0     H86525  -0.532   8.517   6.174  2.0049 -1.5855 -0.4239
  641MOL0     H86526  -0.526   8.506   5.997  0.6686  0.8485 -0.2902
  641MOL0     H86527  -0.747   8.582   6.072 -1.2862  0.3683 -0.0431
  641MOL0     H86528  -0.657   8.703   5.977  0.8562 -1.1942 -0.2553
  641MOL0     H86529  -0.685   8.698   6.276 -0.5249  1.3911  1.2105
  641MOL0     H86530  -0.611   8.827   6.158 -1.0207  0.4409 -0.4691
  641MOL0     H86531  -1.014   8.912   6.121 -2.1315 -2.2678 -0.8046
  641MOL0     H86532  -0.254   8.867   6.042 -0.0129 -0.2433  1.1480
  641MOL0     H86533   0.030   9.072   6.105  3.2966  1.4346 -2.5383
  641MOL0     H86534   0.015   9.057   5.927  3.4995  1.0709  1.6409
  641MOL0     H86535  -0.128   9.079   6.039 -0.2877 -1.0144 -0.9947
  642MOL0     O86536   8.030   8.764   1.028  0.0112 -0.7885  0.1497
  642MOL0     C86537   7.987   8.650   1.044 -0.0671  0.9177 -0.1134
  642MOL0     O86538   8.056   8.540   1.089  0.3102 -0.1676 -0.2957
  642MOL0     C86539   8.190   8.566   1.118  0.1496 -0.2533  0.1182
  642MOL0     C86540   8.242   8.546   1.249  0.2808 -0.1285  0.2113
  642MOL0     C86541   8.377   8.570   1.283 -0.7313 -0.0573  0.0643
  642MOL0     C86542   8.457   8.625   1.175  0.1728 -0.7508 -1.1483
  642MOL0     O86543   8.579   8.678   1.205  0.1149  0.1489 -0.3900
  642MOL0     C86544   8.679   8.590   1.269  0.1053 -0.5499  0.6480
  642MOL0     C86545   8.812   8.662   1.268  0.5181 -0.4101 -0.2148
  642MOL0     C86546   8.865   8.665   1.125 -0.3472 -0.1817  0.4366
  642MOL0     C86547   9.001   8.735   1.106  0.4802 -0.4888  1.1886
  642MOL0     C86548   9.125   8.655   1.159  0.2116 -0.5843 -0.0310
  642MOL0     C86549   9.257   8.710   1.095 -0.4450 -0.0111 -0.3177
  642MOL0     C86550   9.376   8.628   1.140  0.2671 -0.0985  0.0925
  642MOL0     C86551   9.490   8.643   1.028 -0.6204  0.0928 -0.7569
  642MOL0     N86552   9.624   8.610   1.084  0.1660  0.2656 -0.5862
  642MOL0     C86553   9.719   8.526   1.027  0.0951 -0.0981  0.0430
  642MOL0     C86554   9.832   8.529   1.098  0.2063 -0.7224  1.1441
  642MOL0     C86555   9.970   8.481   1.070  0.1827 -0.0228 -0.8417
  642MOL0     C86556  10.010   8.515   0.921 -0.2171  0.6393 -0.1544
  642MOL0     C86557  10.152   8.460   0.891 -0.6674 -0.2231  0.5215
  642MOL0     C86558  10.217   8.510   0.767 -0.5944  0.0512 -0.3579
  642MOL0     O86559  10.229   8.650   0.767 -0.4217  0.2292  0.2306
  642MOL0     C86560  10.340   8.691   0.697 -0.1275  1.0118  0.0342
  642MOL0     C86561  10.380   8.628   0.572 -1.1445 -0.0597  0.8309
  642MOL0     C86562  10.483   8.680   0.497  0.8467  0.0621 -0.6373
  642MOL0     C86563  10.539   8.806   0.530 -0.5776  0.5957  0.1904
  642MOL0     C86564  10.636   8.869   0.434  0.4537  0.1713  0.4524
  642MOL0     O86565  10.648   8.803   0.307 -0.3244  0.4660 -0.0212
  642MOL0     C86566  10.736   8.850   0.214 -0.1327 -1.0030  0.2354
  642MOL0     C86567  10.762   8.987   0.195 -0.1287 -0.6695  0.4589
  642MOL0     C86568  10.861   9.022   0.106 -0.3393  0.6335 -0.2669
  642MOL0     C86569  10.932   8.933   0.027 -0.0763  0.3560 -1.1220
  642MOL0     O86570  11.047   8.977  -0.036  0.1425 -0.2062 -0.5238
  642MOL0     C86571  11.138   8.891  -0.107 -0.7720 -0.2066 -0.1426
  642MOL0     C86572  11.092   8.858  -0.250  0.4635  0.4022 -0.1388
  642MOL0     C86573  11.166   8.746  -0.325 -0.5636 -0.7669  0.0364
  642MOL0     C86574  11.096   8.685  -0.444  0.4771  0.8721 -0.5358
  642MOL0     C86575  11.064   8.790  -0.555 -0.5306  0.3813 -0.0611
  642MOL0     C86576  11.040   8.709  -0.682  0.5822  0.1160 -0.2881
  642MOL0     C86577  11.019   8.792  -0.812  0.5153  0.8953 -0.8975
  642MOL0     C86578  11.150   8.868  -0.861  0.2624 -0.2112 -1.5667
  642MOL0    Cl86579  11.271   8.757  -0.935  0.0124  0.6442 -0.3509
  642MOL0     C86580  10.898   8.796   0.039  0.0237  0.9457 -0.4447
  642MOL0     C86581  10.797   8.757   0.130  0.0199 -0.9374 -0.4349
  642MOL0     O86582  10.694   8.973   0.468  0.0610  0.4087  0.1838
  642MOL0     C86583  10.505   8.872   0.646  0.1249 -0.3781 -0.1879
  642MOL0     C86584  10.406   8.812   0.727 -0.4437 -0.0235 -0.2106
  642MOL0     N86585   9.797   8.608   1.202 -0.2908  0.1487 -0.7335
  642MOL0     N86586   9.678   8.658   1.194 -0.0390 -0.3521  0.4395
  642MOL0     C86587   8.407   8.640   1.046  0.3881 -0.1358  0.0159
  642MOL0     C86588   8.280   8.607   1.019  0.1914 -0.9733  0.4425
  642MOL0     C86589   7.843   8.624   1.031  0.1399 -0.2751 -0.4944
  642MOL0     C86590   7.770   8.715   0.948  0.1010  0.1741 -0.5451
  642MOL0     C86591   7.651   8.680   0.884 -0.0649 -0.5953 -0.4832
  642MOL0     C86592   7.585   8.565   0.926 -0.4414 -0.3778 -0.2376
  642MOL0     O86593   7.469   8.526   0.870  1.1672  0.0139 -0.2540
  642MOL0     C86594   7.354   8.621   0.883  0.7786  0.6252  0.0846
  642MOL0     C86595   7.299   8.625   1.030 -0.4853  0.6165  0.5214
  642MOL0     C86596   7.162   8.684   1.038  0.0619 -0.4092  0.1792
  642MOL0     C86597   7.116   8.720   1.184 -0.1409  0.6585 -0.1742
  642MOL0     C86598   7.095   8.593   1.260  0.4207 -0.5310 -1.4455
  642MOL0     C86599   7.083   8.495   1.333 -0.4314  0.2339  0.1895
  642MOL0     C86600   7.648   8.491   1.015 -0.7002  0.6105 -0.5635
  642MOL0     C86601   7.775   8.509   1.066  0.0694 -0.4315 -0.6866
  642MOL0     C86602   7.827   8.412   1.171  0.2516 -0.8222 -0.0341
  642MOL0     H86603   8.174   8.514   1.327  1.1625 -0.0886  1.0188
  642MOL0     H86604   8.416   8.575   1.385  1.4153  1.2366 -0.7433
  642MOL0     H86605   8.652   8.557   1.370  0.6439  1.2863  1.4245
  642MOL0     H86606   8.693   8.500   1.209 -0.8147  0.5906 -1.3871
  642MOL0     H86607   8.876   8.605   1.336  0.6641  1.5038  1.3641
  642MOL0     H86608   8.805   8.760   1.317  0.9304 -0.6520  0.3348
  642MOL0     H86609   8.797   8.716   1.057 -0.2504 -0.9913 -0.2736
  642MOL0     H86610   8.868   8.563   1.088 -1.6982 -0.6800  1.5931
  642MOL0     H86611   9.010   8.746   0.997 -3.6418  0.4973  0.7734
  642MOL0     H86612   8.993   8.836   1.148 -2.5164 -0.6435  1.1827
  642MOL0     H86613   9.130   8.651   1.269  3.6479  0.0736 -0.0385
  642MOL0     H86614   9.114   8.551   1.127 -2.6979 -0.0356 -1.0657
  642MOL0     H86615   9.253   8.715   0.985 -2.0741 -0.6120 -0.3247
  642MOL0     H86616   9.283   8.814   1.118  0.5145 -0.2093 -0.4714
  642MOL0     H86617   9.340   8.524   1.137  2.2416 -0.8648  1.2070
  642MOL0     H86618   9.411   8.650   1.241  0.4828 -0.3634  0.0750
  642MOL0     H86619   9.472   8.578   0.941 -0.4013  1.1666 -1.6286
  642MOL0     H86620   9.492   8.744   0.986 -1.9246  1.2825  1.8484
  642MOL0     H86621   9.717   8.476   0.930  0.5692 -0.9444  0.4595
  642MOL0     H86622  10.039   8.529   1.140  1.1818 -0.9278 -1.1811
  642MOL0     H86623   9.985   8.376   1.097 -0.5070  0.3571  1.1598
  642MOL0     H86624   9.939   8.474   0.848  0.8107 -0.6878 -0.4483
  642MOL0     H86625  10.003   8.624   0.919  0.1391  0.6772  0.5609
  642MOL0     H86626  10.151   8.352   0.877 -1.2144  0.0069 -1.4848
  642MOL0     H86627  10.215   8.484   0.977 -0.4114 -0.5601  0.4287
  642MOL0     H86628  10.165   8.484   0.674  0.4839  4.8990 -2.5996
  642MOL0     H86629  10.309   8.451   0.761  0.9038  1.9774  1.8773
  642MOL0     H86630  10.325   8.548   0.523 -0.4499  2.6745 -5.3251
  642MOL0     H86631  10.523   8.618   0.417 -0.3560 -1.2203 -0.2861
  642MOL0     H86632  10.722   9.073   0.248 -3.0667  0.1833 -2.7867
  642MOL0     H86633  10.894   9.125   0.096  3.8476 -0.4163  0.7195
  642MOL0     H86634  11.224   8.957  -0.125 -1.5008  0.7620 -0.1864
  642MOL0     H86635  11.176   8.804  -0.053  1.0805 -0.1713 -1.3043
  642MOL0     H86636  10.989   8.823  -0.246  0.1639  1.1945 -0.7013
  642MOL0     H86637  11.070   8.943  -0.315 -3.1997 -0.8929 -0.7925
  642MOL0     H86638  11.259   8.797  -0.351 -1.3844  0.7711  0.0063
  642MOL0     H86639  11.192   8.659  -0.263  0.0909 -0.4705  0.1835
  642MOL0     H86640  11.005   8.639  -0.403  0.2600  2.2418  0.5546
  642MOL0     H86641  11.150   8.596  -0.479 -0.5235 -0.2599  0.6888
  642MOL0     H86642  11.153   8.852  -0.571  0.1098 -0.0104  1.8146
  642MOL0     H86643  10.980   8.856  -0.532 -2.3912 -2.5255  2.1449
  642MOL0     H86644  11.124   8.640  -0.694 -0.0886 -0.9483  0.8464
  642MOL0     H86645  10.956   8.638  -0.679  0.7018 -0.0475 -0.7446
  642MOL0     H86646  10.943   8.867  -0.786 -0.0909 -0.1509  0.4735
  642MOL0     H86647  10.988   8.740  -0.903 -1.4802  1.9925 -0.9215
  642MOL0     H86648  11.128   8.936  -0.943 -3.9551  2.2218  1.2140
  642MOL0     H86649  11.194   8.932  -0.784  1.9361 -0.9970 -1.8246
  642MOL0     H86650  10.929   8.708  -0.017 -3.2074 -0.5322 -0.1636
  642MOL0     H86651  10.775   8.651   0.123  3.5260 -1.7610 -0.9784
  642MOL0     H86652  10.539   8.970   0.678  0.8464 -0.5801 -0.3149
  642MOL0     H86653  10.381   8.864   0.820 -0.1978 -3.7219  2.1375
  642MOL0     H86654   8.464   8.698   0.974  1.5520 -0.0403  0.9775
  642MOL0     H86655   8.246   8.639   0.921  0.6119  2.5018  1.2775
  642MOL0     H86656   7.813   8.808   0.911 -2.1547  0.6957 -2.0122
  642MOL0     H86657   7.634   8.746   0.799  1.7380 -1.2758 -1.4247
  642MOL0     H86658   7.269   8.577   0.831  1.1509  0.2976 -0.2483
  642MOL0     H86659   7.364   8.721   0.840 -0.2112  1.0049  0.7052
  642MOL0     H86660   7.365   8.694   1.084 -1.3902  2.2496 -0.4085
  642MOL0     H86661   7.304   8.526   1.076  0.5049 -0.5919 -1.9839
  642MOL0     H86662   7.079   8.627   0.994 -1.5493  2.0680 -0.2273
  642MOL0     H86663   7.173   8.776   0.980  0.4420  0.8939  2.2243
  642MOL0     H86664   7.185   8.780   1.244 -0.2147 -0.6995  1.3153
  642MOL0     H86665   7.025   8.778   1.171  0.9791  2.5532  0.0639
  642MOL0     H86666   7.066   8.412   1.399 -0.2385  0.0011 -0.0517
  642MOL0     H86667   7.602   8.398   1.049  0.3451  0.1200 -0.4401
  642MOL0     H86668   7.915   8.357   1.133 -0.0914 -0.4191 -1.4734
  642MOL0     H86669   7.851   8.459   1.267  0.4095  2.1221 -1.4069
  642MOL0     H86670   7.757   8.330   1.191  0.9220 -1.2962  0.4451
  643MOL0     O86671  10.532   8.972   1.942  0.0758  0.2158  0.0178
  643MOL0     C86672  10.405   8.975   1.946  0.3019 -0.0098  0.3656
  643MOL0     O86673  10.327   8.959   1.834 -0.1130  0.1541 -0.1403
  643MOL0     C86674  10.395   8.980   1.718  0.0240 -0.3723  0.4705
  643MOL0     C86675  10.473   8.884   1.662  0.2661  0.2762  0.2970
  643MOL0     C86676  10.536   8.891   1.542  0.4612 -0.5985 -0.5012
  643MOL0     C86677  10.524   8.998   1.467 -0.0904  0.8533 -0.0269
  643MOL0     O86678  10.596   8.982   1.349 -0.3366 -0.6229  0.4671
  643MOL0     C86679  10.571   9.078   1.236  0.0078  0.0596  1.2330
  643MOL0     C86680  10.661   9.056   1.116  0.2652 -0.0111  0.4335
  643MOL0     C86681  10.664   8.914   1.057  0.0100  0.0397 -0.9517
  643MOL0     C86682  10.781   8.897   0.953 -0.3397  0.4230 -0.0616
  643MOL0     C86683  10.928   8.919   1.019  1.0519  0.7427 -0.1708
  643MOL0     C86684  11.036   8.928   0.905  1.3102  0.6771 -0.9760
  643MOL0     C86685  11.177   8.924   0.957 -0.4396  0.1201  0.0529
  643MOL0     C86686  11.284   8.912   0.850  0.3300 -0.1027  0.3582
  643MOL0     N86687  11.417   8.885   0.917  0.6905  0.0079  0.2818
  643MOL0     C86688  11.456   8.785   1.006 -0.2514 -0.1614 -0.0957
  643MOL0     C86689  11.576   8.820   1.054 -0.2901  1.2434 -0.0484
  643MOL0     C86690  11.673   8.754   1.152 -0.8254  0.2873  0.4298
  643MOL0     C86691  11.675   8.598   1.128 -0.3478 -0.0511  0.0996
  643MOL0     C86692  11.798   8.524   1.188  0.1430  0.6176  0.4901
  643MOL0     C86693  11.913   8.544   1.100 -0.5286  0.2064  0.5935
  643MOL0     O86694  11.980   8.668   1.118  0.2783  0.3121 -0.3002
  643MOL0     C86695  12.106   8.685   1.064 -0.5146 -1.1242  0.5540
  643MOL0     C86696  12.189   8.584   1.021 -0.2383 -0.0931  0.9361
  643MOL0     C86697  12.317   8.617   0.971  0.3076  0.3674 -0.1540
  643MOL0     C86698  12.371   8.748   0.980  0.3499  0.4730  0.0130
  643MOL0     C86699  12.509   8.766   0.940 -0.8012  0.6616  0.0252
  643MOL0     O86700  12.573   8.879   0.976  0.0248  0.3336 -0.2284
  643MOL0     C86701  12.715   8.880   0.961 -0.2213 -0.2077  0.2072
  643MOL0     C86702  12.806   8.787   1.016 -0.0878 -0.6287  0.6484
  643MOL0     C86703  12.944   8.806   0.994  0.4185  0.5202 -0.5739
  643MOL0     C86704  12.994   8.914   0.917 -0.8041  0.3846 -0.5575
  643MOL0     O86705  13.127   8.935   0.913 -0.4732 -0.0774  0.3730
  643MOL0     C86706  13.189   9.066   0.885 -0.4496  0.5396  0.0725
  643MOL0     C86707  13.335   9.040   0.877  0.0706 -0.0172  0.6481
  643MOL0     C86708  13.415   9.159   0.825  0.4638  0.3042 -0.3053
  643MOL0     C86709  13.555   9.112   0.784 -0.0476 -0.6585  1.2854
  643MOL0     C86710  13.642   9.227   0.751 -0.8009 -0.2570 -0.0825
  643MOL0     C86711  13.770   9.187   0.678 -0.1060 -0.3558 -0.0620
  643MOL0     C86712  13.855   9.313   0.643 -0.0719  0.9345  1.2107
  643MOL0     C86713  13.980   9.270   0.570 -0.6637  0.4186 -0.8231
  643MOL0    Cl86714  13.944   9.175   0.420 -0.1977 -0.2444  0.4390
  643MOL0     C86715  12.906   9.005   0.864 -1.2604 -0.5749  0.6734
  643MOL0     C86716  12.767   8.992   0.881 -0.4810 -0.3411  0.5845
  643MOL0     O86717  12.550   8.681   0.858 -0.1874  0.4084  0.3249
  643MOL0     C86718  12.291   8.846   1.027  0.9317  0.0513  0.6834
  643MOL0     C86719  12.157   8.820   1.065 -1.0524 -0.6348 -0.1671
  643MOL0     N86720  11.620   8.931   0.983 -0.5812  0.2239  0.1315
  643MOL0     N86721  11.523   8.977   0.913 -0.2534 -0.2192  0.3577
  643MOL0     C86722  10.448   9.105   1.518 -0.9972  0.8153 -0.3527
  643MOL0     C86723  10.373   9.093   1.634 -0.0438  0.3781 -0.2810
  643MOL0     C86724  10.337   8.976   2.083  0.7793  0.4675 -0.0517
  643MOL0     C86725  10.396   8.912   2.190 -0.3881 -0.5926  0.0367
  643MOL0     C86726  10.336   8.895   2.315  0.5685 -0.0557 -0.1760
  643MOL0     C86727  10.209   8.960   2.337  1.1518  0.4384 -0.2407
  643MOL0     O86728  10.132   8.949   2.445 -0.1519  0.1148  0.4081
  643MOL0     C86729  10.198   8.918   2.566 -0.5057  0.1866  0.0827
  643MOL0     C86730  10.156   8.777   2.618  0.5621 -0.8175  0.1722
  643MOL0     C86731   9.999   8.760   2.615  0.2516  0.0285  0.2200
  643MOL0     C86732   9.946   8.628   2.669  0.3222 -0.5186 -0.1779
  643MOL0     C86733   9.944   8.619   2.819  0.6246 -0.0072  0.6237
  643MOL0     C86734   9.946   8.601   2.936  0.2552  0.4283 -0.1027
  643MOL0     C86735  10.153   9.022   2.225 -0.0464  0.1629 -0.3257
  643MOL0     C86736  10.215   9.026   2.101  0.3355  0.0777  0.1499
  643MOL0     C86737  10.133   9.078   1.983 -0.0954  0.0656  1.3257
  643MOL0     H86738  10.492   8.793   1.717  0.9375  0.2437  0.0256
  643MOL0     H86739  10.601   8.814   1.502 -0.0989 -0.0812 -2.5498
  643MOL0     H86740  10.474   9.055   1.190  1.1320  1.4219 -2.2074
  643MOL0     H86741  10.585   9.177   1.280 -0.7633  0.8385 -0.1708
  643MOL0     H86742  10.760   9.081   1.157 -0.2484  0.2928  1.5404
  643MOL0     H86743  10.646   9.132   1.038  3.0101  1.4319  1.1519
  643MOL0     H86744  10.562   8.889   1.027 -0.3935  0.5732 -0.0442
  643MOL0     H86745  10.700   8.862   1.146  0.7083 -0.8076 -1.7024
  643MOL0     H86746  10.769   8.794   0.918 -0.1049 -1.5723  4.8243
  643MOL0     H86747  10.780   8.963   0.867 -0.7152 -3.0752 -2.9858
  643MOL0     H86748  10.942   9.005   1.084  2.3422  1.5596 -1.4698
  643MOL0     H86749  10.951   8.831   1.080  1.1318 -0.4415 -1.8414
  643MOL0     H86750  11.022   8.837   0.847 -1.3590  0.5020 -0.1708
  643MOL0     H86751  11.016   9.022   0.852  1.3131  0.5095 -1.2764
  643MOL0     H86752  11.185   8.839   1.026  0.3595  1.7462  2.0865
  643MOL0     H86753  11.197   9.010   1.022 -0.6417 -0.5613  1.0413
  643MOL0     H86754  11.252   8.834   0.781  0.5130 -2.3607  2.6662
  643MOL0     H86755  11.296   9.009   0.802  1.6322  0.1684  1.1558
  643MOL0     H86756  11.390   8.710   1.049 -2.7201  2.8320  1.7531
  643MOL0     H86757  11.775   8.793   1.144 -1.2595  1.2620 -0.5952
  643MOL0     H86758  11.640   8.767   1.256 -2.1239  0.3348  0.0305
  643MOL0     H86759  11.587   8.548   1.170  0.2869 -1.9093 -0.6396
  643MOL0     H86760  11.677   8.577   1.020  2.8572 -0.0554  0.0586
  643MOL0     H86761  11.761   8.421   1.183  0.9373  0.3018  0.8571
  643MOL0     H86762  11.821   8.545   1.293  2.1382  0.2644  0.1509
  643MOL0     H86763  11.884   8.536   0.995 -0.2284  0.0069  0.5272
  643MOL0     H86764  11.983   8.466   1.130 -1.3041 -0.2656  1.2087
  643MOL0     H86765  12.154   8.482   1.018 -1.7957  0.4238  0.7289
  643MOL0     H86766  12.393   8.540   0.958  1.6073  1.7833 -1.3762
  643MOL0     H86767  12.778   8.702   1.077 -0.1882 -0.9890  0.1037
  643MOL0     H86768  13.014   8.745   1.050  2.8502  3.5543 -0.0647
  643MOL0     H86769  13.150   9.098   0.788 -0.5946  0.1702  0.0049
  643MOL0     H86770  13.168   9.146   0.957  1.7140  0.4135  0.9014
  643MOL0     H86771  13.376   9.011   0.974 -0.2778 -1.1301  0.4811
  643MOL0     H86772  13.353   8.949   0.819 -0.5728 -0.3485  0.9514
  643MOL0     H86773  13.367   9.210   0.741 -2.0691  1.8232  1.8996
  643MOL0     H86774  13.424   9.228   0.909  0.5117  3.6743 -2.8323
  643MOL0     H86775  13.552   9.053   0.692 -1.0781 -2.1989  2.2490
  643MOL0     H86776  13.584   9.044   0.866 -1.6803 -1.0711  1.5568
  643MOL0     H86777  13.669   9.274   0.846  0.5329 -1.2445  0.0474
  643MOL0     H86778  13.583   9.290   0.684 -2.8778 -3.2412 -1.2614
  643MOL0     H86779  13.825   9.130   0.754 -4.0833  1.9370  5.2324
  643MOL0     H86780  13.753   9.133   0.585 -0.3926  2.0191 -1.4585
  643MOL0     H86781  13.877   9.371   0.734  0.3283  3.5569 -0.4632
  643MOL0     H86782  13.796   9.371   0.572  1.0515 -1.7918 -2.2071
  643MOL0     H86783  14.045   9.354   0.542 -0.0302 -0.0394 -0.7425
  643MOL0     H86784  14.033   9.195   0.631  0.1958 -1.1227 -3.3298
  643MOL0     H86785  12.934   9.095   0.811  0.0684 -1.9738 -1.1367
  643MOL0     H86786  12.709   9.071   0.835  1.0600  0.2390 -0.4637
  643MOL0     H86787  12.325   8.948   1.047  0.4765  0.1957  0.7289
  643MOL0     H86788  12.109   8.907   1.108  0.0625 -0.1774  0.1759
  643MOL0     H86789  10.435   9.197   1.462 -0.0517  1.2320  0.0934
  643MOL0     H86790  10.307   9.171   1.672 -0.7419  0.1259 -0.9525
  643MOL0     H86791  10.492   8.863   2.174 -1.0220 -0.9695 -3.1865
  643MOL0     H86792  10.379   8.823   2.385 -2.4139 -1.7121  0.1010
  643MOL0     H86793  10.180   8.994   2.643 -1.2578  0.6087 -0.5059
  643MOL0     H86794  10.307   8.931   2.559 -0.6104  2.6128  1.6729
  643MOL0     H86795  10.194   8.784   2.721 -3.1710 -2.0772  1.8320
  643MOL0     H86796  10.204   8.700   2.557  0.9171 -0.3433 -0.1555
  643MOL0     H86797   9.954   8.748   2.516 -2.7364 -1.5425  1.6502
  643MOL0     H86798   9.945   8.839   2.667  0.1873 -1.5949  2.8227
  643MOL0     H86799   9.838   8.621   2.657 -0.2026  0.2655  3.0694
  643MOL0     H86800  10.000   8.546   2.622  2.4671  1.9743 -2.4207
  643MOL0     H86801   9.949   8.589   3.042  1.1594 -2.3772 -0.3813
  643MOL0     H86802  10.060   9.077   2.239  0.8141  2.1621 -1.9241
  643MOL0     H86803  10.178   9.155   1.919 -2.9461  0.6602 -0.1413
  643MOL0     H86804  10.104   8.995   1.918 -0.2461  0.8619  0.3539
  643MOL0     H86805  10.041   9.125   2.018  1.3893  3.1467  1.4307
  644MOL0     O86806   7.917   8.393   8.035 -0.4076 -0.3352  0.1695
  644MOL0     C86807   7.893   8.379   8.153  0.1953 -0.0496 -0.0172
  644MOL0     O86808   7.981   8.387   8.255  0.1174 -0.1367  0.1487
  644MOL0     C86809   8.116   8.394   8.224  0.1680  0.3031 -0.6873
  644MOL0     C86810   8.184   8.512   8.240  0.2522 -0.5711 -0.4021
  644MOL0     C86811   8.319   8.531   8.217 -0.1565  0.5079  0.8436
  644MOL0     C86812   8.408   8.419   8.188  0.2426  0.5101 -0.6194
  644MOL0     O86813   8.549   8.415   8.191 -0.3022  0.5309  0.2899
  644MOL0     C86814   8.611   8.545   8.220 -0.3774 -0.5749 -0.0040
  644MOL0     C86815   8.762   8.533   8.180  0.4381  0.1106  0.0603
  644MOL0     C86816   8.831   8.664   8.187  0.1264 -0.8855  0.4814
  644MOL0     C86817   8.984   8.644   8.199 -0.2337 -1.4744 -0.2589
  644MOL0     C86818   9.061   8.764   8.263 -0.0989  0.4959  0.7127
  644MOL0     C86819   9.212   8.746   8.250 -0.3563  1.1058 -0.4468
  644MOL0     C86820   9.269   8.639   8.352 -0.0438 -0.4184  0.4600
  644MOL0     C86821   9.428   8.649   8.362 -0.3124 -0.1793 -0.0328
  644MOL0     N86822   9.494   8.594   8.247 -0.2610 -0.4590 -0.5778
  644MOL0     C86823   9.597   8.507   8.261 -0.1494  0.3603  0.2621
  644MOL0     C86824   9.646   8.484   8.135 -0.1294 -0.5392 -0.7716
  644MOL0     C86825   9.757   8.385   8.112  0.5661 -0.1006  0.3903
  644MOL0     C86826   9.890   8.454   8.156  0.7851 -0.4003  0.2612
  644MOL0     C86827   9.932   8.591   8.084 -0.3593  0.3274 -0.7742
  644MOL0     C86828  10.077   8.639   8.100 -0.4738 -0.4351  0.2008
  644MOL0     O86829  10.161   8.533   8.065 -0.3863 -0.2499 -0.0054
  644MOL0     C86830  10.289   8.571   8.083  0.6137 -0.3995 -0.0745
  644MOL0     C86831  10.341   8.705   8.100  1.0544  0.2867 -0.2160
  644MOL0     C86832  10.483   8.729   8.086  0.1207  0.0098 -0.4063
  644MOL0     C86833  10.567   8.615   8.090 -0.0256  0.1427  0.0269
  644MOL0     C86834  10.716   8.634   8.081 -0.2857 -0.9604  0.1646
  644MOL0     O86835  10.774   8.764   8.072  0.1119  0.0178 -0.1775
  644MOL0     C86836  10.914   8.765   8.069 -0.0504 -0.2957 -0.1967
  644MOL0     C86837  10.986   8.784   7.953  0.4230 -0.4067  0.4517
  644MOL0     C86838  11.128   8.793   7.951 -0.1037  0.3249 -0.3687
  644MOL0     C86839  11.199   8.787   8.073 -0.6148  0.2576  0.2325
  644MOL0     O86840  11.328   8.811   8.080 -0.6680 -0.3303 -0.1760
  644MOL0     C86841  11.394   8.879   7.976 -0.8133  0.0918 -0.2281
  644MOL0     C86842  11.526   8.930   8.025 -0.0280  0.4176  0.0801
  644MOL0     C86843  11.517   9.062   8.107 -0.2459 -0.0950  0.1484
  644MOL0     C86844  11.643   9.125   8.167 -0.1695  0.9733  0.8826
  644MOL0     C86845  11.618   9.256   8.244  0.5696 -0.2336 -0.4338
  644MOL0     C86846  11.738   9.298   8.332  1.5090  0.2751 -1.5027
  644MOL0     C86847  11.801   9.421   8.271  0.7425 -1.0492  0.1807
  644MOL0     C86848  11.948   9.442   8.309  0.1050  0.6300 -0.0349
  644MOL0    Cl86849  11.975   9.421   8.495 -0.0267  0.1327 -0.1476
  644MOL0     C86850  11.126   8.757   8.187 -0.2286  0.2863 -0.4757
  644MOL0     C86851  10.988   8.758   8.185 -0.1122 -0.2093  0.3544
  644MOL0     O86852  10.783   8.533   8.090 -0.3497 -0.2076  0.2907
  644MOL0     C86853  10.510   8.487   8.091  0.0221  0.4327  1.3937
  644MOL0     C86854  10.378   8.471   8.096  1.0546  0.0861 -0.4454
  644MOL0     N86855   9.576   8.568   8.051 -0.6979 -0.3599 -0.4258
  644MOL0     N86856   9.493   8.635   8.122 -0.4950  0.6863  0.0163
  644MOL0     C86857   8.328   8.301   8.167 -0.9389 -0.0959 -0.4060
  644MOL0     C86858   8.188   8.289   8.183 -0.4575 -0.8314 -0.1419
  644MOL0     C86859   7.749   8.365   8.196  0.2431 -0.0679 -0.2350
  644MOL0     C86860   7.708   8.426   8.322  0.4235  0.1248 -0.2266
  644MOL0     C86861   7.579   8.399   8.376  0.1700 -0.5049  0.4134
  644MOL0     C86862   7.483   8.329   8.296 -0.5202 -0.7121 -0.2293
  644MOL0     O86863   7.353   8.297   8.330  0.2170  0.1748  0.2543
  644MOL0     C86864   7.289   8.345   8.448 -0.4699  0.5507  0.2479
  644MOL0     C86865   7.201   8.473   8.425 -0.8857 -0.0296  0.6137
  644MOL0     C86866   7.154   8.538   8.553  0.6752  0.3883  0.3429
  644MOL0     C86867   7.033   8.626   8.512 -1.0392 -0.3514  0.7607
  644MOL0     C86868   6.960   8.683   8.627 -0.5824  0.0955 -0.4876
  644MOL0     C86869   6.902   8.730   8.723  0.1324 -0.4085 -0.6775
  644MOL0     C86870   7.516   8.286   8.176 -0.6504  0.7767  1.0884
  644MOL0     C86871   7.648   8.296   8.123 -0.6971  0.1114  0.3343
  644MOL0     C86872   7.674   8.238   7.985 -0.2020  0.0492 -0.4043
  644MOL0     H86873   8.126   8.603   8.252 -0.7171 -1.3487  0.9927
  644MOL0     H86874   8.353   8.633   8.228 -0.1219  0.8586 -1.8612
  644MOL0     H86875   8.564   8.631   8.172  0.0757 -1.0655 -1.3675
  644MOL0     H86876   8.612   8.559   8.329 -0.0886 -0.9436  0.0446
  644MOL0     H86877   8.760   8.498   8.076 -3.6592 -2.1217  0.6856
  644MOL0     H86878   8.805   8.453   8.240  1.0988  0.5420  0.1740
  644MOL0     H86879   8.791   8.710   8.278  0.2063  1.1528 -0.4628
  644MOL0     H86880   8.797   8.717   8.098  1.0664 -3.0002 -1.2190
  644MOL0     H86881   9.002   8.551   8.254  0.3179 -2.5055 -2.0841
  644MOL0     H86882   9.018   8.625   8.097 -0.3874  2.6315 -1.2563
  644MOL0     H86883   9.026   8.847   8.201  0.5218 -0.4507 -0.9917
  644MOL0     H86884   9.039   8.781   8.368  0.7652  1.7921  0.7029
  644MOL0     H86885   9.240   8.718   8.148  0.6116 -0.0951  0.1260
  644MOL0     H86886   9.254   8.847   8.262  2.8283 -0.0875 -0.5181
  644MOL0     H86887   9.239   8.540   8.317 -0.2369  0.9034 -3.6790
  644MOL0     H86888   9.227   8.674   8.447 -0.4298  2.9265 -0.7990
  644MOL0     H86889   9.456   8.753   8.380 -0.8805  0.3733 -2.1209
  644MOL0     H86890   9.461   8.594   8.451 -1.2741 -2.8610 -1.2152
  644MOL0     H86891   9.624   8.466   8.358 -1.7679  0.5742  0.8342
  644MOL0     H86892   9.744   8.297   8.175 -0.3787  1.8668  3.1532
  644MOL0     H86893   9.759   8.370   8.004 -0.2095  1.4480  0.1279
  644MOL0     H86894   9.883   8.472   8.263  0.4529 -0.3331  0.2288
  644MOL0     H86895   9.979   8.393   8.137 -0.1198 -1.5553 -0.4145
  644MOL0     H86896   9.856   8.664   8.112 -1.3001 -0.8853 -0.0943
  644MOL0     H86897   9.916   8.581   7.976 -1.4550  1.7582 -0.7711
  644MOL0     H86898  10.098   8.669   8.203  0.4940 -0.9835  0.1749
  644MOL0     H86899  10.083   8.722   8.029 -1.2917 -1.3044 -0.9333
  644MOL0     H86900  10.271   8.784   8.126  0.9031 -0.4843  2.0123
  644MOL0     H86901  10.519   8.831   8.083  0.4351  0.0348  2.1224
  644MOL0     H86902  10.928   8.774   7.861  2.7092 -0.9067 -1.0162
  644MOL0     H86903  11.179   8.813   7.857 -0.7628  0.6901 -0.6542
  644MOL0     H86904  11.418   8.804   7.900  0.8848  0.7911 -0.4345
  644MOL0     H86905  11.336   8.957   7.925 -1.7204 -0.0928  0.4956
  644MOL0     H86906  11.574   8.851   8.083 -1.2927 -0.7876 -0.4514
  644MOL0     H86907  11.578   8.946   7.930 -2.9564 -1.2874 -2.0098
  644MOL0     H86908  11.469   9.143   8.052 -0.1326 -1.7368 -2.5037
  644MOL0     H86909  11.456   9.046   8.196  2.0973 -0.9799  1.7053
  644MOL0     H86910  11.717   9.134   8.087 -0.7481  0.5810  0.2880
  644MOL0     H86911  11.684   9.046   8.230 -0.0035  1.0004  0.8086
  644MOL0     H86912  11.529   9.232   8.304  0.2191 -0.8057 -1.1664
  644MOL0     H86913  11.591   9.338   8.177  2.6748 -0.3928 -1.5606
  644MOL0     H86914  11.705   9.324   8.433  0.8533  0.4477 -1.7536
  644MOL0     H86915  11.807   9.213   8.338 -0.2944 -1.2200 -1.0395
  644MOL0     H86916  11.754   9.516   8.297 -1.7762 -1.5907 -1.9729
  644MOL0     H86917  11.801   9.424   8.162 -2.5381  1.2417  0.1022
  644MOL0     H86918  12.004   9.370   8.248 -2.6039 -1.7230  0.0150
  644MOL0     H86919  11.980   9.544   8.290 -1.3490  0.5924 -3.1667
  644MOL0     H86920  11.169   8.735   8.284 -1.1944 -3.0392 -0.6590
  644MOL0     H86921  10.938   8.733   8.278  0.2939  0.7690  0.8576
  644MOL0     H86922  10.578   8.403   8.083 -1.2147 -0.4533 -1.1895
  644MOL0     H86923  10.347   8.367   8.095  1.0470  0.0419  1.4665
  644MOL0     H86924   8.381   8.209   8.141 -0.6136 -0.3633  1.1446
  644MOL0     H86925   8.133   8.202   8.147  0.5086 -2.2209  1.5615
  644MOL0     H86926   7.783   8.490   8.367  0.3669  0.7681 -1.0306
  644MOL0     H86927   7.550   8.436   8.474  1.6362 -0.9879  1.0671
  644MOL0     H86928   7.361   8.363   8.529 -0.6386  0.2486  0.4716
  644MOL0     H86929   7.223   8.269   8.492 -2.8569  1.6771 -1.1909
  644MOL0     H86930   7.115   8.430   8.372 -0.5924 -0.6022  0.5887
  644MOL0     H86931   7.259   8.544   8.365 -0.9071  0.9736  1.7430
  644MOL0     H86932   7.233   8.590   8.608  0.6623 -0.8239  1.5672
  644MOL0     H86933   7.120   8.458   8.619 -2.4349  0.7982 -0.6072
  644MOL0     H86934   7.078   8.706   8.452 -1.3352 -0.1711  0.7720
  644MOL0     H86935   6.969   8.568   8.445  2.3702 -2.0729 -1.2438
  644MOL0     H86936   6.855   8.756   8.816  1.6709  0.3200 -0.0614
  644MOL0     H86937   7.452   8.228   8.111  0.8663  0.6840 -0.3863
  644MOL0     H86938   7.764   8.176   7.985  0.9532  1.5109  2.7758
  644MOL0     H86939   7.588   8.179   7.951  0.9114  0.3559 -4.1865
  644MOL0     H86940   7.702   8.320   7.919  0.6719  1.1519  1.2733
  645MOL0     O86941   1.581  10.093   6.136 -0.4771 -0.1373 -0.1389
  645MOL0     C86942   1.503  10.058   6.052 -0.2515 -0.0294 -0.7315
  645MOL0     O86943   1.532   9.963   5.957 -0.9096  0.7482  0.1217
  645MOL0     C86944   1.668   9.938   5.956  0.0032  0.9740  0.4191
  645MOL0     C86945   1.727   9.860   6.063 -0.3854  0.0654  0.1874
  645MOL0     C86946   1.871   9.856   6.065  0.4525 -0.1525  0.2608
  645MOL0     C86947   1.958   9.903   5.968  0.4969 -0.2193  0.6877
  645MOL0     O86948   2.088   9.879   5.987 -0.2103  0.2608  0.2872
  645MOL0     C86949   2.193   9.905   5.889 -0.1025  0.0213 -0.7598
  645MOL0     C86950   2.325   9.848   5.944  0.1063 -0.2189 -0.3374
  645MOL0     C86951   2.433   9.860   5.835  0.1565 -0.0001 -0.1376
  645MOL0     C86952   2.539   9.744   5.825  0.1089 -0.4666 -0.1146
  645MOL0     C86953   2.661   9.791   5.735  0.0396  0.6461  0.4533
  645MOL0     C86954   2.781   9.847   5.810 -0.1268  0.6865  0.0184
  645MOL0     C86955   2.885   9.733   5.848 -0.6718  0.1785 -0.1991
  645MOL0     C86956   2.923   9.635   5.735  0.3111  0.2828 -0.1422
  645MOL0     N86957   3.062   9.596   5.731 -0.1178 -0.5301 -0.7451
  645MOL0     C86958   3.138   9.562   5.836 -0.4817 -0.4799 -0.6021
  645MOL0     C86959   3.253   9.515   5.781  0.6397  0.3081  0.1402
  645MOL0     C86960   3.366   9.457   5.869  0.0973  0.2897  0.7631
  645MOL0     C86961   3.350   9.302   5.892 -0.1603 -0.1508 -0.9705
  645MOL0     C86962   3.362   9.215   5.768 -0.5534 -0.3086  0.4332
  645MOL0     C86963   3.347   9.067   5.805 -0.1909  0.8188  0.1116
  645MOL0     O86964   3.354   8.984   5.689  0.2147 -0.6548 -0.3003
  645MOL0     C86965   3.293   8.866   5.700  0.8755  1.2428  0.1767
  645MOL0     C86966   3.343   8.756   5.758  0.3332 -0.0320  0.1623
  645MOL0     C86967   3.266   8.642   5.776  0.2394 -0.0220 -0.2300
  645MOL0     C86968   3.127   8.643   5.736  0.2134 -0.5921  0.0465
  645MOL0     C86969   3.040   8.533   5.769  0.1151  0.2758  0.5036
  645MOL0     O86970   2.908   8.561   5.775  0.1749 -0.5489 -0.0811
  645MOL0     C86971   2.822   8.462   5.832  0.7443 -0.2190  0.6036
  645MOL0     C86972   2.690   8.463   5.784 -0.0859 -0.3600 -0.0823
  645MOL0     C86973   2.593   8.379   5.843 -0.5582 -0.3787  1.0203
  645MOL0     C86974   2.622   8.292   5.945  0.0084  0.0793 -0.4336
  645MOL0     O86975   2.527   8.220   6.010  0.5894  0.3372  0.2928
  645MOL0     C86976   2.390   8.272   6.012  0.2468 -0.5070  0.2872
  645MOL0     C86977   2.317   8.201   6.124 -0.6647 -0.8533 -0.8156
  645MOL0     C86978   2.290   8.050   6.093  0.7193 -0.1737 -0.0912
  645MOL0     C86979   2.155   8.035   6.014  0.0508  0.8414  0.0220
  645MOL0     C86980   2.101   7.890   6.001 -0.7042  0.1369 -0.3824
  645MOL0     C86981   2.013   7.875   5.877  0.5001  0.7075  0.0283
  645MOL0     C86982   1.882   7.945   5.893  0.3136  0.1975 -0.1759
  645MOL0     C86983   1.787   7.907   5.771 -0.4691 -0.0009 -0.4511
  645MOL0    Cl86984   1.624   7.957   5.770  0.0663  0.8300  0.2439
  645MOL0     C86985   2.753   8.283   5.990  0.0573  0.4069  0.5687
  645MOL0     C86986   2.850   8.370   5.942 -0.4737  0.3979 -0.3556
  645MOL0     O86987   3.093   8.428   5.803  0.2337 -1.0646  0.0779
  645MOL0     C86988   3.076   8.760   5.680 -0.3769  0.1957  0.1903
  645MOL0     C86989   3.159   8.870   5.661 -0.0614  0.6442  0.5680
  645MOL0     N86990   3.239   9.519   5.646  0.3370  0.0623 -0.1728
  645MOL0     N86991   3.125   9.575   5.613  0.2101 -1.1449 -0.3892
  645MOL0     C86992   1.898   9.959   5.855  0.5657  0.0224  1.2243
  645MOL0     C86993   1.756   9.976   5.850  0.3214 -0.0631  0.1375
  645MOL0     C86994   1.361  10.114   6.044 -0.5240  0.2552  0.3238
  645MOL0     C86995   1.263  10.030   5.984  0.3884 -0.4470  0.5550
  645MOL0     C86996   1.130  10.067   5.965  0.8049  0.1330 -0.2362
  645MOL0     C86997   1.094  10.194   6.010 -0.6992  0.0287  0.4942
  645MOL0     O86998   0.955  10.211   6.013  0.3740 -0.5340 -0.1802
  645MOL0     C86999   0.889  10.325   6.062 -0.8140  0.7762 -0.3143
  645MOL0     C87000   0.738  10.307   6.046  0.4138  0.6632  0.1174
  645MOL0     C87001   0.658  10.424   6.124 -0.6934 -0.0676  0.5373
  645MOL0     C87002   0.514  10.451   6.115 -0.2978  0.1672  0.2192
  645MOL0     C87003   0.470  10.493   5.988  0.8692  0.0876  0.1491
  645MOL0     C87004   0.433  10.517   5.873  0.1441  0.0290  0.1661
  645MOL0     C87005   1.180  10.283   6.061 -0.5147  0.1155 -0.2004
  645MOL0     C87006   1.312  10.242   6.089 -0.3260  0.3072 -0.3644
  645MOL0     C87007   1.400  10.331   6.168  0.0381  0.7188  0.7004
  645MOL0     H87008   1.666   9.825   6.146 -2.1789  0.7981 -0.7543
  645MOL0     H87009   1.911   9.800   6.148 -1.9827 -4.1565 -1.0021
  645MOL0     H87010   2.166   9.858   5.794  2.1405  1.4154 -2.1890
  645MOL0     H87011   2.204  10.013   5.876  2.0031  0.0178  0.6159
  645MOL0     H87012   2.306   9.746   5.978 -0.0145  0.0573  0.4637
  645MOL0     H87013   2.344   9.900   6.039 -2.7297 -1.0906  0.8173
  645MOL0     H87014   2.493   9.950   5.854  0.5229 -0.8578  3.3617
  645MOL0     H87015   2.394   9.876   5.734  1.6406  1.2795 -0.5581
  645MOL0     H87016   2.577   9.716   5.924  3.2157 -0.0595 -1.0866
  645MOL0     H87017   2.500   9.649   5.787 -0.1312 -1.0209  1.4372
  645MOL0     H87018   2.695   9.708   5.672  0.9147 -0.2502  2.0550
  645MOL0     H87019   2.618   9.862   5.664 -1.6261  0.1209  0.8918
  645MOL0     H87020   2.834   9.924   5.752  0.1386 -0.3036 -1.0845
  645MOL0     H87021   2.755   9.893   5.905  4.0653  1.5417  0.9489
  645MOL0     H87022   2.847   9.681   5.937  2.4454  2.1883  2.5588
  645MOL0     H87023   2.980   9.776   5.881 -0.9199 -0.1605  1.0330
  645MOL0     H87024   2.861   9.545   5.743  1.0461 -0.2939 -0.8217
  645MOL0     H87025   2.907   9.680   5.636  0.4905  2.4000  0.7303
  645MOL0     H87026   3.112   9.567   5.941 -1.4773  0.9210 -0.8919
  645MOL0     H87027   3.460   9.465   5.814 -1.0504 -2.9538 -2.0130
  645MOL0     H87028   3.370   9.516   5.961 -1.1307  2.5122 -0.5173
  645MOL0     H87029   3.424   9.273   5.967 -2.6773 -1.5057  1.1862
  645MOL0     H87030   3.260   9.278   5.950  0.9818 -1.4019  0.3589
  645MOL0     H87031   3.464   9.223   5.729 -0.3414  0.3668  1.0858
  645MOL0     H87032   3.290   9.249   5.693  0.2848 -0.6111 -0.5257
  645MOL0     H87033   3.252   9.056   5.857 -0.8025  2.7025 -0.5341
  645MOL0     H87034   3.419   9.036   5.881  0.9578  0.3945 -1.1019
  645MOL0     H87035   3.449   8.757   5.783  0.3860 -0.3416 -0.0464
  645MOL0     H87036   3.319   8.555   5.812  0.1544 -0.0086 -0.0733
  645MOL0     H87037   2.656   8.527   5.703 -0.1729  2.8122  2.2846
  645MOL0     H87038   2.490   8.402   5.818 -0.0088  1.4091  0.1905
  645MOL0     H87039   2.381   8.376   6.043 -4.3340 -1.2512  2.3729
  645MOL0     H87040   2.344   8.266   5.913  1.8137  0.8926 -0.5739
  645MOL0     H87041   2.383   8.201   6.211 -0.2382 -2.7492 -1.1015
  645MOL0     H87042   2.224   8.248   6.159  0.7607 -0.1777  2.4762
  645MOL0     H87043   2.380   8.017   6.040  1.1693  2.1144 -0.8728
  645MOL0     H87044   2.292   8.001   6.190  1.5914  0.7272  0.3671
  645MOL0     H87045   2.164   8.063   5.909  1.1198 -1.2728 -0.5220
  645MOL0     H87046   2.072   8.089   6.060 -1.1997 -0.0289 -1.1210
  645MOL0     H87047   2.040   7.873   6.090  0.5939 -1.3790  0.2607
  645MOL0     H87048   2.178   7.812   6.000 -0.3962  0.4218 -1.5712
  645MOL0     H87049   2.065   7.909   5.787 -2.6952 -1.3233 -2.7899
  645MOL0     H87050   1.988   7.772   5.853 -0.3561  1.1740 -1.2046
  645MOL0     H87051   1.894   8.053   5.907 -1.3809  0.5557 -1.2665
  645MOL0     H87052   1.839   7.908   5.986 -0.5253  1.5288 -0.0070
  645MOL0     H87053   1.841   7.955   5.689 -1.2102  0.4533 -0.6820
  645MOL0     H87054   1.789   7.800   5.750 -1.9743  0.4394 -3.3256
  645MOL0     H87055   2.779   8.207   6.064  0.7071 -1.1137 -1.1402
  645MOL0     H87056   2.952   8.380   5.978  0.0361 -1.9172 -0.9708
  645MOL0     H87057   2.969   8.764   5.660 -0.3981 -0.1934  0.2173
  645MOL0     H87058   3.134   8.953   5.595  0.6231 -0.4130 -1.0877
  645MOL0     H87059   1.951   9.997   5.768 -1.4871 -0.0612 -0.1126
  645MOL0     H87060   1.715  10.030   5.765  0.0277 -1.8859 -0.9333
  645MOL0     H87061   1.289   9.935   5.939 -1.2267 -0.4363 -0.4861
  645MOL0     H87062   1.060   9.999   5.917 -0.3929  2.2319 -1.6526
  645MOL0     H87063   0.915  10.413   6.004  0.4402  1.4067  1.1277
  645MOL0     H87064   0.915  10.348   6.166  0.1501  1.0548 -0.6117
  645MOL0     H87065   0.708  10.209   6.084  0.8156  0.4199 -0.1762
  645MOL0     H87066   0.708  10.303   5.941  0.7624 -0.3415  0.0407
  645MOL0     H87067   0.698  10.524   6.104 -2.0521  1.2193  3.6205
  645MOL0     H87068   0.687  10.400   6.227 -0.0434 -0.6328  0.2313
  645MOL0     H87069   0.473  10.356   6.151  4.2172 -2.2681 -0.3345
  645MOL0     H87070   0.492  10.533   6.184  1.8543 -0.3564  1.6225
  645MOL0     H87071   0.415  10.552   5.773  3.9471 -0.9806 -1.0783
  645MOL0     H87072   1.146  10.378   6.103 -1.4680 -0.1969 -0.2360
  645MOL0     H87073   1.339  10.422   6.169 -2.0791 -0.6359  1.4268
  645MOL0     H87074   1.394  10.294   6.270 -2.1293 -2.9766 -0.5640
  645MOL0     H87075   1.497  10.346   6.119 -0.9327 -0.9156 -1.9419
  646MOL0     O87076   1.406  10.915   0.806  0.4483  0.4007 -0.4243
  646MOL0     C87077   1.311  10.862   0.862  0.3491  0.6438  0.1107
  646MOL0     O87078   1.300  10.842   0.996 -0.1887  0.4405  0.0795
  646MOL0     C87079   1.403  10.890   1.075 -0.0295  0.6053 -0.3254
  646MOL0     C87080   1.468  10.802   1.162  0.6355 -0.4240 -0.6796
  646MOL0     C87081   1.554  10.853   1.266  0.1096  0.3459  0.4687
  646MOL0     C87082   1.572  10.990   1.282 -0.4528  0.6756 -0.7513
  646MOL0     O87083   1.649  11.032   1.385  0.1931  0.0954 -0.1279
  646MOL0     C87084   1.730  11.150   1.368  0.3030  0.0008 -0.5469
  646MOL0     C87085   1.811  11.188   1.492  0.0886 -0.1560 -0.3441
  646MOL0     C87086   1.894  11.312   1.465  1.5588 -0.0967  0.0596
  646MOL0     C87087   1.988  11.335   1.587  0.2650 -0.6561 -0.1216
  646MOL0     C87088   2.070  11.462   1.568  0.0695 -0.1162  0.4699
  646MOL0     C87089   2.165  11.458   1.443  0.5205  0.0630 -0.2063
  646MOL0     C87090   2.287  11.347   1.455  0.0839 -0.8808 -0.5805
  646MOL0     C87091   2.361  11.342   1.318 -0.1995 -0.8989  0.6058
  646MOL0     N87092   2.431  11.474   1.301 -0.8044  0.5251  0.7932
  646MOL0     C87093   2.565  11.489   1.316 -0.8695  0.6924 -0.4997
  646MOL0     C87094   2.596  11.604   1.250 -0.1639  0.1609  0.0826
  646MOL0     C87095   2.744  11.649   1.242  0.2898  1.0204  0.3115
  646MOL0     C87096   2.764  11.791   1.303 -0.8397 -0.4779  0.5583
  646MOL0     C87097   2.793  11.790   1.452 -0.4774 -0.6615 -0.4297
  646MOL0     C87098   2.675  11.798   1.541 -0.7862  0.0240  0.8028
  646MOL0     O87099   2.643  11.665   1.596 -0.3564 -0.2369  0.3387
  646MOL0     C87100   2.554  11.665   1.700  0.3356 -0.2441  0.6150
  646MOL0     C87101   2.598  11.621   1.830 -0.1083 -0.2866  0.7375
  646MOL0     C87102   2.498  11.608   1.925  0.6386 -0.0870  0.5130
  646MOL0     C87103   2.365  11.633   1.907 -0.3876  0.7320  0.3554
  646MOL0     C87104   2.261  11.610   2.010 -0.1417  0.0589 -0.3228
  646MOL0     O87105   2.309  11.622   2.133  0.2925  0.2246  0.1992
  646MOL0     C87106   2.232  11.599   2.242  0.5006 -1.2131 -0.2001
  646MOL0     C87107   2.123  11.687   2.274 -0.2746  0.8903 -0.4426
  646MOL0     C87108   2.055  11.675   2.396  0.1167  0.2858 -0.3099
  646MOL0     C87109   2.102  11.587   2.496  0.5076 -0.9678  0.1678
  646MOL0     O87110   2.049  11.568   2.621 -0.5609 -1.0501  0.0032
  646MOL0     C87111   1.992  11.669   2.692  0.3662  0.3145  0.3151
  646MOL0     C87112   1.928  11.610   2.810  0.5348 -0.2272  0.1532
  646MOL0     C87113   1.806  11.520   2.774 -0.0676 -0.2485 -0.6345
  646MOL0     C87114   1.746  11.459   2.905 -0.5879  0.0736  0.7758
  646MOL0     C87115   1.613  11.387   2.875  0.3592  0.1392  0.7552
  646MOL0     C87116   1.626  11.271   2.775 -0.4465 -0.0681 -1.2502
  646MOL0     C87117   1.501  11.179   2.768  0.8316  0.2206 -0.5523
  646MOL0     C87118   1.487  11.117   2.632 -0.8019  0.3936  0.4221
  646MOL0    Cl87119   1.569  10.963   2.617 -0.2943 -0.0929 -0.0411
  646MOL0     C87120   2.207  11.491   2.463  0.4977  0.3591  0.1029
  646MOL0     C87121   2.267  11.500   2.339 -0.1594  1.1936  0.0189
  646MOL0     O87122   2.145  11.582   1.980  0.4656 -0.3365 -1.1626
  646MOL0     C87123   2.320  11.681   1.783 -0.8773 -0.0137  0.3833
  646MOL0     C87124   2.415  11.693   1.679 -0.1859 -0.2929  0.1118
  646MOL0     N87125   2.482  11.643   1.186 -0.2773  0.3185  0.3047
  646MOL0     N87126   2.384  11.568   1.216  0.3578 -0.2251 -0.3689
  646MOL0     C87127   1.508  11.074   1.194  0.5268  0.5236  0.7437
  646MOL0     C87128   1.421  11.025   1.094 -0.6836  0.4401 -0.0565
  646MOL0     C87129   1.191  10.824   0.786 -0.7324 -0.1351  0.5656
  646MOL0     C87130   1.079  10.762   0.849  0.7615  0.6063  0.6559
  646MOL0     C87131   0.966  10.720   0.777 -0.4338  0.1064  1.6004
  646MOL0     C87132   0.969  10.706   0.639  0.4327 -0.5279  0.8612
  646MOL0     O87133   0.860  10.669   0.559  0.5134 -0.1026 -0.1825
  646MOL0     C87134   0.737  10.631   0.620 -0.2712 -0.6325 -0.1507
  646MOL0     C87135   0.648  10.537   0.526  0.6133  0.4278  0.1952
  646MOL0     C87136   0.644  10.587   0.379  0.0783  0.5149  0.4939
  646MOL0     C87137   0.513  10.524   0.314  0.3961 -0.0709  0.1282
  646MOL0     C87138   0.466  10.608   0.195 -0.6639 -0.0851  0.2170
  646MOL0     C87139   0.425  10.678   0.109  0.4590  0.5846  0.1889
  646MOL0     C87140   1.079  10.763   0.580  0.0176 -0.2267 -0.4545
  646MOL0     C87141   1.186  10.824   0.637 -0.2617  0.4980  0.4288
  646MOL0     C87142   1.288  10.884   0.540 -0.5472 -0.3532  0.6925
  646MOL0     H87143   1.458  10.694   1.157 -2.5063 -0.1956 -1.6658
  646MOL0     H87144   1.599  10.781   1.334  1.5316 -0.1794 -0.9774
  646MOL0     H87145   1.799  11.137   1.284 -0.5824  1.2606 -1.5073
  646MOL0     H87146   1.667  11.235   1.342 -1.4374 -1.2735 -0.6429
  646MOL0     H87147   1.871  11.099   1.515  2.6901  0.7884 -2.8064
  646MOL0     H87148   1.743  11.221   1.571  0.1657  0.7796 -0.6574
  646MOL0     H87149   1.836  11.404   1.450  1.3120  0.2185  2.5168
  646MOL0     H87150   1.947  11.286   1.373 -1.9301 -2.3376 -1.5152
  646MOL0     H87151   1.926  11.344   1.677 -3.7986 -0.3503 -2.6637
  646MOL0     H87152   2.053  11.250   1.606  1.2352 -0.0891 -0.7955
  646MOL0     H87153   2.000  11.545   1.559 -1.2130 -1.2440 -0.5632
  646MOL0     H87154   2.127  11.493   1.656  1.2431  0.5839 -0.5068
  646MOL0     H87155   2.099  11.438   1.358  1.5344 -2.5600 -0.4928
  646MOL0     H87156   2.216  11.553   1.422  1.0762 -0.0440  0.6222
  646MOL0     H87157   2.245  11.248   1.474 -0.6372 -0.4520  0.1681
  646MOL0     H87158   2.354  11.368   1.539 -0.8847 -0.9785  0.2448
  646MOL0     H87159   2.446  11.273   1.307  1.7207  1.2838  0.9322
  646MOL0     H87160   2.295  11.334   1.232  1.7705  1.9285 -1.3551
  646MOL0     H87161   2.636  11.428   1.371 -0.0090  0.2307 -2.0574
  646MOL0     H87162   2.820  11.577   1.276 -0.9700 -1.1785 -1.2201
  646MOL0     H87163   2.769  11.658   1.136  0.0181  3.4338  0.4133
  646MOL0     H87164   2.854  11.836   1.258 -0.0835 -2.1620  0.3112
  646MOL0     H87165   2.686  11.863   1.276 -0.0672  0.7267  1.4296
  646MOL0     H87166   2.854  11.878   1.476 -0.0381 -1.1469  0.2629
  646MOL0     H87167   2.857  11.705   1.477  1.5653  0.8999 -0.0532
  646MOL0     H87168   2.587  11.843   1.494 -2.3795 -0.2740  3.2989
  646MOL0     H87169   2.702  11.862   1.626  0.4657 -0.1192  0.5228
  646MOL0     H87170   2.704  11.626   1.851 -0.0458  1.2801  0.1601
  646MOL0     H87171   2.526  11.574   2.024  1.3040 -0.8820  0.0651
  646MOL0     H87172   2.076  11.751   2.200 -2.2732 -0.8486 -0.8080
  646MOL0     H87173   1.966  11.733   2.420  1.3582  1.8444  0.7283
  646MOL0     H87174   2.071  11.740   2.718 -0.3517  1.9296 -1.6691
  646MOL0     H87175   1.921  11.731   2.637  1.8303  0.3187 -1.6794
  646MOL0     H87176   2.003  11.549   2.859  0.3771 -0.3136  0.2875
  646MOL0     H87177   1.899  11.681   2.889 -2.6878 -1.1735 -0.0230
  646MOL0     H87178   1.727  11.574   2.721 -1.7273 -2.0145 -0.0897
  646MOL0     H87179   1.839  11.436   2.712  0.7918 -0.0818 -0.4138
  646MOL0     H87180   1.726  11.543   2.972  1.5887  0.8072  0.5876
  646MOL0     H87181   1.823  11.392   2.946  1.7351  0.6711 -2.2730
  646MOL0     H87182   1.543  11.461   2.836 -1.6259 -0.6743  2.6395
  646MOL0     H87183   1.580  11.359   2.975 -0.8325  2.0797  0.9399
  646MOL0     H87184   1.652  11.310   2.677  2.4070 -2.2324 -1.4684
  646MOL0     H87185   1.707  11.203   2.804 -0.3370 -0.5612 -2.6424
  646MOL0     H87186   1.416  11.247   2.770  0.3674 -0.2807  2.4757
  646MOL0     H87187   1.491  11.108   2.851 -0.1802  1.2916  0.2845
  646MOL0     H87188   1.382  11.108   2.604 -0.4938  1.2052 -1.1184
  646MOL0     H87189   1.532  11.187   2.561  0.4765 -1.1354 -0.3394
  646MOL0     H87190   2.240  11.414   2.533 -1.0540 -1.3828 -0.9746
  646MOL0     H87191   2.341  11.429   2.304 -0.7884  0.9821 -0.9388
  646MOL0     H87192   2.216  11.705   1.767 -0.8163  0.4249  0.6476
  646MOL0     H87193   2.379  11.708   1.578  1.1814 -0.1287 -0.3832
  646MOL0     H87194   1.519  11.182   1.193 -0.9611  0.7012 -0.5374
  646MOL0     H87195   1.374  11.096   1.027  0.2933  2.3789  1.2200
  646MOL0     H87196   1.072  10.756   0.957 -5.0708  1.2419  0.6086
  646MOL0     H87197   0.881  10.686   0.835 -1.2239 -0.6538  0.0624
  646MOL0     H87198   0.679  10.720   0.646  1.7536  0.2551  1.6919
  646MOL0     H87199   0.759  10.570   0.708  1.8189 -1.1654 -0.9756
  646MOL0     H87200   0.549  10.517   0.569  0.7847  3.2779  2.2361
  646MOL0     H87201   0.678  10.432   0.520 -3.9297 -1.0035 -1.6808
  646MOL0     H87202   0.732  10.554   0.323 -0.1377 -1.5219  1.2973
  646MOL0     H87203   0.646  10.697   0.383 -0.8313  0.5092  2.0989
  646MOL0     H87204   0.526  10.419   0.283  0.0385 -0.5024  1.3766
  646MOL0     H87205   0.423  10.533   0.376 -1.1505  3.0640 -2.3279
  646MOL0     H87206   0.410  10.735   0.019  0.9392 -0.8934 -0.8653
  646MOL0     H87207   1.072  10.772   0.472  4.3585  1.0699 -0.8040
  646MOL0     H87208   1.269  10.831   0.447 -1.1756  0.8958  0.0860
  646MOL0     H87209   1.284  10.992   0.526 -1.9112 -0.4456  0.1897
  646MOL0     H87210   1.388  10.857   0.574  0.2514  1.5108 -0.0604
  647MOL0     O87211  10.721   0.792   3.569  1.0532 -0.0687 -0.0511
  647MOL0     C87212  10.644   0.781   3.471  0.5226  0.2930 -0.0910
  647MOL0     O87213  10.671   0.824   3.347 -0.0979 -0.5373 -0.4829
  647MOL0     C87214  10.777   0.897   3.322  0.2331  0.2209  0.3757
  647MOL0     C87215  10.830   0.995   3.403 -0.1343 -0.4100  0.6962
  647MOL0     C87216  10.947   1.072   3.374 -0.5357  0.3944 -0.5510
  647MOL0     C87217  11.007   1.054   3.253  0.1203  0.0261  0.2524
  647MOL0     O87218  11.122   1.121   3.233  0.0086 -0.0147 -0.1230
  647MOL0     C87219  11.198   1.104   3.118  0.1559 -0.1641  0.0834
  647MOL0     C87220  11.327   1.174   3.126  0.3800 -0.7217 -0.2496
  647MOL0     C87221  11.418   1.111   3.228 -0.7512  0.4018  0.0787
  647MOL0     C87222  11.524   1.210   3.290  0.4186  1.7799 -0.4332
  647MOL0     C87223  11.627   1.141   3.376 -0.6650 -0.1579 -0.2634
  647MOL0     C87224  11.744   1.241   3.393 -0.1508 -0.0588  0.3176
  647MOL0     C87225  11.830   1.203   3.514 -0.7781  0.3448 -0.2375
  647MOL0     C87226  11.919   1.324   3.530  0.3554 -0.2485 -0.5679
  647MOL0     N87227  12.027   1.314   3.633  0.0637  0.2362 -0.0133
  647MOL0     C87228  12.073   1.192   3.686 -0.5766 -0.0127 -0.7087
  647MOL0     C87229  12.168   1.230   3.774 -0.9946  0.0751 -0.6277
  647MOL0     C87230  12.232   1.119   3.862 -0.4685 -0.7472  0.5087
  647MOL0     C87231  12.193   1.132   4.016  0.8315 -0.7925  0.2438
  647MOL0     C87232  12.291   1.051   4.108 -0.3057  0.3483 -0.0545
  647MOL0     C87233  12.431   1.122   4.125  0.1701  0.0162 -0.6012
  647MOL0     O87234  12.493   1.081   4.245  0.3571  0.4476  0.0644
  647MOL0     C87235  12.630   1.091   4.256 -0.3952 -0.8088 -0.5334
  647MOL0     C87236  12.707   0.975   4.249 -0.5640 -0.7626  0.2318
  647MOL0     C87237  12.842   0.979   4.269 -0.0786  0.0067  0.8816
  647MOL0     C87238  12.914   1.102   4.280 -0.7776  0.6573  0.7999
  647MOL0     C87239  13.069   1.098   4.311 -0.4831 -0.9640  0.0091
  647MOL0     O87240  13.127   1.209   4.366 -0.3103  0.4096 -0.7157
  647MOL0     C87241  13.247   1.178   4.427 -0.1115 -0.7866  0.2769
  647MOL0     C87242  13.294   1.052   4.474 -0.0394 -0.1575  0.4514
  647MOL0     C87243  13.411   1.028   4.544 -0.1407  0.1205  0.0160
  647MOL0     C87244  13.479   1.139   4.583 -0.0662 -0.6349  0.2301
  647MOL0     O87245  13.588   1.117   4.656 -0.0090  0.6092  0.0429
  647MOL0     C87246  13.712   1.189   4.628  0.4111 -0.6257  0.1061
  647MOL0     C87247  13.822   1.089   4.694  0.4578 -0.6738 -0.0802
  647MOL0     C87248  13.954   1.147   4.657 -0.0836  0.3703 -0.2000
  647MOL0     C87249  14.067   1.091   4.735 -0.0575 -0.4534  0.2331
  647MOL0     C87250  14.202   1.108   4.659  0.1171  0.2765 -0.0058
  647MOL0     C87251  14.308   1.025   4.732  0.1408 -0.1041  0.1469
  647MOL0     C87252  14.451   1.024   4.665  0.5089  0.5608 -0.1416
  647MOL0     C87253  14.530   0.901   4.714  0.3005  0.1840 -0.8682
  647MOL0    Cl87254  14.692   0.902   4.645 -0.0968  0.1494 -0.4746
  647MOL0     C87255  13.446   1.271   4.538  0.0306 -0.4901 -0.5162
  647MOL0     C87256  13.334   1.288   4.454  0.5249  0.1611 -0.3929
  647MOL0     O87257  13.132   1.005   4.260 -0.2437 -0.0117 -0.0382
  647MOL0     C87258  12.836   1.225   4.278 -0.2396  0.4979  0.8415
  647MOL0     C87259  12.701   1.212   4.264  0.1741  0.5936  0.2136
  647MOL0     N87260  12.178   1.374   3.778  0.4168 -0.1859  0.3987
  647MOL0     N87261  12.094   1.421   3.690  1.0171 -0.3884 -0.0206
  647MOL0     C87262  10.947   0.963   3.167  1.4506  0.0233  0.7926
  647MOL0     C87263  10.835   0.882   3.195  0.5732  0.0078  0.1332
  647MOL0     C87264  10.509   0.720   3.499 -0.9273  0.1482  0.1280
  647MOL0     C87265  10.494   0.647   3.620  0.1655 -0.4209  0.5400
  647MOL0     C87266  10.381   0.577   3.648 -0.3270 -0.7524 -1.3490
  647MOL0     C87267  10.274   0.567   3.560 -0.4678 -0.3946 -0.3799
  647MOL0     O87268  10.162   0.492   3.569 -0.2343 -0.4728  0.4947
  647MOL0     C87269  10.137   0.410   3.683 -0.6924 -0.1791  0.3710
  647MOL0     C87270  10.004   0.337   3.677 -0.5371 -0.3019 -0.0814
  647MOL0     C87271   9.892   0.436   3.655  0.6362 -0.2539 -0.8988
  647MOL0     C87272   9.758   0.359   3.657 -0.0450  0.0491  0.3925
  647MOL0     C87273   9.722   0.329   3.791  1.0527 -0.1140 -1.3019
  647MOL0     C87274   9.694   0.299   3.910  0.4321 -0.2116 -0.0105
  647MOL0     C87275  10.288   0.644   3.442 -0.5725  0.0156 -0.1931
  647MOL0     C87276  10.394   0.716   3.410 -1.0127  0.4521 -0.7758
  647MOL0     C87277  10.384   0.794   3.283  0.8376 -0.1405 -0.1487
  647MOL0     H87278  10.791   1.028   3.499 -0.5713  2.9497 -0.4894
  647MOL0     H87279  10.996   1.131   3.450 -0.5751 -0.5323  0.2183
  647MOL0     H87280  11.216   0.997   3.100 -1.0913 -0.0065 -2.5330
  647MOL0     H87281  11.143   1.134   3.029 -1.9829  0.5369  1.5591
  647MOL0     H87282  11.318   1.281   3.147 -0.5498 -0.9838  0.8090
  647MOL0     H87283  11.377   1.172   3.029 -0.6394  0.0982 -0.8171
  647MOL0     H87284  11.482   1.035   3.181  2.0117  1.3895  2.0369
  647MOL0     H87285  11.374   1.069   3.319  3.4101  1.0516  2.6638
  647MOL0     H87286  11.576   1.251   3.203 -0.3679  0.6819 -1.4596
  647MOL0     H87287  11.471   1.289   3.343  0.6240  2.7279 -1.5848
  647MOL0     H87288  11.584   1.113   3.473  0.2123  2.7066  1.0657
  647MOL0     H87289  11.667   1.050   3.331 -3.5255 -1.7465  0.2064
  647MOL0     H87290  11.796   1.259   3.298  0.5508  0.0085  0.7110
  647MOL0     H87291  11.692   1.332   3.423 -0.3150 -0.8296  2.5234
  647MOL0     H87292  11.881   1.114   3.477 -1.6326 -0.8433  1.3114
  647MOL0     H87293  11.772   1.178   3.603 -3.3382  2.6526 -1.1011
  647MOL0     H87294  11.955   1.360   3.433 -3.9593  0.3369 -2.2237
  647MOL0     H87295  11.854   1.408   3.554 -1.4050 -1.1136 -1.9981
  647MOL0     H87296  12.031   1.093   3.672 -1.5154  0.4489 -1.2641
  647MOL0     H87297  12.207   1.020   3.824  1.5539 -1.6928  1.4723
  647MOL0     H87298  12.341   1.130   3.857 -0.2690 -3.1082 -3.0781
  647MOL0     H87299  12.199   1.238   4.043  2.1649 -1.5952  3.6098
  647MOL0     H87300  12.090   1.098   4.026  0.7595 -0.4270  0.8458
  647MOL0     H87301  12.312   0.951   4.067  1.0311 -0.2078  1.8541
  647MOL0     H87302  12.247   1.048   4.208  0.6186  2.8723  0.5063
  647MOL0     H87303  12.408   1.228   4.140  3.2157  0.7593 -0.4379
  647MOL0     H87304  12.494   1.106   4.036 -0.8152 -1.9525 -0.9797
  647MOL0     H87305  12.661   0.879   4.230  0.6578 -0.9718 -2.0636
  647MOL0     H87306  12.900   0.887   4.267 -2.0603 -1.2934 -0.5174
  647MOL0     H87307  13.232   0.965   4.455 -2.5038  1.5909 -0.0191
  647MOL0     H87308  13.453   0.930   4.565  0.4969  0.1762 -0.9219
  647MOL0     H87309  13.737   1.204   4.522  1.9304  1.6505  0.7132
  647MOL0     H87310  13.718   1.289   4.671  1.8165  0.1043 -1.6748
  647MOL0     H87311  13.810   1.095   4.802 -4.8978  1.3138 -0.4998
  647MOL0     H87312  13.813   0.989   4.651  0.6584 -0.0385 -1.6638
  647MOL0     H87313  13.985   1.134   4.553  1.1742  3.2826 -0.3190
  647MOL0     H87314  13.948   1.256   4.666  0.0805  0.7998 -3.8714
  647MOL0     H87315  14.047   0.984   4.743 -3.7690  0.0437 -0.7723
  647MOL0     H87316  14.065   1.135   4.835  0.7329 -1.6251  0.7907
  647MOL0     H87317  14.229   1.213   4.673 -0.6764  0.2589  2.0229
  647MOL0     H87318  14.208   1.096   4.551 -3.0751  1.2009 -0.3911
  647MOL0     H87319  14.319   1.063   4.834 -3.9892  0.7652  0.4461
  647MOL0     H87320  14.271   0.922   4.740 -1.3590  0.2459 -1.7042
  647MOL0     H87321  14.505   1.113   4.699 -1.3210  1.7086 -0.1019
  647MOL0     H87322  14.434   1.029   4.557 -1.2473 -0.0841  0.0737
  647MOL0     H87323  14.526   0.901   4.823 -0.2673  3.8540 -0.7783
  647MOL0     H87324  14.491   0.805   4.677  0.3964  0.0999 -0.7542
  647MOL0     H87325  13.499   1.356   4.580 -0.4483  0.1244 -1.1477
  647MOL0     H87326  13.311   1.387   4.414 -0.6005  0.2906  0.5368
  647MOL0     H87327  12.883   1.322   4.290  1.3338  0.1268 -1.4516
  647MOL0     H87328  12.640   1.302   4.269 -0.2808  0.2374  2.1094
  647MOL0     H87329  10.997   0.917   3.082  1.6837 -1.7118  1.8286
  647MOL0     H87330  10.801   0.797   3.136  0.8351 -0.0395  0.0484
  647MOL0     H87331  10.582   0.634   3.682  0.2664 -4.2072 -0.1977
  647MOL0     H87332  10.382   0.520   3.740 -2.6233  0.1501 -0.6971
  647MOL0     H87333  10.134   0.470   3.775  1.2708  3.4896 -1.7203
  647MOL0     H87334  10.208   0.327   3.691 -0.8496 -0.3446  0.0410
  647MOL0     H87335   9.993   0.268   3.761 -2.1590  0.3996  0.3047
  647MOL0     H87336  10.015   0.278   3.585  0.2252  0.1633 -0.2928
  647MOL0     H87337   9.913   0.484   3.559 -1.9906 -0.0649 -1.4401
  647MOL0     H87338   9.902   0.510   3.735  0.8210 -0.3913 -0.7935
  647MOL0     H87339   9.681   0.425   3.615  1.2373  0.2784 -1.7743
  647MOL0     H87340   9.764   0.268   3.597  1.6922 -0.6989  1.6431
  647MOL0     H87341   9.664   0.290   4.012 -0.8851  1.0567 -0.2567
  647MOL0     H87342  10.205   0.636   3.374 -0.4513  0.7025 -0.4257
  647MOL0     H87343  10.295   0.778   3.221  1.6407  2.6347 -2.2634
  647MOL0     H87344  10.394   0.903   3.291 -0.2367 -0.1387  1.4382
  647MOL0     H87345  10.462   0.759   3.214  1.3497 -0.8243  0.7587
  648MOL0     O87346   7.197   2.342   9.677 -0.0004 -0.6028 -0.2382
  648MOL0     C87347   7.131   2.311   9.583  0.3740  0.1091 -0.0792
  648MOL0     O87348   7.173   2.227   9.491  0.5107 -0.0772  0.6217
  648MOL0     C87349   7.301   2.177   9.493  0.1456  0.7343 -0.0562
  648MOL0     C87350   7.420   2.254   9.508 -1.0053 -0.4482  0.6746
  648MOL0     C87351   7.543   2.198   9.498 -0.4535  0.3617 -0.5517
  648MOL0     C87352   7.573   2.069   9.458  1.0895 -1.2004 -0.7538
  648MOL0     O87353   7.691   2.039   9.419 -0.0321 -0.0099  0.4904
  648MOL0     C87354   7.711   1.918   9.343 -0.1070  0.2453 -0.0147
  648MOL0     C87355   7.842   1.926   9.274 -0.6364 -0.2774  0.0997
  648MOL0     C87356   7.888   1.809   9.191  0.5100  0.0088 -0.1770
  648MOL0     C87357   7.932   1.692   9.277 -0.2322 -0.1855  0.9897
  648MOL0     C87358   8.082   1.682   9.316  0.0840  0.1059 -0.8049
  648MOL0     C87359   8.087   1.607   9.458 -0.5318 -0.1671  0.5813
  648MOL0     C87360   8.039   1.704   9.569  0.2117  0.0525  0.1553
  648MOL0     C87361   8.157   1.804   9.604 -0.4956 -0.5122  0.4701
  648MOL0     N87362   8.232   1.747   9.723  0.6883 -0.1425 -0.5218
  648MOL0     C87363   8.208   1.773   9.855  0.3367 -0.2029 -0.2706
  648MOL0     C87364   8.277   1.668   9.917  0.8894  0.8138 -0.5171
  648MOL0     C87365   8.283   1.654  10.073 -0.2257  0.0392  0.0351
  648MOL0     C87366   8.178   1.559  10.135 -0.7185 -0.1877 -0.1281
  648MOL0     C87367   8.037   1.600  10.110 -0.2305 -0.9285 -0.1158
  648MOL0     C87368   8.014   1.729  10.202 -0.1102  0.5701 -0.2069
  648MOL0     O87369   7.894   1.796  10.166  0.4989  0.1112  0.0237
  648MOL0     C87370   7.777   1.740  10.215 -0.1495 -0.4034 -0.9595
  648MOL0     C87371   7.754   1.628  10.298  0.7969  0.2232  0.9077
  648MOL0     C87372   7.624   1.596  10.341 -0.4216 -0.1319 -0.1891
  648MOL0     C87373   7.515   1.676  10.319  0.0670  0.2720  0.4153
  648MOL0     C87374   7.383   1.641  10.371 -0.4039  1.0577 -1.0580
  648MOL0     O87375   7.279   1.705  10.319  0.8167 -0.1612  0.1103
  648MOL0     C87376   7.148   1.683  10.362 -0.2220  0.7186 -0.2025
  648MOL0     C87377   7.091   1.577  10.438  0.1907 -0.3593 -1.2133
  648MOL0     C87378   6.958   1.588  10.465 -0.8573 -0.3187 -0.1941
  648MOL0     C87379   6.883   1.700  10.440  0.3021  0.0031  0.0062
  648MOL0     O87380   6.756   1.708  10.496 -0.1329 -0.0884 -0.0258
  648MOL0     C87381   6.689   1.834  10.468  0.3903 -1.6084  0.3919
  648MOL0     C87382   6.548   1.823  10.537 -0.2383 -0.1945 -1.0174
  648MOL0     C87383   6.448   1.910  10.456 -0.7925 -0.3560 -0.6598
  648MOL0     C87384   6.314   1.905  10.527  0.0537 -0.7014  0.1275
  648MOL0     C87385   6.211   1.977  10.444  0.4988 -0.7999  0.2540
  648MOL0     C87386   6.069   1.920  10.480  0.2116  0.0015  0.1680
  648MOL0     C87387   5.961   1.959  10.376  0.3077  0.3891 -0.0558
  648MOL0     C87388   5.829   1.888  10.395  0.1932  0.6891 -0.2734
  648MOL0    Cl87389   5.716   1.986  10.289  0.4523 -0.0526 -0.2547
  648MOL0     C87390   6.943   1.793  10.359 -0.4069  0.4989  0.3106
  648MOL0     C87391   7.071   1.787  10.327 -0.7608  0.4118  0.0962
  648MOL0     O87392   7.384   1.561  10.471  0.5550 -0.7310 -0.1124
  648MOL0     C87393   7.532   1.785  10.231 -0.6575  0.2542 -0.7301
  648MOL0     C87394   7.660   1.810  10.173  0.6814 -0.4695  1.1490
  648MOL0     N87395   8.350   1.597   9.821  0.4232  0.6237  0.4291
  648MOL0     N87396   8.319   1.643   9.708  0.6432 -0.3323  0.0679
  648MOL0     C87397   7.454   1.987   9.454 -0.3283 -0.9828 -0.9465
  648MOL0     C87398   7.322   2.039   9.473  0.2266  0.0929  1.4376
  648MOL0     C87399   6.994   2.368   9.568  0.1098  0.2713  0.2344
  648MOL0     C87400   6.944   2.381   9.437  0.5505 -0.2198  1.2657
  648MOL0     C87401   6.816   2.437   9.415 -0.2729 -0.4611 -0.4911
  648MOL0     C87402   6.733   2.480   9.525  0.1687  0.9776  0.3941
  648MOL0     O87403   6.603   2.524   9.508 -0.3254  0.5292 -0.6181
  648MOL0     C87404   6.543   2.504   9.382  0.5372 -0.2373 -0.3635
  648MOL0     C87405   6.395   2.538   9.368 -0.2900 -0.4874 -0.4898
  648MOL0     C87406   6.353   2.683   9.414 -0.1478  0.2427  0.3148
  648MOL0     C87407   6.202   2.718   9.373 -1.2250 -0.3030  0.3715
  648MOL0     C87408   6.112   2.626   9.448 -0.4091  0.5474 -0.3586
  648MOL0     C87409   6.033   2.563   9.513  0.3111  0.0115  0.6090
  648MOL0     C87410   6.787   2.460   9.649 -0.5012  0.3561  0.5005
  648MOL0     C87411   6.915   2.409   9.677 -0.2477 -0.2009  0.5393
  648MOL0     C87412   6.955   2.404   9.821  0.1327 -0.3354 -0.3011
  648MOL0     H87413   7.419   2.362   9.519  0.1287 -0.3244 -0.2632
  648MOL0     H87414   7.624   2.269   9.498 -0.3479  0.2443 -0.1488
  648MOL0     H87415   7.707   1.834   9.412 -1.3618  2.8002  3.3438
  648MOL0     H87416   7.637   1.896   9.266  1.4589 -0.1851 -1.4560
  648MOL0     H87417   7.915   1.951   9.352  0.4094 -0.2467 -0.8539
  648MOL0     H87418   7.843   2.015   9.211  3.9344 -1.3386 -1.7805
  648MOL0     H87419   7.968   1.832   9.120 -0.3434 -0.2213 -1.2367
  648MOL0     H87420   7.809   1.771   9.126 -1.1877  1.8474  0.7018
  648MOL0     H87421   7.869   1.698   9.366 -2.0931  4.4286 -0.3795
  648MOL0     H87422   7.902   1.602   9.222  0.0502 -0.0762  0.6527
  648MOL0     H87423   8.125   1.613   9.242  0.0963  0.0483 -0.7438
  648MOL0     H87424   8.123   1.783   9.316 -0.6641  0.4883  1.9143
  648MOL0     H87425   8.040   1.509   9.453  0.7395 -0.9452  2.4329
  648MOL0     H87426   8.191   1.573   9.468 -0.0840  1.1977  0.8312
  648MOL0     H87427   8.018   1.656   9.666 -1.5080 -0.0981 -0.2571
  648MOL0     H87428   7.950   1.761   9.541  1.5606  1.2598 -1.8571
  648MOL0     H87429   8.227   1.808   9.520 -0.5622 -1.8701  0.3183
  648MOL0     H87430   8.103   1.899   9.617 -0.9496 -0.9196  1.7574
  648MOL0     H87431   8.147   1.849   9.904 -2.2349 -1.6103 -1.0878
  648MOL0     H87432   8.380   1.624  10.112 -0.3035 -1.8115 -1.0676
  648MOL0     H87433   8.269   1.755  10.111 -2.4761  0.2881 -1.2389
  648MOL0     H87434   8.213   1.465  10.091  1.9421  0.1006  1.2087
  648MOL0     H87435   8.206   1.553  10.241  2.4566  0.6989 -0.8042
  648MOL0     H87436   7.970   1.521  10.145 -1.5021  0.7910  1.5303
  648MOL0     H87437   8.022   1.617  10.003 -1.8854 -0.7460  0.1099
  648MOL0     H87438   8.095   1.801  10.188  1.3726 -0.9236  0.3897
  648MOL0     H87439   8.022   1.703  10.308 -1.2140 -1.1610 -0.5060
  648MOL0     H87440   7.836   1.558  10.311  0.7424 -0.8661 -3.1767
  648MOL0     H87441   7.616   1.505  10.400 -0.3172  0.9592  1.5631
  648MOL0     H87442   7.152   1.493  10.468  0.6012 -0.5398 -2.4734
  648MOL0     H87443   6.916   1.508  10.526  1.7997 -2.0042 -0.4007
  648MOL0     H87444   6.740   1.919  10.515  0.7328 -1.7064  0.1998
  648MOL0     H87445   6.676   1.851  10.361 -0.2777  2.8431  1.0067
  648MOL0     H87446   6.516   1.719  10.522 -1.0031 -0.2190  0.5953
  648MOL0     H87447   6.546   1.850  10.643  0.2123  1.7576 -1.4742
  648MOL0     H87448   6.479   2.015  10.453 -2.5842  0.2453  0.2625
  648MOL0     H87449   6.451   1.870  10.355  1.5290  0.1329 -0.8353
  648MOL0     H87450   6.323   1.948  10.628  1.7086  2.1302 -1.0871
  648MOL0     H87451   6.295   1.798  10.528 -0.2320 -0.7004 -1.6104
  648MOL0     H87452   6.236   1.954  10.340 -0.8819  0.8541 -0.4833
  648MOL0     H87453   6.217   2.085  10.457  0.7346 -0.6735 -0.7896
  648MOL0     H87454   6.081   1.811  10.471  1.0364  0.1981 -1.3622
  648MOL0     H87455   6.030   1.945  10.580 -0.8258  0.7019 -0.3888
  648MOL0     H87456   5.999   1.931  10.277  0.3310 -3.0986  0.7826
  648MOL0     H87457   5.942   2.066  10.378  2.2788  0.7766  2.1941
  648MOL0     H87458   5.833   1.785  10.358 -0.6424  0.2036  0.9292
  648MOL0     H87459   5.794   1.897  10.498  0.8974  0.6647 -0.0314
  648MOL0     H87460   6.897   1.890  10.344  2.3376  2.3542  2.8989
  648MOL0     H87461   7.129   1.866  10.280 -2.0725  0.9422 -0.6862
  648MOL0     H87462   7.447   1.843  10.196 -1.3986 -0.4915 -0.2183
  648MOL0     H87463   7.680   1.899  10.114  1.6148 -1.1561  0.4080
  648MOL0     H87464   7.470   1.881   9.436 -0.0303 -2.2761  4.8635
  648MOL0     H87465   7.234   1.977   9.460  1.4677 -1.1660 -1.8965
  648MOL0     H87466   7.008   2.363   9.352 -1.2711 -0.3421 -0.1389
  648MOL0     H87467   6.788   2.442   9.310  2.6574 -1.5912 -1.4080
  648MOL0     H87468   6.548   2.400   9.349  0.9603 -0.2615 -0.2372
  648MOL0     H87469   6.606   2.557   9.310  1.6257 -0.4632  0.3917
  648MOL0     H87470   6.338   2.457   9.413  1.3348 -1.9409 -0.9226
  648MOL0     H87471   6.371   2.532   9.262  1.4947 -0.6398 -0.9289
  648MOL0     H87472   6.427   2.756   9.379 -2.9891  3.1066 -0.2006
  648MOL0     H87473   6.348   2.693   9.523 -2.0744 -3.2382  0.7012
  648MOL0     H87474   6.190   2.824   9.396 -0.2741 -0.4756  1.8534
  648MOL0     H87475   6.199   2.712   9.264  3.5715 -2.5434  0.0957
  648MOL0     H87476   5.982   2.494   9.578  1.1516 -0.0270  1.2375
  648MOL0     H87477   6.716   2.481   9.727 -1.1732  1.2057 -0.3147
  648MOL0     H87478   6.878   2.410   9.898 -0.3782  0.5658 -0.8617
  648MOL0     H87479   6.993   2.302   9.825  0.7919 -0.1659 -1.6046
  648MOL0     H87480   7.029   2.483   9.838 -1.1999  1.6184 -2.7755
  649MOL0     O87481   5.813   4.484   0.307  0.7148 -1.0217  0.0278
  649MOL0     C87482   5.761   4.595   0.285  0.1145  0.3309 -0.6172
  649MOL0     O87483   5.799   4.681   0.186 -0.4274  0.4278 -0.2828
  649MOL0     C87484   5.922   4.657   0.115 -0.2134 -1.4040  0.2641
  649MOL0     C87485   6.047   4.657   0.174 -0.3084  0.9112 -0.3362
  649MOL0     C87486   6.162   4.619   0.094 -0.1830  0.3085  0.1643
  649MOL0     C87487   6.157   4.587  -0.040 -0.2548 -0.0369 -0.5579
  649MOL0     O87488   6.276   4.553  -0.103 -0.4435  0.1305 -0.1094
  649MOL0     C87489   6.270   4.443  -0.197  0.3205  0.1806 -0.6938
  649MOL0     C87490   6.402   4.406  -0.257 -0.2118 -0.2428  0.5257
  649MOL0     C87491   6.516   4.397  -0.165  0.1162 -0.4909 -0.5850
  649MOL0     C87492   6.641   4.349  -0.238 -0.6588 -0.5023  0.1757
  649MOL0     C87493   6.665   4.195  -0.225 -0.7567 -1.3098  0.7370
  649MOL0     C87494   6.795   4.148  -0.299  0.6891 -0.4283  0.2335
  649MOL0     C87495   6.801   3.999  -0.301  0.0943 -0.1719  0.0470
  649MOL0     C87496   6.724   3.927  -0.407  0.0039  0.1026 -0.0654
  649MOL0     N87497   6.730   3.783  -0.384  0.0223 -0.3255 -0.7790
  649MOL0     C87498   6.836   3.712  -0.322 -0.4012 -0.6869 -0.6313
  649MOL0     C87499   6.796   3.591  -0.345  0.0910  0.0673  0.8231
  649MOL0     C87500   6.868   3.462  -0.301  0.1433 -0.0519  0.2273
  649MOL0     C87501   6.991   3.474  -0.214  0.4262  0.0864 -0.2409
  649MOL0     C87502   7.017   3.346  -0.153  0.2421 -0.0453 -0.3390
  649MOL0     C87503   7.171   3.327  -0.120 -0.4301 -0.0455  0.1304
  649MOL0     O87504   7.195   3.368   0.016  0.2868  0.8747  0.2379
  649MOL0     C87505   7.319   3.337   0.072  0.4120 -0.3940  0.4034
  649MOL0     C87506   7.361   3.419   0.178  0.2633  0.4592  0.0988
  649MOL0     C87507   7.493   3.404   0.223 -0.9534 -0.2522  0.3449
  649MOL0     C87508   7.572   3.290   0.189  0.3817 -0.1474 -0.3260
  649MOL0     C87509   7.684   3.252   0.272 -0.6273  0.8410  0.0547
  649MOL0     O87510   7.706   3.317   0.384  0.4148 -0.2799 -0.0555
  649MOL0     C87511   7.832   3.308   0.442  0.3655  0.0193 -0.4802
  649MOL0     C87512   7.916   3.415   0.433  0.4851 -0.3687 -0.8196
  649MOL0     C87513   8.037   3.414   0.510  0.2649 -0.0500 -0.1299
  649MOL0     C87514   8.077   3.297   0.578  0.5498 -0.0605  0.1637
  649MOL0     O87515   8.193   3.311   0.647 -0.5472 -0.6418 -0.1761
  649MOL0     C87516   8.256   3.196   0.707 -0.0952 -0.1549 -0.1012
  649MOL0     C87517   8.367   3.146   0.617 -0.4135  0.5767  0.6102
  649MOL0     C87518   8.505   3.205   0.654 -0.1753 -0.0617 -0.3826
  649MOL0     C87519   8.525   3.353   0.622 -0.0692  0.4287  0.0635
  649MOL0     C87520   8.674   3.387   0.642  0.0123 -0.9683 -0.0804
  649MOL0     C87521   8.770   3.332   0.534  0.3575 -0.3572 -0.2292
  649MOL0     C87522   8.912   3.396   0.548  0.1650 -0.1622  0.3929
  649MOL0     C87523   8.921   3.520   0.467 -0.8539 -1.2594  0.9122
  649MOL0    Cl87524   9.071   3.600   0.536 -0.3989  0.2410  0.3137
  649MOL0     C87525   7.985   3.188   0.585 -0.0476  0.5718 -0.1273
  649MOL0     C87526   7.865   3.197   0.518  0.3484  0.0059  0.6752
  649MOL0     O87527   7.764   3.169   0.225 -0.5782 -0.0423  0.3364
  649MOL0     C87528   7.520   3.205   0.087 -0.3909 -0.2330  0.1523
  649MOL0     C87529   7.390   3.222   0.032 -0.8444  0.2035 -0.1197
  649MOL0     N87530   6.675   3.580  -0.410 -0.0857 -0.1760 -0.1210
  649MOL0     N87531   6.646   3.697  -0.451  0.2183 -0.1864 -0.1113
  649MOL0     C87532   6.029   4.573  -0.097 -0.3344 -0.3378 -0.2796
  649MOL0     C87533   5.910   4.609  -0.022 -0.6141  0.1371  0.3496
  649MOL0     C87534   5.640   4.644   0.350  0.5706  0.3939 -1.0905
  649MOL0     C87535   5.608   4.783   0.350  0.0213 -0.1001  0.3767
  649MOL0     C87536   5.495   4.834   0.415  1.1740  0.0102 -0.1224
  649MOL0     C87537   5.393   4.746   0.470 -0.2269 -0.8334 -0.2993
  649MOL0     O87538   5.283   4.803   0.531 -0.5789  0.2428 -0.1235
  649MOL0     C87539   5.187   4.710   0.584  0.6973  0.3246 -0.7873
  649MOL0     C87540   5.051   4.777   0.608 -0.3819 -0.6343  0.1941
  649MOL0     C87541   5.056   4.882   0.724 -0.3914 -0.4180  0.0309
  649MOL0     C87542   4.932   4.955   0.760 -0.2380  0.1754  0.1198
  649MOL0     C87543   4.825   4.870   0.814  0.5999  0.0612 -1.1902
  649MOL0     C87544   4.750   4.799   0.873 -0.4760  0.8824 -0.1101
  649MOL0     C87545   5.416   4.605   0.465  0.6204 -0.0590  0.1801
  649MOL0     C87546   5.532   4.562   0.399 -0.1744  0.2427  0.5994
  649MOL0     C87547   5.527   4.417   0.356  0.2246 -0.4003 -0.5183
  649MOL0     H87548   6.058   4.688   0.277 -0.4164 -2.2689  0.7173
  649MOL0     H87549   6.260   4.622   0.140  0.1673  2.0776 -0.5978
  649MOL0     H87550   6.232   4.350  -0.152  0.0188  0.0870 -1.1341
  649MOL0     H87551   6.203   4.481  -0.275  0.0299 -0.3855 -0.7268
  649MOL0     H87552   6.412   4.498  -0.316  0.8359  0.2152  1.3690
  649MOL0     H87553   6.394   4.318  -0.321 -2.4359  1.5610 -1.9166
  649MOL0     H87554   6.484   4.335  -0.081  1.3545  1.4107  1.4062
  649MOL0     H87555   6.525   4.498  -0.125  1.0491 -0.8469  0.1287
  649MOL0     H87556   6.638   4.379  -0.343 -0.6928  0.9861  0.5802
  649MOL0     H87557   6.735   4.384  -0.194 -0.1538 -0.7879 -0.6630
  649MOL0     H87558   6.661   4.159  -0.122 -1.0113 -2.3537  0.3782
  649MOL0     H87559   6.585   4.151  -0.286 -0.1119 -4.2456  1.8032
  649MOL0     H87560   6.801   4.183  -0.402  0.0316  0.3633  0.4562
  649MOL0     H87561   6.888   4.187  -0.256  0.8560  0.0690 -0.5602
  649MOL0     H87562   6.760   3.969  -0.204 -0.7905 -1.4030 -0.6791
  649MOL0     H87563   6.905   3.964  -0.310 -0.0247 -0.7788  0.8607
  649MOL0     H87564   6.617   3.947  -0.405 -0.4565 -1.9386 -1.4316
  649MOL0     H87565   6.765   3.946  -0.507  0.2455 -0.5210 -0.0913
  649MOL0     H87566   6.930   3.746  -0.281 -0.1978 -2.5818  0.5943
  649MOL0     H87567   6.794   3.403  -0.246  0.9415  1.3025  2.8919
  649MOL0     H87568   6.891   3.404  -0.391  0.4154 -1.2683  1.0526
  649MOL0     H87569   7.074   3.501  -0.280  0.2474 -0.6725 -0.7902
  649MOL0     H87570   6.979   3.552  -0.138 -1.5284  1.6748 -2.0401
  649MOL0     H87571   6.985   3.263  -0.217  0.2401 -1.4272  1.3821
  649MOL0     H87572   6.968   3.352  -0.056 -0.1892  4.0435 -0.6061
  649MOL0     H87573   7.241   3.370  -0.192 -1.1825  1.0392  0.0226
  649MOL0     H87574   7.191   3.220  -0.134  0.8407  0.1177  0.5715
  649MOL0     H87575   7.295   3.505   0.186 -0.2042  1.2645 -6.8982
  649MOL0     H87576   7.536   3.470   0.298  0.1211  0.9202 -1.2543
  649MOL0     H87577   7.890   3.500   0.371  0.3226 -1.1660 -1.8720
  649MOL0     H87578   8.111   3.493   0.521  1.8731 -1.2157 -1.9605
  649MOL0     H87579   8.298   3.221   0.804  1.2478  0.0538 -0.7214
  649MOL0     H87580   8.186   3.114   0.729 -1.5420  0.3553 -2.4092
  649MOL0     H87581   8.380   3.039   0.639 -0.0444  0.5499  0.2672
  649MOL0     H87582   8.333   3.162   0.515 -0.8953 -4.1950 -0.2106
  649MOL0     H87583   8.536   3.196   0.759 -1.6362  0.7682  0.1425
  649MOL0     H87584   8.576   3.140   0.603 -0.3684 -2.2729  1.9440
  649MOL0     H87585   8.465   3.404   0.698  0.7730  2.9564 -0.8392
  649MOL0     H87586   8.486   3.381   0.524 -1.9543 -1.1905  0.2969
  649MOL0     H87587   8.696   3.356   0.745 -3.7710 -2.2695  0.5138
  649MOL0     H87588   8.684   3.496   0.638  1.5056 -1.0678  0.2159
  649MOL0     H87589   8.783   3.224   0.545  2.0216 -0.0844  0.8734
  649MOL0     H87590   8.725   3.375   0.444  0.8912  1.0005  0.1305
  649MOL0     H87591   8.984   3.319   0.517 -2.1353 -2.0301 -0.6827
  649MOL0     H87592   8.935   3.420   0.652 -1.9181  3.1586  0.2086
  649MOL0     H87593   8.935   3.496   0.361  1.2859 -1.4528  1.2059
  649MOL0     H87594   8.836   3.586   0.489  1.4757  2.0779  0.7791
  649MOL0     H87595   8.005   3.101   0.648 -0.9081  0.3213 -0.1870
  649MOL0     H87596   7.796   3.114   0.534  1.6164 -1.1359  0.4693
  649MOL0     H87597   7.574   3.119   0.047 -3.2352 -0.8852 -2.6693
  649MOL0     H87598   7.364   3.155  -0.049 -1.6011 -2.0262  1.8595
  649MOL0     H87599   6.002   4.515  -0.185  0.5073 -2.6355  0.8832
  649MOL0     H87600   5.808   4.597  -0.054  0.3498 -1.0933 -2.5492
  649MOL0     H87601   5.678   4.853   0.306  1.6608 -1.5903  0.5239
  649MOL0     H87602   5.469   4.939   0.425  1.2213 -0.0281  0.4896
  649MOL0     H87603   5.222   4.673   0.681  2.1576  0.6264 -1.1816
  649MOL0     H87604   5.170   4.629   0.512  2.2237  1.0645 -2.0275
  649MOL0     H87605   4.982   4.701   0.645 -3.5273  1.5495 -0.7380
  649MOL0     H87606   5.016   4.813   0.511 -1.6808 -0.0327  0.8513
  649MOL0     H87607   5.128   4.960   0.697 -0.4370 -0.0516  0.9282
  649MOL0     H87608   5.093   4.831   0.813 -1.7464 -2.3746 -0.4609
  649MOL0     H87609   4.952   5.044   0.818  2.0769  0.4524 -0.9859
  649MOL0     H87610   4.902   4.993   0.662  0.9872  0.9363  0.0210
  649MOL0     H87611   4.692   4.725   0.924 -1.6669 -0.8731 -3.6888
  649MOL0     H87612   5.340   4.532   0.494  0.1209 -0.0267 -0.9646
  649MOL0     H87613   5.423   4.381   0.362  0.5323 -1.2548 -0.1697
  649MOL0     H87614   5.557   4.394   0.253  1.8091 -0.6509 -0.0145
  649MOL0     H87615   5.587   4.357   0.424  1.4617 -0.9835 -2.0630
  650MOL0     O87616   9.986   9.339   7.973  0.0301  0.2965  0.7111
  650MOL0     C87617   9.929   9.439   7.938 -0.0747 -0.6203 -0.1510
  650MOL0     O87618   9.989   9.560   7.900  0.1006  0.3424  0.1419
  650MOL0     C87619  10.119   9.557   7.867  0.3402  0.5550  0.3482
  650MOL0     C87620  10.183   9.452   7.791  0.7373 -0.4858 -0.3400
  650MOL0     C87621  10.309   9.470   7.748 -0.2160 -0.4642 -0.0581
  650MOL0     C87622  10.390   9.579   7.778 -0.4387 -0.4774 -0.4964
  650MOL0     O87623  10.521   9.596   7.739  0.1413  0.1351 -0.3001
  650MOL0     C87624  10.581   9.504   7.641  1.2417  0.1888 -0.0975
  650MOL0     C87625  10.733   9.509   7.639  0.1606  0.3281  0.2204
  650MOL0     C87626  10.794   9.641   7.589 -0.1066 -0.7921  0.5907
  650MOL0     C87627  10.946   9.613   7.561 -0.7143 -0.2577 -0.5938
  650MOL0     C87628  11.023   9.739   7.530  0.5605  0.0521  0.0787
  650MOL0     C87629  11.169   9.719   7.566 -1.0225  0.6555  0.0961
  650MOL0     C87630  11.268   9.819   7.508  0.4639  0.0219 -0.7121
  650MOL0     C87631  11.411   9.769   7.521 -0.2726 -0.2281  0.2035
  650MOL0     N87632  11.460   9.650   7.449  0.4369  0.0917 -0.0073
  650MOL0     C87633  11.591   9.605   7.454  0.0513 -0.0635  0.2088
  650MOL0     C87634  11.584   9.479   7.399 -0.1524 -0.8838  0.6674
  650MOL0     C87635  11.704   9.384   7.397  0.7419  1.0279  0.0162
  650MOL0     C87636  11.679   9.271   7.506  0.0268 -0.6388  0.2926
  650MOL0     C87637  11.720   9.322   7.646 -0.1057 -0.0099 -0.2504
  650MOL0     C87638  11.696   9.223   7.753 -0.4838  0.5066  0.8176
  650MOL0     O87639  11.800   9.128   7.726  0.3463 -0.0118 -0.5782
  650MOL0     C87640  11.920   9.167   7.762 -0.9983  1.0876 -0.1616
  650MOL0     C87641  11.960   9.262   7.854 -0.1730 -0.3853 -0.1969
  650MOL0     C87642  12.092   9.287   7.877  0.3926 -0.4381  0.1257
  650MOL0     C87643  12.184   9.207   7.813  0.6024 -0.8645  0.2460
  650MOL0     C87644  12.325   9.221   7.854  0.6168  0.0560 -0.5123
  650MOL0     O87645  12.356   9.293   7.971 -0.5709 -0.1334 -0.0003
  650MOL0     C87646  12.488   9.316   7.988 -0.6715  0.0869 -0.0980
  650MOL0     C87647  12.551   9.226   8.078 -0.0997 -0.1410  0.4962
  650MOL0     C87648  12.681   9.277   8.120  0.2762 -0.3234  0.0315
  650MOL0     C87649  12.746   9.388   8.072  0.4068  0.3158  1.2293
  650MOL0     O87650  12.857   9.433   8.137  0.6569  0.3978 -0.2287
  650MOL0     C87651  12.919   9.558   8.112 -0.1362  0.4996  0.2591
  650MOL0     C87652  13.047   9.585   8.197  0.4345  0.5936 -0.5636
  650MOL0     C87653  13.036   9.523   8.333  0.0830  0.2597 -0.2996
  650MOL0     C87654  13.167   9.535   8.409  0.2170 -0.5074  0.1319
  650MOL0     C87655  13.150   9.496   8.554  0.1085  0.1734 -0.9489
  650MOL0     C87656  13.288   9.486   8.630 -0.7083  0.0899  0.1173
  650MOL0     C87657  13.387   9.600   8.600  0.2978 -0.9821 -0.1151
  650MOL0     C87658  13.523   9.592   8.681 -0.6735 -0.7020 -0.3630
  650MOL0    Cl87659  13.586   9.428   8.670 -0.4860 -0.0661  0.0780
  650MOL0     C87660  12.679   9.460   7.982 -0.6700  0.0832  0.4917
  650MOL0     C87661  12.556   9.426   7.933  1.1797 -0.1029 -0.8309
  650MOL0     O87662  12.412   9.185   7.775 -0.1007 -0.5205 -0.0718
  650MOL0     C87663  12.143   9.129   7.702 -0.0239 -0.0388  0.5635
  650MOL0     C87664  12.012   9.108   7.682 -0.1937 -0.3436  0.1598
  650MOL0     N87665  11.452   9.457   7.359  1.3248  1.3940 -0.1264
  650MOL0     N87666  11.379   9.554   7.398 -0.1405  0.1039 -0.0289
  650MOL0     C87667  10.333   9.684   7.854 -0.1828  1.0506 -0.4070
  650MOL0     C87668  10.192   9.669   7.888  0.0540  0.4375 -0.7425
  650MOL0     C87669   9.780   9.430   7.962  0.0881  0.3503  0.2501
  650MOL0     C87670   9.735   9.348   8.070  0.8272 -0.4564 -0.8096
  650MOL0     C87671   9.600   9.363   8.109 -0.2735 -0.1101  0.0625
  650MOL0     C87672   9.507   9.443   8.045  0.3816  0.1195 -0.5803
  650MOL0     O87673   9.371   9.454   8.066  0.6151 -0.3340  0.9122
  650MOL0     C87674   9.308   9.371   8.160 -0.6217 -0.2448  0.5583
  650MOL0     C87675   9.160   9.384   8.178  0.3663 -0.0225  0.3898
  650MOL0     C87676   9.090   9.389   8.039  0.1446  0.3793  0.0238
  650MOL0     C87677   8.941   9.350   8.045 -0.3644  1.4162 -0.3544
  650MOL0     C87678   8.862   9.432   8.144 -0.1552  0.2001  0.4462
  650MOL0     C87679   8.815   9.486   8.243 -0.0354  0.0154 -0.7121
  650MOL0     C87680   9.558   9.513   7.930  0.1413 -0.7758 -0.2982
  650MOL0     C87681   9.692   9.503   7.884  0.7022  0.2232 -0.6388
  650MOL0     C87682   9.731   9.584   7.767 -0.1183  0.1376  0.2722
  650MOL0     H87683  10.130   9.370   7.743  0.6753  0.6428 -2.3029
  650MOL0     H87684  10.350   9.396   7.680  1.6146 -0.6278  1.1375
  650MOL0     H87685  10.555   9.402   7.670  2.2779 -1.2686 -3.7371
  650MOL0     H87686  10.542   9.521   7.540  0.4059  0.2910  0.2331
  650MOL0     H87687  10.779   9.427   7.583  1.0951 -0.0474  1.4665
  650MOL0     H87688  10.769   9.489   7.741 -2.3895 -2.2088  0.7805
  650MOL0     H87689  10.793   9.718   7.667 -0.5379 -0.2745  0.0834
  650MOL0     H87690  10.730   9.676   7.507  1.6360 -0.5294 -0.6973
  650MOL0     H87691  10.994   9.568   7.648  0.2546 -0.5861 -1.2768
  650MOL0     H87692  10.964   9.539   7.482 -1.4716  1.6931 -2.7081
  650MOL0     H87693  11.011   9.767   7.425 -1.2847 -2.5909 -0.5122
  650MOL0     H87694  10.974   9.818   7.588 -1.2371 -1.6681  1.0227
  650MOL0     H87695  11.185   9.735   7.673  1.1990  2.1475 -0.3996
  650MOL0     H87696  11.201   9.618   7.542  1.2096  1.0370  1.2654
  650MOL0     H87697  11.259   9.907   7.573 -2.7633  0.6634 -1.8343
  650MOL0     H87698  11.240   9.845   7.405  1.2389 -2.2832 -1.5746
  650MOL0     H87699  11.479   9.849   7.490  1.0689 -1.1936  0.5526
  650MOL0     H87700  11.433   9.747   7.626  0.7404  1.0826  0.2914
  650MOL0     H87701  11.684   9.652   7.484 -0.2469 -0.1568  1.3131
  650MOL0     H87702  11.716   9.340   7.297  1.4669  2.4944 -0.5800
  650MOL0     H87703  11.801   9.432   7.414  1.0377 -0.2166  2.1743
  650MOL0     H87704  11.576   9.237   7.509 -0.0572 -0.3640  0.6482
  650MOL0     H87705  11.752   9.197   7.471  1.9148  1.1672  0.1712
  650MOL0     H87706  11.654   9.404   7.677 -0.2292 -1.0578  2.5289
  650MOL0     H87707  11.822   9.359   7.639 -1.0565  2.5051 -5.4338
  650MOL0     H87708  11.599   9.172   7.743 -1.7893  2.8199  1.0355
  650MOL0     H87709  11.697   9.275   7.849  0.0724  0.7872  0.6652
  650MOL0     H87710  11.892   9.317   7.919  0.3088  0.2356 -0.2100
  650MOL0     H87711  12.125   9.342   7.964  2.0368 -0.3101 -0.5446
  650MOL0     H87712  12.504   9.140   8.125  1.6532 -1.2890  0.2560
  650MOL0     H87713  12.730   9.206   8.186  0.2779 -0.2872  0.0687
  650MOL0     H87714  12.951   9.555   8.007 -0.9197  0.4385  0.0153
  650MOL0     H87715  12.855   9.645   8.130  0.6654  1.1452  0.0482
  650MOL0     H87716  13.138   9.548   8.148  0.6225  1.2793 -0.7334
  650MOL0     H87717  13.045   9.693   8.209 -2.3170  0.4028  1.7288
  650MOL0     H87718  12.955   9.567   8.392 -0.1625 -3.3157  2.4123
  650MOL0     H87719  13.014   9.416   8.321  3.5973 -0.6789  0.3779
  650MOL0     H87720  13.198   9.640   8.397 -0.3396  0.1073  3.1771
  650MOL0     H87721  13.236   9.467   8.359 -0.6334 -1.8254  0.7233
  650MOL0     H87722  13.114   9.395   8.572  1.1349 -0.0408  0.0491
  650MOL0     H87723  13.083   9.563   8.608 -0.8293  0.9987 -3.0358
  650MOL0     H87724  13.276   9.473   8.738  0.1589  1.0346  0.3378
  650MOL0     H87725  13.339   9.399   8.586  0.2323  1.4697 -1.6480
  650MOL0     H87726  13.341   9.698   8.611 -1.8096 -1.9435  0.2485
  650MOL0     H87727  13.415   9.595   8.494  2.9465 -2.1919  0.5509
  650MOL0     H87728  13.598   9.657   8.636 -1.7889  0.7414 -0.2126
  650MOL0     H87729  13.501   9.603   8.787  2.9049 -1.1034  0.5381
  650MOL0     H87730  12.722   9.552   7.945 -1.1932 -0.0713 -0.5306
  650MOL0     H87731  12.495   9.486   7.867 -0.5480  0.4878  1.1928
  650MOL0     H87732  12.204   9.074   7.630 -3.7589 -1.2540 -1.9911
  650MOL0     H87733  11.982   9.044   7.600 -0.3352  1.1109 -0.9672
  650MOL0     H87734  10.392   9.772   7.878  0.5097  1.0733 -2.0706
  650MOL0     H87735  10.150   9.756   7.937  2.5091  2.1348 -1.4565
  650MOL0     H87736   9.793   9.278   8.130 -0.3931 -0.3719  0.5307
  650MOL0     H87737   9.572   9.307   8.198 -1.0765  1.0334  0.5671
  650MOL0     H87738   9.359   9.374   8.257 -0.4635 -2.9156  0.6571
  650MOL0     H87739   9.322   9.269   8.121 -1.3417 -0.3200  0.4842
  650MOL0     H87740   9.140   9.479   8.229  2.2546  0.9592 -0.6142
  650MOL0     H87741   9.123   9.301   8.239  3.1052 -0.3828  1.6809
  650MOL0     H87742   9.147   9.321   7.975 -0.0749 -0.4371  0.6689
  650MOL0     H87743   9.108   9.495   8.020  2.2223  0.7014  3.0915
  650MOL0     H87744   8.891   9.352   7.948 -0.4199 -0.9819 -0.4497
  650MOL0     H87745   8.949   9.247   8.082 -1.6297  0.6573 -2.0522
  650MOL0     H87746   8.783   9.536   8.332 -1.4616 -1.0952 -0.5730
  650MOL0     H87747   9.485   9.569   7.873 -0.1223 -1.5171 -0.6984
  650MOL0     H87748   9.649   9.588   7.695 -2.1395  2.4600  2.5001
  650MOL0     H87749   9.745   9.690   7.794  5.5489 -1.0294  3.5031
  650MOL0     H87750   9.821   9.547   7.717  0.3569  2.5370 -0.7921
  651MOL0     O87751   3.971   8.357   3.152 -0.2042  0.5003 -0.3712
  651MOL0     C87752   3.893   8.441   3.112  0.7046 -0.6852  0.2045
  651MOL0     O87753   3.921   8.537   3.019 -0.7665 -0.6380  0.2458
  651MOL0     C87754   4.049   8.521   2.959 -0.0620 -1.2942  0.2253
  651MOL0     C87755   4.061   8.487   2.831  0.2544 -0.4058  1.4330
  651MOL0     C87756   4.184   8.477   2.766  1.2797 -0.2063 -0.4164
  651MOL0     C87757   4.297   8.514   2.839  0.6904  0.7932  0.1965
  651MOL0     O87758   4.422   8.505   2.775 -0.4154 -0.0556 -0.2272
  651MOL0     C87759   4.539   8.584   2.810  0.0134 -0.1714  0.5053
  651MOL0     C87760   4.604   8.629   2.679 -0.7821 -0.8037 -0.3413
  651MOL0     C87761   4.757   8.647   2.696 -0.0830  0.5337  0.9467
  651MOL0     C87762   4.815   8.684   2.563 -0.3499  0.0200 -0.0618
  651MOL0     C87763   4.968   8.700   2.591 -0.1933  0.4778 -0.1224
  651MOL0     C87764   5.033   8.782   2.478  0.0040  0.5594  0.1136
  651MOL0     C87765   5.013   8.727   2.332  0.5320 -0.1836 -0.5728
  651MOL0     C87766   5.058   8.579   2.328  0.7975 -0.2255 -0.3447
  651MOL0     N87767   5.199   8.560   2.356  0.1333 -0.1512 -0.3476
  651MOL0     C87768   5.258   8.468   2.435 -0.2856 -0.6699  0.6558
  651MOL0     C87769   5.392   8.478   2.407  0.7720  1.0694 -1.1324
  651MOL0     C87770   5.503   8.389   2.456  0.9746  0.1164  1.0102
  651MOL0     C87771   5.584   8.436   2.575  0.2176  0.0695 -0.6594
  651MOL0     C87772   5.737   8.399   2.577  0.5439 -0.3382 -0.5207
  651MOL0     C87773   5.814   8.470   2.688 -0.3050 -0.0261  0.6124
  651MOL0     O87774   5.914   8.558   2.629  0.0829 -0.1902  0.2426
  651MOL0     C87775   6.023   8.499   2.573 -0.7178 -0.4006  0.1453
  651MOL0     C87776   6.112   8.594   2.525 -0.3971 -0.7818  0.1965
  651MOL0     C87777   6.236   8.559   2.471  0.4569 -0.5213 -0.0655
  651MOL0     C87778   6.273   8.419   2.454  0.4549 -1.2294  1.0087
  651MOL0     C87779   6.405   8.389   2.402 -0.2912 -0.2172 -0.3003
  651MOL0     O87780   6.469   8.490   2.340 -0.3479  0.1423  0.0589
  651MOL0     C87781   6.582   8.475   2.266  0.1720 -0.0676 -0.5260
  651MOL0     C87782   6.698   8.396   2.308 -0.1329  0.3183  0.4092
  651MOL0     C87783   6.819   8.408   2.239 -0.2134  0.1308  0.1469
  651MOL0     C87784   6.843   8.506   2.143  0.1676  0.3256 -0.2492
  651MOL0     O87785   6.958   8.523   2.076  0.1346 -0.1118  0.2507
  651MOL0     C87786   7.075   8.444   2.104  0.2898  0.4888 -0.0492
  651MOL0     C87787   7.099   8.343   1.991  0.8224 -0.3057  0.6355
  651MOL0     C87788   7.235   8.308   1.954  0.7613  0.2257 -0.0541
  651MOL0     C87789   7.227   8.239   1.823  0.5531  0.4994  0.0696
  651MOL0     C87790   7.365   8.226   1.751 -0.3716  1.3347 -0.4898
  651MOL0     C87791   7.416   8.343   1.676  0.3324  0.2158  0.2250
  651MOL0     C87792   7.539   8.294   1.592  0.1084 -0.2879 -0.8164
  651MOL0     C87793   7.588   8.405   1.498  0.1340 -0.1158 -0.9465
  651MOL0    Cl87794   7.532   8.396   1.332 -0.2174  0.1180  0.5421
  651MOL0     C87795   6.729   8.596   2.105  0.2506  0.0459 -0.7665
  651MOL0     C87796   6.602   8.569   2.164 -0.0349 -0.0504 -0.9054
  651MOL0     O87797   6.435   8.272   2.395 -0.5145 -0.1504 -0.1280
  651MOL0     C87798   6.174   8.323   2.494  0.3694 -0.3687  0.3920
  651MOL0     C87799   6.052   8.359   2.550  0.1934 -0.3171  0.1147
  651MOL0     N87800   5.413   8.576   2.321  0.4769 -0.2766  0.0981
  651MOL0     N87801   5.295   8.628   2.291 -0.2871  0.7403 -0.2413
  651MOL0     C87802   4.288   8.557   2.972  0.6190  0.3806  0.6467
  651MOL0     C87803   4.162   8.561   3.030  0.1827 -0.3562 -0.1319
  651MOL0     C87804   3.752   8.450   3.169  0.0249 -0.7995 -0.0187
  651MOL0     C87805   3.677   8.559   3.131 -0.0563 -0.7556 -0.6610
  651MOL0     C87806   3.551   8.584   3.195  0.2860 -0.1177 -0.4739
  651MOL0     C87807   3.496   8.500   3.299 -0.2936  0.5178  0.5645
  651MOL0     O87808   3.371   8.518   3.344 -0.4527 -0.0554  0.1452
  651MOL0     C87809   3.274   8.426   3.298 -0.4026 -0.6203 -0.2659
  651MOL0     C87810   3.244   8.456   3.159 -0.1224 -0.0262  0.1211
  651MOL0     C87811   3.121   8.375   3.126  0.6786  0.2166  0.5131
  651MOL0     C87812   3.095   8.340   2.976 -0.3795 -0.4333  0.2474
  651MOL0     C87813   2.974   8.258   2.972 -0.0355 -0.0250  0.5645
  651MOL0     C87814   2.863   8.210   2.973  0.4650 -0.2233  1.0502
  651MOL0     C87815   3.575   8.389   3.332  0.8216  0.6019 -0.1937
  651MOL0     C87816   3.693   8.355   3.269  0.3461  0.4048 -0.1220
  651MOL0     C87817   3.764   8.227   3.305  0.3643 -0.3592 -0.3540
  651MOL0     H87818   3.968   8.472   2.777  1.7967 -0.2057 -1.4853
  651MOL0     H87819   4.183   8.445   2.663 -1.9210  0.8918 -0.8557
  651MOL0     H87820   4.522   8.665   2.882  1.9461  0.1600  0.6486
  651MOL0     H87821   4.612   8.526   2.868  1.8238  2.1323  0.7077
  651MOL0     H87822   4.555   8.723   2.652  0.3958  0.1822  0.8210
  651MOL0     H87823   4.583   8.553   2.602 -0.3362  0.6263 -1.9330
  651MOL0     H87824   4.810   8.556   2.727  2.4307  0.8403 -1.9921
  651MOL0     H87825   4.769   8.728   2.768 -1.2865 -0.3053  2.1330
  651MOL0     H87826   4.791   8.609   2.487 -0.2429  0.9953 -1.0865
  651MOL0     H87827   4.786   8.782   2.524 -0.4911 -0.3844 -0.9956
  651MOL0     H87828   4.994   8.749   2.685 -0.8707 -0.5869  0.6559
  651MOL0     H87829   5.018   8.603   2.597 -2.1471 -0.5564  0.5464
  651MOL0     H87830   5.001   8.886   2.479  0.1489  0.6386 -1.4403
  651MOL0     H87831   5.139   8.784   2.504 -0.0892  2.6396  0.5158
  651MOL0     H87832   5.066   8.788   2.258 -1.0715  1.9063 -0.0951
  651MOL0     H87833   4.908   8.728   2.301  0.5989 -1.4355 -0.8924
  651MOL0     H87834   5.008   8.509   2.395  3.5507 -0.2384  1.9193
  651MOL0     H87835   5.040   8.544   2.227 -2.5679  1.7447 -0.5758
  651MOL0     H87836   5.205   8.395   2.494  1.4996 -3.0324 -0.4629
  651MOL0     H87837   5.461   8.290   2.472 -0.5925  0.4413 -0.7984
  651MOL0     H87838   5.573   8.368   2.375 -1.6923 -1.0884 -1.0960
  651MOL0     H87839   5.567   8.544   2.587 -0.0862 -0.0081 -0.3576
  651MOL0     H87840   5.535   8.389   2.661 -0.0241  0.7152 -0.4351
  651MOL0     H87841   5.781   8.426   2.481  2.4655  1.6863  0.8383
  651MOL0     H87842   5.742   8.290   2.587 -3.8961 -0.5906  1.3962
  651MOL0     H87843   5.875   8.401   2.747 -2.5634 -1.2878  1.5974
  651MOL0     H87844   5.759   8.520   2.769  1.7810  0.3856  1.8389
  651MOL0     H87845   6.090   8.700   2.519 -0.4959 -0.7907  0.3783
  651MOL0     H87846   6.292   8.638   2.422  1.2835 -0.4612  0.9314
  651MOL0     H87847   6.691   8.321   2.387  2.1407  1.1544  1.4905
  651MOL0     H87848   6.899   8.344   2.275  0.2521  1.7672  2.1922
  651MOL0     H87849   7.157   8.516   2.092 -0.8074  1.5219 -1.7855
  651MOL0     H87850   7.067   8.396   2.202 -2.9404  0.8240 -0.0433
  651MOL0     H87851   7.044   8.251   2.016 -1.2293  0.2450 -1.4612
  651MOL0     H87852   7.041   8.388   1.910 -1.5166  0.8367  2.8101
  651MOL0     H87853   7.295   8.398   1.946 -0.1140  0.6695 -2.8342
  651MOL0     H87854   7.279   8.245   2.032  1.0335  1.7449  1.0682
  651MOL0     H87855   7.155   8.296   1.763 -1.6964 -0.8907  1.3250
  651MOL0     H87856   7.184   8.140   1.838  0.7440 -0.5379 -4.4952
  651MOL0     H87857   7.358   8.138   1.686  0.9868  0.8967 -0.0769
  651MOL0     H87858   7.440   8.207   1.828 -1.4157  1.2176  0.5178
  651MOL0     H87859   7.338   8.387   1.614  1.0733  0.2467 -0.7192
  651MOL0     H87860   7.457   8.415   1.746  0.5983 -0.5508  0.8773
  651MOL0     H87861   7.523   8.200   1.540 -1.0921  0.6433 -2.2221
  651MOL0     H87862   7.628   8.281   1.655  0.1572  0.5904 -0.6854
  651MOL0     H87863   7.582   8.506   1.540  0.7009 -0.0572 -1.0036
  651MOL0     H87864   7.695   8.385   1.486  0.7710  1.5112  1.2621
  651MOL0     H87865   6.735   8.672   2.029 -0.7124  2.6401  1.5512
  651MOL0     H87866   6.518   8.635   2.146 -1.7400 -1.6271  0.8712
  651MOL0     H87867   6.184   8.216   2.485 -0.5559 -0.4281 -0.0302
  651MOL0     H87868   5.990   8.280   2.591  0.8208 -0.5032  0.7342
  651MOL0     H87869   4.384   8.587   3.013  0.4375  0.6317  0.8973
  651MOL0     H87870   4.153   8.587   3.135  1.2784  1.6773 -0.5033
  651MOL0     H87871   3.707   8.628   3.054 -2.2554 -0.9030 -1.7486
  651MOL0     H87872   3.505   8.677   3.167  2.7395  1.4537  0.3727
  651MOL0     H87873   3.187   8.447   3.362 -1.6144  3.2006 -2.8204
  651MOL0     H87874   3.301   8.321   3.312 -0.0634 -0.9583 -2.9975
  651MOL0     H87875   3.327   8.434   3.092  0.7830 -0.6589  1.4072
  651MOL0     H87876   3.226   8.563   3.141  2.2201  0.5012  0.5795
  651MOL0     H87877   3.035   8.424   3.173  0.5119 -0.2970  0.7597
  651MOL0     H87878   3.125   8.280   3.181  2.7241  0.1015  0.2289
  651MOL0     H87879   3.083   8.424   2.907  1.9435 -0.6360 -0.4797
  651MOL0     H87880   3.180   8.282   2.939 -0.8746 -1.0953  0.1196
  651MOL0     H87881   2.773   8.152   2.963  0.0280  0.5364  0.4861
  651MOL0     H87882   3.527   8.318   3.399  0.3355 -0.0373 -1.1966
  651MOL0     H87883   3.851   8.249   3.367 -1.6238  1.4023  2.0003
  651MOL0     H87884   3.694   8.163   3.360 -1.4376  0.8831 -1.1110
  651MOL0     H87885   3.795   8.170   3.216  1.8955  0.8622 -0.6494
  652MOL0     O87886   4.873   6.968   4.257  0.9040  0.0696 -0.6705
  652MOL0     C87887   4.776   6.981   4.333  0.0191 -0.2989  0.6273
  652MOL0     O87888   4.784   6.979   4.469  0.0464  0.8899  0.2778
  652MOL0     C87889   4.908   6.951   4.516  0.1743 -0.6081 -0.3050
  652MOL0     C87890   4.970   6.828   4.500 -0.1811  0.2857 -0.2190
  652MOL0     C87891   5.086   6.792   4.574  0.3096 -0.5226 -0.0145
  652MOL0     C87892   5.140   6.873   4.682 -0.2879  0.2400  0.5325
  652MOL0     O87893   5.252   6.825   4.740 -0.2658 -0.7609  0.0644
  652MOL0     C87894   5.319   6.905   4.838 -0.1220  0.2193  0.0440
  652MOL0     C87895   5.432   6.822   4.905 -0.0782  0.1252 -0.5452
  652MOL0     C87896   5.537   6.769   4.805 -0.2352  0.4133 -0.1989
  652MOL0     C87897   5.682   6.773   4.877  0.0383  0.1455 -0.1356
  652MOL0     C87898   5.789   6.731   4.784  0.1051  0.5199 -0.6381
  652MOL0     C87899   5.926   6.753   4.851  0.3709  0.0426  0.1997
  652MOL0     C87900   6.048   6.731   4.771 -0.0682  0.1206 -0.0700
  652MOL0     C87901   6.180   6.718   4.857 -0.4671 -0.1468  0.0443
  652MOL0     N87902   6.278   6.671   4.756  0.7048  0.2841  0.4800
  652MOL0     C87903   6.345   6.737   4.656 -0.3409  0.5120  0.5786
  652MOL0     C87904   6.428   6.647   4.594  0.3051 -0.0959 -0.2657
  652MOL0     C87905   6.528   6.673   4.483  0.4943  0.2859  0.5108
  652MOL0     C87906   6.671   6.659   4.517 -0.6240 -0.0523 -0.5553
  652MOL0     C87907   6.744   6.587   4.404  0.6581  0.0303 -0.2322
  652MOL0     C87908   6.772   6.676   4.287  0.1471 -0.2955  0.3540
  652MOL0     O87909   6.837   6.798   4.337  0.3140 -0.2663  0.0446
  652MOL0     C87910   6.976   6.786   4.331 -0.3367  0.9985 -0.1042
  652MOL0     C87911   7.041   6.733   4.444 -1.1450  0.3249 -0.6886
  652MOL0     C87912   7.182   6.735   4.452  0.3107 -0.2842 -0.0983
  652MOL0     C87913   7.259   6.772   4.338 -0.4698  0.7757 -0.4687
  652MOL0     C87914   7.412   6.773   4.352  0.4957  0.5141 -0.7536
  652MOL0     O87915   7.466   6.683   4.444 -0.2142  0.1410  0.2188
  652MOL0     C87916   7.605   6.673   4.471  0.2576  0.1498  0.2802
  652MOL0     C87917   7.711   6.710   4.391  0.3288 -0.1121  0.4547
  652MOL0     C87918   7.843   6.676   4.418  1.2561 -0.3264 -0.0911
  652MOL0     C87919   7.872   6.627   4.547  0.6037 -0.7866 -0.7755
  652MOL0     O87920   8.000   6.610   4.599  0.0898 -0.0094 -0.2297
  652MOL0     C87921   8.108   6.605   4.508 -0.1471 -0.2028  0.0765
  652MOL0     C87922   8.180   6.740   4.511 -0.0768  0.5188 -0.0775
  652MOL0     C87923   8.288   6.734   4.398  0.4328  0.2254 -0.0781
  652MOL0     C87924   8.393   6.842   4.429  0.0647 -0.3925 -0.3340
  652MOL0     C87925   8.523   6.810   4.346 -1.1625 -0.4370 -0.1291
  652MOL0     C87926   8.639   6.909   4.386 -0.0617 -0.2141  0.1579
  652MOL0     C87927   8.763   6.883   4.303  0.5467 -0.3595 -0.4719
  652MOL0     C87928   8.871   6.969   4.350 -0.4576 -1.0732  0.3521
  652MOL0    Cl87929   9.025   6.919   4.283 -0.6356 -0.5040 -0.1125
  652MOL0     C87930   7.769   6.586   4.631  0.5324  1.0489  0.0685
  652MOL0     C87931   7.634   6.608   4.587 -0.0081 -0.2838 -0.0805
  652MOL0     O87932   7.478   6.841   4.267  0.2891  0.6061 -0.2071
  652MOL0     C87933   7.192   6.813   4.222 -0.8922  0.8436 -0.5904
  652MOL0     C87934   7.057   6.827   4.220  1.5231 -0.5544  0.3131
  652MOL0     N87935   6.402   6.524   4.650  0.0781  0.8784 -0.5207
  652MOL0     N87936   6.312   6.540   4.748  0.6014 -0.4356  0.5852
  652MOL0     C87937   5.067   6.988   4.702 -0.1755 -0.0419 -0.7338
  652MOL0     C87938   4.959   7.028   4.620  0.2661 -0.0825 -0.5263
  652MOL0     C87939   4.642   7.002   4.269 -0.3511 -0.1952  0.1573
  652MOL0     C87940   4.525   6.972   4.336  0.7955  0.4031 -0.8436
  652MOL0     C87941   4.396   6.991   4.288 -0.1882  0.6085 -0.5342
  652MOL0     C87942   4.379   7.052   4.161 -0.3045 -0.5135 -0.2097
  652MOL0     O87943   4.256   7.080   4.094 -0.2487 -0.3339  0.5234
  652MOL0     C87944   4.137   7.038   4.158 -0.1263  0.0685  0.4977
  652MOL0     C87945   4.110   7.138   4.274 -0.4650 -0.0672 -0.9101
  652MOL0     C87946   4.119   7.293   4.250 -0.8750 -0.1256 -0.6021
  652MOL0     C87947   4.098   7.349   4.103 -0.7616  0.1060 -0.5201
  652MOL0     C87948   3.958   7.352   4.065  0.9057  0.2519 -0.8865
  652MOL0     C87949   3.850   7.374   4.015  0.3290 -0.6465 -0.2595
  652MOL0     C87950   4.490   7.084   4.092 -0.2381 -0.4752 -0.3209
  652MOL0     C87951   4.626   7.064   4.143  0.6801  0.1859 -0.0659
  652MOL0     C87952   4.737   7.122   4.050  0.3375 -0.2078 -0.0093
  652MOL0     H87953   4.915   6.753   4.444 -2.0972 -0.7046  2.7640
  652MOL0     H87954   5.127   6.698   4.541 -0.3732 -0.9039  0.2157
  652MOL0     H87955   5.358   6.984   4.772 -1.6641  1.7855  0.9202
  652MOL0     H87956   5.253   6.945   4.915 -1.2259  0.2264 -0.8806
  652MOL0     H87957   5.371   6.744   4.950  0.3311 -0.0728 -0.3287
  652MOL0     H87958   5.477   6.869   4.993 -0.7279 -3.5169  1.9486
  652MOL0     H87959   5.533   6.825   4.711 -0.3627  0.0458 -0.4145
  652MOL0     H87960   5.515   6.664   4.786 -1.1475  0.4207  0.7177
  652MOL0     H87961   5.694   6.880   4.898 -0.8060  0.5632 -1.6478
  652MOL0     H87962   5.689   6.709   4.965  1.1014 -0.1056 -0.3914
  652MOL0     H87963   5.773   6.626   4.760 -1.1919  0.8137 -1.1084
  652MOL0     H87964   5.784   6.786   4.690  1.1571 -2.5359 -2.6313
  652MOL0     H87965   5.928   6.857   4.885 -1.1325  0.1121  0.1224
  652MOL0     H87966   5.933   6.679   4.932  1.4237 -2.1990 -1.7945
  652MOL0     H87967   6.063   6.817   4.705  0.8952 -0.0912 -0.1372
  652MOL0     H87968   6.040   6.640   4.711 -0.9185  0.1264  0.0189
  652MOL0     H87969   6.224   6.810   4.896  1.2697 -1.9667  2.7646
  652MOL0     H87970   6.173   6.648   4.940  1.4708  0.2166  0.5676
  652MOL0     H87971   6.345   6.842   4.626 -1.4413 -0.4880 -3.6690
  652MOL0     H87972   6.507   6.606   4.400  2.0584 -1.2047  1.2625
  652MOL0     H87973   6.515   6.773   4.441 -2.6719 -0.2560 -0.0608
  652MOL0     H87974   6.712   6.757   4.542 -1.0066 -0.2907  1.1410
  652MOL0     H87975   6.672   6.603   4.611 -2.5222  1.1988  0.2613
  652MOL0     H87976   6.693   6.495   4.373  2.4478 -1.4734  0.9799
  652MOL0     H87977   6.837   6.547   4.446  0.3126 -0.8799 -0.3048
  652MOL0     H87978   6.679   6.682   4.228 -0.3254 -2.0855  0.8443
  652MOL0     H87979   6.841   6.626   4.218 -0.1136 -0.4683  0.2122
  652MOL0     H87980   6.978   6.719   4.532 -0.9342  1.2672 -0.3751
  652MOL0     H87981   7.222   6.720   4.552  1.2120 -0.1348 -0.4289
  652MOL0     H87982   7.692   6.762   4.298  0.8863  0.9864  0.9245
  652MOL0     H87983   7.912   6.691   4.336  0.8389 -0.7366 -0.5212
  652MOL0     H87984   8.185   6.537   4.545  2.4339  1.0749 -2.5506
  652MOL0     H87985   8.081   6.573   4.407  0.1502  2.0070 -0.7525
  652MOL0     H87986   8.114   6.823   4.484  0.6507  0.7780 -1.1412
  652MOL0     H87987   8.211   6.768   4.612  1.6150 -0.0332 -0.4116
  652MOL0     H87988   8.332   6.634   4.397  0.8740  0.4182 -1.5685
  652MOL0     H87989   8.236   6.755   4.305  2.5840  2.2050 -0.9311
  652MOL0     H87990   8.412   6.840   4.537 -2.0617 -0.3747  0.0940
  652MOL0     H87991   8.342   6.935   4.402  0.9965  0.6678  1.3647
  652MOL0     H87992   8.512   6.821   4.237 -0.4848  0.7917 -0.0852
  652MOL0     H87993   8.561   6.709   4.364 -1.0045  0.0036  2.2480
  652MOL0     H87994   8.595   7.008   4.367 -3.3643 -1.5572  0.1497
  652MOL0     H87995   8.659   6.892   4.492  0.8679 -1.0579 -0.1400
  652MOL0     H87996   8.747   6.887   4.195 -1.7732 -0.8460 -0.1912
  652MOL0     H87997   8.789   6.778   4.321  3.0704  0.3311  0.3862
  652MOL0     H87998   8.864   7.070   4.308  1.3596 -1.5511 -1.2507
  652MOL0     H87999   8.885   6.977   4.458  1.7120  1.1671 -0.0111
  652MOL0     H88000   7.795   6.529   4.719 -1.3452  1.4112  0.9018
  652MOL0     H88001   7.550   6.567   4.643  1.4564 -0.7140  1.9147
  652MOL0     H88002   7.235   6.852   4.130 -2.6344  2.4334 -0.7814
  652MOL0     H88003   7.015   6.883   4.137 -0.7039  0.2693  1.8932
  652MOL0     H88004   5.096   7.051   4.786  0.2246  1.0328 -1.6528
  652MOL0     H88005   4.912   7.123   4.647 -2.3659 -1.3502 -0.3346
  652MOL0     H88006   4.525   6.931   4.436  1.7002  2.0472 -0.1340
  652MOL0     H88007   4.316   6.949   4.349  1.2065 -1.0473  0.2679
  652MOL0     H88008   4.143   6.932   4.188  0.1657 -1.0043 -2.9741
  652MOL0     H88009   4.053   7.044   4.089 -0.5698 -1.2535  0.8714
  652MOL0     H88010   4.168   7.119   4.365 -0.6167 -3.5784 -1.3984
  652MOL0     H88011   4.003   7.121   4.295 -0.4168 -0.6158 -1.0830
  652MOL0     H88012   4.219   7.318   4.288 -1.1058 -0.9112  0.5956
  652MOL0     H88013   4.041   7.337   4.312 -1.6867  0.2716 -1.8683
  652MOL0     H88014   4.132   7.453   4.092  0.8223 -0.2118  0.8961
  652MOL0     H88015   4.156   7.286   4.035 -0.0860  0.0425  0.0966
  652MOL0     H88016   3.762   7.392   3.957  0.5769 -1.5612 -0.9451
  652MOL0     H88017   4.470   7.109   3.988  1.4255 -5.3411 -2.0713
  652MOL0     H88018   4.817   7.049   4.032  1.4973  1.5761 -2.5872
  652MOL0     H88019   4.693   7.162   3.959  0.6395  1.2819  0.4812
  652MOL0     H88020   4.793   7.199   4.103  0.2534 -1.9929  2.9406
  653MOL0     O88021   2.791   9.385   1.939  0.3110  1.0804 -0.1166
  653MOL0     C88022   2.738   9.282   1.967  0.4694  0.5711 -0.9316
  653MOL0     O88023   2.805   9.156   1.969  0.3595 -1.0528  0.7623
  653MOL0     C88024   2.931   9.141   1.914  0.7628  0.5813  0.7457
  653MOL0     C88025   3.020   9.235   1.868 -0.5241 -0.2449  0.6006
  653MOL0     C88026   3.146   9.198   1.831 -0.1733 -1.0330  0.6033
  653MOL0     C88027   3.186   9.066   1.834  0.6385  0.1636 -0.5093
  653MOL0     O88028   3.306   9.018   1.786 -0.3460 -0.2760  0.0655
  653MOL0     C88029   3.416   9.100   1.748 -0.4559  0.4997  0.3900
  653MOL0     C88030   3.525   8.999   1.767 -0.1993  0.0220  0.1128
  653MOL0     C88031   3.662   9.086   1.771 -0.1693  0.1469  0.8117
  653MOL0     C88032   3.697   9.145   1.635 -0.0184 -0.1633  0.8957
  653MOL0     C88033   3.840   9.179   1.627 -0.2425  0.6534  0.4780
  653MOL0     C88034   3.881   9.288   1.730 -0.5469 -1.1630  0.3256
  653MOL0     C88035   3.846   9.433   1.703 -0.3820  0.1734  0.7373
  653MOL0     C88036   3.945   9.494   1.602 -0.0006 -0.1956  0.8677
  653MOL0     N88037   4.063   9.539   1.660 -0.6119 -0.3552 -0.0010
  653MOL0     C88038   4.178   9.578   1.594 -0.0780 -0.1742 -0.3585
  653MOL0     C88039   4.260   9.632   1.689  0.4569  0.1685 -0.1660
  653MOL0     C88040   4.381   9.711   1.671  0.4949  0.0731 -0.6563
  653MOL0     C88041   4.461   9.667   1.549 -1.0735 -0.0273 -0.2126
  653MOL0     C88042   4.526   9.532   1.577 -0.1404 -0.1318 -0.5648
  653MOL0     C88043   4.607   9.497   1.455 -1.1447  0.0043  0.0377
  653MOL0     O88044   4.727   9.573   1.444  0.6036 -0.5714  0.0148
  653MOL0     C88045   4.842   9.535   1.508  0.0239 -0.3777  0.5475
  653MOL0     C88046   4.846   9.440   1.615  0.5361  0.5198  0.7720
  653MOL0     C88047   4.967   9.398   1.665  0.0295  0.2414 -0.2034
  653MOL0     C88048   5.087   9.471   1.628 -0.4294 -0.0479 -0.6903
  653MOL0     C88049   5.217   9.440   1.684  0.4665  0.0370 -0.8072
  653MOL0     O88050   5.332   9.484   1.616 -0.3385  0.5842  0.7660
  653MOL0     C88051   5.451   9.436   1.667 -0.3100 -0.0014  0.8411
  653MOL0     C88052   5.517   9.500   1.770  0.3941  0.8975  0.5962
  653MOL0     C88053   5.636   9.440   1.806  0.2607 -0.4304 -0.0053
  653MOL0     C88054   5.691   9.328   1.738  0.0427  0.3548 -0.1436
  653MOL0     O88055   5.814   9.281   1.774  0.0144 -0.0628 -0.3639
  653MOL0     C88056   5.915   9.382   1.754  0.0511  0.4338  0.4084
  653MOL0     C88057   6.043   9.342   1.812 -0.3516  0.3396  0.7264
  653MOL0     C88058   6.140   9.452   1.821 -0.8738  0.7507 -0.2060
  653MOL0     C88059   6.284   9.415   1.861 -0.3164  0.4705 -0.6841
  653MOL0     C88060   6.384   9.531   1.873  0.2760 -0.0280  0.6744
  653MOL0     C88061   6.506   9.505   1.952 -0.3488  0.5884  0.1929
  653MOL0     C88062   6.609   9.402   1.896  0.0487 -0.0428  0.2000
  653MOL0     C88063   6.721   9.385   2.002 -1.2085  0.3876 -0.2216
  653MOL0    Cl88064   6.800   9.544   2.028 -0.1328  0.1835  0.4309
  653MOL0     C88065   5.620   9.259   1.641  0.7672 -0.6677  0.5238
  653MOL0     C88066   5.501   9.324   1.607 -0.6289 -0.7662  0.0763
  653MOL0     O88067   5.221   9.378   1.788  1.2663 -0.5804  1.0084
  653MOL0     C88068   5.087   9.574   1.525 -0.1621  0.2122 -0.6770
  653MOL0     C88069   4.959   9.602   1.467  0.0078  0.4391  1.0131
  653MOL0     N88070   4.199   9.608   1.816 -0.2667  0.9352  0.0593
  653MOL0     N88071   4.085   9.544   1.794  0.2230 -0.9864  0.1003
  653MOL0     C88072   3.095   8.975   1.871  0.4934 -0.4719 -0.2302
  653MOL0     C88073   2.969   9.008   1.925 -0.8684  0.0529 -0.1696
  653MOL0     C88074   2.596   9.277   2.012  0.2124  0.1199 -0.2441
  653MOL0     C88075   2.530   9.154   2.017  0.9534  0.3429 -0.3239
  653MOL0     C88076   2.392   9.146   2.061  0.0343 -0.0103  0.3766
  653MOL0     C88077   2.320   9.264   2.101 -0.6021  0.5040  0.6284
  653MOL0     O88078   2.192   9.244   2.141 -0.0257  0.2706 -0.7661
  653MOL0     C88079   2.101   9.344   2.184  0.0407 -0.2317 -0.2511
  653MOL0     C88080   1.987   9.292   2.269 -1.2567 -0.9349  0.6630
  653MOL0     C88081   1.873   9.390   2.293 -0.1222 -0.3430 -0.6683
  653MOL0     C88082   1.789   9.361   2.416 -0.3151  0.8185  0.3591
  653MOL0     C88083   1.669   9.446   2.401 -0.2539 -0.5076  0.0666
  653MOL0     C88084   1.574   9.520   2.403  0.6549  0.0511 -0.0627
  653MOL0     C88085   2.382   9.383   2.095  0.4090 -0.1279 -0.1729
  653MOL0     C88086   2.520   9.391   2.058 -0.2415  0.9457  0.1660
  653MOL0     C88087   2.574   9.532   2.083 -0.0852 -0.0306 -0.2162
  653MOL0     H88088   3.005   9.340   1.891 -2.3987 -0.6318  1.2435
  653MOL0     H88089   3.216   9.278   1.813 -0.5406 -0.5424  1.3127
  653MOL0     H88090   3.403   9.134   1.645 -3.8546  2.3676  1.3018
  653MOL0     H88091   3.419   9.178   1.824 -1.1359 -1.1026  2.1265
  653MOL0     H88092   3.511   8.929   1.684 -0.9327 -1.2548  1.2585
  653MOL0     H88093   3.506   8.949   1.863 -2.4111 -0.9347 -0.7559
  653MOL0     H88094   3.738   9.013   1.800  1.1653 -0.2341 -3.1545
  653MOL0     H88095   3.652   9.160   1.852 -2.1773 -0.1590  0.8815
  653MOL0     H88096   3.689   9.075   1.551  1.6965 -0.3644  0.8457
  653MOL0     H88097   3.631   9.229   1.612 -1.0793 -1.8789 -3.1747
  653MOL0     H88098   3.904   9.090   1.629  1.9179  2.0931 -0.9900
  653MOL0     H88099   3.860   9.225   1.530 -0.8069  1.4222  0.7248
  653MOL0     H88100   3.833   9.282   1.828  0.5232  1.1904  1.0785
  653MOL0     H88101   3.989   9.292   1.748 -0.4652  0.2522 -0.3398
  653MOL0     H88102   3.842   9.495   1.793  1.5025  3.3993 -1.1684
  653MOL0     H88103   3.747   9.433   1.655  0.8875  0.1584 -2.1157
  653MOL0     H88104   3.967   9.426   1.519  0.1076  0.6494  0.1802
  653MOL0     H88105   3.887   9.575   1.557 -1.0615 -0.0148  2.5070
  653MOL0     H88106   4.198   9.582   1.488 -0.7932  2.8442 -0.4658
  653MOL0     H88107   4.345   9.814   1.661 -1.9780 -0.7393 -0.8794
  653MOL0     H88108   4.444   9.703   1.760  0.8859  0.8586 -0.8542
  653MOL0     H88109   4.404   9.665   1.455  0.7401 -0.5766 -1.3518
  653MOL0     H88110   4.535   9.747   1.539 -2.3838  1.1092 -1.4103
  653MOL0     H88111   4.453   9.452   1.592  0.1135 -0.0880  1.0504
  653MOL0     H88112   4.592   9.546   1.663 -1.6476 -1.4274  0.8797
  653MOL0     H88113   4.547   9.512   1.364  0.0995 -0.7499 -0.9467
  653MOL0     H88114   4.637   9.392   1.460 -1.3008 -0.0889 -0.7694
  653MOL0     H88115   4.753   9.390   1.643 -1.1572  2.0284 -1.6583
  653MOL0     H88116   4.994   9.315   1.730  0.0561  2.2393  2.5041
  653MOL0     H88117   5.481   9.594   1.811 -0.4511  0.9054 -0.1269
  653MOL0     H88118   5.698   9.487   1.881  0.0551  1.5114 -0.9976
  653MOL0     H88119   5.926   9.407   1.648 -0.5650 -0.7398  0.0477
  653MOL0     H88120   5.885   9.471   1.809 -1.6985 -1.1824  2.2046
  653MOL0     H88121   6.025   9.311   1.915 -2.2614  3.2143  1.3824
  653MOL0     H88122   6.085   9.261   1.753  0.0123  0.0330  1.3974
  653MOL0     H88123   6.135   9.505   1.725  0.2607  2.7140  0.7622
  653MOL0     H88124   6.111   9.530   1.891  1.4764  1.0675  0.4707
  653MOL0     H88125   6.322   9.337   1.795 -3.8426 -0.7833 -1.3937
  653MOL0     H88126   6.293   9.362   1.957 -0.1604  0.0454 -0.9332
  653MOL0     H88127   6.338   9.621   1.915  1.6660  0.5414  1.0527
  653MOL0     H88128   6.419   9.558   1.773  2.4850 -3.8177  0.2585
  653MOL0     H88129   6.559   9.599   1.974 -1.7198  0.8568  2.6745
  653MOL0     H88130   6.468   9.475   2.049 -0.3371 -0.0403  0.0068
  653MOL0     H88131   6.649   9.435   1.800 -0.4453 -0.5256 -0.1754
  653MOL0     H88132   6.558   9.305   1.895  0.7491 -0.5592  3.4889
  653MOL0     H88133   6.673   9.348   2.093  2.3135 -1.6606  0.9772
  653MOL0     H88134   6.793   9.303   1.995  0.3175  1.3690  2.4372
  653MOL0     H88135   5.651   9.164   1.599 -1.8888 -1.3655 -0.0354
  653MOL0     H88136   5.431   9.271   1.543  2.8101  0.0835 -4.9350
  653MOL0     H88137   5.183   9.620   1.504  0.6889 -0.1143  2.1095
  653MOL0     H88138   4.966   9.651   1.370  1.7935 -2.3937 -0.4136
  653MOL0     H88139   3.121   8.869   1.864 -0.2434 -0.6613 -0.2252
  653MOL0     H88140   2.897   8.935   1.961  0.9842 -0.9608  1.6886
  653MOL0     H88141   2.570   9.059   1.982  1.3442  0.2659  0.3179
  653MOL0     H88142   2.338   9.052   2.072  0.9890 -0.4002  2.0181
  653MOL0     H88143   2.058   9.390   2.094  0.2861 -2.1301 -1.3956
  653MOL0     H88144   2.156   9.418   2.242 -2.4770  0.4512  1.4250
  653MOL0     H88145   2.024   9.247   2.361 -0.4979 -0.1646  0.7504
  653MOL0     H88146   1.943   9.208   2.213 -0.6635 -0.1530 -1.0606
  653MOL0     H88147   1.808   9.392   2.205 -0.1301 -0.5469 -0.6690
  653MOL0     H88148   1.915   9.489   2.312  2.7987 -1.4754 -0.8307
  653MOL0     H88149   1.763   9.255   2.423  1.1132  0.5481  2.8210
  653MOL0     H88150   1.834   9.386   2.512 -0.9530  0.9869  0.6195
  653MOL0     H88151   1.488   9.582   2.415  1.8641  2.1263 -1.5651
  653MOL0     H88152   2.321   9.469   2.122  1.0722 -0.1700  1.6130
  653MOL0     H88153   2.501   9.596   2.134  0.9189  0.5018  0.5987
  653MOL0     H88154   2.662   9.525   2.148  1.5856  1.1002 -2.2188
  653MOL0     H88155   2.617   9.583   1.996  0.2336  2.1369  1.1228
  654MOL0     O88156   8.876  10.140   6.108 -0.0733 -0.4269  0.2064
  654MOL0     C88157   8.840  10.084   6.007 -0.3422  0.6055  0.0318
  654MOL0     O88158   8.892  10.097   5.884 -0.0429 -0.2561  0.0054
  654MOL0     C88159   9.020  10.157   5.878  0.0765  0.1281  0.3772
  654MOL0     C88160   9.133  10.107   5.943 -0.6747  0.1417  0.1022
  654MOL0     C88161   9.266  10.161   5.928  0.7952 -0.1164 -0.1703
  654MOL0     C88162   9.283  10.262   5.835 -0.3954  0.1592  0.6051
  654MOL0     O88163   9.414  10.313   5.829  0.9393  0.5433  0.3568
  654MOL0     C88164   9.454  10.430   5.748 -0.0319  0.1339 -0.3411
  654MOL0     C88165   9.485  10.386   5.615  0.5008 -0.3209 -0.3376
  654MOL0     C88166   9.554  10.492   5.535  0.1043  0.2435  0.4549
  654MOL0     C88167   9.702  10.483   5.563  0.4936  1.3175  0.7592
  654MOL0     C88168   9.771  10.589   5.473 -0.6821  0.1658  0.3358
  654MOL0     C88169   9.804  10.721   5.539  0.1121 -0.5184  0.3640
  654MOL0     C88170   9.902  10.801   5.445 -0.2723  0.0059 -0.5555
  654MOL0     C88171   9.944  10.926   5.515 -0.3681  0.1938 -0.3471
  654MOL0     N88172  10.021  10.905   5.642 -0.0049  0.4731  0.4670
  654MOL0     C88173  10.123  10.811   5.653 -0.6787 -0.3797 -0.3073
  654MOL0     C88174  10.160  10.828   5.784 -0.2482  0.6161 -0.8497
  654MOL0     C88175  10.282  10.756   5.838 -0.2643  0.0668 -0.6113
  654MOL0     C88176  10.409  10.832   5.814 -0.3309 -0.7820  0.1591
  654MOL0     C88177  10.530  10.754   5.871 -0.0202 -0.2270  0.4243
  654MOL0     C88178  10.669  10.811   5.823  0.1838  0.1364  0.2622
  654MOL0     O88179  10.660  10.947   5.867  0.6672  0.4591 -0.0713
  654MOL0     C88180  10.781  10.993   5.909  0.5590  0.2017  0.4681
  654MOL0     C88181  10.867  11.064   5.830  0.3091  0.0442  0.4030
  654MOL0     C88182  10.997  11.098   5.869  0.2426  0.2436 -0.2358
  654MOL0     C88183  11.036  11.075   6.006 -0.1625 -0.6437 -1.1193
  654MOL0     C88184  11.168  11.112   6.049  0.4948  0.5436 -0.5693
  654MOL0     O88185  11.253  11.178   5.967 -0.5859 -0.3257  0.6137
  654MOL0     C88186  11.384  11.195   6.017  0.4341  0.2364  0.6134
  654MOL0     C88187  11.487  11.143   5.939  0.1393  0.4582  0.1921
  654MOL0     C88188  11.614  11.138   5.993  0.8834  0.9691 -0.2743
  654MOL0     C88189  11.651  11.185   6.117  0.1901 -0.5495  0.4121
  654MOL0     O88190  11.787  11.186   6.142 -1.0877 -0.4398  0.2751
  654MOL0     C88191  11.838  11.270   6.242 -0.0797 -0.1787 -0.3330
  654MOL0     C88192  11.995  11.267   6.226  0.0490  0.3757  0.3421
  654MOL0     C88193  12.056  11.124   6.226  0.3157 -0.4054  0.5359
  654MOL0     C88194  12.206  11.129   6.185 -0.4240  0.8226 -0.3289
  654MOL0     C88195  12.281  10.995   6.223  0.3581  0.2335  0.4536
  654MOL0     C88196  12.428  11.011   6.187 -0.3543  0.4604  0.6585
  654MOL0     C88197  12.515  10.902   6.244 -0.7059  0.1028  0.2896
  654MOL0     C88198  12.660  10.909   6.190  0.2681  0.1050 -0.5212
  654MOL0    Cl88199  12.746  10.775   6.273 -0.1507 -0.3493  0.1268
  654MOL0     C88200  11.546  11.227   6.201 -0.0603 -0.0921  0.0080
  654MOL0     C88201  11.415  11.238   6.149  0.1593  0.3363  0.0296
  654MOL0     O88202  11.190  11.083   6.173 -0.5644 -0.2985  0.4155
  654MOL0     C88203  10.945  11.012   6.096 -0.6333  0.8549  0.1831
  654MOL0     C88204  10.817  10.968   6.042 -1.3742 -0.2129 -0.3812
  654MOL0     N88205  10.083  10.923   5.847  0.0836 -0.4778  0.5332
  654MOL0     N88206   9.999  10.963   5.760  0.3242 -0.5099 -0.5033
  654MOL0     C88207   9.166  10.303   5.759 -0.2472  0.3335 -0.2485
  654MOL0     C88208   9.041  10.251   5.784  0.1158  0.0274 -0.5470
  654MOL0     C88209   8.710  10.010   6.011 -0.4718 -0.8282 -0.0372
  654MOL0     C88210   8.622  10.028   5.904  0.0977  0.2309  0.1647
  654MOL0     C88211   8.495   9.975   5.903 -0.6913 -0.1889  0.7955
  654MOL0     C88212   8.442   9.907   6.016 -1.1598 -0.1729  0.4453
  654MOL0     O88213   8.310   9.868   6.010  0.8145 -0.1770 -0.1264
  654MOL0     C88214   8.238   9.815   6.127 -0.1061 -0.1794  0.8142
  654MOL0     C88215   8.120   9.738   6.084  0.3647 -0.3223  0.4456
  654MOL0     C88216   7.996   9.824   6.055  0.2979 -0.3440  0.1405
  654MOL0     C88217   8.012   9.909   5.932  0.5362  0.1468  0.0400
  654MOL0     C88218   8.046   9.845   5.809  0.8658 -0.6818  0.5488
  654MOL0     C88219   8.070   9.795   5.710 -0.4067 -0.5345  0.7853
  654MOL0     C88220   8.533   9.891   6.133  0.6717  0.7342  0.2663
  654MOL0     C88221   8.669   9.936   6.127 -0.3284 -0.6688  0.7972
  654MOL0     C88222   8.753   9.913   6.245  0.3306 -0.2861 -0.0842
  654MOL0     H88223   9.127  10.013   5.997 -1.0416  1.7651  3.0545
  654MOL0     H88224   9.351  10.112   5.975  0.8876  0.7126  0.5525
  654MOL0     H88225   9.388  10.516   5.760  0.3508  0.4016 -0.1297
  654MOL0     H88226   9.548  10.464   5.792 -0.3342  1.2986 -0.5485
  654MOL0     H88227   9.389  10.369   5.565  0.0946  2.6317 -0.7356
  654MOL0     H88228   9.538  10.290   5.615  0.3842 -0.3846  0.2387
  654MOL0     H88229   9.515  10.592   5.557 -1.1294 -0.1357  0.0516
  654MOL0     H88230   9.528  10.470   5.431  2.0524  0.4310 -0.1305
  654MOL0     H88231   9.719  10.496   5.671  1.5174 -0.7378  0.8790
  654MOL0     H88232   9.738  10.387   5.525 -2.6988  0.6842 -1.0951
  654MOL0     H88233   9.863  10.537   5.445 -0.8126  0.5059 -0.7563
  654MOL0     H88234   9.706  10.618   5.390 -1.5694 -2.4475  0.0467
  654MOL0     H88235   9.709  10.769   5.565  1.0751  0.2359  2.8305
  654MOL0     H88236   9.855  10.695   5.632  0.3881 -2.4844 -0.2945
  654MOL0     H88237   9.856  10.831   5.351 -1.8090  1.0238  0.4803
  654MOL0     H88238   9.989  10.738   5.425 -0.0601  0.5152 -1.2781
  654MOL0     H88239  10.009  10.981   5.446  0.8344 -0.5741  0.1410
  654MOL0     H88240   9.849  10.973   5.542 -1.1478 -1.4032 -0.2232
  654MOL0     H88241  10.169  10.755   5.572 -0.7829  0.8198 -1.2120
  654MOL0     H88242  10.274  10.750   5.947 -0.2325  0.7946 -0.5672
  654MOL0     H88243  10.280  10.658   5.788 -2.4079  0.4059 -1.2943
  654MOL0     H88244  10.432  10.852   5.709  1.7054 -1.7288  0.3869
  654MOL0     H88245  10.400  10.923   5.875 -1.0072 -0.4195 -0.4654
  654MOL0     H88246  10.513  10.655   5.828  1.8968  1.6388 -5.6074
  654MOL0     H88247  10.531  10.740   5.980  2.4441 -3.2346  0.1534
  654MOL0     H88248  10.679  10.776   5.720 -3.0816 -2.9769  0.8284
  654MOL0     H88249  10.746  10.750   5.871  1.1908  1.0380 -0.1541
  654MOL0     H88250  10.840  11.066   5.725  2.6814  0.0680 -0.2629
  654MOL0     H88251  11.063  11.138   5.792 -0.8510  0.6358 -1.0016
  654MOL0     H88252  11.466  11.115   5.836 -3.4191  2.3528  0.2617
  654MOL0     H88253  11.690  11.101   5.925 -1.7542 -1.3912 -2.1783
  654MOL0     H88254  11.805  11.371   6.217  0.3787  0.1862  0.4911
  654MOL0     H88255  11.809  11.243   6.344  2.0902 -0.5284  0.2446
  654MOL0     H88256  12.024  11.306   6.128  0.5290 -0.2389  0.2297
  654MOL0     H88257  12.037  11.326   6.308 -1.4024  0.6144  0.9373
  654MOL0     H88258  12.036  11.062   6.314 -1.3054 -0.5902  0.0735
  654MOL0     H88259  11.995  11.070   6.152  1.9322  0.3132 -1.4022
  654MOL0     H88260  12.253  11.201   6.252 -0.9816 -0.2668  1.3087
  654MOL0     H88261  12.224  11.150   6.079 -2.4180  0.6557 -0.7365
  654MOL0     H88262  12.247  10.906   6.170  0.7019 -0.6795  1.7182
  654MOL0     H88263  12.267  10.988   6.331  0.7965  1.9406  0.6554
  654MOL0     H88264  12.439  11.018   6.079  1.0277  0.5189  0.7814
  654MOL0     H88265  12.461  11.107   6.227 -0.6521  0.4729  0.8809
  654MOL0     H88266  12.474  10.805   6.215 -1.0080  0.4144 -0.3414
  654MOL0     H88267  12.515  10.914   6.352  2.3995  1.5921  0.2087
  654MOL0     H88268  12.673  10.907   6.082 -0.9196 -0.7938 -0.6672
  654MOL0     H88269  12.702  11.003   6.227 -1.3120  0.5802  0.1547
  654MOL0     H88270  11.565  11.242   6.307  1.4616 -0.4026 -0.1953
  654MOL0     H88271  11.339  11.262   6.223 -1.0757 -0.5514 -0.9031
  654MOL0     H88272  10.951  10.984   6.200 -2.0891 -4.9766 -0.9523
  654MOL0     H88273  10.744  10.913   6.102  0.2550 -0.9075  1.0711
  654MOL0     H88274   9.164  10.377   5.679  0.8128 -0.0021 -0.5983
  654MOL0     H88275   8.961  10.285   5.719  0.0139  3.0154  0.9811
  654MOL0     H88276   8.649  10.086   5.816  1.3330  1.1821  1.1263
  654MOL0     H88277   8.439   9.992   5.811  0.3393  0.5768  0.2927
  654MOL0     H88278   8.212   9.902   6.188 -0.5225  0.3286 -0.0805
  654MOL0     H88279   8.300   9.761   6.199  1.4142  1.1455  0.5838
  654MOL0     H88280   8.098   9.681   6.174  1.1808  0.7917  1.3892
  654MOL0     H88281   8.134   9.677   5.995 -1.9354  2.5684 -2.1316
  654MOL0     H88282   7.972   9.889   6.139 -3.0406  1.8304 -2.2399
  654MOL0     H88283   7.907   9.761   6.041 -1.4095  2.1932 -1.1041
  654MOL0     H88284   7.919   9.959   5.903 -1.2082 -4.0011 -2.3450
  654MOL0     H88285   8.087   9.986   5.956  2.1347 -1.7665  1.4816
  654MOL0     H88286   8.093   9.749   5.615  3.7777  0.9038  0.8960
  654MOL0     H88287   8.500   9.840   6.224  1.6334  0.2762  0.3786
  654MOL0     H88288   8.730   9.823   6.303 -2.9406 -0.2186 -1.1219
  654MOL0     H88289   8.858   9.904   6.215 -0.4385 -1.1226 -2.6994
  654MOL0     H88290   8.743   9.996   6.316  0.4779 -0.7363  0.4781
  655MOL0     O88291   8.250   3.341   3.235  0.3958  0.3595 -0.3589
  655MOL0     C88292   8.359   3.357   3.294  0.5563  0.0345  1.0035
  655MOL0     O88293   8.482   3.374   3.228  0.1871 -0.4152 -0.0927
  655MOL0     C88294   8.503   3.359   3.092  0.3451 -0.6100  0.2274
  655MOL0     C88295   8.411   3.299   2.994  0.3884  0.4627  0.2115
  655MOL0     C88296   8.444   3.309   2.856 -0.3233 -0.0181 -0.0611
  655MOL0     C88297   8.556   3.380   2.809  0.2117 -0.3824  0.1809
  655MOL0     O88298   8.592   3.392   2.674  0.3361  0.1852  0.1302
  655MOL0     C88299   8.527   3.312   2.574  0.1491  0.7843 -0.4731
  655MOL0     C88300   8.619   3.311   2.450  0.0760  0.2169  0.1963
  655MOL0     C88301   8.664   3.446   2.398 -0.7157  0.1960  0.5219
  655MOL0     C88302   8.770   3.426   2.287 -0.5402 -0.4857 -0.1432
  655MOL0     C88303   8.808   3.559   2.221 -0.1139  0.2158 -0.1213
  655MOL0     C88304   8.745   3.585   2.083 -0.5859  0.1121 -0.8565
  655MOL0     C88305   8.764   3.475   1.983  0.1013 -0.0436  1.2395
  655MOL0     C88306   8.748   3.531   1.838  0.2300 -0.1369  0.6480
  655MOL0     N88307   8.784   3.425   1.739 -0.4665  0.0323 -0.0716
  655MOL0     C88308   8.781   3.446   1.606 -0.0702  0.7117  0.3075
  655MOL0     C88309   8.874   3.359   1.555 -0.4200 -0.4591 -0.4156
  655MOL0     C88310   8.930   3.343   1.420  0.4514  0.8722  0.0537
  655MOL0     C88311   9.086   3.350   1.414 -0.5483  0.2602 -0.1383
  655MOL0     C88312   9.148   3.479   1.463 -0.1395 -0.5004 -0.5769
  655MOL0     C88313   9.296   3.488   1.414  0.2416  0.6737 -0.1931
  655MOL0     O88314   9.299   3.614   1.349  0.6016 -0.4754 -0.4719
  655MOL0     C88315   9.424   3.679   1.330 -0.1962  0.0970 -0.8160
  655MOL0     C88316   9.431   3.812   1.296  0.0791 -1.0294 -0.4784
  655MOL0     C88317   9.554   3.880   1.264  0.2780 -0.2897  0.2066
  655MOL0     C88318   9.673   3.807   1.281 -0.7294 -1.0026 -0.1616
  655MOL0     C88319   9.798   3.880   1.263 -0.3076  0.2665  0.6609
  655MOL0     O88320   9.917   3.818   1.302  0.3578 -0.1239  0.5949
  655MOL0     C88321  10.038   3.876   1.292 -0.4386 -0.9118 -1.1138
  655MOL0     C88322  10.067   4.012   1.271  0.1872 -0.8692 -0.2037
  655MOL0     C88323  10.200   4.057   1.297 -0.1453  0.3629  0.3089
  655MOL0     C88324  10.309   3.969   1.333  0.3058 -0.0451 -0.4118
  655MOL0     O88325  10.431   4.019   1.335  0.2640  0.1100  0.6665
  655MOL0     C88326  10.544   3.949   1.285  0.0967  0.0118  0.3359
  655MOL0     C88327  10.656   4.044   1.258  0.1596  0.1876 -0.2328
  655MOL0     C88328  10.752   4.079   1.382  0.0644 -0.7155 -0.2409
  655MOL0     C88329  10.885   4.115   1.323  0.5020  0.0376  0.0157
  655MOL0     C88330  10.988   4.149   1.421 -0.7012 -0.6912 -0.5117
  655MOL0     C88331  10.957   4.263   1.517 -0.7012 -0.7011  0.4477
  655MOL0     C88332  11.070   4.282   1.624 -0.7279  0.2731 -0.1274
  655MOL0     C88333  11.201   4.320   1.558  0.0691 -0.2855  0.0056
  655MOL0    Cl88334  11.319   4.402   1.672 -0.0692  0.0677  0.5350
  655MOL0     C88335  10.269   3.831   1.354  0.1942 -0.4848 -0.4661
  655MOL0     C88336  10.140   3.790   1.326 -0.4431  0.2346  0.5942
  655MOL0     O88337   9.794   3.995   1.220 -0.0313  0.1389 -0.5775
  655MOL0     C88338   9.662   3.668   1.305 -0.8400 -0.4771 -0.1593
  655MOL0     C88339   9.544   3.602   1.324  0.0448  0.0598 -0.7014
  655MOL0     N88340   8.928   3.283   1.663  0.1264 -0.3048  0.4125
  655MOL0     N88341   8.879   3.324   1.768  0.0093 -0.5859  0.5117
  655MOL0     C88342   8.635   3.443   2.906  0.5516  0.0820 -0.0479
  655MOL0     C88343   8.611   3.431   3.044  0.1071  1.0207 -0.2684
  655MOL0     C88344   8.356   3.340   3.437 -1.3258  0.0248 -0.3013
  655MOL0     C88345   8.495   3.325   3.494  0.2037 -0.4618  0.2165
  655MOL0     C88346   8.503   3.326   3.628  0.0409 -0.7105 -0.3820
  655MOL0     C88347   8.396   3.346   3.718  0.1023 -0.3134 -0.6052
  655MOL0     O88348   8.415   3.369   3.855  0.0236  0.1473 -0.3288
  655MOL0     C88349   8.551   3.346   3.919 -0.1252  0.5488  0.3299
  655MOL0     C88350   8.571   3.200   3.949  0.2356 -0.7833  1.1882
  655MOL0     C88351   8.712   3.156   3.983 -1.0821  0.6147  1.2039
  655MOL0     C88352   8.807   3.168   3.854  0.2740  0.4429  0.3547
  655MOL0     C88353   8.748   3.092   3.743  0.8312  0.2242 -0.1001
  655MOL0     C88354   8.677   3.039   3.661 -0.5229 -0.0671  0.5995
  655MOL0     C88355   8.267   3.340   3.663 -1.7571 -0.5721  0.6528
  655MOL0     C88356   8.246   3.348   3.526 -0.1012 -0.4768  0.3476
  655MOL0     C88357   8.106   3.388   3.480 -0.6526 -0.7862  0.4470
  655MOL0     H88358   8.322   3.241   3.018  0.7554  0.2905  1.1982
  655MOL0     H88359   8.387   3.257   2.779 -2.8726  3.8132 -1.0091
  655MOL0     H88360   8.500   3.210   2.603  1.8439  0.1504 -0.9910
  655MOL0     H88361   8.437   3.364   2.540 -2.0253 -2.8108 -0.7420
  655MOL0     H88362   8.579   3.251   2.368  1.9936 -1.9431  0.7216
  655MOL0     H88363   8.716   3.263   2.470  0.5902  0.9857 -0.3916
  655MOL0     H88364   8.701   3.505   2.483 -3.1397  3.1550 -0.3043
  655MOL0     H88365   8.572   3.490   2.358 -1.7264 -2.0046  0.2958
  655MOL0     H88366   8.862   3.384   2.328 -0.0051  0.0971 -0.7039
  655MOL0     H88367   8.744   3.343   2.221 -1.0301 -1.7370  1.5923
  655MOL0     H88368   8.804   3.649   2.283  1.8541  2.8463 -3.4645
  655MOL0     H88369   8.916   3.555   2.202 -0.2005  1.9426 -1.0993
  655MOL0     H88370   8.636   3.595   2.096 -1.0989 -2.4179 -2.4827
  655MOL0     H88371   8.794   3.679   2.056 -0.5483  0.7107  1.1297
  655MOL0     H88372   8.681   3.403   1.986 -2.5300  2.7450  0.2928
  655MOL0     H88373   8.863   3.430   1.989  0.8255  1.5134  1.4096
  655MOL0     H88374   8.646   3.562   1.815  0.1945  2.3579  3.5357
  655MOL0     H88375   8.807   3.622   1.825 -1.1807  0.9659  1.6913
  655MOL0     H88376   8.733   3.529   1.555  0.3759 -0.5080 -2.2442
  655MOL0     H88377   8.892   3.255   1.368 -0.4574  0.6228  1.0820
  655MOL0     H88378   8.885   3.429   1.371 -1.5622  0.5634  1.2339
  655MOL0     H88379   9.136   3.277   1.479 -0.6131  1.0168  0.7931
  655MOL0     H88380   9.117   3.337   1.310 -0.3174  1.5602 -0.2444
  655MOL0     H88381   9.151   3.489   1.572  0.0228 -0.2855 -0.5998
  655MOL0     H88382   9.094   3.567   1.424 -0.6155 -1.1001 -1.2938
  655MOL0     H88383   9.325   3.403   1.352 -2.6950  1.4193 -2.8654
  655MOL0     H88384   9.369   3.477   1.495 -0.8764 -0.8907  0.6549
  655MOL0     H88385   9.340   3.869   1.279  0.7615 -0.4119 -2.2173
  655MOL0     H88386   9.558   3.985   1.236  2.5519 -0.2701  0.4098
  655MOL0     H88387   9.992   4.083   1.240  1.3819 -0.5181 -2.5389
  655MOL0     H88388  10.211   4.162   1.270 -0.0656  0.7519  1.7586
  655MOL0     H88389  10.580   3.883   1.365  1.2571  0.7532  0.4411
  655MOL0     H88390  10.535   3.896   1.190  2.0488  4.3087 -2.5645
  655MOL0     H88391  10.711   4.004   1.173  0.4308  2.6000 -1.2616
  655MOL0     H88392  10.622   4.140   1.218  0.0922  0.9451  1.5530
  655MOL0     H88393  10.707   4.162   1.437  0.6015 -0.4522 -0.1962
  655MOL0     H88394  10.771   3.995   1.450  0.6658  0.9026  1.6788
  655MOL0     H88395  10.859   4.200   1.258 -2.7924  0.8601  2.1609
  655MOL0     H88396  10.912   4.035   1.254 -0.9828  0.0922 -0.6762
  655MOL0     H88397  11.070   4.183   1.357 -1.0253  0.3996 -0.3702
  655MOL0     H88398  11.016   4.060   1.477 -0.6961 -1.2405 -1.3680
  655MOL0     H88399  10.933   4.360   1.471 -1.1866 -0.0302  2.0430
  655MOL0     H88400  10.867   4.238   1.574 -3.0285 -0.8823 -2.9980
  655MOL0     H88401  11.086   4.190   1.682  3.3059 -0.5799 -2.1598
  655MOL0     H88402  11.028   4.359   1.689  0.0075  1.0913 -0.5995
  655MOL0     H88403  11.248   4.234   1.509 -2.4445 -1.8790  0.2641
  655MOL0     H88404  11.180   4.392   1.478  1.9067 -2.7031 -2.9050
  655MOL0     H88405  10.341   3.760   1.393  0.8785 -0.9474 -2.4674
  655MOL0     H88406  10.126   3.683   1.333  1.4360 -0.0380  0.6570
  655MOL0     H88407   9.756   3.613   1.312 -0.2635  0.4413 -0.5961
  655MOL0     H88408   9.550   3.498   1.354  2.5693  0.6499  1.1448
  655MOL0     H88409   8.713   3.507   2.864 -1.7335  2.2508 -1.2185
  655MOL0     H88410   8.675   3.476   3.119 -1.2505 -1.1879  2.4107
  655MOL0     H88411   8.585   3.333   3.435 -0.0985  0.0690 -0.1752
  655MOL0     H88412   8.605   3.334   3.664  0.4381  2.1328 -1.8318
  655MOL0     H88413   8.552   3.392   4.018 -1.6062 -1.0345  1.1370
  655MOL0     H88414   8.631   3.378   3.853  0.7940 -0.6248  0.8323
  655MOL0     H88415   8.528   3.139   3.869  1.6721  1.7610 -1.7192
  655MOL0     H88416   8.515   3.169   4.038 -1.1145 -5.1080 -0.8848
  655MOL0     H88417   8.705   3.051   4.011 -1.6349  0.4770  0.5865
  655MOL0     H88418   8.748   3.221   4.063 -0.0185  0.5294  0.8047
  655MOL0     H88419   8.834   3.272   3.832 -0.1682  0.4846  0.0027
  655MOL0     H88420   8.907   3.127   3.870  0.9260  1.8199  0.0114
  655MOL0     H88421   8.621   2.984   3.589 -1.8411  1.0682  0.7046
  655MOL0     H88422   8.184   3.347   3.733 -1.5714 -0.5588  0.8720
  655MOL0     H88423   8.040   3.411   3.565 -2.7775 -1.5063 -0.9156
  655MOL0     H88424   8.107   3.486   3.431 -1.7982 -0.9131  0.1358
  655MOL0     H88425   8.057   3.311   3.420  0.6586 -1.0638 -0.2976
  656MOL0     O88426   3.695   4.856  11.210  0.2928  0.9693  0.1417
  656MOL0     C88427   3.680   4.898  11.327 -0.0952  1.3858  0.6712
  656MOL0     O88428   3.782   4.932  11.414  0.2883  0.0232 -0.1958
  656MOL0     C88429   3.903   4.897  11.368  0.0022 -0.6318  0.1056
  656MOL0     C88430   3.981   4.997  11.308  0.0996 -0.5060  0.6534
  656MOL0     C88431   4.116   4.971  11.283  0.1931 -0.2530  0.9718
  656MOL0     C88432   4.169   4.851  11.318  0.5789  0.9108  0.2361
  656MOL0     O88433   4.296   4.807  11.298  0.0663  0.7161 -0.0275
  656MOL0     C88434   4.375   4.856  11.187 -0.5373 -0.0552 -0.2000
  656MOL0     C88435   4.492   4.756  11.160 -0.7443  0.0946 -0.2171
  656MOL0     C88436   4.610   4.784  11.252 -0.5821 -0.5455  0.2219
  656MOL0     C88437   4.729   4.693  11.243 -0.1442 -0.9232  0.4888
  656MOL0     C88438   4.827   4.711  11.360  0.4457  0.2645 -0.6067
  656MOL0     C88439   4.920   4.594  11.375  0.2913 -0.1630 -0.2366
  656MOL0     C88440   4.995   4.592  11.515 -0.4156 -0.0557 -0.0565
  656MOL0     C88441   5.100   4.478  11.534 -0.3674  0.4838 -0.0756
  656MOL0     N88442   5.213   4.503  11.447 -0.2603 -0.5926  0.3347
  656MOL0     C88443   5.305   4.605  11.463  0.0087  0.2461  0.2846
  656MOL0     C88444   5.385   4.594  11.352  0.7347 -0.7547  0.1193
  656MOL0     C88445   5.485   4.690  11.294  0.8269 -0.1600 -0.3291
  656MOL0     C88446   5.409   4.815  11.244 -0.1048  0.2022 -0.3118
  656MOL0     C88447   5.494   4.905  11.151 -0.0902  0.2870 -0.1074
  656MOL0     C88448   5.614   4.957  11.232 -0.5166  0.1720 -0.2599
  656MOL0     O88449   5.568   5.013  11.360 -0.9021  0.6576 -0.1047
  656MOL0     C88450   5.660   5.045  11.457  0.5328 -0.5036 -0.4792
  656MOL0     C88451   5.789   5.014  11.461 -0.6019 -0.2146 -0.2052
  656MOL0     C88452   5.878   5.065  11.563 -0.2727  0.1060 -0.1307
  656MOL0     C88453   5.839   5.156  11.660  0.1163  0.5205  0.9848
  656MOL0     C88454   5.936   5.213  11.747 -0.1722 -0.7287  1.0378
  656MOL0     O88455   6.068   5.187  11.718  0.3170  0.0663  0.4682
  656MOL0     C88456   6.161   5.244  11.787 -0.1660  0.3470 -0.6379
  656MOL0     C88457   6.281   5.178  11.785  0.2241  0.8245  0.0373
  656MOL0     C88458   6.397   5.228  11.835 -1.1557 -0.0387 -0.0975
  656MOL0     C88459   6.401   5.363  11.897 -0.4432  0.3479 -0.3710
  656MOL0     O88460   6.510   5.420  11.958  0.0832  0.5562  0.6400
  656MOL0     C88461   6.614   5.333  11.991  0.4086  0.0357  0.1379
  656MOL0     C88462   6.726   5.432  12.025  0.9801 -0.4754  0.0751
  656MOL0     C88463   6.856   5.355  12.056 -0.5809 -0.8221 -0.5277
  656MOL0     C88464   6.983   5.447  12.050  0.1573 -0.5065 -0.0872
  656MOL0     C88465   7.105   5.385  11.996 -0.3199 -1.0561  0.1573
  656MOL0     C88466   7.222   5.475  11.966 -0.0969 -0.9403  0.0394
  656MOL0     C88467   7.337   5.394  11.906 -0.2964 -0.6563 -0.1382
  656MOL0     C88468   7.461   5.486  11.917 -0.3712 -0.2805  0.7585
  656MOL0    Cl88469   7.523   5.471  12.085 -0.4417  0.0562  0.2113
  656MOL0     C88470   6.280   5.432  11.896  0.2388 -0.1645 -0.3451
  656MOL0     C88471   6.168   5.379  11.836 -0.6873 -0.1411 -0.4290
  656MOL0     O88472   5.895   5.299  11.824  0.1980  0.5159  0.5834
  656MOL0     C88473   5.704   5.203  11.642 -0.1452 -0.1793 -0.8450
  656MOL0     C88474   5.617   5.141  11.553  0.1291 -1.0230 -0.0210
  656MOL0     N88475   5.342   4.480  11.283 -0.0608 -0.3242  0.1680
  656MOL0     N88476   5.238   4.430  11.340 -0.6483 -1.1546  0.3664
  656MOL0     C88477   4.094   4.755  11.375 -0.5965  0.0038  0.3453
  656MOL0     C88478   3.959   4.776  11.403  0.3324  0.9771  0.0541
  656MOL0     C88479   3.541   4.939  11.372  0.4064  0.3091  0.6283
  656MOL0     C88480   3.526   5.050  11.448  0.4180 -0.2630 -0.2987
  656MOL0     C88481   3.394   5.089  11.492 -1.0490 -0.6556  0.3288
  656MOL0     C88482   3.285   5.008  11.461  0.6879 -0.4128  0.6591
  656MOL0     O88483   3.157   5.043  11.502 -0.0977  0.1312 -0.3021
  656MOL0     C88484   3.047   4.946  11.510 -0.4316 -0.0625  0.1872
  656MOL0     C88485   2.943   4.979  11.616 -0.6518  0.1911  0.1638
  656MOL0     C88486   2.868   5.107  11.587  0.7853 -0.2694  0.1586
  656MOL0     C88487   2.763   5.138  11.705  0.2797  0.1272 -0.5558
  656MOL0     C88488   2.648   5.050  11.701  0.3676  0.4894 -0.2399
  656MOL0     C88489   2.562   4.963  11.696  0.3612 -0.8789  0.4573
  656MOL0     C88490   3.304   4.891  11.384  0.8558 -0.2559  0.6182
  656MOL0     C88491   3.429   4.861  11.337  1.0628  0.1794  0.0735
  656MOL0     C88492   3.427   4.736  11.250 -0.8915 -0.0439 -0.0125
  656MOL0     H88493   3.925   5.075  11.258 -1.0859 -2.5001 -1.3337
  656MOL0     H88494   4.184   5.045  11.243  0.1205 -0.0505  1.2212
  656MOL0     H88495   4.314   4.863  11.097 -0.7407 -1.8315 -0.2419
  656MOL0     H88496   4.425   4.949  11.217  1.4574 -1.4958  1.2082
  656MOL0     H88497   4.522   4.764  11.055 -0.7463 -0.5204 -0.2693
  656MOL0     H88498   4.469   4.652  11.184 -0.7209 -0.3264 -1.9032
  656MOL0     H88499   4.586   4.786  11.358  0.6471  2.5685  0.5479
  656MOL0     H88500   4.638   4.886  11.225  0.6849 -0.0235  3.1896
  656MOL0     H88501   4.686   4.593  11.235 -2.3139  0.0909 -2.9886
  656MOL0     H88502   4.791   4.713  11.154  0.5080  2.2886  1.5290
  656MOL0     H88503   4.888   4.801  11.352 -0.5185  1.0791  0.7355
  656MOL0     H88504   4.789   4.722  11.462  0.2509 -0.8171 -0.5500
  656MOL0     H88505   4.859   4.504  11.366 -0.1162  0.1112 -0.2754
  656MOL0     H88506   4.997   4.592  11.297  0.2575  1.2047 -0.3302
  656MOL0     H88507   4.922   4.576  11.595  2.3220 -3.1456  2.1361
  656MOL0     H88508   5.041   4.688  11.539  0.9270 -1.0069  1.4566
  656MOL0     H88509   5.135   4.479  11.638  0.2849  1.8608 -0.2859
  656MOL0     H88510   5.055   4.385  11.498 -0.2368  0.1274  0.6659
  656MOL0     H88511   5.308   4.668  11.552 -3.6369  0.2357  0.5447
  656MOL0     H88512   5.549   4.732  11.372 -1.2233  1.1257  0.7459
  656MOL0     H88513   5.562   4.641  11.233  1.3618 -1.9531  1.6749
  656MOL0     H88514   5.332   4.774  11.178  0.1817 -2.2695  0.7787
  656MOL0     H88515   5.353   4.863  11.325 -0.7873  0.8131 -1.1349
  656MOL0     H88516   5.431   4.988  11.119  2.4181  1.7665 -1.5513
  656MOL0     H88517   5.537   4.860  11.061  0.1822  1.3328 -0.5146
  656MOL0     H88518   5.672   5.024  11.168 -2.0537  1.2082 -0.6110
  656MOL0     H88519   5.678   4.869  11.248 -0.7328  0.3511  1.7902
  656MOL0     H88520   5.831   4.947  11.387  0.2245  2.6390 -2.5012
  656MOL0     H88521   5.976   5.024  11.583 -1.6994 -3.1422  0.9460
  656MOL0     H88522   6.285   5.075  11.749 -0.9777  1.0252 -0.7259
  656MOL0     H88523   6.486   5.167  11.826 -1.8191 -0.9244 -0.9148
  656MOL0     H88524   6.597   5.276  12.082  1.9542 -1.1504 -0.2811
  656MOL0     H88525   6.651   5.270  11.910 -1.4657  1.1275 -1.6954
  656MOL0     H88526   6.741   5.489  11.933 -0.2015  0.7473  0.6112
  656MOL0     H88527   6.699   5.495  12.111 -0.8150 -4.6156  2.8609
  656MOL0     H88528   6.853   5.308  12.155  0.7042 -0.5904 -0.3607
  656MOL0     H88529   6.879   5.279  11.981  0.6140 -0.8541 -0.1490
  656MOL0     H88530   7.010   5.500  12.142  0.0109 -0.8756  0.1710
  656MOL0     H88531   6.954   5.525  11.979 -0.2073 -0.4256  0.1458
  656MOL0     H88532   7.080   5.337  11.901  0.2887  2.3901 -1.9030
  656MOL0     H88533   7.144   5.307  12.063  1.9225 -0.4880 -0.3962
  656MOL0     H88534   7.177   5.544  11.895  0.2787  1.6502  2.1722
  656MOL0     H88535   7.249   5.529  12.058 -3.3073 -0.7172  0.9590
  656MOL0     H88536   7.320   5.375  11.800 -0.3850  1.1130 -0.4666
  656MOL0     H88537   7.360   5.303  11.961  3.0887 -0.2058 -0.5927
  656MOL0     H88538   7.537   5.449  11.847  0.1722 -0.2426  1.3193
  656MOL0     H88539   7.438   5.591  11.897  0.9323 -0.0706  0.2619
  656MOL0     H88540   6.271   5.526  11.950  0.6668 -0.4563  0.2396
  656MOL0     H88541   6.085   5.445  11.812 -0.2451 -0.4555 -3.2271
  656MOL0     H88542   5.663   5.289  11.693  1.2774  0.5015 -0.8013
  656MOL0     H88543   5.515   5.176  11.548  0.0875 -1.0253  0.7070
  656MOL0     H88544   4.125   4.653  11.397 -2.5072 -0.5926  0.4760
  656MOL0     H88545   3.894   4.709  11.458  0.9773  0.2279 -0.0821
  656MOL0     H88546   3.609   5.104  11.493 -2.0371  2.5111  1.2602
  656MOL0     H88547   3.385   5.168  11.566  2.6841 -1.5423  1.9630
  656MOL0     H88548   3.084   4.847  11.537  0.1030 -0.4410 -1.7679
  656MOL0     H88549   2.995   4.943  11.414  1.1386  0.6828 -0.7196
  656MOL0     H88550   2.989   4.983  11.715 -0.2750  0.0732 -0.0069
  656MOL0     H88551   2.866   4.901  11.619  0.0119 -0.4488  1.6143
  656MOL0     H88552   2.822   5.097  11.488  1.1350  0.7457 -0.1231
  656MOL0     H88553   2.935   5.193  11.582  0.1191  0.2302 -0.3686
  656MOL0     H88554   2.815   5.119  11.799 -0.3240  0.1273 -0.2200
  656MOL0     H88555   2.722   5.240  11.701 -0.4540 -0.0100  1.9680
  656MOL0     H88556   2.491   4.883  11.692  1.3657 -1.7474 -1.1457
  656MOL0     H88557   3.211   4.839  11.365 -1.4882  2.6922  2.9130
  656MOL0     H88558   3.330   4.686  11.245 -0.1499 -1.7972  1.9575
  656MOL0     H88559   3.461   4.773  11.153 -0.8501  1.4883  0.5453
  656MOL0     H88560   3.495   4.665  11.297  0.3757  2.1931  1.7849
  657MOL0     O88561   2.627   9.228   6.361  0.5606 -0.4103  0.2323
  657MOL0     C88562   2.505   9.218   6.353  0.0785 -1.8229 -0.3794
  657MOL0     O88563   2.434   9.102   6.343  0.3728 -0.2724  1.0476
  657MOL0     C88564   2.483   8.978   6.312  0.0667 -0.1482  0.8395
  657MOL0     C88565   2.613   8.939   6.253 -0.4639 -0.3425  0.2908
  657MOL0     C88566   2.650   8.806   6.222 -0.1914 -0.6128  0.0425
  657MOL0     C88567   2.571   8.700   6.253 -0.4000  0.2699  0.1065
  657MOL0     O88568   2.614   8.572   6.229 -0.9591  0.8315  0.1768
  657MOL0     C88569   2.622   8.479   6.338  0.2385  0.5643 -0.3998
  657MOL0     C88570   2.754   8.505   6.411 -0.8501  0.8218 -1.3660
  657MOL0     C88571   2.881   8.471   6.334  0.3601 -0.2357  0.4406
  657MOL0     C88572   3.014   8.497   6.407 -0.5957  1.2251 -0.3603
  657MOL0     C88573   3.121   8.415   6.322 -0.2146  0.9155 -0.9105
  657MOL0     C88574   3.273   8.458   6.351 -0.2461  0.4227 -0.2299
  657MOL0     C88575   3.302   8.602   6.303  0.1789  0.7860 -0.0772
  657MOL0     C88576   3.262   8.645   6.159  0.2360  0.7894 -0.1625
  657MOL0     N88577   3.233   8.790   6.148  0.1755  0.1205  0.2883
  657MOL0     C88578   3.105   8.851   6.166 -0.3729  0.4166 -0.3254
  657MOL0     C88579   3.120   8.987   6.172 -0.6711  0.5217 -0.4546
  657MOL0     C88580   3.012   9.089   6.194  0.1119 -0.2924 -0.2518
  657MOL0     C88581   3.013   9.129   6.338  0.3166  0.1776  0.1941
  657MOL0     C88582   3.133   9.211   6.391  0.1401  0.2874 -0.7009
  657MOL0     C88583   3.086   9.258   6.533 -0.5650  0.2174  0.5529
  657MOL0     O88584   3.158   9.372   6.584  0.7285  0.6661 -0.3880
  657MOL0     C88585   3.273   9.335   6.654  0.1195 -0.0564  0.4631
  657MOL0     C88586   3.396   9.343   6.587  0.4650 -0.1578  0.5343
  657MOL0     C88587   3.510   9.308   6.659 -0.1317 -0.7777  0.4070
  657MOL0     C88588   3.497   9.252   6.796 -0.3436 -0.3393 -0.0703
  657MOL0     C88589   3.622   9.216   6.871  0.1796 -0.2090  0.2463
  657MOL0     O88590   3.739   9.264   6.814  0.5913 -0.1472 -0.5309
  657MOL0     C88591   3.860   9.229   6.862 -0.3343 -0.0168 -0.2402
  657MOL0     C88592   3.944   9.142   6.796 -0.6734 -0.1367  0.9014
  657MOL0     C88593   4.072   9.110   6.848 -0.1477 -0.2522 -0.5407
  657MOL0     C88594   4.120   9.173   6.966 -0.6958  0.3233  0.2486
  657MOL0     O88595   4.253   9.163   7.020 -0.2665 -0.1024  0.1674
  657MOL0     C88596   4.349   9.073   6.961  0.6150  0.7886 -0.1693
  657MOL0     C88597   4.472   9.080   7.052  1.3050 -0.2485  0.3359
  657MOL0     C88598   4.597   9.095   6.969 -0.1398  0.4877  0.7515
  657MOL0     C88599   4.712   9.153   7.041 -0.0693 -0.2409 -0.4863
  657MOL0     C88600   4.783   9.044   7.124 -0.0187  0.5496  0.1614
  657MOL0     C88601   4.923   9.089   7.184  0.7012 -0.9670  0.1959
  657MOL0     C88602   4.978   9.015   7.312 -0.4311  0.5290 -0.1700
  657MOL0     C88603   5.113   9.073   7.357 -0.3155 -0.4210  0.3339
  657MOL0    Cl88604   5.127   9.256   7.390 -0.0331  0.0756 -0.4255
  657MOL0     C88605   4.031   9.248   7.032  0.9316 -0.5684 -0.3695
  657MOL0     C88606   3.904   9.279   6.984 -1.0332 -0.0426  0.2605
  657MOL0     O88607   3.617   9.134   6.966 -0.1870 -0.1407  0.2158
  657MOL0     C88608   3.371   9.239   6.854  0.3930 -0.6008  0.7436
  657MOL0     C88609   3.262   9.291   6.786 -0.1743 -0.6126 -0.6843
  657MOL0     N88610   3.261   9.009   6.165  0.1684  0.0444 -0.2020
  657MOL0     N88611   3.322   8.887   6.147  0.4982 -0.2377  0.0854
  657MOL0     C88612   2.443   8.734   6.310 -0.1183  0.5410 -0.7898
  657MOL0     C88613   2.405   8.866   6.336  0.5346  0.4192  0.1661
  657MOL0     C88614   2.426   9.342   6.343  0.2332 -0.1376 -0.6054
  657MOL0     C88615   2.344   9.355   6.234  0.5968 -0.6084 -0.3570
  657MOL0     C88616   2.260   9.455   6.223  0.2609 -0.3294  0.0096
  657MOL0     C88617   2.254   9.561   6.314  0.2048 -0.1025  0.5535
  657MOL0     O88618   2.173   9.670   6.286 -0.3644  0.3693  0.5917
  657MOL0     C88619   2.175   9.785   6.378 -0.9076 -0.2330  0.3246
  657MOL0     C88620   2.302   9.866   6.392 -0.2558 -0.2819 -0.6062
  657MOL0     C88621   2.277   9.999   6.457 -0.4685 -0.6057  0.0917
  657MOL0     C88622   2.405  10.045   6.532 -0.6293 -0.1066 -0.0478
  657MOL0     C88623   2.436   9.959   6.644 -0.2573 -0.0805  0.1578
  657MOL0     C88624   2.463   9.875   6.731 -0.6012  0.9085 -0.8504
  657MOL0     C88625   2.322   9.543   6.436 -0.2221 -0.0494  0.7123
  657MOL0     C88626   2.415   9.436   6.448 -0.3811  0.0987  0.7469
  657MOL0     C88627   2.499   9.415   6.568 -0.7260 -0.0552  0.6303
  657MOL0     H88628   2.688   9.015   6.234  2.9516 -3.2705  1.0292
  657MOL0     H88629   2.746   8.777   6.181  0.1887 -0.1283  0.5762
  657MOL0     H88630   2.539   8.477   6.409  0.4378  0.7232 -0.1595
  657MOL0     H88631   2.630   8.381   6.291  0.9064  0.7039 -0.5887
  657MOL0     H88632   2.756   8.447   6.503 -0.2353  2.4729 -0.2977
  657MOL0     H88633   2.760   8.613   6.432  1.1789  0.5383 -0.2013
  657MOL0     H88634   2.890   8.540   6.250  1.0538 -0.8934 -0.0414
  657MOL0     H88635   2.877   8.365   6.307 -1.8725 -0.2734  0.7155
  657MOL0     H88636   3.031   8.605   6.405  0.8076  1.0222 -0.4256
  657MOL0     H88637   3.012   8.451   6.506  0.8465 -3.8454 -2.3450
  657MOL0     H88638   3.116   8.309   6.346  0.4020  0.5899 -2.1203
  657MOL0     H88639   3.088   8.405   6.218 -2.1649 -1.9733 -0.1285
  657MOL0     H88640   3.313   8.464   6.452  1.2264 -2.1390 -0.5815
  657MOL0     H88641   3.328   8.384   6.293 -3.4448 -2.1395 -0.3151
  657MOL0     H88642   3.407   8.629   6.322 -0.6665  3.5542  1.1731
  657MOL0     H88643   3.237   8.660   6.368  0.4686  1.1938 -0.1430
  657MOL0     H88644   3.342   8.627   6.087 -0.8351  0.4080 -1.2910
  657MOL0     H88645   3.177   8.585   6.126  2.1267 -1.2600 -1.6089
  657MOL0     H88646   3.019   8.796   6.203  1.9626 -3.5785 -0.2450
  657MOL0     H88647   3.036   9.178   6.135 -4.6996 -0.2122 -2.5582
  657MOL0     H88648   2.910   9.062   6.166  0.6398 -0.4877 -2.1114
  657MOL0     H88649   2.920   9.185   6.351 -1.9666 -2.9489 -1.1365
  657MOL0     H88650   3.000   9.044   6.407 -1.2560 -0.2540 -0.5703
  657MOL0     H88651   3.138   9.300   6.328  0.4540  2.3818  2.1080
  657MOL0     H88652   3.222   9.148   6.384 -0.6495 -0.9999  0.4453
  657MOL0     H88653   3.111   9.169   6.592 -1.1138 -0.4992 -0.2769
  657MOL0     H88654   2.980   9.282   6.540 -1.2206 -0.8565 -3.3038
  657MOL0     H88655   3.407   9.369   6.482 -2.3464  1.4332  0.5263
  657MOL0     H88656   3.606   9.310   6.608 -1.1909  3.8734 -1.8718
  657MOL0     H88657   3.918   9.102   6.698  3.1777 -1.8787  0.3773
  657MOL0     H88658   4.133   9.041   6.790  0.1207  0.9170 -1.7102
  657MOL0     H88659   4.318   8.968   6.965  2.5138  0.1671 -0.5742
  657MOL0     H88660   4.366   9.112   6.861  3.4053 -0.8851 -0.4495
  657MOL0     H88661   4.461   9.170   7.113 -1.5491  1.1156 -1.9198
  657MOL0     H88662   4.477   8.997   7.123 -1.1502  1.0536  2.1882
  657MOL0     H88663   4.607   9.002   6.912  1.1905  0.1226  1.5269
  657MOL0     H88664   4.586   9.172   6.892  4.1727  2.2078  1.5648
  657MOL0     H88665   4.672   9.236   7.099  0.4437  0.5257 -1.2028
  657MOL0     H88666   4.799   9.190   6.985  0.9705  0.2216  1.3572
  657MOL0     H88667   4.798   8.952   7.066  2.9476  0.8315  0.3116
  657MOL0     H88668   4.720   9.031   7.212 -0.5028 -0.0495 -0.2633
  657MOL0     H88669   5.000   9.082   7.107  1.3816  0.0734  0.7601
  657MOL0     H88670   4.901   9.193   7.209 -0.6244 -1.8418  3.2703
  657MOL0     H88671   4.986   8.907   7.298 -2.8137 -0.1180  2.3882
  657MOL0     H88672   4.909   9.046   7.392  2.8746  0.4507  2.9625
  657MOL0     H88673   5.143   9.026   7.451 -1.9851 -1.3375  0.4516
  657MOL0     H88674   5.188   9.056   7.279 -1.4301  0.7715 -1.0665
  657MOL0     H88675   4.063   9.293   7.126  0.4034 -3.1662  1.1614
  657MOL0     H88676   3.839   9.339   7.047 -1.2123  2.2299 -1.9187
  657MOL0     H88677   3.347   9.182   6.944 -3.6033  0.4301  0.5168
  657MOL0     H88678   3.167   9.267   6.833  1.4196 -2.9464  1.6174
  657MOL0     H88679   2.365   8.662   6.330 -0.5533  1.4507  0.9649
  657MOL0     H88680   2.304   8.873   6.375 -1.0651 -2.3396 -2.8914
  657MOL0     H88681   2.336   9.279   6.157 -0.6310  1.9410 -2.9181
  657MOL0     H88682   2.191   9.464   6.140  1.1320  1.1133 -0.5942
  657MOL0     H88683   2.153   9.753   6.480 -2.2427  2.1713  0.8811
  657MOL0     H88684   2.098   9.856   6.344 -1.2819 -0.5707  0.4558
  657MOL0     H88685   2.338   9.890   6.291  1.3542 -0.8839 -0.2176
  657MOL0     H88686   2.381   9.809   6.441  1.5405  0.9212 -1.9394
  657MOL0     H88687   2.196   9.997   6.530  1.1391  1.0060  2.0321
  657MOL0     H88688   2.252  10.073   6.380  0.5383 -1.0033 -0.6450
  657MOL0     H88689   2.493  10.058   6.468 -0.7347  0.6161 -0.0434
  657MOL0     H88690   2.394  10.145   6.573  3.5583 -0.3085  2.1841
  657MOL0     H88691   2.517   9.817   6.803 -3.3060 -0.9137 -0.1382
  657MOL0     H88692   2.326   9.615   6.517  0.4818  0.4353  0.2541
  657MOL0     H88693   2.508   9.310   6.597  0.2596  0.0037  0.5803
  657MOL0     H88694   2.601   9.455   6.563  0.3535 -2.7159 -0.6031
  657MOL0     H88695   2.457   9.462   6.658 -1.5446  0.5095 -0.0392
  658MOL0     O88696   5.819   8.784  10.820  0.0906 -1.0273 -0.0340
  658MOL0     C88697   5.797   8.664  10.843  0.2904 -0.4490  0.1768
  658MOL0     O88698   5.896   8.568  10.862  0.2627  0.9653  0.4391
  658MOL0     C88699   6.001   8.620  10.934 -0.9603 -0.4638 -1.0168
  658MOL0     C88700   6.114   8.694  10.884  0.2079 -0.2874 -0.0875
  658MOL0     C88701   6.208   8.744  10.974 -0.7081 -0.2856  0.9093
  658MOL0     C88702   6.210   8.715  11.106 -0.5572 -0.6493  0.1656
  658MOL0     O88703   6.299   8.780  11.187  0.0206 -0.0839  0.2935
  658MOL0     C88704   6.387   8.681  11.246 -0.1411 -0.1307  0.2207
  658MOL0     C88705   6.460   8.741  11.366  0.1087  1.3399 -1.3781
  658MOL0     C88706   6.538   8.862  11.329 -0.0799 -0.0842  0.2781
  658MOL0     C88707   6.679   8.871  11.400  0.5878 -0.4159 -0.2809
  658MOL0     C88708   6.755   8.997  11.364  0.5247  0.0253  0.4104
  658MOL0     C88709   6.886   9.008  11.449  0.0064  0.6020 -1.2638
  658MOL0     C88710   6.973   9.130  11.411  0.2061 -0.5799  0.8550
  658MOL0     C88711   7.096   9.131  11.503 -0.4395  0.2784  0.6444
  658MOL0     N88712   7.204   9.229  11.477  0.1141 -0.0940  0.7791
  658MOL0     C88713   7.185   9.361  11.480 -0.2591 -0.0797  0.1528
  658MOL0     C88714   7.293   9.417  11.424 -0.8688 -0.1677 -0.7497
  658MOL0     C88715   7.314   9.570  11.415  0.5178 -0.7624  0.0282
  658MOL0     C88716   7.201   9.645  11.337  0.0683  0.0351 -0.7998
  658MOL0     C88717   7.236   9.792  11.315  0.6906  0.7958 -0.1945
  658MOL0     C88718   7.165   9.888  11.412 -0.0571 -0.3399 -0.4032
  658MOL0     O88719   7.023   9.892  11.389  0.1823  0.5903  0.2012
  658MOL0     C88720   6.937   9.967  11.472  0.2203 -0.6813  0.7516
  658MOL0     C88721   6.979  10.050  11.578  0.0626 -0.9906  0.3866
  658MOL0     C88722   6.882  10.120  11.653  0.6317  0.5454 -0.2905
  658MOL0     C88723   6.742  10.117  11.617 -1.0365  0.9250 -0.6013
  658MOL0     C88724   6.644  10.204  11.687  0.1887 -0.3291 -0.3110
  658MOL0     O88725   6.706  10.304  11.759  0.2791  0.1827 -0.1339
  658MOL0     C88726   6.611  10.374  11.830  0.3807  0.4150  0.0415
  658MOL0     C88727   6.538  10.474  11.771  0.0577 -0.6398 -0.7138
  658MOL0     C88728   6.449  10.551  11.861 -0.4769  0.1970  0.6887
  658MOL0     C88729   6.451  10.530  11.996 -0.7573  0.1908  0.9421
  658MOL0     O88730   6.367  10.590  12.081  0.1538  0.0953 -0.9993
  658MOL0     C88731   6.240  10.528  12.076  0.7936 -0.2178 -0.2441
  658MOL0     C88732   6.143  10.643  12.096 -0.2894 -0.2148 -0.4572
  658MOL0     C88733   6.144  10.705  12.243 -0.7265  0.2378 -0.2136
  658MOL0     C88734   6.051  10.825  12.259 -0.0269 -0.0231  0.4193
  658MOL0     C88735   6.096  10.943  12.175  0.6662 -0.4461  0.0992
  658MOL0     C88736   6.016  11.073  12.189 -0.3940 -0.6347 -0.2746
  658MOL0     C88737   6.064  11.180  12.089 -1.5522 -0.1701 -0.1082
  658MOL0     C88738   5.990  11.312  12.097  1.0395  0.3594 -0.0171
  658MOL0    Cl88739   5.817  11.296  12.058  0.1646  0.5202 -0.2694
  658MOL0     C88740   6.529  10.432  12.051 -0.3309  0.5262 -0.8164
  658MOL0     C88741   6.599  10.348  11.967 -0.2719 -0.4394  0.2350
  658MOL0     O88742   6.527  10.172  11.694 -0.3360  1.0616  0.9945
  658MOL0     C88743   6.700  10.023  11.517 -0.8211  0.6493 -0.2474
  658MOL0     C88744   6.799   9.950  11.442 -1.0858  0.1633 -0.1262
  658MOL0     N88745   7.373   9.316  11.381  0.0656 -0.5163 -0.0749
  658MOL0     N88746   7.315   9.205  11.407 -1.1417 -0.2025  0.2320
  658MOL0     C88747   6.104   8.645  11.154  0.4563 -0.1964  0.3227
  658MOL0     C88748   6.000   8.598  11.073 -0.5928  0.1879  0.3046
  658MOL0     C88749   5.656   8.617  10.839 -0.0872 -1.0219  0.0840
  658MOL0     C88750   5.629   8.487  10.884  0.0372  0.8509  0.6099
  658MOL0     C88751   5.495   8.447  10.905  1.2459  0.0338 -0.0405
  658MOL0     C88752   5.389   8.533  10.872  0.5839 -1.0752 -0.2564
  658MOL0     O88753   5.260   8.493  10.881 -0.1631 -1.0769 -0.0985
  658MOL0     C88754   5.229   8.382  10.964  0.9151 -0.5276  0.7325
  658MOL0     C88755   5.084   8.381  11.002 -1.2614  0.2322  0.0323
  658MOL0     C88756   5.060   8.238  11.056  0.0614  0.2703  0.7534
  658MOL0     C88757   4.934   8.230  11.142  0.1925 -0.1698 -0.5296
  658MOL0     C88758   4.807   8.240  11.064  0.5370 -0.6602 -0.5320
  658MOL0     C88759   4.694   8.242  11.018 -0.6093  0.0271 -0.2480
  658MOL0     C88760   5.416   8.665  10.821  1.2820  0.3572  0.3678
  658MOL0     C88761   5.547   8.706  10.798 -0.5421  0.1171  0.2481
  658MOL0     C88762   5.567   8.838  10.728 -0.0114 -0.2732 -0.3225
  658MOL0     H88763   6.114   8.704  10.776 -0.0419  0.4501 -0.0256
  658MOL0     H88764   6.285   8.799  10.921  0.2656 -0.6946  1.8522
  658MOL0     H88765   6.334   8.589  11.269 -0.1816 -0.9523 -2.7252
  658MOL0     H88766   6.457   8.644  11.170  1.0006 -2.9638  2.4538
  658MOL0     H88767   6.520   8.668  11.421 -3.9553 -0.6320  0.8772
  658MOL0     H88768   6.383   8.771  11.438 -2.3765 -0.9542 -2.9113
  658MOL0     H88769   6.486   8.954  11.361  1.0225  0.8521 -0.5264
  658MOL0     H88770   6.545   8.868  11.220 -1.7128  0.5175  0.1747
  658MOL0     H88771   6.648   8.863  11.505 -2.5704  0.7353 -1.0285
  658MOL0     H88772   6.741   8.786  11.370 -0.1792 -2.0644  2.4476
  658MOL0     H88773   6.774   8.998  11.256  2.3130  0.1793  0.7047
  658MOL0     H88774   6.685   9.077  11.391  0.5042 -0.6216  2.4376
  658MOL0     H88775   6.863   9.017  11.555  2.5908  2.4702 -0.7722
  658MOL0     H88776   6.929   8.910  11.427 -1.3794 -0.3277  0.0002
  658MOL0     H88777   6.930   9.231  11.413  1.8647  0.1453  1.5134
  658MOL0     H88778   6.996   9.107  11.307 -2.2586 -3.5446  0.8317
  658MOL0     H88779   7.065   9.150  11.606 -3.3192 -1.7716  0.2682
  658MOL0     H88780   7.139   9.031  11.513 -0.5260  0.2539  0.7693
  658MOL0     H88781   7.088   9.398  11.512 -0.7006 -0.1844 -1.0177
  658MOL0     H88782   7.319   9.591  11.522  0.5944 -2.7910  0.4648
  658MOL0     H88783   7.408   9.590  11.362 -1.0172 -2.1852 -3.5804
  658MOL0     H88784   7.180   9.596  11.242  0.1841 -1.9729  0.1559
  658MOL0     H88785   7.111   9.632  11.397 -0.2792  1.6169 -0.9400
  658MOL0     H88786   7.195   9.809  11.215 -1.9290  2.2711  1.0181
  658MOL0     H88787   7.345   9.801  11.315  0.7105  1.1020  2.2869
  658MOL0     H88788   7.205   9.989  11.400  0.6615 -0.6801 -1.0023
  658MOL0     H88789   7.187   9.857  11.515 -3.6291 -2.5354 -0.1385
  658MOL0     H88790   7.079  10.068  11.615 -0.0999  1.3171 -0.1486
  658MOL0     H88791   6.922  10.191  11.724  2.1393  1.6739 -2.1520
  658MOL0     H88792   6.563  10.494  11.668  0.4448  0.2569 -0.4506
  658MOL0     H88793   6.379  10.625  11.822 -1.3555 -1.9661 -2.1313
  658MOL0     H88794   6.215  10.466  11.989  1.3872 -3.5071  1.7667
  658MOL0     H88795   6.238  10.454  12.156  1.2161 -1.4426 -1.3273
  658MOL0     H88796   6.165  10.726  12.029  0.8459  0.8039  1.1007
  658MOL0     H88797   6.046  10.607  12.061 -0.8937 -0.1004  1.0324
  658MOL0     H88798   6.099  10.639  12.317 -1.3357  2.2069  1.2565
  658MOL0     H88799   6.243  10.727  12.284 -1.3129  0.1206  1.3439
  658MOL0     H88800   6.054  10.850  12.365  1.9594  0.6238  0.2586
  658MOL0     H88801   5.948  10.795  12.241 -0.6094  0.4635  2.6058
  658MOL0     H88802   6.090  10.909  12.071 -0.0561 -0.3784  0.1144
  658MOL0     H88803   6.202  10.962  12.195  0.4351  3.0973 -1.4627
  658MOL0     H88804   5.907  11.071  12.185 -0.4881 -2.0886  1.6542
  658MOL0     H88805   6.047  11.112  12.287 -1.2096 -2.8109  0.9218
  658MOL0     H88806   6.059  11.144  11.986 -0.7779  1.4479 -0.7337
  658MOL0     H88807   6.169  11.204  12.108 -1.2222 -0.8254 -1.0114
  658MOL0     H88808   5.995  11.350  12.200 -1.4516  0.0537  0.2819
  658MOL0     H88809   6.014  11.395  12.031 -3.9340  2.5116  0.4218
  658MOL0     H88810   6.557  10.436  12.156  0.9851 -1.5076 -1.0347
  658MOL0     H88811   6.660  10.275  12.018 -0.0578  3.3096  6.4342
  658MOL0     H88812   6.599  10.012  11.479 -1.3128  2.1485  0.5623
  658MOL0     H88813   6.778   9.885  11.358  1.7221 -2.4327  1.0078
  658MOL0     H88814   6.089   8.624  11.260  1.9203 -2.7844  0.0894
  658MOL0     H88815   5.920   8.540  11.118  1.0474 -2.2885  0.2457
  658MOL0     H88816   5.706   8.416  10.913 -1.6200 -1.3563 -0.1634
  658MOL0     H88817   5.482   8.347  10.945 -0.2126  0.7861  1.4856
  658MOL0     H88818   5.283   8.380  11.060  1.9555 -1.6303  0.1496
  658MOL0     H88819   5.265   8.295  10.910  0.4344 -1.2172  1.4950
  658MOL0     H88820   5.021   8.412  10.919  0.1854  1.3959 -0.6692
  658MOL0     H88821   5.068   8.457  11.079 -1.1073 -0.9163  1.2539
  658MOL0     H88822   5.145   8.213  11.120  0.5201  1.5805  0.6747
  658MOL0     H88823   5.050   8.171  10.970 -0.0424  1.3560 -0.0963
  658MOL0     H88824   4.932   8.141  11.206  1.0551 -0.7350 -1.2554
  658MOL0     H88825   4.935   8.317  11.208  1.0718  0.2208 -1.0457
  658MOL0     H88826   4.600   8.238  10.967  0.2497 -3.8946 -1.8810
  658MOL0     H88827   5.332   8.730  10.797  1.8351  1.1789  0.6101
  658MOL0     H88828   5.469   8.876  10.697  0.3091  2.5977  1.8067
  658MOL0     H88829   5.608   8.905  10.804  1.8189 -2.4586  0.7434
  658MOL0     H88830   5.630   8.821  10.640  0.9595 -0.2650  0.3522
  659MOL0     O88831   0.893   7.469   7.573 -0.1675 -0.1413 -0.3643
  659MOL0     C88832   0.898   7.397   7.472 -0.0665 -0.4695 -0.1812
  659MOL0     O88833   1.006   7.362   7.401 -0.0329  0.2910  0.4926
  659MOL0     C88834   1.131   7.379   7.460  0.4216 -0.0698 -0.3026
  659MOL0     C88835   1.205   7.484   7.414  0.3332  0.1190  0.3097
  659MOL0     C88836   1.330   7.508   7.470  0.7292  0.0390  0.3267
  659MOL0     C88837   1.383   7.427   7.579 -0.0725  0.1075  0.8248
  659MOL0     O88838   1.502   7.448   7.638 -0.1558  0.1932  0.0545
  659MOL0     C88839   1.590   7.539   7.572  0.1672 -0.5231 -0.1313
  659MOL0     C88840   1.714   7.555   7.650 -0.2942  0.2881  0.5160
  659MOL0     C88841   1.802   7.660   7.580 -0.3764  0.0908  0.3448
  659MOL0     C88842   1.883   7.715   7.693  0.1425  0.1776 -0.2228
  659MOL0     C88843   2.006   7.777   7.631 -0.3436 -0.3391 -1.2879
  659MOL0     C88844   2.107   7.805   7.741 -0.3857  0.4965  0.2200
  659MOL0     C88845   2.229   7.891   7.688  0.1943  0.4155 -0.4784
  659MOL0     C88846   2.327   7.912   7.798 -0.7044  0.1621 -0.2396
  659MOL0     N88847   2.460   7.961   7.747  0.3657 -0.1336  0.2154
  659MOL0     C88848   2.561   7.885   7.697  0.1763  0.5661 -0.4745
  659MOL0     C88849   2.650   7.973   7.653  0.3768 -0.3415 -0.0207
  659MOL0     C88850   2.786   7.938   7.586 -0.9745  0.5765 -0.6574
  659MOL0     C88851   2.899   7.930   7.685 -0.7153 -0.1237  1.0624
  659MOL0     C88852   2.943   8.059   7.744 -0.3956 -0.7301 -0.5838
  659MOL0     C88853   3.085   8.045   7.793  0.1201 -0.3935  0.5926
  659MOL0     O88854   3.100   8.007   7.932 -0.3491  0.0058  0.1352
  659MOL0     C88855   3.227   8.005   7.988 -1.4516 -1.4835  0.7366
  659MOL0     C88856   3.247   7.979   8.117  0.1524  0.3761  0.2947
  659MOL0     C88857   3.378   7.975   8.177 -0.0149  0.3004  0.0112
  659MOL0     C88858   3.492   8.001   8.103  0.5342  0.9668  0.2777
  659MOL0     C88859   3.620   8.007   8.162 -0.1404 -0.0476  0.1317
  659MOL0     O88860   3.713   8.039   8.069 -0.6899 -0.2591 -0.2897
  659MOL0     C88861   3.845   8.025   8.106 -0.1124 -0.6365 -0.4340
  659MOL0     C88862   3.904   8.087   8.214  0.0940 -0.1974 -0.7018
  659MOL0     C88863   4.035   8.059   8.256  0.4128 -0.1199 -0.1892
  659MOL0     C88864   4.111   7.973   8.181  0.5773  0.7462 -0.7734
  659MOL0     O88865   4.243   7.958   8.211 -0.2227 -0.7066 -0.3593
  659MOL0     C88866   4.277   7.831   8.262  0.2892  0.5873 -0.2856
  659MOL0     C88867   4.421   7.835   8.317 -0.6292 -0.5510 -1.1411
  659MOL0     C88868   4.525   7.819   8.211 -0.0421 -0.1748 -0.7203
  659MOL0     C88869   4.660   7.816   8.283  0.7968  0.6231 -0.2842
  659MOL0     C88870   4.781   7.783   8.198  0.3652  0.2237  0.2903
  659MOL0     C88871   4.785   7.656   8.108  0.5819 -0.2830  0.3338
  659MOL0     C88872   4.907   7.643   8.016  0.4600 -0.1117 -0.2999
  659MOL0     C88873   5.039   7.627   8.107  1.1530 -0.7817 -0.5444
  659MOL0    Cl88874   5.170   7.563   8.007  0.0553  0.1870 -0.1053
  659MOL0     C88875   4.055   7.920   8.065  0.0228 -0.1361 -0.5126
  659MOL0     C88876   3.925   7.941   8.030  0.9185  0.9134 -0.6681
  659MOL0     O88877   3.640   7.964   8.275 -0.1298  0.5600  0.3452
  659MOL0     C88878   3.466   8.028   7.970 -0.6032 -0.8690 -0.0074
  659MOL0     C88879   3.341   8.032   7.911  0.3076 -0.8499  0.5039
  659MOL0     N88880   2.600   8.104   7.664  0.0830 -1.1654 -1.2761
  659MOL0     N88881   2.491   8.091   7.725 -0.1904 -0.6944  0.3395
  659MOL0     C88882   1.305   7.319   7.617  0.1953 -0.0678 -0.3626
  659MOL0     C88883   1.187   7.289   7.555  0.0921 -1.0462  0.1663
  659MOL0     C88884   0.774   7.358   7.407 -0.5310  1.0500 -1.3262
  659MOL0     C88885   0.752   7.390   7.278  0.5613  0.7942 -0.1323
  659MOL0     C88886   0.634   7.360   7.197  0.5065  0.5363  0.5015
  659MOL0     C88887   0.530   7.291   7.257  0.3033  0.9545  0.6207
  659MOL0     O88888   0.417   7.263   7.192  0.0391  0.5701 -0.4059
  659MOL0     C88889   0.308   7.197   7.261 -0.1285 -0.3509 -0.0367
  659MOL0     C88890   0.191   7.165   7.166  0.7779  0.2238 -0.3845
  659MOL0     C88891   0.075   7.108   7.248  0.0442  0.7533  0.7080
  659MOL0     C88892  -0.038   7.033   7.154 -0.1657 -0.0428 -0.3062
  659MOL0     C88893  -0.145   6.955   7.227 -0.9168  0.5992  0.4575
  659MOL0     C88894  -0.236   6.892   7.273  0.5588 -0.4415 -0.4261
  659MOL0     C88895   0.546   7.257   7.393 -0.4355  0.5289  0.0722
  659MOL0     C88896   0.673   7.283   7.468 -0.4608 -0.0097 -0.0609
  659MOL0     C88897   0.689   7.240   7.611  0.5602  0.4469 -0.5457
  659MOL0     H88898   1.155   7.541   7.336  0.7521  0.7913  0.5225
  659MOL0     H88899   1.387   7.591   7.429 -0.0796  1.5425  2.0820
  659MOL0     H88900   1.624   7.501   7.475 -0.3428  0.1136 -0.5695
  659MOL0     H88901   1.542   7.637   7.571  3.8600  1.6245  3.3731
  659MOL0     H88902   1.765   7.458   7.657 -2.7718 -1.1622 -0.1215
  659MOL0     H88903   1.679   7.593   7.746 -0.6488 -0.8991  0.8875
  659MOL0     H88904   1.746   7.739   7.530  0.1801  0.1010 -0.2842
  659MOL0     H88905   1.861   7.605   7.506  1.5625  0.7222  1.3355
  659MOL0     H88906   1.832   7.795   7.748  1.0988  1.0462 -0.5759
  659MOL0     H88907   1.898   7.638   7.770 -2.5434  0.1753  0.4078
  659MOL0     H88908   2.047   7.721   7.546 -2.0907 -1.2761 -1.5522
  659MOL0     H88909   1.983   7.877   7.591 -0.7477  0.4557  0.7999
  659MOL0     H88910   2.062   7.864   7.821  0.7392  1.2956  0.2846
  659MOL0     H88911   2.143   7.710   7.782 -2.2124  0.0574  0.9212
  659MOL0     H88912   2.186   7.988   7.661  1.5569  1.3108  0.4664
  659MOL0     H88913   2.278   7.842   7.603  0.9599 -0.2474  0.3276
  659MOL0     H88914   2.273   7.983   7.861 -2.8838 -1.6223  0.0481
  659MOL0     H88915   2.340   7.822   7.857 -1.5248  1.5229  2.1473
  659MOL0     H88916   2.571   7.777   7.699  0.9542  0.5562 -2.7170
  659MOL0     H88917   2.781   7.840   7.539 -0.8643 -0.0901  0.6632
  659MOL0     H88918   2.802   8.026   7.524  2.3417  0.9248  0.4955
  659MOL0     H88919   2.864   7.865   7.766  0.1865  1.0374  2.4187
  659MOL0     H88920   2.980   7.890   7.623  0.3903  0.1059  2.3048
  659MOL0     H88921   2.865   8.070   7.820  0.1596 -0.0297 -0.1044
  659MOL0     H88922   2.939   8.147   7.679  2.8620  0.5852  0.7820
  659MOL0     H88923   3.134   8.143   7.789  0.3995 -0.5263  0.7161
  659MOL0     H88924   3.142   7.971   7.736 -1.7280 -0.8920 -0.6687
  659MOL0     H88925   3.171   7.947   8.188  1.4781 -2.6603  0.4961
  659MOL0     H88926   3.378   7.957   8.284 -0.6867 -0.1221 -0.0537
  659MOL0     H88927   3.848   8.155   8.277  2.9256  2.3726 -0.7797
  659MOL0     H88928   4.079   8.107   8.343  0.4780  1.2874 -0.9719
  659MOL0     H88929   4.208   7.804   8.344  2.3201  2.6028  2.2517
  659MOL0     H88930   4.266   7.756   8.183  2.5435 -0.3596  0.2340
  659MOL0     H88931   4.437   7.926   8.376 -0.1406 -0.9219 -0.6900
  659MOL0     H88932   4.438   7.749   8.384  2.0450  0.3881 -0.4835
  659MOL0     H88933   4.499   7.726   8.160  1.2795  0.4199 -2.5985
  659MOL0     H88934   4.523   7.899   8.136  1.8874 -1.9280 -2.7729
  659MOL0     H88935   4.656   7.738   8.360  5.3753 -0.0678 -0.4972
  659MOL0     H88936   4.679   7.917   8.323 -0.5374  1.3747 -1.4504
  659MOL0     H88937   4.868   7.776   8.264 -0.7386  2.5034  2.1214
  659MOL0     H88938   4.788   7.865   8.126 -1.2495  0.5676  0.4914
  659MOL0     H88939   4.783   7.578   8.185 -0.5795 -0.6275 -0.0169
  659MOL0     H88940   4.698   7.641   8.043 -0.2322 -0.1006  1.3472
  659MOL0     H88941   4.915   7.733   7.955 -2.2059 -0.1978 -0.8720
  659MOL0     H88942   4.891   7.559   7.948  1.2342 -0.5639  0.0597
  659MOL0     H88943   5.071   7.723   8.147  0.4581 -1.2127  1.1357
  659MOL0     H88944   5.022   7.570   8.199 -0.2936  1.7247  0.8375
  659MOL0     H88945   4.109   7.837   8.019  1.9977  0.6616  0.2683
  659MOL0     H88946   3.878   7.866   7.967 -0.6086  1.4253 -0.1664
  659MOL0     H88947   3.541   8.042   7.892 -1.3417 -1.1189 -0.7881
  659MOL0     H88948   3.338   8.066   7.808  1.7491 -0.4481  0.5737
  659MOL0     H88949   1.344   7.254   7.695 -0.2279  0.4160  0.2696
  659MOL0     H88950   1.120   7.211   7.590 -1.7240  0.4186  0.1558
  659MOL0     H88951   0.837   7.432   7.226  0.0282  2.3048  0.1923
  659MOL0     H88952   0.631   7.378   7.090  3.1745 -0.4937  0.1719
  659MOL0     H88953   0.281   7.264   7.343  1.0050  0.6455 -0.4427
  659MOL0     H88954   0.329   7.100   7.306 -0.3787  0.1507  1.1964
  659MOL0     H88955   0.219   7.087   7.095  0.1832 -1.0621  0.7486
  659MOL0     H88956   0.153   7.250   7.109 -0.1005  0.0224 -0.1179
  659MOL0     H88957   0.026   7.190   7.302  0.0862  1.4787 -0.3235
  659MOL0     H88958   0.117   7.035   7.318 -0.3058 -0.9515 -0.7894
  659MOL0     H88959  -0.087   7.111   7.096  1.1593 -0.8444 -2.6657
  659MOL0     H88960   0.011   6.962   7.087  0.9666 -1.7128  2.1137
  659MOL0     H88961  -0.322   6.839   7.309  0.1856  0.2425 -0.2852
  659MOL0     H88962   0.468   7.217   7.457  1.2634 -1.0777  1.2622
  659MOL0     H88963   0.585   7.215   7.637  0.2206  1.3017 -1.0489
  659MOL0     H88964   0.734   7.142   7.629 -1.9182 -0.5238  0.9552
  659MOL0     H88965   0.736   7.304   7.686  0.2577 -0.2872  0.2864
  660MOL0     O88966   0.181   1.517   1.260  0.1429  0.1248 -0.6353
  660MOL0     C88967   0.084   1.459   1.205  0.1567 -0.9421 -0.0702
  660MOL0     O88968   0.077   1.438   1.065 -0.1165  0.1209  0.2579
  660MOL0     C88969   0.205   1.431   1.006  1.6065  0.0826  0.3878
  660MOL0     C88970   0.264   1.309   0.969 -0.2996 -0.1219 -0.6688
  660MOL0     C88971   0.390   1.312   0.904 -0.4850 -0.3234  0.5696
  660MOL0     C88972   0.456   1.436   0.876  0.0604  0.7631  0.2781
  660MOL0     O88973   0.582   1.451   0.831 -0.3453  0.6233  0.0115
  660MOL0     C88974   0.668   1.329   0.821  0.0003  0.0477  0.3183
  660MOL0     C88975   0.807   1.354   0.778  0.0410 -0.5349 -0.1746
  660MOL0     C88976   0.802   1.434   0.644  0.0882  0.1771 -0.3644
  660MOL0     C88977   0.812   1.582   0.677  0.5429  0.2426 -0.2238
  660MOL0     C88978   0.833   1.678   0.555 -0.0062 -0.9584  1.0233
  660MOL0     C88979   0.715   1.661   0.447 -0.2191 -0.0850  0.3004
  660MOL0     C88980   0.581   1.675   0.507  0.0296 -0.2037  0.2057
  660MOL0     C88981   0.472   1.671   0.402  0.1697 -0.3006  0.6253
  660MOL0     N88982   0.351   1.738   0.452 -0.7222 -0.4786  0.2997
  660MOL0     C88983   0.250   1.685   0.532 -0.1438  0.2335  0.6013
  660MOL0     C88984   0.151   1.776   0.523 -0.4060  0.4320 -0.2990
  660MOL0     C88985   0.019   1.770   0.598  0.4070 -0.1834  0.7711
  660MOL0     C88986   0.032   1.783   0.756  0.6797  0.1086  0.6620
  660MOL0     C88987   0.079   1.925   0.799 -0.1270 -0.1349  0.1851
  660MOL0     C88988   0.052   1.954   0.942  0.5579  0.2858 -0.8974
  660MOL0     O88989   0.152   1.899   1.032 -0.0246  0.2490  0.2179
  660MOL0     C88990   0.257   1.969   1.073 -0.0478  0.8843  0.4802
  660MOL0     C88991   0.296   2.101   1.024  0.7974  0.6023  0.3136
  660MOL0     C88992   0.406   2.171   1.078  0.4152  0.1812 -0.2882
  660MOL0     C88993   0.484   2.117   1.186 -0.1605 -0.8221  0.5676
  660MOL0     C88994   0.610   2.178   1.222  0.0258  0.0234  0.6396
  660MOL0     O88995   0.638   2.311   1.199 -0.3145 -0.2859 -0.1168
  660MOL0     C88996   0.762   2.357   1.197 -1.2249 -0.2153 -0.3556
  660MOL0     C88997   0.842   2.344   1.311 -0.1033 -0.6146 -0.0440
  660MOL0     C88998   0.969   2.392   1.321  0.4870  0.1906 -0.0611
  660MOL0     C88999   1.023   2.473   1.222  0.2188  0.8554  0.4222
  660MOL0     O89000   1.152   2.509   1.227 -0.7610 -0.3216 -0.3750
  660MOL0     C89001   1.205   2.561   1.351 -0.4989 -0.0028  0.1819
  660MOL0     C89002   1.357   2.586   1.343 -0.2774 -0.4430 -0.5722
  660MOL0     C89003   1.402   2.665   1.219 -0.0810 -0.1426 -0.0887
  660MOL0     C89004   1.494   2.776   1.276 -0.8571 -0.0607 -0.0056
  660MOL0     C89005   1.564   2.842   1.156 -0.4831  0.1348  0.3801
  660MOL0     C89006   1.484   2.901   1.031  0.3663  0.1018  0.1301
  660MOL0     C89007   1.579   2.946   0.925 -0.5671 -1.0646  0.3701
  660MOL0     C89008   1.528   3.028   0.810 -0.3685  0.1802 -0.0862
  660MOL0    Cl89009   1.669   3.118   0.749 -0.4476 -0.1303 -0.0859
  660MOL0     C89010   0.950   2.491   1.110  1.0759  0.1945  0.6568
  660MOL0     C89011   0.820   2.433   1.094 -0.4321  0.4131  0.9983
  660MOL0     O89012   0.696   2.092   1.260  0.6689 -0.0263 -0.3640
  660MOL0     C89013   0.438   1.996   1.238 -0.6276  0.3293  0.3417
  660MOL0     C89014   0.331   1.926   1.181 -0.0502 -0.2744 -0.1262
  660MOL0     N89015   0.184   1.872   0.432  0.4568  0.3305 -0.2748
  660MOL0     N89016   0.311   1.852   0.397  0.5355  0.0431 -0.1926
  660MOL0     C89017   0.385   1.552   0.901 -0.0491 -0.1739 -0.1531
  660MOL0     C89018   0.260   1.550   0.970  0.4619  0.2860  0.0343
  660MOL0     C89019  -0.015   1.399   1.294 -0.8975  0.3658 -0.1971
  660MOL0     C89020  -0.083   1.290   1.234 -0.6964 -0.1509  0.0657
  660MOL0     C89021  -0.179   1.226   1.308 -0.0708  0.1427  0.4642
  660MOL0     C89022  -0.203   1.254   1.443 -0.1789  0.2333 -0.7847
  660MOL0     O89023  -0.303   1.194   1.529  0.7266 -0.1113  0.0163
  660MOL0     C89024  -0.392   1.092   1.478  0.1325 -0.4265 -0.0479
  660MOL0     C89025  -0.510   1.067   1.574 -1.2392 -0.1274 -0.7139
  660MOL0     C89026  -0.590   1.199   1.598  1.0464 -0.8846 -0.1618
  660MOL0     C89027  -0.688   1.174   1.717 -0.1734 -0.2720  0.3346
  660MOL0     C89028  -0.766   1.050   1.704  0.7839  0.1685 -0.0115
  660MOL0     C89029  -0.837   0.948   1.694  0.2342  0.1074 -0.0155
  660MOL0     C89030  -0.130   1.360   1.502  0.6784  0.6386  0.2977
  660MOL0     C89031  -0.044   1.444   1.426  0.1374  0.9640  1.1793
  660MOL0     C89032   0.020   1.558   1.492  0.1754  0.5063  0.3847
  660MOL0     H89033   0.216   1.215   0.994 -3.9938  2.4176  3.1309
  660MOL0     H89034   0.435   1.215   0.882  1.9366  0.2965  2.2948
  660MOL0     H89035   0.673   1.283   0.920 -1.2483  2.5019  1.6264
  660MOL0     H89036   0.622   1.265   0.745 -2.3890  0.3022  1.4517
  660MOL0     H89037   0.855   1.259   0.756  0.5849 -0.4336  0.5139
  660MOL0     H89038   0.861   1.405   0.859  1.8647 -0.7140 -1.2193
  660MOL0     H89039   0.706   1.405   0.599 -0.3111 -3.5892  2.4508
  660MOL0     H89040   0.888   1.408   0.581 -0.2803 -1.4813 -0.2336
  660MOL0     H89041   0.722   1.614   0.730  0.7484 -1.1271  1.0242
  660MOL0     H89042   0.889   1.608   0.749  0.4238  1.4833 -0.5207
  660MOL0     H89043   0.839   1.782   0.587  0.0877  0.0872 -2.0118
  660MOL0     H89044   0.927   1.666   0.499 -0.9353 -0.4946 -0.7344
  660MOL0     H89045   0.744   1.747   0.385 -1.5353  0.3356  0.2507
  660MOL0     H89046   0.716   1.567   0.392 -3.5447  0.0773 -0.1930
  660MOL0     H89047   0.575   1.771   0.560 -3.5510  1.8136 -3.3074
  660MOL0     H89048   0.567   1.589   0.573  1.7841 -1.8167 -1.3738
  660MOL0     H89049   0.504   1.728   0.314 -0.7618  2.3673  1.8909
  660MOL0     H89050   0.454   1.568   0.370  2.1396 -0.7945  1.0043
  660MOL0     H89051   0.253   1.596   0.594  0.1217 -0.6316 -0.6188
  660MOL0     H89052  -0.041   1.854   0.562 -0.0347 -0.7102  0.2415
  660MOL0     H89053  -0.038   1.678   0.579  0.3147  0.3507 -1.9074
  660MOL0     H89054  -0.065   1.757   0.801  0.0006 -1.0970 -1.3622
  660MOL0     H89055   0.095   1.701   0.790 -0.7628 -1.5641 -0.5151
  660MOL0     H89056   0.035   2.007   0.742  4.2183  2.2188 -0.2355
  660MOL0     H89057   0.184   1.936   0.771 -0.3491 -2.0768 -1.6561
  660MOL0     H89058  -0.045   1.913   0.970 -0.0730  0.4735 -2.7146
  660MOL0     H89059   0.035   2.060   0.960  0.9005 -0.1322  2.4960
  660MOL0     H89060   0.228   2.152   0.957 -1.3148  2.1562  3.4286
  660MOL0     H89061   0.436   2.264   1.031 -3.9654  2.3013  0.5278
  660MOL0     H89062   0.801   2.288   1.394 -1.7968  1.8219  0.8554
  660MOL0     H89063   1.024   2.358   1.408 -1.7067 -1.3329  0.8158
  660MOL0     H89064   1.159   2.656   1.379  1.3231  1.3650 -1.3081
  660MOL0     H89065   1.189   2.499   1.440 -1.6624  0.8112  0.5715
  660MOL0     H89066   1.388   2.640   1.432 -1.2342  0.3623 -0.7109
  660MOL0     H89067   1.403   2.486   1.344 -0.0909 -0.3633  1.1735
  660MOL0     H89068   1.453   2.602   1.146  0.0978  0.3957 -0.4318
  660MOL0     H89069   1.311   2.711   1.180 -0.1130 -0.0415  0.1027
  660MOL0     H89070   1.576   2.726   1.329 -1.9403 -0.9284  0.8931
  660MOL0     H89071   1.448   2.849   1.343  1.2868  0.0834  1.4109
  660MOL0     H89072   1.636   2.766   1.125 -1.5166 -0.5512 -0.4132
  660MOL0     H89073   1.625   2.925   1.191  0.8648 -0.4624 -0.4871
  660MOL0     H89074   1.425   2.819   0.988 -0.8810  1.1319 -0.2137
  660MOL0     H89075   1.405   2.973   1.055  1.2024  1.4425 -0.9417
  660MOL0     H89076   1.621   2.858   0.875  0.2531 -0.4024 -0.1440
  660MOL0     H89077   1.665   3.001   0.965  0.0194 -1.5694 -0.1709
  660MOL0     H89078   1.494   2.955   0.736  1.7981 -0.4512 -0.5337
  660MOL0     H89079   1.442   3.090   0.837  0.7206  1.6959  0.0085
  660MOL0     H89080   0.990   2.536   1.020 -3.1493  1.5736 -0.7782
  660MOL0     H89081   0.775   2.457   0.999  0.6653  0.0505  0.3650
  660MOL0     H89082   0.496   1.941   1.312  1.7380  1.3756 -0.6471
  660MOL0     H89083   0.325   1.822   1.211 -3.2760  0.4983  2.4040
  660MOL0     H89084   0.430   1.643   0.861  0.0407 -0.2688 -0.2656
  660MOL0     H89085   0.211   1.640   1.006  2.7656  0.7485  2.3540
  660MOL0     H89086  -0.074   1.254   1.132 -2.6692 -0.5640 -0.0071
  660MOL0     H89087  -0.238   1.145   1.266  0.1480  0.7320 -1.0425
  660MOL0     H89088  -0.346   0.993   1.471 -0.4191 -0.6721 -0.2583
  660MOL0     H89089  -0.441   1.115   1.383  1.7390 -2.6705 -1.4946
  660MOL0     H89090  -0.460   1.025   1.662  0.3713  1.9940 -0.5257
  660MOL0     H89091  -0.574   0.992   1.525 -1.6825  0.9374 -1.8296
  660MOL0     H89092  -0.651   1.221   1.510 -0.3186 -1.0064  0.7259
  660MOL0     H89093  -0.522   1.281   1.624 -0.6724  0.8380 -0.8351
  660MOL0     H89094  -0.619   1.171   1.802  0.7651 -0.2183 -0.4150
  660MOL0     H89095  -0.763   1.253   1.727  0.7625  0.7931 -0.8620
  660MOL0     H89096  -0.900   0.863   1.681  2.8359 -2.2391  1.5485
  660MOL0     H89097  -0.161   1.400   1.598 -0.4073 -0.2736  0.3480
  660MOL0     H89098  -0.033   1.583   1.584  0.3398  2.2748  0.0266
  660MOL0     H89099   0.120   1.532   1.527  0.6350  1.1442 -0.4285
  660MOL0     H89100   0.029   1.651   1.435 -1.0498  0.7123  0.5045
  661MOL0     O89101   9.634   9.029   6.289 -0.8754  0.1501  0.2549
  661MOL0     C89102   9.517   9.054   6.296 -0.4194 -0.3522  0.5758
  661MOL0     O89103   9.460   9.139   6.385 -0.3694  0.8279  0.0081
  661MOL0     C89104   9.531   9.236   6.456  0.1946 -0.3636  0.0276
  661MOL0     C89105   9.495   9.266   6.592  0.9930 -0.6533  0.3015
  661MOL0     C89106   9.566   9.357   6.659  0.0416 -0.0384  0.2508
  661MOL0     C89107   9.672   9.426   6.606  0.5071 -0.3481  0.7596
  661MOL0     O89108   9.718   9.529   6.682 -0.0705 -0.5244 -0.2885
  661MOL0     C89109   9.811   9.632   6.631  0.6942  0.6265  0.2334
  661MOL0     C89110   9.958   9.584   6.665 -0.3992  0.4971 -0.5990
  661MOL0     C89111  10.060   9.667   6.594 -0.9060 -0.9246 -0.9058
  661MOL0     C89112  10.062   9.814   6.644  0.0452  0.1883  0.3616
  661MOL0     C89113  10.168   9.916   6.581 -0.6668  0.5334 -0.2315
  661MOL0     C89114  10.309   9.849   6.583 -0.7899 -0.1319  0.4697
  661MOL0     C89115  10.424   9.940   6.533 -0.1050 -0.0643 -0.0107
  661MOL0     C89116  10.558   9.866   6.552  0.4479  0.2632 -0.4087
  661MOL0     N89117  10.664   9.964   6.557  0.4954  0.0989 -0.4949
  661MOL0     C89118  10.666  10.097   6.536  0.0996  0.2467  0.4476
  661MOL0     C89119  10.791  10.138   6.539  0.2559 -0.3973 -0.7179
  661MOL0     C89120  10.826  10.288   6.542  0.1678 -0.8030  0.2013
  661MOL0     C89121  10.888  10.335   6.410  0.4171 -0.3136 -1.4638
  661MOL0     C89122  11.023  10.267   6.388  0.1858  0.7586 -0.1990
  661MOL0     C89123  11.093  10.311   6.256 -0.6635  0.2334 -0.9261
  661MOL0     O89124  11.214  10.233   6.243 -1.0578 -0.3325 -0.6037
  661MOL0     C89125  11.329  10.278   6.307  0.5311  0.8236  0.2417
  661MOL0     C89126  11.339  10.402   6.374  0.3260  0.3827 -0.0285
  661MOL0     C89127  11.465  10.442   6.430 -0.1826 -1.1956  0.6198
  661MOL0     C89128  11.583  10.352   6.424 -0.6600 -0.5090  0.7549
  661MOL0     C89129  11.717  10.408   6.463  0.2174 -0.4312 -0.7956
  661MOL0     O89130  11.712  10.541   6.481  0.1160  0.4471 -0.1886
  661MOL0     C89131  11.836  10.603   6.492 -0.3586  0.7708  0.2609
  661MOL0     C89132  11.893  10.692   6.403  1.1777  0.1013 -0.2217
  661MOL0     C89133  12.020  10.730   6.410  0.6575 -0.8713 -0.6401
  661MOL0     C89134  12.088  10.699   6.531 -0.6717  0.1016  0.1816
  661MOL0     O89135  12.218  10.733   6.527 -0.3989 -0.0127 -0.3158
  661MOL0     C89136  12.313  10.662   6.595 -0.0719  0.1905  0.4575
  661MOL0     C89137  12.416  10.610   6.500  0.1039 -0.3551 -0.0598
  661MOL0     C89138  12.532  10.555   6.593 -1.0768 -0.3464 -0.1602
  661MOL0     C89139  12.634  10.485   6.515  0.8669  0.4195  0.0485
  661MOL0     C89140  12.777  10.491   6.582  0.1791  0.2549 -0.4029
  661MOL0     C89141  12.863  10.393   6.507 -0.2153  0.9988 -0.2661
  661MOL0     C89142  13.009  10.400   6.546 -0.2791 -0.0864 -0.3368
  661MOL0     C89143  13.102  10.370   6.423 -0.1331 -0.4597  0.1468
  661MOL0    Cl89144  13.088  10.202   6.403 -0.0447  0.2914 -0.0782
  661MOL0     C89145  12.025  10.643   6.640 -0.5941  0.4022 -0.9303
  661MOL0     C89146  11.895  10.589   6.621 -0.7739  0.8384  1.1222
  661MOL0     O89147  11.819  10.335   6.472  0.5708  0.1743 -0.2551
  661MOL0     C89148  11.559  10.216   6.370  0.4153  0.2031 -0.6560
  661MOL0     C89149  11.435  10.187   6.314  0.0164  0.5100  0.1336
  661MOL0     N89150  10.869  10.029   6.562 -0.2116  0.0060 -0.2429
  661MOL0     N89151  10.794   9.930   6.584  0.3759  0.1435  0.1367
  661MOL0     C89152   9.710   9.400   6.468 -0.1197 -0.1513 -0.1353
  661MOL0     C89153   9.640   9.299   6.396  0.1461 -0.2021  0.0458
  661MOL0     C89154   9.423   8.970   6.207 -0.0253 -0.5494 -0.1502
  661MOL0     C89155   9.295   8.970   6.252  0.3658 -0.4981  0.2426
  661MOL0     C89156   9.196   8.894   6.183  1.1373  0.1857  0.0093
  661MOL0     C89157   9.224   8.826   6.064 -0.1662  0.3622 -0.1287
  661MOL0     O89158   9.138   8.755   5.992 -0.1393  0.5086 -0.6622
  661MOL0     C89159   9.070   8.653   6.072  0.0193 -0.1881  0.0371
  661MOL0     C89160   8.944   8.598   6.008 -0.1372  0.6337  0.6990
  661MOL0     C89161   8.900   8.484   6.100  0.1960  0.4835  0.3110
  661MOL0     C89162   9.009   8.380   6.146  0.2442  0.2951  0.2838
  661MOL0     C89163   8.932   8.253   6.153 -0.0526  0.3794 -0.0608
  661MOL0     C89164   8.858   8.156   6.147  0.2117  0.6802  0.1198
  661MOL0     C89165   9.347   8.830   6.024 -0.4271  0.2343  0.6002
  661MOL0     C89166   9.457   8.893   6.100 -0.1076  0.0666 -0.0093
  661MOL0     C89167   9.601   8.880   6.049 -0.1164 -0.6852  0.0157
  661MOL0     H89168   9.418   9.208   6.642  0.9427 -1.5573 -0.7936
  661MOL0     H89169   9.530   9.381   6.759  0.0628 -1.1306  0.5234
  661MOL0     H89170   9.804   9.637   6.522 -0.2796  2.4189  0.3371
  661MOL0     H89171   9.786   9.733   6.667 -0.5859  0.2424  0.4684
  661MOL0     H89172   9.982   9.478   6.648 -1.0215  0.7737 -3.9165
  661MOL0     H89173   9.974   9.597   6.773  1.5808  0.1901 -0.8163
  661MOL0     H89174  10.043   9.668   6.486 -0.7478  0.2881 -0.9262
  661MOL0     H89175  10.160   9.625   6.609  1.3270  3.8535 -0.6365
  661MOL0     H89176   9.961   9.855   6.636 -0.4559 -1.0062  0.3322
  661MOL0     H89177  10.080   9.817   6.751 -3.5709  0.7372  1.0888
  661MOL0     H89178  10.143   9.950   6.480 -3.5898 -0.2163  0.1520
  661MOL0     H89179  10.168  10.005   6.644 -0.0367  0.0062  0.5409
  661MOL0     H89180  10.335   9.807   6.681  0.4217  0.8470  0.5886
  661MOL0     H89181  10.315   9.765   6.513  0.1837  1.5769 -1.6060
  661MOL0     H89182  10.430  10.028   6.598  2.4377 -0.3792  0.3117
  661MOL0     H89183  10.413   9.977   6.431 -2.2418  0.6052  0.4186
  661MOL0     H89184  10.559   9.812   6.648 -0.8100  1.2072  0.1588
  661MOL0     H89185  10.563   9.792   6.472 -5.1981 -0.5018 -0.4730
  661MOL0     H89186  10.581  10.165   6.527  1.2272  1.4246 -2.8600
  661MOL0     H89187  10.732  10.341   6.557  1.2353  1.3103 -0.1330
  661MOL0     H89188  10.888  10.315   6.629 -0.3131  2.8912 -0.4449
  661MOL0     H89189  10.815  10.309   6.332 -1.5725  1.1374 -0.1761
  661MOL0     H89190  10.899  10.443   6.425 -1.0772 -0.3307  0.1255
  661MOL0     H89191  10.995  10.161   6.386 -2.6544  1.4152  0.4262
  661MOL0     H89192  11.097  10.284   6.467  2.0617  0.8304 -1.8988
  661MOL0     H89193  11.110  10.419   6.255 -0.7454  0.2461 -0.9638
  661MOL0     H89194  11.023  10.288   6.175 -3.5285 -1.5720  1.8656
  661MOL0     H89195  11.257  10.472   6.384  2.6714  3.1386  1.0795
  661MOL0     H89196  11.458  10.541   6.475 -1.8758 -1.3414  0.7691
  661MOL0     H89197  11.833  10.733   6.322 -0.6655 -1.4314  0.3256
  661MOL0     H89198  12.062  10.790   6.331 -1.2562 -0.0009 -1.0645
  661MOL0     H89199  12.367  10.721   6.670  2.1506 -1.1901  0.0364
  661MOL0     H89200  12.262  10.578   6.643 -1.2004  1.1307  0.9391
  661MOL0     H89201  12.374  10.529   6.439  1.6276  0.3353 -2.0906
  661MOL0     H89202  12.440  10.693   6.434  0.6849 -1.4359 -1.2342
  661MOL0     H89203  12.580  10.628   6.658  1.4412 -2.1751  0.1817
  661MOL0     H89204  12.486  10.490   6.668 -1.7711  0.8633  0.4963
  661MOL0     H89205  12.633  10.527   6.414 -3.0745 -0.0378 -0.2449
  661MOL0     H89206  12.610  10.379   6.513 -1.6226  0.9060 -2.0923
  661MOL0     H89207  12.774  10.459   6.687 -0.4107 -0.9167 -0.7485
  661MOL0     H89208  12.824  10.587   6.563  2.1456 -0.6263 -0.2870
  661MOL0     H89209  12.821  10.292   6.509  0.4609  0.6109 -2.4995
  661MOL0     H89210  12.852  10.410   6.399 -0.3276 -2.4208 -0.8973
  661MOL0     H89211  13.029  10.329   6.626  1.4625 -0.7162 -1.2643
  661MOL0     H89212  13.035  10.498   6.586  1.6044 -0.7262  0.1440
  661MOL0     H89213  13.079  10.415   6.326 -2.3052 -2.1735 -0.2018
  661MOL0     H89214  13.207  10.394   6.444 -0.1466  0.1977 -0.4941
  661MOL0     H89215  12.069  10.630   6.739 -2.6264 -1.2354 -0.1603
  661MOL0     H89216  11.843  10.533   6.698 -2.2109  0.7345  0.1194
  661MOL0     H89217  11.637  10.140   6.372 -0.1343 -0.4624  3.0220
  661MOL0     H89218  11.426  10.094   6.258  0.1228  0.3481  0.3846
  661MOL0     H89219   9.782   9.461   6.414  0.2429 -2.9655 -3.1928
  661MOL0     H89220   9.663   9.276   6.293  0.6725  0.1849  0.0741
  661MOL0     H89221   9.274   9.029   6.340  0.9165 -0.5172  0.3896
  661MOL0     H89222   9.099   8.896   6.230  2.3572 -1.3887  2.8543
  661MOL0     H89223   9.049   8.696   6.170 -1.1257  1.3470 -0.8448
  661MOL0     H89224   9.143   8.571   6.079  0.0922 -0.1410 -0.1592
  661MOL0     H89225   8.971   8.567   5.906 -1.3505  1.4693  0.0940
  661MOL0     H89226   8.861   8.668   5.992  0.8256  1.9916  1.4530
  661MOL0     H89227   8.812   8.435   6.059  0.1750  2.1757 -1.8270
  661MOL0     H89228   8.869   8.529   6.194 -1.7310 -0.2106  0.0444
  661MOL0     H89229   9.094   8.367   6.078  0.6176 -0.1040  0.8219
  661MOL0     H89230   9.051   8.404   6.243  0.9461 -1.2876  0.4008
  661MOL0     H89231   8.790   8.074   6.154 -1.4153  2.0852  2.0868
  661MOL0     H89232   9.366   8.785   5.928 -2.9001 -0.2226  0.2559
  661MOL0     H89233   9.651   8.968   6.007 -1.4154  0.5439  0.9276
  661MOL0     H89234   9.661   8.834   6.128 -1.3953 -0.8347  0.9386
  661MOL0     H89235   9.600   8.811   5.965 -1.0791 -0.4827 -0.1548
  662MOL0     O89236   4.490   7.707  10.310  0.0995  0.2015 -0.1199
  662MOL0     C89237   4.374   7.697  10.308  0.0176 -0.2343  0.3132
  662MOL0     O89238   4.291   7.789  10.268  0.5551 -0.2550 -0.3953
  662MOL0     C89239   4.323   7.915  10.232  0.1428 -0.1126  0.0073
  662MOL0     C89240   4.426   7.963  10.150 -0.7245  0.0412 -0.4965
  662MOL0     C89241   4.450   8.099  10.127  0.3598 -0.4007 -0.1957
  662MOL0     C89242   4.379   8.193  10.199 -0.0305  0.6777 -0.0099
  662MOL0     O89243   4.404   8.332  10.197 -0.3776  0.5067  0.3555
  662MOL0     C89244   4.417   8.385  10.061 -0.7972 -0.2185 -0.2675
  662MOL0     C89245   4.564   8.405  10.011  0.2909  0.5173 -0.8179
  662MOL0     C89246   4.660   8.456  10.111 -0.3801 -0.7926 -0.1806
  662MOL0     C89247   4.806   8.436  10.070  0.4120  0.4880  0.3455
  662MOL0     C89248   4.910   8.514  10.155  0.4998 -0.1853 -0.0026
  662MOL0     C89249   5.043   8.470  10.105 -0.9225 -0.3798 -0.3367
  662MOL0     C89250   5.074   8.521   9.964  0.1240  0.1415  0.1531
  662MOL0     C89251   5.225   8.523   9.949 -0.5123 -0.2592  0.0151
  662MOL0     N89252   5.274   8.529   9.808 -0.3046  0.4149 -0.9621
  662MOL0     C89253   5.273   8.426   9.714  0.3442 -0.2812  0.1567
  662MOL0     C89254   5.333   8.476   9.602 -0.4683 -0.3580 -0.9885
  662MOL0     C89255   5.370   8.392   9.484  0.4728  0.0509  0.5607
  662MOL0     C89256   5.521   8.384   9.465 -0.6578 -0.6258  0.2987
  662MOL0     C89257   5.545   8.326   9.321  0.8250  0.1070 -0.4502
  662MOL0     C89258   5.686   8.278   9.306  0.1115  0.3400 -0.2047
  662MOL0     O89259   5.709   8.179   9.404  0.1366  0.7634  0.0406
  662MOL0     C89260   5.831   8.116   9.392  0.2101 -0.0079 -0.3469
  662MOL0     C89261   5.858   7.992   9.457  0.6678  0.2640 -0.2046
  662MOL0     C89262   5.981   7.925   9.439  0.0075 -0.7293  0.1494
  662MOL0     C89263   6.087   7.973   9.363  0.7531 -0.3914 -0.4553
  662MOL0     C89264   6.219   7.903   9.339 -0.1844  0.0312  0.4734
  662MOL0     O89265   6.304   7.966   9.259  1.0263 -0.2984  0.4482
  662MOL0     C89266   6.431   7.923   9.225 -0.5684  0.0599 -0.2088
  662MOL0     C89267   6.545   8.011   9.228  0.1031  0.4593 -0.1562
  662MOL0     C89268   6.679   7.965   9.211 -0.5170  0.8064  0.2339
  662MOL0     C89269   6.705   7.833   9.176  0.7687 -0.4879  0.3409
  662MOL0     O89270   6.819   7.766   9.150 -0.0576  0.0711  0.0765
  662MOL0     C89271   6.932   7.858   9.135  0.1669 -0.0264 -0.6288
  662MOL0     C89272   7.061   7.798   9.089  0.3962  0.6738 -0.3045
  662MOL0     C89273   7.072   7.749   8.943  0.6061  0.1900 -0.0473
  662MOL0     C89274   7.219   7.703   8.913 -0.2937 -0.1869 -0.5571
  662MOL0     C89275   7.244   7.680   8.761  0.4558  0.6319 -0.6811
  662MOL0     C89276   7.377   7.615   8.726 -0.5092 -0.1377  0.8729
  662MOL0     C89277   7.495   7.696   8.789 -0.4648 -0.4133 -0.9499
  662MOL0     C89278   7.613   7.682   8.700 -0.0486 -0.4701 -0.6353
  662MOL0    Cl89279   7.669   7.511   8.677  0.0928 -0.0847  0.0829
  662MOL0     C89280   6.597   7.742   9.183 -0.1221 -0.4406 -0.6237
  662MOL0     C89281   6.464   7.786   9.206  0.0983  0.1603 -1.1289
  662MOL0     O89282   6.229   7.789   9.384 -0.2717  0.2477 -0.0293
  662MOL0     C89283   6.068   8.098   9.301 -0.2444  0.3438 -0.4080
  662MOL0     C89284   5.945   8.167   9.323  0.6450 -0.2816  0.0799
  662MOL0     N89285   5.362   8.606   9.636 -0.6459  0.7599  0.8286
  662MOL0     N89286   5.325   8.640   9.751 -0.1968  0.0617 -0.2818
  662MOL0     C89287   4.271   8.153  10.283  0.7773  0.1006  0.8287
  662MOL0     C89288   4.238   8.012  10.292  0.3355  0.3078 -0.6613
  662MOL0     C89289   4.313   7.567  10.349  0.3757  0.1479 -0.2171
  662MOL0     C89290   4.177   7.558  10.329  0.2550  0.3096 -1.0942
  662MOL0     C89291   4.111   7.439  10.367 -0.3505 -0.0725  0.0449
  662MOL0     C89292   4.171   7.332  10.430  0.1689 -0.0681  0.1996
  662MOL0     O89293   4.095   7.228  10.465  0.6039 -0.7112 -0.3051
  662MOL0     C89294   4.124   7.141  10.577 -0.4772  1.1664 -0.8564
  662MOL0     C89295   4.035   7.018  10.572 -0.5850  0.4364  0.4438
  662MOL0     C89296   4.059   6.933  10.694  0.1060  0.5070 -0.0372
  662MOL0     C89297   4.085   6.782  10.651 -0.1495 -0.3818  1.1481
  662MOL0     C89298   4.096   6.697  10.774 -0.3641 -0.7045 -0.0175
  662MOL0     C89299   4.110   6.609  10.855 -0.3048 -0.5297  0.2482
  662MOL0     C89300   4.314   7.340  10.444  0.0203  1.0363  0.0836
  662MOL0     C89301   4.386   7.451  10.403  1.0358 -1.4247 -0.3244
  662MOL0     C89302   4.526   7.442  10.440 -0.1238  0.0517 -0.6401
  662MOL0     H89303   4.488   7.886  10.104  0.1154 -0.5520  1.5252
  662MOL0     H89304   4.533   8.132  10.065  0.2058 -1.6797 -1.1231
  662MOL0     H89305   4.352   8.331   9.992 -0.6291  1.2481 -1.6078
  662MOL0     H89306   4.381   8.488  10.057  0.3063  0.2137  0.5605
  662MOL0     H89307   4.561   8.465   9.920  0.1614  0.1548 -1.0569
  662MOL0     H89308   4.603   8.311   9.970 -1.0937 -0.3581 -0.2174
  662MOL0     H89309   4.641   8.412  10.209  3.5764 -1.7632  0.3204
  662MOL0     H89310   4.653   8.566  10.108  0.0959 -0.7779 -1.5642
  662MOL0     H89311   4.836   8.330  10.075  1.1188  0.7330  1.5258
  662MOL0     H89312   4.808   8.466   9.965 -0.2765 -1.8515 -0.4190
  662MOL0     H89313   4.895   8.621  10.133 -1.1273 -0.8672 -2.8557
  662MOL0     H89314   4.920   8.492  10.261 -0.4507 -1.0281 -0.0652
  662MOL0     H89315   5.117   8.515  10.172 -1.2655  1.4641 -1.1186
  662MOL0     H89316   5.042   8.361  10.111 -2.0965 -0.4025 -0.6941
  662MOL0     H89317   5.031   8.620   9.948  0.2802  0.1952  0.0680
  662MOL0     H89318   5.035   8.458   9.883  0.6933  0.4390 -0.3611
  662MOL0     H89319   5.258   8.618   9.992 -0.9774  0.3604 -0.9601
  662MOL0     H89320   5.265   8.439  10.006 -2.6052 -1.4269 -0.1336
  662MOL0     H89321   5.251   8.321   9.733 -1.2962  0.0208  0.0235
  662MOL0     H89322   5.334   8.290   9.496  1.3143 -0.0248  3.1941
  662MOL0     H89323   5.326   8.429   9.391 -1.1811 -0.1295  1.2243
  662MOL0     H89324   5.571   8.481   9.472 -0.2438 -0.7231 -1.0358
  662MOL0     H89325   5.565   8.318   9.540  1.1216 -1.4786 -1.4109
  662MOL0     H89326   5.527   8.405   9.247  1.1812  1.2956  0.6895
  662MOL0     H89327   5.473   8.248   9.298 -0.0995  0.5867  0.7310
  662MOL0     H89328   5.749   8.367   9.306  1.3921 -0.5422  0.0062
  662MOL0     H89329   5.695   8.235   9.206  0.1570  0.7694 -0.3842
  662MOL0     H89330   5.785   7.951   9.527 -2.8231  1.2006 -2.9661
  662MOL0     H89331   6.008   7.844   9.506 -1.2967 -1.1484  0.2004
  662MOL0     H89332   6.519   8.115   9.245 -3.7277 -0.5771  1.3199
  662MOL0     H89333   6.763   8.032   9.195  0.8928 -0.9618 -0.0878
  662MOL0     H89334   6.900   7.931   9.060  0.8990  3.1442  1.9422
  662MOL0     H89335   6.942   7.911   9.230 -1.3930 -0.8144  0.0226
  662MOL0     H89336   7.132   7.879   9.107 -1.7746  2.5299  0.2253
  662MOL0     H89337   7.088   7.710   9.148  0.1689 -0.3261 -1.6407
  662MOL0     H89338   6.999   7.668   8.937  0.5352  0.0004  2.3138
  662MOL0     H89339   7.057   7.832   8.873  1.2545 -0.4637 -0.9974
  662MOL0     H89340   7.228   7.609   8.969  1.6471  0.8005  0.9361
  662MOL0     H89341   7.291   7.772   8.958 -0.7230 -0.9852  1.4397
  662MOL0     H89342   7.235   7.771   8.701 -0.0678  0.1029 -1.4153
  662MOL0     H89343   7.163   7.621   8.718 -0.0171  0.7862 -0.0288
  662MOL0     H89344   7.383   7.514   8.769  0.8457 -0.8554 -0.8497
  662MOL0     H89345   7.383   7.603   8.617 -0.5081  0.7539  0.7738
  662MOL0     H89346   7.508   7.663   8.892 -1.5019 -0.8777 -0.9558
  662MOL0     H89347   7.481   7.805   8.788 -1.0985 -0.3816  2.3048
  662MOL0     H89348   7.592   7.725   8.602  0.9311  0.1704 -0.5871
  662MOL0     H89349   7.693   7.738   8.751  1.2138 -2.1353 -0.6888
  662MOL0     H89350   6.625   7.639   9.163 -1.4408 -1.0007  0.2860
  662MOL0     H89351   6.377   7.726   9.181  0.3753  0.2530 -2.3799
  662MOL0     H89352   6.154   8.147   9.256 -0.3411 -0.8027 -1.9217
  662MOL0     H89353   5.950   8.265   9.277 -1.3060  0.0650  0.5394
  662MOL0     H89354   4.196   8.224  10.318  0.5634  0.5235 -0.4153
  662MOL0     H89355   4.153   7.989  10.356  0.8343  0.5730  0.0969
  662MOL0     H89356   4.115   7.637  10.286  1.1186 -0.1041 -3.2270
  662MOL0     H89357   4.003   7.431  10.356 -0.4080  0.9558 -0.2946
  662MOL0     H89358   4.118   7.191  10.674 -1.3002  0.2267 -0.4147
  662MOL0     H89359   4.225   7.101  10.566 -1.8797 -2.2886 -2.3395
  662MOL0     H89360   4.060   6.974  10.475  1.0070  0.4121  0.8272
  662MOL0     H89361   3.931   7.052  10.569 -0.5746  0.4581 -2.0824
  662MOL0     H89362   3.984   6.946  10.772  0.0170  3.5057 -0.5118
  662MOL0     H89363   4.156   6.973  10.725 -0.1656  1.8160 -0.8011
  662MOL0     H89364   4.009   6.741  10.584 -0.8971  1.2557  0.9630
  662MOL0     H89365   4.177   6.783  10.591 -1.6945 -0.5356 -1.3452
  662MOL0     H89366   4.125   6.533  10.929  2.4817 -1.8766 -1.5697
  662MOL0     H89367   4.361   7.261  10.502 -0.2168  0.3739 -0.6078
  662MOL0     H89368   4.545   7.482  10.540  2.9247 -2.1738 -0.2080
  662MOL0     H89369   4.561   7.339  10.451  2.8902  1.1370  1.1539
  662MOL0     H89370   4.596   7.494  10.375  0.3335  1.0678  0.6107
  663MOL0     O89371   7.378   8.837  10.299 -0.7234  0.0303  0.2419
  663MOL0     C89372   7.404   8.913  10.393  0.4688  0.0013 -0.5626
  663MOL0     O89373   7.527   8.933  10.444  0.3417  0.3561 -0.2022
  663MOL0     C89374   7.647   8.887  10.403 -0.1139 -1.3269 -0.3229
  663MOL0     C89375   7.763   8.927  10.474 -0.3185 -0.0456 -0.1551
  663MOL0     C89376   7.885   8.865  10.450  0.3111  0.1237 -0.1121
  663MOL0     C89377   7.888   8.760  10.361 -0.3393 -0.4952 -0.7964
  663MOL0     O89378   8.009   8.710  10.335  0.2083 -0.1027 -0.8117
  663MOL0     C89379   8.020   8.581  10.279 -0.3589 -0.1554 -1.0361
  663MOL0     C89380   8.172   8.562  10.288 -0.9407 -0.5866 -0.3678
  663MOL0     C89381   8.260   8.642  10.181 -0.5914 -0.8961 -0.1578
  663MOL0     C89382   8.231   8.600  10.045 -0.1539  0.6800  0.2291
  663MOL0     C89383   8.322   8.688   9.956 -0.0577  0.0319  0.0829
  663MOL0     C89384   8.282   8.663   9.812 -0.4526 -0.1253  0.0687
  663MOL0     C89385   8.361   8.716   9.694  1.0278 -0.0969  0.1682
  663MOL0     C89386   8.347   8.637   9.574 -0.5492  0.1343 -0.8340
  663MOL0     N89387   8.450   8.545   9.578 -0.0305 -0.2572  0.4689
  663MOL0     C89388   8.462   8.420   9.639 -0.0179 -0.1848 -0.4665
  663MOL0     C89389   8.583   8.370   9.618 -0.7157 -0.6205  0.0930
  663MOL0     C89390   8.634   8.240   9.657  0.3476 -0.0310  0.4792
  663MOL0     C89391   8.783   8.246   9.688 -0.6807  0.3037  0.7426
  663MOL0     C89392   8.826   8.106   9.732 -0.2298  1.1493 -1.0794
  663MOL0     C89393   8.981   8.103   9.751 -0.2072 -0.4413  0.0345
  663MOL0     O89394   9.035   8.094   9.621 -0.0353  0.1631  0.8324
  663MOL0     C89395   9.160   8.043   9.601 -1.0972  0.4745  0.4760
  663MOL0     C89396   9.254   8.029   9.701  0.0540 -0.3858  0.9006
  663MOL0     C89397   9.383   7.973   9.669  0.0102  1.0822  1.2402
  663MOL0     C89398   9.410   7.930   9.533  0.2176 -0.3553  0.0548
  663MOL0     C89399   9.540   7.872   9.501  0.6147  0.3335  0.1444
  663MOL0     O89400   9.634   7.840   9.610  0.7883  0.0217  0.6217
  663MOL0     C89401   9.751   7.788   9.572 -0.3579  0.1549  0.9298
  663MOL0     C89402   9.764   7.653   9.560 -0.1326 -0.3182 -0.4859
  663MOL0     C89403   9.895   7.608   9.533 -0.1049 -0.0446 -0.1694
  663MOL0     C89404  10.007   7.681   9.539 -0.4052  0.3634  0.6137
  663MOL0     O89405  10.125   7.616   9.522  0.1505  0.2434 -0.3658
  663MOL0     C89406  10.250   7.694   9.505 -0.9234 -0.4932  0.2559
  663MOL0     C89407  10.366   7.614   9.451  0.2590 -0.3107 -0.1950
  663MOL0     C89408  10.435   7.527   9.556  0.0183  0.3790 -0.2562
  663MOL0     C89409  10.537   7.611   9.625 -0.8015  1.0378  0.4499
  663MOL0     C89410  10.656   7.528   9.677 -0.0371 -0.1280  0.0579
  663MOL0     C89411  10.756   7.619   9.758  0.3291 -0.4003 -0.0427
  663MOL0     C89412  10.892   7.545   9.780 -0.5185  0.3429 -0.3887
  663MOL0     C89413  10.978   7.598   9.889 -1.4589 -0.6867 -0.0228
  663MOL0    Cl89414  11.027   7.769   9.867  0.0605  0.5218 -0.1921
  663MOL0     C89415   9.994   7.817   9.546 -0.2999 -0.1336 -0.1304
  663MOL0     C89416   9.866   7.874   9.561  0.2010 -0.0769 -0.3275
  663MOL0     O89417   9.573   7.860   9.387 -0.4519  0.4283  0.6430
  663MOL0     C89418   9.315   7.943   9.436  0.7479 -0.0039 -0.2555
  663MOL0     C89419   9.194   8.005   9.474 -0.6088  0.6675  0.0435
  663MOL0     N89420   8.640   8.463   9.532 -0.3931 -0.2159  0.2620
  663MOL0     N89421   8.565   8.563   9.507 -0.0078 -0.3528  0.4207
  663MOL0     C89422   7.781   8.733  10.283 -0.3138 -0.4513  0.6177
  663MOL0     C89423   7.664   8.801  10.295  0.0740  0.2007  0.1243
  663MOL0     C89424   7.299   8.996  10.458  0.5767 -0.4184 -0.1765
  663MOL0     C89425   7.326   9.063  10.586 -1.0160  0.8935  0.0401
  663MOL0     C89426   7.227   9.136  10.649 -0.1687 -0.2980  0.0743
  663MOL0     C89427   7.101   9.161  10.591  0.0046  0.7349  0.3081
  663MOL0     O89428   7.007   9.226  10.661  0.1067 -0.8234  0.2738
  663MOL0     C89429   6.872   9.177  10.655 -0.3003 -0.1603  0.3860
  663MOL0     C89430   6.860   9.027  10.695 -1.0169 -0.0033 -0.1631
  663MOL0     C89431   6.921   9.004  10.833 -0.6368 -0.0645 -0.2470
  663MOL0     C89432   6.835   9.061  10.948 -0.4359 -0.3835 -0.2790
  663MOL0     C89433   6.699   9.000  10.944 -0.5012 -0.3877 -0.5015
  663MOL0     C89434   6.597   8.940  10.922 -0.1889  0.4378 -0.5386
  663MOL0     C89435   7.072   9.101  10.465 -0.6634  0.7974 -0.1098
  663MOL0     C89436   7.170   9.028  10.394 -0.0085  0.5915 -0.0976
  663MOL0     C89437   7.147   8.981  10.256 -0.0460  0.8257  0.5768
  663MOL0     H89438   7.746   8.993  10.559 -2.7052 -0.1142 -0.5026
  663MOL0     H89439   7.979   8.899  10.493  1.5909 -0.1472 -2.5433
  663MOL0     H89440   7.980   8.505  10.346  3.5928 -0.8282  0.8238
  663MOL0     H89441   7.981   8.570  10.177  0.2398  0.1744 -1.3099
  663MOL0     H89442   8.207   8.458  10.289  0.0549 -0.2729 -1.1035
  663MOL0     H89443   8.201   8.612  10.381 -3.8375  1.9340 -0.6937
  663MOL0     H89444   8.361   8.613  10.213 -1.1694 -1.9837  0.7840
  663MOL0     H89445   8.250   8.748  10.203 -1.6221 -1.1133  0.5152
  663MOL0     H89446   8.263   8.497  10.024 -0.0696  1.1664 -2.3675
  663MOL0     H89447   8.128   8.611  10.009  0.0827  1.7808 -0.1522
  663MOL0     H89448   8.325   8.795   9.978  2.6431 -0.0089  0.1711
  663MOL0     H89449   8.424   8.652   9.970  0.2975  0.8729 -0.2949
  663MOL0     H89450   8.258   8.557   9.804 -0.3477 -0.1238 -0.2738
  663MOL0     H89451   8.183   8.711   9.809 -1.0693 -1.3982 -2.4734
  663MOL0     H89452   8.464   8.737   9.725  0.3955  2.0226  0.9975
  663MOL0     H89453   8.324   8.816   9.674 -1.2902 -1.1605 -1.1515
  663MOL0     H89454   8.250   8.586   9.574  0.1436 -1.8163  4.3734
  663MOL0     H89455   8.374   8.706   9.494  2.0201  0.4666  0.2269
  663MOL0     H89456   8.387   8.375   9.702 -0.5869  0.2651 -0.8135
  663MOL0     H89457   8.584   8.210   9.749  2.3700 -0.5703  1.4521
  663MOL0     H89458   8.603   8.176   9.574  1.7766  0.9962 -0.9212
  663MOL0     H89459   8.833   8.270   9.593  1.3496 -4.7156  0.2269
  663MOL0     H89460   8.809   8.318   9.766 -0.8016  1.9767 -0.7061
  663MOL0     H89461   8.804   8.031   9.655  0.0100 -0.5469  0.4423
  663MOL0     H89462   8.790   8.080   9.832  2.2967 -1.6294 -0.7474
  663MOL0     H89463   9.008   8.015   9.810  4.1894  0.4924 -0.2411
  663MOL0     H89464   9.013   8.195   9.801  0.3303 -0.6504  0.0893
  663MOL0     H89465   9.238   8.061   9.804 -1.5558 -0.2902  0.6345
  663MOL0     H89466   9.468   7.962   9.735  1.4232  2.5941 -0.2493
  663MOL0     H89467   9.688   7.578   9.582  0.9839 -0.7600  2.2586
  663MOL0     H89468   9.897   7.500   9.522  0.8069 -0.0336 -0.1866
  663MOL0     H89469  10.231   7.768   9.428 -5.2919 -1.1608  0.4605
  663MOL0     H89470  10.280   7.741   9.599 -1.0661 -2.6186  1.4420
  663MOL0     H89471  10.317   7.548   9.378 -0.7492 -1.0119  1.0656
  663MOL0     H89472  10.437   7.681   9.403 -0.8742  0.2261 -1.1749
  663MOL0     H89473  10.363   7.476   9.620 -0.1060  1.1315  0.2066
  663MOL0     H89474  10.479   7.441   9.504 -1.8282 -1.3184  0.8278
  663MOL0     H89475  10.481   7.653   9.709 -2.2278 -1.1105  0.6691
  663MOL0     H89476  10.575   7.696   9.568 -0.8778  0.5435 -0.3547
  663MOL0     H89477  10.710   7.491   9.589 -0.1267  3.5364 -1.7082
  663MOL0     H89478  10.625   7.444   9.740 -1.1538 -0.3819 -0.7975
  663MOL0     H89479  10.785   7.711   9.708 -0.2219 -1.7972 -3.1394
  663MOL0     H89480  10.709   7.648   9.853 -0.5409  2.1518 -1.1694
  663MOL0     H89481  10.943   7.554   9.684  0.7499  1.7599  0.3701
  663MOL0     H89482  10.880   7.439   9.802  2.8939  0.1090  0.8663
  663MOL0     H89483  10.934   7.577   9.987 -1.3451  2.2856  0.7651
  663MOL0     H89484  11.063   7.530   9.880 -1.2610 -0.7462  1.8523
  663MOL0     H89485  10.082   7.880   9.551 -1.7546  1.9280  0.7974
  663MOL0     H89486   9.843   7.979   9.576  0.9030  0.1687 -0.9160
  663MOL0     H89487   9.338   7.915   9.334  0.0465 -0.4402 -0.3034
  663MOL0     H89488   9.114   8.013   9.400 -2.3508 -2.2241  1.4447
  663MOL0     H89489   7.787   8.670  10.194  0.2405  1.8067 -1.0280
  663MOL0     H89490   7.583   8.771  10.230 -0.4198  1.3842  0.1778
  663MOL0     H89491   7.419   9.048  10.640 -1.1012 -0.1056 -0.0749
  663MOL0     H89492   7.253   9.177  10.746 -0.2950 -1.1113  0.4665
  663MOL0     H89493   6.824   9.192  10.558  1.6986 -0.1346 -0.6545
  663MOL0     H89494   6.811   9.237  10.723 -1.3730 -0.1019 -0.5942
  663MOL0     H89495   6.908   8.952  10.633  2.0227  0.1221  1.8321
  663MOL0     H89496   6.755   8.996  10.687 -1.3274  0.9845 -0.1568
  663MOL0     H89497   7.022   9.044  10.832 -0.1869 -1.1669 -0.3836
  663MOL0     H89498   6.926   8.894  10.837  0.1352 -0.0205  0.1546
  663MOL0     H89499   6.881   9.033  11.044 -1.8926  0.4253  0.6950
  663MOL0     H89500   6.830   9.170  10.935  1.2596 -0.4261 -1.5353
  663MOL0     H89501   6.500   8.894  10.910 -1.5672  2.9192  0.4795
  663MOL0     H89502   6.979   9.110  10.409 -2.6014 -1.5331  2.4494
  663MOL0     H89503   7.070   9.042  10.208 -1.1799  1.0593  2.5596
  663MOL0     H89504   7.233   8.996  10.191 -1.9551  0.9068 -2.0849
  663MOL0     H89505   7.116   8.876  10.262  0.1095  0.6111 -1.6559
  664MOL0     O89506   9.933   7.515   6.104  0.2283 -0.9750 -0.2270
  664MOL0     C89507   9.929   7.617   6.184 -0.3983  1.2714  0.2354
  664MOL0     O89508  10.005   7.720   6.172 -0.0970 -0.1647  0.3429
  664MOL0     C89509  10.104   7.735   6.083 -0.5612 -0.0420 -0.7252
  664MOL0     C89510  10.081   7.793   5.962  0.1677 -0.1635 -0.2633
  664MOL0     C89511  10.183   7.820   5.868 -1.0440 -0.1481 -0.5558
  664MOL0     C89512  10.315   7.797   5.903  0.0374 -0.4156  0.4415
  664MOL0     O89513  10.410   7.822   5.806 -0.0907  0.5751  0.2276
  664MOL0     C89514  10.532   7.885   5.842 -0.2780  0.0956 -0.2428
  664MOL0     C89515  10.643   7.793   5.817 -0.1688  0.0303  0.4193
  664MOL0     C89516  10.779   7.869   5.835 -0.1487  1.0521  0.1388
  664MOL0     C89517  10.890   7.769   5.812 -0.0735  0.6646  0.4276
  664MOL0     C89518  11.029   7.826   5.846 -0.5055 -0.2871 -0.7080
  664MOL0     C89519  11.141   7.733   5.827  0.1558  0.5407  0.2368
  664MOL0     C89520  11.285   7.789   5.868 -0.7927 -0.1917 -0.5975
  664MOL0     C89521  11.405   7.705   5.814 -0.2238  0.0016  0.7025
  664MOL0     N89522  11.534   7.730   5.880  0.3861  0.5991 -0.4395
  664MOL0     C89523  11.617   7.824   5.846  0.0600 -1.1494 -0.1660
  664MOL0     C89524  11.720   7.810   5.934 -0.1145 -0.4193 -0.2689
  664MOL0     C89525  11.841   7.892   5.946  0.3648 -0.3704 -0.3274
  664MOL0     C89526  11.970   7.816   5.933 -0.1218  0.5202  0.2852
  664MOL0     C89527  12.075   7.920   5.951 -0.9084  0.4697  0.9013
  664MOL0     C89528  12.204   7.847   5.992 -0.3072 -0.1039 -0.4548
  664MOL0     O89529  12.308   7.942   6.014  0.4644 -0.5155 -0.2064
  664MOL0     C89530  12.435   7.893   6.025  0.5519  0.3290  1.0336
  664MOL0     C89531  12.547   7.975   6.025 -0.5249 -0.2966 -0.2291
  664MOL0     C89532  12.679   7.940   6.053  0.5805 -0.1546  0.2393
  664MOL0     C89533  12.707   7.804   6.080  0.6704 -0.6985  0.2961
  664MOL0     C89534  12.847   7.764   6.098 -0.1467 -0.3403  0.9316
  664MOL0     O89535  12.872   7.639   6.073  0.6699 -0.1452  0.4910
  664MOL0     C89536  13.008   7.618   6.080  0.6597 -0.0098  0.0502
  664MOL0     C89537  13.075   7.612   6.199  0.2900  0.0229 -0.7939
  664MOL0     C89538  13.206   7.570   6.211 -0.6450  0.3780 -0.2958
  664MOL0     C89539  13.277   7.532   6.093  1.0726 -0.3679 -0.0784
  664MOL0     O89540  13.404   7.483   6.106 -0.5150  0.8358 -0.2215
  664MOL0     C89541  13.488   7.436   5.993 -0.0084 -0.3351  0.2211
  664MOL0     C89542  13.631   7.436   6.043 -0.1007 -0.2062  0.6000
  664MOL0     C89543  13.691   7.569   6.100  0.5866  0.1310  0.6311
  664MOL0     C89544  13.838   7.538   6.121 -0.4722  0.3809 -0.4787
  664MOL0     C89545  13.909   7.648   6.194 -0.3884 -0.2360  0.4165
  664MOL0     C89546  13.931   7.785   6.122  0.4514 -0.3125 -0.1636
  664MOL0     C89547  13.990   7.891   6.218 -0.0636  0.3758  0.5010
  664MOL0     C89548  14.135   7.861   6.252  0.1769 -1.2907  0.2539
  664MOL0    Cl89549  14.179   8.016   6.317 -0.3333 -0.4057  0.3356
  664MOL0     C89550  13.218   7.554   5.965 -0.3143  1.0962 -0.4744
  664MOL0     C89551  13.086   7.596   5.957  0.1301  0.1807 -0.1337
  664MOL0     O89552  12.931   7.850   6.129  0.8317 -1.1565 -0.2902
  664MOL0     C89553  12.597   7.717   6.073  0.3023  0.0734 -0.5276
  664MOL0     C89554  12.472   7.755   6.045  1.3657  0.4119 -0.5221
  664MOL0     N89555  11.693   7.710   6.027 -0.0151  0.4089  0.4106
  664MOL0     N89556  11.579   7.665   5.990 -0.5875 -0.7311  0.4106
  664MOL0     C89557  10.353   7.730   6.016  0.0294 -0.0547 -0.4233
  664MOL0     C89558  10.237   7.706   6.109 -0.3933  0.0898  0.4878
  664MOL0     C89559   9.825   7.606   6.291  0.0346  0.2649  0.5538
  664MOL0     C89560   9.873   7.639   6.418 -0.0494 -0.3557 -0.4425
  664MOL0     C89561   9.787   7.636   6.531  0.4223 -0.2183 -0.7401
  664MOL0     C89562   9.649   7.600   6.518  0.4831  0.1681  0.1160
  664MOL0     O89563   9.549   7.605   6.612  0.0679 -0.5237 -0.1041
  664MOL0     C89564   9.580   7.598   6.752  0.1116 -0.1545 -0.3291
  664MOL0     C89565   9.551   7.742   6.801 -0.8737 -0.6439 -1.0788
  664MOL0     C89566   9.490   7.753   6.943 -0.5942 -0.7688 -0.0163
  664MOL0     C89567   9.397   7.873   6.964 -0.1200 -0.2593  0.5070
  664MOL0     C89568   9.466   8.001   6.922 -0.2488  0.1668 -0.0250
  664MOL0     C89569   9.515   8.097   6.871  0.3068 -0.9385  0.7793
  664MOL0     C89570   9.614   7.551   6.391  0.0827 -0.6449  0.5860
  664MOL0     C89571   9.698   7.552   6.279  0.6668  0.1928  0.1196
  664MOL0     C89572   9.642   7.510   6.147 -0.1850 -0.1626 -0.6592
  664MOL0     H89573   9.980   7.827   5.939 -0.3074 -1.1746  0.2476
  664MOL0     H89574  10.167   7.874   5.775 -0.5805  2.0358  0.5607
  664MOL0     H89575  10.546   7.979   5.787 -1.0985  0.3235 -0.0839
  664MOL0     H89576  10.537   7.920   5.945  1.1393  2.4854 -1.0525
  664MOL0     H89577  10.635   7.758   5.713  0.7113  1.1556 -0.0530
  664MOL0     H89578  10.633   7.711   5.888 -1.2530 -0.1370  0.0838
  664MOL0     H89579  10.789   7.898   5.940  2.7477  1.8184 -0.2521
  664MOL0     H89580  10.782   7.959   5.773  1.6043 -0.1150 -1.6002
  664MOL0     H89581  10.881   7.683   5.878 -0.9958  2.9820  3.5465
  664MOL0     H89582  10.889   7.734   5.708 -0.1771  1.1470  0.2594
  664MOL0     H89583  11.053   7.916   5.788  0.7003  0.8265  1.3835
  664MOL0     H89584  11.025   7.866   5.948 -0.9228  2.1120 -1.5738
  664MOL0     H89585  11.112   7.641   5.878  0.1105  0.3257 -0.1718
  664MOL0     H89586  11.152   7.704   5.722  2.4131  0.3556  0.4787
  664MOL0     H89587  11.278   7.789   5.978 -1.0805 -2.4183 -0.5747
  664MOL0     H89588  11.298   7.896   5.847  2.2699 -0.3015  0.2088
  664MOL0     H89589  11.393   7.596   5.808 -0.9562  0.0862  0.5953
  664MOL0     H89590  11.412   7.740   5.711 -0.0390  0.5415  0.8957
  664MOL0     H89591  11.602   7.898   5.768  1.8930 -0.4422  0.1127
  664MOL0     H89592  11.839   7.965   5.865  2.2750 -0.5554 -0.5867
  664MOL0     H89593  11.830   7.934   6.047  0.2438  0.6113 -0.7455
  664MOL0     H89594  11.963   7.734   6.005 -3.9999  0.4353  0.0277
  664MOL0     H89595  11.979   7.755   5.842 -1.6887  2.0769 -0.9965
  664MOL0     H89596  12.051   7.994   6.028  1.0790  1.4920  0.5974
  664MOL0     H89597  12.090   7.964   5.852  0.0950 -0.6300  0.5361
  664MOL0     H89598  12.237   7.786   5.907 -2.1531  0.8375 -1.9169
  664MOL0     H89599  12.184   7.780   6.076  0.9918 -1.5961 -1.2832
  664MOL0     H89600  12.530   8.082   6.031  2.3106  0.2231 -0.2066
  664MOL0     H89601  12.754   8.019   6.052  1.8572 -1.3319 -0.9265
  664MOL0     H89602  13.034   7.641   6.295  1.2869 -1.3962  0.1054
  664MOL0     H89603  13.261   7.561   6.304 -1.9520  1.8129  0.6727
  664MOL0     H89604  13.456   7.343   5.946  4.4117 -1.0662 -1.8736
  664MOL0     H89605  13.484   7.514   5.916  2.3789 -1.4810 -1.1781
  664MOL0     H89606  13.631   7.359   6.121  1.6561 -1.7061 -0.7912
  664MOL0     H89607  13.695   7.407   5.960  2.5415  4.0578  0.8527
  664MOL0     H89608  13.662   7.650   6.033 -1.0884 -0.7311  0.2471
  664MOL0     H89609  13.628   7.598   6.185 -1.5461 -0.7757 -0.5485
  664MOL0     H89610  13.898   7.526   6.031  1.8393 -0.4370  1.0805
  664MOL0     H89611  13.838   7.448   6.183 -0.6956 -0.0399 -1.0795
  664MOL0     H89612  14.011   7.611   6.210 -0.6358 -1.2248 -0.2055
  664MOL0     H89613  13.864   7.674   6.290 -0.9379 -0.1192  0.1287
  664MOL0     H89614  13.984   7.771   6.027 -1.9928  0.1018 -1.6778
  664MOL0     H89615  13.830   7.822   6.098  0.7538  0.5536 -0.1561
  664MOL0     H89616  13.933   7.906   6.310  3.2300  0.7758  2.6574
  664MOL0     H89617  13.984   7.985   6.162 -2.8814  0.3282  0.5667
  664MOL0     H89618  14.143   7.781   6.326 -2.6320 -2.1674 -0.2607
  664MOL0     H89619  14.193   7.828   6.166  1.2792  0.9919  0.0620
  664MOL0     H89620  13.274   7.511   5.883  0.1052  0.7104  0.0091
  664MOL0     H89621  13.035   7.600   5.861 -1.2992 -0.0471  0.5767
  664MOL0     H89622  12.617   7.614   6.098 -2.1741 -0.4897 -0.5964
  664MOL0     H89623  12.397   7.676   6.051  4.5321 -2.8939 -1.1176
  664MOL0     H89624  10.458   7.703   6.027 -0.1950 -0.9434 -0.4682
  664MOL0     H89625  10.261   7.662   6.205  3.5981 -3.0843 -1.6596
  664MOL0     H89626   9.978   7.662   6.429 -0.1481  1.5559 -2.7072
  664MOL0     H89627   9.817   7.676   6.627 -3.3224 -0.5175  0.7352
  664MOL0     H89628   9.681   7.559   6.771  0.0225  0.5132  1.6677
  664MOL0     H89629   9.522   7.538   6.822  0.9844  0.3462  0.8601
  664MOL0     H89630   9.482   7.786   6.728 -1.8392 -0.4090 -0.0399
  664MOL0     H89631   9.641   7.805   6.798 -1.1062 -0.0124  2.1330
  664MOL0     H89632   9.558   7.752   7.029 -0.5488  0.7122 -0.0060
  664MOL0     H89633   9.428   7.664   6.960 -0.0360 -0.8246  1.9798
  664MOL0     H89634   9.309   7.853   6.903  1.8101 -0.3301 -2.4428
  664MOL0     H89635   9.360   7.877   7.067 -3.3404  1.1230 -0.5760
  664MOL0     H89636   9.565   8.182   6.829 -0.7816 -1.1526 -1.0338
  664MOL0     H89637   9.513   7.522   6.363 -0.1291 -1.6070  2.1797
  664MOL0     H89638   9.538   7.543   6.143 -1.1042 -2.1604  2.7361
  664MOL0     H89639   9.681   7.565   6.060 -1.5921 -2.1446 -2.6590
  664MOL0     H89640   9.640   7.402   6.131 -1.5577 -0.1694 -0.5392
  665MOL0     O89641   4.029   6.298  11.035 -0.1116 -0.4574 -0.3894
  665MOL0     C89642   4.034   6.184  11.076  0.4500  0.0184 -1.0661
  665MOL0     O89643   4.137   6.099  11.054  0.3821 -0.2803  0.3809
  665MOL0     C89644   4.261   6.134  11.014  0.7567 -0.2903 -0.4749
  665MOL0     C89645   4.283   6.184  10.890  0.4994 -0.1595  0.2801
  665MOL0     C89646   4.421   6.202  10.854 -0.2214 -0.5359  0.5948
  665MOL0     C89647   4.524   6.181  10.947  0.0337  0.0443 -0.3060
  665MOL0     O89648   4.656   6.214  10.925 -0.4134 -0.0876 -0.5657
  665MOL0     C89649   4.703   6.235  10.794 -0.0441  0.4315  0.8616
  665MOL0     C89650   4.854   6.246  10.791 -0.0228 -0.1941 -0.2974
  665MOL0     C89651   4.921   6.109  10.793 -0.1947  0.0902  0.2596
  665MOL0     C89652   5.072   6.127  10.779  0.4407 -0.5261 -0.1532
  665MOL0     C89653   5.139   5.992  10.785 -0.6969  0.0531  0.7550
  665MOL0     C89654   5.285   6.018  10.720  0.4456 -0.8236  0.5055
  665MOL0     C89655   5.365   5.889  10.739 -0.1223 -0.1474 -0.1635
  665MOL0     C89656   5.512   5.902  10.703 -0.5727 -0.5741 -0.5881
  665MOL0     N89657   5.591   5.781  10.716  0.0523 -1.0529 -0.2872
  665MOL0     C89658   5.580   5.674  10.627 -0.8951  0.1101 -0.5135
  665MOL0     C89659   5.653   5.574  10.683 -0.7346 -0.1546 -0.7934
  665MOL0     C89660   5.685   5.436  10.635 -0.0537  0.3227  0.2174
  665MOL0     C89661   5.825   5.426  10.574 -0.3199 -1.2893  0.4340
  665MOL0     C89662   5.819   5.486  10.428  0.3240 -0.0839 -0.5403
  665MOL0     C89663   5.944   5.447  10.350  0.7483 -0.1532 -0.1359
  665MOL0     O89664   6.058   5.458  10.424 -0.1893 -0.2893 -0.2160
  665MOL0     C89665   6.178   5.407  10.383  0.4074  0.1026 -0.6530
  665MOL0     C89666   6.194   5.284  10.321  0.0664  0.0449  0.0023
  665MOL0     C89667   6.321   5.239  10.277 -0.1710 -0.5016  0.4980
  665MOL0     C89668   6.435   5.324  10.295 -0.7444  0.3056 -0.1567
  665MOL0     C89669   6.570   5.286  10.237  0.0074 -0.4676  0.3624
  665MOL0     O89670   6.565   5.222  10.112 -0.3424 -0.0284 -0.5376
  665MOL0     C89671   6.678   5.218  10.043 -0.0028  0.1866 -0.1930
  665MOL0     C89672   6.736   5.333  10.003 -0.4678  0.1095  0.3802
  665MOL0     C89673   6.864   5.321   9.938  0.4645 -0.1265  0.0980
  665MOL0     C89674   6.928   5.197   9.914  0.4855  0.7206  0.0313
  665MOL0     O89675   7.055   5.180   9.864  0.6433  0.4612 -0.4482
  665MOL0     C89676   7.128   5.299   9.838 -0.2134  1.1214  0.7986
  665MOL0     C89677   7.254   5.249   9.757 -0.0943 -0.9593 -0.1625
  665MOL0     C89678   7.218   5.150   9.644 -0.4310 -0.2094 -0.0495
  665MOL0     C89679   7.134   5.216   9.535  0.8726 -1.0411 -0.1949
  665MOL0     C89680   7.082   5.143   9.415 -0.0821 -0.2205  0.1478
  665MOL0     C89681   7.194   5.098   9.317 -0.3493 -0.9952  0.9997
  665MOL0     C89682   7.155   5.105   9.170  0.0204 -0.2238  0.1371
  665MOL0     C89683   7.064   4.988   9.134  0.1320 -0.0459 -0.4077
  665MOL0    Cl89684   7.156   4.835   9.128  0.2666 -0.1809 -0.0511
  665MOL0     C89685   6.870   5.077   9.965 -0.4278 -0.5873  0.4691
  665MOL0     C89686   6.742   5.092  10.026 -0.1728  0.7079  0.0519
  665MOL0     O89687   6.673   5.335  10.288 -0.0531 -0.0979 -0.1774
  665MOL0     C89688   6.420   5.439  10.374 -0.3864 -0.0701  0.5733
  665MOL0     C89689   6.292   5.474  10.418 -0.4018 -1.3227 -0.4563
  665MOL0     N89690   5.715   5.631  10.796  0.3967 -0.1092 -0.0738
  665MOL0     N89691   5.670   5.755  10.820 -0.2488 -0.0187  1.0780
  665MOL0     C89692   4.502   6.130  11.070 -0.1726 -0.0711  0.5922
  665MOL0     C89693   4.364   6.106  11.108 -0.4237  0.2288  0.9667
  665MOL0     C89694   3.916   6.123  11.149 -0.5404  0.5086  0.1993
  665MOL0     C89695   3.790   6.180  11.131 -0.1175  0.2947 -0.6173
  665MOL0     C89696   3.681   6.138  11.205 -0.2142 -0.2333  0.4072
  665MOL0     C89697   3.688   6.030  11.288  0.3085  0.3792  0.2280
  665MOL0     O89698   3.584   5.963  11.348  0.0206 -0.8665  0.1044
  665MOL0     C89699   3.452   6.021  11.318 -0.5908 -0.9192 -0.5161
  665MOL0     C89700   3.353   5.920  11.369 -0.0960  0.7576  0.3528
  665MOL0     C89701   3.209   5.947  11.337  0.9018  0.3264  0.0040
  665MOL0     C89702   3.136   6.053  11.424 -0.0717  0.1628  0.0839
  665MOL0     C89703   3.120   6.025  11.565 -0.1181  0.1599  0.4929
  665MOL0     C89704   3.106   6.024  11.683  0.7618 -0.5281  0.2175
  665MOL0     C89705   3.803   5.966  11.304  0.0526 -0.2050 -0.0924
  665MOL0     C89706   3.924   6.017  11.242  0.2945  0.5821 -0.5695
  665MOL0     C89707   4.052   5.952  11.277 -0.1236 -0.0428 -0.6533
  665MOL0     H89708   4.195   6.209  10.831  0.9909  0.0389 -0.3896
  665MOL0     H89709   4.447   6.249  10.759  0.7123 -1.4011  0.4007
  665MOL0     H89710   4.674   6.154  10.726 -0.4428  2.3689 -1.4154
  665MOL0     H89711   4.656   6.327  10.757  2.1460  0.3312 -2.5886
  665MOL0     H89712   4.893   6.299  10.878 -0.0761 -0.3957 -0.1504
  665MOL0     H89713   4.871   6.290  10.692 -1.8270  0.7329 -0.2411
  665MOL0     H89714   4.897   6.048  10.706 -0.6822  0.1727  0.3307
  665MOL0     H89715   4.890   6.056  10.884  0.5706  0.2572  0.6228
  665MOL0     H89716   5.094   6.170  10.681  1.4744 -3.0178 -1.0738
  665MOL0     H89717   5.115   6.201  10.848 -0.8376 -0.6538  0.8332
  665MOL0     H89718   5.148   5.956  10.888  0.8619 -2.6177 -0.2059
  665MOL0     H89719   5.086   5.918  10.726  0.2825  0.7887 -1.1381
  665MOL0     H89720   5.265   6.038  10.614  0.1817  1.9505  1.0052
  665MOL0     H89721   5.334   6.100  10.772  1.1908 -2.0151  1.7348
  665MOL0     H89722   5.316   5.812  10.677  0.3710 -0.1196 -0.5927
  665MOL0     H89723   5.351   5.864  10.844  1.4117  3.0273  0.9290
  665MOL0     H89724   5.521   5.952  10.606 -0.8909  1.0174  0.1749
  665MOL0     H89725   5.564   5.967  10.774  0.9243 -1.6941 -0.6017
  665MOL0     H89726   5.521   5.656  10.537 -2.8301 -1.8435  1.0319
  665MOL0     H89727   5.685   5.382  10.731  1.5736  1.6405  0.9923
  665MOL0     H89728   5.603   5.396  10.574 -1.2840  0.4588  1.7174
  665MOL0     H89729   5.887   5.486  10.642 -2.5936  0.1639  1.3766
  665MOL0     H89730   5.864   5.325  10.558  3.6000  0.3859 -2.0995
  665MOL0     H89731   5.814   5.596  10.435 -0.5161 -0.1989  1.3294
  665MOL0     H89732   5.741   5.442  10.366  0.6527 -1.2259 -0.1584
  665MOL0     H89733   5.952   5.506  10.258 -0.2601 -3.3302 -2.4363
  665MOL0     H89734   5.924   5.343  10.322 -2.6888  0.6082 -1.0557
  665MOL0     H89735   6.102   5.230  10.300  0.7383 -1.5383  0.9015
  665MOL0     H89736   6.341   5.141  10.235 -5.4795 -1.9251  0.6683
  665MOL0     H89737   6.688   5.429  10.024 -0.8545  0.1796 -0.7732
  665MOL0     H89738   6.907   5.414   9.902 -2.1120 -0.1948 -3.8719
  665MOL0     H89739   7.084   5.381   9.782  3.0438  0.8084 -2.6285
  665MOL0     H89740   7.180   5.329   9.930  1.5393 -0.1921  0.2996
  665MOL0     H89741   7.305   5.337   9.718 -0.9955 -0.6041 -0.5733
  665MOL0     H89742   7.323   5.190   9.818 -0.7940 -0.4409  1.1741
  665MOL0     H89743   7.310   5.114   9.596 -0.7430 -0.1276 -0.7300
  665MOL0     H89744   7.155   5.070   9.683 -4.6141  0.4548 -4.3839
  665MOL0     H89745   7.173   5.313   9.503 -1.5463 -0.0237 -0.3198
  665MOL0     H89746   7.048   5.240   9.597  1.2589  0.5726 -0.2456
  665MOL0     H89747   7.001   5.202   9.370 -0.0781 -1.7615 -2.0394
  665MOL0     H89748   7.033   5.051   9.450  0.2847  0.3530  2.3636
  665MOL0     H89749   7.277   5.168   9.331  0.3824 -1.9197  1.3992
  665MOL0     H89750   7.241   5.000   9.329  0.0054 -1.1143 -0.9125
  665MOL0     H89751   7.249   5.102   9.114 -0.3998 -1.7133 -0.5537
  665MOL0     H89752   7.096   5.196   9.153  2.0295  1.0978 -0.0431
  665MOL0     H89753   6.982   4.969   9.203  0.5000  0.5377  0.2080
  665MOL0     H89754   7.021   5.024   9.040 -3.9231  4.3213  2.6759
  665MOL0     H89755   6.922   4.985   9.942  1.7125  0.7482 -0.3293
  665MOL0     H89756   6.701   5.004  10.074 -0.2821  2.7825  4.2199
  665MOL0     H89757   6.507   5.496  10.402 -1.0779  0.0932  2.5569
  665MOL0     H89758   6.291   5.572  10.463  2.1495  0.4173 -3.7624
  665MOL0     H89759   4.587   6.123  11.137  1.0371 -1.1649 -0.9923
  665MOL0     H89760   4.329   6.078  11.207 -0.8342 -0.6944  0.5759
  665MOL0     H89761   3.778   6.262  11.062 -0.1259  0.2452 -0.6749
  665MOL0     H89762   3.584   6.179  11.180 -0.9597 -1.5848  0.9698
  665MOL0     H89763   3.434   6.023  11.210  3.2203 -1.4558 -1.2959
  665MOL0     H89764   3.437   6.120  11.360 -0.1116  0.7894 -4.0129
  665MOL0     H89765   3.370   5.900  11.475  1.2134 -1.0762 -0.1445
  665MOL0     H89766   3.384   5.823  11.329  0.3441  1.6579 -1.5933
  665MOL0     H89767   3.151   5.855  11.348 -0.9592  1.5123  0.6055
  665MOL0     H89768   3.206   5.984  11.234 -1.1249  0.6494  0.1484
  665MOL0     H89769   3.206   6.137  11.421  1.6289 -1.0858  2.1485
  665MOL0     H89770   3.045   6.086  11.373  0.6251  1.5807 -0.3059
  665MOL0     H89771   3.115   6.029  11.789 -0.4160 -2.2010  0.4465
  665MOL0     H89772   3.799   5.872  11.359 -3.6427 -0.0846  0.0927
  665MOL0     H89773   4.046   5.882  11.361 -1.9227 -0.0440 -0.7437
  665MOL0     H89774   4.089   5.910  11.183  2.3900 -0.1208  0.3053
  665MOL0     H89775   4.135   6.019  11.304 -0.2525 -0.5076  1.0110
  666MOL0     O89776   8.312  10.471   7.636 -0.9549  0.3472 -1.0340
  666MOL0     C89777   8.207  10.530   7.654  0.1094  0.1753  0.6108
  666MOL0     O89778   8.192  10.668   7.666 -0.7445  0.7225  0.5083
  666MOL0     C89779   8.321  10.733   7.646  0.8986  0.6575  0.5001
  666MOL0     C89780   8.347  10.794   7.525 -0.6439  0.1308 -0.3614
  666MOL0     C89781   8.469  10.863   7.506 -0.3659  0.3607 -0.2068
  666MOL0     C89782   8.576  10.855   7.605 -0.9291 -0.0409  0.3163
  666MOL0     O89783   8.698  10.918   7.603 -0.4769 -0.3166  0.3194
  666MOL0     C89784   8.715  11.008   7.490 -0.0110  0.8657 -0.7779
  666MOL0     C89785   8.863  11.042   7.497 -1.0089  0.0635 -1.2145
  666MOL0     C89786   8.892  11.153   7.606  0.1506  0.1535 -0.1986
  666MOL0     C89787   9.045  11.162   7.624  0.7795 -0.3611  0.1830
  666MOL0     C89788   9.062  11.289   7.710 -0.0809 -0.1210  0.7592
  666MOL0     C89789   9.205  11.317   7.737 -0.3846  0.1439 -0.2948
  666MOL0     C89790   9.223  11.462   7.790  0.3549  0.3100  0.6483
  666MOL0     C89791   9.376  11.498   7.800 -0.0595 -0.6037 -0.6159
  666MOL0     N89792   9.462  11.407   7.885 -0.0240  0.5902  0.7081
  666MOL0     C89793   9.452  11.373   8.016  0.2107  1.0925  0.5308
  666MOL0     C89794   9.560  11.290   8.037  0.2838 -1.3140  0.7027
  666MOL0     C89795   9.606  11.222   8.167 -0.3912  0.4885 -0.9608
  666MOL0     C89796   9.727  11.301   8.224 -0.3529 -0.7238 -0.8706
  666MOL0     C89797   9.817  11.221   8.318 -0.3943 -0.1898 -0.7218
  666MOL0     C89798   9.933  11.294   8.378 -0.5628 -0.0741  0.6408
  666MOL0     O89799   9.995  11.212   8.482 -0.6370  0.3699  0.5770
  666MOL0     C89800  10.075  11.268   8.581  0.6152 -0.0116 -0.2223
  666MOL0     C89801  10.111  11.402   8.583  0.2807 -0.4409 -0.2808
  666MOL0     C89802  10.197  11.450   8.680  0.3001 -1.3584 -0.6023
  666MOL0     C89803  10.257  11.362   8.773  0.2884 -0.0651  0.2054
  666MOL0     C89804  10.365  11.418   8.863 -0.7713 -0.4022  1.0058
  666MOL0     O89805  10.445  11.326   8.922 -0.2129 -0.1342 -0.6914
  666MOL0     C89806  10.531  11.371   9.023  0.3007 -0.4233  0.5371
  666MOL0     C89807  10.673  11.375   8.995  0.9137 -0.5822 -0.6698
  666MOL0     C89808  10.757  11.419   9.096  0.9584  0.3439  0.0867
  666MOL0     C89809  10.716  11.454   9.233 -0.2789 -0.0916  0.9994
  666MOL0     O89810  10.792  11.491   9.344 -0.5493  0.1711 -0.4445
  666MOL0     C89811  10.896  11.576   9.310 -0.0828 -1.1003 -0.7998
  666MOL0     C89812  10.905  11.680   9.421 -0.0443 -0.4744 -0.3286
  666MOL0     C89813  11.013  11.781   9.384 -1.1423 -0.0084  0.6096
  666MOL0     C89814  11.056  11.859   9.507  0.5540  0.4822 -0.6322
  666MOL0     C89815  11.201  11.923   9.495 -0.3537 -0.0576  0.4941
  666MOL0     C89816  11.218  12.031   9.385 -0.8579 -0.0700  0.8638
  666MOL0     C89817  11.368  12.060   9.352  0.0338 -0.7251  0.1626
  666MOL0     C89818  11.439  12.143   9.470  0.4724  0.4291  0.1632
  666MOL0    Cl89819  11.339  12.290   9.501 -0.2031 -0.1020  0.3823
  666MOL0     C89820  10.579  11.439   9.252 -0.1254  0.6554  0.4820
  666MOL0     C89821  10.483  11.407   9.151  0.5494  0.9176  0.7270
  666MOL0     O89822  10.372  11.540   8.888  1.3191 -0.1924 -0.4521
  666MOL0     C89823  10.223  11.223   8.771 -0.8907 -0.3208 -0.6155
  666MOL0     C89824  10.124  11.184   8.677 -0.0482  0.2586 -0.5498
  666MOL0     N89825   9.628  11.265   7.924 -0.0836 -0.7747  0.4099
  666MOL0     N89826   9.571  11.342   7.833 -0.1540  0.1634 -0.5855
  666MOL0     C89827   8.545  10.787   7.726 -0.2098 -0.1491 -0.1477
  666MOL0     C89828   8.421  10.728   7.747  0.6139  0.8081  0.4542
  666MOL0     C89829   8.086  10.442   7.671  0.2850 -0.4436 -0.7015
  666MOL0     C89830   7.993  10.486   7.765  0.4117  0.1732  0.6735
  666MOL0     C89831   7.882  10.405   7.808 -0.1996 -0.5080  0.3914
  666MOL0     C89832   7.868  10.284   7.733  0.1997  0.5575  0.7184
  666MOL0     O89833   7.765  10.200   7.738  0.1806  0.5794  0.2420
  666MOL0     C89834   7.641  10.265   7.724  0.0177 -0.1479 -0.3911
  666MOL0     C89835   7.524  10.173   7.719  0.2559  0.3894 -0.4477
  666MOL0     C89836   7.388  10.233   7.752 -0.0950 -0.2077 -0.2822
  666MOL0     C89837   7.286  10.118   7.790 -0.5196  0.1123 -0.4687
  666MOL0     C89838   7.149  10.162   7.813  0.0023 -0.4324  0.2657
  666MOL0     C89839   7.031  10.199   7.825 -0.4935 -0.5631 -0.3822
  666MOL0     C89840   7.965  10.251   7.636 -0.0505 -0.5467 -0.7381
  666MOL0     C89841   8.076  10.321   7.600  0.6704 -0.4447  0.3031
  666MOL0     C89842   8.162  10.283   7.482  0.5627 -0.6494 -0.1067
  666MOL0     H89843   8.272  10.789   7.446  1.0313 -2.3284 -1.9618
  666MOL0     H89844   8.475  10.906   7.406 -0.1332  0.3070 -0.2179
  666MOL0     H89845   8.686  10.963   7.394 -0.7930 -2.0895  0.6992
  666MOL0     H89846   8.663  11.102   7.506 -2.2968 -0.2773 -1.0468
  666MOL0     H89847   8.890  11.076   7.396  1.7739  2.7681  0.2743
  666MOL0     H89848   8.915  10.947   7.511 -0.5800 -0.1371 -3.6366
  666MOL0     H89849   8.850  11.129   7.704  0.3796  0.2483 -0.0755
  666MOL0     H89850   8.851  11.248   7.569 -0.7476 -1.2486 -3.0829
  666MOL0     H89851   9.089  11.079   7.681  1.3979  1.5370  2.6149
  666MOL0     H89852   9.106  11.187   7.536 -1.5528 -0.1006 -1.4474
  666MOL0     H89853   9.023  11.366   7.642 -0.1677 -2.3204 -1.8443
  666MOL0     H89854   9.005  11.290   7.803 -0.0078 -0.5977  0.8114
  666MOL0     H89855   9.252  11.243   7.802  0.4029  2.2527  1.6654
  666MOL0     H89856   9.259  11.307   7.642 -1.1192  0.6160 -0.7693
  666MOL0     H89857   9.181  11.465   7.891 -1.3066 -0.5984  0.0190
  666MOL0     H89858   9.184  11.542   7.727  2.0251 -1.6130 -3.1447
  666MOL0     H89859   9.422  11.525   7.704 -3.2415  1.6413 -1.6749
  666MOL0     H89860   9.384  11.594   7.852  1.1548 -1.6460  1.2212
  666MOL0     H89861   9.377  11.403   8.089 -0.5829  2.7892 -0.9237
  666MOL0     H89862   9.517  11.228   8.231  0.1129  1.1013 -0.2938
  666MOL0     H89863   9.635  11.117   8.158 -1.6408 -0.1648  1.6533
  666MOL0     H89864   9.772  11.348   8.136 -2.9076  2.5826 -0.5868
  666MOL0     H89865   9.695  11.390   8.278  1.9235 -0.6628  0.5210
  666MOL0     H89866   9.833  11.129   8.261 -2.7695 -1.4908  0.5366
  666MOL0     H89867   9.762  11.202   8.410  0.4890  0.0032 -0.1508
  666MOL0     H89868   9.910  11.397   8.408 -0.8191  0.4465 -1.2365
  666MOL0     H89869  10.015  11.303   8.307  1.0807 -2.9850  2.0090
  666MOL0     H89870  10.075  11.460   8.498 -0.3358 -0.1054  0.1971
  666MOL0     H89871  10.215  11.557   8.675 -3.4092 -0.3889  2.1703
  666MOL0     H89872  10.720  11.350   8.901 -1.3494 -2.1469 -1.4766
  666MOL0     H89873  10.864  11.432   9.080  0.7886 -0.3861 -1.8292
  666MOL0     H89874  10.986  11.515   9.297  0.5729  0.1881 -2.7995
  666MOL0     H89875  10.884  11.636   9.219 -2.4906 -0.5160 -0.1638
  666MOL0     H89876  10.815  11.742   9.432  0.4184 -0.0539  1.4384
  666MOL0     H89877  10.925  11.637   9.520  4.0180 -1.5047 -1.4018
  666MOL0     H89878  11.104  11.732   9.350 -1.4453 -3.1048  3.6799
  666MOL0     H89879  10.981  11.850   9.306  1.3351  0.5593 -0.0003
  666MOL0     H89880  11.051  11.778   9.580 -1.0552  0.5174 -0.6701
  666MOL0     H89881  10.981  11.930   9.542  0.4068  0.7177 -1.3925
  666MOL0     H89882  11.266  11.840   9.465 -0.9008  0.4173 -2.2551
  666MOL0     H89883  11.235  11.958   9.593 -1.5422 -1.3543  1.4092
  666MOL0     H89884  11.190  11.988   9.288  3.5105  1.7105 -1.4502
  666MOL0     H89885  11.159  12.119   9.412  0.4557  0.2448  2.8754
  666MOL0     H89886  11.377  12.123   9.262  1.7108  0.2661  0.9759
  666MOL0     H89887  11.428  11.970   9.342  0.9305 -0.3297  1.6936
  666MOL0     H89888  11.442  12.086   9.564  0.2338  1.4651  0.8190
  666MOL0     H89889  11.540  12.180   9.449  1.1445 -2.4073 -2.1242
  666MOL0     H89890  10.554  11.467   9.354 -0.7422 -3.5236  1.6888
  666MOL0     H89891  10.376  11.414   9.165  0.1492  2.9370 -2.3545
  666MOL0     H89892  10.266  11.150   8.838 -1.4322 -2.0567 -2.0846
  666MOL0     H89893  10.088  11.082   8.688  2.0816 -0.5647 -0.7746
  666MOL0     H89894   8.601  10.792   7.819  0.0833 -0.4611 -0.3070
  666MOL0     H89895   8.398  10.669   7.834 -0.8404 -2.9208 -2.1823
  666MOL0     H89896   8.015  10.579   7.817 -1.9354  2.2298 -1.7048
  666MOL0     H89897   7.819  10.423   7.895  1.2158 -3.8452  2.2979
  666MOL0     H89898   7.647  10.326   7.634  0.2975  1.0117  0.3945
  666MOL0     H89899   7.627  10.334   7.808 -3.8056 -0.6839 -0.4101
  666MOL0     H89900   7.548  10.096   7.793  2.3066  2.0178  0.7020
  666MOL0     H89901   7.531  10.141   7.614  1.0972  1.3827 -0.7077
  666MOL0     H89902   7.351  10.292   7.668 -1.2858 -1.8157 -0.9426
  666MOL0     H89903   7.398  10.300   7.839  3.6490 -0.9935  0.0352
  666MOL0     H89904   7.286  10.034   7.719  0.5261 -0.5773  0.3187
  666MOL0     H89905   7.314  10.080   7.888 -0.6485 -0.5138 -0.6707
  666MOL0     H89906   6.931  10.234   7.835 -0.2288  0.5497 -1.3903
  666MOL0     H89907   7.943  10.172   7.565 -3.3289 -0.3169 -0.1004
  666MOL0     H89908   8.124  10.197   7.425 -2.7204 -0.5205  1.6209
  666MOL0     H89909   8.164  10.371   7.417  2.8358  0.4626  1.3622
  666MOL0     H89910   8.257  10.264   7.532 -0.9151 -2.5902  2.2364
  667MOL0     O89911   4.923   3.470   2.893  0.3374 -0.3501  0.4091
  667MOL0     C89912   4.871   3.361   2.870 -0.2176 -0.5040  0.5239
  667MOL0     O89913   4.938   3.264   2.800 -0.2341  0.1516 -0.4828
  667MOL0     C89914   5.059   3.309   2.749  0.8353 -0.0001 -0.0334
  667MOL0     C89915   5.181   3.299   2.825  0.7680  0.5882 -0.0768
  667MOL0     C89916   5.300   3.357   2.778  0.3565  0.2387  0.3613
  667MOL0     C89917   5.307   3.424   2.655 -0.6180  0.0579 -0.9120
  667MOL0     O89918   5.434   3.480   2.616  0.0091 -0.0517  0.1596
  667MOL0     C89919   5.487   3.440   2.490  0.1657 -0.8875 -0.4493
  667MOL0     C89920   5.603   3.522   2.447 -0.5148 -0.1621 -0.2898
  667MOL0     C89921   5.714   3.541   2.563  0.1434 -0.3719  0.9025
  667MOL0     C89922   5.843   3.605   2.502  0.2329 -0.5987 -0.7258
  667MOL0     C89923   5.976   3.590   2.590 -0.5821 -0.5975 -0.1979
  667MOL0     C89924   5.981   3.681   2.713  0.4114 -0.6438 -0.6375
  667MOL0     C89925   6.096   3.646   2.820  0.3568  0.9407  0.9484
  667MOL0     C89926   6.090   3.738   2.940  0.3323 -0.6782  0.3301
  667MOL0     N89927   6.100   3.665   3.064  0.6785  0.5141 -0.4041
  667MOL0     C89928   5.991   3.599   3.114  0.6964 -0.2014  0.4608
  667MOL0     C89929   6.018   3.587   3.251 -0.1686 -0.3369 -0.1030
  667MOL0     C89930   5.919   3.533   3.350 -0.1180 -0.0416 -0.5353
  667MOL0     C89931   5.939   3.390   3.410  1.1146  0.1596 -0.2568
  667MOL0     C89932   6.078   3.386   3.487  0.0423  0.1204  0.4714
  667MOL0     C89933   6.119   3.244   3.525  0.9034  0.8218  1.0783
  667MOL0     O89934   6.224   3.248   3.619  0.1471 -0.4660 -0.1795
  667MOL0     C89935   6.352   3.266   3.574  0.3981 -1.0059 -0.8831
  667MOL0     C89936   6.441   3.294   3.680 -0.2067  0.0422  0.2686
  667MOL0     C89937   6.580   3.307   3.669  0.2601 -0.0617 -0.9024
  667MOL0     C89938   6.637   3.309   3.535 -0.0798  0.4668 -0.4006
  667MOL0     C89939   6.785   3.304   3.530  0.7843 -0.0787 -1.0232
  667MOL0     O89940   6.838   3.244   3.421  0.2718  0.7927 -0.3668
  667MOL0     C89941   6.974   3.246   3.395 -0.5587  0.2022  0.7764
  667MOL0     C89942   7.072   3.333   3.453 -0.8083  0.7282  0.2313
  667MOL0     C89943   7.212   3.314   3.444 -0.0832 -0.1784 -0.0897
  667MOL0     C89944   7.271   3.228   3.350  0.0061 -0.2214  0.1282
  667MOL0     O89945   7.408   3.213   3.353  0.5916  0.5727 -0.5209
  667MOL0     C89946   7.472   3.101   3.294 -0.4658 -0.1587  0.4283
  667MOL0     C89947   7.626   3.124   3.295  0.5016 -0.3611 -0.2088
  667MOL0     C89948   7.708   2.990   3.265  0.2005 -0.2099  0.0206
  667MOL0     C89949   7.850   2.997   3.333  0.2024 -0.2357  0.7909
  667MOL0     C89950   7.934   2.875   3.287 -0.1589  0.4529 -0.3622
  667MOL0     C89951   8.078   2.871   3.339 -0.1081 -0.2013  0.2662
  667MOL0     C89952   8.172   2.989   3.295 -0.4627  0.4401 -0.9116
  667MOL0     C89953   8.301   2.974   3.383 -0.8068 -0.1294  0.2731
  667MOL0    Cl89954   8.390   2.825   3.339 -0.0134  0.3024  0.0540
  667MOL0     C89955   7.176   3.145   3.293 -0.3871  0.9467 -0.6973
  667MOL0     C89956   7.035   3.152   3.310  0.3399 -0.1704 -0.6750
  667MOL0     O89957   6.845   3.339   3.634  0.4658 -0.4062  0.0763
  667MOL0     C89958   6.550   3.287   3.425  0.0570  0.8962 -0.0625
  667MOL0     C89959   6.412   3.274   3.444  0.5444 -0.2558 -0.6055
  667MOL0     N89960   6.135   3.650   3.275 -0.0060 -0.5047  0.2872
  667MOL0     N89961   6.185   3.688   3.165  0.3542 -0.0863 -0.5874
  667MOL0     C89962   5.193   3.423   2.578  0.4801 -0.5453  0.4412
  667MOL0     C89963   5.063   3.379   2.623  0.6404  0.0573  0.8970
  667MOL0     C89964   4.730   3.339   2.915  0.8390  0.4852 -0.1960
  667MOL0     C89965   4.671   3.220   2.865 -0.6008  0.7858 -0.6326
  667MOL0     C89966   4.542   3.186   2.885  0.1417 -0.1182  0.4112
  667MOL0     C89967   4.465   3.259   2.971  0.0825  0.2590  0.4420
  667MOL0     O89968   4.341   3.215   3.010  1.0534 -0.4643  0.3932
  667MOL0     C89969   4.299   3.193   3.148  1.1969  0.4363  0.1996
  667MOL0     C89970   4.196   3.294   3.212 -0.5836 -0.7158 -0.2194
  667MOL0     C89971   4.058   3.282   3.141 -0.3921 -0.3440 -0.6863
  667MOL0     C89972   3.975   3.167   3.200  0.3793  0.5294  0.0810
  667MOL0     C89973   3.853   3.144   3.127 -0.3026 -0.4193 -0.2214
  667MOL0     C89974   3.756   3.129   3.065 -0.4788  0.7310  0.1004
  667MOL0     C89975   4.515   3.373   3.028 -0.6266 -0.1529 -0.7447
  667MOL0     C89976   4.646   3.419   2.996 -0.6282  0.0725 -1.1541
  667MOL0     C89977   4.703   3.538   3.066 -0.2116 -0.2649  0.1944
  667MOL0     H89978   5.171   3.256   2.924  0.2467  1.0965  0.0917
  667MOL0     H89979   5.389   3.352   2.840 -0.8576 -3.0475  2.0636
  667MOL0     H89980   5.504   3.332   2.484 -2.4485 -1.8682  4.3218
  667MOL0     H89981   5.411   3.453   2.412 -0.0047  0.3213 -0.0960
  667MOL0     H89982   5.560   3.618   2.416 -0.4114 -0.2358 -0.6710
  667MOL0     H89983   5.646   3.469   2.361 -1.1962 -0.6655 -0.3262
  667MOL0     H89984   5.734   3.440   2.598 -0.2271 -0.7012  0.1801
  667MOL0     H89985   5.662   3.601   2.638 -1.2637  1.1222 -1.1401
  667MOL0     H89986   5.867   3.566   2.402 -2.3049  0.1563 -1.7147
  667MOL0     H89987   5.831   3.712   2.486 -1.2477 -0.4232  1.2796
  667MOL0     H89988   5.989   3.488   2.627  1.1712  0.7503  3.3587
  667MOL0     H89989   6.067   3.621   2.538 -0.4478  1.1748  0.9676
  667MOL0     H89990   5.985   3.787   2.686  0.5988 -0.0072  1.6938
  667MOL0     H89991   5.883   3.671   2.762  0.6052 -0.0890 -0.1217
  667MOL0     H89992   6.190   3.643   2.764  0.2138  1.1684  0.6973
  667MOL0     H89993   6.073   3.545   2.855  0.1412  0.6905  0.1126
  667MOL0     H89994   6.172   3.808   2.925  1.3106 -2.2605 -2.4713
  667MOL0     H89995   5.993   3.790   2.943  1.1841  0.9181  2.1704
  667MOL0     H89996   5.901   3.562   3.067  1.9730 -1.0952 -1.4079
  667MOL0     H89997   5.911   3.604   3.433  0.3710 -0.9928  0.3557
  667MOL0     H89998   5.819   3.538   3.307  0.3710 -2.6068 -2.2331
  667MOL0     H89999   5.852   3.390   3.476  0.4562  2.0171 -1.0394
  667MOL0     H90000   5.925   3.309   3.338 -0.3078 -1.8133  2.0788
  667MOL0     H90001   6.067   3.432   3.586 -2.0021  0.7497  0.0043
  667MOL0     H90002   6.161   3.427   3.429  0.5419 -0.3690  0.8225
  667MOL0     H90003   6.143   3.186   3.435 -0.2443 -0.9544  1.8736
  667MOL0     H90004   6.030   3.194   3.563  0.9646  0.4918  0.7954
  667MOL0     H90005   6.394   3.294   3.778 -2.5137 -0.9324 -0.7675
  667MOL0     H90006   6.630   3.335   3.761 -0.4952  1.3060 -0.8762
  667MOL0     H90007   7.046   3.423   3.509  0.5302  0.5426  1.1989
  667MOL0     H90008   7.265   3.394   3.496 -3.4206  2.0263  0.2205
  667MOL0     H90009   7.445   3.005   3.338  1.7580 -2.1310 -2.1872
  667MOL0     H90010   7.445   3.091   3.188  1.3455 -1.0263  0.0154
  667MOL0     H90011   7.652   3.209   3.232 -2.1659  0.3331 -0.5174
  667MOL0     H90012   7.640   3.156   3.398 -1.9038 -0.2449  0.1512
  667MOL0     H90013   7.646   2.911   3.310 -3.7742  1.7352 -1.6034
  667MOL0     H90014   7.704   2.986   3.156 -0.7066  4.5180 -0.3121
  667MOL0     H90015   7.824   3.005   3.439  2.3811  1.5298  1.2675
  667MOL0     H90016   7.895   3.091   3.299 -1.1868 -0.5310 -2.1269
  667MOL0     H90017   7.948   2.868   3.179 -1.8929 -0.6940 -0.5549
  667MOL0     H90018   7.881   2.786   3.321 -0.6449  0.6264 -0.6655
  667MOL0     H90019   8.069   2.876   3.448  1.3855 -4.2665  0.7418
  667MOL0     H90020   8.118   2.772   3.314  0.2881 -0.3653  1.4658
  667MOL0     H90021   8.123   3.085   3.316 -1.8272 -0.7720  1.9356
  667MOL0     H90022   8.189   2.990   3.187 -0.9161  0.3733 -0.9843
  667MOL0     H90023   8.363   3.061   3.359 -1.9479  0.6607  0.1181
  667MOL0     H90024   8.280   2.984   3.490 -2.2161 -0.9235  0.0936
  667MOL0     H90025   7.220   3.070   3.228  1.0470  2.0365 -1.0629
  667MOL0     H90026   6.971   3.100   3.240 -0.9258  1.3439 -0.7074
  667MOL0     H90027   6.595   3.285   3.326  2.1495  0.3247  0.8543
  667MOL0     H90028   6.341   3.272   3.362 -1.8395  1.6216  1.2757
  667MOL0     H90029   5.192   3.464   2.477 -0.9852 -1.0895  0.1998
  667MOL0     H90030   4.974   3.386   2.561  0.1946 -0.8467  1.4073
  667MOL0     H90031   4.732   3.148   2.812  0.7309 -0.3338  2.2050
  667MOL0     H90032   4.515   3.091   2.840  2.3321 -0.8103  0.4433
  667MOL0     H90033   4.389   3.209   3.208 -0.5766  2.0978  2.6198
  667MOL0     H90034   4.263   3.092   3.170  0.1778  0.8412  0.4392
  667MOL0     H90035   4.236   3.395   3.199 -0.2069 -0.7686  0.4526
  667MOL0     H90036   4.184   3.291   3.321  1.6964 -1.4723  0.0778
  667MOL0     H90037   4.061   3.255   3.035 -2.0274 -1.2976 -0.5213
  667MOL0     H90038   4.000   3.374   3.153 -0.1457  0.1746 -3.0184
  667MOL0     H90039   4.028   3.072   3.207 -1.9056 -0.8249  0.3290
  667MOL0     H90040   3.959   3.188   3.307  2.2858  0.4954  0.3998
  667MOL0     H90041   3.668   3.102   3.010 -1.0006  1.7187  0.4096
  667MOL0     H90042   4.454   3.441   3.086 -1.3643  0.9104 -2.6917
  667MOL0     H90043   4.728   3.623   3.002  0.9723 -1.5054 -1.0529
  667MOL0     H90044   4.641   3.561   3.154  0.3885 -3.3122  1.5265
  667MOL0     H90045   4.799   3.511   3.110  2.2131  1.3932 -3.5934
  668MOL0     O90046   9.508   2.954   6.236 -0.0282  0.3094 -0.7824
  668MOL0     C90047   9.388   2.937   6.246  0.2137 -0.2414 -0.3357
  668MOL0     O90048   9.326   2.848   6.342  0.2261 -0.3472 -0.0240
  668MOL0     C90049   9.403   2.796   6.442  0.3567 -0.2618  0.8370
  668MOL0     C90050   9.372   2.670   6.482 -0.2130  0.7292  0.7410
  668MOL0     C90051   9.423   2.602   6.595 -0.3674 -0.0236  0.0017
  668MOL0     C90052   9.502   2.673   6.679  0.3722  0.1314  0.0034
  668MOL0     O90053   9.557   2.604   6.785 -0.0325 -0.8973 -0.4718
  668MOL0     C90054   9.666   2.678   6.853  0.2461  0.0068 -0.3571
  668MOL0     C90055   9.723   2.588   6.963 -0.1513 -0.1852  0.0723
  668MOL0     C90056   9.807   2.659   7.077  0.4814 -0.2315  0.2417
  668MOL0     C90057   9.933   2.722   7.022  0.4858 -0.7174  0.4232
  668MOL0     C90058  10.014   2.762   7.149 -0.1691  0.5808  0.8992
  668MOL0     C90059  10.139   2.841   7.116  0.3597  0.0785  0.8183
  668MOL0     C90060  10.244   2.807   7.221  0.4655 -0.0433  0.5504
  668MOL0     C90061  10.375   2.873   7.181 -0.1512 -0.0896  0.6357
  668MOL0     N90062  10.384   3.020   7.184  0.2313  0.7600 -0.4174
  668MOL0     C90063  10.447   3.090   7.085  0.1899 -0.5201 -0.2186
  668MOL0     C90064  10.459   3.217   7.137  0.1985  0.6230  0.2923
  668MOL0     C90065  10.534   3.336   7.081  0.0769  0.2451 -0.0876
  668MOL0     C90066  10.646   3.392   7.175  0.5087  0.1760 -0.6741
  668MOL0     C90067  10.594   3.504   7.262 -0.1041 -0.0728 -0.3715
  668MOL0     C90068  10.707   3.574   7.341  0.6827  0.0509 -0.4471
  668MOL0     O90069  10.646   3.681   7.410 -0.5207  0.5889  0.0770
  668MOL0     C90070  10.616   3.665   7.542  0.0066  0.2993 -0.2533
  668MOL0     C90071  10.702   3.718   7.640 -1.3595  0.3469  0.7125
  668MOL0     C90072  10.671   3.693   7.777 -0.3001 -0.7746 -0.0989
  668MOL0     C90073  10.544   3.638   7.814 -0.5045  0.2039 -1.2487
  668MOL0     C90074  10.510   3.616   7.958 -0.2622  0.6008 -0.1372
  668MOL0     O90075  10.418   3.511   7.976  0.3635 -1.1154  0.6060
  668MOL0     C90076  10.412   3.474   8.105 -0.0895 -0.3324  0.6426
  668MOL0     C90077  10.489   3.364   8.143  0.2098  0.1199 -0.1262
  668MOL0     C90078  10.499   3.339   8.288 -0.2483 -0.1402  0.5852
  668MOL0     C90079  10.426   3.404   8.378  1.2730  0.7591 -0.2033
  668MOL0     O90080  10.436   3.375   8.507 -0.0292 -0.0141 -1.2579
  668MOL0     C90081  10.312   3.328   8.570  0.1331  0.1659 -0.2898
  668MOL0     C90082  10.343   3.238   8.694  0.2275 -0.5284 -0.1183
  668MOL0     C90083  10.361   3.309   8.836  0.5455  0.2720  0.8172
  668MOL0     C90084  10.486   3.398   8.851 -0.3230 -0.2626  0.5311
  668MOL0     C90085  10.500   3.444   8.992 -0.9858 -0.4153  0.4294
  668MOL0     C90086  10.641   3.499   9.018  0.3372  0.3997  0.5726
  668MOL0     C90087  10.632   3.590   9.144 -0.3964 -0.3799  0.8521
  668MOL0     C90088  10.749   3.693   9.171  0.7307 -0.2325  0.3656
  668MOL0    Cl90089  10.878   3.596   9.239  0.1196 -0.1967  0.8983
  668MOL0     C90090  10.338   3.511   8.332 -0.8354  0.4369 -0.1860
  668MOL0     C90091  10.342   3.547   8.198  0.4602  0.7952 -0.7201
  668MOL0     O90092  10.580   3.672   8.045  0.8432  0.4162  0.2105
  668MOL0     C90093  10.456   3.586   7.716  0.1987 -0.3148  0.4046
  668MOL0     C90094  10.498   3.596   7.583 -0.4876  0.4894 -0.2647
  668MOL0     N90095  10.413   3.221   7.263 -0.7447 -0.0276  0.2195
  668MOL0     N90096  10.362   3.105   7.290 -0.3448 -0.1388  0.5136
  668MOL0     C90097   9.537   2.802   6.645  0.7446 -0.2905 -0.2941
  668MOL0     C90098   9.486   2.865   6.533 -0.0223 -0.0393 -0.4398
  668MOL0     C90099   9.303   2.998   6.140  0.7532  0.6079  0.0859
  668MOL0     C90100   9.172   2.939   6.123  0.1677  0.8201  0.1278
  668MOL0     C90101   9.083   2.994   6.032 -0.3079  0.6233 -0.1798
  668MOL0     C90102   9.112   3.105   5.955  0.2894  0.1615 -0.0560
  668MOL0     O90103   9.006   3.145   5.890  0.5874 -0.2796 -0.3945
  668MOL0     C90104   9.023   3.235   5.776 -0.1663 -0.1171 -0.0505
  668MOL0     C90105   8.898   3.234   5.695 -0.3428  1.2030 -0.3961
  668MOL0     C90106   8.824   3.367   5.704 -0.8332  0.3091 -0.1867
  668MOL0     C90107   8.679   3.342   5.652 -0.2171 -0.1507  0.6481
  668MOL0     C90108   8.672   3.297   5.510  0.1839  0.0422 -1.4412
  668MOL0     C90109   8.667   3.258   5.397 -0.3612 -0.3549  0.6568
  668MOL0     C90110   9.228   3.170   5.977 -0.5207  0.0682  0.1371
  668MOL0     C90111   9.325   3.117   6.066 -0.9779 -0.4454 -0.6438
  668MOL0     C90112   9.441   3.216   6.096  0.1526  0.2868  0.0415
  668MOL0     H90113   9.308   2.612   6.417  2.7020 -1.7498 -0.1598
  668MOL0     H90114   9.389   2.500   6.615 -1.4610  0.1981 -0.6488
  668MOL0     H90115   9.745   2.696   6.780  0.8289 -2.2531 -0.3519
  668MOL0     H90116   9.635   2.773   6.897  1.0642  1.4738 -2.7633
  668MOL0     H90117   9.786   2.514   6.914  0.6502  1.3402 -1.3018
  668MOL0     H90118   9.641   2.540   7.018 -1.8514 -0.0052 -2.1379
  668MOL0     H90119   9.834   2.594   7.161  0.4904  1.6468  1.7706
  668MOL0     H90120   9.744   2.739   7.115 -0.9505 -0.3668 -1.6774
  668MOL0     H90121   9.990   2.664   6.949 -0.3552 -0.1692 -0.7034
  668MOL0     H90122   9.907   2.816   6.971 -0.5136 -1.1238  0.1640
  668MOL0     H90123   9.959   2.819   7.224 -0.5259  3.2477 -1.2473
  668MOL0     H90124  10.043   2.672   7.203  0.8677 -0.2314 -0.9102
  668MOL0     H90125  10.167   2.805   7.016 -2.0873 -3.2884  1.1658
  668MOL0     H90126  10.120   2.948   7.099  1.2227 -0.2916 -3.6633
  668MOL0     H90127  10.264   2.700   7.228  3.1435  0.1751 -1.8686
  668MOL0     H90128  10.208   2.850   7.315  4.1938  3.4701  0.6394
  668MOL0     H90129  10.447   2.824   7.247  1.0240  2.4441  1.3559
  668MOL0     H90130  10.394   2.842   7.078 -0.0588  4.0907 -0.8074
  668MOL0     H90131  10.486   3.055   6.990  1.1504 -3.3778  1.1060
  668MOL0     H90132  10.580   3.299   6.988  1.0548 -2.6873  1.4189
  668MOL0     H90133  10.458   3.413   7.067 -0.9123 -0.2493  2.2418
  668MOL0     H90134  10.683   3.314   7.242 -1.0600 -1.1226 -1.2396
  668MOL0     H90135  10.736   3.427   7.123  1.6013 -0.2289  0.8853
  668MOL0     H90136  10.520   3.470   7.334 -0.8414 -2.5744 -2.1445
  668MOL0     H90137  10.542   3.581   7.204 -3.9886 -1.6104  0.7998
  668MOL0     H90138  10.797   3.602   7.285  1.8148 -0.2869  1.1574
  668MOL0     H90139  10.738   3.488   7.401 -1.6336 -1.0181 -0.6783
  668MOL0     H90140  10.801   3.747   7.607 -0.4408 -3.3379 -0.2882
  668MOL0     H90141  10.755   3.718   7.841 -0.6352  0.8432 -0.2450
  668MOL0     H90142  10.541   3.296   8.076 -0.8607  0.6956 -1.5972
  668MOL0     H90143  10.573   3.266   8.321  0.6754  0.2977 -0.4351
  668MOL0     H90144  10.247   3.408   8.607 -0.9711  0.0506 -1.8863
  668MOL0     H90145  10.260   3.259   8.503 -0.4911  3.1241 -3.1329
  668MOL0     H90146  10.251   3.181   8.712 -1.5182  0.9422 -3.4498
  668MOL0     H90147  10.423   3.165   8.683  0.3465 -0.3603 -0.3557
  668MOL0     H90148  10.274   3.371   8.861  0.8506  0.0722  2.4603
  668MOL0     H90149  10.366   3.226   8.906 -1.4806 -1.2699 -0.7255
  668MOL0     H90150  10.494   3.480   8.779  4.2076  0.0269  1.0532
  668MOL0     H90151  10.562   3.323   8.824 -2.9745 -2.6664 -0.8813
  668MOL0     H90152  10.475   3.363   9.061 -1.0817 -1.1227 -0.4136
  668MOL0     H90153  10.422   3.518   9.011 -0.9972 -0.4673  0.5864
  668MOL0     H90154  10.712   3.415   9.023  1.9282  1.6735  0.0561
  668MOL0     H90155  10.687   3.545   8.931 -3.5077 -0.8645 -2.4454
  668MOL0     H90156  10.618   3.541   9.241  0.7772 -1.2732  0.5908
  668MOL0     H90157  10.545   3.652   9.120 -0.5356 -1.1744 -0.8298
  668MOL0     H90158  10.784   3.742   9.080  1.3859 -0.0256  0.7204
  668MOL0     H90159  10.713   3.771   9.238 -0.5244  0.5200 -1.1352
  668MOL0     H90160  10.278   3.562   8.406 -1.2035 -1.0052  0.5397
  668MOL0     H90161  10.286   3.630   8.155  0.1285  0.0100 -1.8613
  668MOL0     H90162  10.362   3.534   7.728 -0.4465  0.5151 -0.9493
  668MOL0     H90163  10.429   3.553   7.511 -0.4372 -0.4407  0.2320
  668MOL0     H90164   9.609   2.860   6.701  1.1596 -1.5535  0.5073
  668MOL0     H90165   9.507   2.971   6.529 -1.1000  0.3111  1.5583
  668MOL0     H90166   9.140   2.857   6.186  2.2601 -0.3130 -0.1738
  668MOL0     H90167   8.988   2.942   6.030 -0.1971  0.4135  0.0207
  668MOL0     H90168   9.110   3.214   5.713  0.6431 -0.7745  1.2312
  668MOL0     H90169   9.040   3.341   5.798 -3.2375  0.5740 -0.4901
  668MOL0     H90170   8.828   3.155   5.721  0.9486  0.1883  0.1541
  668MOL0     H90171   8.923   3.210   5.591 -0.7937  0.2032 -0.2835
  668MOL0     H90172   8.887   3.445   5.659 -0.1012  0.0556  0.3746
  668MOL0     H90173   8.814   3.402   5.807 -0.4250  1.6571 -0.5801
  668MOL0     H90174   8.628   3.268   5.715 -3.1796 -0.0171 -1.3919
  668MOL0     H90175   8.617   3.432   5.651 -1.5497 -1.0432 -1.2073
  668MOL0     H90176   8.654   3.206   5.303 -0.7167 -2.9311  2.0292
  668MOL0     H90177   9.239   3.265   5.926 -2.1712 -0.0437 -0.5157
  668MOL0     H90178   9.486   3.206   6.195 -2.5072 -1.6625  1.1797
  668MOL0     H90179   9.511   3.203   6.014  0.2988 -4.2104  0.6542
  668MOL0     H90180   9.408   3.320   6.101 -2.7722 -0.6006  1.2143
  669MOL0     O90181   0.505   8.145   3.352  0.2400 -0.2556  0.2236
  669MOL0     C90182   0.452   8.033   3.334 -0.0066 -0.2120  0.7905
  669MOL0     O90183   0.520   7.915   3.346  0.2454 -0.2105  0.3189
  669MOL0     C90184   0.657   7.921   3.348 -0.4484  0.2397  0.8277
  669MOL0     C90185   0.727   7.864   3.238  0.9602  0.0705  0.6156
  669MOL0     C90186   0.867   7.858   3.234 -0.7374 -0.7121 -0.2161
  669MOL0     C90187   0.939   7.912   3.351  0.4507 -0.3949 -0.1950
  669MOL0     O90188   1.073   7.906   3.371  0.5913 -0.7023 -0.2685
  669MOL0     C90189   1.162   7.938   3.261 -0.8314  0.3973  0.6354
  669MOL0     C90190   1.308   7.935   3.314  0.9127  0.0809 -0.3473
  669MOL0     C90191   1.358   7.805   3.371  0.0780  1.0045  0.0080
  669MOL0     C90192   1.516   7.810   3.412  0.5941 -0.1478  0.3492
  669MOL0     C90193   1.549   7.678   3.480  0.3332  0.1106  0.6733
  669MOL0     C90194   1.698   7.683   3.521 -0.0324 -0.3799  0.3408
  669MOL0     C90195   1.771   7.566   3.459  0.0726  0.0168  0.1534
  669MOL0     C90196   1.928   7.570   3.469 -0.2469  0.1151  0.8607
  669MOL0     N90197   1.982   7.549   3.610  0.7589  0.1546 -0.3653
  669MOL0     C90198   2.049   7.440   3.660 -0.9212  0.5185 -0.8029
  669MOL0     C90199   2.071   7.482   3.794  0.3596  0.2539  0.5177
  669MOL0     C90200   2.142   7.408   3.907 -0.3207 -0.2776 -0.1561
  669MOL0     C90201   2.285   7.361   3.877 -0.2281  0.5480 -0.4897
  669MOL0     C90202   2.376   7.484   3.885 -0.0200 -0.3103  0.4028
  669MOL0     C90203   2.515   7.457   3.827 -0.4748 -0.8729  0.3237
  669MOL0     O90204   2.582   7.340   3.877  0.3218  0.1554 -0.7707
  669MOL0     C90205   2.676   7.305   3.790  0.4718  0.4689 -1.1452
  669MOL0     C90206   2.799   7.360   3.813  0.9668  0.4659  0.4197
  669MOL0     C90207   2.908   7.320   3.739  0.3781  0.6705  0.0977
  669MOL0     C90208   2.897   7.219   3.637 -0.5284  0.0170 -0.3011
  669MOL0     C90209   3.025   7.180   3.568 -0.0451  0.0490  0.0202
  669MOL0     O90210   3.003   7.113   3.452 -0.4465 -0.0973 -0.6357
  669MOL0     C90211   3.101   7.046   3.386  0.0881  0.4622 -0.9818
  669MOL0     C90212   3.066   7.003   3.260 -0.2787  0.8948 -0.2463
  669MOL0     C90213   3.159   6.937   3.184 -0.0448  0.4751 -0.4148
  669MOL0     C90214   3.290   6.908   3.230  0.2426 -0.5284  0.7470
  669MOL0     O90215   3.367   6.845   3.128  0.0941 -0.1784 -0.4281
  669MOL0     C90216   3.502   6.894   3.131 -0.9031  0.7804  0.4965
  669MOL0     C90217   3.568   6.885   2.995  0.7861 -0.4272  0.8912
  669MOL0     C90218   3.473   6.892   2.879 -0.7407  0.2033  0.4354
  669MOL0     C90219   3.540   6.946   2.745 -0.5724 -0.2205 -0.1096
  669MOL0     C90220   3.652   6.862   2.678 -0.6723  0.9310 -0.4688
  669MOL0     C90221   3.742   6.925   2.570 -0.5214 -0.2218 -0.5300
  669MOL0     C90222   3.848   6.825   2.521  0.2947  0.3283  0.8774
  669MOL0     C90223   3.993   6.891   2.533  0.1397  0.0726 -0.1374
  669MOL0    Cl90224   4.011   7.048   2.456 -0.5182 -0.7229 -0.1766
  669MOL0     C90225   3.324   6.953   3.356 -0.0109 -0.5600 -0.1652
  669MOL0     C90226   3.230   7.016   3.441  0.2515  1.0127 -0.0626
  669MOL0     O90227   3.132   7.221   3.609 -0.3960  0.5313 -0.3594
  669MOL0     C90228   2.766   7.166   3.605 -0.2889 -0.3341  0.6178
  669MOL0     C90229   2.660   7.211   3.688  0.1982 -0.2547  0.0895
  669MOL0     N90230   2.005   7.601   3.815  0.1081  0.1378 -0.6990
  669MOL0     N90231   1.954   7.644   3.705  0.0084  0.3720 -0.0913
  669MOL0     C90232   0.867   7.974   3.458  0.6118 -0.2386  0.3945
  669MOL0     C90233   0.731   7.975   3.456 -0.7781  0.8738 -0.0198
  669MOL0     C90234   0.304   8.032   3.316  0.7239 -0.4251  0.3355
  669MOL0     C90235   0.224   8.127   3.375  0.3521  0.6401 -0.5840
  669MOL0     C90236   0.082   8.114   3.375  0.6045 -0.4164  0.6833
  669MOL0     C90237   0.016   8.007   3.303 -0.0544  0.4365 -0.6900
  669MOL0     O90238  -0.121   8.007   3.316 -0.0192  0.8019 -0.8335
  669MOL0     C90239  -0.194   7.929   3.222 -0.0547  0.6256  0.2631
  669MOL0     C90240  -0.344   7.936   3.229  0.3296  0.3556  0.1811
  669MOL0     C90241  -0.412   7.867   3.345 -0.1191  0.6095 -0.0916
  669MOL0     C90242  -0.567   7.858   3.344 -1.0224  1.1018  0.6595
  669MOL0     C90243  -0.622   7.996   3.355  0.3661 -0.5658  0.6874
  669MOL0     C90244  -0.668   8.109   3.372  1.0026  0.3515  0.8091
  669MOL0     C90245   0.101   7.917   3.233 -0.0171  0.7387  0.0258
  669MOL0     C90246   0.236   7.926   3.246 -0.3277  0.1699 -0.2153
  669MOL0     C90247   0.310   7.812   3.178 -0.1884  0.1664  0.5089
  669MOL0     H90248   0.669   7.833   3.151  0.2196  0.6188  0.9038
  669MOL0     H90249   0.920   7.821   3.147 -0.3054  0.5874 -0.5254
  669MOL0     H90250   1.148   7.867   3.179 -2.7536  0.5674  0.7647
  669MOL0     H90251   1.143   8.040   3.226 -0.8365 -0.4884 -2.1130
  669MOL0     H90252   1.326   8.008   3.393 -1.2190 -0.7261  0.9457
  669MOL0     H90253   1.380   7.965   3.237  0.3704  4.6758  0.6511
  669MOL0     H90254   1.342   7.726   3.296 -1.2296  2.2095 -1.0472
  669MOL0     H90255   1.304   7.781   3.463  0.6873 -5.8029 -0.8281
  669MOL0     H90256   1.571   7.824   3.318 -2.1322 -0.4667 -1.4072
  669MOL0     H90257   1.535   7.902   3.467 -0.3313  0.7055 -0.7159
  669MOL0     H90258   1.487   7.672   3.569 -2.6027 -0.1468 -1.2666
  669MOL0     H90259   1.523   7.587   3.425 -0.3102  0.9835 -0.5200
  669MOL0     H90260   1.736   7.783   3.499  0.4498 -0.4498  0.8394
  669MOL0     H90261   1.714   7.683   3.629  1.1185  1.0271  0.1871
  669MOL0     H90262   1.737   7.553   3.355  0.1317 -2.3496  0.3790
  669MOL0     H90263   1.726   7.484   3.515  1.7541  1.0610  3.2317
  669MOL0     H90264   1.960   7.492   3.400 -0.7587 -1.9765  2.8754
  669MOL0     H90265   1.960   7.669   3.434 -1.6102 -0.1992 -1.4290
  669MOL0     H90266   2.088   7.347   3.620 -0.9310  0.2766 -0.2610
  669MOL0     H90267   2.150   7.477   3.991 -0.8074  0.5086 -0.7414
  669MOL0     H90268   2.092   7.315   3.934  1.2965 -1.2817 -0.5065
  669MOL0     H90269   2.317   7.301   3.962 -2.4619  3.0858  2.3903
  669MOL0     H90270   2.284   7.313   3.779 -1.7729 -1.0410  0.2563
  669MOL0     H90271   2.384   7.503   3.993 -2.4764  1.4099  0.3624
  669MOL0     H90272   2.334   7.572   3.835  1.7414 -0.1911 -0.9831
  669MOL0     H90273   2.577   7.545   3.843  3.1145 -2.2693 -3.8962
  669MOL0     H90274   2.509   7.458   3.718  3.1150  1.8742 -0.0463
  669MOL0     H90275   2.823   7.413   3.905  0.7817 -2.6593  2.4163
  669MOL0     H90276   3.004   7.360   3.770  1.1926  1.7669 -3.3815
  669MOL0     H90277   2.964   7.013   3.224 -0.3489  0.6125 -0.1290
  669MOL0     H90278   3.134   6.910   3.082  1.0909  2.5989 -1.3120
  669MOL0     H90279   3.524   6.997   3.160  0.1047  0.6705  0.1919
  669MOL0     H90280   3.561   6.831   3.198 -0.5542  0.4860 -0.0730
  669MOL0     H90281   3.649   6.956   2.980  0.6786 -0.4278  0.3042
  669MOL0     H90282   3.629   6.794   2.995  1.6724  0.1636  0.2687
  669MOL0     H90283   3.425   6.795   2.864 -0.3638  0.1656 -0.6207
  669MOL0     H90284   3.389   6.961   2.898 -0.5551  0.8903 -1.0833
  669MOL0     H90285   3.575   7.049   2.754  0.5314 -0.6355  0.6658
  669MOL0     H90286   3.463   6.962   2.669  1.8133  2.4325 -2.2085
  669MOL0     H90287   3.610   6.774   2.629  0.1543  0.8323 -1.0294
  669MOL0     H90288   3.714   6.830   2.763 -2.7643  1.5001  1.3818
  669MOL0     H90289   3.675   6.955   2.489 -1.6273 -0.3246  0.3306
  669MOL0     H90290   3.798   7.013   2.605  1.9783 -2.3329  1.1332
  669MOL0     H90291   3.824   6.794   2.419  2.7819 -0.5313  0.4785
  669MOL0     H90292   3.839   6.740   2.589 -0.3149  2.0733  3.0780
  669MOL0     H90293   4.017   6.899   2.639 -3.2889  0.6094  0.7365
  669MOL0     H90294   4.071   6.831   2.486  0.1060 -0.2388  0.1974
  669MOL0     H90295   3.426   6.944   3.392 -0.0619  0.0543  0.1547
  669MOL0     H90296   3.261   7.051   3.539  2.2077 -1.1091  0.1941
  669MOL0     H90297   2.761   7.083   3.535 -0.8688 -1.1619  1.5942
  669MOL0     H90298   2.561   7.166   3.688 -0.7610  1.7416 -0.0286
  669MOL0     H90299   0.919   8.025   3.538  0.6134  0.2922  0.0632
  669MOL0     H90300   0.672   8.018   3.536  0.7731 -1.1891  2.4128
  669MOL0     H90301   0.266   8.203   3.440  1.6053 -0.4532 -0.0573
  669MOL0     H90302   0.013   8.184   3.421  1.6116  1.8327 -1.0196
  669MOL0     H90303  -0.161   7.825   3.227 -1.7843  0.1148  2.2591
  669MOL0     H90304  -0.162   7.965   3.123 -0.1972 -2.1379 -0.8618
  669MOL0     H90305  -0.387   7.886   3.141  0.2505  0.4219  0.1821
  669MOL0     H90306  -0.368   8.042   3.230 -0.1522  0.2921 -1.5408
  669MOL0     H90307  -0.385   7.923   3.435 -0.9537  0.8607  0.0128
  669MOL0     H90308  -0.362   7.770   3.354  2.4971  1.7956 -0.9098
  669MOL0     H90309  -0.595   7.810   3.249  0.2011  3.4461 -0.9694
  669MOL0     H90310  -0.607   7.804   3.430 -1.9152  2.0709  0.8699
  669MOL0     H90311  -0.714   8.205   3.359 -2.3908 -1.3966 -1.7400
  669MOL0     H90312   0.052   7.836   3.180 -1.1980  0.5067  1.4010
  669MOL0     H90313   0.381   7.846   3.102 -0.1385 -1.8791 -0.4155
  669MOL0     H90314   0.361   7.759   3.259  0.5536  2.3721  1.5636
  669MOL0     H90315   0.244   7.743   3.125  0.1936 -0.7394  1.1740
  670MOL0     O90316   1.677   8.907   4.847  0.2155  0.4021 -0.2483
  670MOL0     C90317   1.615   8.938   4.952  0.1578 -0.0195  0.4713
  670MOL0     O90318   1.650   9.048   5.034  0.2880 -0.2142 -0.0338
  670MOL0     C90319   1.729   9.147   4.983 -1.1238 -0.1438 -0.9720
  670MOL0     C90320   1.864   9.144   5.012 -0.0896  0.0182  0.1219
  670MOL0     C90321   1.949   9.242   4.962 -0.1567  0.1201 -0.6397
  670MOL0     C90322   1.902   9.353   4.886 -0.6266 -0.0463 -0.2713
  670MOL0     O90323   1.987   9.454   4.847  0.2453 -0.1113 -0.1475
  670MOL0     C90324   2.120   9.465   4.893  0.8502  1.2730  0.2692
  670MOL0     C90325   2.212   9.351   4.830 -0.4736 -0.1753  0.7990
  670MOL0     C90326   2.359   9.408   4.810  0.6157  0.5163 -0.5150
  670MOL0     C90327   2.364   9.495   4.680  0.6511  0.8872 -0.1047
  670MOL0     C90328   2.502   9.559   4.681 -0.2546  0.5928  0.0528
  670MOL0     C90329   2.620   9.456   4.671 -0.1643 -0.2351 -0.8289
  670MOL0     C90330   2.744   9.505   4.611 -0.5502 -0.1167  0.3606
  670MOL0     C90331   2.799   9.626   4.692  0.0494 -0.8961 -0.0634
  670MOL0     N90332   2.943   9.625   4.687  0.3784 -0.4613  1.0705
  670MOL0     C90333   3.018   9.582   4.786 -0.2328  0.1066 -0.3145
  670MOL0     C90334   3.145   9.603   4.745 -0.2802 -0.1064 -0.6218
  670MOL0     C90335   3.272   9.565   4.815  0.7642  0.4948  0.3632
  670MOL0     C90336   3.311   9.678   4.912  0.2802  0.1334 -0.3016
  670MOL0     C90337   3.393   9.784   4.841 -0.1190  0.5893 -0.2287
  670MOL0     C90338   3.456   9.888   4.942 -0.1001 -0.0891  0.3415
  670MOL0     O90339   3.554   9.840   5.030  0.2432  0.6326  0.2702
  670MOL0     C90340   3.682   9.825   4.983 -0.2129  0.1808  0.7526
  670MOL0     C90341   3.723   9.851   4.853 -0.8383  0.9530  0.0620
  670MOL0     C90342   3.858   9.833   4.813  1.0005 -0.6462 -1.5004
  670MOL0     C90343   3.952   9.794   4.911  0.0541 -0.1938  0.0073
  670MOL0     C90344   4.095   9.781   4.861 -0.4939 -0.7739  0.1754
  670MOL0     O90345   4.175   9.690   4.926 -0.4022 -0.3750  0.2209
  670MOL0     C90346   4.305   9.670   4.880  0.4634 -0.5208 -0.2007
  670MOL0     C90347   4.414   9.673   4.964 -0.2263  0.2782  0.9277
  670MOL0     C90348   4.547   9.646   4.919 -0.5185  0.6825  0.0632
  670MOL0     C90349   4.574   9.616   4.784  0.4998 -0.3275 -0.6915
  670MOL0     O90350   4.700   9.587   4.738  0.4048  0.1686 -0.1124
  670MOL0     C90351   4.708   9.494   4.633  0.0647 -0.8164  0.6827
  670MOL0     C90352   4.852   9.442   4.631 -0.4227 -0.6611  0.7734
  670MOL0     C90353   4.951   9.550   4.576  0.0660  0.9203  0.8333
  670MOL0     C90354   5.081   9.485   4.532  0.9748  0.3567  0.4275
  670MOL0     C90355   5.175   9.582   4.449  0.6909  0.2898  0.3636
  670MOL0     C90356   5.313   9.530   4.407  0.3466  0.2948 -0.2969
  670MOL0     C90357   5.316   9.414   4.305 -0.9717 -0.4593  0.8507
  670MOL0     C90358   5.452   9.407   4.223  0.4025  0.0851  0.1958
  670MOL0    Cl90359   5.450   9.291   4.090  0.4673  0.2959 -0.1900
  670MOL0     C90360   4.460   9.612   4.699  0.7736  0.6646  0.0556
  670MOL0     C90361   4.333   9.638   4.742  0.3744  0.8512  0.0487
  670MOL0     O90362   4.130   9.841   4.761  0.0810 -0.2758 -0.6541
  670MOL0     C90363   3.911   9.766   5.043  0.1564 -0.9495  0.9633
  670MOL0     C90364   3.778   9.785   5.076 -0.0266  0.9326 -0.2324
  670MOL0     N90365   3.143   9.661   4.624 -0.6136  0.0325  0.7809
  670MOL0     N90366   3.021   9.678   4.589 -0.3091 -0.6210  0.0811
  670MOL0     C90367   1.757   9.362   4.859  0.0166 -0.1534  0.1505
  670MOL0     C90368   1.680   9.254   4.909  0.7663  0.3148  0.7227
  670MOL0     C90369   1.509   8.848   4.985 -0.1002 -0.3276 -0.2624
  670MOL0     C90370   1.504   8.719   4.914  0.0417  0.2716 -0.4037
  670MOL0     C90371   1.391   8.646   4.933  0.2847  0.6560  0.2374
  670MOL0     C90372   1.291   8.672   5.026 -0.0299  0.0280 -0.5392
  670MOL0     O90373   1.191   8.576   5.040 -0.5413 -0.4154 -0.4250
  670MOL0     C90374   1.114   8.580   5.161 -0.1999  0.4709  0.4444
  670MOL0     C90375   1.044   8.448   5.198 -0.1393 -0.4227 -0.0269
  670MOL0     C90376   0.959   8.404   5.080  0.0194 -0.2774 -0.8620
  670MOL0     C90377   0.927   8.247   5.068 -1.8124  0.7853  0.0644
  670MOL0     C90378   0.810   8.220   4.990  0.8117  0.0635  0.8934
  670MOL0     C90379   0.696   8.192   4.952  0.3131  0.5014  0.3536
  670MOL0     C90380   1.299   8.793   5.095 -0.7100 -0.1769  0.9971
  670MOL0     C90381   1.409   8.879   5.077  0.1746 -0.8716  0.4178
  670MOL0     C90382   1.403   9.017   5.151  0.0765  0.0488 -0.3253
  670MOL0     H90383   1.911   9.063   5.067  2.5065  0.0692 -1.8121
  670MOL0     H90384   2.048   9.223   5.002 -0.3901 -2.9512 -1.2629
  670MOL0     H90385   2.150   9.569   4.872  1.1998  0.9567 -0.8900
  670MOL0     H90386   2.122   9.461   5.002 -2.6555  1.5809  0.4348
  670MOL0     H90387   2.168   9.305   4.741  0.1045  2.8386 -1.2003
  670MOL0     H90388   2.222   9.280   4.913  0.5274  1.6033  2.2931
  670MOL0     H90389   2.425   9.321   4.803  1.1544  1.0469 -2.4485
  670MOL0     H90390   2.395   9.468   4.895 -0.6245  1.4841 -0.6295
  670MOL0     H90391   2.364   9.428   4.593 -0.5275  0.4558  0.2103
  670MOL0     H90392   2.281   9.566   4.673  0.7502  1.4343  2.9009
  670MOL0     H90393   2.520   9.622   4.593 -0.0177 -1.1660 -1.2034
  670MOL0     H90394   2.518   9.629   4.763 -2.1816  1.3271 -0.1502
  670MOL0     H90395   2.637   9.425   4.775 -0.1452  1.5556 -0.2562
  670MOL0     H90396   2.582   9.369   4.618 -2.6398  0.4730 -0.3328
  670MOL0     H90397   2.735   9.537   4.507  0.6129 -0.8861  0.0023
  670MOL0     H90398   2.821   9.428   4.606  0.2122  0.7250 -2.0997
  670MOL0     H90399   2.760   9.725   4.667  0.6533 -0.7986 -0.6540
  670MOL0     H90400   2.769   9.610   4.796  1.5395 -1.5922  0.2860
  670MOL0     H90401   2.982   9.547   4.882  0.2987  2.0204  0.6363
  670MOL0     H90402   3.246   9.477   4.873 -2.1634  0.6832 -0.4747
  670MOL0     H90403   3.355   9.543   4.747  0.7708  0.7867  0.2723
  670MOL0     H90404   3.216   9.718   4.949 -0.5419 -1.2902 -0.8101
  670MOL0     H90405   3.367   9.625   4.989 -0.2063  0.4860  0.3014
  670MOL0     H90406   3.323   9.831   4.772  3.6207  1.3433 -3.8755
  670MOL0     H90407   3.476   9.740   4.785 -0.5707  0.1457 -0.5535
  670MOL0     H90408   3.374   9.936   4.996  0.0982  1.2740 -0.5233
  670MOL0     H90409   3.496   9.976   4.892 -0.9499  1.1649  1.7676
  670MOL0     H90410   3.648   9.875   4.779 -1.3237  0.6086  0.4378
  670MOL0     H90411   3.893   9.838   4.710  0.2684 -2.1347 -1.8496
  670MOL0     H90412   4.403   9.698   5.069  2.4393 -0.1447  1.3718
  670MOL0     H90413   4.628   9.651   4.991  0.9317  0.3224 -1.4753
  670MOL0     H90414   4.639   9.411   4.651 -1.7599  0.6747  0.8982
  670MOL0     H90415   4.673   9.538   4.539  1.3317  1.5154  1.2284
  670MOL0     H90416   4.890   9.421   4.732  1.4032 -0.4742  0.1619
  670MOL0     H90417   4.857   9.350   4.573  1.0589 -0.6531  0.8516
  670MOL0     H90418   4.901   9.597   4.490  0.6811 -0.3760 -0.2713
  670MOL0     H90419   4.968   9.625   4.654  1.0629  2.8079 -1.0770
  670MOL0     H90420   5.053   9.404   4.465 -0.7063  1.4771 -0.3000
  670MOL0     H90421   5.120   9.434   4.621 -0.4380  0.6206  1.2421
  670MOL0     H90422   5.192   9.670   4.511 -2.5343  1.8088 -0.6963
  670MOL0     H90423   5.120   9.621   4.363  2.1354  1.3743 -0.1143
  670MOL0     H90424   5.354   9.624   4.369  1.0222  0.5471  0.9873
  670MOL0     H90425   5.375   9.490   4.488 -0.5495  1.3118  0.9305
  670MOL0     H90426   5.241   9.444   4.231  1.9481 -0.0659 -2.2008
  670MOL0     H90427   5.293   9.316   4.348 -3.3631  0.6289  2.2188
  670MOL0     H90428   5.486   9.505   4.191  0.4658 -0.0885 -0.2762
  670MOL0     H90429   5.539   9.369   4.278  4.0020  1.1640 -4.1543
  670MOL0     H90430   4.465   9.591   4.593 -2.8175 -0.3314 -0.0487
  670MOL0     H90431   4.244   9.638   4.681 -0.9638  4.6276  1.7047
  670MOL0     H90432   3.976   9.733   5.124  1.8307 -0.6673 -0.2019
  670MOL0     H90433   3.741   9.750   5.171  0.7216 -1.3936 -0.7135
  670MOL0     H90434   1.709   9.437   4.797 -0.2535 -0.8910 -0.5663
  670MOL0     H90435   1.573   9.265   4.895 -0.2599 -5.2361  1.8923
  670MOL0     H90436   1.576   8.700   4.835  2.6188 -1.3663  2.1437
  670MOL0     H90437   1.377   8.557   4.873 -0.8879  2.1360 -1.7822
  670MOL0     H90438   1.041   8.661   5.154 -3.4081 -1.8488  3.4080
  670MOL0     H90439   1.182   8.598   5.245 -0.6268 -3.8755  1.9907
  670MOL0     H90440   0.979   8.463   5.284  1.7727  0.6044  1.3065
  670MOL0     H90441   1.115   8.375   5.239 -0.1820  0.6486  2.0861
  670MOL0     H90442   1.007   8.439   4.989 -3.4206  3.8127 -1.4371
  670MOL0     H90443   0.867   8.463   5.087  0.9608  1.0035  2.8298
  670MOL0     H90444   1.005   8.187   5.019 -1.3947  1.6564 -0.3561
  670MOL0     H90445   0.928   8.211   5.171  0.4223 -2.0251 -0.7863
  670MOL0     H90446   0.597   8.174   4.915  0.2634  0.2436  0.6075
  670MOL0     H90447   1.219   8.829   5.159 -0.0380  4.4435 -0.3571
  670MOL0     H90448   1.487   9.025   5.220 -2.1645  0.2982  2.5757
  670MOL0     H90449   1.415   9.096   5.076 -1.9194  0.7626  0.0286
  670MOL0     H90450   1.309   9.036   5.205  0.5855  1.9905 -0.0607
  671MOL0     O90451  11.272   4.122   2.933  0.3310  0.1443 -0.9802
  671MOL0     C90452  11.170   4.171   2.991  0.0912 -0.4112 -0.2659
  671MOL0     O90453  11.181   4.263   3.092 -0.2732 -0.1666 -0.3588
  671MOL0     C90454  11.297   4.335   3.096  0.5518  0.0047 -0.0723
  671MOL0     C90455  11.401   4.306   3.181  0.7114  1.4288  0.8382
  671MOL0     C90456  11.520   4.375   3.178  0.5926  0.2728  0.1322
  671MOL0     C90457  11.536   4.485   3.094  0.4491  0.6955  0.3421
  671MOL0     O90458  11.648   4.556   3.101  0.3460  0.4556 -0.5017
  671MOL0     C90459  11.656   4.675   3.018  0.3875  0.9099 -0.5462
  671MOL0     C90460  11.796   4.727   3.027 -0.5027  0.2035  0.1110
  671MOL0     C90461  11.900   4.616   3.008  0.0846 -0.1660  0.5685
  671MOL0     C90462  12.027   4.657   2.944 -0.1233  0.3648 -0.2927
  671MOL0     C90463  12.148   4.687   3.036  0.3781  0.4897  0.0005
  671MOL0     C90464  12.269   4.745   2.964 -1.1233  0.7319 -0.7387
  671MOL0     C90465  12.339   4.623   2.889  0.0920 -1.0075  0.4085
  671MOL0     C90466  12.475   4.667   2.816  0.1252 -0.1928 -0.3729
  671MOL0     N90467  12.581   4.632   2.904  0.4160 -0.4049 -0.9855
  671MOL0     C90468  12.631   4.505   2.931  0.4217  0.2419  0.1096
  671MOL0     C90469  12.733   4.518   3.009 -0.7003  0.5034 -0.3450
  671MOL0     C90470  12.821   4.401   3.054  0.2092  0.9394 -1.2183
  671MOL0     C90471  12.965   4.445   3.069 -0.0488  0.5721 -0.1058
  671MOL0     C90472  13.007   4.507   3.200 -0.1591 -0.1066  0.1825
  671MOL0     C90473  13.158   4.484   3.223  0.0013 -0.9066  0.1289
  671MOL0     O90474  13.237   4.534   3.109 -0.1009 -0.0257  0.2085
  671MOL0     C90475  13.377   4.518   3.125  1.2450  0.0399  0.2000
  671MOL0     C90476  13.455   4.557   3.014  0.3740  0.2238  0.2310
  671MOL0     C90477  13.591   4.537   3.014 -0.9625  0.0410 -0.2121
  671MOL0     C90478  13.662   4.485   3.124  0.3354 -0.3453  0.4509
  671MOL0     C90479  13.806   4.475   3.133 -0.6664 -0.1178 -1.3035
  671MOL0     O90480  13.858   4.464   3.256 -0.2514  0.1828  0.0968
  671MOL0     C90481  13.994   4.431   3.270  0.7749 -0.2549  0.2317
  671MOL0     C90482  14.054   4.305   3.218 -0.3433 -0.8337 -0.5848
  671MOL0     C90483  14.189   4.265   3.241  0.5661 -0.6330  0.0867
  671MOL0     C90484  14.266   4.357   3.314  0.6615 -0.1981  1.2611
  671MOL0     O90485  14.399   4.341   3.328 -0.1674 -1.0822  0.1911
  671MOL0     C90486  14.435   4.218   3.372  0.1773  0.0924  0.0537
  671MOL0     C90487  14.580   4.222   3.425  0.6553 -0.4857 -0.0656
  671MOL0     C90488  14.677   4.291   3.333 -0.3057 -0.6304 -1.0189
  671MOL0     C90489  14.825   4.273   3.374 -0.2248 -0.3035  0.0689
  671MOL0     C90490  14.920   4.359   3.288  0.5645 -0.4790 -1.2066
  671MOL0     C90491  15.051   4.299   3.298 -0.9645 -0.2352 -0.4758
  671MOL0     C90492  15.074   4.177   3.210 -0.4445 -0.0524 -0.1412
  671MOL0     C90493  15.213   4.127   3.215 -0.5579  0.1261 -0.3802
  671MOL0    Cl90494  15.232   4.005   3.093 -0.1517  0.1829 -0.3149
  671MOL0     C90495  14.210   4.470   3.374  0.1590 -0.8245  0.2342
  671MOL0     C90496  14.080   4.509   3.357  0.0826  0.4423  0.4144
  671MOL0     O90497  13.863   4.471   3.026  0.6757  0.2158  0.2514
  671MOL0     C90498  13.581   4.434   3.230 -0.1699 -0.2667 -0.3015
  671MOL0     C90499  13.439   4.455   3.238  0.1301 -0.4700  0.4255
  671MOL0     N90500  12.747   4.655   3.035 -0.1779  0.0335 -0.2955
  671MOL0     N90501  12.653   4.719   2.971 -0.9600 -0.0810 -0.1959
  671MOL0     C90502  11.432   4.517   3.010  0.1895  0.5322 -0.2153
  671MOL0     C90503  11.320   4.440   3.000  0.5428  0.0948  0.0875
  671MOL0     C90504  11.034   4.121   2.967  1.0114 -0.5503  0.9291
  671MOL0     C90505  10.925   4.184   3.033  0.3348 -0.2400 -0.2810
  671MOL0     C90506  10.788   4.155   3.003 -0.3963  0.4463  0.0729
  671MOL0     C90507  10.759   4.054   2.909 -0.5670 -0.1430 -0.0351
  671MOL0     O90508  10.635   4.026   2.858 -0.4493  0.4219  0.2588
  671MOL0     C90509  10.515   4.017   2.952 -0.8098 -0.3486 -0.6558
  671MOL0     C90510  10.405   4.118   2.923 -0.0351  0.0139  0.3181
  671MOL0     C90511  10.297   4.113   3.035  0.6709  0.2644  1.2982
  671MOL0     C90512  10.179   4.213   3.003  0.1307 -0.4707 -0.6853
  671MOL0     C90513  10.215   4.350   3.017 -0.3087 -1.0784  0.9503
  671MOL0     C90514  10.249   4.467   3.025  1.1277  0.0945  0.0532
  671MOL0     C90515  10.866   3.993   2.849 -0.7806  0.7771 -0.4211
  671MOL0     C90516  10.996   4.011   2.880 -0.9135 -0.9062  0.4661
  671MOL0     C90517  11.108   3.932   2.811 -0.6374 -0.7207 -0.7936
  671MOL0     H90518  11.380   4.222   3.247  1.1697 -0.6765 -1.5219
  671MOL0     H90519  11.601   4.339   3.241  0.2497  2.6934  2.0816
  671MOL0     H90520  11.625   4.649   2.916 -3.0850  3.0685 -0.1962
  671MOL0     H90521  11.591   4.756   3.053 -0.8648 -0.2227 -0.1712
  671MOL0     H90522  11.817   4.781   3.120  2.2984 -1.9693  0.8452
  671MOL0     H90523  11.818   4.800   2.949 -0.4449 -1.1200 -1.1517
  671MOL0     H90524  11.848   4.540   2.948  1.0143 -0.1053 -0.3326
  671MOL0     H90525  11.921   4.564   3.102 -2.9310 -1.6825  0.5293
  671MOL0     H90526  12.064   4.580   2.874  1.5107  0.0544  0.8553
  671MOL0     H90527  12.004   4.743   2.881 -2.0676 -0.1208 -0.3131
  671MOL0     H90528  12.120   4.764   3.109 -1.1653 -1.1708  1.2380
  671MOL0     H90529  12.172   4.596   3.093 -2.3796  2.0092  4.0803
  671MOL0     H90530  12.244   4.833   2.904 -1.2523  2.5617  1.8423
  671MOL0     H90531  12.345   4.798   3.022 -0.6540  2.6553 -2.9293
  671MOL0     H90532  12.274   4.578   2.813  0.9396 -3.9257  1.2941
  671MOL0     H90533  12.373   4.544   2.956  3.5931  1.1178  1.4164
  671MOL0     H90534  12.488   4.595   2.734  0.7488 -2.0743  1.2801
  671MOL0     H90535  12.460   4.770   2.782 -1.9224 -0.2187  0.3178
  671MOL0     H90536  12.591   4.410   2.898 -1.0084  1.1398 -0.8347
  671MOL0     H90537  12.778   4.364   3.148  0.5246  1.2943 -0.9316
  671MOL0     H90538  12.805   4.321   2.981 -4.6336 -0.7891  1.2559
  671MOL0     H90539  13.024   4.354   3.057 -0.1219  0.6481 -1.2310
  671MOL0     H90540  12.993   4.504   2.981  0.7062 -1.2919 -1.1702
  671MOL0     H90541  12.953   4.462   3.283 -2.6606  1.6938 -0.3370
  671MOL0     H90542  12.991   4.615   3.208 -1.8837 -0.4427  2.4404
  671MOL0     H90543  13.185   4.379   3.240 -1.0176 -1.0551  0.9695
  671MOL0     H90544  13.185   4.540   3.312  0.6291  0.9610 -1.1799
  671MOL0     H90545  13.403   4.603   2.930 -1.5497  2.4649  2.5079
  671MOL0     H90546  13.648   4.564   2.926 -0.0733  0.5383  0.5006
  671MOL0     H90547  13.995   4.245   3.149  0.6687  0.2679 -2.4722
  671MOL0     H90548  14.235   4.172   3.210 -1.6002 -0.9434 -2.5358
  671MOL0     H90549  14.369   4.178   3.450  2.1400 -0.5557  1.4597
  671MOL0     H90550  14.440   4.161   3.279  0.7724  3.9381 -2.4839
  671MOL0     H90551  14.586   4.279   3.518  1.4106  1.6365 -1.3573
  671MOL0     H90552  14.608   4.118   3.445 -1.4979 -1.0617  0.2492
  671MOL0     H90553  14.672   4.257   3.229  0.4067 -1.7732 -0.6930
  671MOL0     H90554  14.670   4.399   3.345 -1.2062 -0.9364  2.2889
  671MOL0     H90555  14.843   4.166   3.356 -1.8064 -0.3468 -1.5480
  671MOL0     H90556  14.826   4.296   3.481 -3.6615  0.1159  0.1204
  671MOL0     H90557  14.916   4.461   3.326  0.2043 -0.3011 -1.7014
  671MOL0     H90558  14.891   4.362   3.182 -1.6954  1.1503 -0.6182
  671MOL0     H90559  15.123   4.381   3.292 -3.7349  2.6621  2.1590
  671MOL0     H90560  15.051   4.275   3.404  0.5685 -1.2072 -0.6537
  671MOL0     H90561  15.039   4.202   3.109  3.2915 -0.3567 -1.6615
  671MOL0     H90562  15.010   4.099   3.252 -1.7624  1.1376  0.1545
  671MOL0     H90563  15.289   4.204   3.203  1.0772 -1.6332 -2.1949
  671MOL0     H90564  15.227   4.071   3.308  0.0002  0.6536 -0.1449
  671MOL0     H90565  14.281   4.539   3.419  1.2571 -1.1958 -0.8745
  671MOL0     H90566  14.044   4.598   3.407 -0.2756 -0.4045  1.7062
  671MOL0     H90567  13.626   4.388   3.317 -2.1722  3.5344  3.0475
  671MOL0     H90568  13.389   4.415   3.325  2.2844 -3.0076  0.6353
  671MOL0     H90569  11.430   4.596   2.936 -0.1409  0.0766 -0.7027
  671MOL0     H90570  11.253   4.459   2.917 -1.3717  1.7108  1.8840
  671MOL0     H90571  10.932   4.269   3.100 -3.1043 -0.0485  0.0184
  671MOL0     H90572  10.703   4.213   3.036 -0.3327  1.5236 -1.5428
  671MOL0     H90573  10.543   4.021   3.058 -1.5143  2.3946 -0.4849
  671MOL0     H90574  10.493   3.911   2.943  0.7250 -1.0896  2.8638
  671MOL0     H90575  10.364   4.091   2.826  2.6448  1.7242 -1.4004
  671MOL0     H90576  10.429   4.223   2.904 -2.0929  0.3599 -0.6587
  671MOL0     H90577  10.331   4.134   3.136 -1.7764 -0.5808  2.3789
  671MOL0     H90578  10.257   4.011   3.038  0.4964  0.2960  0.3882
  671MOL0     H90579  10.147   4.198   2.899 -2.2498  4.5565 -0.9928
  671MOL0     H90580  10.101   4.188   3.075  1.2687  0.2937  0.8716
  671MOL0     H90581  10.270   4.571   3.040  1.1565  0.1225 -0.1831
  671MOL0     H90582  10.848   3.922   2.769  3.2421 -3.1968  1.7873
  671MOL0     H90583  11.174   3.891   2.888  2.2269  2.4717 -1.2871
  671MOL0     H90584  11.070   3.847   2.754  0.1157 -0.3375 -1.9018
  671MOL0     H90585  11.172   3.999   2.753 -0.8530  0.0671 -0.1439
  672MOL0     O90586   9.712   4.524   8.734 -0.0116 -0.0937  0.3229
  672MOL0     C90587   9.759   4.594   8.639 -0.1678  0.4206 -0.1706
  672MOL0     O90588   9.890   4.634   8.627 -0.2050  0.0596 -0.2251
  672MOL0     C90589   9.969   4.616   8.731  0.1330  0.9573 -0.2927
  672MOL0     C90590  10.071   4.710   8.743 -0.5609  0.0925  0.1781
  672MOL0     C90591  10.186   4.687   8.827 -0.1456  0.3652 -0.3630
  672MOL0     C90592  10.195   4.560   8.899 -0.2598 -0.1784  0.9178
  672MOL0     O90593  10.296   4.520   8.984  0.7819  0.5876 -0.2017
  672MOL0     C90594  10.402   4.600   9.020  0.1396  0.5139 -0.0165
  672MOL0     C90595  10.466   4.567   9.156  0.2179  0.2901 -0.0475
  672MOL0     C90596  10.621   4.565   9.148 -0.3869 -0.5650 -0.5618
  672MOL0     C90597  10.670   4.710   9.125 -0.1719  0.2515 -0.2545
  672MOL0     C90598  10.815   4.716   9.115 -0.7638  0.4792  0.7226
  672MOL0     C90599  10.860   4.864   9.137 -0.1712  0.0761  0.3218
  672MOL0     C90600  11.015   4.889   9.138  0.0847  0.4749 -0.1411
  672MOL0     C90601  11.040   5.042   9.122 -0.5178  0.4873  0.0963
  672MOL0     N90602  11.182   5.068   9.147 -0.2260  0.4136 -0.7661
  672MOL0     C90603  11.276   5.131   9.063  0.5529 -0.3279  0.7050
  672MOL0     C90604  11.385   5.132   9.136  0.6748 -0.1209  0.4999
  672MOL0     C90605  11.512   5.195   9.086  0.5798 -0.6849 -0.2619
  672MOL0     C90606  11.511   5.340   9.083  0.3483  0.1352  0.0542
  672MOL0     C90607  11.468   5.420   9.214  0.8518  0.2589  0.0702
  672MOL0     C90608  11.319   5.418   9.250  0.0935  0.1702 -0.0055
  672MOL0     O90609  11.234   5.424   9.135  0.3285  0.1134 -0.1313
  672MOL0     C90610  11.104   5.397   9.157 -0.4078 -0.6015  0.4031
  672MOL0     C90611  11.021   5.399   9.041 -0.4411  0.2567 -0.4318
  672MOL0     C90612  10.884   5.371   9.049  0.1271  0.3999  0.1513
  672MOL0     C90613  10.826   5.346   9.181  0.4343 -0.0021  0.5067
  672MOL0     C90614  10.674   5.343   9.196 -0.9294  0.0562 -0.3832
  672MOL0     O90615  10.604   5.333   9.080 -0.1067 -0.1461  0.0136
  672MOL0     C90616  10.503   5.243   9.094  0.0808  1.1549 -0.3567
  672MOL0     C90617  10.388   5.275   9.033 -0.3058  0.4321  0.2684
  672MOL0     C90618  10.267   5.197   9.045 -0.2408 -0.0358  0.1695
  672MOL0     C90619  10.284   5.068   9.105  0.1445  0.0671 -0.5394
  672MOL0     O90620  10.166   5.000   9.106 -0.8630 -0.0679  0.6261
  672MOL0     C90621  10.159   4.868   9.170  0.0822  0.5141 -0.1564
  672MOL0     C90622  10.030   4.867   9.257 -0.3500  0.7838 -0.3314
  672MOL0     C90623   9.898   4.872   9.178 -0.0657 -0.3319  0.0123
  672MOL0     C90624   9.865   4.750   9.095 -0.9776  0.6563 -0.4087
  672MOL0     C90625   9.727   4.755   9.019 -0.1640 -0.9527  0.3096
  672MOL0     C90626   9.605   4.789   9.104  1.0084 -0.4171 -0.2572
  672MOL0     C90627   9.473   4.780   9.019 -0.4756  0.0042  0.6836
  672MOL0     C90628   9.355   4.840   9.090  0.1859  0.5651 -0.6164
  672MOL0    Cl90629   9.311   4.724   9.221  0.2541  0.1008 -0.0434
  672MOL0     C90630  10.407   5.022   9.161  1.1696  0.1026  0.5310
  672MOL0     C90631  10.514   5.113   9.151  0.4503 -0.1068 -0.2894
  672MOL0     O90632  10.630   5.342   9.318  1.0949  0.1477 -0.3625
  672MOL0     C90633  10.909   5.335   9.295  0.8634  0.0189 -0.3391
  672MOL0     C90634  11.040   5.373   9.280 -0.9603  0.1604  0.7793
  672MOL0     N90635  11.370   5.072   9.261  0.2280 -0.0540  0.5531
  672MOL0     N90636  11.247   5.025   9.261  0.9311 -0.4871  0.1554
  672MOL0     C90637  10.084   4.477   8.896  0.4596 -0.6902 -0.2353
  672MOL0     C90638   9.979   4.499   8.814  0.1210 -0.7447 -0.1234
  672MOL0     C90639   9.663   4.611   8.528 -0.4024  0.0492 -0.3435
  672MOL0     C90640   9.557   4.520   8.510  0.1870  0.0822  0.1035
  672MOL0     C90641   9.466   4.534   8.403 -0.4505 -0.0687  0.6958
  672MOL0     C90642   9.478   4.636   8.311  0.5325  0.7849 -0.0960
  672MOL0     O90643   9.398   4.652   8.198 -0.1561  0.1264  0.0602
  672MOL0     C90644   9.256   4.628   8.195  0.6967  0.4475 -0.5481
  672MOL0     C90645   9.210   4.630   8.050 -0.0051 -0.5208  0.3814
  672MOL0     C90646   9.260   4.515   7.963 -0.3563  0.3017  0.1229
  672MOL0     C90647   9.166   4.444   7.870 -0.3326 -0.7271 -0.7473
  672MOL0     C90648   9.096   4.525   7.768  0.0722 -0.2399 -0.0295
  672MOL0     C90649   9.028   4.573   7.679 -0.5579 -0.7632 -0.1536
  672MOL0     C90650   9.581   4.726   8.339  0.0804 -0.0119  0.3403
  672MOL0     C90651   9.679   4.719   8.440 -0.2127  1.1650  0.4417
  672MOL0     C90652   9.778   4.830   8.451  0.2414 -0.3269  0.0093
  672MOL0     H90653  10.067   4.781   8.660  1.0344 -3.5035 -3.3243
  672MOL0     H90654  10.267   4.759   8.829  0.9861 -0.8874  1.0759
  672MOL0     H90655  10.478   4.583   8.944  0.3357  0.8669  0.0999
  672MOL0     H90656  10.363   4.702   9.023 -1.7480 -0.1280 -0.7155
  672MOL0     H90657  10.423   4.469   9.181 -0.0824  0.3575 -0.2942
  672MOL0     H90658  10.429   4.641   9.228 -0.1080 -1.1845  1.3585
  672MOL0     H90659  10.654   4.488   9.078 -0.2917 -0.7564 -0.3056
  672MOL0     H90660  10.664   4.531   9.242  2.0539 -0.9450 -1.7247
  672MOL0     H90661  10.635   4.761   9.035 -3.3231  0.2179  0.8410
  672MOL0     H90662  10.624   4.761   9.211 -3.2246 -1.4437 -0.7490
  672MOL0     H90663  10.876   4.656   9.183 -0.1433 -3.1463 -2.6963
  672MOL0     H90664  10.855   4.676   9.021 -1.1116  0.2684  0.6653
  672MOL0     H90665  10.822   4.924   9.054 -2.1985  1.1485  1.9255
  672MOL0     H90666  10.817   4.901   9.230  0.1545  1.1465  0.0555
  672MOL0     H90667  11.063   4.829   9.060  2.4577 -0.0695  1.6351
  672MOL0     H90668  11.054   4.850   9.233  1.6676 -0.0969 -0.9888
  672MOL0     H90669  11.010   5.080   9.024 -0.0435 -2.2244 -1.2170
  672MOL0     H90670  10.980   5.094   9.197  0.8578  0.5304  1.1939
  672MOL0     H90671  11.249   5.172   8.967 -1.3413 -1.6012  0.6323
  672MOL0     H90672  11.588   5.172   9.161 -1.8547 -0.5451  2.4582
  672MOL0     H90673  11.542   5.151   8.990 -1.4068 -1.4317 -0.6039
  672MOL0     H90674  11.613   5.366   9.055  0.0360  0.0879 -1.1647
  672MOL0     H90675  11.448   5.369   8.998 -0.3222  0.3364  0.6036
  672MOL0     H90676  11.496   5.522   9.187 -1.6558  1.1895  0.6863
  672MOL0     H90677  11.531   5.394   9.300  1.2227 -2.0145 -0.7912
  672MOL0     H90678  11.297   5.507   9.310 -1.8703  0.0735 -0.5039
  672MOL0     H90679  11.304   5.331   9.315  0.8307  0.1995  0.2126
  672MOL0     H90680  11.063   5.430   8.946  0.7567  0.1360  0.0290
  672MOL0     H90681  10.825   5.366   8.958  1.0421 -3.1548 -0.4030
  672MOL0     H90682  10.385   5.365   8.973 -2.0178  0.6816  0.6847
  672MOL0     H90683  10.174   5.224   8.996 -1.2160 -0.4174  1.7344
  672MOL0     H90684  10.150   4.794   9.090  2.6121 -0.6453  0.5528
  672MOL0     H90685  10.245   4.829   9.224  0.5763  1.2319 -0.4117
  672MOL0     H90686  10.035   4.771   9.308  3.1377 -0.1815 -2.1749
  672MOL0     H90687  10.034   4.950   9.329  2.9296 -0.6706  1.3523
  672MOL0     H90688   9.817   4.890   9.250 -1.6165 -0.8787 -1.5422
  672MOL0     H90689   9.895   4.958   9.110 -0.4952 -0.5321 -0.2273
  672MOL0     H90690   9.876   4.665   9.162  0.7580  0.6921 -0.6014
  672MOL0     H90691   9.937   4.738   9.014 -2.9752  0.0327 -2.2063
  672MOL0     H90692   9.708   4.653   8.984 -3.1296 -0.0224 -1.1303
  672MOL0     H90693   9.735   4.805   8.923  0.5480 -1.1909  0.2407
  672MOL0     H90694   9.593   4.717   9.185 -2.5900  0.6229  0.2821
  672MOL0     H90695   9.608   4.892   9.141 -1.2397 -0.0164 -1.0823
  672MOL0     H90696   9.461   4.673   8.997  0.3483  0.5078 -2.8292
  672MOL0     H90697   9.479   4.816   8.916  0.8469 -2.4695 -0.1819
  672MOL0     H90698   9.379   4.936   9.137  3.9360  0.4068 -1.8476
  672MOL0     H90699   9.284   4.854   9.008  2.2170  3.6300 -2.0441
  672MOL0     H90700  10.408   4.918   9.191 -3.3699 -0.5986 -0.9109
  672MOL0     H90701  10.605   5.088   9.206  1.7340  1.9179 -1.3969
  672MOL0     H90702  10.879   5.309   9.396 -0.5585  1.0894 -0.4546
  672MOL0     H90703  11.104   5.355   9.366  0.4118 -3.3864 -0.7755
  672MOL0     H90704  10.091   4.394   8.965 -2.6556 -1.0927 -0.2607
  672MOL0     H90705   9.911   4.416   8.797  0.6866 -1.6876  1.8653
  672MOL0     H90706   9.542   4.442   8.584  0.3349 -1.1576 -1.1279
  672MOL0     H90707   9.388   4.460   8.388 -0.0388 -0.8849  2.3480
  672MOL0     H90708   9.203   4.701   8.258 -2.3101  0.3886 -2.8189
  672MOL0     H90709   9.244   4.527   8.234 -4.4602  1.0130 -0.0750
  672MOL0     H90710   9.215   4.726   7.998 -1.0929  0.2025  1.5396
  672MOL0     H90711   9.101   4.624   8.058 -0.2169  1.7423 -0.2290
  672MOL0     H90712   9.288   4.435   8.032 -0.4167  0.9853  0.9557
  672MOL0     H90713   9.348   4.542   7.904  1.8625 -2.5793  1.8165
  672MOL0     H90714   9.214   4.362   7.815 -0.2298 -2.1265  1.3056
  672MOL0     H90715   9.092   4.400   7.938 -0.7797  1.8196  0.5421
  672MOL0     H90716   8.982   4.607   7.589 -1.2068 -1.9077 -0.2709
  672MOL0     H90717   9.589   4.810   8.271  2.0146 -0.7769 -0.4426
  672MOL0     H90718   9.741   4.916   8.394 -2.2856 -1.2611  0.1550
  672MOL0     H90719   9.792   4.849   8.558 -0.3488 -0.4758  0.1127
  672MOL0     H90720   9.878   4.793   8.425  0.8969  0.9736  0.5931
  673MOL0     O90721   4.273   8.604   7.028  0.6496 -0.1085 -0.1172
  673MOL0     C90722   4.335   8.591   6.918 -0.3078  0.2887  0.4606
  673MOL0     O90723   4.469   8.564   6.914 -0.2263  0.4099 -0.2726
  673MOL0     C90724   4.540   8.569   7.034  0.1126 -0.0293  0.6288
  673MOL0     C90725   4.587   8.452   7.096  0.0901 -0.0725  0.0820
  673MOL0     C90726   4.656   8.467   7.212 -0.5715 -0.0633  0.8905
  673MOL0     C90727   4.690   8.593   7.263  0.6419 -0.6867 -1.0789
  673MOL0     O90728   4.754   8.593   7.386 -0.0631  0.0682  0.3101
  673MOL0     C90729   4.743   8.713   7.462  0.0145  0.2386  0.1794
  673MOL0     C90730   4.821   8.708   7.603 -0.1080 -0.4785  0.2846
  673MOL0     C90731   4.966   8.676   7.575 -0.5578  0.5125 -0.0154
  673MOL0     C90732   5.054   8.671   7.710 -0.2097 -0.3120  0.2433
  673MOL0     C90733   5.201   8.642   7.670  1.0741 -0.1082  0.5918
  673MOL0     C90734   5.299   8.651   7.780 -0.4243  0.3603  0.4597
  673MOL0     C90735   5.443   8.617   7.744 -0.2489 -0.6384 -0.2545
  673MOL0     C90736   5.540   8.706   7.830  0.4010 -0.0753  0.0086
  673MOL0     N90737   5.679   8.675   7.820 -0.5030  0.0522  0.0713
  673MOL0     C90738   5.782   8.711   7.905 -0.6021  0.3297 -0.4624
  673MOL0     C90739   5.900   8.709   7.841 -0.3060  0.5416  0.7971
  673MOL0     C90740   6.039   8.732   7.903 -0.1394 -0.1838 -0.1277
  673MOL0     C90741   6.097   8.866   7.873 -0.1745  1.5299  0.1858
  673MOL0     C90742   6.168   8.877   7.734 -0.0938  0.8571  0.5486
  673MOL0     C90743   6.237   9.015   7.716  0.1061  0.3618 -0.5791
  673MOL0     O90744   6.310   9.050   7.832  0.1628 -0.6149  0.5425
  673MOL0     C90745   6.449   9.042   7.831  0.2711  0.3969 -0.5948
  673MOL0     C90746   6.526   9.100   7.929 -0.1396  0.2472 -1.1692
  673MOL0     C90747   6.666   9.081   7.935 -0.1974 -0.0720 -0.5151
  673MOL0     C90748   6.732   9.012   7.831 -0.7440  0.5204 -0.2107
  673MOL0     C90749   6.881   9.005   7.823  0.7487  0.0010  0.2163
  673MOL0     O90750   6.923   8.909   7.732 -0.7204  0.1937 -0.1359
  673MOL0     C90751   7.059   8.868   7.722 -0.2093 -0.7901 -0.0033
  673MOL0     C90752   7.094   8.733   7.699 -0.5327  0.0814 -0.2162
  673MOL0     C90753   7.227   8.696   7.693  0.4225 -0.2923  1.3973
  673MOL0     C90754   7.328   8.796   7.692  0.2429  0.0910  0.0226
  673MOL0     O90755   7.462   8.751   7.698  0.2142  0.2976 -0.8868
  673MOL0     C90756   7.558   8.809   7.606 -1.0682 -0.1512 -0.5155
  673MOL0     C90757   7.650   8.906   7.689 -1.0684  0.5899  0.6925
  673MOL0     C90758   7.764   8.980   7.613  0.2063  0.9351 -0.1015
  673MOL0     C90759   7.899   8.983   7.688  0.2164 -0.4236 -0.2617
  673MOL0     C90760   8.011   9.068   7.622  0.8141  0.5757  1.0037
  673MOL0     C90761   8.147   9.034   7.676  0.8907 -0.1107  0.1742
  673MOL0     C90762   8.261   9.069   7.583  0.6063 -0.6197  0.3094
  673MOL0     C90763   8.272   9.226   7.565 -0.3550  0.0352 -0.2462
  673MOL0    Cl90764   8.392   9.284   7.441  0.4067 -0.3027 -0.5016
  673MOL0     C90765   7.293   8.931   7.686 -0.0426 -0.6027  0.0804
  673MOL0     C90766   7.160   8.968   7.714 -0.2081  0.1730 -0.3067
  673MOL0     O90767   6.946   9.055   7.909 -0.6618  0.5566  0.0085
  673MOL0     C90768   6.649   8.951   7.739 -0.2891  0.0639  0.6885
  673MOL0     C90769   6.512   8.958   7.741 -0.7791 -0.0346  0.0634
  673MOL0     N90770   5.875   8.687   7.708 -0.0899 -0.0726  0.7026
  673MOL0     N90771   5.742   8.656   7.705 -0.6784 -0.4935 -1.3823
  673MOL0     C90772   4.663   8.713   7.189  0.0847  0.0600  0.1281
  673MOL0     C90773   4.589   8.694   7.072  0.2968 -0.4658 -0.3213
  673MOL0     C90774   4.257   8.610   6.798 -0.3243 -0.8782 -1.0226
  673MOL0     C90775   4.309   8.564   6.682  0.8566 -0.4028  0.8736
  673MOL0     C90776   4.245   8.576   6.559  0.3093 -0.2685  0.3112
  673MOL0     C90777   4.112   8.630   6.549 -0.9359  0.6710 -1.0489
  673MOL0     O90778   4.042   8.641   6.435 -0.7037 -0.2018  0.5756
  673MOL0     C90779   4.006   8.772   6.391  0.4860  0.8797 -0.2605
  673MOL0     C90780   3.920   8.771   6.267  0.9610 -0.0387  0.1672
  673MOL0     C90781   3.774   8.787   6.308  0.1158 -0.5547 -0.9109
  673MOL0     C90782   3.683   8.811   6.189  0.6629 -1.0795  1.5012
  673MOL0     C90783   3.639   8.672   6.142 -0.6912 -0.5352 -0.4695
  673MOL0     C90784   3.596   8.563   6.128  0.3821 -0.7037 -0.7820
  673MOL0     C90785   4.067   8.684   6.674  0.2776  0.9705  0.1223
  673MOL0     C90786   4.135   8.679   6.790  0.2420  0.6389  0.0410
  673MOL0     C90787   4.079   8.755   6.906 -0.0158 -0.1258 -0.1102
  673MOL0     H90788   4.573   8.358   7.044 -5.0642  0.2157  0.4510
  673MOL0     H90789   4.685   8.379   7.270 -0.3354 -0.3437  0.3631
  673MOL0     H90790   4.784   8.791   7.397  1.0812 -0.9422 -0.6190
  673MOL0     H90791   4.638   8.727   7.487 -0.4558 -1.0193 -0.9344
  673MOL0     H90792   4.764   8.636   7.661 -1.2202 -1.7122 -2.1708
  673MOL0     H90793   4.818   8.810   7.644  0.5095 -1.3939  2.7228
  673MOL0     H90794   5.012   8.753   7.511  1.2486 -0.5227 -0.0400
  673MOL0     H90795   4.977   8.582   7.521 -1.4112  0.0095  0.6620
  673MOL0     H90796   5.062   8.773   7.749 -0.1377  0.2555 -1.1786
  673MOL0     H90797   5.011   8.605   7.785 -0.7877 -1.1893 -0.8437
  673MOL0     H90798   5.211   8.545   7.622 -0.3014 -0.8768  1.7891
  673MOL0     H90799   5.236   8.715   7.596  4.3090 -0.6604  1.4057
  673MOL0     H90800   5.282   8.747   7.830  2.8877  0.7745  1.0376
  673MOL0     H90801   5.270   8.564   7.839  0.4059 -2.5555 -3.0740
  673MOL0     H90802   5.465   8.634   7.638 -0.9629  1.3187 -0.1241
  673MOL0     H90803   5.456   8.510   7.762 -1.2415 -0.3665  2.4663
  673MOL0     H90804   5.519   8.809   7.799  3.0027  0.6629  0.4120
  673MOL0     H90805   5.506   8.702   7.933 -3.6157  2.2950 -1.0255
  673MOL0     H90806   5.771   8.729   8.011 -0.5828  0.8076 -0.5392
  673MOL0     H90807   6.026   8.724   8.012  1.4220 -0.7422  0.0512
  673MOL0     H90808   6.096   8.642   7.877 -3.7023 -2.0107 -2.4397
  673MOL0     H90809   6.016   8.940   7.876  0.7179  2.4956  1.2400
  673MOL0     H90810   6.165   8.888   7.957  1.6168 -3.1293  0.2096
  673MOL0     H90811   6.096   8.868   7.653  1.4445 -0.6002 -0.7219
  673MOL0     H90812   6.243   8.799   7.720 -1.1618  0.2439 -2.5412
  673MOL0     H90813   6.153   9.085   7.720 -1.4488 -1.4917  1.0481
  673MOL0     H90814   6.290   9.021   7.620  0.7604 -1.7542 -0.3984
  673MOL0     H90815   6.478   9.151   8.013 -0.4884 -2.1930  0.2118
  673MOL0     H90816   6.726   9.123   8.014 -4.0685  2.1802  1.4848
  673MOL0     H90817   7.012   8.664   7.684  1.6807 -2.2648 -2.8633
  673MOL0     H90818   7.266   8.594   7.692  1.6998  0.1829 -0.0860
  673MOL0     H90819   7.613   8.732   7.551  0.8643 -0.3368  1.5401
  673MOL0     H90820   7.505   8.869   7.531  1.4573  4.5107  1.0704
  673MOL0     H90821   7.595   8.970   7.758 -2.2274 -0.4630  0.7574
  673MOL0     H90822   7.704   8.833   7.750  1.3891  2.5101  1.0303
  673MOL0     H90823   7.791   8.938   7.516 -3.5417 -0.4292 -0.7397
  673MOL0     H90824   7.736   9.084   7.595 -1.1599  0.4616 -0.8564
  673MOL0     H90825   7.941   8.882   7.699 -1.9610 -1.4261 -0.5756
  673MOL0     H90826   7.879   9.028   7.786  1.7899 -0.6411  0.1803
  673MOL0     H90827   7.981   9.173   7.637 -1.9592 -0.1055  0.8030
  673MOL0     H90828   8.002   9.049   7.515  1.5518  0.8518  0.8904
  673MOL0     H90829   8.162   9.073   7.777 -0.7832 -3.7448  2.0065
  673MOL0     H90830   8.161   8.927   7.689  2.8925 -0.0680 -1.2019
  673MOL0     H90831   8.244   9.029   7.483 -2.2958  4.2548 -1.5072
  673MOL0     H90832   8.356   9.039   7.628  1.8528  2.1039 -0.2971
  673MOL0     H90833   8.171   9.260   7.541 -0.7732 -1.1288 -0.1772
  673MOL0     H90834   8.293   9.261   7.666  0.2321  1.1542 -0.7321
  673MOL0     H90835   7.369   9.008   7.691 -0.6525  0.0538 -0.5922
  673MOL0     H90836   7.153   9.074   7.737  0.8832 -0.1623  1.7402
  673MOL0     H90837   6.689   8.893   7.656 -2.7791 -0.4310 -0.2488
  673MOL0     H90838   6.450   8.903   7.669 -0.2931  1.1095 -1.2770
  673MOL0     H90839   4.705   8.807   7.221 -1.2961  0.3168  1.2952
  673MOL0     H90840   4.558   8.782   7.016  1.0870  1.5425  2.1699
  673MOL0     H90841   4.410   8.523   6.685  1.5395  1.1843  1.0446
  673MOL0     H90842   4.301   8.547   6.471  0.9862  0.7639  0.3854
  673MOL0     H90843   4.094   8.833   6.365 -0.2894  2.5016  0.7259
  673MOL0     H90844   3.955   8.821   6.475  1.2240 -1.7329  1.8534
  673MOL0     H90845   3.935   8.677   6.214 -1.7255  0.1354 -1.1087
  673MOL0     H90846   3.941   8.859   6.204 -1.6917  1.5165  1.2762
  673MOL0     H90847   3.766   8.884   6.359 -0.2430  0.7975 -3.3828
  673MOL0     H90848   3.734   8.702   6.364 -1.0662 -0.8037 -2.0554
  673MOL0     H90849   3.593   8.863   6.225  1.0422  1.9439 -1.4769
  673MOL0     H90850   3.718   8.876   6.110 -2.7463  1.6135  1.9511
  673MOL0     H90851   3.535   8.477   6.109  1.1079 -1.6477  0.9220
  673MOL0     H90852   3.974   8.740   6.673 -1.4037 -1.6249 -1.1193
  673MOL0     H90853   4.014   8.691   6.966 -0.9032  1.3600  0.5698
  673MOL0     H90854   4.150   8.804   6.973  1.5772  2.8390 -3.6339
  673MOL0     H90855   4.012   8.835   6.873 -0.5006 -0.1272  0.8513
  674MOL0     O90856   0.796  10.402   6.836  0.0276 -0.4488  0.2209
  674MOL0     C90857   0.774  10.286   6.871  0.6594  0.6363  0.4298
  674MOL0     O90858   0.820  10.225   6.980 -0.7355 -0.3882  0.0419
  674MOL0     C90859   0.901  10.301   7.065 -0.2814  0.0434 -0.2023
  674MOL0     C90860   1.035  10.276   7.079  0.9074  0.4037  0.2410
  674MOL0     C90861   1.121  10.354   7.162  0.1760  0.3202  0.2211
  674MOL0     C90862   1.070  10.457   7.242 -0.2296  0.6354  0.2889
  674MOL0     O90863   1.163  10.521   7.321  0.3275 -0.0265 -0.5998
  674MOL0     C90864   1.101  10.576   7.447 -0.0762  0.2735  0.3169
  674MOL0     C90865   1.209  10.534   7.550 -0.0721  0.3798  0.6842
  674MOL0     C90866   1.352  10.575   7.503 -0.2583 -0.9739  0.5720
  674MOL0     C90867   1.443  10.626   7.614  1.7111  0.1986  0.0733
  674MOL0     C90868   1.586  10.623   7.573  0.3470 -0.0582  0.5229
  674MOL0     C90869   1.674  10.718   7.648  0.2411  0.4403  0.8706
  674MOL0     C90870   1.655  10.866   7.590 -0.2543  0.2209 -0.4891
  674MOL0     C90871   1.731  10.970   7.673  0.5219 -0.0976 -0.4775
  674MOL0     N90872   1.869  10.951   7.648 -0.2715  0.8909  1.2587
  674MOL0     C90873   1.931  10.986   7.535  0.7217  0.7020 -0.2729
  674MOL0     C90874   2.068  10.973   7.559  0.9239 -0.2715  0.6915
  674MOL0     C90875   2.188  11.026   7.481 -0.5182  0.5733 -0.0139
  674MOL0     C90876   2.310  10.932   7.495  0.1043  0.4008 -0.5072
  674MOL0     C90877   2.434  10.992   7.437 -0.3526  0.1653  0.3921
  674MOL0     C90878   2.554  10.899   7.463  0.6058 -0.4938 -0.2320
  674MOL0     O90879   2.669  10.985   7.422 -0.0704 -1.0510 -0.9388
  674MOL0     C90880   2.780  10.969   7.501 -0.5362  0.3037  0.0521
  674MOL0     C90881   2.879  11.071   7.505 -0.4273  0.4523  0.3393
  674MOL0     C90882   3.002  11.060   7.575  0.7350  0.2876  0.1799
  674MOL0     C90883   3.030  10.945   7.649  0.6359 -0.1447 -0.4534
  674MOL0     C90884   3.167  10.938   7.712 -0.1710 -0.6891  0.7655
  674MOL0     O90885   3.188  10.828   7.783 -0.2294  0.4836 -0.2662
  674MOL0     C90886   3.313  10.810   7.846  0.6462 -0.1399 -0.7554
  674MOL0     C90887   3.440  10.844   7.800 -0.6648  0.3122  0.5711
  674MOL0     C90888   3.555  10.812   7.877  0.5774  0.2407 -0.9262
  674MOL0     C90889   3.546  10.739   7.998  0.3163 -0.3547 -0.6494
  674MOL0     O90890   3.645  10.701   8.086  0.5563 -0.8004 -0.1983
  674MOL0     C90891   3.777  10.691   8.032  0.4858  0.0616  1.0228
  674MOL0     C90892   3.851  10.592   8.122  0.0606 -0.5192  0.3502
  674MOL0     C90893   3.985  10.589   8.057  0.4556  0.4184 -0.9958
  674MOL0     C90894   4.070  10.486   8.113  0.1435  0.1732 -0.4955
  674MOL0     C90895   4.221  10.487   8.074  0.3892  0.5414  0.0865
  674MOL0     C90896   4.240  10.472   7.924 -0.3443 -0.2687 -0.0928
  674MOL0     C90897   4.389  10.445   7.887  0.0940  0.1451  0.5230
  674MOL0     C90898   4.481  10.557   7.933  0.1730  0.2933  0.1632
  674MOL0    Cl90899   4.555  10.515   8.089  0.1536  0.1159  0.0424
  674MOL0     C90900   3.422  10.703   8.038  0.2495 -0.1869  0.8595
  674MOL0     C90901   3.309  10.737   7.966 -0.1758 -0.7692 -1.1571
  674MOL0     O90902   3.248  11.029   7.688  0.5776  0.1747 -0.6414
  674MOL0     C90903   2.925  10.849   7.660  0.5335 -0.3171  0.1842
  674MOL0     C90904   2.807  10.856   7.588  0.0041 -1.1352  0.4678
  674MOL0     N90905   2.080  10.902   7.681  0.8227 -0.2484 -0.1576
  674MOL0     N90906   1.960  10.881   7.731  0.0544  0.1564 -0.2765
  674MOL0     C90907   0.928  10.481   7.231 -0.9535  0.9750 -0.1044
  674MOL0     C90908   0.851  10.402   7.149  0.8138  0.0338  0.3719
  674MOL0     C90909   0.661  10.210   6.807 -0.2937 -0.9529 -0.2273
  674MOL0     C90910   0.532  10.270   6.815  0.2489 -0.0048  0.5894
  674MOL0     C90911   0.419  10.194   6.766  0.7941  0.3082 -1.3887
  674MOL0     C90912   0.439  10.073   6.690  0.5137  0.9149  0.2279
  674MOL0     O90913   0.327  10.001   6.642 -0.3088 -0.3629  0.3763
  674MOL0     C90914   0.338   9.864   6.586 -0.5230 -0.5443  0.0735
  674MOL0     C90915   0.305   9.756   6.689 -0.2950  0.1014  0.4171
  674MOL0     C90916   0.414   9.748   6.799 -0.5155  0.7060  0.6707
  674MOL0     C90917   0.421   9.611   6.871 -0.2408 -0.2156 -0.4876
  674MOL0     C90918   0.320   9.594   6.975 -1.0702 -0.3913  0.5925
  674MOL0     C90919   0.228   9.590   7.052  0.1670 -0.3730  0.2157
  674MOL0     C90920   0.572  10.028   6.686 -1.4356 -0.7978 -0.4354
  674MOL0     C90921   0.681  10.097   6.745 -0.6174  0.5247  0.6354
  674MOL0     C90922   0.806  10.021   6.760  0.0497  0.5461  0.4789
  674MOL0     H90923   1.078  10.211   7.004 -0.2264 -0.0255 -0.0570
  674MOL0     H90924   1.229  10.350   7.154  0.2399 -3.2671  1.1224
  674MOL0     H90925   1.105  10.685   7.442  0.5958  0.2124 -1.4153
  674MOL0     H90926   1.004  10.534   7.476 -0.9697  1.5503 -0.6899
  674MOL0     H90927   1.209  10.425   7.555  1.3855  0.2518 -1.2110
  674MOL0     H90928   1.186  10.591   7.641 -0.3408 -1.8349  2.0723
  674MOL0     H90929   1.338  10.655   7.430 -0.4212  0.0855  1.7336
  674MOL0     H90930   1.408  10.498   7.448 -0.6340 -1.9968  1.5923
  674MOL0     H90931   1.412  10.726   7.646 -1.9539 -0.5968 -0.6291
  674MOL0     H90932   1.436  10.561   7.701  1.8186 -1.7799 -1.3439
  674MOL0     H90933   1.629  10.525   7.596 -1.5889 -0.6980  1.6629
  674MOL0     H90934   1.573  10.627   7.464 -2.0933 -1.2654  0.7113
  674MOL0     H90935   1.644  10.712   7.753 -1.6999 -2.1128  0.2844
  674MOL0     H90936   1.777  10.683   7.642  0.5878  1.1061  2.4731
  674MOL0     H90937   1.553  10.901   7.575  0.1116  1.8403  0.5949
  674MOL0     H90938   1.692  10.862   7.487 -1.2661  3.3386 -1.0793
  674MOL0     H90939   1.698  11.068   7.637  3.6966  1.6480  0.9738
  674MOL0     H90940   1.697  10.970   7.777 -0.1213  0.2272 -0.6782
  674MOL0     H90941   1.882  11.035   7.452 -1.4787  1.2542  1.2842
  674MOL0     H90942   2.156  11.033   7.377 -1.9091 -1.5428  0.2085
  674MOL0     H90943   2.206  11.119   7.536  2.4412 -1.6720  3.2256
  674MOL0     H90944   2.318  10.902   7.600  2.1182 -1.2084 -1.0596
  674MOL0     H90945   2.283  10.834   7.453 -0.5974  0.1993  0.3640
  674MOL0     H90946   2.446  11.087   7.490 -2.5884  2.7346 -3.3113
  674MOL0     H90947   2.433  11.024   7.333  0.7787  3.5928  1.2936
  674MOL0     H90948   2.554  10.809   7.400  0.5908 -2.2534  2.1577
  674MOL0     H90949   2.553  10.874   7.569 -0.4165 -1.1137 -0.3761
  674MOL0     H90950   2.870  11.162   7.446 -1.6151  0.0568 -0.1212
  674MOL0     H90951   3.079  11.135   7.559  0.1900  0.6676 -0.7206
  674MOL0     H90952   3.446  10.890   7.701 -2.5298 -0.1828  0.1896
  674MOL0     H90953   3.652  10.827   7.832  0.2485  0.5233 -1.5608
  674MOL0     H90954   3.759  10.653   7.931 -3.9532  2.8124  0.5202
  674MOL0     H90955   3.829  10.787   8.031 -0.8548  0.8314 -0.6892
  674MOL0     H90956   3.861  10.634   8.222 -0.1598 -2.2597  1.1392
  674MOL0     H90957   3.801  10.494   8.118 -1.3122  0.1399  0.5923
  674MOL0     H90958   3.971  10.574   7.950  0.7387  2.1127 -1.3042
  674MOL0     H90959   4.027  10.690   8.064 -0.7098  0.8530  0.1775
  674MOL0     H90960   4.026  10.388   8.096  1.5744 -0.1204 -3.0487
  674MOL0     H90961   4.074  10.508   8.220  0.6723 -0.1828 -0.4419
  674MOL0     H90962   4.275  10.403   8.118  1.5959  1.0665 -0.3327
  674MOL0     H90963   4.249  10.585   8.112 -2.6909  0.9484  1.5932
  674MOL0     H90964   4.164  10.396   7.901 -2.3246  0.7832  2.4723
  674MOL0     H90965   4.193  10.561   7.883  1.3658  1.3310  1.2539
  674MOL0     H90966   4.399  10.462   7.780  3.4815  0.6668  0.8153
  674MOL0     H90967   4.407  10.341   7.912  0.8565  0.0603 -0.3324
  674MOL0     H90968   4.555  10.561   7.851 -1.5821 -1.5960 -1.6408
  674MOL0     H90969   4.418  10.646   7.938 -0.4855  0.0192 -1.9821
  674MOL0     H90970   3.410  10.649   8.131 -0.4092  1.3903  1.7363
  674MOL0     H90971   3.213  10.709   8.008  0.4209 -1.8069 -0.4365
  674MOL0     H90972   2.933  10.758   7.720  0.4360  0.3173  1.1916
  674MOL0     H90973   2.749  10.764   7.589  0.6040 -1.5810 -1.0931
  674MOL0     H90974   0.886  10.562   7.291  1.0792  1.1495  1.1735
  674MOL0     H90975   0.747  10.431   7.134  0.6713 -0.8509 -0.4701
  674MOL0     H90976   0.521  10.363   6.869 -0.9870 -0.8244  1.8228
  674MOL0     H90977   0.322  10.241   6.776  0.7298 -0.3247  2.2712
  674MOL0     H90978   0.437   9.842   6.544 -0.7794 -1.1017 -0.2557
  674MOL0     H90979   0.261   9.852   6.509 -1.1283 -0.7353  0.7067
  674MOL0     H90980   0.308   9.660   6.638 -0.9001  0.0111  0.5452
  674MOL0     H90981   0.202   9.771   6.725 -0.5029 -1.1663  0.3729
  674MOL0     H90982   0.397   9.827   6.873 -0.5610  1.4094 -0.0861
  674MOL0     H90983   0.513   9.760   6.756 -0.0320  1.3122  1.9082
  674MOL0     H90984   0.400   9.543   6.787 -0.2639 -0.0956 -0.5799
  674MOL0     H90985   0.524   9.596   6.904  0.6527  2.6031 -1.6434
  674MOL0     H90986   0.157   9.556   7.124 -0.6618  0.0236 -0.4015
  674MOL0     H90987   0.589   9.940   6.624  1.8845 -0.1872 -0.5772
  674MOL0     H90988   0.803   9.924   6.711 -0.4892  0.6691  0.2590
  674MOL0     H90989   0.892  10.074   6.716 -0.5464  1.8876  0.8683
  674MOL0     H90990   0.823   9.992   6.864 -0.2777  1.0994  0.6895
  675MOL0     O90991   8.705   6.451   7.830  0.4303 -0.6188  0.2849
  675MOL0     C90992   8.647   6.480   7.727  0.6333 -0.5221 -0.3402
  675MOL0     O90993   8.705   6.536   7.614 -0.2924 -0.3446 -0.0366
  675MOL0     C90994   8.834   6.561   7.625 -0.9842 -0.0316 -0.2190
  675MOL0     C90995   8.946   6.471   7.628  0.8652 -0.0015  0.6556
  675MOL0     C90996   9.073   6.511   7.602  0.0423  0.2295 -0.7300
  675MOL0     C90997   9.102   6.649   7.573 -0.0519  0.6358 -0.1474
  675MOL0     O90998   9.220   6.706   7.546 -0.7990  0.5167  0.1084
  675MOL0     C90999   9.343   6.642   7.581 -0.4732  0.5735 -0.1524
  675MOL0     C91000   9.462   6.726   7.522  0.3246 -0.9666  0.2253
  675MOL0     C91001   9.588   6.645   7.556 -0.2509  0.1524 -1.1298
  675MOL0     C91002   9.718   6.728   7.536 -0.1298 -0.2379  0.7715
  675MOL0     C91003   9.736   6.760   7.386 -0.8768 -0.2587  0.0342
  675MOL0     C91004   9.811   6.902   7.360  0.3684  0.8087  0.4195
  675MOL0     C91005   9.959   6.913   7.406  0.3594  0.0409  0.4090
  675MOL0     C91006  10.063   6.849   7.310 -0.0282 -0.0621  0.8915
  675MOL0     N91007  10.207   6.865   7.337  0.7029 -0.0360  0.3944
  675MOL0     C91008  10.272   6.987   7.336  0.2944  0.2730  0.2963
  675MOL0     C91009  10.386   6.973   7.401  1.1111  0.0458 -0.0763
  675MOL0     C91010  10.467   7.094   7.426 -0.5444 -0.6917 -0.7745
  675MOL0     C91011  10.617   7.095   7.428  0.1543  0.1086  0.3225
  675MOL0     C91012  10.691   6.995   7.529  0.9456  0.4723 -0.7639
  675MOL0     C91013  10.846   6.999   7.540  0.0748 -0.7133  0.0990
  675MOL0     O91014  10.883   7.135   7.562 -0.0716 -0.0007 -0.2091
  675MOL0     C91015  11.016   7.168   7.565 -0.1817 -0.8372  0.4055
  675MOL0     C91016  11.114   7.072   7.578 -0.4410  0.2159 -0.7038
  675MOL0     C91017  11.244   7.109   7.573 -0.0553 -0.7648  0.0482
  675MOL0     C91018  11.288   7.243   7.584  0.3618 -0.0736  0.1662
  675MOL0     C91019  11.428   7.272   7.610 -0.2224 -0.2971  0.4166
  675MOL0     O91020  11.447   7.402   7.658  0.1730  0.2936 -0.1772
  675MOL0     C91021  11.565   7.420   7.721 -1.2837  0.3289 -0.1355
  675MOL0     C91022  11.578   7.376   7.857  0.4672 -0.6352  0.6139
  675MOL0     C91023  11.692   7.410   7.932  0.5560 -0.0518  0.6572
  675MOL0     C91024  11.804   7.468   7.865  0.0935 -0.6625  0.2272
  675MOL0     O91025  11.911   7.493   7.948 -0.5063 -0.7065  0.3697
  675MOL0     C91026  12.028   7.559   7.885  0.2510 -0.1556  0.3003
  675MOL0     C91027  12.139   7.555   7.990  0.0284  0.0248  0.1395
  675MOL0     C91028  12.275   7.583   7.943 -0.4524  0.7503 -0.2857
  675MOL0     C91029  12.365   7.618   8.062 -0.2744 -0.4257 -0.3352
  675MOL0     C91030  12.499   7.657   8.000 -0.6733 -0.0958 -0.6761
  675MOL0     C91031  12.615   7.625   8.095  0.2234  0.0941 -0.0419
  675MOL0     C91032  12.750   7.647   8.030 -0.4543  0.6401  0.6916
  675MOL0     C91033  12.862   7.626   8.134  0.3046 -0.4164 -0.8135
  675MOL0    Cl91034  13.014   7.646   8.053 -0.1324  0.6722 -0.6450
  675MOL0     C91035  11.795   7.498   7.732 -0.0326  0.6695  0.2073
  675MOL0     C91036  11.672   7.479   7.660 -0.2102 -0.2984 -0.2560
  675MOL0     O91037  11.510   7.187   7.585 -0.2839 -0.6091  0.3824
  675MOL0     C91038  11.189   7.339   7.578 -0.1105 -0.9224  0.4469
  675MOL0     C91039  11.053   7.298   7.565  0.1814  0.0267 -0.2243
  675MOL0     N91040  10.390   6.842   7.447 -0.0370  0.0424 -0.4560
  675MOL0     N91041  10.288   6.774   7.400  0.6733  0.1906 -0.5792
  675MOL0     C91042   8.997   6.741   7.581 -0.0073 -0.1954 -0.1176
  675MOL0     C91043   8.865   6.698   7.611  0.5064 -0.8759 -0.3200
  675MOL0     C91044   8.500   6.447   7.718 -0.4750 -0.2547  0.3208
  675MOL0     C91045   8.407   6.527   7.646 -0.1691  0.2940  0.1326
  675MOL0     C91046   8.275   6.506   7.660 -0.1807  0.1672  0.6995
  675MOL0     C91047   8.227   6.405   7.743 -0.0435  0.6977 -0.2859
  675MOL0     O91048   8.094   6.421   7.767  0.2618  0.2162  0.2694
  675MOL0     C91049   8.049   6.391   7.894  0.3047 -0.0029 -0.4022
  675MOL0     C91050   7.911   6.452   7.922  0.5514 -0.4068  0.1961
  675MOL0     C91051   7.876   6.589   7.870  0.4333 -0.1870 -0.5349
  675MOL0     C91052   7.730   6.633   7.907  0.0343  0.0790  0.3204
  675MOL0     C91053   7.714   6.773   7.872  0.3761 -0.0111 -0.0914
  675MOL0     C91054   7.704   6.883   7.825  0.1402  1.0317  0.5989
  675MOL0     C91055   8.315   6.325   7.812 -1.0234  0.5214 -0.9955
  675MOL0     C91056   8.452   6.343   7.791  0.3939 -0.2009  0.1635
  675MOL0     C91057   8.534   6.233   7.861 -0.5797 -0.8356  0.5851
  675MOL0     H91058   8.926   6.364   7.635  1.2575 -0.0525  1.0116
  675MOL0     H91059   9.165   6.454   7.599  0.2713  0.5815 -0.5357
  675MOL0     H91060   9.359   6.636   7.689  2.4743 -3.3940 -0.5675
  675MOL0     H91061   9.346   6.543   7.536  0.6664 -0.0268  1.1681
  675MOL0     H91062   9.456   6.823   7.573  1.5148 -1.2426  0.9417
  675MOL0     H91063   9.450   6.739   7.414 -0.1527  1.0069  0.4716
  675MOL0     H91064   9.591   6.551   7.501 -1.1396 -0.4850 -0.1265
  675MOL0     H91065   9.585   6.625   7.663 -1.6959  0.0010 -1.1835
  675MOL0     H91066   9.689   6.823   7.583 -2.4052 -1.2268  1.5278
  675MOL0     H91067   9.805   6.685   7.588 -0.6954 -0.9662  1.1380
  675MOL0     H91068   9.797   6.682   7.339 -0.5928  0.2074 -0.3851
  675MOL0     H91069   9.639   6.753   7.336  0.3266 -0.9318 -2.4013
  675MOL0     H91070   9.806   6.933   7.255  0.3252  1.1830  0.5331
  675MOL0     H91071   9.752   6.981   7.407  0.1697 -0.0519  1.6346
  675MOL0     H91072   9.970   6.870   7.505  0.7082  1.1485  0.8627
  675MOL0     H91073   9.982   7.019   7.411 -0.4328  0.1716  1.6042
  675MOL0     H91074  10.034   6.744   7.303 -1.0701  0.2688 -0.2582
  675MOL0     H91075  10.056   6.888   7.208  2.3654 -0.1137  0.6504
  675MOL0     H91076  10.248   7.079   7.284 -0.0490 -0.3786 -0.7439
  675MOL0     H91077  10.449   7.179   7.359 -3.6858 -0.8052 -0.2207
  675MOL0     H91078  10.431   7.144   7.517 -0.0905  0.6625 -1.3071
  675MOL0     H91079  10.646   7.074   7.324 -0.1536 -1.7094  0.5644
  675MOL0     H91080  10.657   7.196   7.444  0.7278 -0.6096  4.7962
  675MOL0     H91081  10.666   6.893   7.497 -0.6263  0.2907  0.8892
  675MOL0     H91082  10.647   7.020   7.626 -0.1030  0.9373 -1.3456
  675MOL0     H91083  10.887   6.966   7.445 -0.9545  1.5524 -1.2156
  675MOL0     H91084  10.891   6.931   7.613  3.0241 -3.0420 -3.5859
  675MOL0     H91085  11.096   6.966   7.584 -3.0256  0.5621 -1.2638
  675MOL0     H91086  11.320   7.031   7.572  0.4152 -0.3483  1.1020
  675MOL0     H91087  11.487   7.335   7.901 -0.3792 -0.0881 -0.5489
  675MOL0     H91088  11.709   7.390   8.038  6.1442 -1.2340 -0.1666
  675MOL0     H91089  12.059   7.493   7.804  0.1820  0.6163 -0.3658
  675MOL0     H91090  12.003   7.658   7.846  0.9371 -1.0774 -2.7626
  675MOL0     H91091  12.114   7.631   8.065 -0.0777 -0.9347  1.1003
  675MOL0     H91092  12.134   7.452   8.026  0.6340 -0.7418 -1.8494
  675MOL0     H91093  12.308   7.506   7.873  0.0058  1.6575 -1.0965
  675MOL0     H91094  12.274   7.675   7.883  2.5097  1.5080  0.6994
  675MOL0     H91095  12.372   7.529   8.124 -2.9393 -0.8590 -0.5369
  675MOL0     H91096  12.326   7.693   8.132  0.1555 -2.2506  1.9877
  675MOL0     H91097  12.502   7.761   7.966 -1.5973  0.6507  1.3679
  675MOL0     H91098  12.515   7.606   7.905  0.8015  2.1052 -1.6928
  675MOL0     H91099  12.619   7.690   8.183 -0.4483 -2.1836  1.7685
  675MOL0     H91100  12.614   7.523   8.136 -2.0487  1.0679  2.6141
  675MOL0     H91101  12.768   7.743   7.979  0.0952  0.0135 -0.3430
  675MOL0     H91102  12.767   7.572   7.952  0.6026  0.4939  1.0396
  675MOL0     H91103  12.857   7.695   8.219  1.2842  0.0987 -1.1687
  675MOL0     H91104  12.839   7.526   8.173 -1.2525 -0.0988 -0.8227
  675MOL0     H91105  11.875   7.543   7.674  0.8018  0.3444  1.0755
  675MOL0     H91106  11.666   7.513   7.557 -0.8334  0.8124  0.1310
  675MOL0     H91107  11.223   7.442   7.581  1.0760 -1.3246  2.8344
  675MOL0     H91108  10.979   7.376   7.579  0.3217  0.3785 -1.3010
  675MOL0     H91109   9.020   6.847   7.585  0.7370 -0.2276 -2.2429
  675MOL0     H91110   8.793   6.776   7.634  0.7531 -0.7743  0.1171
  675MOL0     H91111   8.448   6.605   7.582  0.6353 -0.5752 -0.4412
  675MOL0     H91112   8.190   6.563   7.622  0.3706  1.7847  1.7705
  675MOL0     H91113   8.123   6.416   7.971  0.3918 -1.9396  0.2053
  675MOL0     H91114   8.038   6.283   7.887 -2.3928  0.1228  0.5861
  675MOL0     H91115   7.887   6.437   8.028  1.0019 -3.0741 -0.0189
  675MOL0     H91116   7.842   6.385   7.871  2.8513  0.0864 -4.0372
  675MOL0     H91117   7.893   6.582   7.763  1.5156 -1.3709 -0.3087
  675MOL0     H91118   7.952   6.650   7.920 -0.1543 -2.1247  3.0616
  675MOL0     H91119   7.664   6.576   7.841  0.1927  1.3565 -0.9778
  675MOL0     H91120   7.706   6.621   8.013  0.6521  3.2150  0.9293
  675MOL0     H91121   7.701   6.977   7.773  2.3203  1.0459  0.4301
  675MOL0     H91122   8.290   6.243   7.878  1.3824  1.2729  1.0128
  675MOL0     H91123   8.565   6.251   7.964 -0.8673  1.0885  0.3722
  675MOL0     H91124   8.478   6.139   7.866 -2.7673  0.4751  3.0911
  675MOL0     H91125   8.625   6.214   7.804  0.0252  0.2309  1.1650
  676MOL0     O91126   2.440   5.385   4.756 -0.0175  0.8587 -0.4918
  676MOL0     C91127   2.378   5.319   4.672  0.1565 -0.8678 -0.2756
  676MOL0     O91128   2.436   5.229   4.584  0.4581 -0.0668 -0.9519
  676MOL0     C91129   2.568   5.206   4.599 -0.4276 -0.3890 -0.0571
  676MOL0     C91130   2.658   5.294   4.544 -1.7043 -0.8982 -0.1028
  676MOL0     C91131   2.795   5.277   4.562  0.0215 -0.2708 -0.4709
  676MOL0     C91132   2.840   5.169   4.634  0.2752  1.0924  0.7835
  676MOL0     O91133   2.978   5.147   4.628  0.0800 -0.7021 -0.2773
  676MOL0     C91134   3.038   5.104   4.754  0.3478  0.6226 -0.5377
  676MOL0     C91135   3.190   5.111   4.741  0.3475  0.3194 -0.4664
  676MOL0     C91136   3.265   5.076   4.873  0.4111 -0.0663 -0.2459
  676MOL0     C91137   3.414   5.075   4.841 -0.4278 -0.7259  0.2139
  676MOL0     C91138   3.500   5.009   4.951 -0.0572  0.4029  0.5784
  676MOL0     C91139   3.487   5.070   5.096  0.8912  0.0432 -0.1498
  676MOL0     C91140   3.545   4.968   5.203 -0.1007  0.3254  0.3456
  676MOL0     C91141   3.553   5.033   5.344 -1.3301 -0.7004  1.3211
  676MOL0     N91142   3.655   5.133   5.356 -0.2052  0.3540  0.1998
  676MOL0     C91143   3.636   5.269   5.327 -1.0055  0.5084  0.5525
  676MOL0     C91144   3.759   5.325   5.353  0.8261  0.6292 -0.1712
  676MOL0     C91145   3.806   5.461   5.329  0.2891 -0.4407 -0.2377
  676MOL0     C91146   3.800   5.501   5.177 -0.5575  0.3588 -0.7300
  676MOL0     C91147   3.875   5.629   5.147 -0.0551  0.7955 -0.2961
  676MOL0     C91148   4.029   5.633   5.184  0.8706 -0.3156 -0.2869
  676MOL0     O91149   4.094   5.521   5.131 -0.9618  0.5083 -0.5460
  676MOL0     C91150   4.209   5.535   5.056 -0.6843  0.1868 -0.3493
  676MOL0     C91151   4.285   5.427   5.006  0.5255  0.3106  0.0577
  676MOL0     C91152   4.403   5.430   4.941 -0.3172 -0.6137 -0.3201
  676MOL0     C91153   4.475   5.549   4.936 -0.0502  0.0358 -0.1223
  676MOL0     C91154   4.609   5.551   4.868 -0.5183 -0.8194 -0.1547
  676MOL0     O91155   4.653   5.435   4.804  0.8754 -0.7067  0.6048
  676MOL0     C91156   4.776   5.417   4.754  0.4033  0.2929 -0.6123
  676MOL0     C91157   4.855   5.518   4.706 -0.0455 -0.0983 -0.0134
  676MOL0     C91158   4.985   5.492   4.648  0.4937  0.0338 -0.1487
  676MOL0     C91159   5.031   5.360   4.640  0.1856  0.8547 -0.2047
  676MOL0     O91160   5.135   5.333   4.558 -0.0843  0.4888 -0.0278
  676MOL0     C91161   5.136   5.207   4.496  0.2499 -0.4357  0.3632
  676MOL0     C91162   5.250   5.189   4.390  0.0840  0.0379 -0.5267
  676MOL0     C91163   5.388   5.194   4.455 -0.2005  0.1734 -0.2680
  676MOL0     C91164   5.486   5.088   4.398  0.1251 -0.4880  0.6063
  676MOL0     C91165   5.622   5.080   4.467  0.4571 -0.1206 -0.3937
  676MOL0     C91166   5.698   4.965   4.397 -0.6389 -1.1195 -0.8158
  676MOL0     C91167   5.827   4.937   4.465 -0.1954 -0.4879  0.3447
  676MOL0     C91168   5.914   4.854   4.370  0.4520  0.0073 -0.9707
  676MOL0    Cl91169   6.067   4.818   4.444  0.0357 -0.2380 -0.3719
  676MOL0     C91170   4.947   5.254   4.689  0.2589  0.5655  0.9312
  676MOL0     C91171   4.824   5.279   4.740  1.1237  0.3672 -0.1103
  676MOL0     O91172   4.672   5.657   4.867  0.1226 -0.1421 -0.1323
  676MOL0     C91173   4.401   5.665   4.977  0.9112  0.5980 -0.5033
  676MOL0     C91174   4.278   5.653   5.041 -0.5264 -0.2972 -0.7869
  676MOL0     N91175   3.849   5.224   5.389  0.4491  0.5279 -0.2451
  676MOL0     N91176   3.781   5.116   5.401 -0.0845  0.3009 -0.1361
  676MOL0     C91177   2.752   5.076   4.695  0.0757 -0.6928  0.7558
  676MOL0     C91178   2.615   5.094   4.667  0.4740 -0.8636 -0.2482
  676MOL0     C91179   2.237   5.352   4.661  0.4632  0.1707  0.4685
  676MOL0     C91180   2.170   5.320   4.544 -0.4083  0.1179  0.3442
  676MOL0     C91181   2.029   5.341   4.526  0.2909 -0.6576 -0.5284
  676MOL0     C91182   1.955   5.389   4.634  0.4148 -0.3832  0.5504
  676MOL0     O91183   1.823   5.424   4.623 -0.1161 -0.5848 -0.3451
  676MOL0     C91184   1.730   5.386   4.522  0.7436  0.0500  0.5579
  676MOL0     C91185   1.579   5.409   4.554 -0.8533  0.4539 -0.0649
  676MOL0     C91186   1.526   5.308   4.660  0.6095  0.5595  0.6590
  676MOL0     C91187   1.488   5.176   4.604 -0.5161  0.7496 -0.4024
  676MOL0     C91188   1.373   5.173   4.524 -0.2039  0.8611  1.2982
  676MOL0     C91189   1.263   5.177   4.472 -0.3470 -0.5670 -0.6495
  676MOL0     C91190   2.023   5.431   4.751  0.4176  0.8048 -0.5974
  676MOL0     C91191   2.156   5.410   4.764 -0.5032  0.3939  0.1914
  676MOL0     C91192   2.211   5.458   4.907  0.2272 -0.1001 -0.4444
  676MOL0     H91193   2.623   5.383   4.493 -3.4361 -1.0757  0.7149
  676MOL0     H91194   2.871   5.343   4.521  3.0135 -1.7244  2.2881
  676MOL0     H91195   2.996   5.166   4.834  0.1790  1.1813 -1.0458
  676MOL0     H91196   3.012   4.998   4.762 -1.4668  0.9145 -1.9943
  676MOL0     H91197   3.210   5.214   4.709  3.7158  0.1021  0.5903
  676MOL0     H91198   3.218   5.046   4.658  1.6002  2.4236 -1.8065
  676MOL0     H91199   3.227   4.980   4.909 -2.4619  1.1894  0.2970
  676MOL0     H91200   3.241   5.155   4.945 -2.3059  2.7947 -3.9603
  676MOL0     H91201   3.429   5.023   4.746  1.5203  1.3324 -0.7038
  676MOL0     H91202   3.443   5.180   4.828 -0.3443 -1.0993 -3.9083
  676MOL0     H91203   3.475   4.903   4.953 -0.2206  0.4535  2.2022
  676MOL0     H91204   3.602   5.011   4.913 -1.2887 -1.4207 -3.4264
  676MOL0     H91205   3.542   5.164   5.092 -1.7083  1.6716 -0.3334
  676MOL0     H91206   3.382   5.087   5.121  0.5299 -1.2046 -0.7598
  676MOL0     H91207   3.644   4.930   5.175 -0.4759 -1.0420  0.7760
  676MOL0     H91208   3.487   4.875   5.208 -0.0007  0.3116  1.6690
  676MOL0     H91209   3.459   5.073   5.383 -1.6533 -0.9203  0.7759
  676MOL0     H91210   3.583   4.947   5.406 -1.0544 -1.3216  0.3461
  676MOL0     H91211   3.544   5.303   5.281 -1.8575  0.8736  2.4341
  676MOL0     H91212   3.746   5.528   5.392 -0.1723  0.8397 -1.9461
  676MOL0     H91213   3.912   5.459   5.357  0.9591 -0.2971 -2.5628
  676MOL0     H91214   3.847   5.424   5.115  0.6498 -0.7734  1.4849
  676MOL0     H91215   3.700   5.504   5.134 -0.6850  0.9393 -0.4053
  676MOL0     H91216   3.827   5.710   5.202 -0.6920  1.3478 -1.6453
  676MOL0     H91217   3.857   5.655   5.043  0.7211  1.0465 -0.3693
  676MOL0     H91218   4.055   5.636   5.290  2.1749 -0.4615 -0.5799
  676MOL0     H91219   4.062   5.730   5.145  2.6528 -0.7079  0.1796
  676MOL0     H91220   4.226   5.336   5.018  1.1294 -0.0621  0.2139
  676MOL0     H91221   4.445   5.338   4.901 -1.0804 -0.9702 -0.3263
  676MOL0     H91222   4.817   5.620   4.696 -1.0220 -0.6559 -3.0859
  676MOL0     H91223   5.036   5.577   4.604 -2.0087  1.9891  0.4990
  676MOL0     H91224   5.151   5.127   4.569  2.2733  0.9482  1.5356
  676MOL0     H91225   5.044   5.179   4.443 -1.4268 -1.1119  3.3696
  676MOL0     H91226   5.227   5.092   4.344 -0.2446 -0.5793  0.8965
  676MOL0     H91227   5.231   5.267   4.316 -1.5950  0.3850  0.2161
  676MOL0     H91228   5.432   5.293   4.439  0.0125  0.1042 -0.1127
  676MOL0     H91229   5.368   5.190   4.562  1.2863  2.3307  0.1537
  676MOL0     H91230   5.491   5.109   4.290 -2.3305  0.9770  0.6931
  676MOL0     H91231   5.450   4.988   4.419 -0.6499 -0.1257  1.0284
  676MOL0     H91232   5.607   5.048   4.570  3.6149  0.7507  0.4796
  676MOL0     H91233   5.690   5.166   4.470 -0.4944  0.6599  2.7823
  676MOL0     H91234   5.644   4.870   4.390  0.3054 -1.7133 -0.2606
  676MOL0     H91235   5.715   4.998   4.294 -1.0348 -1.6314 -1.0495
  676MOL0     H91236   5.820   4.890   4.564  2.2514  4.2093  3.0827
  676MOL0     H91237   5.874   5.031   4.495 -1.2996 -0.4126  2.0170
  676MOL0     H91238   5.863   4.769   4.324  3.1032 -1.1528 -2.0002
  676MOL0     H91239   5.944   4.914   4.283 -0.5108  0.0285 -1.3035
  676MOL0     H91240   4.985   5.154   4.671  0.3663  0.9624 -1.3479
  676MOL0     H91241   4.756   5.200   4.770  0.8089  0.3036 -0.9582
  676MOL0     H91242   4.438   5.766   4.960  2.1239  0.1289 -0.7409
  676MOL0     H91243   4.250   5.749   5.084 -0.2069  0.1503 -1.5501
  676MOL0     H91244   2.798   4.991   4.744  0.8814 -0.6057  0.1802
  676MOL0     H91245   2.541   5.029   4.712 -1.4328  1.4398  0.1877
  676MOL0     H91246   2.218   5.268   4.462  2.5962  0.7912  1.5359
  676MOL0     H91247   1.979   5.304   4.436 -0.1398  1.7172 -1.3351
  676MOL0     H91248   1.756   5.285   4.488  0.6104  0.3266 -0.3845
  676MOL0     H91249   1.742   5.445   4.431 -1.4826 -0.2375  0.0048
  676MOL0     H91250   1.517   5.400   4.465 -2.0046 -2.5111  0.9180
  676MOL0     H91251   1.558   5.511   4.586 -0.8588  0.0537  1.2880
  676MOL0     H91252   1.429   5.347   4.694 -0.0440  0.4084 -0.9060
  676MOL0     H91253   1.592   5.300   4.746 -2.3779 -0.4483  3.0517
  676MOL0     H91254   1.575   5.136   4.551  0.0943  1.7205 -0.1650
  676MOL0     H91255   1.474   5.111   4.691 -2.3773 -2.3717 -2.7925
  676MOL0     H91256   1.173   5.172   4.415 -1.3879 -1.0325  0.9546
  676MOL0     H91257   1.969   5.470   4.836  0.3713  0.8250 -0.6361
  676MOL0     H91258   2.275   5.382   4.955 -0.0313 -0.2524 -0.3396
  676MOL0     H91259   2.275   5.546   4.904  0.3880 -0.2034 -0.1535
  676MOL0     H91260   2.136   5.474   4.985  1.3532  1.8567  0.3200
  677MOL0     O91261   8.953   1.192   4.828 -0.1707 -0.0040 -0.2441
  677MOL0     C91262   8.897   1.105   4.897  0.8393  0.0005 -0.0760
  677MOL0     O91263   8.956   1.032   4.998  1.2705 -0.5932 -0.5971
  677MOL0     C91264   9.088   1.057   5.029 -0.2548 -1.0842 -0.2407
  677MOL0     C91265   9.188   0.996   4.951 -0.6403  1.0525 -0.6460
  677MOL0     C91266   9.321   1.030   4.976 -0.3605 -1.0154 -0.3829
  677MOL0     C91267   9.362   1.120   5.071 -0.8735 -0.1332 -0.5841
  677MOL0     O91268   9.491   1.153   5.093  0.5397  0.6831  0.6776
  677MOL0     C91269   9.596   1.108   5.001  0.2231  0.4103  0.0197
  677MOL0     C91270   9.728   1.167   5.056  0.2144  0.4556 -1.1079
  677MOL0     C91271   9.851   1.115   4.994 -0.2520 -0.9212  0.0413
  677MOL0     C91272   9.972   1.188   5.036 -0.2152  0.3618  0.7799
  677MOL0     C91273  10.091   1.160   4.946  0.3472  0.0972 -0.1810
  677MOL0     C91274  10.213   1.244   4.988 -0.2512  0.0257 -0.1440
  677MOL0     C91275  10.194   1.394   4.973 -0.4393 -0.4354 -0.2773
  677MOL0     C91276  10.181   1.463   5.099 -0.6141  0.3006 -0.5819
  677MOL0     N91277  10.297   1.465   5.190 -0.3671 -0.4216 -0.3365
  677MOL0     C91278  10.409   1.537   5.156 -0.4770 -0.2350 -0.0719
  677MOL0     C91279  10.500   1.507   5.250  0.1313  0.5658 -0.3948
  677MOL0     C91280  10.646   1.533   5.271  0.6424 -0.8668 -0.6018
  677MOL0     C91281  10.717   1.494   5.145 -0.3557  0.2351  0.2919
  677MOL0     C91282  10.736   1.339   5.137  0.3674 -0.3845  0.5472
  677MOL0     C91283  10.788   1.285   5.001  0.1043 -0.3675  0.1972
  677MOL0     O91284  10.702   1.299   4.881  0.4504 -0.7943  0.0465
  677MOL0     C91285  10.723   1.401   4.790  0.1630 -0.7188  0.0213
  677MOL0     C91286  10.820   1.506   4.802 -0.0278 -0.0686  0.0754
  677MOL0     C91287  10.845   1.578   4.687  0.5596  0.4610 -0.5627
  677MOL0     C91288  10.779   1.554   4.561 -0.2914  0.1474  0.3502
  677MOL0     C91289  10.819   1.630   4.433  0.0043 -0.1972  0.1200
  677MOL0     O91290  10.788   1.564   4.313  0.0784 -0.1904  0.0904
  677MOL0     C91291  10.812   1.624   4.188  0.2388 -0.1072 -0.3269
  677MOL0     C91292  10.776   1.765   4.166 -0.3741 -0.0286 -0.6132
  677MOL0     C91293  10.789   1.818   4.042 -0.2762 -0.1555 -0.1250
  677MOL0     C91294  10.819   1.736   3.940 -0.0108  0.2375  0.3998
  677MOL0     O91295  10.814   1.795   3.821  0.1814  0.5869  0.1415
  677MOL0     C91296  10.720   1.747   3.728  0.2251 -0.0328  0.5723
  677MOL0     C91297  10.678   1.864   3.625 -0.0821  0.4015 -1.2238
  677MOL0     C91298  10.551   1.819   3.553  0.5130 -0.1704 -0.1511
  677MOL0     C91299  10.427   1.881   3.626 -0.6392  0.3159  0.5203
  677MOL0     C91300  10.307   1.888   3.524  0.1868 -0.1969  0.4212
  677MOL0     C91301  10.183   1.949   3.600  0.5077 -1.7684  0.8405
  677MOL0     C91302  10.071   2.001   3.503  0.4665  0.3970  0.7511
  677MOL0     C91303  10.021   1.897   3.399 -0.1081  0.4853 -0.5550
  677MOL0    Cl91304   9.903   1.951   3.288  0.0613 -0.1394 -0.2292
  677MOL0     C91305  10.860   1.601   3.961  0.0373 -0.0242 -0.9247
  677MOL0     C91306  10.856   1.549   4.087 -0.2932  0.8523  0.2999
  677MOL0     O91307  10.890   1.724   4.440 -0.2818  0.1047 -0.2361
  677MOL0     C91308  10.675   1.458   4.552 -1.0418 -0.3369  0.8910
  677MOL0     C91309  10.652   1.382   4.667 -0.0809 -0.4856  0.0223
  677MOL0     N91310  10.438   1.416   5.336 -0.3807 -0.7440  0.0346
  677MOL0     N91311  10.317   1.390   5.296  0.3086 -0.4460 -0.2801
  677MOL0     C91312   9.258   1.171   5.161  0.7153  0.2563  0.2146
  677MOL0     C91313   9.119   1.136   5.141  0.3267  0.4074 -0.3947
  677MOL0     C91314   8.754   1.063   4.874 -0.9550  0.2050 -0.6579
  677MOL0     C91315   8.713   0.932   4.898  0.3715  0.6813 -0.8725
  677MOL0     C91316   8.583   0.881   4.887 -0.5357 -0.3685 -0.6275
  677MOL0     C91317   8.483   0.963   4.835 -0.1674  0.2902 -0.1655
  677MOL0     O91318   8.355   0.911   4.823 -0.3598 -0.2383 -0.3337
  677MOL0     C91319   8.251   0.993   4.772 -0.5599  0.0146  0.3706
  677MOL0     C91320   8.130   0.911   4.744  0.7459  0.6513  0.6523
  677MOL0     C91321   8.032   0.880   4.858 -0.0948  1.1224  0.5205
  677MOL0     C91322   8.007   1.003   4.945  0.4526 -0.6281 -0.1526
  677MOL0     C91323   7.870   0.993   4.998 -0.4787 -0.2633  0.9195
  677MOL0     C91324   7.772   1.000   5.060  0.1871  0.6527 -0.1505
  677MOL0     C91325   8.525   1.088   4.789 -0.0110  0.6178  0.2039
  677MOL0     C91326   8.654   1.144   4.813 -0.4996  0.3376  0.7182
  677MOL0     C91327   8.679   1.282   4.784  0.5834  0.0675 -0.2007
  677MOL0     H91328   9.171   0.938   4.861  0.1344  1.8158 -1.3006
  677MOL0     H91329   9.394   0.974   4.919  1.9876 -0.6560  2.1056
  677MOL0     H91330   9.605   1.000   5.002  0.2454  0.3552 -2.0651
  677MOL0     H91331   9.584   1.141   4.897  0.9133  2.8699  0.6389
  677MOL0     H91332   9.742   1.130   5.158 -2.3490 -1.4278 -1.3535
  677MOL0     H91333   9.721   1.277   5.057  0.4059  0.4664 -0.5458
  677MOL0     H91334   9.845   1.121   4.885  1.7051  2.1689 -0.0121
  677MOL0     H91335   9.867   1.010   5.022  2.9798 -0.9957 -1.6183
  677MOL0     H91336   9.954   1.296   5.029  2.7674  0.8327 -3.8982
  677MOL0     H91337   9.997   1.160   5.139  0.4249  0.4778  0.6602
  677MOL0     H91338  10.124   1.056   4.944 -1.5902 -0.5505  0.2895
  677MOL0     H91339  10.064   1.181   4.842 -3.8718 -2.4833  0.1961
  677MOL0     H91340  10.239   1.221   5.092 -1.2554 -1.7808 -0.2619
  677MOL0     H91341  10.296   1.223   4.919  0.3545 -1.1201  0.8927
  677MOL0     H91342  10.110   1.420   4.908 -0.1134 -2.7461 -1.7550
  677MOL0     H91343  10.286   1.429   4.924  0.9551  0.0741  2.5473
  677MOL0     H91344  10.163   1.566   5.067 -2.7680  0.4020  0.7065
  677MOL0     H91345  10.091   1.429   5.153  0.8863  0.1296  1.9770
  677MOL0     H91346  10.427   1.606   5.075 -0.3626 -1.2161 -0.8951
  677MOL0     H91347  10.668   1.638   5.292  3.9065 -1.5557  0.0196
  677MOL0     H91348  10.683   1.480   5.359 -1.5770 -3.0323 -0.8691
  677MOL0     H91349  10.672   1.532   5.053 -0.3348 -0.0139  0.1789
  677MOL0     H91350  10.813   1.546   5.151 -0.3274  0.0922  1.3356
  677MOL0     H91351  10.643   1.283   5.154 -0.2096  0.1405 -0.7361
  677MOL0     H91352  10.794   1.307   5.224  0.2483  0.6792  1.0341
  677MOL0     H91353  10.820   1.182   5.018 -0.6207 -0.4960  0.8504
  677MOL0     H91354  10.884   1.330   4.975 -0.6874  1.4722  0.3157
  677MOL0     H91355  10.872   1.536   4.893  0.9806 -0.4011 -0.3833
  677MOL0     H91356  10.921   1.655   4.684 -0.4377  1.5089  0.3490
  677MOL0     H91357  10.730   1.822   4.247  1.9884  0.8679  0.1815
  677MOL0     H91358  10.765   1.922   4.023 -0.3945 -0.5408 -2.3152
  677MOL0     H91359  10.778   1.671   3.675  0.4987  0.9679 -0.6109
  677MOL0     H91360  10.627   1.711   3.772 -1.0435  1.3917 -0.8099
  677MOL0     H91361  10.658   1.957   3.679 -0.7167 -0.9646  1.0207
  677MOL0     H91362  10.761   1.883   3.556 -0.0415 -2.4488 -2.1131
  677MOL0     H91363  10.564   1.856   3.451  0.1228 -0.2714 -0.2413
  677MOL0     H91364  10.547   1.710   3.544 -0.0741 -0.1201 -0.5555
  677MOL0     H91365  10.453   1.982   3.658  4.8895 -0.5738 -0.2971
  677MOL0     H91366  10.401   1.819   3.712  1.5017 -0.7610  0.4477
  677MOL0     H91367  10.285   1.788   3.486  1.5019  0.3237 -1.8820
  677MOL0     H91368  10.336   1.939   3.432 -1.4284 -0.1360 -0.0932
  677MOL0     H91369  10.135   1.875   3.665 -2.7846 -0.2593  0.3162
  677MOL0     H91370  10.221   2.036   3.654  0.8627 -0.1057 -1.8880
  677MOL0     H91371  10.109   2.098   3.469  1.2884  0.9227  2.9878
  677MOL0     H91372   9.982   2.023   3.562  0.6706  1.0231  0.8368
  677MOL0     H91373  10.106   1.857   3.343 -2.2022 -0.8789 -2.9659
  677MOL0     H91374   9.989   1.807   3.453 -2.2665 -0.9108 -3.8384
  677MOL0     H91375  10.901   1.548   3.875  1.6766 -1.1625  0.5015
  677MOL0     H91376  10.902   1.452   4.102  2.1194  2.1536  1.9089
  677MOL0     H91377  10.628   1.434   4.457  2.3089 -2.7305 -0.3779
  677MOL0     H91378  10.586   1.296   4.660 -1.6549  0.5199  1.6553
  677MOL0     H91379   9.289   1.252   5.226  0.8713  3.1386 -3.1735
  677MOL0     H91380   9.037   1.184   5.193 -0.7742 -2.3075  0.5833
  677MOL0     H91381   8.779   0.860   4.945 -1.2195 -2.1739 -2.6545
  677MOL0     H91382   8.564   0.777   4.911 -0.6589 -0.1449  0.2600
  677MOL0     H91383   8.277   1.047   4.681 -1.5847  1.8851  1.1190
  677MOL0     H91384   8.227   1.071   4.846 -1.4173 -0.7145  0.8889
  677MOL0     H91385   8.158   0.818   4.694 -0.0769  0.9821 -0.4583
  677MOL0     H91386   8.086   0.972   4.664  3.0935 -0.8394 -1.9358
  677MOL0     H91387   8.075   0.799   4.918  1.3704  1.7951  0.4059
  677MOL0     H91388   7.942   0.831   4.818 -0.8891  2.8384  0.1375
  677MOL0     H91389   8.073   1.008   5.033  0.0902  0.8219  0.0724
  677MOL0     H91390   8.024   1.098   4.893 -0.8385 -0.2474  0.0972
  677MOL0     H91391   7.687   1.020   5.122 -1.3429  0.2672 -2.0231
  677MOL0     H91392   8.446   1.144   4.740 -0.7640 -1.5422 -1.1970
  677MOL0     H91393   8.698   1.337   4.876 -0.9918  0.5906 -0.1401
  677MOL0     H91394   8.754   1.295   4.706  1.5187  1.4356  0.8686
  677MOL0     H91395   8.584   1.333   4.761  1.5175  2.6538  1.3077
  678MOL0     O91396   1.655   6.106   5.068 -0.2181 -0.1336  0.0327
  678MOL0     C91397   1.564   6.152   5.002  0.1650  0.1962  0.1523
  678MOL0     O91398   1.573   6.243   4.895 -0.2335 -0.3945 -0.1245
  678MOL0     C91399   1.698   6.283   4.867 -0.1292 -0.2662  0.6836
  678MOL0     C91400   1.761   6.372   4.959 -0.7069 -0.6516 -0.2137
  678MOL0     C91401   1.882   6.429   4.927 -0.4374  0.3655 -0.2139
  678MOL0     C91402   1.951   6.390   4.807 -0.3781 -0.4939 -1.2053
  678MOL0     O91403   2.073   6.451   4.780  0.1583  0.5371 -0.4603
  678MOL0     C91404   2.112   6.458   4.641  0.1174 -0.1947 -0.0293
  678MOL0     C91405   2.230   6.377   4.614  0.4960 -0.0657  0.1370
  678MOL0     C91406   2.363   6.424   4.675  0.0698 -0.7028 -0.0179
  678MOL0     C91407   2.419   6.573   4.653 -0.2336  0.0843 -0.1878
  678MOL0     C91408   2.509   6.628   4.757 -0.2134  0.2059 -0.6236
  678MOL0     C91409   2.446   6.665   4.885  0.5027  0.4911 -0.3292
  678MOL0     C91410   2.528   6.764   4.972  0.3535 -0.7632  0.5451
  678MOL0     C91411   2.657   6.693   5.024 -0.1020 -0.9319  0.6610
  678MOL0     N91412   2.778   6.759   4.965 -0.4784  0.5035  0.2011
  678MOL0     C91413   2.895   6.689   4.959  0.6327 -0.5995  0.4274
  678MOL0     C91414   2.982   6.779   4.914  0.1092  0.7897 -0.0248
  678MOL0     C91415   3.121   6.774   4.866  0.3496 -0.1548  1.1436
  678MOL0     C91416   3.123   6.774   4.710 -0.4124 -0.0673  0.0554
  678MOL0     C91417   3.229   6.676   4.654  1.0515 -0.3053 -0.3018
  678MOL0     C91418   3.224   6.659   4.506  0.3037 -0.5508  0.2277
  678MOL0     O91419   3.293   6.765   4.433 -0.2151  0.2973 -0.5109
  678MOL0     C91420   3.423   6.732   4.405 -0.0232 -0.5453 -0.9459
  678MOL0     C91421   3.523   6.808   4.479  0.4599  0.3211  0.0976
  678MOL0     C91422   3.658   6.783   4.445  0.5593 -0.5437  0.4450
  678MOL0     C91423   3.698   6.694   4.344 -0.2522 -0.3539 -0.8133
  678MOL0     C91424   3.839   6.679   4.306 -0.2126  0.5197  0.0225
  678MOL0     O91425   3.861   6.631   4.175 -0.2471  0.2486 -0.3993
  678MOL0     C91426   3.995   6.634   4.129  0.0747 -0.0587 -0.5089
  678MOL0     C91427   4.024   6.730   4.033  0.4652 -0.3627  0.1110
  678MOL0     C91428   4.149   6.751   3.975 -0.4468  0.4066 -0.5474
  678MOL0     C91429   4.259   6.669   4.011  1.6449 -0.6639 -0.5777
  678MOL0     O91430   4.363   6.672   3.927 -0.1543  0.4802 -0.2683
  678MOL0     C91431   4.490   6.609   3.974 -0.2362  0.9578  0.2714
  678MOL0     C91432   4.569   6.704   4.063  0.5272  0.5169 -0.4326
  678MOL0     C91433   4.711   6.660   4.117  0.5827  1.1557  0.7191
  678MOL0     C91434   4.708   6.513   4.168 -0.3699  0.1241 -0.2343
  678MOL0     C91435   4.859   6.472   4.196  0.8382 -0.0184  0.7891
  678MOL0     C91436   4.877   6.340   4.270  0.3446 -0.6740  0.0437
  678MOL0     C91437   5.007   6.261   4.250  0.1751 -0.5727  0.5204
  678MOL0     C91438   5.124   6.333   4.200 -0.6484  0.1630 -0.2963
  678MOL0    Cl91439   5.174   6.474   4.295 -0.2323 -0.5288  0.0318
  678MOL0     C91440   4.235   6.583   4.122  0.0439  0.2320  0.3133
  678MOL0     C91441   4.109   6.546   4.171  0.2242  0.0409 -0.4613
  678MOL0     O91442   3.930   6.723   4.379 -0.2261  0.0648  0.0329
  678MOL0     C91443   3.599   6.623   4.272  0.4521 -0.1179 -0.2117
  678MOL0     C91444   3.461   6.638   4.308 -0.7679 -0.1778  0.0202
  678MOL0     N91445   2.919   6.901   4.907 -0.5294  0.2664 -0.2740
  678MOL0     N91446   2.801   6.891   4.952  0.3290 -0.6778 -0.2468
  678MOL0     C91447   1.893   6.302   4.720  0.3876  0.7781  0.2275
  678MOL0     C91448   1.768   6.243   4.752  0.4444 -0.5207 -0.3412
  678MOL0     C91449   1.423   6.104   5.025  0.9463  0.0602 -0.8567
  678MOL0     C91450   1.324   6.164   4.947 -0.7195  0.7670  0.4636
  678MOL0     C91451   1.188   6.132   4.967  0.3391  0.4942  0.9097
  678MOL0     C91452   1.146   6.045   5.062 -0.0733 -0.5719  0.4370
  678MOL0     O91453   1.018   6.012   5.068 -0.2007  0.1964  0.0400
  678MOL0     C91454   0.967   5.924   5.170  0.1976 -0.3324  0.5319
  678MOL0     C91455   0.816   5.925   5.181  1.0446 -0.7040  0.0084
  678MOL0     C91456   0.744   5.899   5.041  0.5675  0.2338  0.2784
  678MOL0     C91457   0.591   5.907   5.053  0.8307  0.6998 -0.6702
  678MOL0     C91458   0.524   5.817   5.147 -0.0275  0.3191  0.2740
  678MOL0     C91459   0.476   5.737   5.224 -0.1534 -0.8245 -0.5710
  678MOL0     C91460   1.246   5.993   5.148  1.2011 -1.1985  0.2778
  678MOL0     C91461   1.382   6.019   5.134 -0.0904  0.4933  0.1297
  678MOL0     C91462   1.471   5.940   5.219  0.4166  0.2222 -0.3147
  678MOL0     H91463   1.717   6.402   5.054 -1.3827 -3.6139  0.5245
  678MOL0     H91464   1.937   6.496   4.992 -0.6962  1.0282 -0.6642
  678MOL0     H91465   2.030   6.442   4.570 -0.3072 -1.5632  0.7475
  678MOL0     H91466   2.142   6.563   4.630  1.0278 -0.6537 -2.6502
  678MOL0     H91467   2.253   6.370   4.507  1.2615  1.6285  0.1560
  678MOL0     H91468   2.222   6.274   4.650 -0.2885 -0.1770 -0.3340
  678MOL0     H91469   2.445   6.364   4.634  0.0501 -0.9795  0.3446
  678MOL0     H91470   2.361   6.403   4.782  4.3663 -1.3380  0.1106
  678MOL0     H91471   2.485   6.570   4.566 -2.2070 -1.3472 -1.7302
  678MOL0     H91472   2.336   6.642   4.638 -2.3060 -2.7143 -2.6990
  678MOL0     H91473   2.586   6.554   4.776 -2.6765 -2.1184  0.9926
  678MOL0     H91474   2.564   6.716   4.723 -1.0700  0.7745 -0.5702
  678MOL0     H91475   2.343   6.696   4.868  0.3874 -0.1749 -0.9027
  678MOL0     H91476   2.420   6.574   4.941  0.0430  1.6302  1.3618
  678MOL0     H91477   2.457   6.787   5.052 -1.1058 -3.2469  0.0780
  678MOL0     H91478   2.536   6.857   4.916 -0.4382 -1.5355 -0.8892
  678MOL0     H91479   2.661   6.697   5.133 -0.9821  0.1772  0.6717
  678MOL0     H91480   2.662   6.590   4.985 -0.4685 -0.9132  0.5630
  678MOL0     H91481   2.918   6.586   4.984 -0.0529 -0.6070  1.0680
  678MOL0     H91482   3.167   6.868   4.897  1.7280 -0.3264 -0.2363
  678MOL0     H91483   3.179   6.697   4.917  1.4575  0.8261  1.3894
  678MOL0     H91484   3.024   6.749   4.671  0.1113 -0.4971 -1.0079
  678MOL0     H91485   3.152   6.872   4.671  1.2939 -1.2692 -1.8330
  678MOL0     H91486   3.230   6.580   4.707  3.6345  1.5151  3.3754
  678MOL0     H91487   3.322   6.725   4.682  0.1226  0.7724  1.0344
  678MOL0     H91488   3.117   6.656   4.482 -0.1365  1.1713  1.7581
  678MOL0     H91489   3.272   6.561   4.501  2.8607  0.6137  0.2841
  678MOL0     H91490   3.493   6.874   4.559  0.2765  1.1768 -0.6618
  678MOL0     H91491   3.735   6.839   4.496 -0.2050  1.5614 -0.5914
  678MOL0     H91492   3.936   6.781   3.995  0.7720 -1.2247 -1.8897
  678MOL0     H91493   4.184   6.816   3.896  0.3397  0.1942 -0.3779
  678MOL0     H91494   4.480   6.509   4.017 -0.2763 -0.9300 -3.7118
  678MOL0     H91495   4.542   6.602   3.878 -3.2227  0.3698 -1.4004
  678MOL0     H91496   4.565   6.799   4.009 -2.1759 -0.2626 -1.7338
  678MOL0     H91497   4.509   6.713   4.154  0.4005 -4.1472  0.1813
  678MOL0     H91498   4.778   6.657   4.030  0.3458 -0.6132  0.5771
  678MOL0     H91499   4.738   6.738   4.189 -1.6229  2.8195 -0.1439
  678MOL0     H91500   4.670   6.448   4.088 -0.6898 -0.0305  0.0413
  678MOL0     H91501   4.652   6.491   4.259  1.2280 -3.1116  0.1394
  678MOL0     H91502   4.905   6.560   4.243 -2.3569  1.1093  2.1055
  678MOL0     H91503   4.902   6.463   4.096  2.8092  0.0167  1.5857
  678MOL0     H91504   4.869   6.364   4.377  1.4185  1.4488 -0.2943
  678MOL0     H91505   4.794   6.271   4.248  0.4498 -0.1609 -2.2399
  678MOL0     H91506   4.986   6.170   4.194 -1.2631 -0.5821  1.0446
  678MOL0     H91507   5.032   6.229   4.351 -0.2440  3.6876  2.2023
  678MOL0     H91508   5.198   6.253   4.193 -1.4938 -0.6300 -0.3263
  678MOL0     H91509   5.106   6.372   4.100 -0.1158  3.4697  0.7817
  678MOL0     H91510   4.322   6.544   4.174  0.0720 -1.0138 -0.6252
  678MOL0     H91511   4.095   6.474   4.251  0.3158 -0.3023 -0.7513
  678MOL0     H91512   3.623   6.558   4.189  0.3534  0.0363 -0.3611
  678MOL0     H91513   3.380   6.599   4.247 -0.4690 -0.2755 -0.3194
  678MOL0     H91514   1.929   6.273   4.622 -0.1836 -3.6852  1.0962
  678MOL0     H91515   1.717   6.173   4.686  2.1077 -0.3633 -1.8627
  678MOL0     H91516   1.359   6.241   4.878  2.6103  0.2225  1.3639
  678MOL0     H91517   1.108   6.176   4.908 -0.6230 -0.7456  1.2621
  678MOL0     H91518   1.012   5.933   5.269  0.8978  1.9934  0.0705
  678MOL0     H91519   0.984   5.826   5.123 -1.7236  0.5216 -2.1869
  678MOL0     H91520   0.789   6.018   5.232  2.5245  0.1083 -0.6258
  678MOL0     H91521   0.784   5.842   5.245 -0.9035 -0.4930 -0.6244
  678MOL0     H91522   0.775   5.806   4.991 -1.8805 -0.6642  0.3330
  678MOL0     H91523   0.756   5.982   4.970 -1.6668 -1.4578 -2.2618
  678MOL0     H91524   0.566   5.998   5.109 -3.6050 -0.6808  0.0478
  678MOL0     H91525   0.531   5.906   4.961  0.0804  0.0074 -0.1912
  678MOL0     H91526   0.447   5.670   5.303  0.6486  0.5395  0.9574
  678MOL0     H91527   1.215   5.931   5.231  0.6673  1.9266  2.5675
  678MOL0     H91528   1.426   5.858   5.275  0.7942 -2.4559 -3.6082
  678MOL0     H91529   1.541   5.885   5.156  0.3727  0.7821 -0.8659
  678MOL0     H91530   1.525   6.015   5.277 -1.9205  2.0060 -0.2990
  679MOL0     O91531  10.358   6.087   9.483  0.0734  0.6214 -0.0745
  679MOL0     C91532  10.308   6.191   9.493 -0.6420  0.1028 -0.3910
  679MOL0     O91533  10.376   6.310   9.485  0.6946 -0.5220  0.3557
  679MOL0     C91534  10.513   6.300   9.483  0.0040 -0.4801  0.2206
  679MOL0     C91535  10.589   6.236   9.381 -0.3268 -1.0832  0.3942
  679MOL0     C91536  10.733   6.240   9.390 -0.1329  0.3870  0.2937
  679MOL0     C91537  10.801   6.313   9.493  0.2023 -0.1554  0.5541
  679MOL0     O91538  10.936   6.310   9.470  0.2599  0.0927  0.1686
  679MOL0     C91539  11.001   6.417   9.536  0.3245  0.9427 -0.0067
  679MOL0     C91540  11.142   6.447   9.472 -0.8094 -0.3412  0.2340
  679MOL0     C91541  11.137   6.450   9.321 -0.6888 -0.2555 -0.5519
  679MOL0     C91542  11.271   6.509   9.261  0.9759  0.3898 -1.0609
  679MOL0     C91543  11.269   6.522   9.106 -0.2324 -0.3453 -0.1435
  679MOL0     C91544  11.353   6.411   9.031  0.2089  0.2094  0.4719
  679MOL0     C91545  11.362   6.468   8.885  0.2540 -0.3811  0.1765
  679MOL0     C91546  11.455   6.373   8.804  0.0976  0.2512  0.4558
  679MOL0     N91547  11.606   6.394   8.830 -0.2466 -0.0033 -0.2724
  679MOL0     C91548  11.680   6.482   8.757 -0.3369  0.2402  0.1012
  679MOL0     C91549  11.801   6.473   8.808 -0.0795  1.9615  0.2586
  679MOL0     C91550  11.923   6.528   8.752 -0.8145 -0.0208  0.8710
  679MOL0     C91551  12.007   6.591   8.868  0.0578  0.4684  0.2947
  679MOL0     C91552  12.114   6.683   8.806  0.1797 -0.2747 -0.4696
  679MOL0     C91553  12.235   6.707   8.884  0.1830  0.3863  0.7898
  679MOL0     O91554  12.321   6.770   8.791 -0.0973 -0.2073  0.2769
  679MOL0     C91555  12.451   6.767   8.833 -0.0616  0.2203  0.1788
  679MOL0     C91556  12.542   6.704   8.750  0.5281  0.0715 -0.2655
  679MOL0     C91557  12.677   6.728   8.773 -0.1109 -0.0221 -0.0352
  679MOL0     C91558  12.726   6.814   8.879  0.6624  0.7744  0.7427
  679MOL0     C91559  12.863   6.851   8.883 -0.3020 -0.2506  0.1795
  679MOL0     O91560  12.934   6.816   8.770 -0.1832  0.6835 -0.5616
  679MOL0     C91561  13.071   6.786   8.776  0.2770  0.1897  0.3993
  679MOL0     C91562  13.123   6.712   8.880  1.1015  0.1372 -0.2907
  679MOL0     C91563  13.267   6.703   8.900 -0.0771 -0.2919 -0.4192
  679MOL0     C91564  13.344   6.769   8.805 -1.1110 -0.2429  0.1488
  679MOL0     O91565  13.481   6.768   8.795 -0.4356  0.3638  0.4086
  679MOL0     C91566  13.525   6.628   8.809 -0.2066 -0.0007  0.0633
  679MOL0     C91567  13.668   6.605   8.783  0.7508 -0.6685  0.3336
  679MOL0     C91568  13.768   6.666   8.888 -0.0561 -0.0760 -0.4505
  679MOL0     C91569  13.907   6.672   8.820 -0.1609 -0.2421  0.2697
  679MOL0     C91570  13.948   6.533   8.759  0.0845 -0.3248 -0.0018
  679MOL0     C91571  14.098   6.533   8.722  0.5282  0.4861  0.4034
  679MOL0     C91572  14.132   6.620   8.601 -0.5905  0.4716 -0.0694
  679MOL0     C91573  14.283   6.634   8.582 -0.7708 -0.2238 -0.9567
  679MOL0    Cl91574  14.338   6.494   8.492  0.2442  0.0568  0.0714
  679MOL0     C91575  13.287   6.846   8.710  0.0601 -0.6017  0.5621
  679MOL0     C91576  13.146   6.844   8.685  0.4228 -1.0391 -0.4943
  679MOL0     O91577  12.904   6.897   8.994 -0.0325 -0.3922  0.7247
  679MOL0     C91578  12.632   6.879   8.957 -0.2819  0.7684  0.5713
  679MOL0     C91579  12.500   6.849   8.933  0.2130 -0.9504  0.8031
  679MOL0     N91580  11.806   6.377   8.912  0.4358 -0.4237 -0.1017
  679MOL0     N91581  11.682   6.340   8.926 -0.1902 -0.1507 -0.3224
  679MOL0     C91582  10.725   6.366   9.593  0.8583 -0.1645 -0.0770
  679MOL0     C91583  10.582   6.359   9.594 -0.3336 -0.8568  0.3394
  679MOL0     C91584  10.166   6.199   9.498  0.4399  0.0092 -0.7690
  679MOL0     C91585  10.096   6.311   9.446 -0.3804  0.2309  0.2557
  679MOL0     C91586   9.959   6.315   9.434  0.0148  0.2004  0.9019
  679MOL0     C91587   9.881   6.220   9.488  0.3015  0.0227  0.4439
  679MOL0     O91588   9.751   6.222   9.500  0.3969  0.4862  0.0905
  679MOL0     C91589   9.687   6.268   9.380  0.1372 -0.4202  0.4305
  679MOL0     C91590   9.563   6.170   9.354  1.2943  0.4462 -0.6172
  679MOL0     C91591   9.594   6.033   9.290 -0.1051 -0.5722  0.3049
  679MOL0     C91592   9.482   5.923   9.307  0.3329 -0.3467  0.3455
  679MOL0     C91593   9.521   5.785   9.290 -0.5189 -0.5546 -0.4677
  679MOL0     C91594   9.564   5.674   9.270 -0.1273 -0.5191 -0.9570
  679MOL0     C91595   9.948   6.114   9.541 -0.1523  0.4668 -0.3503
  679MOL0     C91596  10.090   6.093   9.540 -0.1629 -0.6076  0.2129
  679MOL0     C91597  10.139   5.973   9.612  0.7782 -0.0057  0.0169
  679MOL0     H91598  10.533   6.186   9.302 -0.5707  0.4041 -0.4114
  679MOL0     H91599  10.793   6.196   9.312 -0.9174 -0.7147  0.2970
  679MOL0     H91600  10.944   6.509   9.518  1.2442  1.3143 -1.2040
  679MOL0     H91601  11.009   6.386   9.641  1.2716 -2.8326 -1.0379
  679MOL0     H91602  11.209   6.365   9.501 -1.4272 -0.9071  0.0971
  679MOL0     H91603  11.188   6.540   9.504  1.3382 -0.0516 -3.2528
  679MOL0     H91604  11.058   6.522   9.300 -0.0227  0.4223 -0.8056
  679MOL0     H91605  11.113   6.351   9.280  2.1048 -0.9168 -0.8573
  679MOL0     H91606  11.297   6.605   9.306  0.8613  0.0450 -0.2326
  679MOL0     H91607  11.345   6.431   9.281 -2.2350 -2.6476  0.2112
  679MOL0     H91608  11.166   6.523   9.071 -1.7366 -3.3478  3.4577
  679MOL0     H91609  11.323   6.616   9.091 -0.6733  0.0771  0.8383
  679MOL0     H91610  11.452   6.397   9.076  1.7618 -0.0104 -2.7011
  679MOL0     H91611  11.303   6.314   9.038 -0.1778  0.5138  4.8368
  679MOL0     H91612  11.405   6.567   8.873 -1.1640  0.6893  3.0131
  679MOL0     H91613  11.259   6.482   8.850  0.9825  3.7128 -0.8394
  679MOL0     H91614  11.419   6.272   8.829 -2.1983  0.7154 -0.7094
  679MOL0     H91615  11.439   6.373   8.696  4.2913 -2.7377 -0.4685
  679MOL0     H91616  11.640   6.547   8.681  0.7547 -1.4352 -2.0383
  679MOL0     H91617  11.982   6.449   8.705  0.6398  0.0464  2.4569
  679MOL0     H91618  11.896   6.596   8.670 -0.0164 -2.6968 -1.7985
  679MOL0     H91619  11.936   6.644   8.931 -1.7148 -4.2920  2.7324
  679MOL0     H91620  12.047   6.512   8.932  4.6036  0.5970 -1.9864
  679MOL0     H91621  12.065   6.775   8.773 -0.4370  0.5036  2.3824
  679MOL0     H91622  12.141   6.637   8.710  2.2747  2.1336 -1.1554
  679MOL0     H91623  12.283   6.614   8.914  0.0250  1.0131  3.1522
  679MOL0     H91624  12.212   6.770   8.971  0.4814  0.4155  0.8469
  679MOL0     H91625  12.521   6.641   8.664  2.9541  0.3008 -1.1109
  679MOL0     H91626  12.752   6.689   8.704 -0.8101  0.2171 -0.9604
  679MOL0     H91627  13.053   6.653   8.939  0.7799 -0.9504 -1.7092
  679MOL0     H91628  13.305   6.646   8.984 -2.8554  0.6878  1.6058
  679MOL0     H91629  13.511   6.595   8.912 -0.1036 -0.2238  0.0076
  679MOL0     H91630  13.462   6.562   8.748 -1.7862  1.2181  0.3003
  679MOL0     H91631  13.683   6.497   8.780  1.5508 -0.5465 -1.4269
  679MOL0     H91632  13.683   6.656   8.687 -0.6949  0.4484  0.6629
  679MOL0     H91633  13.746   6.770   8.913 -0.7080  0.0879 -1.6417
  679MOL0     H91634  13.765   6.599   8.974  0.9564  0.1927 -0.1975
  679MOL0     H91635  13.978   6.699   8.899 -3.1458 -1.1981  3.5581
  679MOL0     H91636  13.910   6.751   8.745  0.2779 -0.4812  0.0299
  679MOL0     H91637  13.887   6.506   8.672  1.5591 -3.7296 -0.1604
  679MOL0     H91638  13.922   6.455   8.833  3.0673  0.6370  2.2632
  679MOL0     H91639  14.152   6.564   8.812  1.5030 -1.2583  0.4629
  679MOL0     H91640  14.135   6.432   8.704  0.0077 -0.1387  2.6385
  679MOL0     H91641  14.092   6.722   8.601 -0.8100  0.4697 -3.0380
  679MOL0     H91642  14.088   6.579   8.509 -0.7718 -0.6928  0.5127
  679MOL0     H91643  14.314   6.723   8.527  1.7625 -0.7267 -0.4605
  679MOL0     H91644  14.332   6.641   8.680  3.0000 -0.0610 -2.7057
  679MOL0     H91645  13.348   6.910   8.647 -0.5847  0.5068  1.0402
  679MOL0     H91646  13.100   6.902   8.605 -4.4873 -2.2307  1.1358
  679MOL0     H91647  12.668   6.951   9.030  3.0808 -1.6162  1.4603
  679MOL0     H91648  12.433   6.895   9.005  1.4477  3.2026 -0.4223
  679MOL0     H91649  10.785   6.401   9.676 -0.5452 -1.1916  1.4531
  679MOL0     H91650  10.526   6.423   9.661 -1.2446  1.0647 -2.0989
  679MOL0     H91651  10.153   6.397   9.414 -1.1767  0.3799 -0.7971
  679MOL0     H91652   9.916   6.404   9.388 -0.5607 -0.4477  0.1424
  679MOL0     H91653   9.751   6.278   9.292  0.2697  2.7812  0.7714
  679MOL0     H91654   9.651   6.371   9.392 -2.0721 -1.2527  1.6566
  679MOL0     H91655   9.474   6.210   9.303  2.0824  3.2605  0.0557
  679MOL0     H91656   9.525   6.140   9.451 -2.9181 -0.8913 -2.4357
  679MOL0     H91657   9.689   6.003   9.337 -1.0918 -2.3885  1.2490
  679MOL0     H91658   9.610   6.032   9.182 -0.7505 -2.2673  0.1988
  679MOL0     H91659   9.441   5.920   9.408 -1.1080  1.1573 -0.1439
  679MOL0     H91660   9.399   5.958   9.244 -1.3758  0.8266  3.0717
  679MOL0     H91661   9.616   5.582   9.254  3.0946  0.8529  0.7599
  679MOL0     H91662   9.889   6.034   9.585  1.4028  0.3066  1.5642
  679MOL0     H91663  10.148   5.885   9.547  0.2355  1.1276 -1.6514
  679MOL0     H91664  10.232   5.997   9.665 -0.3264  1.4082  1.3908
  679MOL0     H91665  10.065   5.947   9.688 -1.8778  0.2590 -2.3327
  680MOL0     O91666   0.496   2.013   7.364 -0.0544 -0.8405  0.6427
  680MOL0     C91667   0.503   1.897   7.407  0.6414  0.2668  0.3289
  680MOL0     O91668   0.612   1.832   7.446 -0.0755  0.0937 -0.4930
  680MOL0     C91669   0.744   1.866   7.430 -0.0264  0.3968  0.2170
  680MOL0     C91670   0.777   1.959   7.334  0.4110 -1.1610 -0.1418
  680MOL0     C91671   0.909   1.995   7.325 -0.7026  0.2449 -0.3265
  680MOL0     C91672   1.008   1.938   7.411  0.1462 -0.2424  0.8690
  680MOL0     O91673   1.139   1.973   7.407  0.5222 -0.1660  0.1540
  680MOL0     C91674   1.201   1.995   7.279  0.2225  0.4010  1.0300
  680MOL0     C91675   1.358   1.985   7.297  0.2919 -0.5970  0.1270
  680MOL0     C91676   1.432   2.023   7.172  0.1403  0.5385  0.2105
  680MOL0     C91677   1.583   2.000   7.202  0.7471 -0.3716 -0.0762
  680MOL0     C91678   1.659   2.031   7.074  0.0739  0.0182  0.0051
  680MOL0     C91679   1.800   1.964   7.062  0.1913 -0.2364 -0.0311
  680MOL0     C91680   1.918   2.006   7.164 -0.2977 -0.4793 -0.2161
  680MOL0     C91681   2.043   1.919   7.128 -0.3491 -0.2377 -0.5327
  680MOL0     N91682   2.170   1.952   7.198  0.6125 -0.4283  0.1007
  680MOL0     C91683   2.199   1.904   7.328  0.2641 -0.6351  0.4356
  680MOL0     C91684   2.313   1.954   7.362 -0.3089  0.5863 -0.9678
  680MOL0     C91685   2.378   1.932   7.490 -0.3749 -0.2627 -0.3349
  680MOL0     C91686   2.535   1.960   7.489  0.5042 -0.3522  0.5053
  680MOL0     C91687   2.591   1.917   7.620  0.1534 -0.7781  0.0496
  680MOL0     C91688   2.745   1.914   7.613 -1.1412 -1.1097  0.3942
  680MOL0     O91689   2.795   1.888   7.746  0.2528 -0.6247 -0.1577
  680MOL0     C91690   2.931   1.877   7.749 -0.4651 -1.0524  0.5227
  680MOL0     C91691   3.006   1.971   7.816 -0.1813 -0.8409  0.7193
  680MOL0     C91692   3.147   1.951   7.826  0.7595  0.5094  0.4421
  680MOL0     C91693   3.213   1.835   7.778 -0.1875  0.9773  0.1273
  680MOL0     C91694   3.352   1.790   7.792 -0.4746 -0.6365 -0.4347
  680MOL0     O91695   3.392   1.682   7.724  0.5976 -0.3741  0.3474
  680MOL0     C91696   3.519   1.641   7.727 -1.4983  0.6697 -0.3546
  680MOL0     C91697   3.539   1.506   7.752  0.8432 -0.0842  0.6739
  680MOL0     C91698   3.666   1.451   7.761 -0.6385  0.0963 -0.6075
  680MOL0     C91699   3.786   1.521   7.732 -0.4051  0.3500 -0.0394
  680MOL0     O91700   3.914   1.485   7.757 -0.0628 -0.3140  0.6943
  680MOL0     C91701   3.964   1.387   7.666  0.3330  0.2315  0.4079
  680MOL0     C91702   4.118   1.369   7.685  0.0160 -0.3433 -0.2531
  680MOL0     C91703   4.197   1.480   7.616 -0.0090  0.2596 -0.2733
  680MOL0     C91704   4.334   1.506   7.675 -0.6401  0.7455  0.5407
  680MOL0     C91705   4.415   1.603   7.589 -0.6028 -0.0745  0.1227
  680MOL0     C91706   4.560   1.571   7.600 -0.1009 -0.3395  0.1092
  680MOL0     C91707   4.616   1.449   7.531  0.5990  0.3747 -0.2102
  680MOL0     C91708   4.767   1.440   7.552 -0.0592 -1.0778  0.9774
  680MOL0    Cl91709   4.850   1.337   7.429 -0.3503  0.2871 -0.4421
  680MOL0     C91710   3.767   1.654   7.693  0.1798 -0.1706 -1.0569
  680MOL0     C91711   3.636   1.716   7.693 -0.2663 -0.5031 -0.3986
  680MOL0     O91712   3.421   1.877   7.844 -0.3932  0.1365 -0.0741
  680MOL0     C91713   3.132   1.748   7.698 -0.3010 -1.1547  0.8067
  680MOL0     C91714   2.994   1.768   7.692  0.1299  0.8714  0.1691
  680MOL0     N91715   2.355   2.046   7.265 -0.1579 -0.2753  0.2174
  680MOL0     N91716   2.282   2.031   7.156  0.4603 -0.2779 -0.0760
  680MOL0     C91717   0.978   1.838   7.506  0.1527  0.2410 -0.3231
  680MOL0     C91718   0.838   1.806   7.516 -0.5284 -0.5224 -0.2326
  680MOL0     C91719   0.372   1.838   7.445 -0.1125 -0.5402 -0.3211
  680MOL0     C91720   0.370   1.725   7.527 -0.4545  0.5583  0.1493
  680MOL0     C91721   0.252   1.674   7.593 -0.0967  0.1475 -0.1628
  680MOL0     C91722   0.126   1.742   7.576 -0.5768  0.5950  0.4709
  680MOL0     O91723   0.012   1.699   7.637  0.3546 -0.2304 -0.4108
  680MOL0     C91724   0.005   1.588   7.730 -0.2289 -1.2041  0.0949
  680MOL0     C91725  -0.128   1.604   7.792  0.5946 -0.0096 -0.4667
  680MOL0     C91726  -0.155   1.509   7.902  0.0225  0.8407  0.0680
  680MOL0     C91727  -0.304   1.513   7.941  0.1892  0.3998  0.2353
  680MOL0     C91728  -0.397   1.463   7.834 -0.1420  0.0223  1.2716
  680MOL0     C91729  -0.470   1.432   7.743 -0.4139 -0.1607  0.9166
  680MOL0     C91730   0.122   1.856   7.497 -0.9562  0.4773 -0.0734
  680MOL0     C91731   0.243   1.901   7.435  0.6388 -0.2502  0.3608
  680MOL0     C91732   0.218   2.015   7.346  0.4841 -0.3734 -0.7526
  680MOL0     H91733   0.712   2.004   7.259  0.1020  0.9823  1.3337
  680MOL0     H91734   0.937   2.073   7.254 -1.0495  0.1504 -0.5700
  680MOL0     H91735   1.172   1.925   7.200 -2.1690  3.2744 -0.8417
  680MOL0     H91736   1.173   2.093   7.241  1.4282  0.2928 -0.2032
  680MOL0     H91737   1.391   1.883   7.320 -1.6705 -1.7514 -1.8514
  680MOL0     H91738   1.386   2.061   7.371  0.8545 -1.3751  0.7350
  680MOL0     H91739   1.420   2.129   7.151  0.5939  0.9295  1.7680
  680MOL0     H91740   1.391   1.979   7.081 -1.5463  4.3145 -1.0459
  680MOL0     H91741   1.601   2.059   7.293 -0.7498  1.3972 -0.8481
  680MOL0     H91742   1.594   1.894   7.224 -1.4767 -0.3721  1.4613
  680MOL0     H91743   1.601   1.989   6.991 -0.9195  3.6772 -1.3099
  680MOL0     H91744   1.666   2.137   7.052  1.9306  0.0057  0.3850
  680MOL0     H91745   1.780   1.856   7.065 -3.7254  0.3524  0.1257
  680MOL0     H91746   1.835   1.993   6.962  2.4155  0.1845  0.8179
  680MOL0     H91747   1.893   1.987   7.269 -2.2561  0.8775 -0.3943
  680MOL0     H91748   1.932   2.114   7.151  0.1840 -0.2272  1.9043
  680MOL0     H91749   2.021   1.817   7.163 -1.5633  0.7974  2.0123
  680MOL0     H91750   2.059   1.920   7.020 -2.1702  3.6601 -0.9248
  680MOL0     H91751   2.144   1.833   7.388  0.8322 -1.0694  0.4448
  680MOL0     H91752   2.342   2.001   7.567  3.0065  2.5191 -0.9816
  680MOL0     H91753   2.367   1.828   7.522 -2.6333  0.6592  2.3429
  680MOL0     H91754   2.587   1.901   7.412  0.7508 -0.4131  0.7166
  680MOL0     H91755   2.555   2.067   7.486  0.0495 -0.2817 -0.2584
  680MOL0     H91756   2.556   1.817   7.645  1.2622 -1.4307 -0.8717
  680MOL0     H91757   2.560   1.984   7.701  0.1859  0.2672 -0.7885
  680MOL0     H91758   2.785   2.010   7.578 -1.9805  0.3946  3.2346
  680MOL0     H91759   2.775   1.838   7.540 -1.9011 -0.4509 -0.6451
  680MOL0     H91760   2.963   2.063   7.855 -2.4640 -1.6533  0.2730
  680MOL0     H91761   3.210   2.029   7.868  0.5580  1.4510 -0.9357
  680MOL0     H91762   3.449   1.452   7.780 -2.6178  3.5735 -2.2272
  680MOL0     H91763   3.668   1.343   7.770 -1.7351 -0.0475 -1.8449
  680MOL0     H91764   3.912   1.292   7.679  1.2050 -0.3170 -0.0063
  680MOL0     H91765   3.945   1.420   7.563 -0.7967 -0.2820  0.4425
  680MOL0     H91766   4.140   1.355   7.791  0.8086  0.4610 -0.3033
  680MOL0     H91767   4.148   1.276   7.635  0.2846 -0.9889  1.0706
  680MOL0     H91768   4.224   1.460   7.512  1.3949 -0.5506  0.2301
  680MOL0     H91769   4.133   1.569   7.621 -2.2834 -1.1773 -1.7080
  680MOL0     H91770   4.392   1.414   7.686  0.7031  1.4440 -0.2938
  680MOL0     H91771   4.330   1.540   7.779  2.7863 -1.4913  1.5994
  680MOL0     H91772   4.396   1.701   7.634 -0.3769  0.6923 -1.3903
  680MOL0     H91773   4.394   1.605   7.482 -1.2910 -0.1584  0.2530
  680MOL0     H91774   4.616   1.652   7.552 -0.4652 -1.0623 -1.6219
  680MOL0     H91775   4.588   1.564   7.705 -1.0602  1.5642  0.5307
  680MOL0     H91776   4.575   1.455   7.430  0.4265  0.3260 -0.1437
  680MOL0     H91777   4.576   1.355   7.570 -0.4447  0.6231 -0.6656
  680MOL0     H91778   4.812   1.539   7.538 -0.3013 -1.2662 -1.8208
  680MOL0     H91779   4.787   1.414   7.656  2.9464  0.7645  0.9854
  680MOL0     H91780   3.849   1.722   7.672 -1.5694  2.4086 -0.0274
  680MOL0     H91781   3.632   1.821   7.668  1.0876 -0.2361  0.3770
  680MOL0     H91782   3.177   1.662   7.650  1.6039  0.4601 -0.4755
  680MOL0     H91783   2.938   1.693   7.638  2.5988 -0.5612 -0.5887
  680MOL0     H91784   1.067   1.811   7.561  2.2243  3.4651 -1.7870
  680MOL0     H91785   0.803   1.732   7.587  3.0871  0.4393  2.8551
  680MOL0     H91786   0.464   1.672   7.535 -0.5201 -0.3279 -3.1934
  680MOL0     H91787   0.263   1.584   7.653 -0.2784  0.7016  0.7204
  680MOL0     H91788   0.088   1.581   7.800  0.1039 -1.6628 -0.3354
  680MOL0     H91789  -0.000   1.497   7.669 -2.0723 -1.9670  1.2943
  680MOL0     H91790  -0.208   1.587   7.720 -0.7400 -1.9975  1.3496
  680MOL0     H91791  -0.144   1.705   7.832 -2.4304 -1.2996  1.9807
  680MOL0     H91792  -0.088   1.530   7.987 -0.0531  0.6576  0.1743
  680MOL0     H91793  -0.115   1.411   7.876  1.6178  0.8031  2.3018
  680MOL0     H91794  -0.303   1.449   8.031  2.2459  1.5736  1.1150
  680MOL0     H91795  -0.338   1.610   7.976 -1.3694  0.2077 -0.6692
  680MOL0     H91796  -0.532   1.402   7.661  1.5411 -3.2445  0.3624
  680MOL0     H91797   0.027   1.908   7.498 -1.5098 -0.4491  2.1899
  680MOL0     H91798   0.239   2.111   7.395 -1.1314  0.5274 -1.7377
  680MOL0     H91799   0.279   2.009   7.256  2.7192 -3.2282  0.7550
  680MOL0     H91800   0.113   2.009   7.317 -0.1565 -4.3373  1.6984
  681MOL0     O91801   8.812   7.065   6.158 -0.5133  0.5736 -0.0628
  681MOL0     C91802   8.786   6.943   6.170  0.2146  0.2249  0.3244
  681MOL0     O91803   8.859   6.833   6.125 -1.3029 -0.1339  0.6653
  681MOL0     C91804   8.999   6.847   6.088  0.5462  0.8356  0.4487
  681MOL0     C91805   9.031   6.818   5.949  1.0970 -0.4359  0.3185
  681MOL0     C91806   9.151   6.863   5.905  0.1298 -0.1762 -0.2320
  681MOL0     C91807   9.247   6.926   5.991  0.0414  0.0639  0.4160
  681MOL0     O91808   9.371   6.950   5.929  0.1643 -0.7972 -0.3096
  681MOL0     C91809   9.486   6.961   6.017  0.2317  0.6950  0.4757
  681MOL0     C91810   9.609   6.960   5.931 -0.1946  0.7661 -0.2373
  681MOL0     C91811   9.742   6.993   6.008 -0.8791 -0.2313 -0.9332
  681MOL0     C91812   9.871   6.945   5.926  0.9501  0.7382 -0.0204
  681MOL0     C91813   9.915   7.021   5.802  0.0450 -0.3552 -0.1477
  681MOL0     C91814  10.011   6.933   5.713  0.1599 -0.5752 -0.4391
  681MOL0     C91815  10.135   6.879   5.778  0.8289 -0.3364  0.8117
  681MOL0     C91816  10.196   6.764   5.693  0.0112  0.6683 -0.9416
  681MOL0     N91817  10.304   6.809   5.609 -0.2066 -0.8928 -0.4808
  681MOL0     C91818  10.296   6.916   5.519  0.3557  0.6620 -0.2695
  681MOL0     C91819  10.427   6.939   5.484 -0.6643 -0.2127  0.5409
  681MOL0     C91820  10.473   7.040   5.379 -0.2277 -0.5609  0.0331
  681MOL0     C91821  10.463   7.183   5.442  0.3127  0.2426  1.0205
  681MOL0     C91822  10.524   7.278   5.343 -0.3495  0.3640  0.3410
  681MOL0     C91823  10.678   7.298   5.353  0.1995  0.5996 -0.0702
  681MOL0     O91824  10.717   7.410   5.283 -0.1238 -0.1502  0.8123
  681MOL0     C91825  10.846   7.446   5.308 -0.2611  0.1342  0.1403
  681MOL0     C91826  10.954   7.400   5.239  0.5799 -0.1989  0.7855
  681MOL0     C91827  11.088   7.436   5.255 -0.4077  0.4741  0.3379
  681MOL0     C91828  11.112   7.537   5.347  0.2646  0.4896 -0.6244
  681MOL0     C91829  11.250   7.582   5.366 -0.3494  0.0694 -1.0485
  681MOL0     O91830  11.346   7.561   5.264  0.1345 -0.6333  0.7536
  681MOL0     C91831  11.476   7.581   5.297 -0.3914  0.5680  0.1974
  681MOL0     C91832  11.542   7.466   5.348  0.2891  0.1963  0.5726
  681MOL0     C91833  11.671   7.488   5.399 -0.1900  0.2133  0.1907
  681MOL0     C91834  11.732   7.612   5.391  0.2436 -0.3362 -0.9910
  681MOL0     O91835  11.853   7.636   5.446  0.5811 -0.2734  0.2078
  681MOL0     C91836  11.904   7.555   5.557  0.5949 -0.1350 -0.4977
  681MOL0     C91837  12.036   7.607   5.605 -0.5390 -0.1025  0.1439
  681MOL0     C91838  12.153   7.557   5.521  0.0188  0.3458 -0.2771
  681MOL0     C91839  12.281   7.613   5.573  0.6442 -0.4141 -0.9013
  681MOL0     C91840  12.335   7.546   5.698 -1.0039  0.3880  0.0401
  681MOL0     C91841  12.469   7.614   5.750 -0.1297 -0.7660  0.0190
  681MOL0     C91842  12.576   7.626   5.641 -0.0755 -0.7460 -0.1375
  681MOL0     C91843  12.713   7.665   5.694  0.1451  0.1066  0.2941
  681MOL0    Cl91844  12.832   7.647   5.575 -0.0567 -0.0420  0.0409
  681MOL0     C91845  11.660   7.724   5.356  0.3624 -0.8420 -1.4210
  681MOL0     C91846  11.529   7.709   5.308 -0.4589 -0.0404 -1.0640
  681MOL0     O91847  11.259   7.670   5.458 -0.2625  0.1152  0.0254
  681MOL0     C91848  11.001   7.586   5.428  0.1231  0.7413 -0.7245
  681MOL0     C91849  10.870   7.546   5.404  0.1983  0.5567 -0.9082
  681MOL0     N91850  10.509   6.859   5.556 -0.8197  0.7622  0.0591
  681MOL0     N91851  10.440   6.789   5.641 -0.1003 -0.1431 -0.1840
  681MOL0     C91852   9.220   6.952   6.131 -0.2869  0.5561 -0.6437
  681MOL0     C91853   9.090   6.905   6.175  0.1857 -0.2477 -1.0893
  681MOL0     C91854   8.654   6.896   6.220 -0.4167 -0.2390 -0.0396
  681MOL0     C91855   8.642   6.762   6.255 -0.1672  0.5452 -0.1129
  681MOL0     C91856   8.521   6.712   6.306 -0.3041  0.5693  0.3504
  681MOL0     C91857   8.414   6.799   6.323  0.2023 -0.4517 -0.2153
  681MOL0     O91858   8.279   6.775   6.363  0.2791  0.6165 -0.4260
  681MOL0     C91859   8.241   6.640   6.396 -0.1899  0.3469  0.0219
  681MOL0     C91860   8.087   6.621   6.407 -0.6927 -0.2218  0.5975
  681MOL0     C91861   8.052   6.477   6.439  0.2213 -0.2169  0.1152
  681MOL0     C91862   7.906   6.482   6.481 -0.7314  0.4287  0.1430
  681MOL0     C91863   7.867   6.352   6.531 -0.7979  0.3016 -0.4155
  681MOL0     C91864   7.826   6.254   6.589 -0.4593  0.1270 -0.0754
  681MOL0     C91865   8.433   6.934   6.289  1.0693  1.2583 -0.3119
  681MOL0     C91866   8.546   6.978   6.237  0.4489 -0.0272  0.0371
  681MOL0     C91867   8.550   7.129   6.212 -0.1066 -0.5524 -0.7416
  681MOL0     H91868   8.961   6.769   5.883 -1.7975  0.6405  2.3584
  681MOL0     H91869   9.174   6.846   5.801 -1.6370 -1.0858 -0.5229
  681MOL0     H91870   9.486   7.060   6.063 -0.5039  1.2652 -0.7100
  681MOL0     H91871   9.484   6.885   6.096 -0.2088  3.1983  2.9877
  681MOL0     H91872   9.597   7.025   5.844  1.3340  1.3105 -0.0701
  681MOL0     H91873   9.611   6.858   5.892  2.3022 -0.3641  2.4275
  681MOL0     H91874   9.733   6.933   6.099 -2.2730  0.1237 -0.8195
  681MOL0     H91875   9.758   7.100   6.024  2.3734 -0.3479 -2.5792
  681MOL0     H91876   9.957   6.934   5.993  2.5723  2.1344 -1.7565
  681MOL0     H91877   9.841   6.844   5.898 -0.0227  1.3159 -1.1597
  681MOL0     H91878   9.819   7.046   5.756 -1.2818 -3.5929  0.5497
  681MOL0     H91879   9.966   7.113   5.831  0.9142 -1.4256  1.9124
  681MOL0     H91880   9.948   6.845   5.693 -1.6059  0.3748  0.7561
  681MOL0     H91881  10.031   6.982   5.617 -2.9857  3.0059  0.5077
  681MOL0     H91882  10.105   6.839   5.876  1.9433 -0.8719  0.9529
  681MOL0     H91883  10.216   6.951   5.794  0.6965  0.0262 -0.1253
  681MOL0     H91884  10.229   6.690   5.767 -1.2876 -0.6316 -1.6054
  681MOL0     H91885  10.123   6.700   5.642 -0.9328 -0.7093  1.8959
  681MOL0     H91886  10.206   6.964   5.484 -1.3098 -1.1062  1.3448
  681MOL0     H91887  10.576   7.017   5.350  0.0634  0.5152  0.1933
  681MOL0     H91888  10.411   7.032   5.289 -0.5645 -2.2790  0.3846
  681MOL0     H91889  10.360   7.213   5.463  0.5213  1.8816 -0.1868
  681MOL0     H91890  10.513   7.183   5.540 -1.0284 -1.7744  1.7769
  681MOL0     H91891  10.485   7.379   5.364  0.6179  0.9556 -0.5858
  681MOL0     H91892  10.504   7.256   5.238  0.3905 -1.2333  0.5106
  681MOL0     H91893  10.729   7.212   5.308  0.3206  0.9462 -0.6000
  681MOL0     H91894  10.710   7.294   5.458 -0.8265 -0.0786  0.2405
  681MOL0     H91895  10.931   7.317   5.173  1.4819  1.3850 -1.6808
  681MOL0     H91896  11.171   7.377   5.216 -0.6999 -1.1608  2.0399
  681MOL0     H91897  11.481   7.377   5.356 -2.4693  2.1316  3.7281
  681MOL0     H91898  11.726   7.404   5.439 -1.1234 -0.4037  0.2115
  681MOL0     H91899  11.830   7.549   5.637 -1.4117  0.8037 -2.1977
  681MOL0     H91900  11.915   7.453   5.520  1.8407  0.0258 -0.6148
  681MOL0     H91901  12.041   7.715   5.620  1.2717  0.1450 -1.8069
  681MOL0     H91902  12.051   7.567   5.706 -1.5553 -0.6915  0.0808
  681MOL0     H91903  12.172   7.449   5.523 -1.0286  0.0944 -1.7183
  681MOL0     H91904  12.138   7.585   5.416 -0.2760  3.3584  0.4863
  681MOL0     H91905  12.265   7.721   5.583 -1.6731 -0.2871 -4.2740
  681MOL0     H91906  12.355   7.607   5.493 -4.3834  0.4718 -6.3335
  681MOL0     H91907  12.358   7.443   5.670  0.1702  0.9055 -0.9618
  681MOL0     H91908  12.268   7.554   5.785  2.5637  1.5086  2.9509
  681MOL0     H91909  12.449   7.715   5.788  1.5869 -1.5613  3.4168
  681MOL0     H91910  12.508   7.562   5.838  0.4548  0.0993  0.2884
  681MOL0     H91911  12.533   7.687   5.561  0.4287  0.9686  0.8663
  681MOL0     H91912  12.590   7.527   5.595 -0.0950 -0.4768 -0.7405
  681MOL0     H91913  12.715   7.771   5.722 -2.7632 -0.2296  2.1651
  681MOL0     H91914  12.748   7.601   5.775  0.4866 -2.0054 -1.4327
  681MOL0     H91915  11.704   7.822   5.375 -2.5357  0.0222  2.1490
  681MOL0     H91916  11.470   7.794   5.277 -1.6494 -0.7097 -0.7179
  681MOL0     H91917  11.022   7.660   5.505 -2.1531 -0.4403  1.1443
  681MOL0     H91918  10.799   7.605   5.461  3.2937  3.1591  0.5682
  681MOL0     H91919   9.299   6.988   6.196 -1.3423 -1.0535  1.6881
  681MOL0     H91920   9.060   6.920   6.278  1.3676 -1.3038 -0.5679
  681MOL0     H91921   8.727   6.694   6.259 -1.9378 -1.9534 -1.7915
  681MOL0     H91922   8.510   6.608   6.338 -1.5322  0.2675 -0.9319
  681MOL0     H91923   8.290   6.606   6.487  0.2175 -3.2470 -1.3925
  681MOL0     H91924   8.271   6.571   6.317  0.1467 -0.9608  1.2638
  681MOL0     H91925   8.040   6.648   6.312  1.2034  0.6271 -0.1586
  681MOL0     H91926   8.048   6.694   6.479 -2.2783  0.3230 -0.7447
  681MOL0     H91927   8.110   6.441   6.525 -3.1395 -1.3958  2.0827
  681MOL0     H91928   8.059   6.411   6.352 -0.2306  0.3892 -0.3926
  681MOL0     H91929   7.892   6.558   6.558 -1.2789 -0.7570  1.2737
  681MOL0     H91930   7.845   6.502   6.393  1.1797 -1.6582 -1.8163
  681MOL0     H91931   7.775   6.182   6.649 -1.4314  0.7458 -0.1380
  681MOL0     H91932   8.362   7.011   6.319  0.5049  0.2157  1.1565
  681MOL0     H91933   8.607   7.188   6.283 -0.8620 -0.9032  0.1782
  681MOL0     H91934   8.591   7.162   6.116  0.2617  1.4621  0.0790
  681MOL0     H91935   8.448   7.168   6.202 -0.6779 -1.9835 -0.8069
  682MOL0     O91936  10.856   7.223   4.070  0.2998  0.0105 -0.4316
  682MOL0     C91937  10.832   7.114   4.022 -0.3588  0.0305  1.2199
  682MOL0     O91938  10.932   7.020   4.003 -0.1213  0.3526 -0.2088
  682MOL0     C91939  11.065   7.064   3.985  0.1422  1.1379  0.6496
  682MOL0     C91940  11.101   7.192   3.944  0.7615 -0.0310  0.9485
  682MOL0     C91941  11.229   7.238   3.947 -0.0521  0.4532 -0.5276
  682MOL0     C91942  11.335   7.165   3.995  0.3858 -0.4727  0.0141
  682MOL0     O91943  11.464   7.202   4.012 -0.1018 -0.6142 -0.3413
  682MOL0     C91944  11.502   7.331   3.955 -0.8559  0.2141  0.4529
  682MOL0     C91945  11.645   7.349   4.015 -0.3061 -0.4456  0.9520
  682MOL0     C91946  11.751   7.249   3.955 -0.3972  0.2911 -0.2515
  682MOL0     C91947  11.846   7.213   4.071  0.2119  0.2990  0.0469
  682MOL0     C91948  11.954   7.114   4.024  0.5379  0.5578 -0.1415
  682MOL0     C91949  11.884   6.978   4.000 -0.1989  0.4392 -0.1126
  682MOL0     C91950  11.985   6.861   3.989 -0.3431  0.2180  0.3207
  682MOL0     C91951  11.930   6.727   4.026  0.0373 -0.3821  0.6424
  682MOL0     N91952  11.823   6.677   3.943  0.4076  0.0270  0.3774
  682MOL0     C91953  11.690   6.703   3.963 -0.0051 -0.0228  0.3637
  682MOL0     C91954  11.625   6.614   3.887 -0.0870  0.8907 -0.2431
  682MOL0     C91955  11.472   6.605   3.891 -0.3535 -0.2836 -0.3967
  682MOL0     C91956  11.421   6.503   3.996  0.0923 -1.0699  0.5005
  682MOL0     C91957  11.446   6.545   4.141  0.2167 -0.6453  0.0483
  682MOL0     C91958  11.371   6.674   4.176 -0.4249  0.7023  0.1287
  682MOL0     O91959  11.234   6.670   4.155  0.1346 -0.3583  0.1985
  682MOL0     C91960  11.160   6.568   4.207 -0.2357  1.0641 -0.2175
  682MOL0     C91961  11.070   6.495   4.124 -0.6866 -0.3127  0.3422
  682MOL0     C91962  10.994   6.394   4.183  0.0634 -0.5208 -0.3063
  682MOL0     C91963  11.011   6.362   4.320  0.2461  0.5412 -0.0487
  682MOL0     C91964  10.924   6.263   4.381  0.6109 -0.1769  0.1990
  682MOL0     O91965  10.974   6.195   4.489  0.6130 -0.6163 -1.0892
  682MOL0     C91966  10.896   6.107   4.559  0.3427 -0.3707 -0.2863
  682MOL0     C91967  10.771   6.158   4.605 -0.8373 -0.3031 -0.0241
  682MOL0     C91968  10.686   6.070   4.667 -0.5337 -0.4516 -0.4334
  682MOL0     C91969  10.716   5.934   4.679  0.1299 -0.8405  0.5493
  682MOL0     O91970  10.636   5.852   4.749  0.3285  0.2725  0.4410
  682MOL0     C91971  10.509   5.825   4.680 -0.3544  0.1065 -0.3015
  682MOL0     C91972  10.528   5.780   4.531  0.1992 -0.3385 -0.3224
  682MOL0     C91973  10.423   5.674   4.499  0.0363 -0.6726 -0.1395
  682MOL0     C91974  10.420   5.632   4.348 -0.4999 -0.9250 -0.5878
  682MOL0     C91975  10.323   5.520   4.320 -0.1436 -0.2111 -0.3854
  682MOL0     C91976  10.326   5.467   4.177 -0.2074  0.6119 -1.1149
  682MOL0     C91977  10.231   5.349   4.168  0.5357  0.2329  0.0526
  682MOL0     C91978  10.191   5.328   4.021 -1.2900 -0.5865  0.3548
  682MOL0    Cl91979  10.346   5.301   3.936 -0.1381 -0.1085  0.2463
  682MOL0     C91980  10.848   5.890   4.653  0.5440  0.1657  0.0666
  682MOL0     C91981  10.947   5.975   4.595 -0.3480 -0.7940  0.5725
  682MOL0     O91982  10.810   6.253   4.336  0.2010 -0.1007  0.7967
  682MOL0     C91983  11.096   6.440   4.404 -0.2351  0.0652 -0.1696
  682MOL0     C91984  11.166   6.540   4.342 -1.1012 -0.5765 -0.0045
  682MOL0     N91985  11.710   6.547   3.809 -0.2419  0.0820 -0.7817
  682MOL0     N91986  11.837   6.587   3.833  0.4080  0.8503  0.3528
  682MOL0     C91987  11.298   7.036   4.049 -0.5110 -0.0778 -0.1062
  682MOL0     C91988  11.173   6.988   4.041 -0.4170  0.4015 -0.2670
  682MOL0     C91989  10.696   7.069   4.002  0.2014 -0.5267  0.5198
  682MOL0     C91990  10.667   6.930   4.008 -0.0107 -0.6484  0.5862
  682MOL0     C91991  10.536   6.886   3.994 -0.1487  0.1826  0.1883
  682MOL0     C91992  10.425   6.979   3.999  0.0516  0.2860  0.9942
  682MOL0     O91993  10.294   6.928   3.986 -0.3436 -0.3456  0.7365
  682MOL0     C91994  10.212   6.937   4.098 -0.3650 -0.2574 -0.3162
  682MOL0     C91995  10.226   6.811   4.192  0.2434  0.0948 -0.7838
  682MOL0     C91996  10.134   6.819   4.313  0.5521  0.5116  0.4979
  682MOL0     C91997  10.189   6.905   4.428  0.1539 -0.3528  0.5450
  682MOL0     C91998  10.134   6.847   4.550  0.0353 -0.2358 -0.3210
  682MOL0     C91999  10.092   6.796   4.657  0.3872 -0.4160  1.0107
  682MOL0     C92000  10.464   7.113   3.982  1.5375 -0.4126  0.1145
  682MOL0     C92001  10.594   7.157   3.987 -0.8020 -0.8610 -0.8351
  682MOL0     C92002  10.609   7.306   3.963 -0.2631 -0.1202  0.3972
  682MOL0     H92003  11.030   7.270   3.919 -0.8186 -1.4191  0.9790
  682MOL0     H92004  11.233   7.342   3.919  0.4672  1.1778  2.0011
  682MOL0     H92005  11.507   7.338   3.846 -0.6757 -0.0715  0.4393
  682MOL0     H92006  11.439   7.414   3.985 -5.3380 -2.5521 -0.3796
  682MOL0     H92007  11.638   7.334   4.123  2.2064 -4.9993  0.7046
  682MOL0     H92008  11.671   7.456   4.014 -3.0454  0.3030  0.5145
  682MOL0     H92009  11.798   7.291   3.865 -0.8402  3.6606  0.9525
  682MOL0     H92010  11.707   7.157   3.916  1.5414 -0.6174 -0.4216
  682MOL0     H92011  11.893   7.303   4.112 -1.1871  1.7131 -1.3570
  682MOL0     H92012  11.785   7.170   4.151 -2.4309 -0.9811 -2.4653
  682MOL0     H92013  11.992   7.151   3.928 -1.6358  1.4813 -0.7003
  682MOL0     H92014  12.031   7.106   4.101 -0.6204 -1.3044  0.9128
  682MOL0     H92015  11.821   6.966   4.089 -0.6278  0.6329 -0.3907
  682MOL0     H92016  11.818   6.972   3.913  1.5641  1.7278 -1.6028
  682MOL0     H92017  12.071   6.880   4.055  0.3836  1.9597 -1.0624
  682MOL0     H92018  12.020   6.861   3.886 -0.1350  1.2918  0.3859
  682MOL0     H92019  12.011   6.658   4.001  1.9826  2.8629 -3.5375
  682MOL0     H92020  11.901   6.728   4.131 -1.3217  1.2473  0.2936
  682MOL0     H92021  11.642   6.770   4.033 -0.1172 -0.7094  0.9552
  682MOL0     H92022  11.419   6.700   3.908 -0.0082  0.0529 -1.1231
  682MOL0     H92023  11.442   6.568   3.792  2.5092  1.3207 -1.9927
  682MOL0     H92024  11.315   6.487   3.975  0.6631 -2.4561 -1.7005
  682MOL0     H92025  11.469   6.408   3.970  2.7571  0.5667 -1.0555
  682MOL0     H92026  11.554   6.559   4.155  0.2194  0.6962 -1.1178
  682MOL0     H92027  11.404   6.473   4.212 -0.0914  1.6601  2.3480
  682MOL0     H92028  11.409   6.757   4.117 -0.1437 -1.9116 -3.7195
  682MOL0     H92029  11.398   6.685   4.282  2.0589 -4.9120  0.4584
  682MOL0     H92030  11.042   6.523   4.023 -2.5658 -3.0388  0.0038
  682MOL0     H92031  10.920   6.345   4.121  1.3732 -0.3404 -2.1005
  682MOL0     H92032  10.740   6.261   4.585  1.9564  0.3098 -1.7158
  682MOL0     H92033  10.587   6.105   4.695  0.5957  2.1072  0.7695
  682MOL0     H92034  10.457   5.746   4.736  0.9804 -0.8798 -0.4048
  682MOL0     H92035  10.441   5.910   4.689 -0.1457  0.0749  2.1736
  682MOL0     H92036  10.523   5.868   4.467 -1.4079  0.0225  0.2412
  682MOL0     H92037  10.626   5.730   4.530  0.3084 -0.1301 -0.0647
  682MOL0     H92038  10.427   5.592   4.571  1.7717 -0.2368  0.3155
  682MOL0     H92039  10.327   5.717   4.527 -0.8472 -2.1479 -0.7982
  682MOL0     H92040  10.516   5.587   4.322  0.8094  0.3562  1.6650
  682MOL0     H92041  10.404   5.714   4.278  0.4556 -0.1270  0.1100
  682MOL0     H92042  10.223   5.555   4.348  0.8083  1.3810  1.2581
  682MOL0     H92043  10.347   5.433   4.382  1.4370 -1.2613 -2.3403
  682MOL0     H92044  10.292   5.557   4.125  0.4440  1.1235 -0.6628
  682MOL0     H92045  10.428   5.441   4.147 -0.1359 -2.0477  1.0187
  682MOL0     H92046  10.152   5.370   4.241  0.5715 -1.4195  0.6030
  682MOL0     H92047  10.283   5.260   4.204  1.2611  1.3288  1.8879
  682MOL0     H92048  10.121   5.244   4.010  2.7610 -4.4261  1.2540
  682MOL0     H92049  10.146   5.422   3.987  0.3053  0.7931  1.8637
  682MOL0     H92050  10.884   5.789   4.671  2.1278  0.5900 -0.5260
  682MOL0     H92051  11.051   5.954   4.569  0.7564  0.9731  3.1074
  682MOL0     H92052  11.101   6.428   4.512  1.4043 -0.4277 -0.2807
  682MOL0     H92053  11.219   6.598   4.417 -2.3162 -2.1306  2.1802
  682MOL0     H92054  11.375   6.978   4.099  0.3512 -1.1081 -2.4756
  682MOL0     H92055  11.148   6.893   4.087  0.9184  0.0021 -0.3220
  682MOL0     H92056  10.743   6.853   4.010 -0.9393 -1.5865  2.8657
  682MOL0     H92057  10.516   6.780   3.983  0.8541 -0.2779  2.2341
  682MOL0     H92058  10.107   6.949   4.069 -0.6811  0.3019  0.9705
  682MOL0     H92059  10.235   7.030   4.151 -0.8965  0.5146 -1.3911
  682MOL0     H92060  10.331   6.790   4.213  0.0366  0.1477  0.3825
  682MOL0     H92061  10.191   6.718   4.146  0.0586  0.0163 -0.4936
  682MOL0     H92062  10.111   6.720   4.354  0.7696  0.2477 -0.0067
  682MOL0     H92063  10.039   6.858   4.275  0.9673 -0.3530 -1.6082
  682MOL0     H92064  10.298   6.913   4.429  0.0417  1.6337  1.0603
  682MOL0     H92065  10.166   7.011   4.420 -0.5121 -0.5756 -0.6573
  682MOL0     H92066  10.051   6.763   4.750 -1.1507  0.0636  0.5296
  682MOL0     H92067  10.378   7.179   3.978  1.9023  0.0188 -0.9155
  682MOL0     H92068  10.694   7.316   3.895 -0.9589  2.0590 -0.2380
  682MOL0     H92069  10.521   7.351   3.916 -1.8896 -2.5774  0.9086
  682MOL0     H92070  10.632   7.359   4.056 -2.9303 -2.5161  2.6516
  683MOL0     O92071   9.023  10.631   4.711 -0.7647  0.8058 -0.1485
  683MOL0     C92072   8.984  10.517   4.686  0.1611 -0.6665 -0.0348
  683MOL0     O92073   9.041  10.398   4.728  0.3422 -0.2245  0.4671
  683MOL0     C92074   9.173  10.382   4.752 -0.0586 -0.4794  0.0959
  683MOL0     C92075   9.273  10.481   4.735 -0.4129 -0.0743  0.5102
  683MOL0     C92076   9.399  10.457   4.776 -0.6588  0.1639  0.2695
  683MOL0     C92077   9.438  10.330   4.829  1.3054 -0.6470  0.0087
  683MOL0     O92078   9.566  10.312   4.863  0.0802  0.4952  0.3960
  683MOL0     C92079   9.634  10.186   4.851  0.0384  0.0281  0.9790
  683MOL0     C92080   9.781  10.214   4.875  1.0821 -0.0683 -0.7708
  683MOL0     C92081   9.835  10.313   4.763  0.3432  0.2091  0.3717
  683MOL0     C92082   9.994  10.317   4.771  0.3138 -0.0715  0.5223
  683MOL0     C92083  10.056  10.383   4.647  0.4513 -0.0202  0.0255
  683MOL0     C92084   9.985  10.511   4.598  0.4436 -0.2004 -0.2014
  683MOL0     C92085  10.076  10.585   4.502  0.3576  0.5624 -0.6942
  683MOL0     C92086  10.008  10.685   4.416  0.0673  0.7035 -0.5553
  683MOL0     N92087  10.003  10.804   4.504 -0.8977 -0.6263 -0.0473
  683MOL0     C92088  10.053  10.925   4.459  0.5891 -0.6821  0.4087
  683MOL0     C92089  10.035  11.005   4.559  0.3528  0.1099  0.0738
  683MOL0     C92090  10.086  11.140   4.566  0.2579 -0.5285 -0.1620
  683MOL0     C92091  10.242  11.146   4.568 -0.7401 -0.1565  0.1484
  683MOL0     C92092  10.290  11.107   4.712 -0.1210  0.1225 -0.4312
  683MOL0     C92093  10.427  11.140   4.746 -0.4252 -0.3021 -0.1202
  683MOL0     O92094  10.518  11.072   4.655  0.2814 -0.0599 -0.0849
  683MOL0     C92095  10.653  11.101   4.657  0.2904  0.0540 -0.5019
  683MOL0     C92096  10.724  11.046   4.552  0.5399  0.1464 -0.1264
  683MOL0     C92097  10.863  11.053   4.540  0.7610 -0.3114 -0.3917
  683MOL0     C92098  10.926  11.137   4.637 -0.2853 -0.0233 -0.4201
  683MOL0     C92099  11.067  11.162   4.627  0.3266  0.3345 -0.0109
  683MOL0     O92100  11.127  11.176   4.751  0.1110  1.5229  0.7634
  683MOL0     C92101  11.243  11.238   4.769 -0.3594  1.0054  0.2621
  683MOL0     C92102  11.296  11.342   4.692 -0.3708  0.6103  0.7599
  683MOL0     C92103  11.427  11.403   4.725  0.6392  0.1528  0.3014
  683MOL0     C92104  11.491  11.355   4.833 -0.4880  0.2816  0.6597
  683MOL0     O92105  11.615  11.409   4.861 -0.3851 -0.2881  0.8524
  683MOL0     C92106  11.651  11.425   4.995  0.0226 -0.3123 -0.6243
  683MOL0     C92107  11.785  11.488   5.007 -0.5573 -0.7998 -0.5116
  683MOL0     C92108  11.832  11.504   5.150 -0.1165 -0.7553 -0.3017
  683MOL0     C92109  11.861  11.654   5.190 -0.3493  0.1315 -0.0219
  683MOL0     C92110  11.919  11.651   5.334 -0.5816 -0.2484  0.1532
  683MOL0     C92111  11.950  11.788   5.389 -0.1690 -0.0909  0.1643
  683MOL0     C92112  12.021  11.787   5.526 -0.2150  0.0935 -0.8355
  683MOL0     C92113  12.146  11.868   5.549  0.1188  0.0251 -0.1194
  683MOL0    Cl92114  12.214  11.859   5.713  0.0816  0.2558  0.1048
  683MOL0     C92115  11.449  11.245   4.894 -0.1249  0.7090 -0.5803
  683MOL0     C92116  11.325  11.185   4.869  0.5673  0.0472  0.5686
  683MOL0     O92117  11.113  11.167   4.519 -0.7090 -0.8492  0.4266
  683MOL0     C92118  10.862  11.184   4.743 -0.1074  0.7638 -0.8510
  683MOL0     C92119  10.722  11.172   4.754 -1.1273  0.0451  0.8769
  683MOL0     N92120   9.968  10.940   4.662  0.7216 -0.8865 -0.0292
  683MOL0     N92121   9.943  10.824   4.621  0.2746  0.9590 -0.8269
  683MOL0     C92122   9.341  10.230   4.822 -0.4422 -0.1337 -0.4193
  683MOL0     C92123   9.204  10.258   4.798 -0.3416  1.0247 -0.0245
  683MOL0     C92124   8.845  10.495   4.634  0.2223  0.3469 -0.4507
  683MOL0     C92125   8.818  10.373   4.565  1.1174  0.6599 -0.8289
  683MOL0     C92126   8.679  10.349   4.524 -0.2905  0.0205 -0.2001
  683MOL0     C92127   8.579  10.450   4.533  0.1183  0.3029  0.1962
  683MOL0     O92128   8.450  10.430   4.500 -0.0895 -0.0680 -0.0453
  683MOL0     C92129   8.434  10.344   4.383 -0.0398 -0.3802  0.7033
  683MOL0     C92130   8.507  10.393   4.260 -0.6027 -0.6968  0.0569
  683MOL0     C92131   8.458  10.533   4.208 -0.4678  0.1980 -0.1399
  683MOL0     C92132   8.314  10.539   4.167  0.1532 -0.5924 -0.0218
  683MOL0     C92133   8.268  10.449   4.057 -0.1645 -0.7168  0.0615
  683MOL0     C92134   8.253  10.390   3.950  0.1035  0.1710  0.4423
  683MOL0     C92135   8.614  10.567   4.594 -0.1141 -0.8853 -0.1037
  683MOL0     C92136   8.744  10.591   4.650  0.4898 -0.3596 -0.6674
  683MOL0     C92137   8.755  10.704   4.745  0.1730 -0.2722  0.2147
  683MOL0     H92138   9.253  10.585   4.712  3.4091  0.7468  0.1487
  683MOL0     H92139   9.475  10.533   4.761 -0.4347 -0.5169 -2.5743
  683MOL0     H92140   9.609  10.109   4.925  2.2466 -2.7431 -0.9964
  683MOL0     H92141   9.628  10.150   4.748 -1.7452  0.6746  0.8292
  683MOL0     H92142   9.832  10.118   4.882 -1.4072 -1.4328  0.0123
  683MOL0     H92143   9.791  10.255   4.976  0.5981 -0.1779 -0.6751
  683MOL0     H92144   9.786  10.409   4.783  1.5005  1.3208 -1.7995
  683MOL0     H92145   9.796  10.281   4.666  1.1292  0.2898  0.0275
  683MOL0     H92146  10.009  10.378   4.861  1.4998  1.4621 -0.6550
  683MOL0     H92147  10.039  10.218   4.780  0.0899 -0.2864 -0.6575
  683MOL0     H92148  10.151  10.417   4.689 -0.7590  0.0945  2.8872
  683MOL0     H92149  10.059  10.310   4.566  3.7600  1.3232 -1.2185
  683MOL0     H92150   9.891  10.486   4.548 -0.2955  1.3452  0.3570
  683MOL0     H92151   9.957  10.576   4.682 -0.3521 -0.4712 -0.2419
  683MOL0     H92152  10.129  10.505   4.448  0.3384  0.8606 -1.1579
  683MOL0     H92153  10.167  10.630   4.544  0.4511 -1.0229  0.9876
  683MOL0     H92154  10.058  10.709   4.321 -1.2130 -2.6177 -2.2246
  683MOL0     H92155   9.911  10.645   4.386  0.3394  2.0821 -3.6613
  683MOL0     H92156  10.095  10.952   4.363  0.6954 -0.3940  0.5347
  683MOL0     H92157  10.045  11.189   4.478  0.3058 -1.3973 -0.6748
  683MOL0     H92158  10.039  11.189   4.652 -3.2885 -0.6243 -1.8813
  683MOL0     H92159  10.286  11.073   4.499 -1.5190 -1.6743  1.2338
  683MOL0     H92160  10.274  11.250   4.551  0.0028  0.1240  2.8675
  683MOL0     H92161  10.274  11.000   4.726 -4.4878  0.6957  0.4056
  683MOL0     H92162  10.230  11.163   4.784  2.7989  2.5652  0.3207
  683MOL0     H92163  10.440  11.109   4.850  1.5358 -1.4775 -0.6661
  683MOL0     H92164  10.453  11.247   4.744 -1.7616  0.1117 -4.2279
  683MOL0     H92165  10.667  10.978   4.489  0.0457  0.5022 -0.0741
  683MOL0     H92166  10.911  10.998   4.460 -0.3532 -0.9236 -0.6608
  683MOL0     H92167  11.248  11.381   4.603 -0.6292 -0.5179  0.3884
  683MOL0     H92168  11.470  11.486   4.670  1.7323  0.3101  1.3465
  683MOL0     H92169  11.571  11.481   5.044  2.0841  2.6285 -0.3768
  683MOL0     H92170  11.672  11.328   5.041  2.5785  0.1833 -0.6511
  683MOL0     H92171  11.849  11.425   4.945  1.4795  1.0765 -0.4613
  683MOL0     H92172  11.791  11.589   4.964  2.0793 -0.8188 -0.3519
  683MOL0     H92173  11.764  11.465   5.226 -0.1392  0.4620  0.3208
  683MOL0     H92174  11.930  11.456   5.160  1.8549  3.2943  2.2797
  683MOL0     H92175  11.772  11.716   5.175 -4.1793 -3.9623  3.2687
  683MOL0     H92176  11.945  11.692   5.131  0.7209 -1.5843  0.3460
  683MOL0     H92177  12.021  11.610   5.332 -1.0030 -1.3058  0.1064
  683MOL0     H92178  11.854  11.603   5.407 -1.5451 -1.4120 -1.4173
  683MOL0     H92179  12.017  11.837   5.319 -0.9223  0.1777 -0.3770
  683MOL0     H92180  11.856  11.841   5.407  0.1051  0.3933  0.1866
  683MOL0     H92181  12.044  11.682   5.545  0.7189  0.2226 -1.2109
  683MOL0     H92182  11.947  11.815   5.601 -0.3341  1.3183 -1.3874
  683MOL0     H92183  12.222  11.828   5.481 -2.2878 -1.5892 -2.0507
  683MOL0     H92184  12.128  11.972   5.518 -1.3023  0.1518  1.0292
  683MOL0     H92185  11.512  11.191   4.964 -0.7857 -0.2940 -0.7292
  683MOL0     H92186  11.304  11.092   4.921 -1.3419  0.0304 -0.1657
  683MOL0     H92187  10.919  11.222   4.827 -1.2516 -3.0591  1.9778
  683MOL0     H92188  10.666  11.210   4.840 -0.4771  0.9957  0.8905
  683MOL0     H92189   9.376  10.134   4.860  0.4064  0.4772  0.3802
  683MOL0     H92190   9.127  10.182   4.789 -0.5467  1.2186  0.0796
  683MOL0     H92191   8.893  10.295   4.555 -2.1140 -2.8364 -0.1153
  683MOL0     H92192   8.658  10.246   4.494  1.0505 -0.4566  0.4320
  683MOL0     H92193   8.329  10.327   4.356  0.2584 -0.5517 -0.3869
  683MOL0     H92194   8.470  10.245   4.411  0.5908 -0.2663  0.3170
  683MOL0     H92195   8.488  10.322   4.179  0.1538  0.2894 -1.0297
  683MOL0     H92196   8.617  10.396   4.265 -0.5615  2.2677 -0.5766
  683MOL0     H92197   8.529  10.568   4.133  0.0907 -1.7045 -0.5648
  683MOL0     H92198   8.469  10.611   4.284 -0.1445 -0.2245  0.2572
  683MOL0     H92199   8.260  10.522   4.260  1.1971  1.6606  1.0658
  683MOL0     H92200   8.290  10.636   4.123  2.3729 -0.8979 -2.1163
  683MOL0     H92201   8.234  10.345   3.855 -2.9877  0.4714  0.8326
  683MOL0     H92202   8.529  10.629   4.621  2.1940  1.7814  1.6450
  683MOL0     H92203   8.661  10.756   4.766  0.7260  1.8351 -1.9976
  683MOL0     H92204   8.799  10.676   4.841 -1.6657  1.2574  1.5929
  683MOL0     H92205   8.817  10.784   4.703  0.2025 -1.6816 -2.6639
  684MOL0     O92206   0.682   5.520   4.873 -0.2751 -0.4316  0.2710
  684MOL0     C92207   0.645   5.465   4.970 -0.4867  0.8932  0.4792
  684MOL0     O92208   0.715   5.387   5.045 -0.0334 -0.7404 -1.0024
  684MOL0     C92209   0.841   5.357   5.006 -0.3276 -0.0916 -0.9694
  684MOL0     C92210   0.881   5.222   5.004 -0.1659  0.5737  0.4296
  684MOL0     C92211   1.012   5.185   4.964 -0.6498  0.3161  0.1289
  684MOL0     C92212   1.111   5.283   4.936  0.5845 -0.1279 -0.1162
  684MOL0     O92213   1.247   5.264   4.914  0.1001 -0.0475  0.2121
  684MOL0     C92214   1.315   5.159   4.983  0.5294  0.2904 -0.8256
  684MOL0     C92215   1.418   5.208   5.079 -0.1883  0.3835 -0.4221
  684MOL0     C92216   1.359   5.261   5.212  0.3558  0.0391 -0.7889
  684MOL0     C92217   1.460   5.298   5.315 -0.7198  0.3722  0.0642
  684MOL0     C92218   1.543   5.172   5.369  0.4407 -0.9359 -0.4608
  684MOL0     C92219   1.650   5.215   5.467  0.3586 -0.8064 -0.0253
  684MOL0     C92220   1.737   5.103   5.503 -0.0635 -0.3890  0.7651
  684MOL0     C92221   1.862   5.150   5.577  0.4833 -0.5539  0.0343
  684MOL0     N92222   1.951   5.220   5.487 -0.5420 -0.2363 -0.0064
  684MOL0     C92223   2.046   5.150   5.406  0.4004 -0.3239  0.2431
  684MOL0     C92224   2.117   5.255   5.359  0.5182  0.3292 -0.6366
  684MOL0     C92225   2.225   5.254   5.258 -0.2876  0.6490  0.1155
  684MOL0     C92226   2.359   5.223   5.331  0.5948  0.5242 -0.4222
  684MOL0     C92227   2.355   5.074   5.357  0.3571  0.2721 -0.2078
  684MOL0     C92228   2.493   5.037   5.419 -0.5837  0.5281 -0.2497
  684MOL0     O92229   2.522   5.107   5.537  0.3548  0.0846 -0.4704
  684MOL0     C92230   2.643   5.074   5.591  0.3644  0.4047 -0.4021
  684MOL0     C92231   2.751   5.000   5.534  0.6010  0.3954 -0.0966
  684MOL0     C92232   2.866   4.977   5.604  0.1482  0.0508 -0.2210
  684MOL0     C92233   2.891   5.041   5.724 -0.0914 -0.5984  0.2475
  684MOL0     C92234   3.019   5.012   5.793 -1.2491  0.0035 -0.1018
  684MOL0     O92235   3.045   5.092   5.908 -0.0014  0.2225  0.1236
  684MOL0     C92236   3.162   5.068   5.978 -0.4861 -0.2463 -0.7377
  684MOL0     C92237   3.175   4.959   6.076  0.5625  0.8467  0.1491
  684MOL0     C92238   3.301   4.933   6.138  0.4253  0.3482 -0.2024
  684MOL0     C92239   3.409   5.026   6.111 -0.1566  0.3043  0.1989
  684MOL0     O92240   3.529   5.005   6.165  0.5672 -0.5488 -0.2986
  684MOL0     C92241   3.532   4.939   6.287 -0.4260 -0.3729  0.8286
  684MOL0     C92242   3.670   4.922   6.340  0.0051 -0.1576  0.1205
  684MOL0     C92243   3.763   5.037   6.377 -0.2222 -0.1396 -0.2719
  684MOL0     C92244   3.815   5.113   6.252  0.2676  0.2206  0.6265
  684MOL0     C92245   3.960   5.154   6.265  0.6904  0.4371  0.0254
  684MOL0     C92246   4.009   5.239   6.387  0.1496 -0.0597  0.3412
  684MOL0     C92247   3.956   5.376   6.395  0.1785  0.0976 -0.5557
  684MOL0     C92248   4.004   5.455   6.519 -0.0909 -0.2091  0.1117
  684MOL0    Cl92249   3.978   5.361   6.675 -0.1745 -0.1213 -0.0873
  684MOL0     C92250   3.396   5.118   6.008 -0.3060  0.2168  0.1003
  684MOL0     C92251   3.277   5.140   5.942  0.1518  0.5958 -0.1554
  684MOL0     O92252   3.088   4.920   5.757  0.4372 -0.6049  0.4293
  684MOL0     C92253   2.782   5.111   5.785  0.4144 -0.7190  0.7233
  684MOL0     C92254   2.672   5.136   5.711 -0.0439 -0.4031  0.1961
  684MOL0     N92255   2.066   5.375   5.406  0.2516  0.1129  0.3229
  684MOL0     N92256   1.961   5.352   5.472  0.2058 -0.0244 -0.0184
  684MOL0     C92257   1.062   5.418   4.940  0.0008 -1.0720 -0.3323
  684MOL0     C92258   0.931   5.458   4.975 -0.2099 -0.3308 -0.0527
  684MOL0     C92259   0.493   5.466   4.996 -0.6395  0.1176 -0.3491
  684MOL0     C92260   0.439   5.382   5.088  0.5736  0.3995 -0.0326
  684MOL0     C92261   0.309   5.378   5.114  0.6139  0.2067 -0.6399
  684MOL0     C92262   0.219   5.463   5.047  0.7352  0.2884  0.4520
  684MOL0     O92263   0.088   5.453   5.064  0.0309  0.1770  0.3455
  684MOL0     C92264   0.007   5.422   4.953  0.3121  1.2063 -0.6135
  684MOL0     C92265  -0.127   5.358   5.001 -0.4612 -0.1824 -0.2018
  684MOL0     C92266  -0.219   5.352   4.886  0.1412 -0.0201 -0.0097
  684MOL0     C92267  -0.308   5.236   4.897  0.3277  0.3022 -0.2718
  684MOL0     C92268  -0.235   5.110   4.867 -0.4722 -0.3715  0.3100
  684MOL0     C92269  -0.169   5.008   4.847  0.4382  0.1014 -0.2574
  684MOL0     C92270   0.269   5.557   4.967 -0.3017 -0.2183 -0.8521
  684MOL0     C92271   0.400   5.558   4.937  0.2258  0.8058  0.3870
  684MOL0     C92272   0.436   5.663   4.836 -0.6826 -0.8283  0.1878
  684MOL0     H92273   0.804   5.147   5.017  0.0929 -0.8815 -4.4547
  684MOL0     H92274   1.047   5.082   4.954  3.9996  1.6751 -0.0495
  684MOL0     H92275   1.260   5.082   5.038  1.7228  0.0781  0.1136
  684MOL0     H92276   1.366   5.110   4.899 -0.2594  0.9574 -1.7300
  684MOL0     H92277   1.488   5.277   5.029  1.8090 -0.9511  0.4167
  684MOL0     H92278   1.473   5.116   5.100  0.2449  0.7181 -0.0521
  684MOL0     H92279   1.303   5.176   5.252  0.6605 -0.7897 -2.0630
  684MOL0     H92280   1.290   5.346   5.212 -1.9499 -1.6518  1.5383
  684MOL0     H92281   1.521   5.377   5.271 -0.1663 -0.0603  0.0388
  684MOL0     H92282   1.408   5.337   5.403 -0.4041  0.0327  0.4107
  684MOL0     H92283   1.475   5.098   5.410 -0.2752 -0.6010 -1.0236
  684MOL0     H92284   1.593   5.117   5.288 -1.0899 -2.3857 -0.4743
  684MOL0     H92285   1.709   5.294   5.418 -0.1683 -0.2435  0.2458
  684MOL0     H92286   1.607   5.249   5.562  1.5827 -0.6705  0.5049
  684MOL0     H92287   1.769   5.035   5.424  2.7732  0.9172  0.6844
  684MOL0     H92288   1.675   5.039   5.567  0.1177 -2.7658 -1.2774
  684MOL0     H92289   1.830   5.216   5.657  0.2450 -2.0088  1.1820
  684MOL0     H92290   1.913   5.065   5.624 -2.3478 -2.0146  0.7115
  684MOL0     H92291   2.068   5.044   5.398 -0.3129 -0.5276  0.8661
  684MOL0     H92292   2.200   5.178   5.184 -1.0662  0.7199  0.2996
  684MOL0     H92293   2.226   5.351   5.207 -0.1080 -1.0097 -3.3341
  684MOL0     H92294   2.446   5.266   5.280  1.8807  1.7128  2.5524
  684MOL0     H92295   2.374   5.270   5.428 -1.0724  1.1833 -0.4534
  684MOL0     H92296   2.331   5.018   5.266 -0.1247 -1.2632  0.8383
  684MOL0     H92297   2.274   5.045   5.423 -1.1278 -0.7786 -2.3784
  684MOL0     H92298   2.558   5.071   5.339  0.9984 -3.5759 -0.9211
  684MOL0     H92299   2.506   4.929   5.426 -1.3888  0.4182 -0.2863
  684MOL0     H92300   2.732   4.966   5.433  1.8179  3.4226 -1.4535
  684MOL0     H92301   2.938   4.902   5.573 -0.5507 -0.5093 -0.5245
  684MOL0     H92302   3.091   4.900   6.111  0.3547  0.8642 -0.3161
  684MOL0     H92303   3.305   4.858   6.217 -1.2263 -1.7528 -1.9740
  684MOL0     H92304   3.460   4.992   6.350 -4.2385  0.0446 -3.3708
  684MOL0     H92305   3.496   4.836   6.277 -1.6486  0.2527 -2.2378
  684MOL0     H92306   3.654   4.867   6.433  1.0365 -0.4078  0.1578
  684MOL0     H92307   3.724   4.852   6.276  0.9347  0.9353 -0.3125
  684MOL0     H92308   3.707   5.109   6.438 -0.7416  1.2239 -2.2735
  684MOL0     H92309   3.843   4.992   6.436  0.8241 -1.2696 -2.4273
  684MOL0     H92310   3.762   5.206   6.235  2.8853  1.7113 -0.0062
  684MOL0     H92311   3.817   5.051   6.161  3.4866  3.4720 -1.8431
  684MOL0     H92312   4.001   5.200   6.174  0.0268  2.1774  0.5722
  684MOL0     H92313   4.017   5.062   6.276  2.0629  1.0351 -1.6039
  684MOL0     H92314   3.990   5.187   6.481 -0.8021  1.4034  1.0064
  684MOL0     H92315   4.117   5.252   6.378  0.2466 -0.3800  1.0436
  684MOL0     H92316   3.847   5.373   6.405  0.1587 -2.8930 -0.7876
  684MOL0     H92317   3.990   5.433   6.308  2.1211  1.4382  0.9733
  684MOL0     H92318   4.114   5.462   6.515 -0.1613  2.1453  0.8239
  684MOL0     H92319   3.948   5.549   6.516 -2.6022 -1.6043  1.0444
  684MOL0     H92320   3.486   5.170   5.975  0.8113 -2.3156 -1.1467
  684MOL0     H92321   3.275   5.221   5.870  0.4021  2.1193  1.4608
  684MOL0     H92322   2.804   5.159   5.880  3.3619  0.4154 -0.3845
  684MOL0     H92323   2.597   5.201   5.756  2.2002  1.0112  2.0970
  684MOL0     H92324   1.137   5.493   4.917 -1.9726  0.0933 -3.7414
  684MOL0     H92325   0.912   5.565   4.980  1.3191 -0.0309 -0.1538
  684MOL0     H92326   0.489   5.306   5.147  0.1651  0.1112 -0.0507
  684MOL0     H92327   0.286   5.299   5.185 -0.7399 -1.6408 -2.9928
  684MOL0     H92328   0.058   5.346   4.893  0.6640  1.3850 -0.5402
  684MOL0     H92329   0.001   5.513   4.891  1.3227  0.4084 -1.9198
  684MOL0     H92330  -0.163   5.434   5.071 -0.5000  1.4943 -1.9645
  684MOL0     H92331  -0.124   5.266   5.060  0.2181  1.2626  2.1501
  684MOL0     H92332  -0.169   5.369   4.790  3.0706  2.9749  1.7892
  684MOL0     H92333  -0.283   5.441   4.885 -0.9334 -0.7888 -0.3722
  684MOL0     H92334  -0.364   5.227   4.990 -0.7868 -1.3244 -1.0470
  684MOL0     H92335  -0.386   5.248   4.821  0.9147 -0.8221 -1.0787
  684MOL0     H92336  -0.111   4.919   4.836 -0.4173 -1.3103  4.4005
  684MOL0     H92337   0.201   5.628   4.919 -2.7919  0.1892  2.9013
  684MOL0     H92338   0.532   5.708   4.864 -0.4818 -0.6421 -0.7762
  684MOL0     H92339   0.441   5.609   4.741 -0.1696  2.3683 -1.7451
  684MOL0     H92340   0.366   5.744   4.820  0.4122 -0.0598 -0.8670
  685MOL0     O92341   8.736   1.856   5.817 -0.2266 -0.2661  0.2765
  685MOL0     C92342   8.752   1.739   5.848 -0.3329 -0.0858  1.0152
  685MOL0     O92343   8.863   1.686   5.911 -0.4545 -0.1177 -0.3498
  685MOL0     C92344   8.979   1.751   5.929  0.8493  0.5904 -0.1605
  685MOL0     C92345   9.023   1.884   5.898  0.1569  0.3334 -0.6555
  685MOL0     C92346   9.156   1.918   5.920 -0.2820 -0.1629 -0.1050
  685MOL0     C92347   9.251   1.815   5.965  0.1035  0.0303 -1.3629
  685MOL0     O92348   9.387   1.841   5.998 -0.4967 -0.0139  0.5248
  685MOL0     C92349   9.439   1.978   6.005 -0.7163  0.1788  0.0095
  685MOL0     C92350   9.588   1.990   6.042  0.3269  0.1896 -0.2700
  685MOL0     C92351   9.653   2.123   5.996  0.3864  0.0734 -0.3919
  685MOL0     C92352   9.807   2.119   6.029 -0.2063 -0.7442  0.3431
  685MOL0     C92353   9.873   2.251   5.994 -0.1498 -0.2319  0.0176
  685MOL0     C92354  10.020   2.241   5.973 -0.1046  1.2631 -1.4080
  685MOL0     C92355  10.085   2.230   6.118 -0.1300  0.0052 -0.1963
  685MOL0     C92356  10.238   2.229   6.104 -0.1274 -0.6825  0.5555
  685MOL0     N92357  10.304   2.235   6.236  0.0879  0.5858  0.4315
  685MOL0     C92358  10.360   2.346   6.286  0.3592 -0.2573 -0.4918
  685MOL0     C92359  10.447   2.306   6.376  0.0284  1.0713  0.9395
  685MOL0     C92360  10.545   2.380   6.460 -0.9903 -0.3509  0.2542
  685MOL0     C92361  10.673   2.385   6.378  0.3981  0.2302 -0.6494
  685MOL0     C92362  10.665   2.492   6.268  0.5245 -0.3676 -0.4385
  685MOL0     C92363  10.799   2.505   6.200 -0.5813 -0.3639  0.3857
  685MOL0     O92364  10.838   2.370   6.148  0.0347 -0.5545  0.3306
  685MOL0     C92365  10.954   2.371   6.078 -0.6439 -0.5452 -0.5158
  685MOL0     C92366  11.007   2.483   6.011 -0.4443 -0.2787 -0.4597
  685MOL0     C92367  11.129   2.468   5.937  1.2682 -0.4726 -0.1489
  685MOL0     C92368  11.193   2.348   5.930 -0.0340 -0.4724  0.3453
  685MOL0     C92369  11.323   2.344   5.856  0.8023 -0.0205  0.7029
  685MOL0     O92370  11.378   2.456   5.812  0.1929 -0.7759  0.1896
  685MOL0     C92371  11.513   2.458   5.816  0.2726 -0.8558  0.0240
  685MOL0     C92372  11.578   2.535   5.913 -0.5806 -0.0305  0.7405
  685MOL0     C92373  11.713   2.531   5.930 -1.2279  0.5819  0.7497
  685MOL0     C92374  11.791   2.450   5.845  0.0810 -0.2637 -0.8783
  685MOL0     O92375  11.927   2.450   5.868 -0.6618  0.0076 -0.7909
  685MOL0     C92376  12.012   2.428   5.753  0.1915  0.4604  0.6040
  685MOL0     C92377  12.056   2.281   5.760  0.6145 -0.0747 -0.3591
  685MOL0     C92378  12.105   2.248   5.901 -0.2649  0.0800  0.9530
  685MOL0     C92379  11.999   2.202   6.005 -0.5995  0.0865  0.2485
  685MOL0     C92380  12.039   2.249   6.144  0.5651  0.7368  0.1335
  685MOL0     C92381  11.936   2.199   6.249  0.5970 -0.5059  0.0210
  685MOL0     C92382  11.973   2.253   6.394  0.1768  0.9614 -0.5395
  685MOL0     C92383  11.888   2.189   6.499  0.1660 -0.5603 -0.8183
  685MOL0    Cl92384  11.932   2.263   6.660  0.3436 -0.4509  0.0161
  685MOL0     C92385  11.730   2.371   5.750  0.2384  0.0371 -0.2085
  685MOL0     C92386  11.596   2.384   5.729  0.2761 -0.5000  0.4605
  685MOL0     O92387  11.375   2.237   5.854 -0.1196  0.7153 -0.3061
  685MOL0     C92388  11.153   2.238   6.009  0.9043  0.3519 -0.3857
  685MOL0     C92389  11.029   2.252   6.074 -0.1572 -0.1585 -0.8907
  685MOL0     N92390  10.436   2.165   6.390 -0.2325 -0.4649 -0.2061
  685MOL0     N92391  10.355   2.124   6.300 -0.4076  0.1292 -0.4952
  685MOL0     C92392   9.208   1.684   5.977 -1.4759 -0.8421 -0.2796
  685MOL0     C92393   9.072   1.659   5.969  0.5334 -0.2090 -0.3228
  685MOL0     C92394   8.643   1.652   5.820 -0.0566  0.4956 -0.6884
  685MOL0     C92395   8.680   1.510   5.813 -0.5015 -0.8367 -0.6214
  685MOL0     C92396   8.587   1.413   5.776  0.4171  1.0380 -0.0337
  685MOL0     C92397   8.450   1.440   5.756 -0.0415 -0.2833  0.7240
  685MOL0     O92398   8.372   1.335   5.716 -0.2554 -0.6927 -0.2359
  685MOL0     C92399   8.228   1.334   5.767 -0.4379  0.0745  0.2618
  685MOL0     C92400   8.122   1.361   5.657  0.1757 -0.3630 -0.1023
  685MOL0     C92401   7.981   1.339   5.716 -0.0658  0.4588 -0.0218
  685MOL0     C92402   7.922   1.465   5.760 -0.6308 -0.8526 -0.1134
  685MOL0     C92403   7.865   1.541   5.644 -0.4251 -0.1455 -0.7031
  685MOL0     C92404   7.816   1.603   5.547  1.4440  0.6915 -0.0156
  685MOL0     C92405   8.410   1.579   5.761  0.2768  0.5619  0.0725
  685MOL0     C92406   8.505   1.678   5.797 -0.0617  0.1044  1.1309
  685MOL0     C92407   8.445   1.809   5.821 -0.3612  0.1127 -0.2617
  685MOL0     H92408   8.954   1.963   5.868 -2.1706 -1.3418  0.0154
  685MOL0     H92409   9.189   2.020   5.904  0.7336 -0.2813  1.0245
  685MOL0     H92410   9.421   2.036   5.914  0.6611  1.7132  0.6648
  685MOL0     H92411   9.390   2.033   6.086  0.9599  0.2296  1.0368
  685MOL0     H92412   9.643   1.908   5.995  4.6047  3.7012 -2.1493
  685MOL0     H92413   9.593   1.971   6.150 -1.2264 -1.1531 -0.3953
  685MOL0     H92414   9.618   2.208   6.056  1.3511 -0.2518  0.6812
  685MOL0     H92415   9.642   2.136   5.888  1.9707  2.7069 -0.3046
  685MOL0     H92416   9.828   2.105   6.135  0.9260  0.5897  0.3274
  685MOL0     H92417   9.855   2.047   5.962  1.3561 -0.4594  1.1160
  685MOL0     H92418   9.835   2.295   5.901  0.5810  0.6234  0.1040
  685MOL0     H92419   9.858   2.331   6.067  0.8366  2.6907 -2.7612
  685MOL0     H92420  10.040   2.150   5.915 -1.8474 -1.9597  2.4677
  685MOL0     H92421  10.059   2.327   5.919 -0.6058  1.4551 -1.4715
  685MOL0     H92422  10.048   2.143   6.173 -0.1604  0.9859  1.4038
  685MOL0     H92423  10.054   2.311   6.185  0.7236 -2.7824  3.9532
  685MOL0     H92424  10.276   2.138   6.056 -0.2624  0.2622 -1.4741
  685MOL0     H92425  10.256   2.316   6.040 -2.3775 -0.5686 -0.0122
  685MOL0     H92426  10.355   2.451   6.257  0.8329  0.3020  1.3075
  685MOL0     H92427  10.513   2.480   6.493  3.5482  0.4692  3.0256
  685MOL0     H92428  10.559   2.325   6.554  1.0406  1.9412  1.4201
  685MOL0     H92429  10.752   2.413   6.449  0.8027  1.8908 -1.6861
  685MOL0     H92430  10.692   2.288   6.332 -2.3146 -1.0403  0.7005
  685MOL0     H92431  10.627   2.585   6.311 -1.5517 -0.7051 -1.4366
  685MOL0     H92432  10.589   2.466   6.193 -0.9519  1.5260  0.3159
  685MOL0     H92433  10.874   2.548   6.267 -1.4334  1.6202  0.1384
  685MOL0     H92434  10.798   2.574   6.114 -1.6182  0.9872  1.4390
  685MOL0     H92435  10.972   2.585   6.009  0.4310  0.2734  3.5411
  685MOL0     H92436  11.152   2.557   5.880  2.4739  1.3701  3.0300
  685MOL0     H92437  11.521   2.599   5.979 -0.6978  2.5682 -1.7277
  685MOL0     H92438  11.760   2.589   6.008  1.4647 -2.1404  1.3570
  685MOL0     H92439  11.962   2.450   5.658  1.6613 -0.8243 -0.5355
  685MOL0     H92440  12.100   2.494   5.748  1.6163 -1.4161 -0.4709
  685MOL0     H92441  11.974   2.210   5.746  1.0226 -0.5224 -0.5074
  685MOL0     H92442  12.135   2.266   5.686 -0.4375 -0.2224 -1.4933
  685MOL0     H92443  12.182   2.170   5.891 -0.0012  0.2709  1.4308
  685MOL0     H92444  12.168   2.328   5.942 -0.1910  0.3749  0.2741
  685MOL0     H92445  12.002   2.094   5.988 -2.3623 -0.2282  1.6507
  685MOL0     H92446  11.896   2.232   5.987 -0.1652  0.9966 -0.8191
  685MOL0     H92447  12.036   2.358   6.144 -0.2343  0.7247  0.2061
  685MOL0     H92448  12.131   2.197   6.171  0.0380 -0.7878 -0.8768
  685MOL0     H92449  11.836   2.237   6.231  1.4557  2.3222  0.7438
  685MOL0     H92450  11.932   2.090   6.248 -3.2331 -0.4825 -0.7610
  685MOL0     H92451  11.954   2.361   6.392 -2.1937  0.6035 -2.3905
  685MOL0     H92452  12.080   2.242   6.411  0.4369  3.9925  0.4514
  685MOL0     H92453  11.782   2.212   6.484  0.0935 -1.3574 -1.6955
  685MOL0     H92454  11.906   2.081   6.498 -1.0334 -0.9131  2.4045
  685MOL0     H92455  11.778   2.301   5.683  2.7227 -0.6167  2.0919
  685MOL0     H92456  11.547   2.336   5.645 -2.4389  3.9224 -0.7869
  685MOL0     H92457  11.202   2.142   6.001  1.3947  0.6409 -0.9329
  685MOL0     H92458  10.986   2.165   6.123  0.2914 -0.2038 -0.5696
  685MOL0     H92459   9.284   1.612   6.006  0.1805  0.3251 -1.4878
  685MOL0     H92460   9.037   1.557   5.985  0.0795 -0.5256 -2.9017
  685MOL0     H92461   8.779   1.475   5.841 -0.6078 -0.1394  0.7247
  685MOL0     H92462   8.626   1.316   5.750 -0.8248  0.8253 -1.2276
  685MOL0     H92463   8.220   1.405   5.850  2.8648  1.0859 -0.1476
  685MOL0     H92464   8.197   1.238   5.810 -2.4726 -0.5800 -2.4065
  685MOL0     H92465   8.146   1.298   5.572  3.5629  2.3566 -1.3937
  685MOL0     H92466   8.112   1.461   5.613  1.7404 -0.7058 -1.3122
  685MOL0     H92467   7.978   1.260   5.791  2.6372 -0.7891 -1.0941
  685MOL0     H92468   7.914   1.295   5.641  0.8971 -3.5364  1.2049
  685MOL0     H92469   7.850   1.452   5.841 -1.4079 -0.4349 -0.7202
  685MOL0     H92470   7.999   1.530   5.802 -2.3884  1.4435 -0.1899
  685MOL0     H92471   7.757   1.645   5.468 -0.7955 -0.3468  0.9982
  685MOL0     H92472   8.309   1.608   5.735  0.4028  1.2795  0.3603
  685MOL0     H92473   8.443   1.825   5.929 -0.7265 -2.4352  0.1625
  685MOL0     H92474   8.508   1.888   5.778 -3.6661  1.9226 -2.1921
  685MOL0     H92475   8.342   1.822   5.786 -1.2040 -2.2070  1.1741
  686MOL0     O92476   9.248   5.748   8.817 -0.0243 -0.2865 -0.9080
  686MOL0     C92477   9.298   5.815   8.910  0.9856  0.4808 -0.6041
  686MOL0     O92478   9.228   5.858   9.023 -0.0200 -0.1269  0.0792
  686MOL0     C92479   9.094   5.819   9.031  0.5461 -0.1060 -0.6534
  686MOL0     C92480   8.987   5.885   8.972 -0.3506  0.0969  0.4400
  686MOL0     C92481   8.862   5.832   8.983  0.4486 -0.3457 -0.6368
  686MOL0     C92482   8.837   5.725   9.069 -0.4075 -1.2407  0.4429
  686MOL0     O92483   8.714   5.670   9.113 -0.4231 -0.9485  0.1470
  686MOL0     C92484   8.603   5.693   9.030  0.3304  0.1413  0.1373
  686MOL0     C92485   8.489   5.594   9.051 -0.4592  0.1409 -0.3790
  686MOL0     C92486   8.476   5.491   8.936  0.8930 -1.0984  0.0281
  686MOL0     C92487   8.373   5.387   8.990  0.4677 -0.3501 -0.4914
  686MOL0     C92488   8.333   5.276   8.896  0.9752  0.2253 -0.0214
  686MOL0     C92489   8.237   5.175   8.963  0.1897 -0.0865  0.0074
  686MOL0     C92490   8.082   5.226   8.968  0.6309  0.6859 -0.1197
  686MOL0     C92491   8.007   5.094   8.980  0.3880  0.2267 -0.5140
  686MOL0     N92492   7.864   5.108   9.021  0.1073 -0.8811 -0.0681
  686MOL0     C92493   7.794   5.002   9.058  0.4507 -0.2044 -0.7701
  686MOL0     C92494   7.670   5.050   9.088  0.2350  0.2388 -0.8123
  686MOL0     C92495   7.557   4.971   9.149 -0.2284  1.0362 -0.8661
  686MOL0     C92496   7.603   4.862   9.241 -0.0035  0.3471 -0.0928
  686MOL0     C92497   7.617   4.911   9.381  0.4828 -0.0282 -0.2053
  686MOL0     C92498   7.739   4.998   9.416  0.5574 -0.0120 -0.6861
  686MOL0     O92499   7.855   4.921   9.403 -0.6899 -0.2090  0.3566
  686MOL0     C92500   7.983   4.977   9.391  0.5746 -0.5818 -0.1588
  686MOL0     C92501   8.006   5.111   9.351 -0.0924 -0.7066 -0.6534
  686MOL0     C92502   8.131   5.161   9.346 -0.8304  0.2702  0.4539
  686MOL0     C92503   8.248   5.076   9.374 -0.5511  0.6299 -0.1863
  686MOL0     C92504   8.391   5.126   9.363 -0.5862  0.2434  0.2986
  686MOL0     O92505   8.500   5.033   9.355 -0.1112 -0.0372 -0.1412
  686MOL0     C92506   8.624   5.099   9.341 -0.5187 -1.1014 -0.9176
  686MOL0     C92507   8.653   5.192   9.237  0.5139  0.3482 -1.0557
  686MOL0     C92508   8.768   5.276   9.236  0.9611  0.5101  0.2448
  686MOL0     C92509   8.852   5.270   9.345  0.6287 -0.0504 -0.9141
  686MOL0     O92510   8.977   5.328   9.331  0.7199 -0.7211 -0.0691
  686MOL0     C92511   9.052   5.375   9.443  0.1574  0.4632 -0.5522
  686MOL0     C92512   9.178   5.445   9.411 -0.7276  0.4677  0.4693
  686MOL0     C92513   9.271   5.362   9.323  0.2245  0.3784  0.0976
  686MOL0     C92514   9.246   5.374   9.174 -0.0365 -0.2988 -0.6663
  686MOL0     C92515   9.311   5.264   9.087 -0.3145  0.0201 -1.1838
  686MOL0     C92516   9.462   5.280   9.110 -0.0896 -0.1985 -0.4373
  686MOL0     C92517   9.550   5.212   9.008  0.4563 -0.6577  0.6739
  686MOL0     C92518   9.687   5.183   9.072  0.0567 -0.3671 -0.2030
  686MOL0    Cl92519   9.775   5.337   9.089  0.0259  0.4553 -0.0678
  686MOL0     C92520   8.834   5.165   9.451  0.4157  0.7388  0.8516
  686MOL0     C92521   8.715   5.095   9.446 -0.3444  0.5671  0.4185
  686MOL0     O92522   8.407   5.251   9.355  0.0540  0.4182  0.7385
  686MOL0     C92523   8.222   4.936   9.396  0.3318 -0.3919 -1.1869
  686MOL0     C92524   8.084   4.892   9.404 -0.7944  0.9905 -0.0267
  686MOL0     N92525   7.669   5.193   9.068 -0.4431  0.0453 -0.2693
  686MOL0     N92526   7.791   5.217   9.026 -0.2758 -0.1347 -0.1272
  686MOL0     C92527   8.947   5.660   9.121  0.5038 -0.4744 -0.3910
  686MOL0     C92528   9.075   5.698   9.105 -0.7388 -0.4276 -0.8747
  686MOL0     C92529   9.448   5.832   8.912 -0.2276 -0.3097  0.0190
  686MOL0     C92530   9.493   5.965   8.935 -0.4229  0.0988  0.0446
  686MOL0     C92531   9.631   5.991   8.938 -0.1313  0.5631  0.6120
  686MOL0     C92532   9.718   5.875   8.937 -0.2681 -0.1936  0.0820
  686MOL0     O92533   9.855   5.876   8.943  0.2413 -0.2422 -0.0453
  686MOL0     C92534   9.910   5.970   9.030  0.8953 -0.0150  1.1751
  686MOL0     C92535  10.058   5.974   9.019 -0.5809 -0.5810  0.7155
  686MOL0     C92536  10.126   6.061   9.123  0.2239 -0.8182 -0.2993
  686MOL0     C92537  10.287   6.048   9.126  0.0584 -0.4868 -0.0645
  686MOL0     C92538  10.334   6.079   8.995  0.3957 -0.2302  0.4202
  686MOL0     C92539  10.368   6.096   8.880 -0.0216 -0.3355 -0.1403
  686MOL0     C92540   9.677   5.744   8.929 -0.1899 -0.1025 -0.4311
  686MOL0     C92541   9.542   5.726   8.898  0.4200  0.4341  0.1732
  686MOL0     C92542   9.507   5.587   8.862  0.3657  0.7951 -0.0995
  686MOL0     H92543   8.991   5.973   8.908 -3.4772 -0.2141 -0.3937
  686MOL0     H92544   8.782   5.876   8.925 -0.0884  0.9036  0.9933
  686MOL0     H92545   8.570   5.790   9.067  0.6659 -0.7080  2.9647
  686MOL0     H92546   8.633   5.699   8.925 -2.7182 -1.7064 -0.9768
  686MOL0     H92547   8.398   5.655   9.061  0.8541  1.7952  3.4281
  686MOL0     H92548   8.511   5.547   9.147  2.2571  1.7699 -0.0989
  686MOL0     H92549   8.573   5.452   8.901  1.8388  2.9536 -2.5638
  686MOL0     H92550   8.426   5.553   8.861 -0.4333 -0.1957  1.5892
  686MOL0     H92551   8.429   5.337   9.069 -1.6181  1.0507  2.0611
  686MOL0     H92552   8.283   5.433   9.033 -1.1434 -1.9949 -1.8973
  686MOL0     H92553   8.277   5.324   8.816 -0.7028 -0.2834  0.7989
  686MOL0     H92554   8.423   5.224   8.860 -0.2435 -1.7426 -0.3794
  686MOL0     H92555   8.231   5.091   8.894 -4.8427 -1.0219  1.1784
  686MOL0     H92556   8.271   5.132   9.058  0.0727 -1.1661 -0.4217
  686MOL0     H92557   8.064   5.284   8.878  3.9881  4.6906  1.4541
  686MOL0     H92558   8.064   5.276   9.064 -0.0331 -2.4483  1.5564
  686MOL0     H92559   7.998   5.036   8.888 -1.7643 -0.4140  0.0341
  686MOL0     H92560   8.059   5.032   9.054  0.1813 -0.9700 -1.3432
  686MOL0     H92561   7.820   4.896   9.060 -2.0973 -1.0355 -3.5907
  686MOL0     H92562   7.497   5.051   9.194 -1.6741 -0.0895 -0.7179
  686MOL0     H92563   7.498   4.917   9.074  0.6719 -4.5292  1.9310
  686MOL0     H92564   7.522   4.789   9.248  1.7476 -1.5885  1.2081
  686MOL0     H92565   7.686   4.801   9.205  1.2257  2.3345 -0.7260
  686MOL0     H92566   7.618   4.826   9.449 -1.2215 -0.1498 -0.2875
  686MOL0     H92567   7.526   4.966   9.404  2.1963  2.1592  1.9610
  686MOL0     H92568   7.737   5.033   9.520  3.3587  0.8460 -0.8316
  686MOL0     H92569   7.732   5.076   9.341 -2.4758  0.2364 -0.2469
  686MOL0     H92570   7.920   5.177   9.342 -0.6647 -1.0329  1.7978
  686MOL0     H92571   8.153   5.262   9.312  1.0139 -0.4000 -0.4853
  686MOL0     H92572   8.577   5.210   9.163 -0.8322  2.2748  0.6692
  686MOL0     H92573   8.771   5.350   9.157  2.6350  1.5766  1.2415
  686MOL0     H92574   8.986   5.438   9.504 -0.6188  0.1523 -1.0548
  686MOL0     H92575   9.084   5.284   9.496  1.0496 -0.0124 -1.8661
  686MOL0     H92576   9.169   5.545   9.366  1.5335  0.4094 -0.2574
  686MOL0     H92577   9.228   5.459   9.507 -0.5847  1.5391  0.2586
  686MOL0     H92578   9.373   5.388   9.352  0.1171 -2.0346  3.2753
  686MOL0     H92579   9.261   5.256   9.344 -0.4659  0.0324 -1.7846
  686MOL0     H92580   9.286   5.470   9.141  2.4155 -1.1788 -0.4223
  686MOL0     H92581   9.139   5.362   9.154 -0.0430  0.0528 -0.8305
  686MOL0     H92582   9.274   5.270   8.984  0.0737 -2.3231 -1.5188
  686MOL0     H92583   9.275   5.171   9.132 -3.0343  1.2261 -0.6812
  686MOL0     H92584   9.493   5.385   9.115  0.8320 -0.4632 -0.4219
  686MOL0     H92585   9.471   5.236   9.210 -0.2596  1.3845  0.3066
  686MOL0     H92586   9.558   5.270   8.915  2.1148 -2.9633 -0.7047
  686MOL0     H92587   9.507   5.114   8.984  0.1957 -0.4875  0.4333
  686MOL0     H92588   9.666   5.141   9.171 -5.1290 -0.6320 -1.1749
  686MOL0     H92589   9.739   5.118   9.001 -0.6093 -0.7989 -0.3014
  686MOL0     H92590   8.904   5.150   9.533 -0.5600 -0.3187  1.5119
  686MOL0     H92591   8.682   5.018   9.515  0.0394 -1.0220 -1.1336
  686MOL0     H92592   8.299   4.865   9.425 -0.3513 -0.7195 -0.1137
  686MOL0     H92593   8.080   4.784   9.414  0.8184  0.9176  0.0750
  686MOL0     H92594   8.930   5.571   9.181 -1.3902 -1.3397 -2.0846
  686MOL0     H92595   9.159   5.647   9.152 -2.5804 -0.7814  2.3051
  686MOL0     H92596   9.422   6.046   8.949  0.6398  1.1632 -0.5980
  686MOL0     H92597   9.663   6.094   8.943  2.8069 -0.2854  0.9663
  686MOL0     H92598   9.880   5.951   9.134  1.2740 -1.7792  0.9961
  686MOL0     H92599   9.868   6.066   9.000  0.7415  0.3090  2.3493
  686MOL0     H92600  10.092   6.014   8.923  1.6615 -1.0300  1.2597
  686MOL0     H92601  10.094   5.872   9.038 -2.4420 -0.8355  3.4136
  686MOL0     H92602  10.093   6.019   9.218 -2.6634  1.8632  0.0661
  686MOL0     H92603  10.102   6.168   9.119  2.9985 -0.1598 -0.8967
  686MOL0     H92604  10.328   6.100   9.214 -0.9835 -1.4137  1.0079
  686MOL0     H92605  10.312   5.946   9.156 -0.1712  0.2144  2.9007
  686MOL0     H92606  10.389   6.101   8.775 -1.1805 -1.4195 -0.4657
  686MOL0     H92607   9.751   5.664   8.928  2.7549  2.3484  2.3421
  686MOL0     H92608   9.444   5.539   8.938 -0.6723 -0.3110 -1.5928
  686MOL0     H92609   9.439   5.590   8.776  1.1963 -0.7634 -0.8545
  686MOL0     H92610   9.587   5.516   8.842  1.0042  0.7070  2.4462
  687MOL0     O92611   5.734   4.585   5.377 -0.8985 -0.0484 -0.2471
  687MOL0     C92612   5.705   4.550   5.266 -0.2799 -0.2221  0.3207
  687MOL0     O92613   5.786   4.486   5.182  0.1567  1.2276  0.1381
  687MOL0     C92614   5.919   4.475   5.201  0.0962 -0.9643  0.1077
  687MOL0     C92615   6.001   4.582   5.163 -0.0031 -0.3331  0.4841
  687MOL0     C92616   6.136   4.568   5.170 -0.1260 -0.5662 -0.0807
  687MOL0     C92617   6.193   4.453   5.229 -0.3655 -0.3496 -0.3082
  687MOL0     O92618   6.325   4.432   5.247 -0.2869 -0.4836  0.3893
  687MOL0     C92619   6.417   4.485   5.156  0.3269  0.3547 -0.9053
  687MOL0     C92620   6.545   4.417   5.196  0.5049  1.3029  0.4346
  687MOL0     C92621   6.647   4.457   5.089 -0.3350  0.0531 -0.0544
  687MOL0     C92622   6.786   4.413   5.117  0.0808  0.3889  0.2016
  687MOL0     C92623   6.886   4.495   5.032 -0.1158  0.1901 -0.2732
  687MOL0     C92624   7.023   4.441   5.056 -0.5477 -0.1015 -0.3184
  687MOL0     C92625   7.128   4.529   4.967  0.5666 -0.1794  0.0379
  687MOL0     C92626   7.255   4.448   4.959 -0.2127 -0.3490  0.5915
  687MOL0     N92627   7.357   4.520   4.881 -0.6275 -0.1612  0.2620
  687MOL0     C92628   7.395   4.647   4.903  0.1556  0.2449 -0.4705
  687MOL0     C92629   7.516   4.665   4.838  0.9587  0.3795 -0.3925
  687MOL0     C92630   7.594   4.789   4.844 -0.3581 -0.4798 -0.7850
  687MOL0     C92631   7.706   4.790   4.942 -0.4671  0.0984 -0.5278
  687MOL0     C92632   7.805   4.673   4.931 -0.2406 -0.1745  0.0328
  687MOL0     C92633   7.933   4.714   4.995 -0.4242  0.8015 -0.8876
  687MOL0     O92634   8.016   4.606   5.040  0.4407 -0.3527 -0.1826
  687MOL0     C92635   8.129   4.629   5.108 -0.8090 -0.2255 -0.1817
  687MOL0     C92636   8.191   4.751   5.132  0.4107  0.7786 -0.3472
  687MOL0     C92637   8.309   4.762   5.194 -0.5263  0.7324 -0.1133
  687MOL0     C92638   8.374   4.651   5.244  0.4256  0.3459 -0.3069
  687MOL0     C92639   8.512   4.662   5.308 -0.1410 -0.3579 -0.2158
  687MOL0     O92640   8.556   4.546   5.367 -0.1162  0.7367 -0.7134
  687MOL0     C92641   8.675   4.546   5.443  0.6226 -0.4726  0.4487
  687MOL0     C92642   8.798   4.554   5.374 -0.4554 -0.2524  0.4301
  687MOL0     C92643   8.920   4.574   5.444 -0.0719 -0.1624 -0.5025
  687MOL0     C92644   8.920   4.573   5.588  0.0600  0.0015 -1.4346
  687MOL0     O92645   9.044   4.582   5.642 -0.0005  0.5115 -0.7327
  687MOL0     C92646   9.043   4.601   5.784 -0.3948  0.0280 -0.4623
  687MOL0     C92647   9.184   4.621   5.827  0.2411  0.9929  0.4055
  687MOL0     C92648   9.198   4.654   5.970 -0.2069 -0.0890 -0.5384
  687MOL0     C92649   9.342   4.663   6.007 -0.3362  0.7422 -0.0713
  687MOL0     C92650   9.369   4.711   6.143  0.2537  0.3998  0.8712
  687MOL0     C92651   9.494   4.659   6.214 -0.7518 -0.4496 -0.1374
  687MOL0     C92652   9.624   4.689   6.140 -0.2070 -0.0097 -0.3098
  687MOL0     C92653   9.736   4.646   6.237 -0.6572  1.3241  0.2938
  687MOL0    Cl92654   9.754   4.767   6.363  0.3184 -0.2301  0.4463
  687MOL0     C92655   8.797   4.583   5.652  0.2699 -0.0813 -0.3298
  687MOL0     C92656   8.676   4.569   5.577  0.2527 -0.0807 -0.5547
  687MOL0     O92657   8.560   4.776   5.329 -1.1763  0.6683  0.9049
  687MOL0     C92658   8.315   4.524   5.227 -0.0932 -0.3102 -0.6032
  687MOL0     C92659   8.190   4.514   5.157 -0.6560 -0.1775 -0.2562
  687MOL0     N92660   7.552   4.553   4.773 -0.2358  0.2092 -0.5199
  687MOL0     N92661   7.463   4.463   4.816 -0.0008 -0.0086  0.6525
  687MOL0     C92662   6.104   4.355   5.277 -0.5228  0.1411  0.1850
  687MOL0     C92663   5.970   4.356   5.257 -0.1715 -0.4198 -1.3646
  687MOL0     C92664   5.559   4.561   5.232  0.4336 -0.2535  0.5134
  687MOL0     C92665   5.523   4.540   5.096 -0.1900 -0.3564  0.2563
  687MOL0     C92666   5.393   4.555   5.043 -0.5241  0.2854  0.4056
  687MOL0     C92667   5.300   4.602   5.134  0.6044 -0.4895 -0.0555
  687MOL0     O92668   5.176   4.639   5.092  0.3832 -0.3878 -0.0727
  687MOL0     C92669   5.108   4.554   4.993  0.2454 -0.5248 -0.1145
  687MOL0     C92670   4.967   4.532   5.041  0.1012 -0.6383  0.2080
  687MOL0     C92671   4.884   4.658   5.011  0.8086  0.8460  0.0503
  687MOL0     C92672   4.730   4.626   5.023 -0.4796  0.2277  0.0571
  687MOL0     C92673   4.687   4.580   5.154 -0.3086 -0.0283  0.2106
  687MOL0     C92674   4.648   4.563   5.265 -0.5272  0.1362  0.1449
  687MOL0     C92675   5.326   4.633   5.265 -0.2043 -0.7399  0.6736
  687MOL0     C92676   5.456   4.604   5.321  1.2849 -0.0735 -0.5066
  687MOL0     C92677   5.479   4.610   5.474 -0.0347 -0.4173  0.2389
  687MOL0     H92678   5.973   4.678   5.123  0.2630 -0.1304  0.7748
  687MOL0     H92679   6.201   4.646   5.131  1.4771 -2.7968 -2.2025
  687MOL0     H92680   6.382   4.463   5.055 -2.9699  0.0522  0.1666
  687MOL0     H92681   6.429   4.594   5.160  1.4814  0.2526 -1.3717
  687MOL0     H92682   6.526   4.309   5.198 -1.2523  1.5239 -0.8535
  687MOL0     H92683   6.576   4.461   5.291  1.6022  2.2603 -0.3459
  687MOL0     H92684   6.657   4.566   5.086  2.7317 -0.1219  1.0234
  687MOL0     H92685   6.613   4.437   4.987 -2.0371  0.7320  0.3406
  687MOL0     H92686   6.816   4.433   5.220  1.6464  2.3766 -0.5852
  687MOL0     H92687   6.804   4.308   5.090 -0.0652  0.7420 -1.3629
  687MOL0     H92688   6.856   4.500   4.927 -0.1972  0.7140 -0.2270
  687MOL0     H92689   6.884   4.600   5.063  2.2623  1.4362 -3.7503
  687MOL0     H92690   7.059   4.441   5.160  1.1486  0.9574 -0.8674
  687MOL0     H92691   7.035   4.335   5.031 -4.7064 -0.7869 -0.1440
  687MOL0     H92692   7.141   4.628   5.013 -0.5289 -0.1693  0.3560
  687MOL0     H92693   7.083   4.551   4.869 -0.3331 -0.0527  0.4684
  687MOL0     H92694   7.293   4.428   5.059 -0.4843 -0.4092  0.6834
  687MOL0     H92695   7.227   4.359   4.901  0.2040  1.3341 -2.4356
  687MOL0     H92696   7.332   4.715   4.959 -0.5038  0.3900 -1.3639
  687MOL0     H92697   7.636   4.808   4.745 -1.1593 -0.3432 -1.1073
  687MOL0     H92698   7.526   4.872   4.866  1.6421  0.5175  2.3279
  687MOL0     H92699   7.759   4.886   4.936 -1.8086  0.8805 -0.3907
  687MOL0     H92700   7.649   4.774   5.035 -2.4494 -1.2993 -1.9125
  687MOL0     H92701   7.812   4.642   4.827  1.3154  2.0590 -0.5960
  687MOL0     H92702   7.770   4.585   4.987 -0.5766  0.1932  0.4118
  687MOL0     H92703   7.905   4.780   5.077 -1.0610  1.3950 -1.5731
  687MOL0     H92704   8.002   4.772   4.932  0.8812  0.2965  0.0303
  687MOL0     H92705   8.144   4.842   5.096 -0.7074  1.7679  3.1802
  687MOL0     H92706   8.360   4.857   5.207 -0.4190  0.4953  1.3554
  687MOL0     H92707   8.800   4.526   5.269  3.2059 -1.8221  0.7541
  687MOL0     H92708   9.020   4.566   5.402  1.9371  1.1732  3.4828
  687MOL0     H92709   8.985   4.690   5.810  0.9735 -0.2694  4.6849
  687MOL0     H92710   8.992   4.519   5.836 -0.7280  0.5530  0.0619
  687MOL0     H92711   9.234   4.526   5.806  0.1917  1.2561 -1.0025
  687MOL0     H92712   9.232   4.695   5.762  0.9997  1.8587  1.9116
  687MOL0     H92713   9.148   4.749   5.992  1.3392  1.1690 -2.1780
  687MOL0     H92714   9.145   4.579   6.031 -1.3194 -1.4746 -3.0762
  687MOL0     H92715   9.397   4.733   5.944 -1.1322  1.5261  0.0927
  687MOL0     H92716   9.393   4.566   6.003 -0.2668  0.6733  1.5579
  687MOL0     H92717   9.281   4.675   6.196  0.1410  1.4258  1.4049
  687MOL0     H92718   9.363   4.820   6.150 -0.8800  0.5376 -1.3550
  687MOL0     H92719   9.504   4.708   6.312 -0.6437  1.7128 -1.1852
  687MOL0     H92720   9.499   4.550   6.227 -0.0055 -0.5841 -1.4482
  687MOL0     H92721   9.626   4.796   6.115  5.6403  0.0881 -0.8405
  687MOL0     H92722   9.631   4.634   6.046  2.6113 -0.6140  0.1452
  687MOL0     H92723   9.714   4.544   6.271  0.8992 -0.1174 -2.6416
  687MOL0     H92724   9.831   4.641   6.182  0.2059  1.4466  1.7155
  687MOL0     H92725   8.790   4.608   5.757  0.6543 -2.3337  0.2936
  687MOL0     H92726   8.584   4.598   5.627  0.8654  1.4314 -0.2543
  687MOL0     H92727   8.363   4.431   5.258  2.1667  0.9923  0.1116
  687MOL0     H92728   8.153   4.415   5.129 -0.2509  0.6338 -4.2630
  687MOL0     H92729   6.151   4.263   5.309  1.7973  0.8682 -0.9486
  687MOL0     H92730   5.903   4.274   5.281  0.3684 -1.9185 -4.3809
  687MOL0     H92731   5.603   4.530   5.023  0.3616  0.5947  0.7099
  687MOL0     H92732   5.383   4.543   4.936 -2.6839 -1.2956  0.7087
  687MOL0     H92733   5.149   4.454   4.977 -0.9623 -1.0910  0.1616
  687MOL0     H92734   5.100   4.600   4.894 -0.3477 -0.6278 -0.1211
  687MOL0     H92735   4.968   4.486   5.140  0.4912 -2.0137 -0.4109
  687MOL0     H92736   4.930   4.447   4.983  0.7955 -1.8341  1.4509
  687MOL0     H92737   4.910   4.698   4.913 -0.7510  0.0814 -0.7161
  687MOL0     H92738   4.906   4.729   5.092  0.8419  0.9222 -0.0247
  687MOL0     H92739   4.672   4.715   4.997 -1.1652 -0.4072 -0.6268
  687MOL0     H92740   4.710   4.543   4.955 -1.7935 -0.3893  1.1513
  687MOL0     H92741   4.601   4.556   5.361 -2.4784 -2.4141 -0.8716
  687MOL0     H92742   5.261   4.686   5.333 -0.4551 -0.6988  0.4053
  687MOL0     H92743   5.529   4.515   5.494  2.6214  0.9422  0.5076
  687MOL0     H92744   5.536   4.700   5.499 -1.9626  1.4821 -1.6866
  687MOL0     H92745   5.391   4.622   5.537 -0.4069  0.0693 -0.3552
  688MOL0     O92746   2.812   0.338   2.072  0.5773  0.0514  0.0748
  688MOL0     C92747   2.870   0.331   2.182  0.0560  0.5080  0.6472
  688MOL0     O92748   2.961   0.239   2.224  0.4457 -0.9333  0.0738
  688MOL0     C92749   3.006   0.149   2.132  0.0997  0.7086 -0.3195
  688MOL0     C92750   2.923   0.035   2.095  0.3949  0.1472 -0.1045
  688MOL0     C92751   2.973  -0.069   2.026 -0.4324 -0.2709 -0.3350
  688MOL0     C92752   3.100  -0.073   1.971  0.2064  0.2114  0.5233
  688MOL0     O92753   3.131  -0.187   1.898  0.0648  0.0261  0.3233
  688MOL0     C92754   3.207  -0.181   1.780  0.8755 -0.6096  0.4715
  688MOL0     C92755   3.229  -0.327   1.723 -0.5122  0.7060  0.2641
  688MOL0     C92756   3.352  -0.332   1.623  0.2374 -0.1930 -0.2409
  688MOL0     C92757   3.348  -0.467   1.552  0.1501  0.3184  0.5927
  688MOL0     C92758   3.480  -0.481   1.480 -0.9727 -0.7683  0.4698
  688MOL0     C92759   3.484  -0.601   1.385 -0.7137  0.3684  0.1393
  688MOL0     C92760   3.617  -0.650   1.333 -0.0186 -0.0224  0.3793
  688MOL0     C92761   3.715  -0.690   1.444  0.0299  0.2680 -0.2711
  688MOL0     N92762   3.830  -0.770   1.379 -0.1183  0.0506  0.1397
  688MOL0     C92763   3.910  -0.722   1.286 -0.5460 -0.1414 -1.2311
  688MOL0     C92764   4.005  -0.822   1.277  1.2150 -0.8381 -0.0676
  688MOL0     C92765   4.116  -0.818   1.183 -0.3466 -0.5962 -0.1981
  688MOL0     C92766   4.256  -0.811   1.256 -0.1374 -0.0907 -0.0719
  688MOL0     C92767   4.368  -0.845   1.158 -0.9286  0.0260  0.2561
  688MOL0     C92768   4.511  -0.801   1.196  0.2923 -0.1594  0.2244
  688MOL0     O92769   4.611  -0.860   1.108  0.4123 -0.0474 -0.6024
  688MOL0     C92770   4.739  -0.857   1.151 -0.3096 -0.4232  0.4439
  688MOL0     C92771   4.825  -0.953   1.116  0.2462  0.1309 -0.3514
  688MOL0     C92772   4.965  -0.939   1.143  0.1790  0.0991  0.1453
  688MOL0     C92773   5.015  -0.830   1.208 -0.0732  0.0221 -0.1416
  688MOL0     C92774   5.155  -0.815   1.240 -0.7624  0.1045 -0.1796
  688MOL0     O92775   5.194  -0.695   1.291  0.1987  0.5228 -0.2230
  688MOL0     C92776   5.319  -0.669   1.325  0.3499 -0.3914 -0.1787
  688MOL0     C92777   5.349  -0.611   1.456 -0.4186  0.1880  0.1314
  688MOL0     C92778   5.481  -0.582   1.486 -0.3306  0.1406  0.3576
  688MOL0     C92779   5.586  -0.608   1.398  0.3315 -0.2025 -0.2596
  688MOL0     O92780   5.711  -0.573   1.442 -0.1955  0.3872 -0.7124
  688MOL0     C92781   5.826  -0.635   1.365 -0.7265  0.4117 -0.2102
  688MOL0     C92782   5.957  -0.576   1.427 -1.4798 -0.1809  0.5859
  688MOL0     C92783   6.080  -0.639   1.375 -0.0661 -0.0031  0.3451
  688MOL0     C92784   6.184  -0.644   1.487  0.6638 -0.7351 -0.1272
  688MOL0     C92785   6.317  -0.705   1.446 -0.0568  0.2437  0.2798
  688MOL0     C92786   6.423  -0.654   1.547 -0.4148  0.1937  0.0263
  688MOL0     C92787   6.565  -0.714   1.512  0.2886 -0.4025  1.1519
  688MOL0     C92788   6.638  -0.747   1.640 -0.9042  0.1624 -0.2882
  688MOL0    Cl92789   6.772  -0.854   1.604  0.3004  0.1963  0.7709
  688MOL0     C92790   5.557  -0.661   1.272  0.3720 -0.2449 -0.0952
  688MOL0     C92791   5.422  -0.688   1.240 -0.6633  0.1652  0.6405
  688MOL0     O92792   5.231  -0.911   1.229  0.3573 -0.1832 -0.4337
  688MOL0     C92793   4.925  -0.724   1.230 -0.0023  0.1470 -0.5378
  688MOL0     C92794   4.792  -0.736   1.196 -0.6138 -0.6477  0.8870
  688MOL0     N92795   3.968  -0.926   1.356  0.9063 -0.0564 -0.1245
  688MOL0     N92796   3.863  -0.897   1.415 -0.4644  1.3337 -0.0260
  688MOL0     C92797   3.179   0.041   1.991  0.2518 -0.6337 -0.4285
  688MOL0     C92798   3.130   0.152   2.071 -0.6513  1.0401 -0.3035
  688MOL0     C92799   2.847   0.441   2.278 -0.3002 -0.2598  0.3636
  688MOL0     C92800   2.958   0.525   2.289  0.6798  0.1810 -0.7809
  688MOL0     C92801   2.947   0.639   2.365  0.0887  0.1072 -0.4370
  688MOL0     C92802   2.824   0.667   2.422 -0.0203 -0.1513 -0.5220
  688MOL0     O92803   2.815   0.793   2.487  0.1770  0.3965 -0.4356
  688MOL0     C92804   2.695   0.840   2.541 -0.8693 -0.2865 -0.0368
  688MOL0     C92805   2.604   0.904   2.443  0.6390 -0.0245 -0.5725
  688MOL0     C92806   2.461   0.909   2.488 -0.3933  0.3399 -0.0120
  688MOL0     C92807   2.372   1.000   2.412  0.3897 -0.6614 -0.1274
  688MOL0     C92808   2.398   1.044   2.272 -0.3043 -1.0529 -0.3289
  688MOL0     C92809   2.428   1.052   2.157 -0.2250  0.3152  0.6019
  688MOL0     C92810   2.712   0.588   2.411  0.2499  0.1619 -0.6752
  688MOL0     C92811   2.724   0.470   2.344 -0.4176 -0.0048  0.0037
  688MOL0     C92812   2.599   0.382   2.334 -0.2454  0.2313  0.3236
  688MOL0     H92813   2.817   0.024   2.114  0.3403  1.8944  0.8323
  688MOL0     H92814   2.911  -0.158   2.029  2.5162 -2.4522  1.2722
  688MOL0     H92815   3.144  -0.121   1.714 -0.7206 -0.3825  2.1184
  688MOL0     H92816   3.301  -0.129   1.804 -0.2434  1.1030  1.3354
  688MOL0     H92817   3.146  -0.355   1.658  1.0672  1.7922 -2.3687
  688MOL0     H92818   3.240  -0.405   1.800  1.0184  1.0479  0.4150
  688MOL0     H92819   3.440  -0.315   1.686  1.4629  1.2230 -2.2303
  688MOL0     H92820   3.355  -0.253   1.548  0.3229 -0.5072 -0.5705
  688MOL0     H92821   3.336  -0.555   1.616 -1.8821  0.4587  0.4418
  688MOL0     H92822   3.266  -0.478   1.480  1.7109 -1.5342 -1.0575
  688MOL0     H92823   3.506  -0.396   1.417  2.1199 -0.2051  2.3234
  688MOL0     H92824   3.549  -0.486   1.565 -1.1379  0.5504  0.7035
  688MOL0     H92825   3.446  -0.686   1.443 -1.5614  0.7054  0.0965
  688MOL0     H92826   3.411  -0.583   1.305  2.7687 -2.9962 -4.2676
  688MOL0     H92827   3.670  -0.570   1.280  0.9579 -1.9477 -1.7258
  688MOL0     H92828   3.602  -0.727   1.256  0.0705  1.9583 -1.7478
  688MOL0     H92829   3.749  -0.603   1.501 -1.5297  1.1197 -0.5985
  688MOL0     H92830   3.669  -0.767   1.506 -2.5779  0.4570 -1.8229
  688MOL0     H92831   3.919  -0.625   1.237  0.8563  1.4771  1.9668
  688MOL0     H92832   4.103  -0.913   1.131 -0.1375 -0.7862  0.0867
  688MOL0     H92833   4.107  -0.740   1.107  3.0091  0.1392  0.0177
  688MOL0     H92834   4.272  -0.708   1.290  0.1841 -0.8718  2.3738
  688MOL0     H92835   4.251  -0.868   1.349 -0.1749  0.8275  0.5087
  688MOL0     H92836   4.353  -0.794   1.063  0.3519 -2.0385 -1.1363
  688MOL0     H92837   4.372  -0.952   1.138  4.0432  0.0827 -0.3388
  688MOL0     H92838   4.523  -0.826   1.302 -1.3185  0.0151  0.4766
  688MOL0     H92839   4.513  -0.692   1.184 -1.5954 -0.1354 -0.0812
  688MOL0     H92840   4.795  -1.050   1.078  0.5346  1.1719 -3.5895
  688MOL0     H92841   5.030  -1.024   1.122  2.3976  0.9464  2.8480
  688MOL0     H92842   5.273  -0.592   1.531  0.4353 -0.6256  1.2315
  688MOL0     H92843   5.510  -0.531   1.577 -2.3044  3.7165 -0.8180
  688MOL0     H92844   5.832  -0.744   1.373  2.4791  0.3667 -1.4125
  688MOL0     H92845   5.824  -0.608   1.259 -0.9745  2.0515  0.1832
  688MOL0     H92846   5.962  -0.468   1.412 -1.5418 -0.0020  1.7231
  688MOL0     H92847   5.964  -0.580   1.536 -0.7669 -0.9996  0.5180
  688MOL0     H92848   6.056  -0.741   1.343  1.4539 -0.1710 -0.3514
  688MOL0     H92849   6.126  -0.597   1.285  0.1478 -0.9435  0.0029
  688MOL0     H92850   6.136  -0.687   1.575  0.7181 -0.4032  0.0674
  688MOL0     H92851   6.193  -0.541   1.522 -2.4557 -0.2300 -0.5392
  688MOL0     H92852   6.346  -0.680   1.344 -2.1865  3.4413  0.3110
  688MOL0     H92853   6.315  -0.814   1.452 -0.6546  0.2085 -0.4674
  688MOL0     H92854   6.426  -0.545   1.550  1.9071  0.1640  2.6077
  688MOL0     H92855   6.388  -0.679   1.647 -0.7907  0.9079  0.0812
  688MOL0     H92856   6.615  -0.634   1.457 -2.2577  0.1447 -0.5427
  688MOL0     H92857   6.555  -0.791   1.435 -1.6861  2.7003 -1.9680
  688MOL0     H92858   6.681  -0.658   1.687  3.8702 -2.2959  0.5161
  688MOL0     H92859   6.572  -0.783   1.719  3.4283 -2.4546  2.5452
  688MOL0     H92860   5.628  -0.679   1.192 -1.1458  1.6606 -1.9916
  688MOL0     H92861   5.400  -0.715   1.137  0.7926 -1.4311  0.7174
  688MOL0     H92862   4.947  -0.621   1.255 -0.3940 -0.3163  1.9083
  688MOL0     H92863   4.716  -0.658   1.186 -2.4419 -2.5853 -1.5804
  688MOL0     H92864   3.284   0.047   1.962  1.0291  0.6784  2.2988
  688MOL0     H92865   3.198   0.235   2.085 -0.7773  1.0422  0.3529
  688MOL0     H92866   3.051   0.505   2.237  1.1228 -0.9187  0.3603
  688MOL0     H92867   3.030   0.705   2.387  1.8300 -2.5436  1.5335
  688MOL0     H92868   2.739   0.906   2.616 -0.5102  0.5369 -0.9384
  688MOL0     H92869   2.649   0.757   2.595  1.5773 -2.6863 -1.3898
  688MOL0     H92870   2.624   0.887   2.337  1.6291 -1.3869 -0.1960
  688MOL0     H92871   2.643   1.007   2.448 -0.8263  0.5570 -0.8081
  688MOL0     H92872   2.444   0.922   2.595 -0.0005 -3.2127  0.5993
  688MOL0     H92873   2.434   0.805   2.471 -0.6676  0.4985 -0.5460
  688MOL0     H92874   2.268   0.969   2.428  0.1821  1.1722  2.6959
  688MOL0     H92875   2.380   1.095   2.465  0.6487 -0.1919 -0.9777
  688MOL0     H92876   2.469   1.045   2.059  0.9440 -0.5519  1.1248
  688MOL0     H92877   2.621   0.614   2.464  0.9949 -0.4629  1.0137
  688MOL0     H92878   2.577   0.375   2.227 -0.3861 -0.4732  0.3926
  688MOL0     H92879   2.619   0.285   2.381 -0.3574  0.3762  0.6758
  688MOL0     H92880   2.511   0.437   2.371  2.6339  4.7914  1.1428
  689MOL0     O92881   2.053   8.384   5.901  0.8615  0.5286  0.1406
  689MOL0     C92882   1.984   8.436   5.815  0.7318  0.0838  1.1586
  689MOL0     O92883   2.027   8.482   5.695 -0.4021  0.5578  0.1764
  689MOL0     C92884   2.153   8.440   5.656  0.5286  0.0704  0.5819
  689MOL0     C92885   2.179   8.299   5.633 -0.1068  0.4350  0.1046
  689MOL0     C92886   2.301   8.266   5.573  0.2953  0.1766  0.6173
  689MOL0     C92887   2.394   8.364   5.548 -0.6568 -0.1041  0.4275
  689MOL0     O92888   2.502   8.334   5.467  0.1037 -0.7378 -0.2499
  689MOL0     C92889   2.563   8.210   5.481  0.1169 -0.4460 -0.3927
  689MOL0     C92890   2.695   8.203   5.413  0.1291 -0.0740 -0.5749
  689MOL0     C92891   2.809   8.278   5.491 -0.1608 -0.0914  0.4131
  689MOL0     C92892   2.941   8.268   5.414  0.1055  0.2925  0.5659
  689MOL0     C92893   3.056   8.328   5.498 -0.2873 -0.2686  0.3857
  689MOL0     C92894   3.194   8.306   5.428  0.0687 -0.7504  0.0032
  689MOL0     C92895   3.299   8.354   5.526 -0.4431  0.2602 -0.1720
  689MOL0     C92896   3.432   8.302   5.472 -0.7375 -0.4318 -0.4384
  689MOL0     N92897   3.542   8.353   5.564  0.0619 -0.6446 -1.0266
  689MOL0     C92898   3.574   8.484   5.582  0.2714 -0.9436  0.4368
  689MOL0     C92899   3.656   8.490   5.686  0.2738  0.0812 -0.1448
  689MOL0     C92900   3.719   8.603   5.758 -0.4098  0.3490 -0.6564
  689MOL0     C92901   3.875   8.598   5.719 -0.1615 -0.7418 -0.1670
  689MOL0     C92902   3.952   8.705   5.798 -0.1723  0.0780 -0.9332
  689MOL0     C92903   4.098   8.708   5.776 -0.7378 -0.7872  0.5338
  689MOL0     O92904   4.166   8.580   5.789 -0.1083 -0.9989 -0.1094
  689MOL0     C92905   4.300   8.579   5.755 -0.0071  0.4494  0.2907
  689MOL0     C92906   4.385   8.683   5.710  0.0570 -0.0127 -0.7216
  689MOL0     C92907   4.521   8.663   5.701  0.3845 -0.3203  2.0718
  689MOL0     C92908   4.579   8.535   5.728  0.5390 -0.0521  0.4791
  689MOL0     C92909   4.724   8.511   5.687  0.1787  0.6454  0.0138
  689MOL0     O92910   4.776   8.596   5.590 -0.6144  0.5242  0.1875
  689MOL0     C92911   4.900   8.575   5.535  0.6751  0.0070 -0.2938
  689MOL0     C92912   4.930   8.456   5.468 -0.4816  0.2461 -0.1591
  689MOL0     C92913   5.060   8.452   5.399 -0.6152 -0.6474 -0.5070
  689MOL0     C92914   5.148   8.564   5.404 -0.3492 -0.9999 -0.2115
  689MOL0     O92915   5.264   8.546   5.345  0.0384  0.0558 -0.3952
  689MOL0     C92916   5.373   8.630   5.364 -0.2466 -0.9824  0.7766
  689MOL0     C92917   5.485   8.566   5.292  0.4706 -0.3540 -0.4290
  689MOL0     C92918   5.587   8.662   5.256 -0.0279 -0.4953 -0.3690
  689MOL0     C92919   5.699   8.581   5.192  0.4961  0.1125 -0.0276
  689MOL0     C92920   5.781   8.674   5.098 -0.4488  0.1881  0.0464
  689MOL0     C92921   5.895   8.585   5.044 -0.2248 -1.1662 -0.4612
  689MOL0     C92922   5.871   8.496   4.921  0.0044  0.7008 -0.7552
  689MOL0     C92923   5.876   8.561   4.786  0.2723 -0.8410 -0.1582
  689MOL0    Cl92924   6.048   8.625   4.756 -0.2680  0.1312  0.0832
  689MOL0     C92925   5.098   8.687   5.451  0.0587 -0.4306  0.4214
  689MOL0     C92926   4.978   8.685   5.516 -0.8713 -0.1303  0.4672
  689MOL0     O92927   4.787   8.416   5.741 -0.0680  0.1064 -0.6366
  689MOL0     C92928   4.497   8.431   5.765  0.3938 -0.3135  0.4305
  689MOL0     C92929   4.363   8.459   5.783  0.1656  0.3016 -0.2265
  689MOL0     N92930   3.669   8.353   5.727  0.3066 -0.0549  0.9602
  689MOL0     N92931   3.602   8.270   5.660  1.1006 -0.1470 -0.0703
  689MOL0     C92932   2.364   8.498   5.565 -0.1953 -0.5483  0.6480
  689MOL0     C92933   2.243   8.542   5.621  0.0474  0.4108 -0.0103
  689MOL0     C92934   1.836   8.436   5.829  0.8914 -0.4617  0.9934
  689MOL0     C92935   1.778   8.331   5.904  0.5642  0.2111  0.4228
  689MOL0     C92936   1.630   8.313   5.916 -0.6579 -0.6007  0.1017
  689MOL0     C92937   1.551   8.406   5.845 -0.9425  0.3378  0.5611
  689MOL0     O92938   1.416   8.388   5.854 -0.0416 -0.1925  0.1549
  689MOL0     C92939   1.360   8.291   5.762 -0.2801  0.1080 -0.4901
  689MOL0     C92940   1.212   8.325   5.735 -0.0796 -0.0343 -1.1900
  689MOL0     C92941   1.140   8.237   5.626 -0.6640 -0.1078  0.1561
  689MOL0     C92942   1.138   8.089   5.666 -0.5531  0.1981  0.0318
  689MOL0     C92943   1.239   8.022   5.579  0.0912  0.5812 -0.0220
  689MOL0     C92944   1.326   7.979   5.511 -0.5716  0.3006  0.2328
  689MOL0     C92945   1.609   8.510   5.777  0.8817  0.5868  0.9026
  689MOL0     C92946   1.748   8.531   5.763 -0.5663 -0.5764  0.0884
  689MOL0     C92947   1.796   8.657   5.697 -0.9557 -0.0309  0.6282
  689MOL0     H92948   2.109   8.227   5.673  1.2482 -1.5769 -0.9475
  689MOL0     H92949   2.327   8.167   5.536  2.3074  0.6698  0.6077
  689MOL0     H92950   2.553   8.172   5.583 -1.0613  1.7332  0.3789
  689MOL0     H92951   2.504   8.149   5.412 -0.0793 -0.1216 -0.5145
  689MOL0     H92952   2.675   8.246   5.314  0.0467 -0.3789 -0.6914
  689MOL0     H92953   2.723   8.098   5.404 -0.8845 -0.2611 -1.8467
  689MOL0     H92954   2.824   8.223   5.584  1.6386  0.4644  0.4940
  689MOL0     H92955   2.774   8.381   5.495 -0.9342 -0.3803  1.4340
  689MOL0     H92956   2.957   8.161   5.393 -1.4144 -0.0147  0.8110
  689MOL0     H92957   2.927   8.324   5.321 -1.9995 -0.0687  0.6155
  689MOL0     H92958   3.044   8.436   5.511  1.0411  0.4452 -3.1700
  689MOL0     H92959   3.043   8.281   5.595 -3.2629 -1.4536 -0.4848
  689MOL0     H92960   3.205   8.200   5.404 -0.5887 -0.4399 -1.8493
  689MOL0     H92961   3.211   8.358   5.333  0.7588  1.0605  1.0622
  689MOL0     H92962   3.288   8.300   5.620 -0.4611 -0.0031 -0.3239
  689MOL0     H92963   3.302   8.464   5.526  0.5940  0.2575 -1.2135
  689MOL0     H92964   3.445   8.195   5.487 -1.4144 -0.1637  3.1048
  689MOL0     H92965   3.446   8.318   5.365 -1.8793 -4.1929 -1.2863
  689MOL0     H92966   3.537   8.567   5.522 -0.3407 -1.2644  0.3564
  689MOL0     H92967   3.680   8.701   5.729  0.0484  1.1625  1.2878
  689MOL0     H92968   3.711   8.595   5.867 -0.1458 -0.7893 -0.7083
  689MOL0     H92969   3.901   8.494   5.743 -0.0991 -1.8952 -4.3988
  689MOL0     H92970   3.871   8.628   5.614 -2.1308  1.5040  0.4651
  689MOL0     H92971   3.938   8.698   5.906  0.4169  1.4384 -0.7507
  689MOL0     H92972   3.907   8.800   5.769  1.0120  1.3342  1.1120
  689MOL0     H92973   4.156   8.787   5.824  1.8676 -1.3277 -1.4793
  689MOL0     H92974   4.111   8.732   5.670 -0.7234  2.0389  1.0994
  689MOL0     H92975   4.331   8.777   5.704 -1.0203 -0.4507  1.2127
  689MOL0     H92976   4.577   8.752   5.674  0.6482 -0.3355  2.5706
  689MOL0     H92977   4.869   8.368   5.482  3.1461 -2.1093  3.3039
  689MOL0     H92978   5.090   8.358   5.354  0.5509 -0.5273 -0.0202
  689MOL0     H92979   5.346   8.719   5.305 -0.8150 -1.0343  0.9513
  689MOL0     H92980   5.396   8.668   5.464 -1.1603 -1.8691  1.3408
  689MOL0     H92981   5.525   8.493   5.363  1.9935  1.3763  0.5861
  689MOL0     H92982   5.443   8.522   5.201  1.4548 -1.2280 -0.4826
  689MOL0     H92983   5.545   8.736   5.187 -1.5123 -0.6318  0.3517
  689MOL0     H92984   5.632   8.705   5.345  2.8456  1.2823 -2.5113
  689MOL0     H92985   5.650   8.502   5.135 -3.6484  0.7784  2.2295
  689MOL0     H92986   5.759   8.532   5.268 -1.6873 -3.1069 -0.2025
  689MOL0     H92987   5.835   8.751   5.154  3.5653 -2.8700  0.8766
  689MOL0     H92988   5.720   8.719   5.020 -0.5211 -0.6562 -0.3977
  689MOL0     H92989   5.979   8.651   5.021 -0.2146 -1.2699 -0.7257
  689MOL0     H92990   5.930   8.511   5.116  0.3750 -1.1110 -0.6855
  689MOL0     H92991   5.778   8.439   4.932  0.4914  0.2724  1.8607
  689MOL0     H92992   5.951   8.422   4.928 -0.0783  0.7294  0.9543
  689MOL0     H92993   5.840   8.493   4.708 -1.8705  0.4879 -0.4238
  689MOL0     H92994   5.800   8.640   4.798  2.6151  1.2218  2.2725
  689MOL0     H92995   5.145   8.782   5.430  0.8087 -1.4178 -3.0455
  689MOL0     H92996   4.939   8.779   5.555 -3.1189  0.5312 -2.9597
  689MOL0     H92997   4.538   8.334   5.792  1.6933  0.5504  1.7806
  689MOL0     H92998   4.304   8.377   5.820  1.8731 -0.6159  0.5639
  689MOL0     H92999   2.441   8.561   5.522 -1.4214 -1.2500 -2.9282
  689MOL0     H93000   2.228   8.647   5.645  3.5987  0.4468  2.8733
  689MOL0     H93001   1.843   8.266   5.961  0.5325 -0.0525  0.1568
  689MOL0     H93002   1.586   8.228   5.966 -1.4393 -1.0048 -1.2099
  689MOL0     H93003   1.370   8.195   5.815  2.3107  0.9171  0.6033
  689MOL0     H93004   1.419   8.289   5.671  0.3394 -0.6212 -0.0922
  689MOL0     H93005   1.202   8.431   5.712  2.1495  0.3788 -0.4783
  689MOL0     H93006   1.156   8.311   5.828 -0.7072 -2.7515 -1.8860
  689MOL0     H93007   1.182   8.259   5.527 -0.7197 -0.1805  0.1163
  689MOL0     H93008   1.038   8.274   5.635 -1.2017 -1.8455  1.9172
  689MOL0     H93009   1.169   8.075   5.770 -0.4393 -0.1596 -0.0510
  689MOL0     H93010   1.041   8.045   5.643 -0.7002  0.5393 -0.0126
  689MOL0     H93011   1.406   7.936   5.454 -2.5271 -0.9573 -1.7515
  689MOL0     H93012   1.540   8.577   5.726 -0.0193 -0.7138  0.3584
  689MOL0     H93013   1.837   8.630   5.600  0.8232 -0.4341  1.4492
  689MOL0     H93014   1.719   8.734   5.685 -1.5243 -0.9815 -2.8969
  689MOL0     H93015   1.869   8.704   5.764 -0.4663 -4.0637  3.2701
  690MOL0     O93016   5.675   5.741   6.054 -0.3734 -0.2342  0.3072
  690MOL0     C93017   5.665   5.618   6.051  0.1585  0.2211 -0.4703
  690MOL0     O93018   5.776   5.528   6.052  0.1185 -0.2096  0.9318
  690MOL0     C93019   5.899   5.591   6.057 -0.9808  0.1343  0.3189
  690MOL0     C93020   5.944   5.655   6.174 -1.0371 -0.8410  0.3926
  690MOL0     C93021   6.084   5.706   6.178  0.5852  0.5583 -0.0773
  690MOL0     C93022   6.168   5.700   6.063 -0.6110  0.5179 -0.0269
  690MOL0     O93023   6.295   5.758   6.062  0.5268  0.5007  0.0073
  690MOL0     C93024   6.271   5.903   6.080  0.1218  0.1330  0.1155
  690MOL0     C93025   6.388   5.988   6.132 -0.6205 -0.2608 -0.1901
  690MOL0     C93026   6.338   6.134   6.126 -0.8796 -0.0000 -1.0578
  690MOL0     C93027   6.443   6.232   6.183  0.3405 -0.7708 -0.0114
  690MOL0     C93028   6.408   6.372   6.140  0.2170 -0.6862 -0.4463
  690MOL0     C93029   6.291   6.435   6.227 -0.5238  0.6744 -0.4225
  690MOL0     C93030   6.237   6.560   6.160 -0.1426  0.4782 -0.1695
  690MOL0     C93031   6.152   6.644   6.259  0.5048  0.0328  0.3835
  690MOL0     N93032   6.089   6.753   6.184 -0.4442 -1.0039  1.0344
  690MOL0     C93033   6.023   6.738   6.062 -0.4739 -0.3203  0.4520
  690MOL0     C93034   6.024   6.865   6.005  0.2036  0.5733 -0.4897
  690MOL0     C93035   5.959   6.910   5.880 -0.1254  0.1292  0.0570
  690MOL0     C93036   6.059   7.002   5.791  0.1040  0.0600  0.2305
  690MOL0     C93037   6.030   7.012   5.644  0.0545  0.6737  0.0477
  690MOL0     C93038   5.872   7.041   5.625 -0.8765  0.4819 -0.2759
  690MOL0     O93039   5.852   7.142   5.526  0.3510  0.4915 -0.0073
  690MOL0     C93040   5.733   7.204   5.522  0.7862  0.3381 -0.8718
  690MOL0     C93041   5.712   7.298   5.425 -0.0654 -0.0024 -0.3570
  690MOL0     C93042   5.593   7.360   5.401 -0.3158  0.4157  0.2903
  690MOL0     C93043   5.478   7.326   5.483  0.1418  0.8794  0.5651
  690MOL0     C93044   5.339   7.381   5.460 -0.4160  0.2567 -0.8206
  690MOL0     O93045   5.237   7.322   5.535 -0.1394 -0.3248  0.5064
  690MOL0     C93046   5.116   7.380   5.571 -1.3807  0.8863 -0.0434
  690MOL0     C93047   5.089   7.513   5.569  0.0630 -0.2181  0.6530
  690MOL0     C93048   4.957   7.552   5.606  0.5043 -0.4536 -0.9452
  690MOL0     C93049   4.860   7.458   5.639 -0.5562 -0.6259 -0.4650
  690MOL0     O93050   4.727   7.488   5.657 -0.4233  0.4521  0.2353
  690MOL0     C93051   4.675   7.565   5.549  0.5663 -0.3753 -0.2168
  690MOL0     C93052   4.519   7.585   5.550  0.1651 -0.1628 -0.3793
  690MOL0     C93053   4.446   7.445   5.548 -0.3099 -0.3835  0.0643
  690MOL0     C93054   4.433   7.390   5.402 -0.0776 -1.0187  0.0140
  690MOL0     C93055   4.314   7.297   5.391  0.1171  0.4198 -0.0196
  690MOL0     C93056   4.314   7.243   5.241  0.7204  0.0729 -0.6672
  690MOL0     C93057   4.194   7.161   5.184  0.8021 -0.5106 -0.3883
  690MOL0     C93058   4.181   7.028   5.260 -0.1145 -0.2496  0.6998
  690MOL0    Cl93059   4.011   6.968   5.230  0.5078  0.1872  0.2432
  690MOL0     C93060   4.894   7.328   5.651  0.0938 -0.0819  0.0737
  690MOL0     C93061   5.021   7.284   5.618  0.4726  0.2792  0.6677
  690MOL0     O93062   5.324   7.478   5.382 -0.3882  0.2056 -0.4494
  690MOL0     C93063   5.502   7.235   5.584  0.6089  0.2775  0.1661
  690MOL0     C93064   5.619   7.167   5.601  0.3086 -0.1119  0.3273
  690MOL0     N93065   6.071   6.951   6.106  0.1877 -0.6488  0.3622
  690MOL0     N93066   6.111   6.884   6.209 -0.3154  0.4836  0.4768
  690MOL0     C93067   6.117   5.627   5.964 -0.7741 -0.7127  0.1426
  690MOL0     C93068   5.988   5.575   5.953 -0.2917  0.8321  0.5729
  690MOL0     C93069   5.520   5.557   6.055 -0.1793  0.1972  0.0654
  690MOL0     C93070   5.505   5.418   6.086  0.3931 -0.5114 -0.0593
  690MOL0     C93071   5.378   5.360   6.096  0.3319  0.3582  0.1132
  690MOL0     C93072   5.258   5.428   6.063 -0.1000  0.1883  0.2252
  690MOL0     O93073   5.146   5.351   6.073 -0.5343 -0.2321  0.1109
  690MOL0     C93074   5.031   5.402   5.997 -0.6368 -0.9079 -0.3349
  690MOL0     C93075   4.895   5.342   6.042 -0.0279  0.1507  0.7225
  690MOL0     C93076   4.889   5.204   5.983  0.4780  0.1283  0.2531
  690MOL0     C93077   4.759   5.126   5.996 -0.5071  1.7875  0.1806
  690MOL0     C93078   4.699   5.115   6.131 -0.4433  0.2522 -0.3489
  690MOL0     C93079   4.645   5.113   6.238  0.1565 -0.0083  0.3235
  690MOL0     C93080   5.281   5.553   6.003 -0.1124 -0.1604 -0.8050
  690MOL0     C93081   5.405   5.620   6.001  0.3530 -0.1051 -0.4189
  690MOL0     C93082   5.408   5.747   5.914  0.1562  0.1839 -0.4953
  690MOL0     H93083   5.893   5.678   6.267  0.9148  1.5188  0.9629
  690MOL0     H93084   6.121   5.760   6.264 -2.1629  3.7916 -0.7548
  690MOL0     H93085   6.235   5.940   5.984  2.0785 -0.0417 -0.7303
  690MOL0     H93086   6.197   5.925   6.158 -0.4880  0.4452 -0.5429
  690MOL0     H93087   6.479   5.969   6.074 -0.0797 -3.7007  1.5257
  690MOL0     H93088   6.415   5.956   6.233 -1.5263  0.9705  0.4799
  690MOL0     H93089   6.249   6.127   6.189 -0.3054  0.5089 -0.1506
  690MOL0     H93090   6.313   6.168   6.025 -2.0876 -2.1579 -1.5429
  690MOL0     H93091   6.428   6.233   6.291  1.3444  1.6886  0.1749
  690MOL0     H93092   6.542   6.199   6.148 -1.0902 -2.5827 -2.6902
  690MOL0     H93093   6.494   6.440   6.143 -0.8627  0.8199 -1.7423
  690MOL0     H93094   6.376   6.370   6.036 -0.1016  1.3612 -0.4420
  690MOL0     H93095   6.203   6.370   6.232 -0.9975  1.3868  1.1353
  690MOL0     H93096   6.322   6.463   6.328  0.8121  2.6487 -1.3254
  690MOL0     H93097   6.183   6.537   6.067  1.1007 -3.2821 -0.1548
  690MOL0     H93098   6.322   6.624   6.137 -1.1471  1.8792 -0.0938
  690MOL0     H93099   6.075   6.581   6.304  1.7351 -2.4814 -0.8560
  690MOL0     H93100   6.218   6.682   6.338  3.6042  2.1332 -2.8746
  690MOL0     H93101   5.983   6.643   6.026 -0.4794  0.5600 -2.0519
  690MOL0     H93102   5.938   6.817   5.825  2.7458 -1.5869  1.6233
  690MOL0     H93103   5.865   6.964   5.895  1.5344  3.4291 -0.6859
  690MOL0     H93104   6.051   7.106   5.824  0.1983  0.9355 -2.3432
  690MOL0     H93105   6.165   6.974   5.796  0.2667  0.2924 -1.5089
  690MOL0     H93106   6.046   6.914   5.598  3.7185  1.0734  0.2179
  690MOL0     H93107   6.093   7.086   5.594 -1.8653  0.3800 -3.0843
  690MOL0     H93108   5.839   7.082   5.721  0.8376 -0.9555  0.9972
  690MOL0     H93109   5.821   6.948   5.601 -1.0004  0.4729  0.0241
  690MOL0     H93110   5.801   7.332   5.373  2.2768 -1.0582  2.6745
  690MOL0     H93111   5.578   7.441   5.330 -0.8262  0.5768  0.5732
  690MOL0     H93112   5.157   7.593   5.541 -0.9714  0.8589  1.1423
  690MOL0     H93113   4.933   7.658   5.599 -0.0601 -0.4707  0.5249
  690MOL0     H93114   4.711   7.667   5.559  0.2055 -0.4290  2.0527
  690MOL0     H93115   4.717   7.530   5.454  1.9086  1.2810 -0.2702
  690MOL0     H93116   4.495   7.634   5.645 -1.3213  0.4668 -1.0560
  690MOL0     H93117   4.493   7.658   5.473 -0.9801 -0.4746 -0.3078
  690MOL0     H93118   4.507   7.375   5.604 -0.7181 -0.4105  0.4834
  690MOL0     H93119   4.350   7.445   5.601 -0.5961  0.4495 -0.4306
  690MOL0     H93120   4.524   7.342   5.365  0.3066  0.1322 -0.5730
  690MOL0     H93121   4.404   7.473   5.337 -0.3651  0.0533  1.4397
  690MOL0     H93122   4.220   7.348   5.417 -1.2239  0.1780 -3.8000
  690MOL0     H93123   4.326   7.212   5.459 -3.5705 -1.2090 -1.1605
  690MOL0     H93124   4.327   7.334   5.182  0.9963  1.2909  1.1890
  690MOL0     H93125   4.403   7.181   5.231 -0.2329 -0.9717 -3.8207
  690MOL0     H93126   4.200   7.146   5.076 -0.7348 -0.0988 -0.5565
  690MOL0     H93127   4.108   7.225   5.203  3.3504  2.3057  2.9743
  690MOL0     H93128   4.258   6.953   5.238 -0.5173 -1.0139  1.7879
  690MOL0     H93129   4.190   7.036   5.369  3.7878  1.4613  0.4093
  690MOL0     H93130   4.819   7.256   5.682  0.3766  0.1496  1.3448
  690MOL0     H93131   5.047   7.178   5.614 -2.6929 -0.5703 -0.8145
  690MOL0     H93132   5.423   7.199   5.650 -1.4457 -1.6966 -3.0538
  690MOL0     H93133   5.619   7.079   5.665 -0.9339 -0.9490 -0.7586
  690MOL0     H93134   6.179   5.618   5.876 -3.5560 -2.4089 -1.8139
  690MOL0     H93135   5.943   5.537   5.862 -4.3380  3.1936  1.3414
  690MOL0     H93136   5.589   5.354   6.113  0.3006 -0.2899  0.7718
  690MOL0     H93137   5.364   5.254   6.119 -0.4004  0.0600 -1.5609
  690MOL0     H93138   5.053   5.389   5.891  0.5000  2.9801 -0.7163
  690MOL0     H93139   5.025   5.510   6.012  3.3536  0.0194 -3.5717
  690MOL0     H93140   4.801   5.385   6.007  0.1362 -0.0564  0.0239
  690MOL0     H93141   4.880   5.339   6.151  0.7843  2.5812  0.9514
  690MOL0     H93142   4.964   5.141   6.033  0.9282 -0.6134 -1.2793
  690MOL0     H93143   4.907   5.203   5.875 -2.9524 -0.5523 -0.4137
  690MOL0     H93144   4.687   5.176   5.931 -1.6273  1.9056  1.4626
  690MOL0     H93145   4.767   5.022   5.962  0.9063  1.7700  0.5161
  690MOL0     H93146   4.607   5.133   6.336 -1.1497  3.2922 -0.7091
  690MOL0     H93147   5.198   5.605   5.958 -1.8611 -0.3515  1.9873
  690MOL0     H93148   5.509   5.774   5.882  0.5354 -1.2904 -0.6248
  690MOL0     H93149   5.334   5.740   5.834 -0.7085  0.6456  0.2442
  690MOL0     H93150   5.360   5.823   5.976  0.1532  1.8231 -2.3956
  691MOL0     O93151  10.021   3.758   7.278 -0.4447 -0.2743 -0.3253
  691MOL0     C93152  10.094   3.658   7.277 -0.9392 -0.9081 -0.2646
  691MOL0     O93153  10.192   3.633   7.367 -0.5748 -0.1247 -0.7816
  691MOL0     C93154  10.206   3.719   7.474  0.2949 -0.7329 -0.4720
  691MOL0     C93155  10.314   3.799   7.501 -0.7578  0.1586 -0.6809
  691MOL0     C93156  10.320   3.881   7.609 -0.1285  0.0372 -0.1649
  691MOL0     C93157  10.224   3.881   7.707  1.0318  0.2606  0.2014
  691MOL0     O93158  10.240   3.958   7.814 -0.7386 -0.0584  0.2649
  691MOL0     C93159  10.267   4.096   7.786  0.7184 -0.8870  0.3029
  691MOL0     C93160  10.177   4.178   7.883 -0.9368 -0.4254 -0.2561
  691MOL0     C93161  10.038   4.184   7.840 -0.9008  0.2035  0.5384
  691MOL0     C93162   9.962   4.284   7.924  0.2875 -1.2873 -0.2679
  691MOL0     C93163   9.827   4.314   7.869  0.6040  0.1801 -0.5111
  691MOL0     C93164   9.766   4.438   7.947  0.2257 -0.5304 -0.7057
  691MOL0     C93165   9.668   4.501   7.847 -0.1301  0.1576  0.2624
  691MOL0     C93166   9.619   4.648   7.881  0.2361  0.5661 -0.3523
  691MOL0     N93167   9.732   4.734   7.867  0.8641  0.5795 -0.7362
  691MOL0     C93168   9.760   4.812   7.759  0.0076 -0.4341  1.3677
  691MOL0     C93169   9.860   4.896   7.799 -0.0496 -0.3810 -0.1654
  691MOL0     C93170   9.920   5.009   7.717  0.2312 -0.4820  1.3040
  691MOL0     C93171  10.052   4.973   7.630 -0.2962 -0.2582  0.2203
  691MOL0     C93172  10.168   4.946   7.716  0.4346 -0.0165  0.3116
  691MOL0     C93173  10.282   4.882   7.645 -0.4166  0.6816  0.8223
  691MOL0     O93174  10.316   4.954   7.523 -0.0980  0.2667 -0.0710
  691MOL0     C93175  10.284   4.913   7.395 -0.6768  0.1897 -0.2394
  691MOL0     C93176  10.226   4.796   7.357  0.6261  0.0911 -0.2492
  691MOL0     C93177  10.188   4.759   7.232 -0.0419 -0.3049 -0.0414
  691MOL0     C93178  10.197   4.858   7.135  0.7813  0.2634 -0.0561
  691MOL0     C93179  10.141   4.825   7.002 -0.2825  0.2967  0.1280
  691MOL0     O93180  10.072   4.703   6.994 -0.7702 -0.5517 -0.0241
  691MOL0     C93181  10.060   4.644   6.870 -1.0131  0.7756 -0.0437
  691MOL0     C93182   9.950   4.678   6.795  0.1519 -0.3411  0.3523
  691MOL0     C93183   9.940   4.634   6.660 -0.2388 -0.4905  0.6951
  691MOL0     C93184  10.032   4.538   6.603  0.2100  0.2405  0.1952
  691MOL0     O93185  10.019   4.514   6.470  0.1065 -0.3090  0.3050
  691MOL0     C93186  10.096   4.415   6.398 -0.4617  0.5813 -0.9578
  691MOL0     C93187  10.008   4.372   6.282 -0.4022 -0.1807 -0.0839
  691MOL0     C93188   9.876   4.299   6.317 -0.1231  0.5457 -0.0164
  691MOL0     C93189   9.819   4.261   6.178 -0.4037 -0.1860 -0.1166
  691MOL0     C93190   9.683   4.196   6.184 -0.0315 -0.6045 -0.2745
  691MOL0     C93191   9.605   4.171   6.052 -0.1540 -0.0370 -0.1092
  691MOL0     C93192   9.567   4.304   5.988  0.1386  0.2135 -0.0893
  691MOL0     C93193   9.469   4.291   5.879  0.2670  0.7294 -0.5217
  691MOL0    Cl93194   9.313   4.291   5.941 -0.0352  0.0229  0.6584
  691MOL0     C93195  10.144   4.510   6.675 -0.4564 -0.7935  0.2828
  691MOL0     C93196  10.159   4.557   6.810  0.3211 -0.6957 -0.1772
  691MOL0     O93197  10.146   4.906   6.909  0.5072  0.1126 -0.2935
  691MOL0     C93198  10.266   4.978   7.157  0.0835 -1.2729  0.0508
  691MOL0     C93199  10.304   5.003   7.292  0.1400  0.3450 -0.7683
  691MOL0     N93200   9.895   4.860   7.927  0.5292  0.1438  0.6377
  691MOL0     N93201   9.816   4.770   7.964  0.2814 -0.4171  0.3036
  691MOL0     C93202  10.120   3.786   7.703 -0.1759  0.2620 -0.0394
  691MOL0     C93203  10.111   3.707   7.582  0.6490  0.0096 -0.3690
  691MOL0     C93204  10.059   3.540   7.188 -0.2840 -0.4143 -0.9966
  691MOL0     C93205  10.139   3.422   7.194 -0.1938 -0.0204  0.1480
  691MOL0     C93206  10.097   3.301   7.147 -0.1455  0.4718  0.0221
  691MOL0     C93207   9.967   3.291   7.082  0.8934  0.3356  0.2258
  691MOL0     O93208   9.928   3.166   7.040  0.6858 -0.3367 -0.1336
  691MOL0     C93209   9.798   3.138   6.975 -0.2237 -0.4634  0.6276
  691MOL0     C93210   9.817   3.161   6.824  0.3465 -0.4973 -0.9452
  691MOL0     C93211   9.894   3.050   6.754  0.2236  0.8821  0.0543
  691MOL0     C93212  10.042   3.051   6.768 -0.7472  0.8499  0.1565
  691MOL0     C93213  10.105   3.173   6.725  0.0552 -0.2744  0.3292
  691MOL0     C93214  10.153   3.274   6.677  0.6460 -0.5624 -0.4345
  691MOL0     C93215   9.893   3.413   7.067 -0.2824 -0.1345  0.6941
  691MOL0     C93216   9.940   3.538   7.107 -0.1039 -0.0474 -0.3239
  691MOL0     C93217   9.850   3.653   7.082  0.3213 -0.1768  0.2589
  691MOL0     H93218  10.401   3.804   7.437  1.4006  0.9798  2.0807
  691MOL0     H93219  10.411   3.940   7.610 -1.6139  2.5043 -0.7895
  691MOL0     H93220  10.368   4.118   7.819  0.2176  1.1299  0.6177
  691MOL0     H93221  10.238   4.118   7.682  0.2660 -3.6559 -0.2487
  691MOL0     H93222  10.236   4.270   7.891  0.3396 -1.2013 -0.4232
  691MOL0     H93223  10.178   4.127   7.980 -1.8672 -0.8354 -0.4566
  691MOL0     H93224  10.005   4.080   7.853  0.8661 -0.1547  2.7112
  691MOL0     H93225  10.023   4.204   7.734 -2.1261 -2.3022  0.1526
  691MOL0     H93226   9.946   4.254   8.028 -1.6254  1.5251  0.3550
  691MOL0     H93227  10.026   4.372   7.920  0.6353 -1.4884  0.6173
  691MOL0     H93228   9.852   4.358   7.772 -0.9067  1.8277 -0.2129
  691MOL0     H93229   9.762   4.227   7.858  0.0203  0.7978 -2.2466
  691MOL0     H93230   9.705   4.400   8.029 -1.7929  0.6153 -1.6167
  691MOL0     H93231   9.851   4.502   7.975  0.2756 -0.4712 -0.9938
  691MOL0     H93232   9.583   4.433   7.833 -0.9002  1.1046  0.2926
  691MOL0     H93233   9.709   4.517   7.747 -2.0150  0.9473 -0.4240
  691MOL0     H93234   9.538   4.677   7.815  0.2259 -0.9128 -1.0406
  691MOL0     H93235   9.583   4.650   7.985 -1.1869 -0.2211 -0.7996
  691MOL0     H93236   9.712   4.810   7.662 -2.9325  0.4373  2.7156
  691MOL0     H93237   9.837   5.033   7.650  1.2356 -0.5489 -0.0089
  691MOL0     H93238   9.947   5.093   7.780 -0.2743  1.0660 -0.4466
  691MOL0     H93239  10.027   4.886   7.569 -1.5505 -0.7103  1.3439
  691MOL0     H93240  10.074   5.050   7.554 -1.5944 -2.7037 -2.8802
  691MOL0     H93241  10.147   4.882   7.802 -1.0565  1.8453  1.4040
  691MOL0     H93242  10.198   5.042   7.759 -0.0642 -0.4067  1.5996
  691MOL0     H93243  10.271   4.774   7.629 -0.2965  0.2941  3.1477
  691MOL0     H93244  10.370   4.897   7.707 -0.0453 -0.4869  0.6174
  691MOL0     H93245  10.205   4.726   7.437 -1.4494  1.2843  0.3197
  691MOL0     H93246  10.146   4.661   7.213  0.1662 -0.1333 -1.4790
  691MOL0     H93247   9.878   4.747   6.840 -0.1093  0.1112 -0.7425
  691MOL0     H93248   9.861   4.675   6.598 -0.4481 -2.8701 -0.7401
  691MOL0     H93249  10.198   4.442   6.372  0.5634  0.5947  2.6038
  691MOL0     H93250  10.103   4.329   6.464 -3.2782  2.9644  2.8213
  691MOL0     H93251   9.972   4.464   6.235  1.2027  1.0040  0.8818
  691MOL0     H93252  10.070   4.307   6.219 -1.4095 -0.2628 -1.0213
  691MOL0     H93253   9.903   4.214   6.380  1.4528  2.0237  1.4122
  691MOL0     H93254   9.805   4.367   6.365  0.2122  1.4076 -0.7085
  691MOL0     H93255   9.879   4.188   6.124 -0.3589 -1.3490  1.4696
  691MOL0     H93256   9.820   4.351   6.115 -0.1203 -0.5361 -0.6179
  691MOL0     H93257   9.616   4.246   6.255  0.1370 -2.9568  1.6758
  691MOL0     H93258   9.701   4.099   6.230  1.5677  0.9181  2.6182
  691MOL0     H93259   9.668   4.121   5.978  1.9544 -1.4741  2.4590
  691MOL0     H93260   9.522   4.104   6.078 -0.6272  0.7778  0.5365
  691MOL0     H93261   9.664   4.333   5.947 -0.4468 -2.6322 -4.0326
  691MOL0     H93262   9.515   4.369   6.060 -0.0923 -0.6565  0.5542
  691MOL0     H93263   9.491   4.361   5.797 -1.0987  1.0116 -0.6804
  691MOL0     H93264   9.484   4.196   5.828  3.1647 -0.6536  2.5147
  691MOL0     H93265  10.222   4.454   6.626  0.3995 -0.8951  1.7038
  691MOL0     H93266  10.249   4.544   6.870  0.5235  0.9636 -0.0744
  691MOL0     H93267  10.272   5.052   7.078 -1.3396  0.4246  1.4528
  691MOL0     H93268  10.360   5.095   7.310  1.5178 -0.2696 -1.7759
  691MOL0     H93269  10.051   3.769   7.785  0.1212  0.5952  0.2860
  691MOL0     H93270  10.049   3.620   7.565 -0.1607  0.1277  1.6928
  691MOL0     H93271  10.236   3.423   7.243  0.2503  2.3546 -0.6094
  691MOL0     H93272  10.149   3.211   7.177  0.1054  0.1906 -1.1889
  691MOL0     H93273   9.720   3.201   7.020 -1.1423 -0.5691 -0.7290
  691MOL0     H93274   9.776   3.033   7.000  4.9634 -1.5081  1.8311
  691MOL0     H93275   9.866   3.259   6.811  1.1547 -0.9218 -1.1972
  691MOL0     H93276   9.720   3.163   6.774  0.7942  2.8863 -1.9680
  691MOL0     H93277   9.867   3.058   6.648  0.7858  0.4759 -0.1259
  691MOL0     H93278   9.849   2.954   6.781 -3.7961  2.2999 -0.8806
  691MOL0     H93279  10.076   3.036   6.871 -0.6817  1.5174  0.2334
  691MOL0     H93280  10.085   2.972   6.706 -1.1306  2.0465 -1.7238
  691MOL0     H93281  10.203   3.357   6.629  2.1200 -1.4340 -0.4704
  691MOL0     H93282   9.792   3.403   7.027 -0.9171 -4.7506  2.8612
  691MOL0     H93283   9.787   3.630   6.996  2.2591 -1.4191 -0.9050
  691MOL0     H93284   9.789   3.667   7.172  0.8021 -0.3742  0.6228
  691MOL0     H93285   9.903   3.747   7.062 -0.7356  0.5258  0.6458
  692MOL0     O93286   5.052   8.025   7.297 -0.1931 -0.1406  0.1182
  692MOL0     C93287   5.033   7.914   7.259 -0.1399  0.0206 -0.3942
  692MOL0     O93288   5.135   7.824   7.228  0.0086  0.4796 -0.7489
  692MOL0     C93289   5.267   7.864   7.240 -0.2112 -0.3190  0.4922
  692MOL0     C93290   5.366   7.772   7.290  0.6060  0.3442  0.1479
  692MOL0     C93291   5.495   7.796   7.304  0.1258 -0.1762 -0.1025
  692MOL0     C93292   5.546   7.916   7.249  0.4752 -0.2069  0.7169
  692MOL0     O93293   5.682   7.937   7.256  0.1597  0.0178  0.2914
  692MOL0     C93294   5.740   8.014   7.154 -0.1053  0.1477 -0.2310
  692MOL0     C93295   5.892   8.007   7.169  0.0839  1.0136  0.2521
  692MOL0     C93296   5.974   8.074   7.065 -0.7944 -0.2932 -0.3146
  692MOL0     C93297   5.976   8.229   7.084 -0.2882  0.0392 -0.1145
  692MOL0     C93298   6.111   8.285   7.017 -0.0995  0.4232  0.4871
  692MOL0     C93299   6.236   8.271   7.100  0.2897  0.2793 -0.3542
  692MOL0     C93300   6.371   8.288   7.034 -0.4441 -0.2984  1.3149
  692MOL0     C93301   6.490   8.301   7.131  0.2284  0.4631  0.2292
  692MOL0     N93302   6.613   8.315   7.052 -0.4309  0.2993 -0.4001
  692MOL0     C93303   6.622   8.414   6.960  0.2941 -0.6984  0.8528
  692MOL0     C93304   6.758   8.428   6.939  0.3868 -0.0023  0.6449
  692MOL0     C93305   6.826   8.544   6.856  0.1683  0.1606 -0.4845
  692MOL0     C93306   6.864   8.496   6.713 -0.1951  0.4607 -0.7728
  692MOL0     C93307   6.958   8.382   6.700 -0.3563  0.0519  0.2419
  692MOL0     C93308   7.090   8.427   6.737 -0.6471 -1.3196 -0.7292
  692MOL0     O93309   7.147   8.515   6.633 -0.0383 -0.1207 -0.5897
  692MOL0     C93310   7.272   8.571   6.670  0.0762  0.3307 -0.6406
  692MOL0     C93311   7.340   8.648   6.577 -0.2596 -0.6191  0.7561
  692MOL0     C93312   7.467   8.702   6.598 -0.5736 -0.2691 -0.1681
  692MOL0     C93313   7.532   8.677   6.719 -0.4208  0.6355  0.7925
  692MOL0     C93314   7.679   8.707   6.748  0.7698  0.9250 -0.3854
  692MOL0     O93315   7.754   8.741   6.642  0.1779  0.6500 -0.3446
  692MOL0     C93316   7.866   8.807   6.662 -0.3572  0.0521 -0.3987
  692MOL0     C93317   7.987   8.744   6.704 -0.6052 -0.4214  0.5477
  692MOL0     C93318   8.114   8.808   6.697  1.0475  0.1277 -0.1625
  692MOL0     C93319   8.113   8.947   6.653  0.1861  0.1717 -0.1162
  692MOL0     O93320   8.226   9.019   6.635 -0.2458 -0.0672 -0.0717
  692MOL0     C93321   8.345   8.979   6.702 -0.9850  0.3311 -0.3122
  692MOL0     C93322   8.457   9.083   6.693  0.4253  0.6859 -0.2462
  692MOL0     C93323   8.599   9.041   6.756  0.1404 -0.3116  0.8284
  692MOL0     C93324   8.623   9.112   6.892 -0.4088 -0.1875  1.0538
  692MOL0     C93325   8.754   9.079   6.963  0.0830  0.9756  0.1135
  692MOL0     C93326   8.871   9.153   6.899 -0.0450  0.2187  0.1064
  692MOL0     C93327   9.007   9.080   6.882  0.0911 -0.5905  0.1786
  692MOL0     C93328   9.115   9.185   6.866 -1.0348 -1.1189  0.5891
  692MOL0    Cl93329   9.150   9.254   7.027  0.0919  0.0332 -0.3812
  692MOL0     C93330   7.989   9.001   6.622  0.2723  0.1858 -0.2653
  692MOL0     C93331   7.869   8.937   6.624  0.2497 -0.1116 -0.0544
  692MOL0     O93332   7.716   8.708   6.863 -0.4309 -0.4743  0.2353
  692MOL0     C93333   7.460   8.606   6.815 -0.8369 -0.3048 -1.2427
  692MOL0     C93334   7.340   8.555   6.789  0.5299  0.0018 -0.0700
  692MOL0     N93335   6.828   8.336   7.016 -0.5036 -0.3459 -0.6419
  692MOL0     N93336   6.742   8.276   7.086  0.4392  0.4088 -0.3323
  692MOL0     C93337   5.459   8.011   7.197 -0.7749 -1.2062 -0.4531
  692MOL0     C93338   5.322   7.985   7.192  0.3137  0.2781  0.4595
  692MOL0     C93339   4.892   7.850   7.268  0.4535 -0.5463 -0.4348
  692MOL0     C93340   4.878   7.711   7.252 -0.8177 -1.5683 -0.5792
  692MOL0     C93341   4.757   7.640   7.243 -0.1746  0.2250  0.2587
  692MOL0     C93342   4.634   7.711   7.264  0.7872 -0.3318  0.3519
  692MOL0     O93343   4.517   7.643   7.269  0.3261  0.3070  1.0137
  692MOL0     C93344   4.419   7.688   7.362  0.9688  0.6509  0.3537
  692MOL0     C93345   4.299   7.601   7.353  0.5431 -0.5582 -1.1187
  692MOL0     C93346   4.324   7.448   7.371  0.1028  0.3538  0.4551
  692MOL0     C93347   4.207   7.344   7.357 -0.2047 -0.2324 -0.7081
  692MOL0     C93348   4.099   7.386   7.264 -0.2885  0.9506  0.0304
  692MOL0     C93349   4.004   7.388   7.196 -0.4716  0.3692  0.1964
  692MOL0     C93350   4.646   7.848   7.290 -0.3239  0.1429 -0.0801
  692MOL0     C93351   4.769   7.920   7.277  0.0435  0.2120 -1.2547
  692MOL0     C93352   4.772   8.073   7.287 -0.0961 -0.2553 -0.5218
  692MOL0     H93353   5.332   7.670   7.306 -0.3880  0.5577 -0.5632
  692MOL0     H93354   5.559   7.715   7.338 -0.7474 -1.6291 -1.7999
  692MOL0     H93355   5.715   7.973   7.055  2.5822 -0.5623 -0.6868
  692MOL0     H93356   5.697   8.114   7.167 -1.6170 -0.0084 -3.1735
  692MOL0     H93357   5.927   7.904   7.179 -2.8479 -0.0386  0.7279
  692MOL0     H93358   5.921   8.049   7.266 -0.6627 -0.4070  1.1116
  692MOL0     H93359   5.936   8.045   6.966  0.6109 -0.8912 -0.7159
  692MOL0     H93360   6.076   8.034   7.068 -0.5411  0.1680 -1.9606
  692MOL0     H93361   5.890   8.284   7.045  1.6753  3.2340 -0.3414
  692MOL0     H93362   5.979   8.253   7.191 -3.3667  0.1033  0.0200
  692MOL0     H93363   6.123   8.243   6.917 -0.1910  1.9290 -0.1743
  692MOL0     H93364   6.098   8.392   6.999 -0.0943 -0.0823 -3.1760
  692MOL0     H93365   6.226   8.334   7.189 -1.5530 -1.3075  0.6489
  692MOL0     H93366   6.248   8.170   7.140 -1.3000  0.4645  0.6671
  692MOL0     H93367   6.364   8.371   6.963 -3.6946 -1.5423  0.0121
  692MOL0     H93368   6.398   8.202   6.973 -0.3110 -1.3316  2.7788
  692MOL0     H93369   6.481   8.387   7.198  0.6923 -1.5262  2.9918
  692MOL0     H93370   6.489   8.212   7.195  0.4183  0.0219 -0.3720
  692MOL0     H93371   6.541   8.478   6.926 -1.0527 -1.8734  1.7602
  692MOL0     H93372   6.759   8.628   6.836 -1.5890 -1.0861 -0.1025
  692MOL0     H93373   6.918   8.582   6.902 -0.0269  0.1186 -0.0552
  692MOL0     H93374   6.773   8.467   6.661 -1.6187 -0.1758  1.8825
  692MOL0     H93375   6.904   8.580   6.657  0.2329 -0.6256 -2.1632
  692MOL0     H93376   6.959   8.334   6.602 -1.2813 -0.4005  0.4407
  692MOL0     H93377   6.926   8.300   6.765  2.3764 -2.6410 -1.5636
  692MOL0     H93378   7.159   8.343   6.751  0.6400 -0.3633 -1.1146
  692MOL0     H93379   7.080   8.480   6.832 -4.1309 -1.8488 -0.6568
  692MOL0     H93380   7.295   8.660   6.479  1.6072  0.5668  0.0040
  692MOL0     H93381   7.520   8.745   6.513  1.2272  1.2590  1.6225
  692MOL0     H93382   7.988   8.638   6.726 -0.6957 -0.7609 -0.9758
  692MOL0     H93383   8.208   8.757   6.713  0.4572 -0.4671  1.6466
  692MOL0     H93384   8.317   8.957   6.805 -1.1616 -1.6860 -0.7442
  692MOL0     H93385   8.379   8.878   6.675  1.6441  0.9273  0.5167
  692MOL0     H93386   8.482   9.103   6.588 -1.4381  0.2338 -0.8012
  692MOL0     H93387   8.414   9.170   6.743 -1.4760 -0.7826  0.8027
  692MOL0     H93388   8.598   8.933   6.773  2.9145  0.0397  4.5187
  692MOL0     H93389   8.680   9.055   6.684 -0.9249  0.4732 -0.2529
  692MOL0     H93390   8.554   9.081   6.971  0.5134  1.1414  2.4387
  692MOL0     H93391   8.624   9.219   6.874 -1.3662 -0.1258  1.3300
  692MOL0     H93392   8.776   8.973   6.949 -0.4496  1.1848 -2.8322
  692MOL0     H93393   8.737   9.084   7.072 -3.2792 -2.4406 -0.0148
  692MOL0     H93394   8.847   9.203   6.805  0.0374 -1.0372 -0.6066
  692MOL0     H93395   8.889   9.243   6.958  0.3425  0.6597 -0.6569
  692MOL0     H93396   9.020   9.037   6.782  1.7367  0.5612 -0.1658
  692MOL0     H93397   9.027   9.011   6.964 -0.1672 -0.0507  0.7049
  692MOL0     H93398   9.210   9.138   6.839 -0.7946 -2.3162  3.2193
  692MOL0     H93399   9.096   9.257   6.786  4.1688 -0.5093 -0.4275
  692MOL0     H93400   8.001   9.107   6.602  1.2859  0.7498  2.7295
  692MOL0     H93401   7.778   8.989   6.595 -0.1222 -1.6623 -1.8781
  692MOL0     H93402   7.509   8.581   6.909 -1.0972 -2.3220 -1.6181
  692MOL0     H93403   7.311   8.485   6.866  1.2658  0.8170  0.9892
  692MOL0     H93404   5.502   8.108   7.172  0.6556 -1.8159 -0.4507
  692MOL0     H93405   5.247   8.049   7.146  1.0909 -0.3845 -1.8600
  692MOL0     H93406   4.965   7.648   7.248 -0.3303 -1.0541  0.9432
  692MOL0     H93407   4.744   7.532   7.237 -1.0603  0.2081  1.9948
  692MOL0     H93408   4.390   7.787   7.325  0.0063 -0.3947 -1.9017
  692MOL0     H93409   4.448   7.684   7.467 -1.0798  2.1646  1.0310
  692MOL0     H93410   4.255   7.631   7.258 -0.0364  2.5021 -0.0105
  692MOL0     H93411   4.229   7.633   7.431  2.3440  0.2085  0.2635
  692MOL0     H93412   4.364   7.425   7.470 -1.0683  0.0038  0.8654
  692MOL0     H93413   4.391   7.411   7.293 -0.5616  0.1784 -0.0352
  692MOL0     H93414   4.235   7.242   7.330  0.7656 -0.0814 -0.3167
  692MOL0     H93415   4.158   7.343   7.455 -2.6818  0.0725 -1.8745
  692MOL0     H93416   3.917   7.390   7.133 -0.3666  1.1367  0.0657
  692MOL0     H93417   4.568   7.923   7.305  1.0003  1.7721 -0.9802
  692MOL0     H93418   4.676   8.126   7.287  0.1099  0.1337  0.2780
  692MOL0     H93419   4.817   8.093   7.384 -0.9074 -1.0795  0.0418
  692MOL0     H93420   4.831   8.104   7.200  0.2072 -3.9906 -1.8016
  693MOL0     O93421   6.574   1.131   1.468  0.2418  0.3203  0.1906
  693MOL0     C93422   6.493   1.195   1.535  0.2520  0.1212 -0.9352
  693MOL0     O93423   6.515   1.311   1.602 -0.7181 -0.2888 -0.2790
  693MOL0     C93424   6.643   1.344   1.646 -0.2425  0.5638  0.9160
  693MOL0     C93425   6.677   1.473   1.683  1.1235  0.0586  0.0365
  693MOL0     C93426   6.795   1.501   1.743 -0.5346  0.4134 -0.8533
  693MOL0     C93427   6.896   1.396   1.755 -0.6461 -0.0702 -0.0864
  693MOL0     O93428   7.026   1.431   1.792  0.1662 -0.0978 -0.7614
  693MOL0     C93429   7.138   1.333   1.801  0.5606 -0.8005  0.7229
  693MOL0     C93430   7.197   1.310   1.656  0.6724 -0.0517  0.7332
  693MOL0     C93431   7.329   1.239   1.651  0.7169 -0.1695  0.8606
  693MOL0     C93432   7.437   1.338   1.695 -0.4512 -0.4612  0.6729
  693MOL0     C93433   7.583   1.287   1.654 -0.8869 -0.1330  0.2674
  693MOL0     C93434   7.635   1.193   1.762 -0.0291  0.7199  0.8293
  693MOL0     C93435   7.743   1.092   1.719  0.2014 -0.2218  0.5533
  693MOL0     C93436   7.785   0.999   1.835 -0.1837 -0.1789  0.0250
  693MOL0     N93437   7.873   0.894   1.789  0.5951  0.3503  0.3916
  693MOL0     C93438   7.988   0.853   1.847  0.7395 -0.5517 -0.0673
  693MOL0     C93439   8.016   0.730   1.796 -0.0480  0.8139  0.4303
  693MOL0     C93440   8.127   0.638   1.838 -0.3326 -0.5219 -0.0658
  693MOL0     C93441   8.248   0.649   1.747 -0.0028 -0.6211 -0.4842
  693MOL0     C93442   8.353   0.758   1.795  0.0647  0.5225 -0.3295
  693MOL0     C93443   8.390   0.846   1.675  0.1933 -0.5085  0.4404
  693MOL0     O93444   8.446   0.770   1.564 -0.5802 -0.0969  0.2700
  693MOL0     C93445   8.581   0.729   1.563  0.4783  1.2321 -0.0943
  693MOL0     C93446   8.621   0.683   1.436  0.4480 -0.0594 -0.2011
  693MOL0     C93447   8.749   0.635   1.414  0.5618  0.4430 -0.2638
  693MOL0     C93448   8.850   0.652   1.512 -0.5333  0.5684  0.7015
  693MOL0     C93449   8.996   0.609   1.486  0.2275 -0.2053  0.1395
  693MOL0     O93450   9.087   0.619   1.587  0.3164  0.2365  0.0062
  693MOL0     C93451   9.213   0.575   1.574  0.0373 -0.3421  0.1544
  693MOL0     C93452   9.246   0.444   1.527 -0.4845  0.2635 -0.2925
  693MOL0     C93453   9.380   0.398   1.524 -1.2480 -0.3728 -0.7347
  693MOL0     C93454   9.480   0.490   1.533  0.4240  0.7639  0.2947
  693MOL0     O93455   9.612   0.472   1.535  0.0259  0.2086  0.1759
  693MOL0     C93456   9.664   0.350   1.596 -0.1640 -0.3211  0.0876
  693MOL0     C93457   9.817   0.363   1.595 -0.6962 -0.6268 -0.1993
  693MOL0     C93458   9.880   0.239   1.671 -0.3124  0.0253 -0.7196
  693MOL0     C93459  10.030   0.260   1.709 -0.2846  0.2917  0.5616
  693MOL0     C93460  10.133   0.137   1.708  0.2518  0.0364 -1.0797
  693MOL0     C93461  10.107   0.048   1.823  0.3149 -1.1874  0.0397
  693MOL0     C93462  10.217  -0.055   1.850 -0.0404  0.3629 -0.3214
  693MOL0     C93463  10.288  -0.044   1.985  0.7900 -0.0480  0.8247
  693MOL0    Cl93464  10.335   0.121   2.039  0.2102 -0.1449 -0.0324
  693MOL0     C93465   9.449   0.624   1.575 -0.0807  0.1966 -0.3678
  693MOL0     C93466   9.315   0.659   1.605 -0.4655 -0.0265 -0.2001
  693MOL0     O93467   9.018   0.576   1.367  0.7995  0.1602 -0.1398
  693MOL0     C93468   8.815   0.705   1.641  0.8502 -0.8421 -0.0682
  693MOL0     C93469   8.680   0.749   1.664  1.0992  0.4601  0.0305
  693MOL0     N93470   7.920   0.699   1.702  0.5568  0.3349  0.4435
  693MOL0     N93471   7.836   0.794   1.698  0.4156 -0.1967 -0.1624
  693MOL0     C93472   6.860   1.274   1.728  0.1604  0.2671  0.6321
  693MOL0     C93473   6.736   1.241   1.677 -0.1655 -0.3404 -0.7717
  693MOL0     C93474   6.345   1.152   1.499  0.3287 -0.7183 -0.2562
  693MOL0     C93475   6.327   1.013   1.501  0.2659 -0.2504 -0.5526
  693MOL0     C93476   6.201   0.957   1.491  0.6096 -0.5421  0.3757
  693MOL0     C93477   6.081   1.033   1.475 -0.2547 -0.0491 -0.2242
  693MOL0     O93478   5.956   0.971   1.484  0.2636  0.3092 -0.7635
  693MOL0     C93479   5.833   1.041   1.460  0.1344  0.2056 -0.6322
  693MOL0     C93480   5.723   0.945   1.485  0.0173  0.4957 -0.4031
  693MOL0     C93481   5.589   1.001   1.492  0.1260 -0.4485 -0.1473
  693MOL0     C93482   5.490   0.883   1.454 -0.8586 -0.6176 -0.7067
  693MOL0     C93483   5.357   0.912   1.504  0.5689  0.9442 -0.0868
  693MOL0     C93484   5.240   0.940   1.534 -0.4498  0.8323 -0.1065
  693MOL0     C93485   6.102   1.171   1.453  0.6794 -0.4400  0.3948
  693MOL0     C93486   6.227   1.227   1.465  0.0930 -0.2797 -0.8511
  693MOL0     C93487   6.242   1.379   1.465  0.7562  0.7515 -0.2739
  693MOL0     H93488   6.606   1.552   1.658  2.0755 -0.2338 -4.4244
  693MOL0     H93489   6.822   1.604   1.759  1.7846 -0.1349 -0.9709
  693MOL0     H93490   7.217   1.381   1.860  1.9458  2.7795 -3.5187
  693MOL0     H93491   7.096   1.248   1.855  0.7692  0.1487  2.4245
  693MOL0     H93492   7.211   1.399   1.593  2.8345  0.3202  1.6520
  693MOL0     H93493   7.130   1.256   1.589  1.9998  1.2211 -1.7780
  693MOL0     H93494   7.337   1.222   1.543  0.0854  1.0865  0.5986
  693MOL0     H93495   7.337   1.149   1.712  1.1759  0.5438  1.8643
  693MOL0     H93496   7.422   1.439   1.656  0.6956  0.4334  2.3975
  693MOL0     H93497   7.432   1.351   1.803  1.5253 -2.5619  1.0873
  693MOL0     H93498   7.593   1.237   1.557  0.4183  0.1758  0.2321
  693MOL0     H93499   7.659   1.366   1.650 -1.2314  0.1660 -0.6723
  693MOL0     H93500   7.675   1.254   1.844  0.9383  1.2864 -0.0441
  693MOL0     H93501   7.544   1.137   1.789 -0.0493 -0.2593 -1.0748
  693MOL0     H93502   7.826   1.156   1.687 -0.0813  0.6056  1.4173
  693MOL0     H93503   7.698   1.049   1.629 -3.7647  4.5627 -0.2127
  693MOL0     H93504   7.842   1.047   1.916 -2.5298  1.1823  0.9688
  693MOL0     H93505   7.702   0.948   1.884 -0.5034  0.7819  0.5285
  693MOL0     H93506   8.046   0.903   1.924 -0.3726  2.9406 -1.2976
  693MOL0     H93507   8.146   0.660   1.944  0.8911 -2.3681  0.1284
  693MOL0     H93508   8.098   0.533   1.831 -1.3636 -0.2378 -0.2102
  693MOL0     H93509   8.295   0.551   1.743 -0.3635 -0.9855  2.0700
  693MOL0     H93510   8.220   0.679   1.646  2.9443  0.7482 -1.0040
  693MOL0     H93511   8.447   0.722   1.836  0.6796  0.0347 -2.0812
  693MOL0     H93512   8.307   0.824   1.869 -0.4511  1.5724 -1.5245
  693MOL0     H93513   8.466   0.916   1.711 -1.9048  1.6813  0.8639
  693MOL0     H93514   8.301   0.903   1.648  0.1872 -0.9916 -0.6159
  693MOL0     H93515   8.547   0.669   1.358  1.2336 -1.1157 -0.8006
  693MOL0     H93516   8.779   0.594   1.318 -1.4614  0.1679 -0.8206
  693MOL0     H93517   9.166   0.370   1.525  1.8366 -2.3983 -1.1842
  693MOL0     H93518   9.410   0.295   1.509  0.1637 -0.2939  1.2622
  693MOL0     H93519   9.625   0.343   1.697 -0.3472 -1.3372 -0.0445
  693MOL0     H93520   9.626   0.261   1.546  0.2857 -0.5290  0.1149
  693MOL0     H93521   9.850   0.373   1.492  1.5755 -3.1846  0.1488
  693MOL0     H93522   9.842   0.459   1.640 -3.2392 -1.0766  2.5638
  693MOL0     H93523   9.825   0.212   1.762 -2.1648  0.8693 -1.5460
  693MOL0     H93524   9.883   0.153   1.602  0.0602 -0.7777  0.2702
  693MOL0     H93525  10.027   0.314   1.804 -1.2322  0.8005  0.2554
  693MOL0     H93526  10.066   0.332   1.634  2.6475 -1.1315  0.4484
  693MOL0     H93527  10.237   0.173   1.701  0.2025  0.8087  1.2593
  693MOL0     H93528  10.116   0.081   1.616 -0.0214 -1.9856  0.1597
  693MOL0     H93529  10.096   0.100   1.919  0.7143 -0.8682 -0.0846
  693MOL0     H93530  10.012   0.001   1.797 -1.9336  2.8033  0.2603
  693MOL0     H93531  10.296  -0.023   1.782 -1.8323  1.0858 -2.1978
  693MOL0     H93532  10.173  -0.154   1.834  0.4238  0.3173 -1.3954
  693MOL0     H93533  10.218  -0.070   2.064 -1.0005 -0.1225 -0.7178
  693MOL0     H93534  10.382  -0.101   1.989  1.0529  0.4200  1.4072
  693MOL0     H93535   9.521   0.704   1.585 -1.1736  1.1473  0.0436
  693MOL0     H93536   9.294   0.759   1.641 -0.7641 -0.5764  1.2249
  693MOL0     H93537   8.887   0.725   1.719 -1.8320 -1.2321  2.6695
  693MOL0     H93538   8.643   0.794   1.756 -0.7151  0.2780 -0.5599
  693MOL0     H93539   6.930   1.192   1.738  2.2336  2.0210  1.1950
  693MOL0     H93540   6.720   1.138   1.648  1.0340 -0.8698  0.3553
  693MOL0     H93541   6.407   0.944   1.523  0.4675  0.8968  3.0583
  693MOL0     H93542   6.205   0.849   1.494  1.9083 -0.5485 -0.7971
  693MOL0     H93543   5.826   1.073   1.356 -0.0450 -0.4539 -0.8264
  693MOL0     H93544   5.816   1.130   1.522 -4.4220 -0.1837 -1.0355
  693MOL0     H93545   5.741   0.892   1.579 -1.2613  1.4897  0.4422
  693MOL0     H93546   5.725   0.870   1.405 -3.9218  1.9004 -2.0997
  693MOL0     H93547   5.593   1.072   1.409  4.1048 -1.1249 -0.7202
  693MOL0     H93548   5.560   1.047   1.587  1.0702  1.2780 -0.6691
  693MOL0     H93549   5.486   0.882   1.345 -1.4144 -1.7634 -0.6829
  693MOL0     H93550   5.532   0.792   1.498 -0.4868  1.2751  3.3908
  693MOL0     H93551   5.140   0.970   1.555 -0.0996  0.9314  1.5184
  693MOL0     H93552   6.012   1.232   1.452  2.0205  1.8348  3.1304
  693MOL0     H93553   6.239   1.416   1.567 -1.3229  1.3673 -0.5095
  693MOL0     H93554   6.334   1.427   1.430  0.6150  1.7868  0.7156
  693MOL0     H93555   6.158   1.425   1.411 -1.0125 -0.5678  1.2246
  694MOL0     O93556   4.390   1.037   7.081  0.6800  0.2422  0.3020
  694MOL0     C93557   4.315   1.135   7.095  0.8252  0.8212 -0.5794
  694MOL0     O93558   4.354   1.269   7.095  0.1015  0.6069 -0.2061
  694MOL0     C93559   4.485   1.271   7.067 -0.4936 -0.2609 -0.4727
  694MOL0     C93560   4.522   1.304   6.936  0.4302  0.3491  0.6847
  694MOL0     C93561   4.660   1.295   6.909 -0.4204  0.0536  1.2404
  694MOL0     C93562   4.756   1.270   7.001 -0.0183  0.1204 -0.1024
  694MOL0     O93563   4.882   1.263   6.946  0.5621  0.0328  0.5762
  694MOL0     C93564   4.993   1.216   7.024 -0.1909 -0.1934 -0.8961
  694MOL0     C93565   5.109   1.210   6.930 -0.0864  0.4011  0.2748
  694MOL0     C93566   5.222   1.132   6.994 -0.1898  0.6037  0.6862
  694MOL0     C93567   5.355   1.178   6.936  0.2590  0.3519  1.1801
  694MOL0     C93568   5.358   1.172   6.777 -0.4660 -0.2521 -0.4434
  694MOL0     C93569   5.499   1.197   6.722 -0.0255  0.7837  0.2920
  694MOL0     C93570   5.601   1.093   6.759 -0.0139 -0.5473 -0.7898
  694MOL0     C93571   5.742   1.141   6.736  0.8661 -0.5759 -0.0253
  694MOL0     N93572   5.772   1.240   6.838  0.0382  0.0836 -0.5370
  694MOL0     C93573   5.763   1.376   6.823  0.8473 -0.1966  0.4378
  694MOL0     C93574   5.809   1.427   6.943  0.4408  0.1707  0.2462
  694MOL0     C93575   5.803   1.568   6.982  0.2044 -0.2944 -0.6559
  694MOL0     C93576   5.934   1.646   7.006  0.4674 -0.1352  0.4668
  694MOL0     C93577   5.929   1.788   6.957 -0.4863 -0.5640  0.1320
  694MOL0     C93578   6.071   1.852   6.962  0.3095  0.2002  0.1815
  694MOL0     O93579   6.120   1.839   7.091  0.2070 -0.8922 -0.3951
  694MOL0     C93580   6.254   1.823   7.114  0.3977 -1.1915  0.6502
  694MOL0     C93581   6.357   1.841   7.025 -0.2060  0.0049  0.0598
  694MOL0     C93582   6.488   1.807   7.041 -0.1846  0.3648  0.0036
  694MOL0     C93583   6.525   1.751   7.162 -0.4000  0.2470 -0.8109
  694MOL0     C93584   6.665   1.703   7.182 -0.3958  0.3113 -0.5762
  694MOL0     O93585   6.720   1.738   7.303  0.0634 -0.6426 -0.2374
  694MOL0     C93586   6.851   1.703   7.310 -0.3259 -1.5194  0.0263
  694MOL0     C93587   6.877   1.583   7.381  0.2590 -1.3997  0.0611
  694MOL0     C93588   7.005   1.530   7.377 -0.2922  1.1263  0.5726
  694MOL0     C93589   7.114   1.611   7.330  0.1734 -0.1633  0.1332
  694MOL0     O93590   7.246   1.569   7.336  0.1685  0.4275  0.3554
  694MOL0     C93591   7.267   1.428   7.334 -1.0721  0.0675 -0.3481
  694MOL0     C93592   7.414   1.397   7.303  0.1975  0.1108 -0.5374
  694MOL0     C93593   7.509   1.472   7.397 -0.0821  0.9643  0.1646
  694MOL0     C93594   7.646   1.409   7.365  0.6954  0.4760  0.6689
  694MOL0     C93595   7.758   1.485   7.440  0.5664 -0.3581  0.2594
  694MOL0     C93596   7.812   1.387   7.555 -1.1326 -1.0251  0.1224
  694MOL0     C93597   7.903   1.456   7.663 -0.2046 -0.7507 -0.2653
  694MOL0     C93598   7.923   1.381   7.797  0.0834  0.2772  0.3768
  694MOL0    Cl93599   7.990   1.229   7.742 -0.3762 -0.2789  0.3272
  694MOL0     C93600   7.080   1.727   7.269  0.5149 -0.1971 -0.2116
  694MOL0     C93601   6.950   1.780   7.256 -0.8767 -0.1315 -0.3197
  694MOL0     O93602   6.717   1.650   7.089 -0.0994  0.0558 -0.2739
  694MOL0     C93603   6.422   1.733   7.258  0.7249 -0.6437 -0.0722
  694MOL0     C93604   6.292   1.772   7.235  0.0353 -0.3471  0.4288
  694MOL0     N93605   5.846   1.326   7.028 -1.3094  0.1525 -0.2610
  694MOL0     N93606   5.829   1.215   6.963 -0.0123 -0.5563  0.7360
  694MOL0     C93607   4.718   1.242   7.132  0.0877 -1.1790 -0.5938
  694MOL0     C93608   4.583   1.248   7.169  0.2642  0.6733  0.4197
  694MOL0     C93609   4.170   1.109   7.078  0.4074 -0.0742 -0.3826
  694MOL0     C93610   4.085   1.219   7.065  0.1611  0.1452  0.4733
  694MOL0     C93611   3.952   1.201   7.038 -0.6500  0.2874  0.6399
  694MOL0     C93612   3.896   1.079   7.012 -0.8995  0.3743  0.0548
  694MOL0     O93613   3.766   1.083   6.972 -0.6468  0.0228  0.3669
  694MOL0     C93614   3.693   0.953   6.967  0.7347  0.0646  0.2067
  694MOL0     C93615   3.551   0.996   6.928  0.2272  1.0217  0.6745
  694MOL0     C93616   3.459   0.873   6.935 -0.0089  0.0554  0.2863
  694MOL0     C93617   3.310   0.908   6.900 -0.0926 -0.2302 -0.1644
  694MOL0     C93618   3.245   0.959   7.023  0.5625 -0.0507 -0.1854
  694MOL0     C93619   3.200   1.009   7.118  0.8151 -0.4769 -0.1957
  694MOL0     C93620   3.977   0.964   7.012 -0.6439  0.4519 -1.3227
  694MOL0     C93621   4.108   0.980   7.060  0.8695  1.1010  0.6326
  694MOL0     C93622   4.172   0.848   7.090 -0.2029 -0.0083 -0.1761
  694MOL0     H93623   4.443   1.332   6.866  2.9370  0.6568 -2.2263
  694MOL0     H93624   4.690   1.306   6.806 -3.6780  2.9222  0.4179
  694MOL0     H93625   5.003   1.281   7.111  0.0407 -2.3924  0.7979
  694MOL0     H93626   4.969   1.118   7.065 -4.9985  0.9370 -0.4463
  694MOL0     H93627   5.126   1.317   6.913 -2.8681  0.6766 -1.2663
  694MOL0     H93628   5.082   1.146   6.845 -0.2167 -0.8421  1.2171
  694MOL0     H93629   5.221   1.023   6.980  1.2175  0.2418  3.0638
  694MOL0     H93630   5.225   1.150   7.101  0.6562 -1.8528  1.1451
  694MOL0     H93631   5.375   1.284   6.953  1.6528 -0.0371  2.1365
  694MOL0     H93632   5.430   1.117   6.986 -2.6611 -0.7366  4.6609
  694MOL0     H93633   5.323   1.074   6.741  0.4715  0.1562 -2.6450
  694MOL0     H93634   5.286   1.242   6.735 -0.5094 -0.2743 -0.4064
  694MOL0     H93635   5.496   1.223   6.616 -2.8738  1.0467  0.3447
  694MOL0     H93636   5.518   1.290   6.775  1.7891  0.7217 -0.1848
  694MOL0     H93637   5.590   1.000   6.704  1.0721  0.3869 -2.6728
  694MOL0     H93638   5.596   1.073   6.867  1.5735 -0.3800 -0.6594
  694MOL0     H93639   5.814   1.058   6.737  0.3292 -1.0589 -0.4454
  694MOL0     H93640   5.736   1.176   6.633 -2.8388  0.9131  0.5500
  694MOL0     H93641   5.719   1.430   6.741  2.1152 -0.1290 -0.2221
  694MOL0     H93642   5.737   1.620   6.913 -0.0367  0.9801  0.5025
  694MOL0     H93643   5.748   1.558   7.076 -2.7805  0.1268 -2.2281
  694MOL0     H93644   5.968   1.651   7.110  1.5155  2.7917  0.0672
  694MOL0     H93645   6.015   1.587   6.961  2.6196  2.7585  0.2241
  694MOL0     H93646   5.850   1.843   7.009  0.0792  2.0256 -1.5567
  694MOL0     H93647   5.901   1.790   6.851  0.6969 -2.0526 -0.2514
  694MOL0     H93648   6.057   1.949   6.914 -0.3772 -0.3646 -0.8179
  694MOL0     H93649   6.133   1.790   6.895 -2.3850 -2.0777 -0.3893
  694MOL0     H93650   6.314   1.877   6.931 -0.7468 -2.1071 -0.5464
  694MOL0     H93651   6.558   1.825   6.960 -0.1070 -0.6116 -0.1617
  694MOL0     H93652   6.795   1.532   7.430 -0.7356 -1.5931 -1.7056
  694MOL0     H93653   7.015   1.436   7.431  1.7104  0.9197 -0.0810
  694MOL0     H93654   7.250   1.393   7.436  2.1531  2.4189  1.1942
  694MOL0     H93655   7.207   1.376   7.259  2.3608 -2.2999 -1.7114
  694MOL0     H93656   7.430   1.290   7.319 -0.1238  0.3548  1.6323
  694MOL0     H93657   7.445   1.412   7.199  1.1383  1.8852 -0.0339
  694MOL0     H93658   7.508   1.575   7.360 -1.1851  0.6101 -0.8654
  694MOL0     H93659   7.473   1.462   7.500 -2.2047  0.3348 -0.5768
  694MOL0     H93660   7.666   1.427   7.259  0.1809  2.4082  0.8636
  694MOL0     H93661   7.642   1.301   7.376 -0.5099  0.2118 -1.7516
  694MOL0     H93662   7.722   1.579   7.483 -2.0190 -0.0479 -2.3017
  694MOL0     H93663   7.843   1.507   7.374 -1.5885  1.1437 -2.1889
  694MOL0     H93664   7.731   1.330   7.601 -1.4695 -0.5129  0.1706
  694MOL0     H93665   7.877   1.311   7.512  0.3167  0.8395 -1.1850
  694MOL0     H93666   7.865   1.555   7.689  2.5635  0.2067  0.4690
  694MOL0     H93667   7.999   1.481   7.617 -1.5511  0.8947 -2.3453
  694MOL0     H93668   7.993   1.430   7.865 -1.2337  1.6568  0.8035
  694MOL0     H93669   7.826   1.370   7.846 -0.5618  0.3422 -0.8363
  694MOL0     H93670   7.154   1.796   7.229  0.2455 -0.2266 -0.7721
  694MOL0     H93671   6.920   1.869   7.201  1.3894  2.7321  2.6731
  694MOL0     H93672   6.439   1.688   7.355 -0.8368  1.9418  1.4970
  694MOL0     H93673   6.222   1.764   7.318 -0.5422 -0.2566 -0.0427
  694MOL0     H93674   4.804   1.223   7.196 -1.1326  0.3569  1.6689
  694MOL0     H93675   4.541   1.219   7.265  0.6712  2.5134  1.1989
  694MOL0     H93676   4.109   1.325   7.064  1.0373 -0.0025  2.2519
  694MOL0     H93677   3.899   1.295   7.036 -0.3837  0.4321  0.1125
  694MOL0     H93678   3.684   0.912   7.068 -2.7221  0.1036  0.0185
  694MOL0     H93679   3.733   0.884   6.892  1.2999  1.0042 -0.3843
  694MOL0     H93680   3.555   1.049   6.833  1.5179 -0.6952 -0.2670
  694MOL0     H93681   3.514   1.071   7.000 -0.7705 -1.4505  2.9268
  694MOL0     H93682   3.466   0.827   7.034 -1.3586  1.1702  0.9348
  694MOL0     H93683   3.490   0.800   6.859 -1.7626  1.1838 -1.6171
  694MOL0     H93684   3.298   0.982   6.820  1.1159  0.4131  0.2204
  694MOL0     H93685   3.248   0.826   6.864 -4.1923  2.3823  0.2943
  694MOL0     H93686   3.171   1.052   7.211 -2.1610 -1.8841 -0.3438
  694MOL0     H93687   3.934   0.868   6.983 -0.4745 -0.6242  1.5988
  694MOL0     H93688   4.251   0.853   7.165  0.2682 -0.7971 -0.6078
  694MOL0     H93689   4.101   0.774   7.127 -1.6832  1.8202  0.8442
  694MOL0     H93690   4.226   0.808   7.004  1.4010  1.7572 -0.0672
  695MOL0     O93691  10.295   4.042   0.372  0.3275 -0.6141 -0.2158
  695MOL0     C93692  10.249   4.078   0.262 -0.9584  1.0268 -0.4769
  695MOL0     O93693  10.308   4.049   0.147  0.3531 -0.3290 -0.7201
  695MOL0     C93694  10.415   3.965   0.135 -0.1396  0.4171 -0.1673
  695MOL0     C93695  10.390   3.848   0.067  0.1281 -0.3263  0.2353
  695MOL0     C93696  10.489   3.755   0.062  0.2650  0.4461 -1.0964
  695MOL0     C93697  10.617   3.779   0.122 -1.0779  0.5159 -0.1115
  695MOL0     O93698  10.720   3.682   0.138 -0.0300  0.4385  0.3810
  695MOL0     C93699  10.763   3.650   0.005  0.4904  0.6756  0.0656
  695MOL0     C93700  10.876   3.542   0.008 -0.2321  0.1633 -0.3529
  695MOL0     C93701  11.012   3.608   0.046 -0.7098 -0.0655 -0.4431
  695MOL0     C93702  11.124   3.509   0.033  0.4403  0.2815  0.5191
  695MOL0     C93703  11.250   3.572   0.093 -0.1787  0.1092  0.1843
  695MOL0     C93704  11.374   3.484   0.086  0.0332  1.0407 -0.0502
  695MOL0     C93705  11.483   3.565   0.152 -0.6722 -0.2477  0.3035
  695MOL0     C93706  11.621   3.496   0.144 -0.1092 -0.3172 -0.1146
  695MOL0     N93707  11.728   3.559   0.234 -0.1288  0.0197  1.2494
  695MOL0     C93708  11.819   3.478   0.291  0.0189  0.1029  0.3409
  695MOL0     C93709  11.904   3.563   0.355 -0.7164 -0.2347  0.3421
  695MOL0     C93710  12.032   3.527   0.431 -0.6466  0.5486  0.3646
  695MOL0     C93711  12.100   3.642   0.503  0.6045  0.3816  0.5352
  695MOL0     C93712  12.022   3.685   0.627 -0.5834 -0.3925  0.2666
  695MOL0     C93713  12.112   3.775   0.715  0.7679 -0.2088 -0.1708
  695MOL0     O93714  12.024   3.831   0.817 -0.2226 -0.2020  0.2843
  695MOL0     C93715  12.089   3.867   0.928 -0.2172 -0.4351 -0.3438
  695MOL0     C93716  12.230   3.888   0.932 -0.0378  0.7727 -0.2297
  695MOL0     C93717  12.302   3.940   1.039  0.3222  0.0906 -0.2595
  695MOL0     C93718  12.218   3.985   1.150 -0.2164  0.3718 -0.6424
  695MOL0     C93719  12.285   4.057   1.265 -0.1445  0.5965 -0.1040
  695MOL0     O93720  12.423   4.081   1.256  0.6052 -0.4218  0.2307
  695MOL0     C93721  12.488   4.136   1.365  0.4281  0.7972  0.6771
  695MOL0     C93722  12.609   4.197   1.326 -0.9444 -0.3978 -0.5162
  695MOL0     C93723  12.690   4.250   1.429 -0.0977 -0.1386 -0.3086
  695MOL0     C93724  12.663   4.234   1.569  0.8906  0.7226  0.1349
  695MOL0     O93725  12.753   4.258   1.672  0.3972  0.3381 -0.0699
  695MOL0     C93726  12.864   4.343   1.639  0.2714  0.2818  0.4564
  695MOL0     C93727  12.921   4.401   1.767  0.1771  0.1238  0.3880
  695MOL0     C93728  13.057   4.470   1.744 -1.1383  0.2408  0.2595
  695MOL0     C93729  13.047   4.604   1.670 -0.2672  0.3676 -0.0581
  695MOL0     C93730  13.149   4.715   1.694 -0.4039 -0.5949 -0.5740
  695MOL0     C93731  13.291   4.682   1.662  0.8431 -0.0160  0.5873
  695MOL0     C93732  13.380   4.799   1.712 -0.5334  0.3849  0.3628
  695MOL0     C93733  13.524   4.768   1.658  0.8790 -0.2263  0.8939
  695MOL0    Cl93734  13.597   4.930   1.626 -0.0532 -0.3546  0.2353
  695MOL0     C93735  12.541   4.161   1.600 -0.0496  0.5214 -0.1327
  695MOL0     C93736  12.458   4.122   1.497 -0.0222  1.1313 -0.4555
  695MOL0     O93737  12.210   4.077   1.361  0.1736 -0.0404  0.2806
  695MOL0     C93738  12.074   3.970   1.144  0.3062 -0.1663  1.4260
  695MOL0     C93739  12.013   3.912   1.037  0.2575 -0.4581 -0.1040
  695MOL0     N93740  11.862   3.692   0.328  0.6452 -0.2487 -0.2973
  695MOL0     N93741  11.756   3.688   0.253 -0.7719 -0.5424 -0.0365
  695MOL0     C93742  10.645   3.898   0.188  0.3244 -0.2723  0.1126
  695MOL0     C93743  10.544   3.987   0.197  0.4632 -0.4456 -0.0042
  695MOL0     C93744  10.124   4.157   0.264  0.8357  0.4052 -0.6623
  695MOL0     C93745  10.060   4.173   0.136 -0.1431  0.3429  0.4037
  695MOL0     C93746   9.934   4.234   0.122  0.2587  0.2323 -0.2848
  695MOL0     C93747   9.866   4.291   0.227 -0.1075  0.4598 -0.2900
  695MOL0     O93748   9.732   4.324   0.226 -0.0778  0.4484  0.4316
  695MOL0     C93749   9.664   4.349   0.104  0.6967 -0.2996  0.7635
  695MOL0     C93750   9.540   4.441   0.128  0.9656 -0.6666 -0.0390
  695MOL0     C93751   9.418   4.371   0.187  0.0977  0.2487 -0.0910
  695MOL0     C93752   9.300   4.462   0.227 -0.0016 -0.2070 -0.9166
  695MOL0     C93753   9.340   4.537   0.345  0.0605  0.2861  0.6002
  695MOL0     C93754   9.353   4.608   0.446  1.5783  0.1348 -0.5695
  695MOL0     C93755   9.922   4.262   0.355  0.3349  0.4447 -0.2742
  695MOL0     C93756  10.050   4.209   0.379  0.6961  0.4503 -0.4628
  695MOL0     C93757  10.104   4.193   0.526 -0.2641  0.3746  0.0003
  695MOL0     H93758  10.295   3.821   0.022  1.8612 -1.1509 -3.3044
  695MOL0     H93759  10.461   3.666   0.007  1.0091  0.7593 -1.9983
  695MOL0     H93760  10.676   3.617  -0.053  0.6816  0.7081 -0.2409
  695MOL0     H93761  10.804   3.737  -0.048 -0.6236  1.1296 -0.0945
  695MOL0     H93762  10.873   3.512  -0.097  0.8357  1.6913 -0.8561
  695MOL0     H93763  10.864   3.458   0.077 -1.6522  0.6461  0.0237
  695MOL0     H93764  11.004   3.641   0.150 -2.8782 -0.5251 -0.4298
  695MOL0     H93765  11.029   3.696  -0.017 -2.9175  1.1858  0.6022
  695MOL0     H93766  11.102   3.418   0.088 -1.9380 -2.1430 -3.8841
  695MOL0     H93767  11.141   3.473  -0.069  1.7118 -1.5514  1.3342
  695MOL0     H93768  11.258   3.668   0.042 -1.3379 -0.3345 -0.8917
  695MOL0     H93769  11.231   3.588   0.199  1.3363  1.2850  0.3128
  695MOL0     H93770  11.345   3.386   0.124 -2.6123  1.6486 -0.2988
  695MOL0     H93771  11.388   3.460  -0.020 -1.5175 -2.7626  0.4600
  695MOL0     H93772  11.452   3.587   0.254  0.2280  0.5670  0.4058
  695MOL0     H93773  11.489   3.656   0.092 -1.1344 -1.8454 -2.3719
  695MOL0     H93774  11.613   3.390   0.170  1.4364 -0.8774 -1.7896
  695MOL0     H93775  11.645   3.495   0.038 -3.3118  0.6572 -0.9445
  695MOL0     H93776  11.841   3.372   0.288  0.2203  0.1093  1.1813
  695MOL0     H93777  12.005   3.460   0.513 -1.6540  0.3187 -0.1397
  695MOL0     H93778  12.101   3.476   0.364 -1.5046  0.4395 -0.4426
  695MOL0     H93779  12.201   3.606   0.526  0.3325 -0.1831  0.8685
  695MOL0     H93780  12.114   3.724   0.432  0.2433  0.2328  0.2894
  695MOL0     H93781  11.996   3.602   0.693 -1.4362  1.2335  2.0872
  695MOL0     H93782  11.929   3.740   0.608 -0.1943 -0.0538 -0.7552
  695MOL0     H93783  12.156   3.846   0.646  1.9871 -1.9538 -1.2660
  695MOL0     H93784  12.193   3.714   0.756  1.8269  1.0324 -0.3550
  695MOL0     H93785  12.301   3.876   0.850 -1.4262 -0.5724 -1.2865
  695MOL0     H93786  12.409   3.956   1.032  0.4251 -0.6586 -0.4178
  695MOL0     H93787  12.653   4.201   1.227  0.8880  2.4704  0.2993
  695MOL0     H93788  12.790   4.283   1.403  1.2462 -1.7893  2.3594
  695MOL0     H93789  12.942   4.282   1.594 -1.5005 -2.3743  0.7777
  695MOL0     H93790  12.828   4.423   1.573  0.2827  0.9885  1.2863
  695MOL0     H93791  12.849   4.475   1.803 -1.2914 -1.4290  0.8009
  695MOL0     H93792  12.937   4.324   1.843 -3.6014  0.5873  1.8925
  695MOL0     H93793  13.083   4.487   1.849 -2.2935  0.7918  0.4822
  695MOL0     H93794  13.133   4.407   1.697 -0.7909  0.9952 -0.2140
  695MOL0     H93795  12.955   4.660   1.690 -0.8228  0.4068 -2.4735
  695MOL0     H93796  13.049   4.587   1.562 -0.3294  3.8052 -0.7076
  695MOL0     H93797  13.137   4.752   1.797 -1.2069  0.2677 -0.9656
  695MOL0     H93798  13.112   4.800   1.636 -2.3280 -1.4977 -0.7202
  695MOL0     H93799  13.325   4.586   1.701  3.7660 -0.3482 -2.3218
  695MOL0     H93800  13.291   4.664   1.554  0.3022  0.2850  0.5318
  695MOL0     H93801  13.380   4.804   1.821  0.2434 -0.9597  0.4451
  695MOL0     H93802  13.357   4.900   1.677  3.9762  2.0097  1.3552
  695MOL0     H93803  13.584   4.705   1.724  0.0987 -1.7369  0.1959
  695MOL0     H93804  13.517   4.720   1.560 -2.0289  1.6522  0.0282
  695MOL0     H93805  12.515   4.126   1.700 -1.1517  0.6635 -0.3518
  695MOL0     H93806  12.370   4.074   1.539  0.1976  2.8020  2.1964
  695MOL0     H93807  12.018   4.000   1.232  1.6988  0.6932  2.0423
  695MOL0     H93808  11.905   3.907   1.033  0.1850  0.9306 -0.5232
  695MOL0     H93809  10.736   3.916   0.244 -0.2635 -1.8664  1.6454
  695MOL0     H93810  10.563   4.080   0.250  0.5082 -0.3870 -0.1209
  695MOL0     H93811  10.103   4.126   0.048 -0.8016 -0.3102  0.4218
  695MOL0     H93812   9.885   4.221   0.026  1.9866 -3.6546 -0.8282
  695MOL0     H93813   9.644   4.260   0.044  2.4071 -1.2081  1.4780
  695MOL0     H93814   9.720   4.421   0.042  0.0215  0.0375  0.5325
  695MOL0     H93815   9.509   4.492   0.037 -1.0370 -1.6112  0.0509
  695MOL0     H93816   9.571   4.509   0.208  0.3261 -1.8499  1.2729
  695MOL0     H93817   9.449   4.303   0.267 -0.4350 -0.8929 -0.8344
  695MOL0     H93818   9.386   4.307   0.104 -0.5745  0.1468  0.2323
  695MOL0     H93819   9.279   4.530   0.144 -0.7341 -0.2221 -0.7487
  695MOL0     H93820   9.208   4.407   0.249 -0.4466  0.4116 -1.2158
  695MOL0     H93821   9.380   4.656   0.538 -3.2730 -0.1990  1.3179
  695MOL0     H93822   9.860   4.291   0.439 -0.8374 -1.4166 -0.4450
  695MOL0     H93823  10.108   4.085   0.544 -0.7771  0.4770  0.7986
  695MOL0     H93824  10.206   4.230   0.521 -0.0834 -0.2653 -1.5224
  695MOL0     H93825  10.040   4.236   0.604 -1.0559  0.2418 -0.5657
  696MOL0     O93826   6.747   9.635   7.101 -0.0434 -0.4230 -0.6454
  696MOL0     C93827   6.716   9.633   7.221  0.1731  0.3026  0.8059
  696MOL0     O93828   6.800   9.599   7.325 -0.1347  0.1128  0.2464
  696MOL0     C93829   6.933   9.591   7.287 -0.3317 -0.4396  0.2915
  696MOL0     C93830   7.002   9.716   7.267 -0.5276  0.2189  0.8525
  696MOL0     C93831   7.135   9.707   7.209  0.0177 -0.0233 -0.0388
  696MOL0     C93832   7.191   9.580   7.188 -0.9997 -0.9699  0.5850
  696MOL0     O93833   7.314   9.552   7.129 -0.8182 -0.2422  0.0078
  696MOL0     C93834   7.388   9.667   7.076  0.0588  1.0127 -0.1191
  696MOL0     C93835   7.519   9.613   7.013  0.4733  0.1799  0.2790
  696MOL0     C93836   7.594   9.733   6.968  0.6885  0.9057  0.0549
  696MOL0     C93837   7.722   9.682   6.904  0.8081 -0.1814 -0.3401
  696MOL0     C93838   7.842   9.779   6.893  0.5919  0.5126  0.0932
  696MOL0     C93839   7.964   9.713   6.821  0.2501 -0.4189 -0.1409
  696MOL0     C93840   7.934   9.643   6.692  0.2099  0.2619 -0.0476
  696MOL0     C93841   8.057   9.590   6.629 -0.2961 -0.0689  0.8522
  696MOL0     N93842   8.152   9.696   6.592  0.0546 -0.0248  0.3642
  696MOL0     C93843   8.269   9.711   6.653 -0.6913  0.5311 -0.4982
  696MOL0     C93844   8.324   9.823   6.612 -0.2708  0.0491 -0.1294
  696MOL0     C93845   8.439   9.903   6.667 -0.4451  0.3025 -0.1599
  696MOL0     C93846   8.570   9.871   6.596  0.1597  0.1236  0.0441
  696MOL0     C93847   8.686   9.967   6.630  0.0800  0.1538  0.3492
  696MOL0     C93848   8.820   9.897   6.597  0.5167  0.7270 -0.2487
  696MOL0     O93849   8.903   9.995   6.535  0.0154 -0.0034  0.8446
  696MOL0     C93850   9.014   9.952   6.455  0.2692 -0.0563  0.7566
  696MOL0     C93851   9.070   9.832   6.463  0.4168  0.7296 -0.3007
  696MOL0     C93852   9.186   9.796   6.396 -0.3982  0.0379  0.0841
  696MOL0     C93853   9.254   9.883   6.310 -0.3629  0.2621 -0.8531
  696MOL0     C93854   9.391   9.847   6.259 -1.3835  0.6254  0.6947
  696MOL0     O93855   9.440   9.940   6.166 -0.3244  0.2814 -0.3478
  696MOL0     C93856   9.578   9.929   6.145 -0.1969  0.6086  0.3812
  696MOL0     C93857   9.621   9.924   6.010 -0.2977  0.1678 -0.5498
  696MOL0     C93858   9.761   9.908   5.983 -0.9013 -0.4493 -0.6590
  696MOL0     C93859   9.858   9.916   6.088  0.3182 -0.0566 -0.1038
  696MOL0     O93860   9.988   9.902   6.042  0.1321 -0.4972 -0.0947
  696MOL0     C93861  10.074   9.829   6.139 -0.7412 -0.7683  0.3872
  696MOL0     C93862  10.197   9.773   6.066 -0.2723 -0.0464  0.2120
  696MOL0     C93863  10.299   9.886   6.059 -0.3654  0.0445 -0.5568
  696MOL0     C93864  10.432   9.869   5.977  0.3729  1.5332  0.2330
  696MOL0     C93865  10.534   9.776   6.055 -0.6194  0.9503 -0.2475
  696MOL0     C93866  10.612   9.862   6.151 -0.5467  0.3614 -0.4543
  696MOL0     C93867  10.742   9.897   6.090  0.0725 -0.5558  0.0847
  696MOL0     C93868  10.834   9.969   6.198  0.4653  0.9057  0.1904
  696MOL0    Cl93869  10.993  10.011   6.125 -0.0371  0.1482 -0.1037
  696MOL0     C93870   9.810   9.932   6.214  0.2930  0.6152  0.5996
  696MOL0     C93871   9.673   9.929   6.248 -0.0740 -0.0366 -0.0034
  696MOL0     O93872   9.448   9.743   6.293 -0.3947  0.4370  0.2844
  696MOL0     C93873   9.189  10.008   6.293 -0.1853 -0.2381 -0.5749
  696MOL0     C93874   9.070  10.041   6.365 -0.2960 -0.0709  0.1281
  696MOL0     N93875   8.247   9.861   6.502  0.8773 -0.3493  0.0276
  696MOL0     N93876   8.133   9.789   6.489 -0.8634  0.5615 -1.1867
  696MOL0     C93877   7.115   9.463   7.212  0.6626  0.2530  0.1514
  696MOL0     C93878   6.987   9.460   7.256  0.4039  0.0270 -0.0327
  696MOL0     C93879   6.575   9.672   7.258  0.0378  0.6138  1.3644
  696MOL0     C93880   6.556   9.743   7.378  0.2285  0.8952 -1.3855
  696MOL0     C93881   6.421   9.778   7.410  0.0458 -0.1117  0.3352
  696MOL0     C93882   6.310   9.719   7.351  0.2601  0.4253  0.4025
  696MOL0     O93883   6.191   9.765   7.387 -0.3408 -0.1568 -0.4399
  696MOL0     C93884   6.067   9.756   7.306 -0.9002 -0.0183  0.1824
  696MOL0     C93885   5.993   9.893   7.310 -0.4651 -0.3140  0.6837
  696MOL0     C93886   5.932   9.930   7.450  0.9244 -0.0023  0.0306
  696MOL0     C93887   5.861  10.070   7.447  0.3478 -0.6023 -0.5418
  696MOL0     C93888   5.720  10.060   7.404  0.5628 -0.1230 -0.4189
  696MOL0     C93889   5.608  10.060   7.357 -0.0147  0.0007 -0.9492
  696MOL0     C93890   6.334   9.637   7.245 -0.1871  0.1504 -0.3867
  696MOL0     C93891   6.463   9.608   7.195  0.3263 -0.2142  0.0062
  696MOL0     C93892   6.484   9.525   7.070  0.2791 -0.2446 -0.1526
  696MOL0     H93893   6.952   9.808   7.295 -0.4203  0.2076  1.0784
  696MOL0     H93894   7.180   9.795   7.165 -1.6040  0.3295 -1.0875
  696MOL0     H93895   7.333   9.707   6.990 -3.2964  3.3971  2.8600
  696MOL0     H93896   7.404   9.737   7.158 -0.6894 -2.7502  3.5757
  696MOL0     H93897   7.489   9.549   6.929 -1.8832 -0.2960  1.3909
  696MOL0     H93898   7.578   9.564   7.090 -1.7632 -2.2357  0.6263
  696MOL0     H93899   7.617   9.795   7.056 -2.0791  0.5990  1.0896
  696MOL0     H93900   7.532   9.782   6.893 -5.0520 -1.4309  2.7002
  696MOL0     H93901   7.754   9.608   6.979 -2.6297 -1.1535  0.3273
  696MOL0     H93902   7.694   9.634   6.810  1.0594 -0.8233 -0.0920
  696MOL0     H93903   7.803   9.855   6.825  0.2378  0.4048  0.1732
  696MOL0     H93904   7.870   9.813   6.993 -0.2834  0.0058  0.5178
  696MOL0     H93905   8.027   9.801   6.810 -0.8861  0.3878 -0.3923
  696MOL0     H93906   8.014   9.643   6.889 -0.8603 -2.3272 -1.1956
  696MOL0     H93907   7.887   9.710   6.619  1.2196 -0.3353 -1.2768
  696MOL0     H93908   7.859   9.565   6.709 -0.9560  1.6770  1.7133
  696MOL0     H93909   8.113   9.517   6.687 -1.1540 -1.5645 -0.1170
  696MOL0     H93910   8.035   9.532   6.539  1.7067 -0.0542  0.2940
  696MOL0     H93911   8.314   9.653   6.732  1.9671 -0.0321 -2.2996
  696MOL0     H93912   8.420  10.011   6.660 -2.4253  0.0050  0.1350
  696MOL0     H93913   8.452   9.887   6.775 -0.4315  1.0774 -0.0414
  696MOL0     H93914   8.608   9.773   6.623  0.0766  0.0391 -0.1447
  696MOL0     H93915   8.552   9.888   6.490 -1.8140  0.5598  0.4101
  696MOL0     H93916   8.686   9.982   6.738 -0.2140 -1.5881  0.6243
  696MOL0     H93917   8.668  10.056   6.569 -0.3881 -0.0556  0.1715
  696MOL0     H93918   8.808   9.807   6.536 -2.2056  2.2213 -2.1248
  696MOL0     H93919   8.864   9.849   6.685  1.3925 -1.7784 -1.9276
  696MOL0     H93920   9.034   9.761   6.536 -2.0449  0.9761 -1.1809
  696MOL0     H93921   9.219   9.698   6.430 -0.4681  0.3915  1.2198
  696MOL0     H93922   9.550   9.928   5.927 -0.0427  2.7691 -0.7115
  696MOL0     H93923   9.793   9.899   5.880  0.4628 -3.0992 -0.0859
  696MOL0     H93924  10.111   9.884   6.227 -3.3722 -1.5932  2.0989
  696MOL0     H93925  10.014   9.751   6.186 -4.0749  0.1518 -1.9691
  696MOL0     H93926  10.229   9.680   6.114  1.9091 -0.4494 -1.8269
  696MOL0     H93927  10.179   9.754   5.960  1.2832  1.6933 -0.4313
  696MOL0     H93928  10.241   9.971   6.024 -0.8772  0.0028  0.1643
  696MOL0     H93929  10.325   9.905   6.164 -1.6444  1.5315 -0.4898
  696MOL0     H93930  10.475   9.964   5.942  0.8311  1.2219 -0.0654
  696MOL0     H93931  10.406   9.824   5.881  0.3924 -3.1360  2.1727
  696MOL0     H93932  10.598   9.721   5.985  0.5164 -0.4397  1.7847
  696MOL0     H93933  10.479   9.709   6.120  1.8526 -1.0404 -0.0646
  696MOL0     H93934  10.558   9.949   6.188 -2.0419  0.6739 -3.0863
  696MOL0     H93935  10.637   9.791   6.230  1.3229  0.2499 -1.1016
  696MOL0     H93936  10.719   9.976   6.018 -2.4090  1.4206  2.8280
  696MOL0     H93937  10.807   9.819   6.048  1.2485  0.5722 -0.2704
  696MOL0     H93938  10.776  10.049   6.245 -1.3697 -0.7254  0.8061
  696MOL0     H93939  10.853   9.902   6.281 -0.7248  1.6842  1.1302
  696MOL0     H93940   9.875   9.929   6.301 -0.0744 -1.8749  0.8726
  696MOL0     H93941   9.636   9.933   6.350  0.3639 -1.1349  0.2087
  696MOL0     H93942   9.227  10.082   6.223 -0.2798 -0.2396 -0.6289
  696MOL0     H93943   9.012  10.132   6.368 -1.1204 -0.5932  2.3295
  696MOL0     H93944   7.163   9.367   7.195 -0.6376 -1.0947  3.2333
  696MOL0     H93945   6.939   9.367   7.284 -4.0522  1.9159 -0.5613
  696MOL0     H93946   6.642   9.791   7.426  1.3633 -0.3670 -2.0986
  696MOL0     H93947   6.411   9.848   7.492  0.1122  3.3548 -2.3802
  696MOL0     H93948   6.007   9.680   7.356  2.3319 -2.3887  0.7547
  696MOL0     H93949   6.084   9.718   7.205  0.6717 -1.4106  0.9093
  696MOL0     H93950   5.907   9.894   7.243  0.3628 -2.1566 -0.4870
  696MOL0     H93951   6.057   9.980   7.288  0.5732 -1.0263  0.8237
  696MOL0     H93952   6.016   9.944   7.518  0.8425  0.2315  0.0841
  696MOL0     H93953   5.868   9.854   7.496  0.2559 -0.4279 -1.5286
  696MOL0     H93954   5.859  10.104   7.551 -1.5203 -1.7350 -0.1631
  696MOL0     H93955   5.928  10.136   7.391 -0.4276  0.2275 -0.5269
  696MOL0     H93956   5.511  10.062   7.310  0.0913  0.0582 -1.1654
  696MOL0     H93957   6.256   9.596   7.181  0.0406  0.3885 -0.8202
  696MOL0     H93958   6.521   9.583   6.985  1.9642 -0.6123  0.2985
  696MOL0     H93959   6.558   9.446   7.084 -1.7943 -2.1903  0.3696
  696MOL0     H93960   6.390   9.475   7.048  0.2026  0.2868 -1.0611
  697MOL0     O93961  10.313   2.151   0.140  0.5938  0.6304  0.0711
  697MOL0     C93962  10.274   2.100   0.245 -0.3714 -0.1046 -0.0437
  697MOL0     O93963  10.346   2.109   0.359  0.2791  0.8240  0.3187
  697MOL0     C93964  10.456   2.174   0.369 -0.8739 -0.8691 -0.7056
  697MOL0     C93965  10.572   2.119   0.430  0.6045  0.3540 -0.7678
  697MOL0     C93966  10.697   2.180   0.426  0.5357 -0.5532  0.8261
  697MOL0     C93967  10.701   2.309   0.367  0.4014  0.5903 -0.8478
  697MOL0     O93968  10.825   2.374   0.374  0.2463 -0.4380 -0.0282
  697MOL0     C93969  10.864   2.386   0.235  0.5003  0.3066  0.6659
  697MOL0     C93970  10.944   2.269   0.181 -0.1326  0.7125  1.1507
  697MOL0     C93971  11.064   2.228   0.272  0.6568 -0.2173 -0.6004
  697MOL0     C93972  11.176   2.340   0.284  0.9791  0.0834  0.6229
  697MOL0     C93973  11.289   2.292   0.373 -0.4419 -0.2529  0.2153
  697MOL0     C93974  11.392   2.401   0.403  0.2206  0.0357  0.1690
  697MOL0     C93975  11.521   2.353   0.456  0.3003 -0.0729 -0.4068
  697MOL0     C93976  11.508   2.316   0.603  0.1402  0.0460  0.5324
  697MOL0     N93977  11.634   2.264   0.658  0.6045  0.6149 -1.0257
  697MOL0     C93978  11.674   2.130   0.657 -0.0163 -0.4132 -0.5569
  697MOL0     C93979  11.789   2.120   0.726  0.6436 -0.1927  0.2870
  697MOL0     C93980  11.869   1.989   0.744  0.1813  0.0566  1.0685
  697MOL0     C93981  11.932   1.971   0.882  0.6244  0.4752  0.2277
  697MOL0     C93982  11.994   1.834   0.905  0.8517 -0.0732 -0.9407
  697MOL0     C93983  12.091   1.846   1.014  0.1473  1.2724 -0.4170
  697MOL0     O93984  12.147   1.720   1.058  0.0085 -0.5302  0.4585
  697MOL0     C93985  12.065   1.629   1.125 -0.7474 -0.5034  0.2554
  697MOL0     C93986  11.946   1.652   1.193 -0.0064 -0.3758 -0.2374
  697MOL0     C93987  11.867   1.555   1.243 -0.9992  0.1202  0.1648
  697MOL0     C93988  11.912   1.428   1.239 -0.4800  0.1749 -0.0970
  697MOL0     C93989  11.842   1.316   1.297  1.2237  0.6087 -0.2996
  697MOL0     O93990  11.902   1.193   1.286  0.3435  0.5928 -0.2594
  697MOL0     C93991  11.839   1.075   1.250 -0.5903  0.5001 -0.3921
  697MOL0     C93992  11.918   0.968   1.220 -0.1896 -0.1623  0.4903
  697MOL0     C93993  11.873   0.841   1.193 -0.0878  0.4879 -0.0424
  697MOL0     C93994  11.736   0.819   1.187  0.3056 -0.1480  0.0005
  697MOL0     O93995  11.702   0.688   1.154 -0.2274 -1.2381 -0.5167
  697MOL0     C93996  11.565   0.656   1.148 -0.4330  0.2422  0.3606
  697MOL0     C93997  11.546   0.511   1.090 -0.4142  0.1796 -0.3452
  697MOL0     C93998  11.576   0.389   1.181  1.0121  0.0230 -0.3273
  697MOL0     C93999  11.587   0.257   1.107  0.6062 -0.8338 -0.4763
  697MOL0     C94000  11.655   0.145   1.194  0.3705 -0.0782  0.0486
  697MOL0     C94001  11.712   0.023   1.119 -0.1254  0.4921 -0.1165
  697MOL0     C94002  11.839   0.053   1.038  0.2387  0.0330 -0.3910
  697MOL0     C94003  11.865  -0.033   0.909  0.0004 -0.0613  0.9517
  697MOL0    Cl94004  11.749  -0.000   0.781  0.3553 -0.3287  0.1829
  697MOL0     C94005  11.651   0.923   1.207  0.5906  0.3203 -1.0929
  697MOL0     C94006  11.702   1.050   1.239  0.2306  0.7176 -0.4149
  697MOL0     O94007  11.729   1.328   1.346  0.2954  0.1611  0.4961
  697MOL0     C94008  12.020   1.394   1.163  0.9031  0.3798  0.5288
  697MOL0     C94009  12.102   1.497   1.113  0.0088  0.5557  0.0783
  697MOL0     N94010  11.816   2.257   0.772  1.3836  0.7208 -0.1042
  697MOL0     N94011  11.723   2.342   0.731 -0.1827  0.4683 -0.3169
  697MOL0     C94012  10.582   2.365   0.311 -0.3005  0.3247  0.1243
  697MOL0     C94013  10.461   2.300   0.319 -0.6652 -0.8073  0.9074
  697MOL0     C94014  10.146   2.021   0.238  0.5919  0.7056  0.0780
  697MOL0     C94015  10.109   1.962   0.113  0.6747  0.2609  0.2634
  697MOL0     C94016   9.989   1.895   0.099 -0.2170 -0.7306 -0.6596
  697MOL0     C94017   9.890   1.895   0.208 -0.1867 -1.0672  0.0965
  697MOL0     O94018   9.761   1.841   0.212  0.3828  0.3614 -0.1819
  697MOL0     C94019   9.695   1.840   0.092  0.3877 -0.3629 -0.0432
  697MOL0     C94020   9.736   1.710   0.020 -0.5685 -0.1477  0.1005
  697MOL0     C94021   9.713   1.714  -0.123 -0.1091 -0.3300  0.4011
  697MOL0     C94022   9.794   1.595  -0.183  0.1294  0.0396  0.1429
  697MOL0     C94023   9.758   1.588  -0.325 -0.5691 -0.4184 -0.5115
  697MOL0     C94024   9.739   1.607  -0.446  0.4370  0.2101 -0.0627
  697MOL0     C94025   9.935   1.949   0.338 -0.2498  0.5119  0.6050
  697MOL0     C94026  10.057   2.012   0.354 -0.0161  0.0162  0.5557
  697MOL0     C94027  10.094   2.073   0.484  0.2290  0.7852  0.4904
  697MOL0     H94028  10.550   2.028   0.484  0.2692  0.8806  0.0075
  697MOL0     H94029  10.780   2.137   0.481  0.1740 -1.4812  0.6568
  697MOL0     H94030  10.778   2.401   0.169  1.0011  1.2515  0.2076
  697MOL0     H94031  10.929   2.472   0.219 -0.0633  0.5812 -0.2049
  697MOL0     H94032  10.983   2.292   0.081  0.7932  0.2688  1.3978
  697MOL0     H94033  10.885   2.177   0.175 -1.5165  1.6534 -0.5243
  697MOL0     H94034  11.115   2.145   0.222  0.0116 -0.3638 -1.0323
  697MOL0     H94035  11.027   2.195   0.370  2.5232  0.8128  0.5052
  697MOL0     H94036  11.227   2.363   0.190  1.6266  0.4200  1.0440
  697MOL0     H94037  11.133   2.430   0.328 -0.1082 -0.8100  1.4518
  697MOL0     H94038  11.247   2.259   0.468 -1.6144 -3.0798 -1.1698
  697MOL0     H94039  11.343   2.208   0.327  2.0910  1.5492 -0.2954
  697MOL0     H94040  11.414   2.456   0.311 -2.4407 -0.8496 -1.1146
  697MOL0     H94041  11.352   2.466   0.482  1.1735  2.8674 -1.5338
  697MOL0     H94042  11.593   2.434   0.436  0.8284 -0.3729  0.2256
  697MOL0     H94043  11.545   2.264   0.397 -1.5237 -1.3211  0.6485
  697MOL0     H94044  11.488   2.412   0.651  0.3709  0.6787 -0.6124
  697MOL0     H94045  11.429   2.244   0.626  0.0772  1.0358  3.9252
  697MOL0     H94046  11.610   2.060   0.603  0.5159 -0.3516 -1.2783
  697MOL0     H94047  11.803   1.907   0.715  1.6322 -0.0569 -2.4632
  697MOL0     H94048  11.948   1.977   0.670 -0.4334 -0.1315  0.4255
  697MOL0     H94049  12.003   2.052   0.898  1.0971  0.0411  0.3845
  697MOL0     H94050  11.850   1.975   0.953  0.3471  1.3700 -0.1394
  697MOL0     H94051  12.045   1.808   0.812 -0.8917  1.7872 -2.5019
  697MOL0     H94052  11.915   1.762   0.929  2.1574 -1.2304  0.0802
  697MOL0     H94053  12.046   1.895   1.101 -0.7611  0.2550 -0.3038
  697MOL0     H94054  12.168   1.915   0.978  1.7223  0.6053  1.4817
  697MOL0     H94055  11.922   1.758   1.204 -1.6054 -0.8568  1.4126
  697MOL0     H94056  11.772   1.574   1.292 -1.9751 -1.4465 -1.0411
  697MOL0     H94057  12.027   0.965   1.215 -0.2599 -1.7176 -1.7112
  697MOL0     H94058  11.939   0.755   1.193 -0.3361  0.2924 -0.2737
  697MOL0     H94059  11.520   0.664   1.248 -2.0373  0.5236 -0.3385
  697MOL0     H94060  11.513   0.725   1.080 -0.5137  1.0759  1.2384
  697MOL0     H94061  11.444   0.494   1.053  0.2748 -1.1484 -1.7799
  697MOL0     H94062  11.601   0.501   0.996  3.1066 -0.2448  1.5955
  697MOL0     H94063  11.667   0.420   1.233 -0.0968 -0.8297  2.2748
  697MOL0     H94064  11.494   0.379   1.252 -1.1215  0.9927 -2.4746
  697MOL0     H94065  11.638   0.274   1.012  1.5235 -1.0056 -0.0254
  697MOL0     H94066  11.486   0.221   1.082  0.4256 -1.7910  1.4010
  697MOL0     H94067  11.572   0.115   1.258 -0.6022  1.1434 -0.5676
  697MOL0     H94068  11.732   0.188   1.259 -2.2512  4.0122  0.8238
  697MOL0     H94069  11.735  -0.048   1.200  3.2196  0.8199 -0.6357
  697MOL0     H94070  11.642  -0.019   1.046 -0.0107  1.7935 -0.9926
  697MOL0     H94071  11.926   0.048   1.105 -0.9287  0.1306  1.1743
  697MOL0     H94072  11.834   0.158   1.008  0.8044  0.0019 -0.6149
  697MOL0     H94073  11.966  -0.021   0.870  0.7063 -1.5912  2.2057
  697MOL0     H94074  11.862  -0.139   0.936  0.1852 -0.6814 -1.2191
  697MOL0     H94075  11.543   0.915   1.215  0.5762  0.0789 -1.4909
  697MOL0     H94076  11.626   1.108   1.291 -2.2796 -2.7378  0.1247
  697MOL0     H94077  12.068   1.299   1.141 -0.9219 -0.0027 -2.3586
  697MOL0     H94078  12.200   1.481   1.071  0.3044 -0.9852  1.2249
  697MOL0     H94079  10.576   2.457   0.253 -2.1950  0.6475  0.7886
  697MOL0     H94080  10.379   2.348   0.267 -0.1673  0.0935  0.9271
  697MOL0     H94081  10.176   1.969   0.028  2.1686 -0.2449  1.3538
  697MOL0     H94082   9.966   1.849   0.003 -2.5267  2.5129 -1.8095
  697MOL0     H94083   9.713   1.932   0.036  0.1312 -0.4146 -0.2147
  697MOL0     H94084   9.585   1.833   0.092  0.4637 -2.5452 -1.4080
  697MOL0     H94085   9.676   1.624   0.051 -0.1696  0.0546  1.4737
  697MOL0     H94086   9.839   1.682   0.045 -0.2832  1.0486  0.3140
  697MOL0     H94087   9.753   1.804  -0.170  2.5507 -1.5115  0.2292
  697MOL0     H94088   9.606   1.701  -0.143  0.3648  0.6036 -3.8871
  697MOL0     H94089   9.902   1.607  -0.179  0.3035 -1.3846  0.4942
  697MOL0     H94090   9.773   1.500  -0.132  2.4830 -0.3572  0.4618
  697MOL0     H94091   9.698   1.616  -0.544 -0.3108 -1.0274  0.1140
  697MOL0     H94092   9.865   1.952   0.421  1.0367 -0.4080  1.7761
  697MOL0     H94093  10.176   2.011   0.523  0.7368  0.6537 -0.7214
  697MOL0     H94094  10.143   2.169   0.469  0.9875  0.8126  2.7492
  697MOL0     H94095  10.015   2.086   0.558  0.2656  2.4188  0.2772
  698MOL0     O94096  10.510  10.432   3.004  0.1171  0.0941  0.0273
  698MOL0     C94097  10.430  10.519   2.967 -0.3312 -0.0018 -0.7160
  698MOL0     O94098  10.386  10.620   3.043 -0.2375  0.0317  0.3777
  698MOL0     C94099  10.438  10.647   3.171 -0.0759 -0.1174 -0.0061
  698MOL0     C94100  10.468  10.552   3.266 -0.0816 -0.3539 -0.2131
  698MOL0     C94101  10.508  10.593   3.391 -0.3154  0.0529 -0.1826
  698MOL0     C94102  10.509  10.728   3.425 -0.6488  0.1549  0.4922
  698MOL0     O94103  10.537  10.780   3.547  0.0769  0.1573 -0.3296
  698MOL0     C94104  10.613  10.701   3.649  0.7179 -0.0781 -0.7673
  698MOL0     C94105  10.761  10.707   3.629 -1.0332  0.0659 -0.1242
  698MOL0     C94106  10.857  10.714   3.755  0.3209 -0.6363 -0.8298
  698MOL0     C94107  10.840  10.598   3.861  0.7318  0.2562  0.4042
  698MOL0     C94108  10.916  10.616   3.987  0.1892 -0.6308 -0.4962
  698MOL0     C94109  10.878  10.515   4.088 -0.3622  0.9021  0.5302
  698MOL0     C94110  10.974  10.505   4.213  0.0410  0.4160 -0.8586
  698MOL0     C94111  11.109  10.474   4.172 -0.3700 -0.7432  0.2459
  698MOL0     N94112  11.194  10.465   4.290  1.0709  0.1226  0.4130
  698MOL0     C94113  11.259  10.350   4.314 -0.0452 -0.6081 -0.1838
  698MOL0     C94114  11.345  10.380   4.414 -0.2918  0.2582  0.2455
  698MOL0     C94115  11.435  10.273   4.488 -0.6846 -0.0081  0.0459
  698MOL0     C94116  11.395  10.273   4.637 -0.4821  0.2607 -0.1369
  698MOL0     C94117  11.245  10.255   4.661  0.0355  0.1107  0.8023
  698MOL0     C94118  11.209  10.244   4.809  0.4184  0.6053 -0.5518
  698MOL0     O94119  11.243  10.358   4.888  1.1386 -0.2580 -1.2628
  698MOL0     C94120  11.375  10.361   4.935 -0.0243  0.1555 -0.3302
  698MOL0     C94121  11.464  10.253   4.950 -0.1966 -0.2371  0.2417
  698MOL0     C94122  11.590  10.284   5.002 -0.3000  0.0296 -0.2125
  698MOL0     C94123  11.629  10.409   5.058  1.0358 -0.5018 -0.0393
  698MOL0     C94124  11.771  10.449   5.093  0.7024  0.2840 -0.6321
  698MOL0     O94125  11.787  10.564   5.173 -0.2929  0.0615  0.0110
  698MOL0     C94126  11.906  10.617   5.201  0.1043  1.2782  0.5362
  698MOL0     C94127  12.018  10.592   5.118  0.1765 -0.3396  0.5331
  698MOL0     C94128  12.136  10.657   5.150  0.1852  0.0075  0.3626
  698MOL0     C94129  12.149  10.743   5.262  1.0305  0.0167  0.4573
  698MOL0     O94130  12.265  10.812   5.296  0.1529 -0.6145 -0.1022
  698MOL0     C94131  12.392  10.765   5.271  0.2966  0.6349 -0.6710
  698MOL0     C94132  12.476  10.817   5.382 -0.3313  0.4253 -0.4016
  698MOL0     C94133  12.623  10.777   5.356  0.0458 -0.0939 -0.5863
  698MOL0     C94134  12.690  10.737   5.491 -0.2414  0.0720 -0.3541
  698MOL0     C94135  12.830  10.704   5.467 -0.1061 -0.0092 -0.4349
  698MOL0     C94136  12.913  10.831   5.463 -0.1511 -0.6528 -0.2589
  698MOL0     C94137  13.060  10.785   5.446  0.2169 -0.3580 -0.2581
  698MOL0     C94138  13.172  10.890   5.479 -0.8203  0.6548  0.2210
  698MOL0    Cl94139  13.334  10.834   5.426 -0.3170 -0.5447  0.2823
  698MOL0     C94140  12.032  10.768   5.340  0.4300 -0.0042 -0.2950
  698MOL0     C94141  11.916  10.702   5.311 -0.2684 -0.0329  0.1545
  698MOL0     O94142  11.863  10.367   5.070 -0.0165  0.8060 -0.3964
  698MOL0     C94143  11.538  10.513   5.035 -0.0371 -0.3326 -0.4358
  698MOL0     C94144  11.415  10.484   4.981 -0.4876 -0.0154  0.0935
  698MOL0     N94145  11.323  10.513   4.441  0.7178 -0.4634  0.6425
  698MOL0     N94146  11.232  10.564   4.368 -0.1552  0.4763 -0.2421
  698MOL0     C94147  10.488  10.812   3.328 -0.5309  0.0321  0.4951
  698MOL0     C94148  10.450  10.783   3.198 -0.4115  0.1169  0.2442
  698MOL0     C94149  10.360  10.495   2.832  0.5505 -0.0300 -1.0697
  698MOL0     C94150  10.232  10.560   2.815  0.0663  0.0682 -1.0465
  698MOL0     C94151  10.158  10.540   2.698 -0.1116  1.1285  0.0355
  698MOL0     C94152  10.212  10.468   2.589  0.0637  0.5209 -0.7263
  698MOL0     O94153  10.143  10.426   2.479  1.0705  0.2175 -0.3509
  698MOL0     C94154  10.032  10.343   2.512  0.1942 -0.4769 -0.6307
  698MOL0     C94155  10.000  10.256   2.390  0.2037  0.1063  0.1161
  698MOL0     C94156   9.953  10.330   2.262  0.7027 -0.1469  0.2309
  698MOL0     C94157  10.059  10.412   2.187  0.3134 -0.1873 -0.2054
  698MOL0     C94158   9.995  10.475   2.070  0.8346 -0.2794 -0.0385
  698MOL0     C94159   9.930  10.516   1.974 -0.5030 -0.6008  0.4450
  698MOL0     C94160  10.340  10.399   2.607 -0.7266  0.1258 -0.1623
  698MOL0     C94161  10.412  10.419   2.726 -0.2398 -0.2935  0.3768
  698MOL0     C94162  10.542  10.335   2.727 -0.3690 -0.8793 -0.1378
  698MOL0     H94163  10.456  10.445   3.250 -0.9337 -0.6471  1.9916
  698MOL0     H94164  10.512  10.517   3.469 -1.8995 -0.9621 -1.0467
  698MOL0     H94165  10.612  10.763   3.739  2.0459 -0.2444 -0.6204
  698MOL0     H94166  10.571  10.601   3.666 -0.4657  0.7871  2.0877
  698MOL0     H94167  10.777  10.795   3.565 -1.0529 -0.6859 -1.1982
  698MOL0     H94168  10.789  10.618   3.571 -1.5861 -0.4227  0.3418
  698MOL0     H94169  10.855  10.808   3.812 -1.5953 -0.5898 -0.9314
  698MOL0     H94170  10.956  10.699   3.709  0.4041 -2.3919 -0.1530
  698MOL0     H94171  10.735  10.591   3.890  0.5561 -0.0574 -0.2911
  698MOL0     H94172  10.868  10.507   3.807  0.4223 -0.1665  0.9449
  698MOL0     H94173  11.021  10.604   3.959  1.0904 -1.4868  2.8280
  698MOL0     H94174  10.884  10.714   4.024 -4.7156 -2.5525  1.1740
  698MOL0     H94175  10.779  10.533   4.131 -0.3251 -0.4584  1.2486
  698MOL0     H94176  10.881  10.413   4.047  0.9120 -1.6831  6.0300
  698MOL0     H94177  10.949  10.426   4.284  2.8670  0.3110  0.1494
  698MOL0     H94178  10.985  10.602   4.262  1.6026  0.5118 -1.3639
  698MOL0     H94179  11.112  10.378   4.120  0.3976 -0.2683 -0.6220
  698MOL0     H94180  11.156  10.546   4.104 -2.0311 -1.3297 -1.5999
  698MOL0     H94181  11.242  10.251   4.271  1.8941 -1.7295  1.4786
  698MOL0     H94182  11.417  10.180   4.434 -0.6141 -0.2145  0.3789
  698MOL0     H94183  11.541  10.298   4.480 -0.6209 -0.2556  0.1196
  698MOL0     H94184  11.443  10.187   4.684 -1.7666 -0.2490  0.2960
  698MOL0     H94185  11.430  10.368   4.679 -1.9438  2.2505 -3.0740
  698MOL0     H94186  11.225  10.172   4.593  1.6287  0.8025 -0.5730
  698MOL0     H94187  11.194  10.345   4.624 -0.8603 -1.0187 -0.7797
  698MOL0     H94188  11.246  10.155   4.862  0.3177 -1.1769 -3.2818
  698MOL0     H94189  11.100  10.238   4.813  0.3651  1.2907  3.4099
  698MOL0     H94190  11.445  10.151   4.917 -0.5681  0.0778 -0.5460
  698MOL0     H94191  11.676  10.217   5.003  1.8997  2.6616 -0.0660
  698MOL0     H94192  12.015  10.534   5.026  0.5938  0.9572 -0.3180
  698MOL0     H94193  12.221  10.644   5.083 -0.0614 -0.0955  0.0695
  698MOL0     H94194  12.395  10.656   5.280  1.4238  0.3923 -3.2149
  698MOL0     H94195  12.435  10.790   5.174  2.1339 -1.6283 -0.5476
  698MOL0     H94196  12.470  10.926   5.387  0.4692  0.4960 -0.8202
  698MOL0     H94197  12.442  10.776   5.477 -1.4073 -4.2128 -2.4967
  698MOL0     H94198  12.624  10.683   5.301 -2.2030 -0.3843 -0.1849
  698MOL0     H94199  12.680  10.850   5.297 -2.2907  0.8965 -1.7267
  698MOL0     H94200  12.637  10.656   5.541  0.2349  0.2964  0.5321
  698MOL0     H94201  12.694  10.825   5.557  2.1687  0.5785 -1.0739
  698MOL0     H94202  12.842  10.653   5.372 -4.9485 -1.2851 -0.6054
  698MOL0     H94203  12.870  10.639   5.546 -0.5462 -0.6175 -0.7076
  698MOL0     H94204  12.880  10.888   5.375 -1.2273 -0.3181  0.3579
  698MOL0     H94205  12.896  10.890   5.553  0.8746  2.8893 -2.2014
  698MOL0     H94206  13.075  10.742   5.346 -1.7927 -2.1958  0.1488
  698MOL0     H94207  13.084  10.708   5.519  1.4690  0.1760 -0.0960
  698MOL0     H94208  13.144  10.981   5.425  0.0873 -0.0077 -1.4173
  698MOL0     H94209  13.183  10.898   5.588  3.1921 -3.8644  0.4862
  698MOL0     H94210  12.043  10.838   5.422 -1.2277 -0.7135  0.6079
  698MOL0     H94211  11.831  10.716   5.377 -2.2523 -1.3644 -1.9547
  698MOL0     H94212  11.571  10.611   5.066 -0.4396 -0.8498  1.7918
  698MOL0     H94213  11.339  10.561   4.989  0.7631  1.4947 -1.6121
  698MOL0     H94214  10.503  10.915   3.358 -0.5944  0.0769  0.3737
  698MOL0     H94215  10.414  10.861   3.131 -1.9924  0.8162  1.7977
  698MOL0     H94216  10.188  10.599   2.906  0.9899  1.0868 -0.9999
  698MOL0     H94217  10.054  10.570   2.692  0.1651  1.8965 -1.3677
  698MOL0     H94218   9.946  10.407   2.534  0.9002  0.3499 -0.2125
  698MOL0     H94219  10.059  10.283   2.600  1.2837  2.0204  0.8565
  698MOL0     H94220   9.919  10.190   2.421 -0.1305 -0.5530 -2.0525
  698MOL0     H94221  10.079  10.185   2.361 -1.0342 -0.7279 -1.3407
  698MOL0     H94222   9.874  10.400   2.290  1.2452  0.6585 -0.2081
  698MOL0     H94223   9.913  10.260   2.188 -2.4116  1.2938  0.3855
  698MOL0     H94224  10.098  10.494   2.248  1.6884 -0.7603 -0.2827
  698MOL0     H94225  10.149  10.360   2.154 -0.1112 -0.9625 -0.1653
  698MOL0     H94226   9.863  10.544   1.895 -1.6411 -1.8035  0.9418
  698MOL0     H94227  10.373  10.334   2.527 -0.0871  0.4436 -0.1672
  698MOL0     H94228  10.543  10.264   2.644 -1.7344 -1.4188  0.2834
  698MOL0     H94229  10.629  10.401   2.720 -1.6084  0.5989 -2.6470
  698MOL0     H94230  10.549  10.264   2.811 -0.0965 -1.7949 -0.9182
  699MOL0     O94231   6.749   4.580   0.160  0.0709  0.2543 -0.5292
  699MOL0     C94232   6.703   4.510   0.252 -0.0983 -1.0977 -0.1571
  699MOL0     O94233   6.755   4.402   0.303  0.0302 -0.2792  0.1114
  699MOL0     C94234   6.847   4.334   0.232  0.2512 -0.9598  0.7989
  699MOL0     C94235   6.981   4.371   0.247  0.5246  1.2383  1.4259
  699MOL0     C94236   7.073   4.316   0.156  0.3282  0.4714  0.2860
  699MOL0     C94237   7.039   4.225   0.061  0.2867  0.1977  0.7300
  699MOL0     O94238   7.133   4.170  -0.028 -0.5973 -0.3387 -0.6979
  699MOL0     C94239   7.259   4.238  -0.043 -0.4052  0.2191 -0.3155
  699MOL0     C94240   7.362   4.193  -0.149  0.5168 -0.3329  0.9675
  699MOL0     C94241   7.299   4.191  -0.287  0.2709 -0.6740 -0.3094
  699MOL0     C94242   7.230   4.318  -0.336 -0.6666  0.4586 -0.2978
  699MOL0     C94243   7.229   4.324  -0.486  0.4289 -0.4073 -0.0203
  699MOL0     C94244   7.190   4.470  -0.528 -0.1102  0.3172  0.0057
  699MOL0     C94245   7.211   4.482  -0.671  0.3131 -0.9198  0.8818
  699MOL0     C94246   7.116   4.598  -0.732  0.1391  0.3165  0.7255
  699MOL0     N94247   7.181   4.654  -0.856 -0.2799  0.0738  0.0871
  699MOL0     C94248   7.167   4.614  -0.979 -0.2043  0.5461 -0.0258
  699MOL0     C94249   7.223   4.704  -1.055 -0.5445 -0.5711  0.1608
  699MOL0     C94250   7.230   4.691  -1.204 -0.0374 -0.3999  0.4140
  699MOL0     C94251   7.354   4.764  -1.258 -0.6391 -0.3966  0.4367
  699MOL0     C94252   7.374   4.728  -1.406  0.5210  0.3411  0.1660
  699MOL0     C94253   7.385   4.575  -1.431  0.5652 -0.8793  0.4479
  699MOL0     O94254   7.467   4.524  -1.542 -1.1084  0.0328 -0.5997
  699MOL0     C94255   7.606   4.558  -1.532 -0.6326 -0.0691  0.0955
  699MOL0     C94256   7.681   4.571  -1.419  0.6901  0.4385  0.3298
  699MOL0     C94257   7.819   4.593  -1.429 -0.6977 -0.2516 -0.5166
  699MOL0     C94258   7.881   4.612  -1.552 -0.1004  0.2151 -0.0274
  699MOL0     C94259   8.023   4.636  -1.556  0.0783  0.7171  0.4214
  699MOL0     O94260   8.093   4.650  -1.437 -0.3376  0.2688 -0.3834
  699MOL0     C94261   8.226   4.659  -1.442 -0.7615  0.4395  0.1717
  699MOL0     C94262   8.301   4.564  -1.380 -0.4482  0.1158  0.0242
  699MOL0     C94263   8.447   4.571  -1.385  1.2267  0.3758 -0.5654
  699MOL0     C94264   8.507   4.681  -1.453 -0.1915  0.1097  0.9999
  699MOL0     O94265   8.646   4.680  -1.456  0.4734 -0.1462 -0.3396
  699MOL0     C94266   8.716   4.780  -1.527  0.4893 -0.6274  1.1160
  699MOL0     C94267   8.859   4.745  -1.553  0.5589 -0.4110  0.2239
  699MOL0     C94268   8.933   4.854  -1.634 -0.7392 -0.5064  0.0312
  699MOL0     C94269   9.072   4.813  -1.692 -0.1993 -0.0584 -0.6523
  699MOL0     C94270   9.150   4.936  -1.748  1.0904  1.4896  0.6821
  699MOL0     C94271   9.297   4.890  -1.762 -0.1465 -0.1888 -0.5815
  699MOL0     C94272   9.367   5.018  -1.826 -0.2202  0.2250 -0.7503
  699MOL0     C94273   9.514   5.018  -1.790  0.2779 -0.3644 -0.5426
  699MOL0    Cl94274   9.576   5.160  -1.883  0.0128  0.0508  0.2120
  699MOL0     C94275   8.422   4.787  -1.511 -0.0816  0.5272 -0.8190
  699MOL0     C94276   8.282   4.771  -1.507  0.2721 -0.0850  1.5437
  699MOL0     O94277   8.078   4.640  -1.668  0.2908  0.2379 -0.1160
  699MOL0     C94278   7.801   4.604  -1.670 -0.2622  0.2258  0.2406
  699MOL0     C94279   7.668   4.572  -1.664 -0.2645  0.6033  0.2368
  699MOL0     N94280   7.285   4.799  -0.972 -0.1745  0.0316  0.5114
  699MOL0     N94281   7.257   4.771  -0.849 -0.6289 -0.3496  0.0525
  699MOL0     C94282   6.900   4.192   0.044 -0.5620 -0.6382  0.3775
  699MOL0     C94283   6.809   4.245   0.127  0.0797 -0.9881 -0.8238
  699MOL0     C94284   6.593   4.576   0.327  0.7241 -0.2144 -0.0940
  699MOL0     C94285   6.599   4.714   0.342  0.4773 -0.1437  0.8031
  699MOL0     C94286   6.497   4.783   0.411 -0.0816 -0.4387  0.2205
  699MOL0     C94287   6.385   4.720   0.472 -0.6907 -0.3092  0.1342
  699MOL0     O94288   6.291   4.793   0.542 -0.6468  0.0211 -1.0033
  699MOL0     C94289   6.161   4.744   0.578  0.7892 -0.3348  0.4874
  699MOL0     C94290   6.086   4.874   0.627  0.2989  1.1997 -0.0389
  699MOL0     C94291   5.940   4.847   0.638 -0.2332  0.5824 -0.0140
  699MOL0     C94292   5.889   4.925   0.772  0.1758 -0.1405 -0.5317
  699MOL0     C94293   5.740   4.918   0.787 -0.2723 -1.1861 -0.0897
  699MOL0     C94294   5.620   4.906   0.812 -0.8614 -0.2052 -0.2682
  699MOL0     C94295   6.369   4.583   0.447  0.3399 -0.0254 -0.2117
  699MOL0     C94296   6.476   4.509   0.392 -0.3965  0.4187  0.6495
  699MOL0     C94297   6.463   4.370   0.349  0.7379 -0.7623 -0.1671
  699MOL0     H94298   7.009   4.443   0.323  1.0337  1.9606  0.5709
  699MOL0     H94299   7.179   4.335   0.168  0.4410 -0.4276  0.8359
  699MOL0     H94300   7.245   4.345  -0.059 -0.4531  0.5944  1.8695
  699MOL0     H94301   7.313   4.228   0.052 -0.5059 -1.2619 -0.3996
  699MOL0     H94302   7.400   4.092  -0.132 -1.6259 -1.1147  1.3544
  699MOL0     H94303   7.444   4.266  -0.149 -0.6488  1.2814 -3.4562
  699MOL0     H94304   7.215   4.121  -0.278 -0.0795 -0.6741 -2.7822
  699MOL0     H94305   7.362   4.136  -0.358  0.7128 -2.3257  1.2615
  699MOL0     H94306   7.129   4.312  -0.295 -0.7284 -1.6085 -0.6439
  699MOL0     H94307   7.280   4.403  -0.288  0.0512 -0.8163  1.3187
  699MOL0     H94308   7.323   4.294  -0.534  0.5102 -0.3093  0.0788
  699MOL0     H94309   7.152   4.258  -0.527 -1.4463 -0.2753  3.0140
  699MOL0     H94310   7.085   4.481  -0.500 -0.3906 -1.0678 -0.3920
  699MOL0     H94311   7.250   4.542  -0.472  1.1275  1.2299 -2.3564
  699MOL0     H94312   7.194   4.383  -0.715  1.3768 -0.6658 -0.1407
  699MOL0     H94313   7.316   4.513  -0.677  0.3979 -0.9021  2.2268
  699MOL0     H94314   7.023   4.550  -0.764  0.9422 -0.7412 -0.1445
  699MOL0     H94315   7.085   4.664  -0.651 -0.7991 -1.1414  1.6038
  699MOL0     H94316   7.115   4.525  -1.012 -0.0070  0.2641  0.4213
  699MOL0     H94317   7.238   4.586  -1.233  0.7507 -0.0693 -0.6396
  699MOL0     H94318   7.135   4.718  -1.250  1.0525  1.5112 -0.8727
  699MOL0     H94319   7.347   4.873  -1.247 -2.2134 -0.2474 -1.4651
  699MOL0     H94320   7.448   4.735  -1.211 -1.6392 -1.4038  1.9268
  699MOL0     H94321   7.464   4.771  -1.452 -0.5158  0.9296 -1.3691
  699MOL0     H94322   7.287   4.753  -1.466 -2.7083 -1.7670  3.5527
  699MOL0     H94323   7.280   4.552  -1.453  0.4549 -0.7112  0.7855
  699MOL0     H94324   7.410   4.523  -1.338 -0.4285  1.2972  2.0169
  699MOL0     H94325   7.632   4.557  -1.324  0.6004  0.9642  0.3661
  699MOL0     H94326   7.876   4.601  -1.337 -0.3764 -0.6885 -0.6748
  699MOL0     H94327   8.261   4.478  -1.327  1.3939  0.5219  2.2108
  699MOL0     H94328   8.499   4.491  -1.333  0.5442  0.3194  0.0504
  699MOL0     H94329   8.672   4.807  -1.624  1.0974  1.9529  1.4883
  699MOL0     H94330   8.711   4.872  -1.468 -1.0166  0.7885 -1.0425
  699MOL0     H94331   8.902   4.736  -1.453 -0.5899 -1.6007  0.6256
  699MOL0     H94332   8.858   4.646  -1.599  0.1025 -0.4927  0.4065
  699MOL0     H94333   8.871   4.894  -1.715  0.9789 -0.1088 -1.1549
  699MOL0     H94334   8.942   4.941  -1.568 -1.2231 -0.2221 -0.2700
  699MOL0     H94335   9.062   4.735  -1.768  0.3544 -1.3176  0.5202
  699MOL0     H94336   9.125   4.769  -1.607 -2.4864 -0.3417  0.7116
  699MOL0     H94337   9.143   5.013  -1.671 -1.0363 -1.1759  3.4024
  699MOL0     H94338   9.102   4.971  -1.840 -1.3650 -1.5960  0.6179
  699MOL0     H94339   9.341   4.872  -1.663 -0.9726  2.3869  0.3374
  699MOL0     H94340   9.311   4.802  -1.826 -1.0238 -1.1493  0.4897
  699MOL0     H94341   9.328   5.109  -1.779  0.5186  1.6097 -2.7043
  699MOL0     H94342   9.348   5.024  -1.933 -2.6971  0.4263 -0.3535
  699MOL0     H94343   9.523   5.042  -1.684  2.2223 -1.2954 -0.4401
  699MOL0     H94344   9.558   4.922  -1.818  1.8541  0.0260  0.4761
  699MOL0     H94345   8.460   4.877  -1.558  0.2218 -0.5943 -2.8458
  699MOL0     H94346   8.229   4.849  -1.560  0.3162 -0.5212  0.8535
  699MOL0     H94347   7.845   4.630  -1.766 -2.9557  1.0287 -0.8639
  699MOL0     H94348   7.615   4.557  -1.757 -0.0373 -2.3279  0.5122
  699MOL0     H94349   6.868   4.124  -0.034 -2.5767 -0.9869  1.4435
  699MOL0     H94350   6.703   4.249   0.105  0.5459  1.7430 -3.1939
  699MOL0     H94351   6.675   4.779   0.299 -1.8582  1.4449 -1.1944
  699MOL0     H94352   6.506   4.889   0.433  1.4100 -0.8181  1.6017
  699MOL0     H94353   6.158   4.662   0.650  1.5287 -0.4868  0.3553
  699MOL0     H94354   6.114   4.707   0.486 -0.3119  1.9451  0.0555
  699MOL0     H94355   6.089   4.951   0.549 -0.6405  2.1238  0.8187
  699MOL0     H94356   6.135   4.902   0.721  0.8337  1.6064 -0.4287
  699MOL0     H94357   5.922   4.741   0.658 -2.1347  0.8275 -0.2141
  699MOL0     H94358   5.878   4.882   0.555 -3.2792 -2.6033  0.6717
  699MOL0     H94359   5.930   4.884   0.865  0.1154  0.6161 -0.1620
  699MOL0     H94360   5.907   5.032   0.762  0.4492  0.0247  1.4405
  699MOL0     H94361   5.529   4.872   0.858 -0.0818 -0.9047  0.7864
  699MOL0     H94362   6.294   4.526   0.501 -1.6179 -0.1788 -2.8681
  699MOL0     H94363   6.543   4.307   0.387  1.1841 -1.3017 -1.9102
  699MOL0     H94364   6.360   4.345   0.378  0.9742  0.1107  1.5243
  699MOL0     H94365   6.461   4.353   0.241 -1.2625  0.1238 -0.3299
  700MOL0     O94366   0.735   2.353   2.514  0.0556 -0.0055 -0.0177
  700MOL0     C94367   0.741   2.478   2.488  0.0720  0.2144  0.0406
  700MOL0     O94368   0.856   2.560   2.471  0.0794 -0.4829  0.5506
  700MOL0     C94369   0.978   2.506   2.450 -0.1864 -0.1711  0.1531
  700MOL0     C94370   1.068   2.584   2.380 -0.1661  0.0775  0.4330
  700MOL0     C94371   1.202   2.557   2.363  0.0353  0.2570  0.4920
  700MOL0     C94372   1.249   2.430   2.402 -0.4823  0.0832  0.5859
  700MOL0     O94373   1.385   2.399   2.394 -0.2896 -0.3114  0.2906
  700MOL0     C94374   1.466   2.453   2.290  1.2082  0.8051 -0.8942
  700MOL0     C94375   1.606   2.377   2.291  0.4840  0.5054 -0.9094
  700MOL0     C94376   1.709   2.440   2.195  0.3359  0.3493  0.2905
  700MOL0     C94377   1.843   2.361   2.202 -0.1546  0.5006  0.0762
  700MOL0     C94378   1.941   2.410   2.105  0.0624 -0.9865  0.0481
  700MOL0     C94379   2.080   2.343   2.144 -0.4148 -0.4448  0.0983
  700MOL0     C94380   2.185   2.384   2.034 -0.0391  0.1982 -0.7366
  700MOL0     C94381   2.315   2.297   2.063 -0.5863  0.0974 -1.2363
  700MOL0     N94382   2.417   2.343   1.960  0.2275  0.4092  0.8437
  700MOL0     C94383   2.501   2.449   1.981  0.5887 -0.4122  0.4884
  700MOL0     C94384   2.569   2.451   1.865 -0.6598  0.0642 -1.3152
  700MOL0     C94385   2.689   2.533   1.834 -0.3693 -0.0839  0.3980
  700MOL0     C94386   2.660   2.675   1.791  0.9165 -0.3006 -0.1120
  700MOL0     C94387   2.616   2.685   1.640  0.1376  0.2896 -1.0499
  700MOL0     C94388   2.612   2.840   1.609 -0.3470 -0.6619 -0.6487
  700MOL0     O94389   2.537   2.924   1.705 -0.5025  0.4888  0.3179
  700MOL0     C94390   2.406   2.940   1.684 -0.5832  0.0305  0.0899
  700MOL0     C94391   2.329   2.915   1.564  1.3136 -0.7844  0.3689
  700MOL0     C94392   2.184   2.950   1.560 -1.0120  0.2554 -0.4307
  700MOL0     C94393   2.120   2.999   1.678  0.7096  0.8807  0.6024
  700MOL0     C94394   1.971   3.027   1.673 -0.6225 -0.0102 -0.5975
  700MOL0     O94395   1.904   3.008   1.564 -0.3456 -0.3098  0.2152
  700MOL0     C94396   1.769   3.034   1.563 -0.9454 -0.8872  0.2499
  700MOL0     C94397   1.729   3.141   1.483 -0.9252 -0.3511 -0.3621
  700MOL0     C94398   1.584   3.165   1.481  0.4540 -0.4222 -0.6614
  700MOL0     C94399   1.490   3.081   1.543 -0.2572 -0.2644 -1.0713
  700MOL0     O94400   1.354   3.111   1.524 -0.0326 -0.7229 -0.1838
  700MOL0     C94401   1.260   3.036   1.592  0.2847  0.3865 -0.2878
  700MOL0     C94402   1.129   3.109   1.574  0.3225 -0.0355 -0.0552
  700MOL0     C94403   1.025   3.041   1.668 -0.2924 -0.2236 -0.6884
  700MOL0     C94404   1.030   3.100   1.807 -1.2929 -0.5069 -0.2828
  700MOL0     C94405   0.894   3.118   1.869 -0.2508  0.5893 -0.6166
  700MOL0     C94406   0.843   3.255   1.843  0.7454 -0.2315 -0.7246
  700MOL0     C94407   0.696   3.250   1.881 -0.0164  0.2274 -0.4458
  700MOL0     C94408   0.617   3.374   1.821 -0.1406  0.2907 -0.2015
  700MOL0    Cl94409   0.461   3.390   1.893  0.1914  0.8232  0.5110
  700MOL0     C94410   1.536   2.981   1.625 -0.2617 -0.8072 -0.3303
  700MOL0     C94411   1.674   2.961   1.634  0.0146 -0.5868  0.3020
  700MOL0     O94412   1.921   3.058   1.783  0.0953  0.4902  0.2362
  700MOL0     C94413   2.201   3.022   1.792 -0.1654 -0.1655  0.4028
  700MOL0     C94414   2.335   2.986   1.792  0.6187 -0.4278  0.8831
  700MOL0     N94415   2.515   2.369   1.778 -0.0198 -0.3322  0.3617
  700MOL0     N94416   2.420   2.302   1.827  0.4773  0.0283 -0.7463
  700MOL0     C94417   1.158   2.338   2.454  0.1033  0.2092 -0.0442
  700MOL0     C94418   1.027   2.374   2.473  0.6845  1.2775  1.5675
  700MOL0     C94419   0.618   2.552   2.487 -0.2323 -0.0595 -0.3001
  700MOL0     C94420   0.614   2.661   2.576  0.1997  0.9168 -0.7218
  700MOL0     C94421   0.494   2.734   2.600 -0.3248  0.1118 -0.6653
  700MOL0     C94422   0.375   2.709   2.528 -0.6624  0.0477 -0.3969
  700MOL0     O94423   0.251   2.774   2.528 -0.1949 -0.7740  0.7414
  700MOL0     C94424   0.251   2.900   2.609  0.0645 -0.2165  0.2213
  700MOL0     C94425   0.312   3.020   2.539 -1.2852 -1.1250 -0.2173
  700MOL0     C94426   0.290   3.147   2.617 -0.1111 -0.5745  0.1373
  700MOL0     C94427   0.405   3.168   2.711 -0.0817  0.5818  0.1091
  700MOL0     C94428   0.506   3.267   2.660 -0.2584  0.0151 -0.5038
  700MOL0     C94429   0.595   3.334   2.620 -0.1658  0.1285  0.1484
  700MOL0     C94430   0.386   2.612   2.430 -0.0532  0.7093 -0.0088
  700MOL0     C94431   0.504   2.533   2.413 -0.6150  0.2605  0.8451
  700MOL0     C94432   0.508   2.451   2.284  0.1283 -0.0495  0.2826
  700MOL0     H94433   1.038   2.684   2.350  0.1266 -0.0722 -0.3948
  700MOL0     H94434   1.258   2.626   2.300  0.5041 -1.5344 -1.1563
  700MOL0     H94435   1.425   2.454   2.189 -0.3968  1.5510 -0.2760
  700MOL0     H94436   1.482   2.558   2.315 -2.2973  1.3150 -0.1904
  700MOL0     H94437   1.592   2.273   2.262 -1.3162 -0.1899  2.0466
  700MOL0     H94438   1.636   2.368   2.395 -0.7437 -0.2201 -0.5955
  700MOL0     H94439   1.734   2.541   2.229  1.2736 -0.3091  1.6456
  700MOL0     H94440   1.670   2.437   2.092 -1.0060  0.0237  0.7917
  700MOL0     H94441   1.871   2.394   2.303 -1.0016  2.0689 -0.1556
  700MOL0     H94442   1.833   2.253   2.195 -2.6997  0.6581  0.1752
  700MOL0     H94443   1.920   2.388   2.000  3.1462  1.0982 -1.1264
  700MOL0     H94444   1.949   2.518   2.121  0.4663 -1.1697  1.2054
  700MOL0     H94445   2.109   2.380   2.243 -2.0925  1.1416  0.0532
  700MOL0     H94446   2.060   2.235   2.138 -2.9609 -0.0473  0.2697
  700MOL0     H94447   2.199   2.492   2.039 -3.0176  0.6124  1.8875
  700MOL0     H94448   2.141   2.359   1.937  0.1145  1.0566 -1.0368
  700MOL0     H94449   2.348   2.322   2.165 -1.5482  0.5636 -1.0241
  700MOL0     H94450   2.305   2.191   2.040  2.6704 -0.8160  0.8219
  700MOL0     H94451   2.508   2.514   2.067 -0.5139 -2.6409  2.3590
  700MOL0     H94452   2.747   2.538   1.927  0.7027 -0.0543 -0.2534
  700MOL0     H94453   2.740   2.488   1.749  3.3006  2.7021  0.8388
  700MOL0     H94454   2.586   2.722   1.856 -0.2397 -1.1756 -0.7573
  700MOL0     H94455   2.752   2.731   1.810 -1.5463  3.3274  2.6203
  700MOL0     H94456   2.512   2.656   1.624 -0.0873  2.0453 -3.1577
  700MOL0     H94457   2.681   2.632   1.569  0.3854 -0.2456 -0.4347
  700MOL0     H94458   2.568   2.834   1.509 -1.1515 -1.0017 -0.2853
  700MOL0     H94459   2.709   2.887   1.592 -0.1349 -1.2041 -0.9602
  700MOL0     H94460   2.377   2.878   1.473  0.0336  0.5530 -0.9061
  700MOL0     H94461   2.126   2.929   1.471  1.8811 -0.8691 -2.1966
  700MOL0     H94462   1.799   3.196   1.421  0.4689 -0.7131  0.8466
  700MOL0     H94463   1.547   3.251   1.427 -1.6205 -1.2102 -0.6007
  700MOL0     H94464   1.239   2.934   1.557 -1.7189  0.6706 -0.0459
  700MOL0     H94465   1.281   3.050   1.698 -1.5769 -0.8794  0.3127
  700MOL0     H94466   1.137   3.216   1.596  1.5769 -0.1287  0.0147
  700MOL0     H94467   1.090   3.110   1.472 -0.2138  0.3211  0.1494
  700MOL0     H94468   0.925   3.056   1.626  1.1188  1.5272 -3.7940
  700MOL0     H94469   1.051   2.935   1.676 -0.0511 -0.1388 -0.3506
  700MOL0     H94470   1.081   3.197   1.812  0.6613 -1.4249 -1.3940
  700MOL0     H94471   1.093   3.032   1.865  1.3385  1.2372 -0.8808
  700MOL0     H94472   0.891   3.089   1.975 -0.9110 -1.6632 -1.1768
  700MOL0     H94473   0.824   3.048   1.821 -1.8327  0.1111  2.1425
  700MOL0     H94474   0.907   3.323   1.900 -1.4124  1.3933 -0.1444
  700MOL0     H94475   0.858   3.276   1.737  1.6513 -2.5832 -1.1305
  700MOL0     H94476   0.698   3.258   1.990  1.6338  0.2080 -0.4419
  700MOL0     H94477   0.646   3.158   1.848 -0.4043  0.1334  0.3828
  700MOL0     H94478   0.670   3.468   1.837  1.7372 -0.6861 -0.3490
  700MOL0     H94479   0.608   3.356   1.713  1.3387  1.2366 -0.5030
  700MOL0     H94480   1.466   2.913   1.672  0.0121 -0.1796  1.0422
  700MOL0     H94481   1.702   2.885   1.707 -2.7989 -4.0662 -1.8783
  700MOL0     H94482   2.169   3.060   1.888  1.8872 -0.1484  1.1326
  700MOL0     H94483   2.386   3.001   1.887 -0.5225 -0.7645  1.5627
  700MOL0     H94484   1.204   2.245   2.485 -1.6234 -0.3974  0.8376
  700MOL0     H94485   0.962   2.294   2.507 -0.3165  2.4512  2.5061
  700MOL0     H94486   0.689   2.679   2.652  0.9411 -1.7044 -0.7388
  700MOL0     H94487   0.497   2.797   2.688  1.7145  0.1611 -0.7337
  700MOL0     H94488   0.302   2.877   2.702 -0.1130 -1.5867  0.0009
  700MOL0     H94489   0.148   2.932   2.627 -1.1271 -3.1125 -0.8325
  700MOL0     H94490   0.265   3.021   2.440 -1.5988 -1.0300 -0.0688
  700MOL0     H94491   0.420   3.008   2.530 -1.3079 -2.6404  1.1120
  700MOL0     H94492   0.194   3.152   2.669 -0.5851  3.0239 -0.8173
  700MOL0     H94493   0.282   3.234   2.551 -3.8807 -1.7841 -1.2864
  700MOL0     H94494   0.372   3.211   2.806  0.9335 -0.1753  0.8399
  700MOL0     H94495   0.449   3.071   2.734 -0.3836  0.6825  1.1800
  700MOL0     H94496   0.670   3.395   2.574 -0.5286 -0.3718 -1.1713
  700MOL0     H94497   0.309   2.594   2.356 -0.6316 -2.4307  1.1728
  700MOL0     H94498   0.458   2.497   2.198 -1.3838 -0.5975  0.8183
  700MOL0     H94499   0.605   2.415   2.252  0.3553 -1.1963  2.1088
  700MOL0     H94500   0.453   2.361   2.313 -0.7637 -0.3387 -2.0977
  701MOL0     O94501   4.139   6.367   1.361  0.2699  0.1043 -0.0396
  701MOL0     C94502   4.217   6.424   1.428 -0.5021 -0.1601  0.1373
  701MOL0     O94503   4.275   6.373   1.545 -0.1159 -0.5835 -0.2830
  701MOL0     C94504   4.244   6.242   1.586 -0.0061  0.3005 -0.3710
  701MOL0     C94505   4.341   6.144   1.583  0.5827  0.1218 -0.0013
  701MOL0     C94506   4.307   6.009   1.608 -0.0783  0.3436  0.2157
  701MOL0     C94507   4.173   5.969   1.644  0.7647  0.1636  0.3665
  701MOL0     O94508   4.148   5.835   1.673 -0.6851  0.3421  0.3676
  701MOL0     C94509   4.077   5.774   1.566  0.6622  0.4130  0.9134
  701MOL0     C94510   3.917   5.768   1.586  0.0769 -0.2228  0.2271
  701MOL0     C94511   3.888   5.676   1.709 -0.4209 -0.0494 -0.3919
  701MOL0     C94512   3.742   5.696   1.755 -0.7866  1.4556  0.2679
  701MOL0     C94513   3.684   5.581   1.854 -0.7442  0.3743  0.6011
  701MOL0     C94514   3.550   5.621   1.894 -0.0248 -0.9458 -0.1148
  701MOL0     C94515   3.488   5.497   1.953  0.8593 -0.6258 -0.7594
  701MOL0     C94516   3.356   5.533   2.027  0.3644 -0.0843  0.0371
  701MOL0     N94517   3.283   5.410   2.049 -0.6947  0.2426 -0.0497
  701MOL0     C94518   3.190   5.363   1.961  0.0782  0.2709 -0.2975
  701MOL0     C94519   3.140   5.247   2.025  0.2038 -0.9225 -0.5160
  701MOL0     C94520   3.038   5.165   1.958  0.3037  0.5236  1.0171
  701MOL0     C94521   2.898   5.196   2.014  0.7932 -0.2224  0.1497
  701MOL0     C94522   2.828   5.312   1.940 -0.0281 -0.1126 -0.2384
  701MOL0     C94523   2.686   5.332   2.001  0.7828 -0.4081 -0.5581
  701MOL0     O94524   2.602   5.212   1.984 -0.4935  0.1270  0.0885
  701MOL0     C94525   2.463   5.228   1.991 -0.1363 -0.1108 -0.4207
  701MOL0     C94526   2.392   5.118   1.943  0.2728  0.2888 -0.3402
  701MOL0     C94527   2.252   5.120   1.930 -0.7967 -1.2210 -0.0629
  701MOL0     C94528   2.172   5.234   1.956 -0.0570 -0.5028  0.5432
  701MOL0     C94529   2.029   5.231   1.929 -0.3216 -0.6622  0.8580
  701MOL0     O94530   1.991   5.146   1.824  0.1995  0.6943  0.7950
  701MOL0     C94531   1.854   5.131   1.801  0.9234 -0.1381 -0.2086
  701MOL0     C94532   1.811   5.116   1.670  0.5161  0.4974 -0.4240
  701MOL0     C94533   1.677   5.102   1.633  0.7964  0.1667 -0.2028
  701MOL0     C94534   1.573   5.113   1.733 -0.6310 -0.0824 -0.0091
  701MOL0     O94535   1.442   5.103   1.710 -0.1178 -0.2479  0.2343
  701MOL0     C94536   1.382   5.080   1.583  0.0353 -0.6428  0.2167
  701MOL0     C94537   1.391   4.940   1.522  0.0384  0.3705 -0.0251
  701MOL0     C94538   1.349   4.833   1.625 -0.4196  0.1659  0.8116
  701MOL0     C94539   1.336   4.688   1.563  0.7819  0.1862  0.0484
  701MOL0     C94540   1.209   4.616   1.613  0.6451  0.4025 -0.2533
  701MOL0     C94541   1.216   4.596   1.768 -0.3406  0.0150 -0.4419
  701MOL0     C94542   1.075   4.565   1.813  0.8350 -0.4236 -0.1782
  701MOL0     C94543   1.086   4.451   1.921  0.1310  0.7587 -0.2722
  701MOL0    Cl94544   1.134   4.530   2.073 -0.1511 -0.0823  0.3537
  701MOL0     C94545   1.612   5.124   1.862 -0.1167 -0.1375  0.1906
  701MOL0     C94546   1.749   5.119   1.898 -0.0135 -0.4030 -0.1735
  701MOL0     O94547   1.960   5.306   1.990  0.7231 -0.2148  0.1434
  701MOL0     C94548   2.248   5.345   2.008 -0.3987 -0.2740  0.4193
  701MOL0     C94549   2.384   5.336   2.015 -0.6359 -0.7443 -0.7133
  701MOL0     N94550   3.212   5.229   2.143 -1.3704 -0.8569  0.1901
  701MOL0     N94551   3.284   5.340   2.167  0.1349  0.3103 -0.0501
  701MOL0     C94552   4.075   6.069   1.648  0.5076  0.1480 -0.0479
  701MOL0     C94553   4.112   6.197   1.616  0.4677 -0.5534  0.8245
  701MOL0     C94554   4.253   6.560   1.383 -0.6254  0.3226  0.1741
  701MOL0     C94555   4.178   6.625   1.290  0.2902 -0.1548  0.2947
  701MOL0     C94556   4.195   6.760   1.258 -0.1621  0.4466  0.3842
  701MOL0     C94557   4.303   6.829   1.308 -0.1145 -0.9178 -0.3948
  701MOL0     O94558   4.331   6.962   1.278  0.2005 -0.0393  0.2483
  701MOL0     C94559   4.267   7.038   1.165  0.0932 -0.3434 -0.5473
  701MOL0     C94560   4.357   7.043   1.038  0.3134 -0.2395  0.1858
  701MOL0     C94561   4.303   6.912   0.971 -1.0437  0.2294  0.7112
  701MOL0     C94562   4.300   6.936   0.811 -0.1326  0.5132 -0.5243
  701MOL0     C94563   4.178   7.013   0.781  0.5551 -0.0213  0.0958
  701MOL0     C94564   4.069   7.068   0.751  0.3772 -0.3463  0.0878
  701MOL0     C94565   4.378   6.772   1.407 -0.2333 -0.5557  0.4137
  701MOL0     C94566   4.360   6.639   1.438  0.6097 -0.0091  0.4101
  701MOL0     C94567   4.465   6.570   1.513 -0.8740 -0.6366  0.4270
  701MOL0     H94568   4.443   6.156   1.549  0.2873 -2.5799 -2.1915
  701MOL0     H94569   4.385   5.938   1.584 -0.5358 -0.2374  0.4312
  701MOL0     H94570   4.099   5.816   1.467  0.3967  2.7363  1.7667
  701MOL0     H94571   4.112   5.671   1.561  0.9809  0.4443  2.0921
  701MOL0     H94572   3.875   5.727   1.494  0.8003  2.3519 -1.3500
  701MOL0     H94573   3.870   5.865   1.602 -0.8975 -0.4118 -1.2936
  701MOL0     H94574   3.952   5.708   1.792  1.8959 -2.9373 -0.8980
  701MOL0     H94575   3.906   5.572   1.680  1.8964  0.4924 -1.0982
  701MOL0     H94576   3.734   5.794   1.802  0.2684  0.8665  1.7565
  701MOL0     H94577   3.677   5.687   1.668 -0.6097 -1.8369  0.3512
  701MOL0     H94578   3.690   5.490   1.793 -0.3580  0.2231  0.8621
  701MOL0     H94579   3.750   5.563   1.939  0.9919  2.9836 -0.0539
  701MOL0     H94580   3.556   5.709   1.959 -0.7780 -1.3255  0.4855
  701MOL0     H94581   3.498   5.637   1.800  2.8755 -5.1118 -2.7973
  701MOL0     H94582   3.544   5.449   2.034 -0.0328  1.2197  1.0528
  701MOL0     H94583   3.475   5.409   1.890  0.7322 -0.6780 -0.6610
  701MOL0     H94584   3.364   5.573   2.128 -0.0873 -3.3121  1.4592
  701MOL0     H94585   3.294   5.598   1.963 -0.3972 -0.8335 -0.0052
  701MOL0     H94586   3.162   5.408   1.866  0.8226  2.2985  0.3950
  701MOL0     H94587   3.042   5.174   1.849  1.2334 -0.9130  0.9023
  701MOL0     H94588   3.069   5.062   1.978  0.1720  0.2462 -0.1637
  701MOL0     H94589   2.837   5.106   2.011 -0.5061  0.6422 -0.4546
  701MOL0     H94590   2.909   5.222   2.120  1.5316  2.8075 -0.5668
  701MOL0     H94591   2.806   5.274   1.840  3.6646 -3.5134 -0.0172
  701MOL0     H94592   2.888   5.402   1.921 -0.4753 -0.3469 -3.2604
  701MOL0     H94593   2.641   5.417   1.950  5.5356  1.2624 -2.5075
  701MOL0     H94594   2.698   5.349   2.109 -1.0006  1.0450 -0.5554
  701MOL0     H94595   2.436   5.023   1.916  0.4502  0.9245 -2.4536
  701MOL0     H94596   2.216   5.018   1.927 -1.7480 -0.9028  0.1024
  701MOL0     H94597   1.882   5.121   1.588 -0.0201  1.0425 -0.8639
  701MOL0     H94598   1.644   5.095   1.530  0.5586 -0.1902 -0.1026
  701MOL0     H94599   1.277   5.108   1.601 -0.0585 -1.1703  0.4962
  701MOL0     H94600   1.414   5.156   1.511 -0.2559 -1.0079 -0.3092
  701MOL0     H94601   1.327   4.925   1.435 -1.1242 -0.3264  0.9149
  701MOL0     H94602   1.496   4.919   1.497  0.9267  4.5896 -0.6031
  701MOL0     H94603   1.426   4.840   1.703 -0.8726  2.3434  1.1178
  701MOL0     H94604   1.251   4.862   1.664 -1.4125 -2.0061  0.1025
  701MOL0     H94605   1.425   4.638   1.602  2.8354  5.2894  2.8855
  701MOL0     H94606   1.343   4.690   1.454  1.9401  2.2198  0.1042
  701MOL0     H94607   1.196   4.516   1.569  1.9811  0.3161 -0.4965
  701MOL0     H94608   1.122   4.679   1.591  0.9165  0.6432 -0.6538
  701MOL0     H94609   1.284   4.514   1.796 -0.9649 -0.1751  0.5925
  701MOL0     H94610   1.248   4.687   1.820 -1.2480  1.3416 -2.1276
  701MOL0     H94611   1.017   4.526   1.729  3.1714 -2.2768 -1.0597
  701MOL0     H94612   1.022   4.648   1.861  0.4636 -0.4906 -0.4649
  701MOL0     H94613   0.990   4.399   1.936  1.3394 -1.9223 -1.1722
  701MOL0     H94614   1.160   4.374   1.897  0.0022 -0.0229  1.5761
  701MOL0     H94615   1.545   5.120   1.948  0.3360  1.0723  0.6213
  701MOL0     H94616   1.783   5.106   2.000  0.6310 -0.9890 -0.4572
  701MOL0     H94617   2.185   5.425   2.045 -0.7005 -1.0681  1.6965
  701MOL0     H94618   2.436   5.420   2.061 -0.1071 -0.9278 -0.9671
  701MOL0     H94619   3.980   6.045   1.693  0.2953  0.9624 -0.0391
  701MOL0     H94620   4.033   6.271   1.617  1.9912  1.4612 -3.5985
  701MOL0     H94621   4.089   6.583   1.243  0.7289  0.3363 -1.0031
  701MOL0     H94622   4.126   6.803   1.186 -0.9455 -1.1815  0.1250
  701MOL0     H94623   4.261   7.141   1.201  1.3985 -0.5846  0.4371
  701MOL0     H94624   4.162   7.011   1.151 -0.0032  0.3337 -1.1849
  701MOL0     H94625   4.465   7.041   1.055 -0.0146 -0.6652  2.5805
  701MOL0     H94626   4.325   7.134   0.987 -1.0610 -0.4899  0.5597
  701MOL0     H94627   4.204   6.873   0.998 -1.8084 -1.0952 -3.2844
  701MOL0     H94628   4.371   6.828   0.989 -1.1280 -0.3395 -1.3249
  701MOL0     H94629   4.394   6.978   0.774  0.5191 -1.3425 -1.0936
  701MOL0     H94630   4.295   6.842   0.757  1.5930  1.0184 -1.6310
  701MOL0     H94631   3.970   7.100   0.725  0.5840 -0.5084 -0.9559
  701MOL0     H94632   4.465   6.823   1.447 -1.7112  2.3238  0.1790
  701MOL0     H94633   4.496   6.475   1.469  0.2311  0.8827 -2.2830
  701MOL0     H94634   4.553   6.635   1.509 -2.1745  1.1749 -1.7930
  701MOL0     H94635   4.441   6.549   1.618  0.3521  1.2784  1.1603
  702MOL0     O94636   7.677   4.737   1.766  0.3405 -0.7963 -0.6239
  702MOL0     C94637   7.591   4.831   1.766 -0.9093 -0.5205 -0.6968
  702MOL0     O94638   7.596   4.945   1.699 -0.2488  0.0213  0.2346
  702MOL0     C94639   7.706   4.978   1.624 -0.8165  0.1448 -0.3674
  702MOL0     C94640   7.829   5.007   1.685  0.0647 -0.5511  0.2078
  702MOL0     C94641   7.940   5.022   1.602  1.6701 -0.4832  0.6878
  702MOL0     C94642   7.930   5.027   1.467 -0.8090  1.0782  0.4622
  702MOL0     O94643   8.050   5.046   1.399 -0.4675 -0.0281 -0.2059
  702MOL0     C94644   8.049   5.057   1.259 -0.4557  0.2445  0.1383
  702MOL0     C94645   8.189   5.090   1.209  0.2059 -0.0111 -0.0334
  702MOL0     C94646   8.279   4.968   1.237 -0.5380 -0.0128  0.0020
  702MOL0     C94647   8.405   4.975   1.146  0.0823  0.2737 -0.8287
  702MOL0     C94648   8.519   4.889   1.203 -0.5619  0.2533  0.7008
  702MOL0     C94649   8.632   4.876   1.109 -0.4893  0.7024 -0.1855
  702MOL0     C94650   8.691   5.003   1.078  0.3190 -0.3506 -0.1115
  702MOL0     C94651   8.807   4.982   0.988 -0.5470  1.0741  0.8423
  702MOL0     N94652   8.892   4.876   1.043  0.5114  0.0845 -0.4364
  702MOL0     C94653   8.987   4.894   1.151  0.6382  0.2291  0.0279
  702MOL0     C94654   9.034   4.768   1.175 -0.9993  0.4047 -0.2965
  702MOL0     C94655   9.136   4.736   1.276  0.1108 -0.5211 -0.3230
  702MOL0     C94656   9.273   4.730   1.219  1.0649 -0.2423  0.1089
  702MOL0     C94657   9.357   4.858   1.211  1.3592  0.4299 -0.0372
  702MOL0     C94658   9.490   4.825   1.134  0.2765  0.0993  0.7489
  702MOL0     O94659   9.546   4.955   1.107  1.0150 -0.1106  0.1022
  702MOL0     C94660   9.659   4.964   1.023 -0.3632 -0.6490  0.2210
  702MOL0     C94661   9.753   4.869   0.986  0.1898 -0.6193  0.4783
  702MOL0     C94662   9.862   4.912   0.907 -0.8426 -0.7178  0.3534
  702MOL0     C94663   9.877   5.042   0.854  0.3834  0.5333  0.2271
  702MOL0     C94664   9.993   5.072   0.770 -0.6308 -0.0559 -0.8369
  702MOL0     O94665  10.052   4.969   0.715  0.1354  0.1362 -0.2450
  702MOL0     C94666  10.171   4.984   0.647 -0.6724 -0.1821 -0.3526
  702MOL0     C94667  10.190   4.962   0.510  0.3234 -0.3143  0.0892
  702MOL0     C94668  10.315   4.999   0.439  0.1631 -0.3915  0.2166
  702MOL0     C94669  10.416   5.058   0.509 -0.4377 -0.9961 -0.9762
  702MOL0     O94670  10.546   5.072   0.468  0.5166 -0.9950 -0.3591
  702MOL0     C94671  10.554   5.101   0.328  0.0589  0.0427 -0.1604
  702MOL0     C94672  10.603   4.972   0.262 -0.1748  0.2388  0.4057
  702MOL0     C94673  10.724   4.912   0.333 -0.4763 -0.3786 -0.1272
  702MOL0     C94674  10.792   4.802   0.258  0.3760  0.5207  0.7751
  702MOL0     C94675  10.930   4.780   0.311  0.1297  0.3542 -0.4226
  702MOL0     C94676  10.991   4.645   0.258 -0.5903  0.3840 -0.3134
  702MOL0     C94677  10.989   4.626   0.106  0.0436 -0.4822 -0.0821
  702MOL0     C94678  11.083   4.513   0.066  0.5608 -0.3018  0.3596
  702MOL0    Cl94679  11.036   4.357   0.132  0.2345 -0.6476  0.0787
  702MOL0     C94680  10.389   5.083   0.644  0.7026 -1.1606 -1.2548
  702MOL0     C94681  10.280   5.039   0.715  0.3786 -0.6590  0.4517
  702MOL0     O94682  10.038   5.191   0.762  0.8483  0.1642 -0.6201
  702MOL0     C94683   9.783   5.141   0.901  0.1717 -0.4072  0.3439
  702MOL0     C94684   9.679   5.099   0.986 -0.2432  0.6842 -0.4912
  702MOL0     N94685   8.982   4.687   1.076  0.5936  0.6250  0.1413
  702MOL0     N94686   8.897   4.752   1.001  0.0398 -0.0156  0.0056
  702MOL0     C94687   7.808   5.009   1.401  0.7239 -1.4062  0.3124
  702MOL0     C94688   7.698   4.996   1.486 -0.3638  0.3897  0.4541
  702MOL0     C94689   7.473   4.802   1.855 -0.4376 -0.1994 -1.1301
  702MOL0     C94690   7.440   4.669   1.906 -0.0569 -0.6391 -0.5401
  702MOL0     C94691   7.332   4.644   1.993 -0.5519  0.2051  0.0065
  702MOL0     C94692   7.241   4.747   2.018  0.4400  0.0952 -0.8121
  702MOL0     O94693   7.139   4.717   2.104  0.1641 -0.9400  0.7763
  702MOL0     C94694   7.027   4.803   2.124 -0.3173  0.1904  0.6940
  702MOL0     C94695   6.919   4.726   2.195  0.3934 -0.2081 -0.2690
  702MOL0     C94696   6.795   4.811   2.207 -0.3136 -0.4192  0.4958
  702MOL0     C94697   6.691   4.742   2.300 -0.3099 -0.4301  0.0284
  702MOL0     C94698   6.554   4.774   2.271  0.2794  0.3225 -0.1627
  702MOL0     C94699   6.435   4.798   2.249  0.5538 -0.6743  0.3938
  702MOL0     C94700   7.254   4.874   1.962 -0.2920  0.5917  0.2631
  702MOL0     C94701   7.377   4.906   1.885  0.5252 -0.2245 -0.5811
  702MOL0     C94702   7.398   5.049   1.853  0.1216 -0.4396  0.0363
  702MOL0     H94703   7.838   5.017   1.793 -0.8645 -0.9557  0.3361
  702MOL0     H94704   8.031   5.046   1.657  1.0080  3.3211  0.3648
  702MOL0     H94705   8.010   4.965   1.215  0.9793  0.7118 -2.2560
  702MOL0     H94706   7.983   5.138   1.226  0.8239  1.1695 -0.2022
  702MOL0     H94707   8.223   5.174   1.270  1.4579 -0.6322  0.1484
  702MOL0     H94708   8.185   5.116   1.103  0.0198 -2.0279 -0.5635
  702MOL0     H94709   8.228   4.873   1.220  0.5507 -0.4617 -0.8221
  702MOL0     H94710   8.315   4.966   1.341 -0.9145  2.5683  0.2580
  702MOL0     H94711   8.388   4.962   1.039  1.5602  1.2353 -1.2239
  702MOL0     H94712   8.443   5.078   1.147  0.3379  0.1872  0.0207
  702MOL0     H94713   8.561   4.939   1.291 -0.8636  2.8772 -0.5564
  702MOL0     H94714   8.479   4.790   1.227 -1.4727 -0.1777 -2.2780
  702MOL0     H94715   8.706   4.807   1.151  3.1837  1.8278 -4.0998
  702MOL0     H94716   8.607   4.828   1.013  3.9534 -2.1557 -0.2227
  702MOL0     H94717   8.722   5.045   1.174 -5.1893  1.3226  1.2569
  702MOL0     H94718   8.615   5.070   1.038 -0.2299 -0.7765  0.2098
  702MOL0     H94719   8.770   4.954   0.889  1.1205 -1.5763  0.8849
  702MOL0     H94720   8.869   5.066   0.958  1.4194 -1.0932 -1.6409
  702MOL0     H94721   9.010   4.993   1.187  0.8337  0.3309 -0.3669
  702MOL0     H94722   9.127   4.799   1.365 -0.1716 -2.3112  0.9790
  702MOL0     H94723   9.111   4.636   1.312  0.8955 -0.4770  0.3691
  702MOL0     H94724   9.325   4.661   1.286  0.7235 -0.7041 -0.0954
  702MOL0     H94725   9.258   4.680   1.123 -3.7293 -0.9285  0.9703
  702MOL0     H94726   9.383   4.891   1.312 -0.4677  1.9645 -0.0026
  702MOL0     H94727   9.305   4.931   1.148 -0.5505 -1.2747 -0.5392
  702MOL0     H94728   9.484   4.758   1.048 -1.6673 -0.9933  1.6678
  702MOL0     H94729   9.552   4.761   1.198  1.5723  1.3616  0.8048
  702MOL0     H94730   9.739   4.770   1.029 -0.9272 -0.1729  1.1976
  702MOL0     H94731   9.936   4.838   0.879  0.4078  1.0440 -1.2495
  702MOL0     H94732  10.104   4.917   0.462  0.9434 -2.5524  0.9299
  702MOL0     H94733  10.337   4.976   0.335  1.1011 -2.2585  0.7890
  702MOL0     H94734  10.466   5.145   0.280  0.5806 -0.5704 -1.7296
  702MOL0     H94735  10.627   5.183   0.325  1.8580 -1.3468  1.9788
  702MOL0     H94736  10.529   4.892   0.269  0.5502 -0.6031 -0.9990
  702MOL0     H94737  10.626   4.978   0.155 -0.2699 -0.4130  0.3404
  702MOL0     H94738  10.787   5.001   0.345 -0.0498 -0.4925 -1.3910
  702MOL0     H94739  10.715   4.880   0.437  3.3721  0.4004  0.5936
  702MOL0     H94740  10.790   4.821   0.150 -0.5968 -1.8467  0.3157
  702MOL0     H94741  10.739   4.708   0.271 -0.1472  0.2563 -2.3617
  702MOL0     H94742  10.936   4.762   0.419  1.6654 -1.8937 -0.8174
  702MOL0     H94743  10.998   4.863   0.290  1.8165 -0.1594  2.3916
  702MOL0     H94744  11.089   4.634   0.306 -1.8508 -0.3210  2.2883
  702MOL0     H94745  10.937   4.552   0.277  1.4379 -0.8163 -0.0539
  702MOL0     H94746  11.025   4.720   0.064  1.7000 -0.6726  0.7991
  702MOL0     H94747  10.883   4.616   0.082 -0.2499 -1.6120  1.4709
  702MOL0     H94748  11.079   4.511  -0.044 -0.6984 -1.2930  0.3987
  702MOL0     H94749  11.186   4.532   0.097  1.2213 -1.9719 -0.6444
  702MOL0     H94750  10.469   5.137   0.694  0.8616 -0.1502 -2.5471
  702MOL0     H94751  10.273   5.064   0.820 -0.8932 -1.3333  0.5441
  702MOL0     H94752   9.789   5.245   0.871  1.0027 -0.6987 -0.5495
  702MOL0     H94753   9.598   5.168   1.010 -0.7685  0.7081 -2.1390
  702MOL0     H94754   7.817   5.005   1.292 -1.7732  1.3428 -0.1168
  702MOL0     H94755   7.605   4.977   1.434  0.9872  0.4261 -2.1149
  702MOL0     H94756   7.508   4.585   1.894  0.3707 -0.5803  1.1406
  702MOL0     H94757   7.321   4.543   2.033 -1.9110  0.5150  0.4834
  702MOL0     H94758   6.992   4.839   2.028  2.6017  0.6498 -0.3057
  702MOL0     H94759   7.058   4.885   2.190 -1.6417  0.7000  0.7002
  702MOL0     H94760   6.962   4.708   2.294 -0.4119 -1.7982 -0.1699
  702MOL0     H94761   6.913   4.627   2.147  0.0793 -0.2559 -0.1345
  702MOL0     H94762   6.740   4.815   2.112 -0.3369 -0.2012  0.5178
  702MOL0     H94763   6.813   4.917   2.230 -1.2426 -0.5114  1.7850
  702MOL0     H94764   6.707   4.635   2.283  0.6221 -0.3277  0.1982
  702MOL0     H94765   6.715   4.767   2.403  0.9421 -0.5301 -0.2254
  702MOL0     H94766   6.331   4.807   2.227  0.8277  1.6990 -0.1644
  702MOL0     H94767   7.178   4.948   1.986 -1.9756 -1.7104  2.5504
  702MOL0     H94768   7.344   5.111   1.925  0.9990 -1.3143  1.4921
  702MOL0     H94769   7.502   5.074   1.873 -0.1035  0.9692 -0.4060
  702MOL0     H94770   7.358   5.062   1.752  0.7006 -1.2365 -0.3007
  703MOL0     O94771   8.220   4.371   4.255  0.1532 -0.0638  0.0716
  703MOL0     C94772   8.171   4.442   4.342 -0.3106 -0.0905 -0.0327
  703MOL0     O94773   8.222   4.474   4.464 -0.0682  0.2891  0.6850
  703MOL0     C94774   8.335   4.395   4.505 -0.0275 -0.2395  0.3021
  703MOL0     C94775   8.291   4.284   4.581  0.0406  0.0741 -0.0565
  703MOL0     C94776   8.384   4.198   4.635  0.4235 -0.2455  0.2247
  703MOL0     C94777   8.520   4.221   4.606  0.3495  0.2240 -0.2104
  703MOL0     O94778   8.606   4.142   4.666  0.0473 -0.6819 -0.2847
  703MOL0     C94779   8.742   4.165   4.678  0.0846  0.7483 -0.5432
  703MOL0     C94780   8.793   4.034   4.739 -0.0909  0.1881 -0.6577
  703MOL0     C94781   8.941   4.060   4.776  0.5803 -0.7496  0.1158
  703MOL0     C94782   9.003   3.946   4.857  0.1373 -0.3586  0.6069
  703MOL0     C94783   9.151   3.967   4.882 -0.0694  0.3941  0.2714
  703MOL0     C94784   9.200   3.871   4.988  0.9759  0.0131  0.6076
  703MOL0     C94785   9.353   3.878   4.995 -0.3002  0.0988 -0.0892
  703MOL0     C94786   9.421   3.989   5.072 -0.0540 -1.2637 -0.3578
  703MOL0     N94787   9.350   4.114   5.076 -0.5120 -0.1480 -0.0434
  703MOL0     C94788   9.271   4.161   5.187 -0.3983 -0.4502  0.2118
  703MOL0     C94789   9.272   4.298   5.160 -0.6225 -0.3580 -0.2697
  703MOL0     C94790   9.205   4.395   5.257  0.0052  0.4507 -0.0972
  703MOL0     C94791   9.217   4.363   5.406  0.3871  0.4281 -0.3121
  703MOL0     C94792   9.298   4.471   5.488 -0.2242  0.3956 -0.4826
  703MOL0     C94793   9.447   4.476   5.455  0.4591 -0.6135 -0.0298
  703MOL0     O94794   9.503   4.352   5.455  0.7122  0.9424  0.2940
  703MOL0     C94795   9.605   4.326   5.541  0.2180 -0.1775 -0.4705
  703MOL0     C94796   9.672   4.405   5.630  0.1135 -0.4737 -0.1892
  703MOL0     C94797   9.776   4.356   5.713  0.4226  0.1574 -0.2768
  703MOL0     C94798   9.820   4.229   5.696  0.0446  0.7564 -0.3446
  703MOL0     C94799   9.930   4.170   5.776  0.0832 -0.1816 -0.5671
  703MOL0     O94800   9.979   4.243   5.880 -0.0469 -0.3251 -0.3770
  703MOL0     C94801  10.106   4.217   5.931 -0.0216 -0.1343  0.4741
  703MOL0     C94802  10.195   4.331   5.932  0.3574 -0.8411 -0.9986
  703MOL0     C94803  10.324   4.321   5.984  0.5713  0.4227 -1.1483
  703MOL0     C94804  10.375   4.207   6.042  0.3303 -0.8966  0.4308
  703MOL0     O94805  10.503   4.210   6.088  0.1951  0.4564  0.0820
  703MOL0     C94806  10.563   4.080   6.130  0.1331 -0.0481 -0.1068
  703MOL0     C94807  10.708   4.107   6.170  0.2956  0.1239 -0.0459
  703MOL0     C94808  10.727   4.122   6.321 -0.9785  0.2598 -0.3952
  703MOL0     C94809  10.880   4.113   6.350 -0.5478  0.6719  0.6536
  703MOL0     C94810  10.908   4.133   6.494  0.1366  0.0672 -0.3410
  703MOL0     C94811  11.052   4.096   6.531  0.4654 -0.7174  0.1591
  703MOL0     C94812  11.085   4.140   6.669 -0.9341 -0.9313 -0.5738
  703MOL0     C94813  11.233   4.099   6.710 -0.0906 -0.1001  0.1573
  703MOL0    Cl94814  11.357   4.142   6.591  0.2410  0.2020  0.2829
  703MOL0     C94815  10.283   4.096   6.036  0.7219 -0.3161 -0.0577
  703MOL0     C94816  10.153   4.093   5.978 -0.8944 -0.3397 -1.2660
  703MOL0     O94817   9.986   4.062   5.748  0.2758  0.4421  0.1542
  703MOL0     C94818   9.759   4.151   5.598 -0.0629  0.6194 -0.2137
  703MOL0     C94819   9.652   4.193   5.525 -0.1966 -1.7380  0.3098
  703MOL0     N94820   9.335   4.329   5.045  0.0587  0.7004  0.8406
  703MOL0     N94821   9.374   4.218   4.991 -0.6383  0.3485 -0.2205
  703MOL0     C94822   8.559   4.324   4.519 -0.1984 -0.5722 -0.2242
  703MOL0     C94823   8.468   4.414   4.474 -0.0918  0.3134  0.9128
  703MOL0     C94824   8.030   4.495   4.326 -0.0185 -0.3476 -0.7262
  703MOL0     C94825   7.969   4.549   4.448 -0.1363 -0.9676  0.2415
  703MOL0     C94826   7.831   4.575   4.451  0.3578 -0.1175 -0.7711
  703MOL0     C94827   7.759   4.570   4.329  0.3077 -0.1928 -0.7985
  703MOL0     O94828   7.625   4.600   4.319 -0.1595 -0.7595 -0.1016
  703MOL0     C94829   7.540   4.588   4.434  0.5371 -0.9547  0.3171
  703MOL0     C94830   7.394   4.569   4.383 -0.2584 -0.1887 -0.2936
  703MOL0     C94831   7.338   4.669   4.277  0.3338 -0.8119 -0.2972
  703MOL0     C94832   7.201   4.625   4.221  0.2284  0.6395  0.5815
  703MOL0     C94833   7.210   4.501   4.136 -0.0976 -0.2645 -0.1257
  703MOL0     C94834   7.228   4.405   4.058  0.4533 -0.0666 -0.1239
  703MOL0     C94835   7.824   4.536   4.208  0.6663  0.4703  0.0046
  703MOL0     C94836   7.959   4.500   4.206 -0.0178 -0.1657  0.6211
  703MOL0     C94837   8.013   4.465   4.074 -0.5045 -0.3276 -0.2966
  703MOL0     H94838   8.184   4.279   4.599 -0.0120  1.5444  0.1458
  703MOL0     H94839   8.356   4.112   4.696 -1.0242 -0.9661 -1.3523
  703MOL0     H94840   8.781   4.176   4.576 -1.9856  0.3350 -1.4340
  703MOL0     H94841   8.761   4.254   4.738  0.7591 -0.9387  1.8935
  703MOL0     H94842   8.792   3.956   4.662  1.4715 -1.1379  0.5802
  703MOL0     H94843   8.739   4.000   4.828  1.8211 -2.7941 -0.4918
  703MOL0     H94844   8.958   4.147   4.839 -1.4651  0.4207 -0.8468
  703MOL0     H94845   9.005   4.082   4.690  0.9089 -0.0910  0.5196
  703MOL0     H94846   8.947   3.944   4.952 -0.6473 -1.7244  0.1462
  703MOL0     H94847   8.989   3.846   4.815  4.0777 -1.6137  1.8937
  703MOL0     H94848   9.213   3.949   4.793  2.9786  3.1232  1.6071
  703MOL0     H94849   9.171   4.072   4.906 -0.4344  0.1626  1.6592
  703MOL0     H94850   9.170   3.899   5.090  0.4641 -2.1128  1.0880
  703MOL0     H94851   9.167   3.770   4.964  0.4373  0.2982  0.1096
  703MOL0     H94852   9.396   3.874   4.894  0.4636  0.8686  0.1963
  703MOL0     H94853   9.388   3.790   5.050  2.5417 -0.1005 -1.9902
  703MOL0     H94854   9.441   3.957   5.175 -1.1810  0.5021  0.4622
  703MOL0     H94855   9.526   3.996   5.046  0.5687 -1.9432  1.7235
  703MOL0     H94856   9.234   4.101   5.270 -0.5871 -1.7263 -0.7552
  703MOL0     H94857   9.235   4.498   5.236 -0.1006  0.7376  1.1313
  703MOL0     H94858   9.103   4.382   5.221 -0.4319 -0.1808  1.3059
  703MOL0     H94859   9.118   4.359   5.450  1.0433  2.0303  1.4282
  703MOL0     H94860   9.268   4.267   5.421  1.4593  1.0929  0.4827
  703MOL0     H94861   9.288   4.454   5.596 -4.4958  1.2841 -0.5491
  703MOL0     H94862   9.247   4.567   5.478 -0.6134  0.5172  2.1033
  703MOL0     H94863   9.497   4.537   5.530  1.1576  0.4398 -1.3150
  703MOL0     H94864   9.463   4.530   5.362 -0.3223  1.3680  0.9299
  703MOL0     H94865   9.651   4.511   5.643 -0.5018 -0.7510  1.3494
  703MOL0     H94866   9.817   4.424   5.787 -0.0380  1.1168 -0.8783
  703MOL0     H94867  10.150   4.425   5.905  0.2654 -0.0101  1.8211
  703MOL0     H94868  10.386   4.411   5.987  0.5244  0.4585  1.8570
  703MOL0     H94869  10.501   4.033   6.207 -0.8598 -0.5126 -1.1662
  703MOL0     H94870  10.567   4.013   6.043  1.3263  0.0666 -0.1583
  703MOL0     H94871  10.763   4.020   6.135  1.3318  0.9283 -0.4578
  703MOL0     H94872  10.749   4.197   6.125  4.7293  0.2771  3.6269
  703MOL0     H94873  10.693   4.220   6.359 -0.1925  0.9894 -1.5133
  703MOL0     H94874  10.674   4.048   6.382 -0.5545  0.7281  0.5647
  703MOL0     H94875  10.932   4.192   6.295  0.9966 -0.7570 -0.0008
  703MOL0     H94876  10.928   4.022   6.313  0.1487  1.2570  0.0820
  703MOL0     H94877  10.839   4.072   6.553  1.6486 -0.3852  1.0187
  703MOL0     H94878  10.896   4.237   6.527  0.4116 -0.0993  0.2888
  703MOL0     H94879  11.067   3.988   6.522  2.5339 -0.6246  1.6626
  703MOL0     H94880  11.124   4.138   6.461 -0.0361  1.0075  0.6394
  703MOL0     H94881  11.027   4.081   6.740 -2.6541  0.8465 -0.4151
  703MOL0     H94882  11.067   4.245   6.692 -3.2975 -1.5982  0.9624
  703MOL0     H94883  11.249   4.127   6.815  1.0193  2.2252 -0.5523
  703MOL0     H94884  11.225   3.990   6.711  1.3716 -0.2250 -0.0373
  703MOL0     H94885  10.298   4.007   6.096 -0.3478  0.6366  1.7013
  703MOL0     H94886  10.090   4.007   5.992  0.6551 -1.2893  0.2806
  703MOL0     H94887   9.797   4.051   5.578  1.6357  1.7473 -3.4932
  703MOL0     H94888   9.600   4.126   5.457 -2.4662 -2.2552  2.3941
  703MOL0     H94889   8.664   4.340   4.500 -0.0243  0.1045  1.1902
  703MOL0     H94890   8.490   4.496   4.406  1.7289  0.2058  1.3277
  703MOL0     H94891   8.026   4.557   4.540  0.0725 -1.6356  0.1761
  703MOL0     H94892   7.778   4.598   4.543  2.0946 -0.3393  0.3308
  703MOL0     H94893   7.548   4.678   4.495 -0.6832 -0.2555 -0.5152
  703MOL0     H94894   7.562   4.493   4.485 -1.3854 -1.4839  0.2642
  703MOL0     H94895   7.322   4.575   4.464 -2.1964 -1.5891 -1.8201
  703MOL0     H94896   7.397   4.470   4.337  2.1063 -0.7359  0.8952
  703MOL0     H94897   7.399   4.678   4.187 -1.4158 -4.1793 -1.9514
  703MOL0     H94898   7.315   4.765   4.325 -0.2456 -1.4199  0.6895
  703MOL0     H94899   7.131   4.599   4.300  1.3409  2.9307  2.4346
  703MOL0     H94900   7.152   4.702   4.160 -1.1755  0.1376  1.0429
  703MOL0     H94901   7.241   4.317   3.998 -0.9402 -0.5617  0.2544
  703MOL0     H94902   7.763   4.543   4.118 -0.9829 -0.2625  1.0287
  703MOL0     H94903   8.016   4.356   4.064  0.0154 -0.2531 -1.0495
  703MOL0     H94904   7.956   4.509   3.991 -1.4185  0.0165  0.4917
  703MOL0     H94905   8.112   4.510   4.064 -0.7496  0.4644  0.7426
  704MOL0     O94906   5.099   2.302   1.401  1.0157  0.5201 -0.3905
  704MOL0     C94907   5.052   2.262   1.507 -0.5020 -0.4795  0.5850
  704MOL0     O94908   5.122   2.238   1.616 -0.3580  0.2925 -0.2562
  704MOL0     C94909   5.257   2.266   1.631 -0.0607  0.1406 -0.5948
  704MOL0     C94910   5.322   2.220   1.744 -0.5495  0.5899 -0.5130
  704MOL0     C94911   5.446   2.245   1.791 -0.3001  0.5249  0.8980
  704MOL0     C94912   5.529   2.331   1.714  0.7109 -0.1694  0.1596
  704MOL0     O94913   5.649   2.372   1.760 -0.0425 -0.2317  0.8417
  704MOL0     C94914   5.753   2.410   1.664 -0.4762  0.5523 -0.3368
  704MOL0     C94915   5.868   2.462   1.742 -0.3946  0.1443 -0.6158
  704MOL0     C94916   6.003   2.463   1.676 -1.5644  0.8562 -0.5651
  704MOL0     C94917   6.130   2.513   1.766 -0.3971  0.2418  0.9262
  704MOL0     C94918   6.186   2.413   1.857  0.2196 -0.5407  0.1953
  704MOL0     C94919   6.299   2.477   1.943  0.6657 -0.4688 -1.0224
  704MOL0     C94920   6.423   2.381   1.952  0.3661  0.7974 -0.1326
  704MOL0     C94921   6.545   2.453   2.020  0.0954 -0.3992  0.1668
  704MOL0     N94922   6.584   2.586   1.973  0.1103  0.6276  0.1860
  704MOL0     C94923   6.682   2.612   1.882  0.4571  0.0312  0.2896
  704MOL0     C94924   6.671   2.742   1.859  0.3215 -0.4789  0.1860
  704MOL0     C94925   6.756   2.821   1.761 -0.0112  0.3187 -0.6755
  704MOL0     C94926   6.899   2.839   1.821  0.5293  0.7542 -0.4623
  704MOL0     C94927   6.969   2.707   1.871 -0.0023 -0.6036 -0.3338
  704MOL0     C94928   7.117   2.730   1.902 -0.6037  0.3876 -0.4701
  704MOL0     O94929   7.182   2.768   1.778  0.7755  0.2100 -0.2670
  704MOL0     C94930   7.306   2.743   1.756 -0.1557  0.4993  1.2705
  704MOL0     C94931   7.396   2.705   1.852  0.5871  0.3479 -0.9131
  704MOL0     C94932   7.531   2.687   1.829 -0.0597 -0.6741  0.9519
  704MOL0     C94933   7.586   2.697   1.701 -0.0891 -0.1134 -0.4892
  704MOL0     C94934   7.734   2.669   1.675 -0.5805 -0.1829  0.3420
  704MOL0     O94935   7.774   2.699   1.546 -0.5572 -0.5780  0.3555
  704MOL0     C94936   7.893   2.656   1.496  0.4556  0.3139 -1.1747
  704MOL0     C94937   7.949   2.531   1.529  0.5111 -0.2860 -0.0046
  704MOL0     C94938   8.057   2.486   1.464 -0.6162  0.3197 -0.4385
  704MOL0     C94939   8.132   2.562   1.369 -0.2149 -0.5612 -0.8362
  704MOL0     O94940   8.260   2.520   1.314 -0.1414 -0.3457  0.6260
  704MOL0     C94941   8.301   2.378   1.332 -0.1827  0.2037  0.0061
  704MOL0     C94942   8.451   2.351   1.297  0.4347 -0.1070  0.3020
  704MOL0     C94943   8.488   2.379   1.150 -0.3015 -0.2387 -0.6150
  704MOL0     C94944   8.639   2.349   1.145 -0.6606 -0.2489  0.0544
  704MOL0     C94945   8.718   2.398   1.021  0.6277 -0.6000 -0.5498
  704MOL0     C94946   8.861   2.340   1.006 -0.1812 -1.3986 -0.8816
  704MOL0     C94947   8.860   2.189   0.973 -0.3655 -0.4920 -0.6769
  704MOL0     C94948   8.809   2.163   0.830  0.6586  0.0513  0.5326
  704MOL0    Cl94949   8.877   2.280   0.704 -0.3991 -0.3230 -0.1618
  704MOL0     C94950   8.083   2.694   1.352  0.1585  0.9875 -0.6964
  704MOL0     C94951   7.958   2.734   1.406 -0.3054 -0.8636  0.2341
  704MOL0     O94952   7.802   2.631   1.766 -0.0849 -0.1744  0.0605
  704MOL0     C94953   7.492   2.738   1.603 -0.1441  0.1496  0.3868
  704MOL0     C94954   7.356   2.761   1.628  0.2333 -0.2269  0.4467
  704MOL0     N94955   6.565   2.792   1.932 -0.0979 -0.6599  0.7281
  704MOL0     N94956   6.516   2.702   2.012 -0.2043 -0.4909 -0.5573
  704MOL0     C94957   5.477   2.373   1.590 -0.1903  0.0535 -0.1121
  704MOL0     C94958   5.349   2.348   1.557  0.7499  0.2877  0.5893
  704MOL0     C94959   4.913   2.220   1.506  0.5488  0.5776 -0.1257
  704MOL0     C94960   4.877   2.126   1.610 -0.3201 -0.4067 -0.8259
  704MOL0     C94961   4.743   2.100   1.648  1.1900  1.0257 -0.0047
  704MOL0     C94962   4.639   2.137   1.563 -0.1101  0.2318  0.9597
  704MOL0     O94963   4.515   2.103   1.601  0.5019  0.3096 -0.1836
  704MOL0     C94964   4.401   2.183   1.562  0.1488  0.3512 -0.5102
  704MOL0     C94965   4.281   2.115   1.618 -0.6869 -0.3005 -0.3792
  704MOL0     C94966   4.144   2.162   1.562 -0.5360  0.0787 -0.2178
  704MOL0     C94967   4.110   2.310   1.549 -0.7632  0.0287  0.2546
  704MOL0     C94968   4.161   2.383   1.663  0.2547 -0.2016  0.0575
  704MOL0     C94969   4.207   2.452   1.759  0.9373  0.5420 -0.1553
  704MOL0     C94970   4.674   2.221   1.458 -0.3555  0.4319 -0.2477
  704MOL0     C94971   4.804   2.273   1.433  1.3343 -0.2550  0.6975
  704MOL0     C94972   4.822   2.375   1.326  0.1796  0.1955 -0.3455
  704MOL0     H94973   5.263   2.141   1.791 -0.0121 -1.2347 -2.7542
  704MOL0     H94974   5.478   2.205   1.887  1.6560 -0.1482  0.0247
  704MOL0     H94975   5.788   2.329   1.600  0.3887 -0.5205  1.4292
  704MOL0     H94976   5.725   2.488   1.592 -2.5431 -0.4363 -0.6673
  704MOL0     H94977   5.873   2.406   1.836  3.9719  0.8638 -0.2375
  704MOL0     H94978   5.842   2.564   1.774 -2.3129  0.2248 -2.2286
  704MOL0     H94979   5.999   2.543   1.602  2.4569  1.5382 -0.2416
  704MOL0     H94980   6.019   2.365   1.631 -2.2428  0.1930  0.5883
  704MOL0     H94981   6.201   2.552   1.692 -1.5196  1.0926  0.2730
  704MOL0     H94982   6.101   2.605   1.818 -2.1873  0.1349  0.1987
  704MOL0     H94983   6.104   2.368   1.913 -1.1096 -1.3959 -2.3166
  704MOL0     H94984   6.217   2.340   1.782 -3.0832  2.4218 -4.5428
  704MOL0     H94985   6.330   2.568   1.890 -0.4834 -0.1614 -1.1792
  704MOL0     H94986   6.272   2.504   2.045  0.9835  0.5629 -1.1967
  704MOL0     H94987   6.443   2.364   1.846  1.0157  1.3652 -0.1103
  704MOL0     H94988   6.399   2.286   2.000  0.6314 -0.2894 -2.0529
  704MOL0     H94989   6.524   2.472   2.125 -0.2108  1.7342 -0.2374
  704MOL0     H94990   6.624   2.378   2.017  0.4431 -0.1195  1.7863
  704MOL0     H94991   6.745   2.546   1.825  0.9905  1.1808 -0.4990
  704MOL0     H94992   6.755   2.771   1.664 -1.8153 -1.6524  0.2818
  704MOL0     H94993   6.711   2.918   1.740 -1.5678 -0.6631 -2.1431
  704MOL0     H94994   6.960   2.885   1.743  1.8893  0.0425  0.1376
  704MOL0     H94995   6.891   2.910   1.904  1.4438 -0.1524  0.4358
  704MOL0     H94996   6.961   2.626   1.797  1.4832 -0.4042 -0.7625
  704MOL0     H94997   6.927   2.671   1.965 -2.1121 -1.1249 -1.3995
  704MOL0     H94998   7.159   2.635   1.939 -1.0241 -1.4922 -4.3543
  704MOL0     H94999   7.157   2.804   1.972  2.6352  0.8253 -2.5759
  704MOL0     H95000   7.367   2.702   1.956  2.4874  1.8752 -0.2650
  704MOL0     H95001   7.600   2.657   1.907  2.4276  0.5737 -0.6350
  704MOL0     H95002   7.919   2.466   1.610  0.5804  1.5324  1.5456
  704MOL0     H95003   8.086   2.387   1.499 -1.5170  0.3687  0.4977
  704MOL0     H95004   8.301   2.350   1.438 -0.4943  2.2722  0.5999
  704MOL0     H95005   8.228   2.313   1.284 -1.0328  1.5981 -0.6730
  704MOL0     H95006   8.502   2.422   1.362 -1.0745  0.8461  0.5059
  704MOL0     H95007   8.474   2.247   1.325 -1.5597 -0.6245  0.2165
  704MOL0     H95008   8.427   2.323   1.078 -1.8235  0.6362 -0.0628
  704MOL0     H95009   8.475   2.483   1.119 -1.5188 -0.4169 -0.7480
  704MOL0     H95010   8.646   2.240   1.156 -3.0165 -0.7331 -2.2592
  704MOL0     H95011   8.685   2.388   1.236 -1.7825  2.6003 -0.5023
  704MOL0     H95012   8.718   2.507   1.007 -5.0530 -0.1889  0.1149
  704MOL0     H95013   8.659   2.363   0.936  0.2318 -1.2967 -0.0000
  704MOL0     H95014   8.921   2.393   0.932 -0.2589 -0.5292 -0.3410
  704MOL0     H95015   8.906   2.367   1.102 -0.1988  4.3943 -2.1530
  704MOL0     H95016   8.800   2.127   1.040 -1.3750  0.5616 -0.5772
  704MOL0     H95017   8.965   2.156   0.978 -0.0719  0.1500 -2.0676
  704MOL0     H95018   8.818   2.060   0.797 -1.4506  0.7928 -2.7935
  704MOL0     H95019   8.701   2.171   0.847  0.8917 -2.7057  4.9426
  704MOL0     H95020   8.148   2.756   1.291  2.1428  1.8231  2.0753
  704MOL0     H95021   7.909   2.831   1.404 -3.4614 -2.1174  4.2180
  704MOL0     H95022   7.528   2.755   1.502 -2.8705 -3.3348 -1.4321
  704MOL0     H95023   7.280   2.795   1.559 -0.3690 -1.3172  0.5627
  704MOL0     H95024   5.534   2.443   1.529  0.8064  1.5363  2.3547
  704MOL0     H95025   5.318   2.389   1.461  3.6841  1.9870  0.2666
  704MOL0     H95026   4.954   2.076   1.668 -0.3411  0.3634 -0.1165
  704MOL0     H95027   4.722   2.032   1.729  1.7802  0.5114 -0.2770
  704MOL0     H95028   4.397   2.205   1.454  0.0527 -1.8109 -1.0024
  704MOL0     H95029   4.410   2.284   1.601  1.0297  0.0864  0.0101
  704MOL0     H95030   4.285   2.132   1.726 -0.7794  0.5270 -0.5004
  704MOL0     H95031   4.289   2.006   1.608 -2.9315 -0.8451  2.3355
  704MOL0     H95032   4.068   2.104   1.613 -0.3279 -2.0220 -2.1113
  704MOL0     H95033   4.128   2.112   1.466 -0.1082 -0.8724  0.1923
  704MOL0     H95034   4.158   2.357   1.463 -1.5578  0.0463 -0.1959
  704MOL0     H95035   4.001   2.318   1.541 -0.5204  2.2620 -1.9675
  704MOL0     H95036   4.245   2.499   1.847 -1.4405 -0.5735  1.5823
  704MOL0     H95037   4.592   2.268   1.405 -1.0843 -2.7426 -2.1346
  704MOL0     H95038   4.832   2.333   1.225  1.4337 -0.3576 -0.0148
  704MOL0     H95039   4.732   2.436   1.320  0.1027  0.1394  0.1955
  704MOL0     H95040   4.909   2.441   1.332 -1.0887  1.8832  0.2111
  705MOL0     O95041   5.393   6.855   7.735  0.5995 -0.4927  0.2602
  705MOL0     C95042   5.344   6.757   7.796  0.5695 -0.1717 -0.4584
  705MOL0     O95043   5.394   6.624   7.773  0.0811 -0.0506 -0.0660
  705MOL0     C95044   5.494   6.603   7.681  0.4695 -0.5966 -0.0958
  705MOL0     C95045   5.473   6.537   7.558  0.1430 -0.6214 -0.6033
  705MOL0     C95046   5.579   6.514   7.481  0.5844 -0.4865 -0.2639
  705MOL0     C95047   5.700   6.555   7.500  0.2512 -0.7106  0.9209
  705MOL0     O95048   5.791   6.535   7.402 -0.7188 -0.1236 -0.4353
  705MOL0     C95049   5.918   6.489   7.444  0.0150 -0.4053  0.6606
  705MOL0     C95050   5.917   6.335   7.455 -0.3920  0.0794  0.3630
  705MOL0     C95051   6.060   6.276   7.469  0.3093 -0.3864  0.4156
  705MOL0     C95052   6.051   6.136   7.401 -0.6918 -0.6670  0.3505
  705MOL0     C95053   6.154   6.041   7.457 -0.4585 -0.3099  1.1362
  705MOL0     C95054   6.296   6.093   7.464  0.0695 -0.3170 -0.1821
  705MOL0     C95055   6.355   6.137   7.329 -0.2761 -0.4581 -0.3419
  705MOL0     C95056   6.489   6.176   7.361 -0.3231  0.1829  0.3167
  705MOL0     N95057   6.585   6.069   7.407  0.0887  0.1348 -0.8718
  705MOL0     C95058   6.674   6.084   7.512 -0.1352 -0.1907 -0.2444
  705MOL0     C95059   6.751   5.970   7.512 -0.6234 -1.1948  0.2770
  705MOL0     C95060   6.868   5.937   7.603 -0.5259 -0.1482 -0.7955
  705MOL0     C95061   6.995   5.979   7.532 -0.2684 -0.8471 -0.1493
  705MOL0     C95062   7.116   5.938   7.618  0.5580  0.0126 -0.0467
  705MOL0     C95063   7.257   5.958   7.553  0.9083  0.1252  0.4408
  705MOL0     O95064   7.351   5.928   7.660  0.0217 -0.6618  0.2171
  705MOL0     C95065   7.481   5.955   7.620 -0.0884  1.1783  0.4029
  705MOL0     C95066   7.528   5.983   7.491 -0.2145 -0.9038  0.0269
  705MOL0     C95067   7.659   6.009   7.471 -0.4075  0.4900  0.3509
  705MOL0     C95068   7.756   6.007   7.574  0.8374 -0.4932  0.7448
  705MOL0     C95069   7.900   6.037   7.540  0.0605 -0.6252 -0.1398
  705MOL0     O95070   7.935   6.047   7.406 -0.1600 -0.0736 -0.0143
  705MOL0     C95071   8.061   6.086   7.364 -0.2080 -0.0399  0.6066
  705MOL0     C95072   8.149   6.174   7.432 -0.0988  0.0492  0.4123
  705MOL0     C95073   8.272   6.210   7.380 -0.1971 -0.1353 -0.0883
  705MOL0     C95074   8.323   6.163   7.262 -0.0554 -0.1547 -0.1805
  705MOL0     O95075   8.451   6.195   7.224  0.3278 -0.6922 -0.1115
  705MOL0     C95076   8.491   6.176   7.084 -0.8333 -0.5294  0.4299
  705MOL0     C95077   8.643   6.218   7.082  0.4411  0.2950 -0.5409
  705MOL0     C95078   8.672   6.354   7.133  0.2333 -1.5453 -0.7850
  705MOL0     C95079   8.818   6.359   7.180  0.0804 -0.4827  0.5768
  705MOL0     C95080   8.841   6.508   7.212 -0.3917 -0.1331 -0.0692
  705MOL0     C95081   8.989   6.530   7.249 -0.3117  0.3595  0.1507
  705MOL0     C95082   9.044   6.654   7.177 -0.0735 -0.5708 -0.7018
  705MOL0     C95083   9.187   6.637   7.154  0.0870 -0.9773  0.1036
  705MOL0    Cl95084   9.244   6.788   7.074 -0.2323 -0.0593 -0.0856
  705MOL0     C95085   8.233   6.080   7.191 -0.9965 -0.1289  0.3986
  705MOL0     C95086   8.103   6.044   7.244 -0.4725 -0.1659 -0.7335
  705MOL0     O95087   7.972   6.050   7.632  0.8002 -0.9618 -0.3940
  705MOL0     C95088   7.708   5.982   7.701 -0.2805  0.3256 -0.6868
  705MOL0     C95089   7.575   5.950   7.722 -0.6037  0.4672  0.6148
  705MOL0     N95090   6.696   5.886   7.414 -0.2158  0.2924  0.9496
  705MOL0     N95091   6.601   5.945   7.354 -0.3199  0.3305 -0.2855
  705MOL0     C95092   5.728   6.614   7.627 -0.0171 -0.1320 -0.0467
  705MOL0     C95093   5.623   6.647   7.712  0.3354  0.3142 -0.7052
  705MOL0     C95094   5.231   6.762   7.890  0.0459  1.1292 -0.0015
  705MOL0     C95095   5.122   6.670   7.872  0.3712 -0.4597 -0.5941
  705MOL0     C95096   4.999   6.684   7.948 -0.0254 -0.5086 -0.1096
  705MOL0     C95097   4.999   6.768   8.059 -0.2880 -0.8112 -0.5428
  705MOL0     O95098   4.894   6.775   8.148 -0.0307 -0.2965 -0.3885
  705MOL0     C95099   4.789   6.676   8.146 -0.5669  0.0088  0.4384
  705MOL0     C95100   4.680   6.714   8.052  1.0370  0.7831 -0.1774
  705MOL0     C95101   4.573   6.599   8.045 -0.0988  0.0522 -0.5210
  705MOL0     C95102   4.625   6.449   8.029  0.3485 -0.6035  0.6264
  705MOL0     C95103   4.669   6.435   7.894  0.5573  0.5546  0.9456
  705MOL0     C95104   4.710   6.412   7.780 -0.1481 -0.5419  0.2028
  705MOL0     C95105   5.105   6.860   8.074 -0.5672  0.3008 -0.7802
  705MOL0     C95106   5.213   6.859   7.992 -0.3557 -0.0652 -0.3902
  705MOL0     C95107   5.316   6.961   8.020 -0.5739  0.3582  0.3274
  705MOL0     H95108   5.377   6.497   7.526 -1.3348  1.8443  0.4571
  705MOL0     H95109   5.552   6.465   7.387  1.5511 -1.7225  0.0828
  705MOL0     H95110   5.988   6.517   7.365 -0.8162 -4.0302 -1.5766
  705MOL0     H95111   5.947   6.542   7.536  0.9025  0.1459  0.0823
  705MOL0     H95112   5.871   6.296   7.364 -0.0288  0.9703 -0.2251
  705MOL0     H95113   5.857   6.300   7.539 -4.0129  2.3247 -1.0412
  705MOL0     H95114   6.107   6.276   7.568  4.3703 -0.8378 -1.3247
  705MOL0     H95115   6.135   6.321   7.404  0.1687 -2.1048 -0.9959
  705MOL0     H95116   5.950   6.099   7.423 -0.9041 -0.7529 -0.6907
  705MOL0     H95117   6.059   6.151   7.293 -2.1543  1.2452  0.4682
  705MOL0     H95118   6.117   6.006   7.553  1.2854 -0.7460  1.6847
  705MOL0     H95119   6.159   5.951   7.394  1.8003  0.3785  0.2409
  705MOL0     H95120   6.297   6.173   7.538 -2.4117 -1.7593  1.5874
  705MOL0     H95121   6.348   6.014   7.519 -2.2818 -1.1299  1.0376
  705MOL0     H95122   6.298   6.220   7.287  3.6948  1.0806 -3.4615
  705MOL0     H95123   6.364   6.061   7.251  0.4192  0.2369 -0.9586
  705MOL0     H95124   6.517   6.205   7.260  0.2779 -0.2618  0.3480
  705MOL0     H95125   6.493   6.260   7.431 -0.0753 -0.1676  0.7313
  705MOL0     H95126   6.685   6.167   7.582 -0.0758 -0.1336 -0.3226
  705MOL0     H95127   6.858   5.994   7.695  0.0555 -1.6452  0.2263
  705MOL0     H95128   6.868   5.830   7.627 -0.8537  0.3528  1.6408
  705MOL0     H95129   7.001   5.930   7.434  2.9934 -0.1760 -0.3926
  705MOL0     H95130   6.998   6.086   7.511 -1.1043 -1.1867 -2.2650
  705MOL0     H95131   7.101   5.836   7.655  3.0582 -0.3584  0.1306
  705MOL0     H95132   7.114   6.001   7.708  0.7254 -0.6770  0.4488
  705MOL0     H95133   7.267   6.061   7.519 -1.7365  0.4648  0.5334
  705MOL0     H95134   7.259   5.893   7.465 -1.5441  0.5409  0.0215
  705MOL0     H95135   7.465   5.996   7.404  1.6393  0.1174 -1.2416
  705MOL0     H95136   7.687   6.028   7.368 -2.2430  0.2812 -0.2132
  705MOL0     H95137   8.130   6.219   7.529  0.0157  0.2900  0.3244
  705MOL0     H95138   8.332   6.277   7.441 -1.1681 -0.9016  1.7999
  705MOL0     H95139   8.487   6.070   7.057 -1.6198 -0.6329  0.9296
  705MOL0     H95140   8.429   6.232   7.014 -1.5102 -1.7952 -0.0090
  705MOL0     H95141   8.693   6.131   7.125 -1.5834 -0.4676  0.3746
  705MOL0     H95142   8.662   6.213   6.975 -2.1110 -0.3608 -1.0345
  705MOL0     H95143   8.668   6.433   7.057  0.9192  0.0949  0.8002
  705MOL0     H95144   8.610   6.392   7.215 -0.1136  1.5575 -2.3247
  705MOL0     H95145   8.887   6.328   7.101  1.2954 -0.5478  1.6299
  705MOL0     H95146   8.841   6.299   7.269  4.1018  1.6993  1.2447
  705MOL0     H95147   8.777   6.543   7.294 -3.4442 -1.6350 -1.6397
  705MOL0     H95148   8.804   6.581   7.138 -1.7759 -1.2406 -0.5221
  705MOL0     H95149   8.993   6.542   7.357 -2.9637 -1.8438  0.6106
  705MOL0     H95150   9.047   6.444   7.212 -1.0981  0.0298 -0.3420
  705MOL0     H95151   9.017   6.746   7.229 -2.8546 -2.3857  1.4039
  705MOL0     H95152   8.995   6.666   7.080  2.7247  0.4903 -2.0990
  705MOL0     H95153   9.248   6.611   7.241 -1.1594  0.7136  1.5450
  705MOL0     H95154   9.198   6.557   7.079  4.4299 -1.3372  0.8798
  705MOL0     H95155   8.262   6.043   7.093 -1.9996  2.9206 -1.1746
  705MOL0     H95156   8.031   5.987   7.186 -3.2858  1.4178  0.9572
  705MOL0     H95157   7.778   5.972   7.783  0.3083  1.5421 -1.0110
  705MOL0     H95158   7.537   5.933   7.822 -1.0935 -0.8078  0.2276
  705MOL0     H95159   5.825   6.643   7.666 -0.2318  0.8641 -0.2346
  705MOL0     H95160   5.637   6.698   7.807  0.8927 -2.0133  0.5354
  705MOL0     H95161   5.111   6.604   7.787 -0.3939  0.0418 -0.8999
  705MOL0     H95162   4.920   6.613   7.925  0.1421 -0.4380 -0.9540
  705MOL0     H95163   4.755   6.660   8.248  1.8444 -0.7571  1.1941
  705MOL0     H95164   4.827   6.579   8.113  1.9587  0.5781  1.4217
  705MOL0     H95165   4.725   6.730   7.953 -1.9813  3.2385 -1.3351
  705MOL0     H95166   4.640   6.813   8.076  0.4731  0.3586  0.6741
  705MOL0     H95167   4.502   6.617   7.963  0.2790 -3.8117 -1.8831
  705MOL0     H95168   4.509   6.602   8.134 -0.6984  2.1875 -0.9619
  705MOL0     H95169   4.703   6.422   8.102  0.8245  0.8926  0.6977
  705MOL0     H95170   4.531   6.403   8.061 -1.2356  0.4191 -2.1986
  705MOL0     H95171   4.745   6.406   7.679 -0.9354 -1.9366 -0.0087
  705MOL0     H95172   5.094   6.931   8.155  0.7406  0.4639 -0.7265
  705MOL0     H95173   5.348   7.009   7.928  1.0987 -2.3175 -0.6301
  705MOL0     H95174   5.272   7.031   8.092 -0.4155  0.3387  0.4451
  705MOL0     H95175   5.407   6.923   8.068 -0.9684 -1.6568 -0.4278
  706MOL0     O95176   2.693   3.040   6.384 -0.4231 -0.3493 -0.7788
  706MOL0     C95177   2.639   3.000   6.488 -0.8749 -0.4681 -0.4116
  706MOL0     O95178   2.703   2.957   6.606  0.0439 -0.0278  0.5092
  706MOL0     C95179   2.841   2.958   6.608 -0.5076 -0.4871 -0.2616
  706MOL0     C95180   2.906   3.071   6.658  0.1159 -0.1532 -0.1586
  706MOL0     C95181   3.044   3.086   6.642 -0.0015 -0.1064  0.0351
  706MOL0     C95182   3.119   2.990   6.596  0.3103 -0.2949  0.1031
  706MOL0     O95183   3.256   3.022   6.593  0.1197  0.5091  0.2219
  706MOL0     C95184   3.340   2.958   6.496  0.2753  0.1428 -0.7435
  706MOL0     C95185   3.485   3.021   6.492 -0.1550  0.6666  0.0803
  706MOL0     C95186   3.571   2.950   6.387  0.9189 -0.4745 -0.4223
  706MOL0     C95187   3.709   2.998   6.419  1.1634 -0.3901  0.0747
  706MOL0     C95188   3.813   2.939   6.325 -0.0045 -0.0442  0.5726
  706MOL0     C95189   3.837   2.781   6.320  1.5511 -0.7842 -0.1873
  706MOL0     C95190   3.976   2.747   6.281  0.5272 -1.0489 -0.1826
  706MOL0     C95191   3.986   2.601   6.304 -0.3394 -0.0541 -0.0760
  706MOL0     N95192   4.120   2.556   6.279 -0.6292  0.1952 -0.4157
  706MOL0     C95193   4.231   2.612   6.342  0.5928  0.6909 -0.3341
  706MOL0     C95194   4.329   2.566   6.262 -0.7169 -0.5815  0.6746
  706MOL0     C95195   4.476   2.601   6.280 -0.1839  0.2575 -0.3853
  706MOL0     C95196   4.578   2.489   6.250  1.2202  0.1158 -0.5215
  706MOL0     C95197   4.711   2.543   6.288 -0.0616  0.5059  0.0181
  706MOL0     C95198   4.832   2.456   6.229  0.1441 -0.0912 -0.9023
  706MOL0     O95199   4.940   2.523   6.290  0.4863  0.5230 -0.0874
  706MOL0     C95200   5.068   2.476   6.264  0.3302 -0.0467 -0.9135
  706MOL0     C95201   5.120   2.488   6.134 -0.6547 -0.7115  0.7276
  706MOL0     C95202   5.248   2.442   6.106  0.6164 -0.2577 -0.8017
  706MOL0     C95203   5.328   2.390   6.216  0.9985 -0.0463  0.3803
  706MOL0     C95204   5.469   2.348   6.181 -0.0615  0.2085 -0.5651
  706MOL0     O95205   5.543   2.316   6.284  0.5551  0.4259 -0.6855
  706MOL0     C95206   5.665   2.267   6.257 -0.3000  0.4307  0.2985
  706MOL0     C95207   5.683   2.125   6.254  0.2306  0.4917  0.0757
  706MOL0     C95208   5.803   2.071   6.229  0.4994 -0.7340 -0.1107
  706MOL0     C95209   5.909   2.151   6.190  0.9921  0.3184  0.0786
  706MOL0     O95210   6.032   2.085   6.171  0.4927 -0.0609 -0.2662
  706MOL0     C95211   6.120   2.129   6.275 -0.3198  0.1638 -0.2124
  706MOL0     C95212   6.263   2.072   6.264  0.7648 -0.0195  0.6879
  706MOL0     C95213   6.340   2.091   6.133  0.2353  0.4012  0.4139
  706MOL0     C95214   6.299   1.997   6.020  0.5452  0.5593 -0.0389
  706MOL0     C95215   6.344   2.047   5.885 -0.0829 -0.6927  0.3150
  706MOL0     C95216   6.500   2.070   5.877 -0.0296 -0.0692  0.0036
  706MOL0     C95217   6.568   1.936   5.893 -0.1990 -0.3509  1.0688
  706MOL0     C95218   6.717   1.950   5.859 -0.2309  0.8382  0.2066
  706MOL0    Cl95219   6.796   2.025   5.991 -0.5949 -0.1903  0.2029
  706MOL0     C95220   5.891   2.288   6.180 -0.6401 -0.5269  0.2779
  706MOL0     C95221   5.769   2.352   6.219 -0.7051 -0.1181 -1.3845
  706MOL0     O95222   5.515   2.337   6.064  0.7473 -0.4526 -0.1057
  706MOL0     C95223   5.276   2.369   6.345  0.0428 -0.4563 -0.0920
  706MOL0     C95224   5.141   2.408   6.364 -0.0005  0.6547  0.0899
  706MOL0     N95225   4.272   2.497   6.156 -0.0759  0.9502 -0.2198
  706MOL0     N95226   4.148   2.492   6.168  0.0016  1.2857 -0.4664
  706MOL0     C95227   3.058   2.862   6.556  0.3961 -0.0344 -0.4143
  706MOL0     C95228   2.922   2.851   6.552  0.8629  0.5622 -0.6532
  706MOL0     C95229   2.500   2.994   6.488 -0.0527  0.2423  0.6430
  706MOL0     C95230   2.429   3.041   6.592  1.2227  1.0773  0.2481
  706MOL0     C95231   2.288   3.042   6.590 -0.2305 -0.4567 -0.7355
  706MOL0     C95232   2.221   2.984   6.486 -0.2187  0.8338 -0.4653
  706MOL0     O95233   2.085   2.977   6.493 -0.3066  0.5983  0.1401
  706MOL0     C95234   2.023   2.929   6.373  0.4441 -0.1666 -0.2159
  706MOL0     C95235   1.876   2.968   6.371  0.2615 -0.2073 -0.1525
  706MOL0     C95236   1.857   3.122   6.352  0.5194 -0.2548  0.2088
  706MOL0     C95237   1.711   3.159   6.371 -0.0626  0.7583 -0.8045
  706MOL0     C95238   1.609   3.092   6.295  0.8715 -0.1490 -0.6020
  706MOL0     C95239   1.508   3.046   6.237 -0.0247  0.0338 -0.4479
  706MOL0     C95240   2.291   2.941   6.373 -0.0646  0.3281 -0.0008
  706MOL0     C95241   2.429   2.937   6.377 -1.1422 -0.0110  0.0171
  706MOL0     C95242   2.503   2.871   6.255 -0.6315 -0.3712  0.3372
  706MOL0     H95243   2.850   3.147   6.711 -1.0030  0.3938 -2.0349
  706MOL0     H95244   3.101   3.175   6.666 -1.1220  0.7887 -0.4718
  706MOL0     H95245   3.349   2.852   6.520  0.9291  0.0240 -1.4864
  706MOL0     H95246   3.297   2.953   6.395  0.5905 -0.0357 -0.8701
  706MOL0     H95247   3.528   3.010   6.592  1.4528  2.5335 -0.3452
  706MOL0     H95248   3.474   3.126   6.465  0.2323  0.4825 -0.8266
  706MOL0     H95249   3.521   2.967   6.291 -0.5415  1.2766  0.5856
  706MOL0     H95250   3.571   2.843   6.408  0.5964 -0.2420  0.8375
  706MOL0     H95251   3.713   3.106   6.402  0.3204 -0.5575 -1.3991
  706MOL0     H95252   3.745   2.974   6.519 -1.0414 -2.1796  0.5157
  706MOL0     H95253   3.788   2.977   6.226  1.6565  0.5851  0.3640
  706MOL0     H95254   3.908   2.984   6.357  0.3425 -0.9730  0.9024
  706MOL0     H95255   3.809   2.746   6.420  3.8639  0.0776  0.8141
  706MOL0     H95256   3.765   2.748   6.244 -1.3568  2.4766  0.8514
  706MOL0     H95257   4.041   2.803   6.349  0.1480  0.0016 -0.6570
  706MOL0     H95258   3.996   2.783   6.180 -1.4168  0.6235 -0.0401
  706MOL0     H95259   3.942   2.579   6.401 -0.4062  0.6508  0.0513
  706MOL0     H95260   3.923   2.546   6.233  0.7348 -2.7613  0.8940
  706MOL0     H95261   4.234   2.669   6.434  1.8807 -1.9103  1.3496
  706MOL0     H95262   4.500   2.682   6.211  2.2117  1.6695  1.9125
  706MOL0     H95263   4.492   2.641   6.381 -0.2228 -0.3747 -0.1190
  706MOL0     H95264   4.550   2.405   6.313  0.1784  1.3060  0.6713
  706MOL0     H95265   4.572   2.471   6.142 -2.8797  1.5971 -0.7039
  706MOL0     H95266   4.716   2.538   6.397  0.6157  1.2182  0.0312
  706MOL0     H95267   4.726   2.645   6.249  1.4176 -0.4976 -2.2228
  706MOL0     H95268   4.839   2.477   6.122  0.1358  5.5470 -0.1196
  706MOL0     H95269   4.827   2.351   6.259  1.5585  0.0306 -0.1242
  706MOL0     H95270   5.068   2.540   6.054 -0.8348 -2.2501 -0.1980
  706MOL0     H95271   5.289   2.469   6.009 -1.5071  0.7957 -1.4754
  706MOL0     H95272   5.600   2.059   6.278  1.8178 -1.5038  0.3829
  706MOL0     H95273   5.815   1.963   6.234  0.0311 -0.9458 -2.4329
  706MOL0     H95274   6.114   2.238   6.278 -0.6537  0.1796 -1.1742
  706MOL0     H95275   6.084   2.102   6.375 -0.0775  1.6634  0.3004
  706MOL0     H95276   6.317   2.113   6.350 -3.0589  1.3675  2.6246
  706MOL0     H95277   6.268   1.963   6.275  0.3414  0.1596  3.5418
  706MOL0     H95278   6.340   2.198   6.110  0.1352  0.5778  1.1988
  706MOL0     H95279   6.444   2.065   6.155  0.0755 -0.9676 -0.3871
  706MOL0     H95280   6.191   1.981   6.016  0.3168  1.8073  0.4284
  706MOL0     H95281   6.344   1.900   6.041  0.0340 -0.0382 -1.6011
  706MOL0     H95282   6.294   2.143   5.874 -0.7094 -0.4522  3.9618
  706MOL0     H95283   6.316   1.978   5.805 -1.1216 -0.8800  0.8224
  706MOL0     H95284   6.526   2.111   5.779  1.4405 -1.4375 -0.2343
  706MOL0     H95285   6.534   2.141   5.953  0.5740 -0.4574  0.1116
  706MOL0     H95286   6.513   1.873   5.822 -1.0932  0.7443  0.7523
  706MOL0     H95287   6.556   1.897   5.995  1.7006 -1.6264  0.8608
  706MOL0     H95288   6.756   1.849   5.841 -2.6523 -0.0083 -0.6562
  706MOL0     H95289   6.719   2.008   5.766 -0.3590  1.9834  0.9046
  706MOL0     H95290   5.971   2.337   6.127 -1.1944 -1.9572 -2.0096
  706MOL0     H95291   5.758   2.459   6.209  0.0049  0.1341  0.2569
  706MOL0     H95292   5.322   2.317   6.428 -3.1809 -0.5534  1.8172
  706MOL0     H95293   5.088   2.392   6.457 -1.0606  0.0825 -0.5942
  706MOL0     H95294   3.121   2.774   6.548  0.1606 -0.6870  3.1049
  706MOL0     H95295   2.882   2.758   6.513  1.7558  1.2758 -3.5537
  706MOL0     H95296   2.474   3.090   6.678 -0.0050  2.4482  0.1517
  706MOL0     H95297   2.236   3.082   6.676 -1.7434 -1.9836 -0.8984
  706MOL0     H95298   2.032   2.822   6.358 -4.0010 -1.0427  1.5772
  706MOL0     H95299   2.063   2.987   6.289 -0.9188 -0.1587 -0.8893
  706MOL0     H95300   1.838   2.927   6.465  0.3697  0.3999  0.1571
  706MOL0     H95301   1.825   2.923   6.285  1.1323 -1.8084  0.1303
  706MOL0     H95302   1.898   3.168   6.262  1.1733  0.2152  0.7383
  706MOL0     H95303   1.918   3.168   6.430  0.4722  2.7348 -1.3552
  706MOL0     H95304   1.681   3.144   6.475 -1.2595 -2.4612 -1.5041
  706MOL0     H95305   1.699   3.267   6.355 -1.5069  0.3457 -2.9026
  706MOL0     H95306   1.428   3.019   6.171  0.4584  2.5386 -2.1947
  706MOL0     H95307   2.238   2.899   6.288 -0.1424 -1.2517  0.7855
  706MOL0     H95308   2.588   2.808   6.281  1.7134  1.5809 -2.0420
  706MOL0     H95309   2.430   2.814   6.197  0.3737 -1.7052  0.3591
  706MOL0     H95310   2.543   2.952   6.194 -1.3356 -1.4869 -1.6853
  707MOL0     O95311   4.565   2.794   3.127  0.1738  0.1651  0.0257
  707MOL0     C95312   4.576   2.857   3.230 -0.7184  0.8716  0.2723
  707MOL0     O95313   4.686   2.925   3.266 -0.3337  0.3067  1.0947
  707MOL0     C95314   4.789   2.924   3.183  1.6678  0.1183 -0.2737
  707MOL0     C95315   4.864   2.808   3.145 -0.2397 -0.0057  0.2126
  707MOL0     C95316   4.982   2.821   3.058  0.3290 -0.3078 -0.7851
  707MOL0     C95317   5.021   2.947   3.021  0.6441 -0.4103 -0.0560
  707MOL0     O95318   5.144   2.971   2.955  0.5127 -0.1446  0.0611
  707MOL0     C95319   5.168   2.876   2.849 -0.9430 -0.5213 -0.9488
  707MOL0     C95320   5.268   2.950   2.760 -0.7334  0.7426 -1.3778
  707MOL0     C95321   5.410   2.909   2.812 -0.1452  0.3320  0.3720
  707MOL0     C95322   5.530   2.925   2.700 -0.0959 -0.5655 -0.6995
  707MOL0     C95323   5.541   3.060   2.632 -0.3517  0.4162  0.2716
  707MOL0     C95324   5.601   3.158   2.739  0.5169 -0.7190  0.4578
  707MOL0     C95325   5.750   3.154   2.755  0.1391  0.4033  0.4894
  707MOL0     C95326   5.780   3.232   2.881 -0.6610 -0.1820  0.5234
  707MOL0     N95327   5.930   3.253   2.890  0.6897 -0.0595  0.6734
  707MOL0     C95328   5.995   3.253   3.007 -0.0635 -0.2583  0.5487
  707MOL0     C95329   6.120   3.271   2.978 -0.7348  0.9992  1.3825
  707MOL0     C95330   6.242   3.295   3.072  0.3701 -0.3479 -0.5294
  707MOL0     C95331   6.371   3.215   3.038  0.8818 -1.2837 -0.0396
  707MOL0     C95332   6.365   3.072   3.069  0.3378  0.0016 -0.5213
  707MOL0     C95333   6.494   3.006   3.025  0.9997 -1.1822 -0.0725
  707MOL0     O95334   6.604   3.031   3.113  0.2622 -0.2129 -0.3405
  707MOL0     C95335   6.702   2.944   3.104  0.7629  0.3177 -0.4572
  707MOL0     C95336   6.737   2.889   3.221  0.6070 -0.6665 -0.1824
  707MOL0     C95337   6.859   2.820   3.232 -0.1347  0.6853  0.2457
  707MOL0     C95338   6.943   2.801   3.117 -0.8256 -0.0960  0.6911
  707MOL0     C95339   7.065   2.726   3.128  0.1145 -0.3229 -0.0836
  707MOL0     O95340   7.156   2.741   3.022 -0.3112  0.1711  0.3168
  707MOL0     C95341   7.290   2.700   3.028 -0.1062 -0.7658 -0.6301
  707MOL0     C95342   7.375   2.728   3.135 -0.1145 -0.2059 -0.7705
  707MOL0     C95343   7.508   2.692   3.149 -0.4100 -0.0758  0.3720
  707MOL0     C95344   7.566   2.635   3.040 -0.2105  0.2604 -0.0654
  707MOL0     O95345   7.703   2.614   3.035  0.9556  0.0305  0.0083
  707MOL0     C95346   7.773   2.724   2.982  0.8631 -0.8063 -0.2875
  707MOL0     C95347   7.918   2.699   2.960  0.5602  0.1067 -0.0638
  707MOL0     C95348   7.952   2.553   2.913 -0.4098  0.6235  0.7865
  707MOL0     C95349   8.104   2.568   2.871 -0.1167  0.7724 -0.2192
  707MOL0     C95350   8.171   2.428   2.864  0.1627  0.5525  0.4497
  707MOL0     C95351   8.307   2.438   2.801 -0.7881 -0.2622  0.3070
  707MOL0     C95352   8.366   2.297   2.783  0.3217  0.7264 -0.3872
  707MOL0     C95353   8.497   2.300   2.695  0.7106 -0.1103 -0.2964
  707MOL0    Cl95354   8.439   2.310   2.526  0.3711 -0.7186  0.5475
  707MOL0     C95355   7.491   2.605   2.925  0.6414  0.4399  0.3038
  707MOL0     C95356   7.348   2.640   2.919 -0.2003  0.5963 -0.0041
  707MOL0     O95357   7.080   2.646   3.219  0.7980 -0.6512 -0.5034
  707MOL0     C95358   6.901   2.858   2.994  0.7788  0.7516 -0.3391
  707MOL0     C95359   6.789   2.934   2.991 -0.1111 -0.3804 -0.4996
  707MOL0     N95360   6.137   3.281   2.839 -0.4580  0.1280 -0.1638
  707MOL0     N95361   6.018   3.289   2.793  0.2350 -0.2471 -0.4193
  707MOL0     C95362   4.951   3.055   3.061 -0.7887 -0.2678  0.4227
  707MOL0     C95363   4.839   3.052   3.145  0.4595  0.0866 -0.3443
  707MOL0     C95364   4.466   2.876   3.319  0.1770 -0.7468 -0.4896
  707MOL0     C95365   4.449   2.998   3.393 -0.4160  0.0459  0.1037
  707MOL0     C95366   4.334   3.016   3.465  0.4214  0.5817  0.2328
  707MOL0     C95367   4.230   2.926   3.478 -0.1680  0.5157 -0.4797
  707MOL0     O95368   4.125   2.967   3.559 -0.0994  0.0135  0.0636
  707MOL0     C95369   4.014   2.877   3.553  0.5367  0.3092 -0.3639
  707MOL0     C95370   3.879   2.943   3.595  0.0632  0.0177 -0.0184
  707MOL0     C95371   3.756   2.882   3.513 -0.2956  0.0113  0.0492
  707MOL0     C95372   3.617   2.935   3.550  0.7121 -0.1332  0.2961
  707MOL0     C95373   3.599   3.083   3.535  0.8955  0.6575 -0.6387
  707MOL0     C95374   3.599   3.207   3.542 -0.2463 -0.5116  0.0237
  707MOL0     C95375   4.251   2.804   3.416  0.5716  0.3437 -0.0954
  707MOL0     C95376   4.368   2.779   3.337  0.0531  0.0079  0.3261
  707MOL0     C95377   4.390   2.640   3.297 -0.1189  0.7688 -1.2526
  707MOL0     H95378   4.830   2.714   3.187 -3.1748  1.7614  2.1241
  707MOL0     H95379   5.030   2.725   3.038  0.7719  0.5892 -4.8254
  707MOL0     H95380   5.191   2.776   2.886 -0.9218 -1.1681 -2.6202
  707MOL0     H95381   5.083   2.853   2.784 -1.7526 -0.2569 -0.0144
  707MOL0     H95382   5.258   3.059   2.757 -0.0166  0.8881  0.3114
  707MOL0     H95383   5.257   2.902   2.662 -1.7314 -2.4152  0.1728
  707MOL0     H95384   5.400   2.806   2.848  3.7909 -0.2715  0.1431
  707MOL0     H95385   5.423   2.960   2.908  0.2833 -2.8197  2.1091
  707MOL0     H95386   5.624   2.898   2.748 -0.2576 -0.7684 -0.4941
  707MOL0     H95387   5.514   2.844   2.628  0.7124 -0.5338 -0.9252
  707MOL0     H95388   5.615   3.059   2.551 -1.0171 -0.3291 -0.3445
  707MOL0     H95389   5.451   3.107   2.591  0.1789 -0.6314 -2.3002
  707MOL0     H95390   5.579   3.261   2.709  0.6910 -0.3107  1.6665
  707MOL0     H95391   5.547   3.150   2.834 -0.5032 -3.0713 -0.2596
  707MOL0     H95392   5.801   3.188   2.665 -1.0167  0.6765 -0.0789
  707MOL0     H95393   5.777   3.050   2.774  2.2726  1.1291  1.7370
  707MOL0     H95394   5.721   3.324   2.868  1.0345  0.6711 -1.7341
  707MOL0     H95395   5.734   3.185   2.969 -1.3256  1.5657  1.1533
  707MOL0     H95396   5.958   3.255   3.109 -1.6056  1.6809  0.0194
  707MOL0     H95397   6.264   3.402   3.081  0.8641 -0.5953  2.1938
  707MOL0     H95398   6.201   3.264   3.169 -3.4388 -2.2654 -2.5350
  707MOL0     H95399   6.400   3.235   2.935  2.6183 -1.9994  0.2802
  707MOL0     H95400   6.447   3.265   3.099 -1.3477 -0.5572  2.3335
  707MOL0     H95401   6.277   3.042   3.011 -0.0680  0.8391 -0.3626
  707MOL0     H95402   6.348   3.060   3.177 -0.3951  0.2106 -0.6039
  707MOL0     H95403   6.519   3.056   2.931  1.9021  3.4280  2.3238
  707MOL0     H95404   6.466   2.901   3.010 -1.1560 -1.2476  3.2440
  707MOL0     H95405   6.669   2.901   3.305 -1.4349 -1.4442 -1.6231
  707MOL0     H95406   6.883   2.771   3.325 -0.0870 -0.7134 -0.4856
  707MOL0     H95407   7.334   2.778   3.222 -0.9345 -1.4357 -0.4315
  707MOL0     H95408   7.570   2.713   3.236 -1.4664  1.8305  0.7074
  707MOL0     H95409   7.735   2.765   2.888 -0.1274 -0.0464  0.4213
  707MOL0     H95410   7.746   2.802   3.054 -1.6707 -2.2447  0.4257
  707MOL0     H95411   7.953   2.778   2.893  2.2721 -0.5906 -0.0628
  707MOL0     H95412   7.973   2.719   3.053 -0.8470  0.4317  0.7209
  707MOL0     H95413   7.941   2.481   2.995  4.0087 -0.9010  0.3145
  707MOL0     H95414   7.889   2.518   2.830 -2.3431  2.0088  1.5864
  707MOL0     H95415   8.150   2.639   2.941  0.5055  1.2180 -1.0626
  707MOL0     H95416   8.109   2.610   2.770 -1.1589  0.4641 -0.4077
  707MOL0     H95417   8.109   2.372   2.792  1.0562  1.0448 -0.7347
  707MOL0     H95418   8.181   2.376   2.960 -2.7755 -0.8753  0.1175
  707MOL0     H95419   8.296   2.476   2.699 -0.5284 -0.7141  0.1119
  707MOL0     H95420   8.374   2.502   2.859  0.7316 -1.5438  0.0166
  707MOL0     H95421   8.292   2.231   2.738  1.0353  0.9918 -2.0318
  707MOL0     H95422   8.399   2.260   2.881 -0.3789  3.4954  1.0258
  707MOL0     H95423   8.548   2.393   2.720  1.0991 -0.9631  2.4573
  707MOL0     H95424   8.574   2.223   2.709  0.6312 -0.2297 -0.5089
  707MOL0     H95425   7.547   2.555   2.847  1.3884  2.7339 -0.6971
  707MOL0     H95426   7.277   2.617   2.840 -3.2990 -1.1174  3.0009
  707MOL0     H95427   6.960   2.844   2.904  1.5769 -2.3844  0.5459
  707MOL0     H95428   6.764   2.988   2.900 -1.4992 -0.3109 -0.0889
  707MOL0     H95429   4.993   3.152   3.035 -1.7600  0.5487  1.7727
  707MOL0     H95430   4.788   3.143   3.177 -1.5936 -0.2318 -2.4723
  707MOL0     H95431   4.528   3.072   3.401 -2.7217  2.7660 -0.5631
  707MOL0     H95432   4.315   3.109   3.519 -1.5553  0.0445  0.5501
  707MOL0     H95433   4.028   2.799   3.628  3.0610 -1.6409 -2.6825
  707MOL0     H95434   3.999   2.837   3.453 -1.2787 -1.0629  0.3963
  707MOL0     H95435   3.889   3.052   3.597  0.8219 -0.0575  1.1318
  707MOL0     H95436   3.864   2.912   3.699 -0.5115 -3.5437 -1.0328
  707MOL0     H95437   3.744   2.774   3.523  0.7359 -0.1257 -0.0993
  707MOL0     H95438   3.762   2.901   3.405  2.4672 -0.0363  0.1327
  707MOL0     H95439   3.546   2.891   3.479 -0.6662 -0.5851  1.8751
  707MOL0     H95440   3.589   2.890   3.646  0.2863  0.2296  0.3465
  707MOL0     H95441   3.603   3.314   3.541 -3.2979 -0.3368 -0.6189
  707MOL0     H95442   4.184   2.721   3.433  1.8324 -0.5363  0.7991
  707MOL0     H95443   4.390   2.617   3.190  3.2624  0.4114 -1.2932
  707MOL0     H95444   4.492   2.626   3.334 -0.9552 -2.4311  0.1140
  707MOL0     H95445   4.337   2.567   3.358  3.0009  0.7208  1.6607
  708MOL0     O95446   9.742   0.948   9.340  0.3791 -0.0259  0.4668
  708MOL0     C95447   9.737   0.852   9.261  0.0057  1.0383 -0.7392
  708MOL0     O95448   9.841   0.803   9.192  0.0316 -0.5484 -0.5914
  708MOL0     C95449   9.970   0.848   9.211 -0.0337 -0.1918  0.5729
  708MOL0     C95450   9.998   0.985   9.211  0.2190 -0.5850  0.3170
  708MOL0     C95451  10.129   1.022   9.218  0.0808  0.4427  0.0083
  708MOL0     C95452  10.233   0.931   9.223  0.5269 -0.9189 -1.0534
  708MOL0     O95453  10.362   0.971   9.233 -0.3726 -0.0704 -0.0659
  708MOL0     C95454  10.409   1.039   9.120 -0.5151 -0.5501 -0.4812
  708MOL0     C95455  10.427   1.191   9.141  0.1934 -0.1697 -0.0289
  708MOL0     C95456  10.494   1.234   9.271 -0.1246 -0.9398  0.4556
  708MOL0     C95457  10.506   1.388   9.281 -0.2219  0.2654 -0.4965
  708MOL0     C95458  10.566   1.429   9.409 -0.3850 -0.3682  0.7428
  708MOL0     C95459  10.715   1.390   9.422 -0.1660  0.4926 -0.4783
  708MOL0     C95460  10.780   1.457   9.541 -0.0325  0.6409  0.5726
  708MOL0     C95461  10.806   1.608   9.519 -0.7595 -0.1969  0.9000
  708MOL0     N95462  10.903   1.628   9.415 -0.0471 -0.4294 -0.1574
  708MOL0     C95463  11.041   1.628   9.433  0.7084  0.0711 -0.5067
  708MOL0     C95464  11.086   1.656   9.312 -0.2309  0.3855 -0.0171
  708MOL0     C95465  11.224   1.656   9.251  0.1005 -0.0811 -0.4421
  708MOL0     C95466  11.315   1.540   9.289 -0.2974  0.4036 -0.0235
  708MOL0     C95467  11.388   1.566   9.421 -0.4541 -0.0450  0.4041
  708MOL0     C95468  11.477   1.690   9.433 -0.1824 -0.0018  0.0786
  708MOL0     O95469  11.588   1.684   9.341 -0.6960 -0.5632  0.4251
  708MOL0     C95470  11.681   1.782   9.377 -0.0314  0.7430 -1.1255
  708MOL0     C95471  11.781   1.759   9.475  0.1084 -1.1664  0.3444
  708MOL0     C95472  11.866   1.872   9.504 -0.2993  0.3260 -0.0331
  708MOL0     C95473  11.854   2.000   9.450 -0.5638  0.2444  0.2507
  708MOL0     C95474  11.943   2.106   9.497 -0.3061 -0.1146  0.2116
  708MOL0     O95475  12.051   2.072   9.567 -0.2427 -0.5521 -0.1901
  708MOL0     C95476  12.156   2.162   9.581 -0.7087  0.5131  0.5902
  708MOL0     C95477  12.213   2.200   9.707 -0.8892 -0.4174 -0.0027
  708MOL0     C95478  12.323   2.290   9.713 -0.6880 -0.4068  0.0832
  708MOL0     C95479  12.379   2.334   9.596 -0.7974 -0.1698 -0.9500
  708MOL0     O95480  12.482   2.428   9.594 -0.4873  0.0139 -0.4896
  708MOL0     C95481  12.552   2.452   9.717  0.2451 -0.2317 -0.0241
  708MOL0     C95482  12.664   2.548   9.695  0.4476  0.8731 -1.1380
  708MOL0     C95483  12.791   2.483   9.636 -0.7554 -0.5193  0.0460
  708MOL0     C95484  12.913   2.575   9.651  0.1359 -0.4160 -0.5746
  708MOL0     C95485  13.011   2.550   9.536  0.1777 -0.3333 -0.4857
  708MOL0     C95486  13.079   2.422   9.535 -0.8314 -0.3488  1.0043
  708MOL0     C95487  13.186   2.399   9.423  0.4615  0.4707 -0.6501
  708MOL0     C95488  13.304   2.324   9.480 -0.6062  0.0809 -0.0178
  708MOL0    Cl95489  13.257   2.156   9.523  0.0113  0.2132  0.0039
  708MOL0     C95490  12.327   2.301   9.472 -0.0001 -0.2418 -0.8281
  708MOL0     C95491  12.223   2.218   9.469  0.3314 -0.2793  0.8227
  708MOL0     O95492  11.917   2.221   9.461  0.2850 -0.5575  0.4948
  708MOL0     C95493  11.762   2.018   9.348  0.1270  0.7137 -0.3353
  708MOL0     C95494  11.673   1.909   9.314  0.3348 -0.6332 -0.1134
  708MOL0     N95495  10.979   1.685   9.228 -0.0854  0.2160  0.2059
  708MOL0     N95496  10.872   1.679   9.297  0.2926 -0.2751 -0.5028
  708MOL0     C95497  10.202   0.797   9.239 -1.1951 -0.0824 -0.3523
  708MOL0     C95498  10.075   0.754   9.219 -0.7670 -0.2447  0.2541
  708MOL0     C95499   9.610   0.788   9.244  0.0072  0.6363 -0.5392
  708MOL0     C95500   9.598   0.654   9.236 -0.4929 -0.0324  0.2608
  708MOL0     C95501   9.466   0.598   9.239 -0.5930  0.1740 -0.6836
  708MOL0     C95502   9.348   0.678   9.243 -0.0208  0.4928 -0.0395
  708MOL0     O95503   9.222   0.627   9.236  0.2638  1.0045  0.5172
  708MOL0     C95504   9.192   0.505   9.308  0.0537  0.4082  0.6429
  708MOL0     C95505   9.040   0.509   9.328  0.4769 -0.3235  0.0752
  708MOL0     C95506   8.977   0.461   9.200 -0.2302 -0.4557  0.1838
  708MOL0     C95507   8.824   0.434   9.219 -0.5192 -0.1908 -0.2272
  708MOL0     C95508   8.754   0.552   9.266  0.2818  0.6903  0.0658
  708MOL0     C95509   8.709   0.662   9.297 -0.1659  0.9714 -0.3542
  708MOL0     C95510   9.363   0.812   9.246 -0.0300 -0.0117 -0.4686
  708MOL0     C95511   9.493   0.875   9.243  0.0054  0.1369 -0.1590
  708MOL0     C95512   9.483   1.027   9.247  0.0440 -0.1706  0.0973
  708MOL0     H95513   9.914   1.055   9.209 -0.4085 -1.2967 -2.6582
  708MOL0     H95514  10.148   1.129   9.221  3.0369  0.0969 -1.9734
  708MOL0     H95515  10.509   1.010   9.087  1.1649  3.8753  0.0382
  708MOL0     H95516  10.348   1.016   9.032  1.0127 -0.8513 -1.5049
  708MOL0     H95517  10.334   1.246   9.126  0.7859  0.3624 -2.1769
  708MOL0     H95518  10.487   1.226   9.056  0.8974  0.3233  0.6623
  708MOL0     H95519  10.589   1.179   9.278 -0.2132 -1.0670  0.7111
  708MOL0     H95520  10.434   1.205   9.358  0.7601 -1.0529  1.0479
  708MOL0     H95521  10.560   1.426   9.194  1.5864  1.4787  1.0794
  708MOL0     H95522  10.402   1.424   9.277 -0.1532  0.4249 -0.9655
  708MOL0     H95523  10.565   1.539   9.409 -0.7051 -0.3693  0.4165
  708MOL0     H95524  10.512   1.400   9.499  1.7047 -0.5190  2.0233
  708MOL0     H95525  10.712   1.287   9.459 -2.9535  0.3578 -0.8704
  708MOL0     H95526  10.767   1.399   9.326 -1.1647  1.7400 -0.9307
  708MOL0     H95527  10.876   1.406   9.545  0.8839  2.2362 -0.3609
  708MOL0     H95528  10.718   1.450   9.632 -0.7174  3.9251  0.4938
  708MOL0     H95529  10.712   1.663   9.506 -0.3733 -0.1344 -2.2405
  708MOL0     H95530  10.836   1.661   9.610 -0.0085  2.5127 -0.8080
  708MOL0     H95531  11.103   1.600   9.517 -0.1875  2.0999  0.9175
  708MOL0     H95532  11.209   1.645   9.143 -1.2769  5.6104 -1.1577
  708MOL0     H95533  11.278   1.751   9.261 -1.4054  0.5900  2.6650
  708MOL0     H95534  11.268   1.442   9.280  1.0180 -0.1318 -1.7026
  708MOL0     H95535  11.399   1.529   9.219 -1.4887 -2.5430 -1.1530
  708MOL0     H95536  11.448   1.476   9.436  0.4627  0.0380 -2.2379
  708MOL0     H95537  11.314   1.577   9.500 -1.5781  1.2887 -0.7741
  708MOL0     H95538  11.518   1.702   9.534 -0.7887  2.3721  0.0960
  708MOL0     H95539  11.414   1.778   9.418 -2.1148 -0.4670  4.0357
  708MOL0     H95540  11.783   1.666   9.531 -1.8760 -1.6808 -0.3793
  708MOL0     H95541  11.948   1.848   9.570  1.4370  2.2906 -1.3602
  708MOL0     H95542  12.164   2.167   9.799 -1.0910  0.4302  0.2022
  708MOL0     H95543  12.366   2.317   9.809  1.7033 -2.6651 -0.2490
  708MOL0     H95544  12.478   2.500   9.782  0.5166  0.0009  0.1177
  708MOL0     H95545  12.577   2.358   9.767 -0.5366 -0.5913 -0.3028
  708MOL0     H95546  12.631   2.624   9.624  0.0446 -0.2144 -2.1481
  708MOL0     H95547  12.700   2.596   9.786 -1.1386 -2.1494  1.2730
  708MOL0     H95548  12.814   2.392   9.692 -3.6198  0.3415  2.9380
  708MOL0     H95549  12.771   2.470   9.530  1.8898  1.6347 -0.8171
  708MOL0     H95550  12.962   2.548   9.745 -0.8610 -2.4989 -0.5995
  708MOL0     H95551  12.883   2.681   9.649  0.7149 -0.2453 -0.1714
  708MOL0     H95552  13.084   2.631   9.533  0.1322 -0.1142  2.2245
  708MOL0     H95553  12.957   2.553   9.441 -3.1011  1.3553  1.2616
  708MOL0     H95554  13.126   2.421   9.633 -1.5495 -1.0920  1.3511
  708MOL0     H95555  13.016   2.333   9.543 -2.5230  0.5142 -1.3494
  708MOL0     H95556  13.222   2.488   9.370  0.1697  0.4522 -0.8845
  708MOL0     H95557  13.141   2.333   9.348  0.3214 -4.6059  3.3053
  708MOL0     H95558  13.383   2.305   9.407 -1.3084 -0.1226 -0.7404
  708MOL0     H95559  13.340   2.381   9.566  0.7753 -0.5962 -0.1267
  708MOL0     H95560  12.368   2.357   9.389  3.9287  0.5748  1.3933
  708MOL0     H95561  12.176   2.192   9.374 -2.4888  0.3019  1.9504
  708MOL0     H95562  11.749   2.111   9.292  1.5577  0.0040 -1.9422
  708MOL0     H95563  11.608   1.928   9.229  1.3057 -1.2154 -1.0120
  708MOL0     H95564  10.293   0.738   9.244 -1.8279 -1.0530  0.1129
  708MOL0     H95565  10.056   0.648   9.209 -3.6165  0.2335 -0.4701
  708MOL0     H95566   9.681   0.585   9.238  0.1255  0.6138 -1.2529
  708MOL0     H95567   9.457   0.489   9.239 -0.7462  0.1685  0.8822
  708MOL0     H95568   9.242   0.493   9.405 -0.3055 -0.0909  0.7669
  708MOL0     H95569   9.225   0.415   9.255  3.1887  1.0468  1.3039
  708MOL0     H95570   9.015   0.613   9.350 -0.7400 -0.0565 -2.3298
  708MOL0     H95571   9.017   0.440   9.410 -0.6834  0.4530  0.4305
  708MOL0     H95572   9.018   0.365   9.168  0.2913  0.5403 -2.4404
  708MOL0     H95573   8.999   0.541   9.129 -0.7789  0.1672  0.7062
  708MOL0     H95574   8.789   0.401   9.121  0.1453 -0.9922 -0.2095
  708MOL0     H95575   8.809   0.362   9.300 -1.9886 -0.2888 -0.5587
  708MOL0     H95576   8.670   0.761   9.314 -0.6895  0.7148 -0.0326
  708MOL0     H95577   9.279   0.878   9.226 -0.9678 -1.2421 -0.6971
  708MOL0     H95578   9.405   1.066   9.181  1.9860 -0.3634 -2.4538
  708MOL0     H95579   9.460   1.056   9.350  2.5804 -2.9403  1.6232
  708MOL0     H95580   9.568   1.086   9.210 -1.1567  1.2863 -0.4740
  709MOL0     O95581   7.922   6.555   4.033 -1.1604  0.1400  0.3592
  709MOL0     C95582   7.831   6.627   4.019  0.6929  0.1036  1.4253
  709MOL0     O95583   7.843   6.753   3.976 -0.6873 -0.5087 -0.3608
  709MOL0     C95584   7.960   6.794   3.925  0.5321  0.4433  0.4378
  709MOL0     C95585   8.058   6.851   4.006 -1.0049 -0.2733  0.3948
  709MOL0     C95586   8.178   6.907   3.955 -0.2272  0.9649  0.5865
  709MOL0     C95587   8.199   6.903   3.815 -0.3736  0.0943 -0.6664
  709MOL0     O95588   8.313   6.944   3.750  0.1851 -0.2841  0.3944
  709MOL0     C95589   8.439   6.949   3.823 -0.9226 -0.4657  0.1065
  709MOL0     C95590   8.556   6.943   3.722 -0.1545 -1.1720 -0.5485
  709MOL0     C95591   8.679   6.912   3.803  0.2702 -0.0339  0.3898
  709MOL0     C95592   8.696   6.778   3.864  0.1215  1.1000 -0.1843
  709MOL0     C95593   8.834   6.752   3.909 -0.2971  0.4179 -0.6354
  709MOL0     C95594   8.847   6.618   3.985  0.1436 -0.0524 -0.1234
  709MOL0     C95595   8.998   6.597   4.040  0.6385  0.2581 -0.0022
  709MOL0     C95596   9.080   6.542   3.930  0.1501 -0.1973 -0.6332
  709MOL0     N95597   9.212   6.494   3.972 -0.3883 -0.2545 -0.8225
  709MOL0     C95598   9.337   6.559   3.968  0.7239 -0.2747  1.3336
  709MOL0     C95599   9.427   6.458   3.996  0.2349 -0.0310 -0.6819
  709MOL0     C95600   9.573   6.455   4.009  0.8754 -0.4418  0.2132
  709MOL0     C95601   9.637   6.555   4.098  0.0621  1.0463  0.7306
  709MOL0     C95602   9.585   6.543   4.239  0.2153 -0.2822 -0.0202
  709MOL0     C95603   9.651   6.639   4.331  0.1039 -0.0627  1.5639
  709MOL0     O95604   9.627   6.598   4.462  0.5554  0.5663 -0.5329
  709MOL0     C95605   9.735   6.553   4.537  1.1188  0.8713  0.0419
  709MOL0     C95606   9.735   6.582   4.676  0.5046  0.3234  0.9268
  709MOL0     C95607   9.827   6.535   4.771 -0.2252 -0.3051  0.5028
  709MOL0     C95608   9.927   6.463   4.729 -0.1408  0.7521 -0.2553
  709MOL0     C95609  10.035   6.427   4.818 -0.4253 -0.6339 -0.0352
  709MOL0     O95610  10.139   6.360   4.767  0.0535 -0.6695 -0.0917
  709MOL0     C95611  10.252   6.323   4.842  0.5786  0.1655  0.5641
  709MOL0     C95612  10.292   6.193   4.850  0.3933 -0.2744  0.8173
  709MOL0     C95613  10.409   6.156   4.921  0.1128  0.2015  0.2820
  709MOL0     C95614  10.486   6.242   4.998  1.0474 -0.6897  0.4669
  709MOL0     O95615  10.582   6.206   5.087  1.1941  0.0548 -0.7356
  709MOL0     C95616  10.682   6.115   5.032  0.5922  0.7493  0.8599
  709MOL0     C95617  10.799   6.144   5.109 -0.5799  0.5457 -0.0764
  709MOL0     C95618  10.871   6.281   5.081  0.3496 -0.8721  0.1251
  709MOL0     C95619  10.998   6.292   5.170  0.4270 -0.4047 -0.0154
  709MOL0     C95620  10.951   6.322   5.311 -0.4752 -0.4386 -0.4159
  709MOL0     C95621  11.042   6.279   5.425  0.0000 -0.1314 -0.6007
  709MOL0     C95622  11.188   6.318   5.406  0.1413  0.5807  0.0119
  709MOL0     C95623  11.264   6.349   5.540  0.1681 -0.1015  0.0608
  709MOL0    Cl95624  11.283   6.196   5.645 -0.2243  0.5316  0.1184
  709MOL0     C95625  10.445   6.376   4.981 -0.6837  0.1301 -0.6562
  709MOL0     C95626  10.338   6.419   4.904  0.3494 -0.1129 -0.1312
  709MOL0     O95627  10.029   6.469   4.932 -0.1457  0.2642 -0.2162
  709MOL0     C95628   9.934   6.429   4.591 -0.0474 -0.6059 -0.1702
  709MOL0     C95629   9.841   6.467   4.495  0.4902  0.4417  0.4301
  709MOL0     N95630   9.353   6.346   4.035 -0.2707  0.2131  0.6414
  709MOL0     N95631   9.230   6.362   4.009 -0.2301 -0.5314 -0.3975
  709MOL0     C95632   8.104   6.845   3.731  0.3967 -0.3295  0.0017
  709MOL0     C95633   7.983   6.793   3.782 -0.6397 -0.1650  0.3036
  709MOL0     C95634   7.686   6.581   4.045 -1.1680  0.3572  0.1322
  709MOL0     C95635   7.669   6.481   4.143  1.1523 -0.5514  0.9216
  709MOL0     C95636   7.532   6.438   4.175  0.9960  0.0170 -0.2731
  709MOL0     C95637   7.418   6.477   4.090 -0.4705  0.6800 -0.7558
  709MOL0     O95638   7.287   6.426   4.104  0.1222  0.3308 -0.2771
  709MOL0     C95639   7.232   6.359   4.221 -0.0674  0.1109 -0.6274
  709MOL0     C95640   7.078   6.383   4.219 -0.1198  0.0156  0.0406
  709MOL0     C95641   7.024   6.310   4.096  0.2602 -0.3246  0.3645
  709MOL0     C95642   6.882   6.349   4.086  0.2937 -0.6506 -0.4639
  709MOL0     C95643   6.807   6.261   3.993 -1.1463 -0.3311  0.3359
  709MOL0     C95644   6.736   6.204   3.915 -0.3476 -0.1090  0.1227
  709MOL0     C95645   7.447   6.572   3.997  1.0805  0.2478  0.6229
  709MOL0     C95646   7.569   6.629   3.980  0.3105  0.8358 -0.3094
  709MOL0     C95647   7.579   6.746   3.885 -0.4359  1.0325  0.2302
  709MOL0     H95648   8.045   6.838   4.113  0.0467 -3.1167  0.2694
  709MOL0     H95649   8.258   6.944   4.018  1.2561  0.9848 -1.2589
  709MOL0     H95650   8.439   7.030   3.897  0.8039  1.1209 -1.5408
  709MOL0     H95651   8.445   6.859   3.885 -2.0398 -0.7576 -0.1806
  709MOL0     H95652   8.565   7.044   3.682  1.6689 -0.4426  1.5195
  709MOL0     H95653   8.539   6.871   3.642 -1.7707  0.0988 -1.4122
  709MOL0     H95654   8.681   6.979   3.889 -0.5703  1.1147 -0.4476
  709MOL0     H95655   8.765   6.945   3.744 -0.8115 -1.3460 -2.0715
  709MOL0     H95656   8.627   6.756   3.946  0.0031  0.9932 -0.3114
  709MOL0     H95657   8.679   6.696   3.794  1.2075  0.4438  0.2852
  709MOL0     H95658   8.898   6.742   3.821 -0.4188  2.0415 -0.9251
  709MOL0     H95659   8.874   6.835   3.968 -0.3841  0.5890 -0.8204
  709MOL0     H95660   8.786   6.627   4.076 -2.5441 -2.1171 -1.5515
  709MOL0     H95661   8.810   6.532   3.928  1.7033  0.3105 -1.7503
  709MOL0     H95662   8.984   6.528   4.125 -0.0304 -1.3905 -1.3915
  709MOL0     H95663   9.045   6.685   4.086  2.8617 -0.9469  0.1795
  709MOL0     H95664   9.028   6.453   3.893  3.3455 -2.7863  0.6678
  709MOL0     H95665   9.085   6.612   3.846  0.9902 -0.4107 -0.7689
  709MOL0     H95666   9.358   6.659   3.934 -0.9645 -0.0284  0.9288
  709MOL0     H95667   9.614   6.358   4.039 -1.1635 -2.3609 -2.7230
  709MOL0     H95668   9.611   6.468   3.908 -0.8864  0.9146 -0.3261
  709MOL0     H95669   9.744   6.533   4.092 -0.4277 -1.2212 -0.9416
  709MOL0     H95670   9.626   6.653   4.051  0.8666  2.1376  2.7173
  709MOL0     H95671   9.614   6.444   4.278 -2.1283 -1.6552 -1.5361
  709MOL0     H95672   9.477   6.557   4.243  0.2653 -0.0826  0.8870
  709MOL0     H95673   9.614   6.740   4.313  0.3513 -0.1928  0.1804
  709MOL0     H95674   9.756   6.647   4.301 -0.2731 -2.6633 -1.0240
  709MOL0     H95675   9.645   6.632   4.710  0.2037  0.5836 -0.1934
  709MOL0     H95676   9.819   6.560   4.877  2.0570  0.1090  0.6287
  709MOL0     H95677  10.237   6.118   4.794  1.9090  0.7390 -2.2490
  709MOL0     H95678  10.430   6.050   4.926 -1.5249 -0.1098  1.3023
  709MOL0     H95679  10.656   6.011   5.053  0.7049  0.5798  0.1736
  709MOL0     H95680  10.701   6.126   4.925  0.4299  0.5873  0.8148
  709MOL0     H95681  10.767   6.139   5.214  0.5465 -0.5430  0.2495
  709MOL0     H95682  10.876   6.069   5.089  0.3761  1.9039 -1.7989
  709MOL0     H95683  10.901   6.278   4.976 -2.5361 -0.5704 -0.8076
  709MOL0     H95684  10.799   6.361   5.094 -0.1582 -1.2385 -0.3546
  709MOL0     H95685  11.057   6.376   5.133  0.0515  0.7097  1.7720
  709MOL0     H95686  11.058   6.201   5.177  2.6232  1.0542  1.4505
  709MOL0     H95687  10.856   6.276   5.341 -1.4589  1.1124 -0.9979
  709MOL0     H95688  10.930   6.429   5.321 -1.3505 -0.8112  2.9681
  709MOL0     H95689  11.005   6.324   5.518 -0.2428  1.3047 -1.3558
  709MOL0     H95690  11.026   6.173   5.445  1.0392 -0.4039 -1.1859
  709MOL0     H95691  11.182   6.410   5.348 -1.5306 -0.7914 -2.1422
  709MOL0     H95692  11.242   6.242   5.348 -0.3049  1.0646 -1.0649
  709MOL0     H95693  11.358   6.404   5.526  0.0259  0.4072  1.0168
  709MOL0     H95694  11.198   6.416   5.597 -0.2615 -0.7623  0.3455
  709MOL0     H95695  10.502   6.450   5.035 -0.4269 -1.6278  1.6556
  709MOL0     H95696  10.314   6.525   4.903  0.7523 -0.0045  0.7245
  709MOL0     H95697  10.009   6.362   4.550 -0.7421 -0.4867 -1.7079
  709MOL0     H95698   9.849   6.428   4.394 -0.8076 -4.8230  2.0521
  709MOL0     H95699   8.113   6.836   3.624 -0.3395 -1.5814  0.0332
  709MOL0     H95700   7.913   6.748   3.712  2.7456 -0.6577 -3.1015
  709MOL0     H95701   7.753   6.451   4.205  2.4398  2.2827  0.7073
  709MOL0     H95702   7.516   6.358   4.247 -0.3429 -0.7487 -1.3665
  709MOL0     H95703   7.274   6.401   4.313 -2.8433  0.2235  0.6896
  709MOL0     H95704   7.262   6.254   4.216  1.6467  0.6044 -1.2719
  709MOL0     H95705   7.047   6.489   4.220  2.8265  0.9605  1.0471
  709MOL0     H95706   7.038   6.345   4.314 -1.4085  1.7209  0.2377
  709MOL0     H95707   7.039   6.202   4.102 -0.5883 -0.5392 -0.8713
  709MOL0     H95708   7.085   6.348   4.013  0.6460 -0.4466  0.5879
  709MOL0     H95709   6.837   6.346   4.186  0.1057 -0.6119 -0.5456
  709MOL0     H95710   6.876   6.454   4.059  0.1689 -0.8440 -1.2305
  709MOL0     H95711   6.668   6.138   3.863  1.5421 -1.3973 -0.8342
  709MOL0     H95712   7.363   6.596   3.933  1.3499 -0.4943 -0.0271
  709MOL0     H95713   7.654   6.750   3.806 -1.9295  3.2197 -1.1980
  709MOL0     H95714   7.489   6.754   3.823  1.2730  1.5412 -2.3115
  709MOL0     H95715   7.587   6.844   3.934 -1.5440  0.8340  0.8668
  710MOL0     O95716   7.877   8.650   2.447 -0.4133 -0.1483 -0.4248
  710MOL0     C95717   7.830   8.724   2.533 -0.2520 -0.8432  0.0227
  710MOL0     O95718   7.900   8.829   2.587  0.2115  0.5886 -0.0965
  710MOL0     C95719   8.037   8.824   2.598 -0.0746 -0.1000  0.3998
  710MOL0     C95720   8.109   8.708   2.617  0.1044  0.3208  0.0364
  710MOL0     C95721   8.245   8.709   2.655 -0.1987 -0.4220 -0.5039
  710MOL0     C95722   8.311   8.831   2.688  0.1436  1.0742 -0.4028
  710MOL0     O95723   8.439   8.821   2.733 -0.1845  0.7286 -0.3122
  710MOL0     C95724   8.517   8.939   2.733 -0.3426  0.5787  0.0737
  710MOL0     C95725   8.515   9.026   2.862 -0.7748  0.4524  0.0613
  710MOL0     C95726   8.552   8.950   2.993 -0.8173  0.0080 -0.0504
  710MOL0     C95727   8.700   8.907   3.009  0.3390 -0.0647 -0.3946
  710MOL0     C95728   8.718   8.815   3.140  0.1438 -0.2722  0.0009
  710MOL0     C95729   8.861   8.778   3.146 -0.2693 -0.2577  0.1200
  710MOL0     C95730   8.876   8.684   3.272  0.3468 -0.0477  0.0535
  710MOL0     C95731   8.884   8.757   3.400  0.7062 -0.3859 -0.4527
  710MOL0     N95732   9.015   8.819   3.434  0.1627  0.3307 -0.4388
  710MOL0     C95733   9.037   8.889   3.551 -0.3203 -0.0896 -0.2326
  710MOL0     C95734   9.158   8.947   3.541  0.2450 -0.2656 -0.7233
  710MOL0     C95735   9.238   9.017   3.646  0.4848 -0.1808 -0.2478
  710MOL0     C95736   9.353   8.928   3.690  0.3380 -0.3821  0.4218
  710MOL0     C95737   9.470   9.018   3.741 -0.9149  0.6100 -0.5034
  710MOL0     C95738   9.591   8.921   3.746 -0.5046 -0.3366  0.4684
  710MOL0     O95739   9.708   8.981   3.788 -0.0010  0.2190 -0.6986
  710MOL0     C95740   9.830   8.927   3.776  0.1426 -0.4613  0.9198
  710MOL0     C95741   9.863   8.830   3.687 -0.3911 -0.3289  0.6115
  710MOL0     C95742   9.993   8.778   3.681 -0.3667 -0.2072 -0.8330
  710MOL0     C95743  10.104   8.836   3.756  0.0539  0.1598 -0.1597
  710MOL0     C95744  10.240   8.779   3.744  0.0110  0.2786 -0.8148
  710MOL0     O95745  10.322   8.812   3.848 -0.1151 -0.5902 -0.1245
  710MOL0     C95746  10.456   8.778   3.835  0.2963 -0.5309 -0.2228
  710MOL0     C95747  10.561   8.857   3.795 -0.7041 -0.4258  1.2240
  710MOL0     C95748  10.695   8.804   3.784 -0.3389  0.2111 -0.3453
  710MOL0     C95749  10.719   8.676   3.827 -0.2463 -0.0701 -0.3585
  710MOL0     O95750  10.851   8.636   3.854  0.0771  0.4905 -0.1132
  710MOL0     C95751  10.959   8.725   3.816  0.5213  0.0318 -0.2760
  710MOL0     C95752  11.087   8.642   3.794  0.4731 -0.2669 -0.3168
  710MOL0     C95753  11.213   8.717   3.749  0.5885 -0.7880  0.3529
  710MOL0     C95754  11.201   8.762   3.599 -0.3524 -0.5473 -0.1529
  710MOL0     C95755  11.335   8.818   3.554 -0.0074 -0.3659 -0.6141
  710MOL0     C95756  11.344   8.858   3.410  0.4087  0.2886  0.2387
  710MOL0     C95757  11.479   8.895   3.347  0.1126  0.6801 -0.2845
  710MOL0     C95758  11.540   9.019   3.422  0.1250  0.4516 -0.4905
  710MOL0    Cl95759  11.610   9.127   3.290 -0.3954  0.2826  0.4338
  710MOL0     C95760  10.608   8.599   3.864  0.3583 -0.0278  0.8956
  710MOL0     C95761  10.485   8.649   3.877  0.4429 -0.5113 -1.3503
  710MOL0     O95762  10.270   8.716   3.648 -0.2437 -0.2502 -0.0861
  710MOL0     C95763  10.060   8.934   3.853 -0.3420  1.0607  0.4591
  710MOL0     C95764   9.928   8.978   3.857 -0.2167  0.0967 -0.1957
  710MOL0     N95765   9.210   8.908   3.419 -0.2776 -0.1264  0.6712
  710MOL0     N95766   9.126   8.833   3.358  0.0420  0.1561  0.7034
  710MOL0     C95767   8.242   8.954   2.661  0.3801  0.5088 -0.6020
  710MOL0     C95768   8.107   8.952   2.621  0.0998 -0.4009 -0.1525
  710MOL0     C95769   7.689   8.713   2.559 -1.1247 -0.0344  0.3419
  710MOL0     C95770   7.622   8.838   2.586 -0.6865  0.2797  0.0396
  710MOL0     C95771   7.489   8.836   2.630 -0.0359 -1.2466  0.1691
  710MOL0     C95772   7.420   8.720   2.645  0.7513 -0.3109 -0.1472
  710MOL0     O95773   7.289   8.719   2.689  0.3111  0.2853  0.2939
  710MOL0     C95774   7.242   8.824   2.771 -0.0728 -0.3474 -0.0801
  710MOL0     C95775   7.107   8.789   2.847 -0.2819  0.0902  0.3996
  710MOL0     C95776   7.119   8.668   2.941 -0.4279  0.0356 -0.3144
  710MOL0     C95777   7.003   8.655   3.041 -0.2345 -0.5854  0.1623
  710MOL0     C95778   7.018   8.756   3.147  0.0597 -0.2892  0.2804
  710MOL0     C95779   7.042   8.840   3.231 -0.5240 -0.8276 -0.3624
  710MOL0     C95780   7.479   8.607   2.605  0.7408  0.2389 -0.1433
  710MOL0     C95781   7.618   8.595   2.569 -0.7847 -0.0785  0.0661
  710MOL0     C95782   7.680   8.457   2.568  0.0665 -0.4421 -0.2937
  710MOL0     H95783   8.066   8.610   2.599 -0.3604  0.6100 -0.4603
  710MOL0     H95784   8.294   8.613   2.666  0.0562 -0.1513  0.8640
  710MOL0     H95785   8.618   8.899   2.722 -2.1923 -4.4122 -1.6060
  710MOL0     H95786   8.499   8.993   2.640 -0.9242 -1.2506 -0.9146
  710MOL0     H95787   8.413   9.064   2.875  0.3279  3.2470  1.3456
  710MOL0     H95788   8.581   9.110   2.843 -0.7434  0.1404 -1.2948
  710MOL0     H95789   8.493   8.858   2.996 -0.2783 -0.4319 -1.7178
  710MOL0     H95790   8.531   9.005   3.085  2.2387 -1.8375  1.9054
  710MOL0     H95791   8.730   8.858   2.915 -0.5818 -0.0178 -0.7230
  710MOL0     H95792   8.757   8.999   3.018  0.6257  0.0671 -2.7895
  710MOL0     H95793   8.682   8.858   3.235 -0.6300 -0.5947 -0.1357
  710MOL0     H95794   8.659   8.723   3.129 -0.1443  0.0419 -1.2549
  710MOL0     H95795   8.874   8.721   3.053  0.9702 -2.1669  1.3843
  710MOL0     H95796   8.922   8.869   3.152  1.2976 -1.2926  0.4482
  710MOL0     H95797   8.962   8.620   3.251 -1.0725 -2.2837  0.7902
  710MOL0     H95798   8.792   8.614   3.275  0.0711  0.3040  2.3804
  710MOL0     H95799   8.805   8.832   3.403  2.2008  1.2364  0.3908
  710MOL0     H95800   8.855   8.680   3.472 -2.8772 -0.8062 -2.1392
  710MOL0     H95801   8.974   8.897   3.639 -0.4523 -0.7853 -0.2585
  710MOL0     H95802   9.253   9.117   3.604 -0.8839 -0.1236 -0.6529
  710MOL0     H95803   9.185   9.030   3.741 -0.9026 -0.8009 -0.9128
  710MOL0     H95804   9.313   8.861   3.767 -1.7484 -0.4496 -0.6442
  710MOL0     H95805   9.380   8.870   3.601  1.2895  0.8209 -0.1054
  710MOL0     H95806   9.457   9.053   3.844 -1.0826 -0.9098  0.0182
  710MOL0     H95807   9.503   9.098   3.675 -0.4670  1.1007  0.2926
  710MOL0     H95808   9.592   8.879   3.645  0.4151  0.2698  0.2180
  710MOL0     H95809   9.577   8.831   3.807 -0.4582 -0.5769  0.1287
  710MOL0     H95810   9.793   8.779   3.621 -0.6189 -0.5015  0.9826
  710MOL0     H95811  10.014   8.696   3.613 -0.0014 -0.8256  0.0177
  710MOL0     H95812  10.546   8.960   3.765  0.2634  0.0798  2.4215
  710MOL0     H95813  10.765   8.882   3.757  1.7418 -0.3590  2.8231
  710MOL0     H95814  10.945   8.786   3.726 -0.6785 -0.7286 -0.6269
  710MOL0     H95815  10.981   8.794   3.898  2.1903  2.3388 -2.5126
  710MOL0     H95816  11.108   8.608   3.896 -1.3092  0.1863  0.2447
  710MOL0     H95817  11.067   8.547   3.744  0.3177 -1.6717  2.2573
  710MOL0     H95818  11.235   8.803   3.813  0.9722 -0.6051 -0.0235
  710MOL0     H95819  11.294   8.644   3.756 -1.1890 -3.0138 -0.7133
  710MOL0     H95820  11.122   8.836   3.581  0.5530  0.5375  0.2558
  710MOL0     H95821  11.184   8.672   3.539  1.2288 -2.8962  2.6518
  710MOL0     H95822  11.419   8.748   3.563 -0.2689 -0.6414 -0.2695
  710MOL0     H95823  11.353   8.908   3.613 -1.6735 -1.0112  0.9875
  710MOL0     H95824  11.306   8.776   3.349  3.6380 -1.3212  0.1671
  710MOL0     H95825  11.277   8.944   3.402  0.6581  0.3504 -1.5530
  710MOL0     H95826  11.474   8.924   3.241  0.4566  2.7820  0.2179
  710MOL0     H95827  11.529   8.800   3.368 -1.0919  0.6840  3.1604
  710MOL0     H95828  11.472   9.088   3.473  0.6358  0.5812  0.0261
  710MOL0     H95829  11.603   8.993   3.507  2.1409  2.3162 -1.3015
  710MOL0     H95830  10.626   8.500   3.904  0.2025 -0.5186 -0.2089
  710MOL0     H95831  10.408   8.593   3.928  1.6056  0.8701  2.1947
  710MOL0     H95832  10.138   8.963   3.924  1.0426 -3.5536  1.1267
  710MOL0     H95833   9.899   9.055   3.927 -1.6956 -0.3163 -0.3318
  710MOL0     H95834   8.301   9.045   2.658  0.2133  0.7263  1.4202
  710MOL0     H95835   8.056   9.046   2.608 -0.0796 -0.3706  0.7674
  710MOL0     H95836   7.669   8.934   2.568  0.6090 -0.4548 -0.6605
  710MOL0     H95837   7.446   8.933   2.654  0.6028 -1.4549  2.3929
  710MOL0     H95838   7.229   8.913   2.708  1.3491 -0.7605 -0.9973
  710MOL0     H95839   7.325   8.834   2.841  0.2988 -1.3563 -0.3555
  710MOL0     H95840   7.025   8.778   2.775  0.5341  3.4402 -1.2613
  710MOL0     H95841   7.080   8.877   2.907  1.7297  2.3613 -1.7933
  710MOL0     H95842   7.220   8.666   2.985  0.5132 -2.7553 -2.2612
  710MOL0     H95843   7.119   8.584   2.871 -0.2612  0.9064 -1.3782
  710MOL0     H95844   6.911   8.679   2.985  0.4854 -0.1503 -0.8730
  710MOL0     H95845   6.996   8.552   3.077 -3.7105 -0.4927  0.1686
  710MOL0     H95846   7.069   8.928   3.286  2.8338 -1.5487 -0.6617
  710MOL0     H95847   7.419   8.517   2.616  2.7154 -0.9873  1.0838
  710MOL0     H95848   7.604   8.381   2.589 -2.3543  1.5847 -1.0983
  710MOL0     H95849   7.723   8.437   2.469  2.4344  1.3390  0.2926
  710MOL0     H95850   7.756   8.446   2.645 -0.7104 -3.9290  0.1065
  711MOL0     O95851   5.931   5.454   8.126  0.7346  0.4656 -0.2513
  711MOL0     C95852   5.871   5.547   8.083  0.5042 -0.5453 -0.0495
  711MOL0     O95853   5.923   5.666   8.055 -0.1249 -0.4743 -0.3058
  711MOL0     C95854   6.048   5.702   8.073  0.1407  0.4691 -0.9567
  711MOL0     C95855   6.078   5.753   8.207  0.1429  0.5885  0.4701
  711MOL0     C95856   6.208   5.771   8.251  0.5681 -1.3120 -0.0263
  711MOL0     C95857   6.314   5.744   8.166 -0.7462  0.7962  0.0809
  711MOL0     O95858   6.446   5.767   8.198  0.2488  0.1495  0.0333
  711MOL0     C95859   6.464   5.800   8.338 -0.0993 -0.7168 -0.0989
  711MOL0     C95860   6.616   5.834   8.356 -0.0971  0.7287  0.6668
  711MOL0     C95861   6.711   5.712   8.360  0.3833  1.0731 -0.2794
  711MOL0     C95862   6.708   5.639   8.493  0.1856  0.0196  0.8029
  711MOL0     C95863   6.825   5.551   8.520  0.2473  0.2210  0.5217
  711MOL0     C95864   6.801   5.478   8.651 -0.9256  0.6997  0.6702
  711MOL0     C95865   6.924   5.392   8.678  0.0376 -0.4287 -0.1667
  711MOL0     C95866   6.924   5.331   8.824  0.4027  0.2327  0.0826
  711MOL0     N95867   7.062   5.293   8.852  0.3465 -0.2284  0.4408
  711MOL0     C95868   7.133   5.195   8.795 -0.0661  0.0241 -0.8302
  711MOL0     C95869   7.263   5.211   8.839 -0.0157 -0.1589  0.5127
  711MOL0     C95870   7.370   5.119   8.821 -0.3587  0.0999  0.3427
  711MOL0     C95871   7.491   5.189   8.755 -0.0683 -0.1671  0.5220
  711MOL0     C95872   7.613   5.103   8.730 -0.2935 -0.2167  0.3779
  711MOL0     C95873   7.742   5.185   8.687 -0.0279 -0.0460  0.2503
  711MOL0     O95874   7.850   5.118   8.626  0.2958 -0.2416  0.2212
  711MOL0     C95875   7.964   5.196   8.592 -0.0123 -0.7377 -0.6401
  711MOL0     C95876   8.092   5.136   8.569  0.3887 -0.0958  0.9197
  711MOL0     C95877   8.205   5.212   8.551 -0.5392  0.3130  0.0668
  711MOL0     C95878   8.206   5.353   8.560 -0.3448  0.1866  0.7490
  711MOL0     C95879   8.340   5.419   8.552 -0.3228 -0.1661  0.2646
  711MOL0     O95880   8.347   5.554   8.528 -0.0117  0.1164  0.1115
  711MOL0     C95881   8.471   5.601   8.487 -0.2229  1.2649 -0.1175
  711MOL0     C95882   8.511   5.575   8.354  0.0656 -0.2762 -0.3666
  711MOL0     C95883   8.643   5.621   8.313  1.0290  0.0618 -0.1651
  711MOL0     C95884   8.723   5.698   8.395  0.7915 -0.2503  0.5422
  711MOL0     O95885   8.834   5.774   8.366  0.0468  0.4199  0.3896
  711MOL0     C95886   8.883   5.761   8.236  0.4279  0.2837 -0.6822
  711MOL0     C95887   8.988   5.868   8.220 -0.2684 -0.2605 -0.7742
  711MOL0     C95888   9.122   5.851   8.290 -0.7130 -0.3233  0.4677
  711MOL0     C95889   9.212   5.968   8.257 -0.2147 -0.6839  0.0924
  711MOL0     C95890   9.332   5.973   8.343 -0.2307 -0.0103 -0.1536
  711MOL0     C95891   9.436   6.082   8.316 -0.1093 -0.4694 -0.2315
  711MOL0     C95892   9.566   6.035   8.384 -1.1925 -0.4835 -0.0125
  711MOL0     C95893   9.686   6.118   8.339 -0.3823 -0.3097  0.0079
  711MOL0    Cl95894   9.654   6.298   8.382  0.1595 -0.1256  0.4022
  711MOL0     C95895   8.682   5.717   8.529 -0.2135 -0.3459 -0.0400
  711MOL0     C95896   8.558   5.667   8.573 -0.2195 -0.3645  0.8616
  711MOL0     O95897   8.441   5.344   8.563  0.0237 -0.2042  0.7629
  711MOL0     C95898   8.078   5.413   8.576 -0.2659  0.0415 -0.6035
  711MOL0     C95899   7.962   5.334   8.588  0.1103 -0.7758 -0.3926
  711MOL0     N95900   7.263   5.326   8.909  0.0211  0.5780  1.2753
  711MOL0     N95901   7.147   5.372   8.915  0.8237 -0.2612  0.1457
  711MOL0     C95902   6.287   5.706   8.030  0.4772  0.0256 -0.5145
  711MOL0     C95903   6.157   5.675   7.995 -0.1394  0.4323  0.4933
  711MOL0     C95904   5.723   5.548   8.091 -0.1022 -0.0174 -0.3536
  711MOL0     C95905   5.666   5.487   8.198 -0.3435  1.4747  0.0537
  711MOL0     C95906   5.535   5.494   8.218 -0.6521  0.4272 -0.0239
  711MOL0     C95907   5.451   5.549   8.126  0.5383  0.1733 -0.9169
  711MOL0     O95908   5.310   5.525   8.126  0.5521 -0.2395 -0.2236
  711MOL0     C95909   5.235   5.513   8.244  0.9335 -0.0627  0.6897
  711MOL0     C95910   5.085   5.535   8.222 -0.2925 -0.1817 -0.5372
  711MOL0     C95911   5.014   5.561   8.351 -0.1609  0.6385  0.2618
  711MOL0     C95912   4.865   5.575   8.322  0.8099 -0.4901  0.0444
  711MOL0     C95913   4.800   5.628   8.440 -0.2159  0.5926 -0.0257
  711MOL0     C95914   4.740   5.669   8.535  0.1420 -0.9252 -0.3624
  711MOL0     C95915   5.511   5.607   8.015 -0.7118 -0.7833 -0.0758
  711MOL0     C95916   5.639   5.601   7.994 -0.4231 -0.2221  0.0652
  711MOL0     C95917   5.701   5.619   7.855  0.4138 -0.0776 -0.3256
  711MOL0     H95918   5.997   5.774   8.276  1.5692  2.8061  1.5857
  711MOL0     H95919   6.214   5.793   8.357  1.9160 -1.1542 -0.1248
  711MOL0     H95920   6.421   5.900   8.348  0.8288 -0.2423 -0.6872
  711MOL0     H95921   6.445   5.726   8.416 -1.0311  1.7344  2.1638
  711MOL0     H95922   6.629   5.896   8.445 -0.5258 -0.1358  1.3463
  711MOL0     H95923   6.653   5.899   8.276 -2.7219  0.2930 -1.0182
  711MOL0     H95924   6.816   5.732   8.336  0.8873 -1.2923 -0.3035
  711MOL0     H95925   6.683   5.645   8.278  1.3280  0.3622 -0.0305
  711MOL0     H95926   6.714   5.715   8.572 -0.3539  0.9363 -0.0186
  711MOL0     H95927   6.610   5.590   8.504  0.8664 -1.7793 -0.6656
  711MOL0     H95928   6.821   5.483   8.435 -1.8551  2.2923 -1.1904
  711MOL0     H95929   6.920   5.605   8.517 -1.3656  3.2392 -1.5484
  711MOL0     H95930   6.788   5.547   8.735 -0.7954  0.4843  0.8707
  711MOL0     H95931   6.710   5.417   8.643 -2.6695  2.9924  1.8776
  711MOL0     H95932   7.014   5.455   8.678  0.2346 -0.6016  2.2132
  711MOL0     H95933   6.939   5.313   8.603  0.5906  0.9189 -1.5369
  711MOL0     H95934   6.885   5.404   8.895 -0.4375 -1.8470  1.8383
  711MOL0     H95935   6.858   5.244   8.831 -0.3634  0.8111  0.2087
  711MOL0     H95936   7.094   5.126   8.721 -1.9448 -0.6723  0.7474
  711MOL0     H95937   7.403   5.083   8.919 -3.1766  1.2028  1.8015
  711MOL0     H95938   7.341   5.042   8.749  1.3329 -0.6179  0.3674
  711MOL0     H95939   7.444   5.231   8.666  0.4548 -2.6176 -1.0243
  711MOL0     H95940   7.524   5.264   8.827  1.8150  0.0842 -0.5184
  711MOL0     H95941   7.584   5.035   8.650  1.2149 -0.6546  0.1654
  711MOL0     H95942   7.640   5.042   8.817  0.5418  2.0962  1.8410
  711MOL0     H95943   7.781   5.238   8.774 -0.6660  1.8994 -0.5911
  711MOL0     H95944   7.714   5.268   8.622  0.8031 -0.0546 -0.1304
  711MOL0     H95945   8.104   5.028   8.562 -0.3519 -0.0518 -2.2047
  711MOL0     H95946   8.293   5.158   8.519 -0.7026 -1.0193  1.7218
  711MOL0     H95947   8.449   5.527   8.279 -1.3651 -0.1587  0.6913
  711MOL0     H95948   8.673   5.593   8.212 -5.1005  1.6144 -2.9511
  711MOL0     H95949   8.927   5.662   8.224 -0.6426 -0.0178 -2.4112
  711MOL0     H95950   8.805   5.777   8.161  0.0939 -2.5808 -1.0276
  711MOL0     H95951   9.017   5.871   8.115 -0.3852  0.1212 -0.7963
  711MOL0     H95952   8.939   5.963   8.242  0.8226  0.0686  0.4036
  711MOL0     H95953   9.113   5.838   8.399  0.3304 -1.2230  0.4619
  711MOL0     H95954   9.168   5.766   8.240  0.1603  0.0138  0.6729
  711MOL0     H95955   9.161   6.060   8.288 -0.0883 -0.2185 -1.0453
  711MOL0     H95956   9.240   5.972   8.151 -0.6322 -1.9665 -0.0749
  711MOL0     H95957   9.382   5.875   8.343  1.1334  0.4453  4.3022
  711MOL0     H95958   9.299   5.989   8.446 -0.0302  3.9695 -0.5616
  711MOL0     H95959   9.442   6.096   8.207  1.7641 -0.6344 -0.1802
  711MOL0     H95960   9.399   6.172   8.365 -0.1649  0.7693 -2.4047
  711MOL0     H95961   9.586   5.930   8.362 -1.9625 -0.9590  1.3715
  711MOL0     H95962   9.557   6.046   8.493 -0.8630  3.0613 -0.2140
  711MOL0     H95963   9.784   6.087   8.377  0.3779  2.0667  0.1817
  711MOL0     H95964   9.702   6.105   8.231  1.2725 -0.2969  0.2268
  711MOL0     H95965   8.746   5.772   8.597 -1.8050  0.9048  0.4992
  711MOL0     H95966   8.523   5.693   8.672 -3.4116 -1.6532  0.1809
  711MOL0     H95967   8.078   5.517   8.605 -2.5627  0.1407 -0.8024
  711MOL0     H95968   7.873   5.383   8.624  0.1983 -2.6969  2.8464
  711MOL0     H95969   6.367   5.700   7.956  1.5143 -3.9122  0.6820
  711MOL0     H95970   6.150   5.632   7.895  3.8877  0.4297  0.0276
  711MOL0     H95971   5.727   5.452   8.280 -0.3198  1.6479  0.1095
  711MOL0     H95972   5.478   5.452   8.301 -1.7463  4.1832  1.3279
  711MOL0     H95973   5.271   5.590   8.313  1.1620  0.2126  0.2745
  711MOL0     H95974   5.253   5.414   8.286  2.2187 -0.2694 -0.2616
  711MOL0     H95975   5.042   5.449   8.168 -2.2957  0.5800 -0.2456
  711MOL0     H95976   5.071   5.624   8.160  1.8906  1.7666  1.6066
  711MOL0     H95977   5.051   5.646   8.408  1.5371 -0.8956  1.5680
  711MOL0     H95978   5.038   5.479   8.420  1.4506 -0.3844 -1.4320
  711MOL0     H95979   4.840   5.642   8.239 -0.4473 -0.1545  0.6680
  711MOL0     H95980   4.819   5.479   8.295  0.2511  0.1917 -1.6145
  711MOL0     H95981   4.683   5.713   8.614  1.3523 -0.8857  0.5053
  711MOL0     H95982   5.439   5.648   7.946 -0.6322  2.9144  1.7735
  711MOL0     H95983   5.780   5.694   7.861  0.0844  0.5365 -2.5954
  711MOL0     H95984   5.748   5.531   7.809  2.0665 -0.0548  1.2167
  711MOL0     H95985   5.623   5.660   7.790 -0.0670  0.1413  0.3806
  712MOL0     O95986   0.358   4.511   7.944  0.4870  0.5545 -0.0776
  712MOL0     C95987   0.349   4.387   7.948  0.2174  0.0076  0.4147
  712MOL0     O95988   0.457   4.297   7.952  1.1584 -0.6638  0.6681
  712MOL0     C95989   0.584   4.326   7.987 -0.7816 -0.4745  0.3794
  712MOL0     C95990   0.636   4.441   8.055  0.3354  0.3877  0.7669
  712MOL0     C95991   0.771   4.449   8.089 -0.1108 -0.0086  0.7451
  712MOL0     C95992   0.856   4.341   8.048 -0.6495 -0.4172  0.3828
  712MOL0     O95993   0.987   4.319   8.087 -0.3608  0.0837 -0.4351
  712MOL0     C95994   1.030   4.404   8.196 -0.2999 -0.2272  1.0849
  712MOL0     C95995   1.163   4.356   8.271  0.7127  0.6049  0.1517
  712MOL0     C95996   1.284   4.344   8.176  0.7394 -1.4274  0.4964
  712MOL0     C95997   1.403   4.280   8.242 -0.5718 -0.0201  0.4004
  712MOL0     C95998   1.537   4.287   8.161  0.3897 -0.0405  0.0910
  712MOL0     C95999   1.535   4.174   8.055 -0.5493 -0.5372 -0.8091
  712MOL0     C96000   1.653   4.188   7.962 -0.1803 -0.2881 -0.2040
  712MOL0     C96001   1.791   4.138   8.011  0.2297 -0.6760 -0.2963
  712MOL0     N96002   1.878   4.239   8.066  0.1568 -0.7561 -0.4869
  712MOL0     C96003   2.016   4.218   8.095  0.8271 -0.1588  0.7519
  712MOL0     C96004   2.051   4.333   8.165  0.3645 -0.0052  0.2827
  712MOL0     C96005   2.178   4.351   8.238 -0.8993  0.2137  0.6866
  712MOL0     C96006   2.151   4.416   8.378  0.3822  0.1818  0.0443
  712MOL0     C96007   2.273   4.499   8.435 -0.9289  0.4522  0.1433
  712MOL0     C96008   2.387   4.410   8.497  0.4967 -0.4904  0.0141
  712MOL0     O96009   2.483   4.354   8.406  0.4068 -0.5290  0.6157
  712MOL0     C96010   2.590   4.289   8.460  0.1768 -0.1425 -0.1187
  712MOL0     C96011   2.599   4.235   8.590 -0.0215  0.1947  0.6425
  712MOL0     C96012   2.705   4.152   8.629  0.1446  0.7845  0.8505
  712MOL0     C96013   2.800   4.109   8.528  0.1557 -0.0951  0.6063
  712MOL0     C96014   2.911   4.021   8.571 -0.1471  0.0077 -0.3026
  712MOL0     O96015   3.007   4.001   8.479 -0.1705 -0.6307 -0.1656
  712MOL0     C96016   3.091   3.907   8.523  1.1223  0.3008  0.2048
  712MOL0     C96017   3.212   3.941   8.582  0.7675 -0.4043  0.0051
  712MOL0     C96018   3.314   3.853   8.599 -0.8081  0.3268 -0.9317
  712MOL0     C96019   3.298   3.715   8.562 -0.0726  0.5892  0.1725
  712MOL0     O96020   3.392   3.615   8.575 -1.2502 -0.0582  0.0763
  712MOL0     C96021   3.505   3.633   8.660 -0.1626 -0.4856 -0.1608
  712MOL0     C96022   3.553   3.489   8.674 -0.2646 -0.3452 -0.2027
  712MOL0     C96023   3.669   3.476   8.765 -0.3141  0.2338  0.4377
  712MOL0     C96024   3.624   3.484   8.906  0.0400  0.6521 -0.8815
  712MOL0     C96025   3.737   3.474   9.013 -0.3988 -0.9511  0.5726
  712MOL0     C96026   3.823   3.351   9.008 -0.1581 -0.6692 -0.6687
  712MOL0     C96027   3.908   3.337   9.128  1.5993 -0.7148  0.3025
  712MOL0     C96028   3.962   3.196   9.143 -0.2788  0.5133 -0.1428
  712MOL0    Cl96029   4.076   3.158   9.015  0.0803 -0.1670  0.5316
  712MOL0     C96030   3.176   3.677   8.497  0.9939 -0.4571 -0.2331
  712MOL0     C96031   3.074   3.770   8.483  0.3032  0.0001 -0.5390
  712MOL0     O96032   2.918   3.992   8.690  0.0785 -0.2547 -0.3689
  712MOL0     C96033   2.787   4.152   8.390  0.9452 -0.3043 -0.5445
  712MOL0     C96034   2.685   4.241   8.366  0.8121 -1.1439  0.2006
  712MOL0     N96035   1.945   4.421   8.170  0.4505 -0.0979 -1.2574
  712MOL0     N96036   1.843   4.364   8.111  1.1366  0.5944  0.0441
  712MOL0     C96037   0.805   4.228   7.985 -0.1830 -1.0420 -0.5720
  712MOL0     C96038   0.673   4.226   7.953  0.7587 -0.1922 -0.5493
  712MOL0     C96039   0.220   4.322   7.949  0.7191  0.5697  0.1182
  712MOL0     C96040   0.202   4.193   7.997  0.5400 -0.2164 -0.5526
  712MOL0     C96041   0.084   4.133   7.985  0.4362 -0.0043  0.7725
  712MOL0     C96042  -0.028   4.187   7.917 -0.5928  0.3670 -0.2854
  712MOL0     O96043  -0.150   4.134   7.924 -0.0243  0.0595  0.3826
  712MOL0     C96044  -0.178   3.999   7.971 -0.3720  0.5004 -0.2346
  712MOL0     C96045  -0.332   3.978   7.963  0.4490  0.3739  0.6599
  712MOL0     C96046  -0.422   4.065   8.047 -0.5066  0.0316  0.4432
  712MOL0     C96047  -0.572   4.039   8.006 -0.3747 -0.1055  1.0256
  712MOL0     C96048  -0.649   4.084   8.116 -0.8901  0.3743 -0.6466
  712MOL0     C96049  -0.689   4.116   8.226  0.3358  0.0862 -0.3765
  712MOL0     C96050  -0.012   4.320   7.876 -0.5523 -0.5484  0.8449
  712MOL0     C96051   0.109   4.392   7.897  0.8342 -0.2223  0.6077
  712MOL0     C96052   0.092   4.535   7.843 -0.0717 -0.2981  0.3054
  712MOL0     H96053   0.578   4.518   8.104  0.4586 -1.4101  4.0963
  712MOL0     H96054   0.803   4.538   8.141 -0.7793  0.5983  0.1513
  712MOL0     H96055   1.042   4.505   8.155  0.0299  0.7908  3.4978
  712MOL0     H96056   0.956   4.408   8.276  0.9629  1.8885  2.2689
  712MOL0     H96057   1.143   4.258   8.317 -0.2877  1.1552  0.9292
  712MOL0     H96058   1.175   4.425   8.354  1.1936 -2.5009  2.8867
  712MOL0     H96059   1.307   4.445   8.141 -1.3858 -1.1823 -0.3629
  712MOL0     H96060   1.252   4.271   8.101 -2.0583  1.1416 -1.0159
  712MOL0     H96061   1.416   4.319   8.343  1.0070 -2.3409  1.1587
  712MOL0     H96062   1.367   4.179   8.261 -0.0312 -0.0715  1.1578
  712MOL0     H96063   1.570   4.387   8.131 -0.7715  1.0235  2.1444
  712MOL0     H96064   1.617   4.249   8.225 -0.5632 -2.2935  0.0503
  712MOL0     H96065   1.545   4.079   8.108 -0.2888  1.6624  3.4960
  712MOL0     H96066   1.439   4.172   8.004 -1.2565 -2.7828  0.4927
  712MOL0     H96067   1.661   4.294   7.937 -1.7902  0.1322  0.9276
  712MOL0     H96068   1.613   4.130   7.878 -1.8603 -2.9674  2.2762
  712MOL0     H96069   1.774   4.075   8.099 -2.8685  0.3924 -0.0206
  712MOL0     H96070   1.831   4.079   7.928 -2.3656 -1.3962 -1.1205
  712MOL0     H96071   2.073   4.128   8.076 -0.4755 -1.3932  2.3048
  712MOL0     H96072   2.216   4.249   8.252 -1.4640 -0.0989  0.0010
  712MOL0     H96073   2.242   4.414   8.176  0.5786 -1.9664 -0.1158
  712MOL0     H96074   2.080   4.498   8.359  2.0103  2.2536  2.2872
  712MOL0     H96075   2.107   4.347   8.450  2.4785 -1.7868 -0.4564
  712MOL0     H96076   2.229   4.554   8.518  1.6586  1.1265  1.1506
  712MOL0     H96077   2.307   4.571   8.359 -1.0422 -1.5931 -1.9616
  712MOL0     H96078   2.333   4.332   8.552  1.4541 -0.0728  1.6146
  712MOL0     H96079   2.429   4.473   8.577  1.2246  0.9279 -1.4369
  712MOL0     H96080   2.533   4.273   8.668 -0.3612 -2.5004  1.7724
  712MOL0     H96081   2.715   4.115   8.731 -0.3403 -1.2575  0.2047
  712MOL0     H96082   3.227   4.045   8.609  1.9631 -1.1902  2.6327
  712MOL0     H96083   3.411   3.879   8.639 -0.7981 -2.0803  0.8900
  712MOL0     H96084   3.581   3.699   8.617  1.0456 -2.8488 -1.9043
  712MOL0     H96085   3.474   3.663   8.760  0.0446 -1.9124  0.3506
  712MOL0     H96086   3.474   3.422   8.710  0.6488 -1.3779 -0.0508
  712MOL0     H96087   3.593   3.459   8.576 -3.1756  1.1238 -1.9617
  712MOL0     H96088   3.728   3.386   8.745  0.3063  0.7523 -0.1355
  712MOL0     H96089   3.744   3.555   8.753 -0.3284  0.3445  1.0280
  712MOL0     H96090   3.548   3.408   8.930  2.6834 -2.2137 -1.0131
  712MOL0     H96091   3.582   3.584   8.925 -1.5784  0.1390 -1.6135
  712MOL0     H96092   3.686   3.462   9.110 -0.4358 -1.3561  0.5073
  712MOL0     H96093   3.809   3.556   9.008 -1.8737  0.4233 -5.2854
  712MOL0     H96094   3.757   3.264   9.005 -2.0073  0.5616  1.3297
  712MOL0     H96095   3.881   3.354   8.915 -0.9138  1.4607 -1.1090
  712MOL0     H96096   3.855   3.363   9.220  0.1362 -1.8094 -0.2080
  712MOL0     H96097   4.001   3.393   9.112  2.0415 -1.4706  0.1646
  712MOL0     H96098   4.010   3.186   9.240  2.2398 -1.1416 -1.4527
  712MOL0     H96099   3.884   3.119   9.147  1.4110 -1.3187 -1.0585
  712MOL0     H96100   3.170   3.575   8.461 -0.0332 -0.5664  0.2176
  712MOL0     H96101   2.983   3.750   8.428 -0.5345  0.3623  0.6931
  712MOL0     H96102   2.851   4.107   8.314 -0.5294 -2.2551 -0.7462
  712MOL0     H96103   2.671   4.267   8.262 -1.9912 -0.9229  0.5411
  712MOL0     H96104   0.875   4.147   7.967  0.7622 -0.2888 -0.3600
  712MOL0     H96105   0.633   4.132   7.917 -0.0191 -0.1061  0.0693
  712MOL0     H96106   0.278   4.136   8.049  0.1531 -0.6121 -0.4124
  712MOL0     H96107   0.075   4.040   8.039  0.5029  0.7220  2.0699
  712MOL0     H96108  -0.148   3.979   8.074 -0.9505  2.2865  0.3297
  712MOL0     H96109  -0.117   3.931   7.911  1.8554  2.0924  0.1215
  712MOL0     H96110  -0.360   3.873   7.979  1.1544  0.0310 -0.2713
  712MOL0     H96111  -0.362   3.987   7.859 -3.6811  0.6926  1.7020
  712MOL0     H96112  -0.395   4.168   8.022 -0.0756 -0.5898 -1.8764
  712MOL0     H96113  -0.402   4.037   8.151  1.0787  0.1156  0.1844
  712MOL0     H96114  -0.593   4.094   7.914 -1.0867 -1.6758  0.1992
  712MOL0     H96115  -0.596   3.932   7.998 -1.9330  0.3854 -2.9348
  712MOL0     H96116  -0.720   4.136   8.327  0.9025 -0.5239 -0.0754
  712MOL0     H96117  -0.106   4.365   7.848 -0.5344 -0.7811  0.4082
  712MOL0     H96118   0.158   4.616   7.877  0.8369 -0.8935 -0.0001
  712MOL0     H96119   0.091   4.536   7.733  1.2247 -1.5643  0.2519
  712MOL0     H96120  -0.004   4.565   7.885 -0.7699 -3.0220  0.8533
  713MOL0     O96121   1.492   2.849   2.410  0.3775 -0.8083 -0.2530
  713MOL0     C96122   1.442   2.814   2.516 -0.1428  0.8409 -0.7984
  713MOL0     O96123   1.508   2.728   2.607 -0.9595 -0.4116  0.0138
  713MOL0     C96124   1.631   2.673   2.585  0.3423  0.2145 -0.3934
  713MOL0     C96125   1.642   2.536   2.624  0.1959 -0.0559  0.2452
  713MOL0     C96126   1.760   2.469   2.607  0.2632 -0.2755  1.0010
  713MOL0     C96127   1.866   2.544   2.548  0.1851  0.8029  0.6063
  713MOL0     O96128   1.990   2.485   2.518  0.2939  0.0912 -0.1608
  713MOL0     C96129   2.042   2.393   2.617 -1.4992  0.0881  1.1614
  713MOL0     C96130   2.190   2.353   2.591 -0.0978 -0.6053 -0.2021
  713MOL0     C96131   2.233   2.251   2.691 -0.6835 -0.4266  0.4130
  713MOL0     C96132   2.380   2.209   2.658 -0.0680 -0.6323 -0.1137
  713MOL0     C96133   2.376   2.109   2.545  0.0878  0.2306  0.3236
  713MOL0     C96134   2.501   2.093   2.453 -0.7557  0.3434 -0.2081
  713MOL0     C96135   2.465   1.966   2.369 -0.6664 -0.3688  0.2851
  713MOL0     C96136   2.581   1.918   2.279  1.1651 -0.1298 -0.2951
  713MOL0     N96137   2.688   1.859   2.356  0.9559  0.6240 -0.0641
  713MOL0     C96138   2.708   1.720   2.382  0.5994 -0.5846 -0.0627
  713MOL0     C96139   2.800   1.708   2.478  0.9007  0.0879 -0.0417
  713MOL0     C96140   2.857   1.589   2.546 -0.5210  0.5001  0.0682
  713MOL0     C96141   2.942   1.494   2.466  0.8425 -0.5460 -0.0629
  713MOL0     C96142   2.960   1.348   2.522 -0.0158 -1.0994 -0.3791
  713MOL0     C96143   2.990   1.255   2.408 -0.2946  0.1792  0.2104
  713MOL0     O96144   3.044   1.127   2.451 -0.4291 -0.3539  0.2020
  713MOL0     C96145   3.113   1.050   2.363 -0.2550 -0.3939  0.0810
  713MOL0     C96146   3.072   1.032   2.228 -0.5264 -1.3489 -0.3707
  713MOL0     C96147   3.135   0.934   2.158 -0.1422 -0.1540 -0.2243
  713MOL0     C96148   3.227   0.852   2.207 -0.3810 -0.8020  0.1213
  713MOL0     C96149   3.277   0.734   2.138 -0.1583 -0.1919 -0.2440
  713MOL0     O96150   3.317   0.629   2.217  0.0469  0.3447 -0.0968
  713MOL0     C96151   3.367   0.503   2.171  0.6573 -0.4817  0.1756
  713MOL0     C96152   3.430   0.425   2.269  0.4211 -0.7221  0.2123
  713MOL0     C96153   3.482   0.307   2.235 -0.5031 -0.3907  0.1533
  713MOL0     C96154   3.474   0.251   2.109 -0.8949 -0.0553 -0.2936
  713MOL0     O96155   3.531   0.135   2.063 -0.4581 -0.3994 -0.1716
  713MOL0     C96156   3.645   0.084   2.130  0.1911 -0.0161 -0.5842
  713MOL0     C96157   3.618  -0.045   2.204  0.7898  0.0586 -0.2781
  713MOL0     C96158   3.744  -0.086   2.287  0.1586 -0.1296  0.0020
  713MOL0     C96159   3.781  -0.237   2.253  0.7142  0.0559 -0.0797
  713MOL0     C96160   3.869  -0.294   2.356 -0.5234  0.0241  0.3317
  713MOL0     C96161   4.004  -0.228   2.351 -0.2710 -0.6287 -0.1516
  713MOL0     C96162   4.113  -0.295   2.436  0.0847  0.4654  0.6513
  713MOL0     C96163   4.247  -0.261   2.374 -0.1767  0.4450 -0.7504
  713MOL0    Cl96164   4.293  -0.077   2.341 -0.0613 -0.6183 -0.1438
  713MOL0     C96165   3.413   0.331   2.009  0.5894 -0.1523 -0.0308
  713MOL0     C96166   3.357   0.455   2.043  0.6951 -0.0112 -0.7496
  713MOL0     O96167   3.262   0.736   2.015  0.0574 -0.8485 -0.1065
  713MOL0     C96168   3.275   0.877   2.334 -0.5075 -0.2584  1.1202
  713MOL0     C96169   3.219   0.972   2.416  0.4859 -0.0939  0.1326
  713MOL0     N96170   2.828   1.842   2.523 -1.2533 -0.9024 -0.4774
  713MOL0     N96171   2.766   1.922   2.443 -0.0760  0.4073  0.7124
  713MOL0     C96172   1.859   2.679   2.510 -0.6639 -0.1449  0.2627
  713MOL0     C96173   1.734   2.740   2.526  0.5433 -0.2044 -0.1048
  713MOL0     C96174   1.306   2.851   2.547  0.6270  0.3337 -0.0322
  713MOL0     C96175   1.258   2.975   2.493 -0.1688  0.2097  0.3910
  713MOL0     C96176   1.126   3.007   2.491  0.3178  0.3278  0.2485
  713MOL0     C96177   1.027   2.929   2.551  0.3199  0.4046 -0.1231
  713MOL0     O96178   0.897   2.969   2.561 -0.5260 -0.8143 -0.0137
  713MOL0     C96179   0.868   3.112   2.560 -0.4071 -0.9343  0.4016
  713MOL0     C96180   0.922   3.193   2.680 -0.2591  0.2649 -0.0601
  713MOL0     C96181   0.890   3.134   2.816  0.3304  0.6762 -0.2738
  713MOL0     C96182   0.991   3.213   2.907 -0.2664  0.3827 -0.7312
  713MOL0     C96183   1.122   3.150   2.907  0.8039 -0.8285 -0.1414
  713MOL0     C96184   1.226   3.091   2.901 -0.0069  0.0942  0.3396
  713MOL0     C96185   1.075   2.813   2.616 -0.5127  0.4246 -0.3639
  713MOL0     C96186   1.209   2.763   2.615 -0.4182 -0.8916  0.2841
  713MOL0     C96187   1.248   2.638   2.691 -0.0687 -0.6958  0.1317
  713MOL0     H96188   1.560   2.473   2.657 -0.5245  0.3355 -0.7523
  713MOL0     H96189   1.772   2.363   2.627  0.1163 -0.1126  2.0138
  713MOL0     H96190   2.042   2.447   2.712 -2.0868  0.1463  1.1298
  713MOL0     H96191   1.987   2.299   2.631  1.0261 -1.9532 -1.4798
  713MOL0     H96192   2.242   2.449   2.591 -4.1574  1.8640 -1.6649
  713MOL0     H96193   2.189   2.319   2.487  1.0371 -1.1932 -0.0346
  713MOL0     H96194   2.172   2.161   2.693  2.6259 -2.8927 -1.0786
  713MOL0     H96195   2.220   2.288   2.794  2.4155 -2.9806  1.9211
  713MOL0     H96196   2.427   2.302   2.627 -2.5618  1.0211  0.7778
  713MOL0     H96197   2.448   2.184   2.740 -0.8271  1.8351  1.3866
  713MOL0     H96198   2.353   2.012   2.590  0.2503  0.8634  1.8389
  713MOL0     H96199   2.289   2.133   2.483 -2.1564 -2.2599  2.2610
  713MOL0     H96200   2.511   2.177   2.384  1.3561 -1.0566 -1.7409
  713MOL0     H96201   2.595   2.078   2.508  0.6804 -0.3066 -2.6812
  713MOL0     H96202   2.385   2.001   2.303 -0.4480 -0.1505  0.1358
  713MOL0     H96203   2.447   1.884   2.439  1.4459  0.6240  2.1306
  713MOL0     H96204   2.535   1.843   2.215  1.7562 -0.7665  0.0057
  713MOL0     H96205   2.611   2.002   2.216  0.5846 -0.0541 -0.4769
  713MOL0     H96206   2.649   1.645   2.332 -2.1797  2.5886 -1.8934
  713MOL0     H96207   2.916   1.622   2.633  1.4071 -3.2738  0.4034
  713MOL0     H96208   2.766   1.541   2.584 -0.0475  0.6351  1.4465
  713MOL0     H96209   2.881   1.483   2.376  1.2777  0.9820 -0.5781
  713MOL0     H96210   3.044   1.529   2.443  1.2298 -1.0282  0.8750
  713MOL0     H96211   2.872   1.309   2.574 -2.2814  3.0972 -0.6209
  713MOL0     H96212   3.046   1.354   2.589 -1.1009 -0.3181  1.0089
  713MOL0     H96213   3.064   1.315   2.355 -0.4562  0.9765  0.8567
  713MOL0     H96214   2.901   1.237   2.346  1.3017  0.4424 -2.2988
  713MOL0     H96215   2.991   1.081   2.176  0.0679  0.5836  0.4395
  713MOL0     H96216   3.083   0.905   2.067  0.2523 -1.6571  0.0024
  713MOL0     H96217   3.431   0.470   2.368  1.5204  4.3026 -1.7857
  713MOL0     H96218   3.531   0.253   2.315 -1.2008 -1.1927  0.0571
  713MOL0     H96219   3.720   0.049   2.058  1.1537 -2.4396  1.4638
  713MOL0     H96220   3.692   0.162   2.190  2.5858 -0.7771 -1.3633
  713MOL0     H96221   3.534  -0.030   2.273  0.7148  2.3647 -0.7999
  713MOL0     H96222   3.589  -0.129   2.141  1.8721 -0.0437 -0.6627
  713MOL0     H96223   3.824  -0.022   2.249  0.5939 -1.1973 -0.9396
  713MOL0     H96224   3.722  -0.072   2.393 -0.6047 -0.3494 -0.1185
  713MOL0     H96225   3.837  -0.247   2.159  1.0608 -1.0006  0.2205
  713MOL0     H96226   3.689  -0.295   2.243  0.1738  1.1810 -2.4323
  713MOL0     H96227   3.876  -0.402   2.343 -0.4706 -0.0133  0.6843
  713MOL0     H96228   3.829  -0.281   2.457  2.8634 -0.4791  1.8599
  713MOL0     H96229   4.030  -0.223   2.244 -2.1725 -0.9126 -0.6744
  713MOL0     H96230   3.991  -0.123   2.379 -0.8582 -1.1009  1.4523
  713MOL0     H96231   4.093  -0.403   2.435 -0.1347  0.5084 -0.1719
  713MOL0     H96232   4.110  -0.260   2.540  1.7918 -0.1618  0.9579
  713MOL0     H96233   4.314  -0.302   2.450 -0.3587  0.3523 -0.6409
  713MOL0     H96234   4.259  -0.317   2.281  1.9869 -0.3883 -0.0456
  713MOL0     H96235   3.406   0.288   1.910 -0.1188  0.5411 -0.2925
  713MOL0     H96236   3.294   0.503   1.970 -1.6959 -0.4364  0.9353
  713MOL0     H96237   3.365   0.826   2.370 -0.5844 -1.9355 -0.8588
  713MOL0     H96238   3.254   0.982   2.518  2.3397 -0.0406 -0.4576
  713MOL0     H96239   1.935   2.744   2.468 -0.4120 -0.2448  0.5552
  713MOL0     H96240   1.716   2.843   2.497 -0.0795  0.2095  1.6046
  713MOL0     H96241   1.334   3.043   2.455  0.9943  0.6043  3.1114
  713MOL0     H96242   1.089   3.098   2.446 -1.1064  1.8751  4.1004
  713MOL0     H96243   0.759   3.118   2.557 -0.3321  0.7829 -2.6114
  713MOL0     H96244   0.898   3.149   2.462 -1.4874 -3.0272 -0.7917
  713MOL0     H96245   0.877   3.291   2.661  0.2858  0.4454 -0.4538
  713MOL0     H96246   1.031   3.190   2.672 -0.3178  0.0550 -0.8722
  713MOL0     H96247   0.901   3.025   2.820  0.9634  0.7113 -0.8716
  713MOL0     H96248   0.792   3.164   2.855  0.6433  0.6254  0.5758
  713MOL0     H96249   1.007   3.315   2.873 -0.6143  0.4036 -0.8346
  713MOL0     H96250   0.956   3.223   3.010  1.6595  0.3550 -0.0293
  713MOL0     H96251   1.328   3.061   2.911 -0.3269 -1.1275  0.1449
  713MOL0     H96252   0.997   2.753   2.662  0.2103  0.2274  0.6464
  713MOL0     H96253   1.153   2.595   2.724 -1.0256  2.3280  1.7567
  713MOL0     H96254   1.297   2.566   2.624  0.0773  0.1607 -0.7002
  713MOL0     H96255   1.316   2.662   2.774  1.5410 -1.5832 -0.8637
  714MOL0     O96256   4.886   4.671   4.582  0.0862 -0.5598  0.4640
  714MOL0     C96257   4.895   4.785   4.623  0.6528 -0.0259 -0.5212
  714MOL0     O96258   5.010   4.860   4.608 -0.0122  0.6997 -0.0629
  714MOL0     C96259   5.112   4.813   4.530 -0.7394  0.9255 -1.0192
  714MOL0     C96260   5.113   4.828   4.395 -1.3664  0.6261  0.1792
  714MOL0     C96261   5.216   4.786   4.306  0.1716 -0.4360 -0.2629
  714MOL0     C96262   5.337   4.731   4.363 -0.3481 -0.2034 -0.2341
  714MOL0     O96263   5.440   4.681   4.289  0.7966  0.2425  0.3650
  714MOL0     C96264   5.406   4.612   4.169  0.7141 -0.3944  0.0997
  714MOL0     C96265   5.514   4.522   4.107  0.1390  0.2823 -0.9886
  714MOL0     C96266   5.640   4.595   4.074  0.3894 -0.0944 -0.1004
  714MOL0     C96267   5.761   4.499   4.037 -0.3713 -0.7183 -0.2660
  714MOL0     C96268   5.891   4.575   4.025 -0.5276  0.7501  0.1905
  714MOL0     C96269   5.896   4.657   3.896 -0.7504 -0.6634  0.2290
  714MOL0     C96270   6.031   4.734   3.876  0.6267  0.0979 -0.2149
  714MOL0     C96271   6.029   4.800   3.733  0.6435 -0.4060  0.1498
  714MOL0     N96272   6.136   4.902   3.717 -0.3735 -0.5074  0.3022
  714MOL0     C96273   6.271   4.883   3.694  0.2638  0.3500  0.3229
  714MOL0     C96274   6.329   5.004   3.708 -0.2208 -0.3959  0.3179
  714MOL0     C96275   6.481   5.022   3.691  0.1723 -0.3276 -0.1228
  714MOL0     C96276   6.522   5.170   3.660 -0.4785  1.5686 -0.3461
  714MOL0     C96277   6.678   5.173   3.650 -0.4114 -0.0677  0.2130
  714MOL0     C96278   6.726   5.318   3.645 -0.0289  0.4382 -0.2534
  714MOL0     O96279   6.874   5.329   3.615  0.1805 -0.1413  0.4347
  714MOL0     C96280   6.918   5.458   3.591  0.4643  0.0608  0.2208
  714MOL0     C96281   6.865   5.580   3.642  0.7098  0.3073  0.4993
  714MOL0     C96282   6.920   5.707   3.606  0.0664 -0.0614 -0.2284
  714MOL0     C96283   7.024   5.714   3.506  0.7119 -0.1214  0.7659
  714MOL0     C96284   7.074   5.842   3.465  0.2578  0.0653  0.3477
  714MOL0     O96285   7.123   5.851   3.336  0.3726 -0.2696 -0.1705
  714MOL0     C96286   7.190   5.964   3.286 -0.7456  0.3221 -0.1386
  714MOL0     C96287   7.263   6.064   3.360  0.5038 -0.1856 -0.3768
  714MOL0     C96288   7.333   6.162   3.297 -0.1202  0.2619  0.2111
  714MOL0     C96289   7.342   6.155   3.159  0.3609 -0.1941  0.6912
  714MOL0     O96290   7.417   6.260   3.113  0.2810  0.5135  0.0167
  714MOL0     C96291   7.475   6.271   2.977  0.2467  0.3321  0.5406
  714MOL0     C96292   7.397   6.356   2.876  0.0657 -1.0460  0.2367
  714MOL0     C96293   7.465   6.345   2.735  0.2063 -0.2868 -0.3787
  714MOL0     C96294   7.417   6.230   2.651  0.2864  0.3662 -0.0239
  714MOL0     C96295   7.486   6.217   2.520  0.3404 -0.0886  0.0202
  714MOL0     C96296   7.459   6.079   2.447 -0.2565  0.1601 -0.2425
  714MOL0     C96297   7.568   6.033   2.346 -0.8341  0.1290  0.1610
  714MOL0     C96298   7.548   5.894   2.293  0.1015  0.1872 -0.6890
  714MOL0    Cl96299   7.662   5.852   2.157  0.2675 -0.0968 -0.3764
  714MOL0     C96300   7.276   6.063   3.081  0.1424  0.0178  0.8679
  714MOL0     C96301   7.212   5.964   3.146  0.2518 -0.2658 -0.4784
  714MOL0     O96302   7.068   5.932   3.553  0.2032 -0.2631 -0.0108
  714MOL0     C96303   7.079   5.599   3.455  0.6849  0.9077  0.5178
  714MOL0     C96304   7.024   5.470   3.497 -0.2342 -0.7427  0.5711
  714MOL0     N96305   6.225   5.094   3.733  0.1143  0.5715 -0.3513
  714MOL0     N96306   6.114   5.035   3.720 -0.6090  0.2096  1.2569
  714MOL0     C96307   5.345   4.724   4.512  0.2024 -0.2497 -0.9187
  714MOL0     C96308   5.229   4.764   4.587 -0.5479  0.2873  0.0465
  714MOL0     C96309   4.779   4.850   4.695 -0.5394  0.9394 -0.5161
  714MOL0     C96310   4.808   4.933   4.807 -0.9060  0.4563  0.0683
  714MOL0     C96311   4.710   4.982   4.878  0.7127 -0.2337 -0.3286
  714MOL0     C96312   4.575   4.952   4.849  0.8518 -0.0911  1.0650
  714MOL0     O96313   4.467   4.982   4.933  0.3059  0.3068 -0.0748
  714MOL0     C96314   4.433   4.869   5.016  0.2965 -0.0837  0.2958
  714MOL0     C96315   4.331   4.915   5.116 -0.2673 -0.0504  0.2827
  714MOL0     C96316   4.196   4.952   5.047  0.4586  0.2331  0.6698
  714MOL0     C96317   4.099   5.030   5.139 -0.4711 -0.3262  0.2730
  714MOL0     C96318   3.978   5.072   5.075  0.4579  0.4651 -0.0293
  714MOL0     C96319   3.875   5.109   5.027 -0.0636 -0.7977 -0.5190
  714MOL0     C96320   4.545   4.876   4.733 -0.9538 -0.2578  0.1300
  714MOL0     C96321   4.645   4.824   4.650  0.4748  0.2796  0.7797
  714MOL0     C96322   4.616   4.746   4.527  0.0511 -0.2421  0.2654
  714MOL0     H96323   5.023   4.870   4.350 -0.3379  1.9590 -0.7072
  714MOL0     H96324   5.211   4.795   4.198 -2.4151 -2.5271 -0.3981
  714MOL0     H96325   5.320   4.550   4.198  1.0683 -0.5680  0.8089
  714MOL0     H96326   5.373   4.686   4.096  2.2681 -0.8780 -1.1592
  714MOL0     H96327   5.474   4.478   4.015  0.8315 -1.8794 -0.3374
  714MOL0     H96328   5.526   4.431   4.167 -4.3723  1.1757  1.6967
  714MOL0     H96329   5.673   4.650   4.162 -1.5390 -0.4859  0.9219
  714MOL0     H96330   5.632   4.655   3.982  0.3586 -3.3258 -2.3850
  714MOL0     H96331   5.780   4.428   4.118  0.3936 -0.7203 -0.4337
  714MOL0     H96332   5.744   4.440   3.946 -0.9256 -1.0753  0.0643
  714MOL0     H96333   5.908   4.636   4.115 -0.3585  0.9863 -0.0004
  714MOL0     H96334   5.961   4.492   4.018  1.1763  1.9354  1.8839
  714MOL0     H96335   5.890   4.593   3.808 -0.2228 -1.1779  0.5583
  714MOL0     H96336   5.818   4.735   3.891  1.0376  1.1082 -2.5833
  714MOL0     H96337   6.110   4.658   3.881 -2.2039 -3.0145  0.6418
  714MOL0     H96338   6.038   4.812   3.953  1.5136 -0.7668  0.6188
  714MOL0     H96339   6.045   4.722   3.658 -1.2561 -1.7955  1.1297
  714MOL0     H96340   5.929   4.843   3.720  1.1406  0.2791 -1.9405
  714MOL0     H96341   6.324   4.789   3.682 -2.3175 -0.9832 -1.5942
  714MOL0     H96342   6.517   4.982   3.786  0.7985 -0.9934 -0.6306
  714MOL0     H96343   6.513   4.954   3.612  0.5549 -1.4126  0.9249
  714MOL0     H96344   6.478   5.203   3.566 -1.5685 -1.3392 -0.9375
  714MOL0     H96345   6.488   5.241   3.736 -1.3640  1.9319 -1.0734
  714MOL0     H96346   6.717   5.114   3.567  1.3348 -2.2904  2.4581
  714MOL0     H96347   6.721   5.134   3.742  2.9852  2.3276 -0.1812
  714MOL0     H96348   6.698   5.363   3.740 -2.1371 -0.5113 -0.3747
  714MOL0     H96349   6.673   5.373   3.567 -2.1784  0.5027  1.1615
  714MOL0     H96350   6.784   5.576   3.714  0.9171  1.4692  0.8091
  714MOL0     H96351   6.866   5.795   3.640 -1.1927 -1.3891  1.3977
  714MOL0     H96352   7.257   6.075   3.468  0.1604  0.5868 -0.4629
  714MOL0     H96353   7.381   6.247   3.345 -1.5438  1.0972  0.2024
  714MOL0     H96354   7.570   6.323   2.988  0.7020 -0.4478  0.3743
  714MOL0     H96355   7.496   6.172   2.935  0.5165  0.8199 -0.4882
  714MOL0     H96356   7.291   6.329   2.875 -0.1510 -0.4219  2.1088
  714MOL0     H96357   7.402   6.460   2.910  0.6937 -0.4536 -1.5706
  714MOL0     H96358   7.440   6.440   2.687 -2.4580 -0.9013 -0.3845
  714MOL0     H96359   7.573   6.340   2.748 -0.0510  0.5585  3.0473
  714MOL0     H96360   7.309   6.239   2.635  0.4793  3.8957 -0.1030
  714MOL0     H96361   7.438   6.135   2.701 -0.6531  1.3113  2.3171
  714MOL0     H96362   7.591   6.237   2.543  0.1988  1.7778 -0.8014
  714MOL0     H96363   7.463   6.296   2.448 -0.4874 -0.9327 -0.6687
  714MOL0     H96364   7.455   6.007   2.529  0.5541  0.0221 -0.3205
  714MOL0     H96365   7.365   6.085   2.391 -0.1326  1.7118 -0.3082
  714MOL0     H96366   7.665   6.029   2.395 -0.4732  0.7396 -0.4896
  714MOL0     H96367   7.571   6.097   2.257  1.7557 -1.1299 -0.7708
  714MOL0     H96368   7.553   5.825   2.378 -0.5909  0.7614 -0.1724
  714MOL0     H96369   7.447   5.898   2.253  0.4697  0.0650 -1.6527
  714MOL0     H96370   7.283   6.066   2.973  2.7833 -1.9946  0.9074
  714MOL0     H96371   7.160   5.892   3.085 -0.2631 -1.6117  1.4484
  714MOL0     H96372   7.150   5.609   3.374 -0.8555  4.2321 -0.6155
  714MOL0     H96373   7.060   5.382   3.443  2.2573  0.0613  0.7863
  714MOL0     H96374   5.432   4.688   4.565  1.0824 -0.7988 -2.6601
  714MOL0     H96375   5.227   4.753   4.695 -0.4823 -0.6860 -0.0366
  714MOL0     H96376   4.907   4.967   4.835  0.2485 -0.8784 -2.0981
  714MOL0     H96377   4.729   5.044   4.965 -4.3040 -0.9308  1.6112
  714MOL0     H96378   4.523   4.837   5.069  1.0142  0.4375 -0.5866
  714MOL0     H96379   4.398   4.782   4.959 -0.1701  1.3360 -1.6837
  714MOL0     H96380   4.371   5.000   5.172 -1.0016 -0.8763  2.1607
  714MOL0     H96381   4.308   4.830   5.181 -3.3325  1.2681  1.1007
  714MOL0     H96382   4.135   4.864   5.023 -0.5346  1.3617 -1.1221
  714MOL0     H96383   4.217   5.012   4.958  0.3713  0.7430  0.9860
  714MOL0     H96384   4.082   4.967   5.227  1.2081 -0.9988  0.1528
  714MOL0     H96385   4.159   5.112   5.182  1.4632 -1.3191 -0.3869
  714MOL0     H96386   3.776   5.143   5.007 -0.5596 -1.9762 -0.1895
  714MOL0     H96387   4.441   4.857   4.711 -1.2900  0.2683  1.1713
  714MOL0     H96388   4.514   4.762   4.493  0.8931  1.7420 -1.5039
  714MOL0     H96389   4.688   4.763   4.447 -0.8092  0.1923 -0.4288
  714MOL0     H96390   4.619   4.638   4.547  0.0796 -0.0314  1.5149
  715MOL0     O96391   9.989   9.254   0.126 -0.6139  0.1475 -0.1736
  715MOL0     C96392   9.920   9.192   0.047 -0.5289 -0.3331 -0.4193
  715MOL0     O96393   9.955   9.157  -0.076 -0.0052  1.0517  0.6609
  715MOL0     C96394  10.084   9.186  -0.125  0.1435  0.6044  0.0128
  715MOL0     C96395  10.155   9.085  -0.190 -0.1231  0.1890  0.3352
  715MOL0     C96396  10.289   9.114  -0.225  0.3498 -0.4852  1.1827
  715MOL0     C96397  10.338   9.250  -0.224 -0.0861  0.0246  0.9728
  715MOL0     O96398  10.466   9.286  -0.261  0.3786  0.4048  0.1818
  715MOL0     C96399  10.566   9.227  -0.170 -0.7515 -0.7319  0.3071
  715MOL0     C96400  10.706   9.236  -0.227 -0.1110 -0.4505  0.1304
  715MOL0     C96401  10.724   9.183  -0.371  0.0749 -1.0176  0.3775
  715MOL0     C96402  10.719   9.034  -0.384 -0.6128 -0.8042  0.3379
  715MOL0     C96403  10.690   8.968  -0.518 -0.3369 -0.3022  0.1604
  715MOL0     C96404  10.575   9.038  -0.588  0.0758  0.1356  0.4129
  715MOL0     C96405  10.515   8.954  -0.701  0.8208  0.3668 -0.0780
  715MOL0     C96406  10.446   8.829  -0.646 -0.1185 -0.2524 -0.1591
  715MOL0     N96407  10.326   8.856  -0.565  0.2864 -1.0284  0.2820
  715MOL0     C96408  10.200   8.862  -0.611 -0.2224  0.7711  0.0540
  715MOL0     C96409  10.124   8.852  -0.500  0.5244 -0.0507  0.5429
  715MOL0     C96410   9.978   8.826  -0.504 -1.0878  1.1460  0.0783
  715MOL0     C96411   9.916   8.820  -0.363 -0.7168  0.2889  0.4206
  715MOL0     C96412   9.776   8.750  -0.371  0.1094 -0.0498  0.0544
  715MOL0     C96413   9.784   8.608  -0.352 -0.4541  0.2987 -0.3203
  715MOL0     O96414   9.835   8.526  -0.465 -0.3358 -0.8040  0.5527
  715MOL0     C96415   9.955   8.468  -0.461  0.4265 -0.5133  0.6114
  715MOL0     C96416   9.980   8.384  -0.564  0.3106  0.4155 -0.0359
  715MOL0     C96417  10.102   8.319  -0.570 -0.2610  0.6696  0.4100
  715MOL0     C96418  10.194   8.335  -0.471 -0.0087 -0.2409 -1.2526
  715MOL0     C96419  10.300   8.240  -0.450  0.5941 -0.0560  1.2885
  715MOL0     O96420  10.374   8.244  -0.343  0.2469  0.5695  0.3386
  715MOL0     C96421  10.475   8.154  -0.308 -0.6424 -0.3370  0.1395
  715MOL0     C96422  10.475   8.019  -0.352  0.3492 -1.1295  0.9590
  715MOL0     C96423  10.574   7.932  -0.305 -0.1622 -0.6541  0.3249
  715MOL0     C96424  10.675   7.977  -0.218 -0.4295  0.2462 -1.1128
  715MOL0     O96425  10.781   7.890  -0.190 -0.3258 -0.3410 -0.6902
  715MOL0     C96426  10.886   7.934  -0.100  0.2545 -0.2032  0.5897
  715MOL0     C96427  10.957   7.816  -0.043  1.4897 -0.0029  0.5230
  715MOL0     C96428  11.007   7.707  -0.142 -0.2400 -0.4345 -0.3683
  715MOL0     C96429  11.111   7.615  -0.065 -0.2373  0.2003  0.0995
  715MOL0     C96430  11.176   7.509  -0.148 -0.4424  0.8013  0.6185
  715MOL0     C96431  11.256   7.406  -0.070 -0.3995 -0.4912  0.3234
  715MOL0     C96432  11.373   7.470   0.008  0.0546 -0.0840  0.1134
  715MOL0     C96433  11.483   7.371   0.023 -0.7790  0.5201 -0.0467
  715MOL0    Cl96434  11.576   7.349  -0.135 -0.1398  0.3553  0.1746
  715MOL0     C96435  10.676   8.112  -0.173 -0.7894 -0.2251 -0.8624
  715MOL0     C96436  10.577   8.195  -0.220  0.3924 -0.9640  0.1132
  715MOL0     O96437  10.330   8.173  -0.552  0.3556  0.7695 -0.5359
  715MOL0     C96438  10.177   8.434  -0.373  0.3130  1.2249  0.2063
  715MOL0     C96439  10.048   8.495  -0.371  1.0861 -0.0502 -0.2482
  715MOL0     N96440  10.200   8.843  -0.387 -0.7857 -0.0207 -0.3746
  715MOL0     N96441  10.323   8.841  -0.427  0.1229  0.4045  0.7911
  715MOL0     C96442  10.249   9.353  -0.193  0.2612 -0.6967 -1.0453
  715MOL0     C96443  10.120   9.324  -0.133 -0.5092  0.8993  0.1475
  715MOL0     C96444   9.780   9.169   0.087  0.7300  0.2263 -0.0151
  715MOL0     C96445   9.726   9.249   0.189 -0.3561  0.2739  0.4869
  715MOL0     C96446   9.600   9.228   0.250  0.0894  0.1092  1.2235
  715MOL0     C96447   9.511   9.138   0.186  0.4421  1.2197  0.1452
  715MOL0     O96448   9.375   9.114   0.219 -0.1406 -0.2450 -0.1171
  715MOL0     C96449   9.336   9.180   0.342 -0.0440 -0.2501 -0.0075
  715MOL0     C96450   9.182   9.169   0.369 -0.4509  0.3490  0.2729
  715MOL0     C96451   9.143   9.238   0.494  0.0082 -0.1791 -0.0255
  715MOL0     C96452   8.987   9.227   0.502  0.4964  0.2379 -0.1230
  715MOL0     C96453   8.928   9.334   0.421  0.5094 -0.3136 -0.0616
  715MOL0     C96454   8.887   9.436   0.370 -0.3871 -0.1887 -0.2172
  715MOL0     C96455   9.556   9.068   0.074 -0.1133 -0.0703 -0.5590
  715MOL0     C96456   9.694   9.060   0.036  0.6426 -0.4529  0.2226
  715MOL0     C96457   9.723   8.983  -0.083 -0.5503  0.1337 -0.1741
  715MOL0     H96458  10.099   8.993  -0.205  1.3532 -0.8911  1.1995
  715MOL0     H96459  10.342   9.025  -0.255 -0.7596 -0.8722  0.2586
  715MOL0     H96460  10.571   9.297  -0.086  0.5695  0.4163 -0.6911
  715MOL0     H96461  10.535   9.130  -0.129 -1.5368 -0.4550  0.3835
  715MOL0     H96462  10.774   9.184  -0.159 -2.6000 -0.0274  3.1269
  715MOL0     H96463  10.739   9.340  -0.232 -1.2780 -0.1126 -1.9666
  715MOL0     H96464  10.813   9.226  -0.417 -0.4003 -0.2079  0.2038
  715MOL0     H96465  10.650   9.225  -0.440 -1.3857 -4.3533 -0.2861
  715MOL0     H96466  10.818   8.998  -0.352 -0.3590  1.1133  1.8921
  715MOL0     H96467  10.655   8.995  -0.304  1.9764 -1.2408  2.3285
  715MOL0     H96468  10.778   8.970  -0.582 -0.4138  0.7453  0.0789
  715MOL0     H96469  10.668   8.863  -0.496  0.2579 -0.7148 -1.1493
  715MOL0     H96470  10.499   9.062  -0.513  1.0673  0.5172  1.3270
  715MOL0     H96471  10.607   9.133  -0.634  2.7173 -1.4478 -1.3137
  715MOL0     H96472  10.604   8.924  -0.759  1.8931  2.7774  0.2188
  715MOL0     H96473  10.453   9.016  -0.766 -0.9753 -0.0685  1.1329
  715MOL0     H96474  10.418   8.769  -0.733 -0.9646 -3.2463  2.0140
  715MOL0     H96475  10.516   8.772  -0.585  1.0084  2.2372  0.9902
  715MOL0     H96476  10.164   8.853  -0.713  0.7967  1.5881 -0.4031
  715MOL0     H96477   9.925   8.913  -0.544 -2.2265 -0.3035 -1.7099
  715MOL0     H96478   9.961   8.732  -0.557 -1.2833 -0.0325  2.1371
  715MOL0     H96479   9.982   8.772  -0.290  0.7942 -0.2083 -1.2123
  715MOL0     H96480   9.905   8.926  -0.338 -2.4864 -0.4623  3.4536
  715MOL0     H96481   9.735   8.770  -0.471  1.7963 -0.2649 -0.7169
  715MOL0     H96482   9.712   8.800  -0.298  0.1044  1.2998 -0.8372
  715MOL0     H96483   9.680   8.578  -0.337 -1.1779  1.9810 -1.6455
  715MOL0     H96484   9.837   8.591  -0.258  0.3195  0.7873 -0.6551
  715MOL0     H96485   9.902   8.371  -0.638  1.7194  1.3782 -1.7798
  715MOL0     H96486  10.117   8.252  -0.655 -3.1950  1.1763 -0.6290
  715MOL0     H96487  10.403   7.989  -0.428  3.0035 -1.4879 -1.5831
  715MOL0     H96488  10.587   7.829  -0.338 -0.9714 -0.5752 -0.2833
  715MOL0     H96489  10.965   7.995  -0.145 -1.5181  3.3985  1.9606
  715MOL0     H96490  10.839   7.990  -0.019 -2.9500 -0.4006 -0.9564
  715MOL0     H96491  11.047   7.845   0.013  2.8053  2.5144 -2.5958
  715MOL0     H96492  10.891   7.761   0.025  0.7193 -3.0085 -2.3650
  715MOL0     H96493  10.913   7.655  -0.160 -0.5871  0.3237 -0.8212
  715MOL0     H96494  11.048   7.748  -0.235 -0.1501 -0.7433 -0.4638
  715MOL0     H96495  11.062   7.556   0.013  1.1786 -2.4359 -0.8961
  715MOL0     H96496  11.189   7.680  -0.025  0.8308 -1.4026  0.7378
  715MOL0     H96497  11.244   7.558  -0.219  0.0415 -2.3943 -1.3444
  715MOL0     H96498  11.099   7.451  -0.200  0.4410 -1.8597  2.0625
  715MOL0     H96499  11.185   7.358  -0.002 -2.7570 -0.8800 -2.2001
  715MOL0     H96500  11.284   7.329  -0.143  1.5506  0.2755  0.2007
  715MOL0     H96501  11.330   7.497   0.105  0.9202  0.9066  0.2374
  715MOL0     H96502  11.409   7.558  -0.047 -1.9354 -1.0496 -2.9936
  715MOL0     H96503  11.552   7.401   0.102  0.5199  1.2931 -1.4224
  715MOL0     H96504  11.448   7.272   0.056  1.3855  0.0500  0.9811
  715MOL0     H96505  10.752   8.165  -0.117  0.7816 -2.1489 -1.0652
  715MOL0     H96506  10.574   8.290  -0.168 -1.2164 -0.1674 -1.3227
  715MOL0     H96507  10.241   8.439  -0.285  1.7300 -0.9000 -0.6079
  715MOL0     H96508  10.038   8.554  -0.280 -0.8220  1.2698 -1.2529
  715MOL0     H96509  10.293   9.452  -0.203 -1.8908  0.7687  2.1472
  715MOL0     H96510  10.062   9.399  -0.080 -0.3931  0.0037  1.6016
  715MOL0     H96511   9.787   9.330   0.226  1.7683  0.0914 -2.2630
  715MOL0     H96512   9.570   9.298   0.327  0.1346  1.6910 -0.1438
  715MOL0     H96513   9.362   9.286   0.337 -2.7635  0.5781  1.5205
  715MOL0     H96514   9.390   9.132   0.424  1.3591  0.0138 -0.7388
  715MOL0     H96515   9.157   9.062   0.376  1.3617 -0.0196  1.9622
  715MOL0     H96516   9.130   9.205   0.280 -0.8050  3.6331  1.6653
  715MOL0     H96517   9.188   9.338   0.495  1.3460 -0.7408  1.9191
  715MOL0     H96518   9.177   9.185   0.583 -0.7587 -0.3676  0.1569
  715MOL0     H96519   8.952   9.130   0.466  4.0808 -0.8980 -1.0264
  715MOL0     H96520   8.952   9.234   0.605 -0.5135  0.1009 -0.4515
  715MOL0     H96521   8.843   9.516   0.314  0.2515 -0.4478 -1.1192
  715MOL0     H96522   9.494   8.992   0.027  0.8407 -2.5849  1.9319
  715MOL0     H96523   9.814   8.923  -0.069 -1.6968 -2.3042 -2.2178
  715MOL0     H96524   9.641   8.915  -0.109 -0.9308  0.4318  0.2163
  715MOL0     H96525   9.722   9.061  -0.159 -2.4005  2.4384  2.0199
  716MOL0     O96526   4.784   3.235   1.984  0.3024  0.0617  0.1615
  716MOL0     C96527   4.721   3.198   1.886  0.3667 -0.3767  0.0096
  716MOL0     O96528   4.732   3.244   1.751  0.1996  0.1208  0.5778
  716MOL0     C96529   4.839   3.323   1.711  0.3425 -1.6952 -0.4310
  716MOL0     C96530   4.844   3.349   1.582 -0.3143  0.5470  0.5426
  716MOL0     C96531   4.954   3.412   1.525 -0.5932 -0.1086 -0.6799
  716MOL0     C96532   5.047   3.475   1.609 -0.0970  0.1315 -0.0644
  716MOL0     O96533   5.154   3.537   1.553 -0.5776 -0.2780 -0.6499
  716MOL0     C96534   5.276   3.464   1.559 -0.0553  0.3707 -0.2919
  716MOL0     C96535   5.393   3.560   1.587  0.1289  0.5123 -0.2475
  716MOL0     C96536   5.527   3.497   1.548 -0.5385 -0.4796  0.7480
  716MOL0     C96537   5.571   3.532   1.411 -0.1664 -0.2261 -0.2327
  716MOL0     C96538   5.602   3.686   1.383 -0.7387 -0.4185 -0.3886
  716MOL0     C96539   5.726   3.729   1.467  0.4801  0.1180 -0.5124
  716MOL0     C96540   5.752   3.875   1.435 -0.7527 -0.3546  1.0308
  716MOL0     C96541   5.785   3.903   1.283 -0.9742  0.0556  0.1483
  716MOL0     N96542   5.870   4.016   1.246  0.3720  0.7863 -0.0354
  716MOL0     C96543   5.993   4.054   1.305  0.7118  1.6262  0.1416
  716MOL0     C96544   6.048   4.136   1.219 -0.6006  0.5504  0.2594
  716MOL0     C96545   6.188   4.204   1.222 -0.3230 -0.7020  0.1699
  716MOL0     C96546   6.302   4.144   1.144 -0.2576  0.5323 -0.2513
  716MOL0     C96547   6.437   4.219   1.169  0.2236 -0.2843 -0.2576
  716MOL0     C96548   6.566   4.174   1.093  0.8614  0.3088 -0.7985
  716MOL0     O96549   6.578   4.033   1.105  0.4698  0.6515 -0.1122
  716MOL0     C96550   6.710   3.987   1.083  0.1736  0.0641  0.5807
  716MOL0     C96551   6.821   4.056   1.025  0.2658 -0.0942  0.7136
  716MOL0     C96552   6.950   4.004   1.013 -0.5522 -0.2481 -0.1173
  716MOL0     C96553   6.970   3.879   1.065 -0.0325 -0.5437 -0.1826
  716MOL0     C96554   7.111   3.834   1.047 -0.1693 -0.1655 -0.0412
  716MOL0     O96555   7.168   3.869   0.926  0.6016 -0.2089  0.6639
  716MOL0     C96556   7.295   3.817   0.895 -0.5181 -1.1221  0.6517
  716MOL0     C96557   7.295   3.701   0.818  0.4729  0.2366  0.2825
  716MOL0     C96558   7.419   3.654   0.778  0.6380 -0.5730  0.0048
  716MOL0     C96559   7.534   3.711   0.824  0.5296  0.2750  0.4513
  716MOL0     O96560   7.659   3.672   0.781 -0.2232  0.7174 -0.1271
  716MOL0     C96561   7.665   3.591   0.659  0.2796 -0.5753 -0.8196
  716MOL0     C96562   7.616   3.673   0.534  0.2286  0.4183  0.3613
  716MOL0     C96563   7.648   3.812   0.521  0.4901 -0.0815 -0.5607
  716MOL0     C96564   7.804   3.830   0.531  0.2268 -0.1461  0.0088
  716MOL0     C96565   7.846   3.962   0.593 -0.2986  0.9156  0.4638
  716MOL0     C96566   7.984   4.011   0.545  0.1810 -0.1790 -0.3523
  716MOL0     C96567   8.058   4.106   0.634  0.3152 -0.9725 -0.5864
  716MOL0     C96568   8.175   4.155   0.555 -0.5737 -0.1510 -0.6230
  716MOL0    Cl96569   8.314   4.191   0.673 -0.0263  0.6040 -0.0142
  716MOL0     C96570   7.533   3.825   0.901 -0.1133 -0.3404  0.0554
  716MOL0     C96571   7.409   3.881   0.938  0.2260  0.3008  0.2133
  716MOL0     O96572   7.162   3.773   1.136  0.0613 -0.0127 -0.1026
  716MOL0     C96573   6.862   3.804   1.119  0.4708 -0.0719  0.4585
  716MOL0     C96574   6.740   3.855   1.119  0.4108 -0.5615 -0.3004
  716MOL0     N96575   5.962   4.153   1.114  0.0196 -0.2999 -0.5510
  716MOL0     N96576   5.856   4.085   1.131 -0.6601  0.9275  0.1379
  716MOL0     C96577   5.031   3.463   1.752  0.1477 -0.3285 -0.3456
  716MOL0     C96578   4.930   3.389   1.797 -0.5174 -0.8625 -0.5412
  716MOL0     C96579   4.601   3.107   1.911  0.7510  0.2506 -0.2998
  716MOL0     C96580   4.477   3.152   1.856 -0.0588  0.4874  0.0934
  716MOL0     C96581   4.361   3.077   1.875 -0.5139 -0.1035  0.2968
  716MOL0     C96582   4.367   2.968   1.955  0.3703  0.3589 -0.9139
  716MOL0     O96583   4.246   2.905   1.985  0.2678  0.0860  0.5193
  716MOL0     C96584   4.225   2.765   1.961  0.7671  0.1805  0.4270
  716MOL0     C96585   4.081   2.727   1.979  0.0921 -0.0199 -0.6624
  716MOL0     C96586   3.998   2.761   1.852  0.2156  0.7302 -0.0019
  716MOL0     C96587   3.845   2.735   1.863 -0.4645 -0.6521  0.0667
  716MOL0     C96588   3.802   2.603   1.910  0.9392 -0.5654  0.2681
  716MOL0     C96589   3.743   2.511   1.956 -0.5954  0.0194  0.6874
  716MOL0     C96590   4.488   2.919   2.005 -0.0801 -1.1402 -0.4285
  716MOL0     C96591   4.610   2.984   1.980  0.3045 -0.5618 -0.0713
  716MOL0     C96592   4.739   2.939   2.034 -0.6956 -0.7624 -0.3036
  716MOL0     H96593   4.771   3.309   1.512  0.9261 -1.6313  0.3834
  716MOL0     H96594   4.972   3.411   1.417  1.5374  1.3723 -0.4125
  716MOL0     H96595   5.276   3.402   1.649 -0.3058  2.8439  1.5194
  716MOL0     H96596   5.290   3.401   1.470  2.3544 -0.0772  0.3099
  716MOL0     H96597   5.394   3.572   1.695  1.1303 -0.3391 -0.1392
  716MOL0     H96598   5.373   3.662   1.554 -3.5014 -0.1867 -0.6019
  716MOL0     H96599   5.511   3.389   1.553  3.0527 -1.2558 -0.9763
  716MOL0     H96600   5.606   3.517   1.621 -0.9802  0.0210  1.0942
  716MOL0     H96601   5.660   3.474   1.386  1.3041  1.3654  1.0601
  716MOL0     H96602   5.492   3.494   1.345 -0.3394 -0.5291  0.1455
  716MOL0     H96603   5.609   3.708   1.276 -1.5862 -2.2511 -0.8721
  716MOL0     H96604   5.518   3.744   1.423  0.9346  1.5964  0.3908
  716MOL0     H96605   5.713   3.715   1.574  2.9024 -2.5011 -0.4202
  716MOL0     H96606   5.808   3.662   1.438  0.8968  0.7791 -0.8829
  716MOL0     H96607   5.832   3.906   1.503 -0.0378 -0.3051  0.1907
  716MOL0     H96608   5.669   3.940   1.464  0.9024  2.3177  0.1966
  716MOL0     H96609   5.836   3.814   1.244  3.1450  0.8640  3.0624
  716MOL0     H96610   5.694   3.927   1.227  0.3391  1.5003 -1.4506
  716MOL0     H96611   6.036   4.011   1.395  1.2397 -0.2992 -0.9622
  716MOL0     H96612   6.177   4.309   1.193  0.7233 -0.3768  0.8929
  716MOL0     H96613   6.227   4.206   1.324  2.5096  2.6757 -0.7769
  716MOL0     H96614   6.314   4.043   1.185 -0.5712  0.4090 -0.4568
  716MOL0     H96615   6.271   4.148   1.039 -0.7604  1.8797 -0.0740
  716MOL0     H96616   6.462   4.190   1.272 -0.5853 -1.4478 -0.3628
  716MOL0     H96617   6.411   4.325   1.165 -2.2385 -0.8544 -1.8747
  716MOL0     H96618   6.657   4.221   1.131  2.3548 -1.7230 -1.6964
  716MOL0     H96619   6.540   4.196   0.989 -0.5069 -1.9619 -1.0149
  716MOL0     H96620   6.795   4.153   0.985  1.0893 -0.7756 -1.6884
  716MOL0     H96621   7.013   4.082   0.974 -2.5471  2.0040  0.9148
  716MOL0     H96622   7.205   3.654   0.780  2.7935 -1.6952 -3.3577
  716MOL0     H96623   7.417   3.562   0.721  1.6186 -0.4131 -0.3088
  716MOL0     H96624   7.767   3.554   0.650 -0.0937 -1.6275 -0.7639
  716MOL0     H96625   7.600   3.505   0.672  0.2465 -0.1420  3.6294
  716MOL0     H96626   7.654   3.624   0.443 -1.7295 -0.4115 -0.0578
  716MOL0     H96627   7.510   3.662   0.509  0.5743  2.6954 -2.6395
  716MOL0     H96628   7.608   3.843   0.424 -0.4415 -0.8537 -0.4344
  716MOL0     H96629   7.607   3.864   0.608  3.9610  1.8529  0.1074
  716MOL0     H96630   7.850   3.831   0.432  1.8266  2.0411  0.6942
  716MOL0     H96631   7.850   3.754   0.595  1.3993 -0.4805 -1.1790
  716MOL0     H96632   7.845   3.945   0.701 -0.7595 -2.3347  0.0390
  716MOL0     H96633   7.775   4.042   0.570 -0.1957  0.8218 -0.1747
  716MOL0     H96634   8.052   3.925   0.539  0.0696 -0.1656 -2.9168
  716MOL0     H96635   7.970   4.052   0.445 -0.5261  1.5577  0.4140
  716MOL0     H96636   8.082   4.055   0.728  0.5527 -1.6023 -0.9797
  716MOL0     H96637   7.987   4.185   0.662 -0.8234 -1.9550 -0.6291
  716MOL0     H96638   8.211   4.088   0.476  1.8519 -0.0240  0.3183
  716MOL0     H96639   8.134   4.241   0.501  1.1077 -1.0857 -3.6191
  716MOL0     H96640   7.630   3.869   0.922  0.0857 -0.4691 -0.5662
  716MOL0     H96641   7.397   3.966   1.004 -1.2804  1.1483 -1.0942
  716MOL0     H96642   6.887   3.702   1.147  1.7911  0.2059  0.3578
  716MOL0     H96643   6.661   3.803   1.171  0.7125 -3.4601 -2.4745
  716MOL0     H96644   5.095   3.516   1.821 -1.5483  0.2494  0.8401
  716MOL0     H96645   4.937   3.376   1.905 -0.9046  0.0075 -0.4011
  716MOL0     H96646   4.475   3.241   1.792 -1.3344  0.9961  0.8139
  716MOL0     H96647   4.267   3.117   1.840 -0.9994 -1.5500 -0.1011
  716MOL0     H96648   4.294   2.714   2.029 -0.3605  0.7938  2.0994
  716MOL0     H96649   4.245   2.731   1.859 -1.4674 -1.1726  0.3814
  716MOL0     H96650   4.047   2.774   2.072 -2.8320 -3.8070  0.4688
  716MOL0     H96651   4.076   2.619   1.992  0.8232  0.2257  2.2569
  716MOL0     H96652   4.042   2.703   1.770  2.4299  1.4516  0.6175
  716MOL0     H96653   4.008   2.867   1.828  2.6274  0.7535  0.8957
  716MOL0     H96654   3.803   2.813   1.927 -0.6283 -0.2105 -0.5591
  716MOL0     H96655   3.788   2.749   1.770 -2.0078 -0.9333  0.9436
  716MOL0     H96656   3.704   2.424   2.005 -2.6231 -0.1164 -1.0238
  716MOL0     H96657   4.488   2.829   2.067  2.2885 -0.8966  0.0078
  716MOL0     H96658   4.723   2.840   2.078 -1.3435  0.1010  1.5327
  716MOL0     H96659   4.818   2.925   1.959 -1.1271 -2.7999 -0.4551
  716MOL0     H96660   4.774   3.009   2.110  1.3535 -2.1681  0.1223
  717MOL0     O96661  11.244   4.657   5.024 -0.9122 -0.8561  0.3936
  717MOL0     C96662  11.272   4.637   4.906  0.2153  0.0895  0.0138
  717MOL0     O96663  11.399   4.645   4.858 -0.1927  0.9511  0.7943
  717MOL0     C96664  11.498   4.700   4.931  0.2864 -1.0068 -0.2611
  717MOL0     C96665  11.526   4.842   4.915  0.2791  0.1648 -0.0435
  717MOL0     C96666  11.633   4.897   4.980 -0.1704  0.0125 -0.5005
  717MOL0     C96667  11.726   4.819   5.043 -0.0401  0.4456  0.5052
  717MOL0     O96668  11.840   4.851   5.118 -0.5842 -0.0894  0.5416
  717MOL0     C96669  11.897   4.980   5.102 -0.6989  0.0674  0.1806
  717MOL0     C96670  11.953   5.036   5.237  0.0984  0.0533 -0.8636
  717MOL0     C96671  12.072   4.953   5.285  0.0080 -0.5638 -0.3852
  717MOL0     C96672  12.161   5.040   5.375 -0.0543  0.7676 -0.1660
  717MOL0     C96673  12.295   4.970   5.425 -0.6096 -0.2170 -0.6080
  717MOL0     C96674  12.408   4.943   5.324 -0.1429 -0.4407 -0.7522
  717MOL0     C96675  12.508   4.858   5.397  0.0107 -0.0282  0.2408
  717MOL0     C96676  12.574   4.907   5.521 -0.7157  0.2192  0.6453
  717MOL0     N96677  12.701   4.827   5.554 -0.5960 -0.2321  0.5137
  717MOL0     C96678  12.756   4.821   5.672  0.5660 -0.8827  0.1110
  717MOL0     C96679  12.880   4.765   5.657 -0.4133  0.0551 -0.2326
  717MOL0     C96680  12.954   4.707   5.771 -0.2139 -0.0716  0.6332
  717MOL0     C96681  13.056   4.801   5.823 -0.2457 -0.2381  0.7552
  717MOL0     C96682  13.188   4.738   5.879 -1.1287 -0.0039 -0.0263
  717MOL0     C96683  13.280   4.830   5.961  0.1305 -0.0788  0.6563
  717MOL0     O96684  13.319   4.936   5.876 -0.5376  0.5067  0.3536
  717MOL0     C96685  13.407   5.025   5.921 -1.1608 -0.2873 -0.1240
  717MOL0     C96686  13.444   5.032   6.060 -0.0099 -0.2318 -0.5412
  717MOL0     C96687  13.548   5.108   6.114 -0.6968  0.5135  0.5695
  717MOL0     C96688  13.617   5.193   6.028  0.7891  0.9444  0.4444
  717MOL0     C96689  13.722   5.273   6.088  0.5037  1.4928  0.2285
  717MOL0     O96690  13.758   5.239   6.219  0.3425  0.0172 -0.4101
  717MOL0     C96691  13.876   5.283   6.271  0.3370 -0.2533 -0.2857
  717MOL0     C96692  13.987   5.217   6.220 -0.1299 -0.9245 -0.2925
  717MOL0     C96693  14.118   5.269   6.259 -0.2771  0.1489 -0.0300
  717MOL0     C96694  14.135   5.368   6.358  0.3230  0.4970 -0.4581
  717MOL0     O96695  14.259   5.412   6.398  0.3607  0.1474 -0.0962
  717MOL0     C96696  14.342   5.300   6.442 -0.5303 -0.7272  0.5539
  717MOL0     C96697  14.402   5.327   6.585  0.4619 -0.1693 -0.4012
  717MOL0     C96698  14.475   5.204   6.640 -0.0221 -0.1151 -0.6227
  717MOL0     C96699  14.617   5.193   6.582  0.6633  0.2024  0.7271
  717MOL0     C96700  14.701   5.076   6.635 -0.2420 -0.1082 -0.5131
  717MOL0     C96701  14.640   4.933   6.612  0.6543 -0.5696 -0.6699
  717MOL0     C96702  14.736   4.826   6.669 -0.1696 -0.3569  0.0750
  717MOL0     C96703  14.725   4.813   6.821  0.5055 -0.2191 -0.5318
  717MOL0    Cl96704  14.851   4.707   6.888  0.2291 -0.4996  0.0781
  717MOL0     C96705  14.017   5.433   6.405 -1.0294 -0.4158  0.8177
  717MOL0     C96706  13.893   5.383   6.375  0.2092 -0.4931  0.1164
  717MOL0     O96707  13.781   5.345   6.019  0.2943  0.1224  0.8928
  717MOL0     C96708  13.578   5.193   5.885  0.5236 -0.1619 -0.1999
  717MOL0     C96709  13.474   5.107   5.836  0.2579 -0.7877 -0.7535
  717MOL0     N96710  12.905   4.754   5.520 -0.3102  0.7608 -0.4974
  717MOL0     N96711  12.797   4.797   5.460  0.5695  0.5728 -0.0574
  717MOL0     C96712  11.707   4.682   5.046 -0.1128 -0.0510  0.3399
  717MOL0     C96713  11.593   4.621   4.999 -0.0899  0.3812 -0.5293
  717MOL0     C96714  11.171   4.586   4.811 -0.2020  0.1920  0.4610
  717MOL0     C96715  11.210   4.535   4.687  0.4359 -0.2912  0.0960
  717MOL0     C96716  11.110   4.492   4.599  0.1876  0.1368 -0.1496
  717MOL0     C96717  10.978   4.480   4.629  0.3971  0.0330  0.1671
  717MOL0     O96718  10.900   4.432   4.525 -0.2584  0.2738 -0.5481
  717MOL0     C96719  10.762   4.459   4.552 -0.7659 -0.2147  0.6432
  717MOL0     C96720  10.712   4.332   4.628 -0.2286  0.1335 -0.5184
  717MOL0     C96721  10.567   4.361   4.694  0.6688  0.0848  0.6329
  717MOL0     C96722  10.454   4.347   4.584  0.6480 -0.6298  1.1132
  717MOL0     C96723  10.351   4.253   4.626  0.5097 -0.1825  0.1265
  717MOL0     C96724  10.242   4.192   4.638  0.0840 -0.1368  0.8309
  717MOL0     C96725  10.934   4.525   4.758 -0.1203  0.3725  0.1823
  717MOL0     C96726  11.029   4.575   4.847  0.6228 -0.1362 -0.2314
  717MOL0     C96727  10.973   4.625   4.975 -0.0433 -0.8253 -0.3116
  717MOL0     H96728  11.450   4.899   4.863  0.5148 -0.1999 -0.7955
  717MOL0     H96729  11.636   5.006   4.975  2.0338  0.3536  3.6729
  717MOL0     H96730  11.976   4.966   5.028 -0.4702  0.5300  0.3364
  717MOL0     H96731  11.830   5.054   5.057  1.1458  3.6735  2.9116
  717MOL0     H96732  11.872   5.047   5.309  0.8758 -0.1987  0.0748
  717MOL0     H96733  11.987   5.140   5.223  2.0159 -0.0287  2.3802
  717MOL0     H96734  12.137   4.940   5.199  2.8422 -0.8110  1.6431
  717MOL0     H96735  12.040   4.863   5.339 -0.5972  0.8851  1.8457
  717MOL0     H96736  12.171   5.134   5.320 -0.1031  0.7470 -0.2111
  717MOL0     H96737  12.108   5.077   5.463 -0.0474 -0.8295  0.5411
  717MOL0     H96738  12.321   5.041   5.503 -0.2779  0.7811 -1.5999
  717MOL0     H96739  12.274   4.878   5.481  1.9162 -0.0668  0.7128
  717MOL0     H96740  12.365   4.889   5.239 -2.4423 -0.3176  0.2855
  717MOL0     H96741  12.442   5.041   5.289 -3.4136  0.3087 -2.1964
  717MOL0     H96742  12.583   4.819   5.327  1.4352  0.7893  1.2480
  717MOL0     H96743  12.458   4.765   5.423  1.9065 -1.7155 -1.7535
  717MOL0     H96744  12.612   5.010   5.516  4.4937 -1.3750  1.7475
  717MOL0     H96745  12.506   4.910   5.606  0.2339  2.9937  1.4213
  717MOL0     H96746  12.696   4.834   5.761  0.4236  1.5047 -0.2785
  717MOL0     H96747  12.879   4.689   5.848 -1.1275  2.9236  0.5697
  717MOL0     H96748  12.985   4.607   5.738 -2.6978 -0.2771 -1.4207
  717MOL0     H96749  13.088   4.873   5.747  0.6836 -1.8025 -0.4218
  717MOL0     H96750  13.020   4.860   5.907 -0.0337  0.9592  0.0375
  717MOL0     H96751  13.246   4.710   5.791 -0.2705  0.1505  0.4845
  717MOL0     H96752  13.165   4.645   5.931 -2.8015  0.1963 -0.3472
  717MOL0     H96753  13.369   4.774   5.992 -1.3582 -1.9862  1.7264
  717MOL0     H96754  13.226   4.865   6.049 -2.2607  0.4017 -0.9344
  717MOL0     H96755  13.392   4.965   6.128 -2.9006  1.8083 -0.5639
  717MOL0     H96756  13.582   5.094   6.216 -2.6853 -1.0214  1.0792
  717MOL0     H96757  13.989   5.145   6.138  1.9820  0.1273 -1.2463
  717MOL0     H96758  14.196   5.197   6.234 -0.9969 -1.3082  1.6784
  717MOL0     H96759  14.286   5.206   6.454  0.2972 -1.2020  0.7721
  717MOL0     H96760  14.420   5.288   6.366 -3.1018 -2.0738 -2.1022
  717MOL0     H96761  14.478   5.405   6.574  2.1463 -1.7852 -0.7103
  717MOL0     H96762  14.316   5.354   6.648 -0.6856 -0.7673 -1.6655
  717MOL0     H96763  14.486   5.219   6.747  1.2456  0.3869 -0.8118
  717MOL0     H96764  14.413   5.114   6.626  0.0494 -0.3364  0.3805
  717MOL0     H96765  14.665   5.291   6.586 -2.5207  2.0081 -1.1710
  717MOL0     H96766  14.602   5.166   6.477  1.3092 -0.2032  0.7336
  717MOL0     H96767  14.732   5.077   6.740 -2.7269 -0.3403  0.2861
  717MOL0     H96768  14.794   5.072   6.579  1.1593 -0.5535  1.7036
  717MOL0     H96769  14.536   4.925   6.643  0.2333  3.2438 -0.6485
  717MOL0     H96770  14.628   4.927   6.504 -0.1072  0.2519 -0.6384
  717MOL0     H96771  14.837   4.860   6.644  0.0783 -0.7195  0.5738
  717MOL0     H96772  14.715   4.729   6.624 -2.7110 -0.4183  1.2654
  717MOL0     H96773  14.734   4.910   6.871  1.3673 -0.1232 -0.8554
  717MOL0     H96774  14.624   4.770   6.828  0.8123 -1.0074 -0.8366
  717MOL0     H96775  14.022   5.517   6.473 -1.6900  1.4758 -1.3302
  717MOL0     H96776  13.803   5.422   6.421  0.6194 -0.4092  0.8684
  717MOL0     H96777  13.631   5.270   5.830  2.6723  0.2586  2.2651
  717MOL0     H96778  13.432   5.123   5.737  1.2106  0.0586 -1.0288
  717MOL0     H96779  11.786   4.618   5.084  1.5526  0.2751 -2.3233
  717MOL0     H96780  11.577   4.514   5.014  0.9583  0.5063  1.8855
  717MOL0     H96781  11.312   4.541   4.649 -0.4791  1.6795 -2.3465
  717MOL0     H96782  11.147   4.460   4.502 -1.6151  0.7531 -1.0844
  717MOL0     H96783  10.707   4.465   4.458 -0.3273  1.0266  0.4437
  717MOL0     H96784  10.739   4.553   4.603 -0.3897  0.7513 -0.8959
  717MOL0     H96785  10.777   4.309   4.712 -0.1166 -1.5512 -1.0239
  717MOL0     H96786  10.720   4.250   4.555  1.1149  0.5937 -0.9204
  717MOL0     H96787  10.553   4.460   4.738 -0.3510 -0.2393  1.0585
  717MOL0     H96788  10.558   4.284   4.770  0.8804 -1.0612 -0.4728
  717MOL0     H96789  10.404   4.444   4.576 -1.4504 -1.7354  0.1683
  717MOL0     H96790  10.497   4.319   4.487 -0.2060 -0.3478  0.6422
  717MOL0     H96791  10.146   4.143   4.636  0.7008 -1.3751 -0.5477
  717MOL0     H96792  10.829   4.527   4.784  0.3096 -0.2236  2.1393
  717MOL0     H96793  11.021   4.719   5.003 -0.5846  0.4413 -3.3530
  717MOL0     H96794  10.868   4.655   4.968  0.4382  1.7326  1.7174
  717MOL0     H96795  10.989   4.558   5.061  1.0510  1.0449  1.0207
  718MOL0     O96796   7.570   9.774   2.880  0.5205 -0.6089  0.5618
  718MOL0     C96797   7.492   9.687   2.849 -1.2312  0.1979 -0.3324
  718MOL0     O96798   7.435   9.604   2.938  0.4019 -0.4582 -0.1809
  718MOL0     C96799   7.477   9.624   3.068  0.0882 -0.0422 -0.0938
  718MOL0     C96800   7.614   9.621   3.112  0.2646 -0.2770  0.8183
  718MOL0     C96801   7.646   9.637   3.242 -0.9754  0.4498  0.3804
  718MOL0     C96802   7.542   9.657   3.337 -0.2679 -0.4626  0.0082
  718MOL0     O96803   7.563   9.696   3.466 -0.2801  0.5424 -0.1469
  718MOL0     C96804   7.695   9.736   3.504 -0.3687 -0.4289  0.0974
  718MOL0     C96805   7.703   9.754   3.660  0.2932  0.0614  0.5481
  718MOL0     C96806   7.713   9.621   3.725 -0.2704  0.6778 -0.7165
  718MOL0     C96807   7.720   9.629   3.874  0.7257  0.4286 -0.2961
  718MOL0     C96808   7.752   9.496   3.935 -0.4144 -0.7997  0.4225
  718MOL0     C96809   7.728   9.485   4.085 -0.9724  0.4401  0.2357
  718MOL0     C96810   7.820   9.562   4.184  0.1424 -0.0794 -0.8632
  718MOL0     C96811   7.967   9.545   4.148 -0.7743 -0.6820  0.0946
  718MOL0     N96812   8.057   9.606   4.252 -0.5950  0.3489  0.2222
  718MOL0     C96813   8.099   9.539   4.370  0.0526  0.3910  0.0311
  718MOL0     C96814   8.180   9.622   4.431 -0.5298 -0.5298  0.5596
  718MOL0     C96815   8.244   9.593   4.560 -0.2291  0.1308  0.8581
  718MOL0     C96816   8.391   9.573   4.554 -0.3545 -0.6805  0.3259
  718MOL0     C96817   8.445   9.486   4.662  0.5869 -1.2170  1.2374
  718MOL0     C96818   8.607   9.492   4.673  0.2296  0.4426  0.0995
  718MOL0     O96819   8.663   9.496   4.545  0.9898 -0.3957  0.0768
  718MOL0     C96820   8.797   9.461   4.528 -0.6274  0.4297  0.0372
  718MOL0     C96821   8.894   9.424   4.627  0.6651 -0.3272 -0.2861
  718MOL0     C96822   9.023   9.386   4.604  0.1793  0.6703  0.2597
  718MOL0     C96823   9.065   9.384   4.473  0.8886  0.4163  0.0193
  718MOL0     C96824   9.212   9.360   4.441 -0.4117 -0.6174 -0.3488
  718MOL0     O96825   9.296   9.367   4.543  0.1646  0.7209  0.8212
  718MOL0     C96826   9.425   9.339   4.514 -1.0473 -0.0898  0.3496
  718MOL0     C96827   9.491   9.240   4.595  0.4562 -0.2436  0.3090
  718MOL0     C96828   9.631   9.220   4.586 -0.7495  0.0049  0.5189
  718MOL0     C96829   9.702   9.314   4.506 -0.0313  0.6728 -0.2267
  718MOL0     O96830   9.838   9.324   4.487 -0.3983 -0.2699 -0.1211
  718MOL0     C96831   9.935   9.227   4.536  0.4694 -0.2244 -0.6253
  718MOL0     C96832   9.966   9.252   4.684  0.1721 -0.3625  0.5683
  718MOL0     C96833  10.045   9.392   4.691  0.7497 -0.0257 -0.6216
  718MOL0     C96834  10.074   9.417   4.836 -0.1793 -0.3036 -0.2243
  718MOL0     C96835  10.140   9.550   4.867  0.2995  0.3578 -0.2000
  718MOL0     C96836  10.276   9.578   4.800  0.0093 -0.3424 -0.1545
  718MOL0     C96837  10.350   9.689   4.863 -0.7731 -0.1549  0.5294
  718MOL0     C96838  10.501   9.687   4.824  0.0751 -0.1852 -0.5458
  718MOL0    Cl96839  10.592   9.576   4.918  0.7347 -0.0563  0.0262
  718MOL0     C96840   9.633   9.419   4.438 -0.4258 -0.3054 -0.8775
  718MOL0     C96841   9.499   9.424   4.431  0.1281 -0.7737 -0.9789
  718MOL0     O96842   9.246   9.344   4.327  0.3879 -0.4082  0.0815
  718MOL0     C96843   8.974   9.421   4.370 -0.4767 -0.0749  0.1469
  718MOL0     C96844   8.847   9.461   4.396  0.7765 -0.1143 -0.1474
  718MOL0     N96845   8.199   9.727   4.347  0.4827 -0.9396 -0.6769
  718MOL0     N96846   8.127   9.723   4.244  0.5862  0.1115  0.4349
  718MOL0     C96847   7.410   9.663   3.294  0.2383  0.3859  0.3586
  718MOL0     C96848   7.374   9.656   3.159  0.3889  0.5119 -0.1779
  718MOL0     C96849   7.449   9.684   2.702 -0.4454 -0.9377  0.3570
  718MOL0     C96850   7.325   9.628   2.662  0.0199 -0.1605 -0.4574
  718MOL0     C96851   7.282   9.613   2.532 -0.3796  0.0740  0.1270
  718MOL0     C96852   7.371   9.650   2.433 -0.0071  0.6524  0.6027
  718MOL0     O96853   7.348   9.609   2.303 -0.2905  0.8534  0.1541
  718MOL0     C96854   7.251   9.687   2.224 -0.1095  0.6432  0.2024
  718MOL0     C96855   7.218   9.604   2.105  0.5110  0.4684 -0.2092
  718MOL0     C96856   7.159   9.462   2.134 -0.2798 -0.6214 -0.2233
  718MOL0     C96857   7.190   9.374   2.016  0.2102 -0.6403 -0.7874
  718MOL0     C96858   7.080   9.383   1.919 -0.3164  0.3699 -0.3659
  718MOL0     C96859   7.008   9.393   1.825 -0.5591  0.2132 -0.8781
  718MOL0     C96860   7.498   9.701   2.468  0.1163 -0.3229  0.9170
  718MOL0     C96861   7.533   9.734   2.598 -0.4879 -0.6184  0.1809
  718MOL0     C96862   7.681   9.775   2.615 -0.0073  0.2581 -0.4849
  718MOL0     H96863   7.698   9.599   3.046  0.0871 -2.3000  1.1923
  718MOL0     H96864   7.752   9.635   3.266 -0.6092  1.0155 -1.1001
  718MOL0     H96865   7.768   9.659   3.477  2.4366  1.9337  0.4155
  718MOL0     H96866   7.722   9.835   3.466 -0.0625 -1.1324 -1.6277
  718MOL0     H96867   7.608   9.787   3.701 -0.4276 -1.1864 -0.0657
  718MOL0     H96868   7.785   9.821   3.687 -0.8847  1.8052 -0.0654
  718MOL0     H96869   7.801   9.566   3.691  1.0973  1.5920  1.1398
  718MOL0     H96870   7.630   9.561   3.686  2.1793 -3.0721 -0.7332
  718MOL0     H96871   7.797   9.702   3.901  0.1542  0.8328  0.2577
  718MOL0     H96872   7.626   9.664   3.918 -0.4106 -2.1188 -0.5400
  718MOL0     H96873   7.689   9.420   3.886  0.6691 -1.8532  0.6205
  718MOL0     H96874   7.854   9.464   3.912  0.1157  0.9903  0.1703
  718MOL0     H96875   7.625   9.515   4.107 -0.9652  1.8192 -1.4178
  718MOL0     H96876   7.736   9.380   4.114  1.0105 -0.0588 -1.8598
  718MOL0     H96877   7.803   9.525   4.285  3.0480 -0.8715 -0.5572
  718MOL0     H96878   7.806   9.671   4.187  2.0726  0.1791  1.2589
  718MOL0     H96879   8.001   9.441   4.152 -1.5966 -1.1107 -2.5797
  718MOL0     H96880   7.983   9.595   4.053  1.7472 -0.3303  0.6384
  718MOL0     H96881   8.052   9.449   4.407  1.2391 -1.2986 -2.2729
  718MOL0     H96882   8.214   9.669   4.633  0.4752 -0.2315  1.5418
  718MOL0     H96883   8.203   9.498   4.597  0.7057 -0.7133 -0.1966
  718MOL0     H96884   8.434   9.531   4.463  3.3567  1.5762  0.7952
  718MOL0     H96885   8.436   9.673   4.547 -2.1338  0.2095  1.0295
  718MOL0     H96886   8.408   9.386   4.640 -3.5774  0.1814  0.9446
  718MOL0     H96887   8.403   9.517   4.759 -0.2730  0.1193  0.4725
  718MOL0     H96888   8.632   9.393   4.712 -0.4723  0.4534  0.5931
  718MOL0     H96889   8.648   9.566   4.744  0.6467  1.5746 -1.2804
  718MOL0     H96890   8.879   9.410   4.734  3.0930  0.8831  0.2759
  718MOL0     H96891   9.085   9.359   4.689 -1.2066  1.7376  1.6680
  718MOL0     H96892   9.428   9.188   4.665 -1.1750  1.5793  0.2826
  718MOL0     H96893   9.690   9.141   4.632  0.2258  0.0782 -0.5786
  718MOL0     H96894   9.913   9.121   4.522  3.8419 -1.4942  2.2095
  718MOL0     H96895  10.025   9.247   4.476  0.3368  1.8556 -0.2182
  718MOL0     H96896   9.871   9.262   4.737 -0.7106 -0.0406 -1.0162
  718MOL0     H96897  10.024   9.170   4.728  0.9431  0.0313  0.3097
  718MOL0     H96898  10.142   9.389   4.641  1.8118  4.9642  0.5952
  718MOL0     H96899   9.985   9.476   4.658  0.0402 -0.3778 -0.2563
  718MOL0     H96900  10.145   9.345   4.878 -2.5921 -2.9969 -0.4470
  718MOL0     H96901   9.985   9.408   4.898  0.4211  2.7267  1.2439
  718MOL0     H96902  10.152   9.543   4.975 -0.2856 -2.3842 -0.2417
  718MOL0     H96903  10.068   9.630   4.847 -1.6609 -0.3921  3.1213
  718MOL0     H96904  10.343   9.492   4.810  1.0768  0.3821 -0.8093
  718MOL0     H96905  10.254   9.599   4.695 -1.6605  0.6471  0.3487
  718MOL0     H96906  10.348   9.684   4.973  0.9964  0.7444  0.6407
  718MOL0     H96907  10.313   9.786   4.832 -0.8961  0.0026  1.1543
  718MOL0     H96908  10.516   9.649   4.723 -2.8690 -6.4735  0.8837
  718MOL0     H96909  10.544   9.788   4.829 -1.1175  0.5579 -3.0790
  718MOL0     H96910   9.690   9.495   4.385 -1.1965  0.6510 -0.3720
  718MOL0     H96911   9.461   9.507   4.372  1.6872 -0.0729 -1.0302
  718MOL0     H96912   9.006   9.419   4.266 -1.0656 -1.8389 -0.0402
  718MOL0     H96913   8.779   9.502   4.322  0.0969  0.4575  0.7680
  718MOL0     H96914   7.344   9.686   3.377 -0.7123 -0.8340 -0.0360
  718MOL0     H96915   7.266   9.666   3.151  0.3768 -1.1685 -3.5166
  718MOL0     H96916   7.259   9.584   2.736 -1.7938 -1.9401 -2.9689
  718MOL0     H96917   7.186   9.567   2.511 -0.8431  1.0045  0.1678
  718MOL0     H96918   7.299   9.780   2.194  0.1856 -0.3798 -2.9244
  718MOL0     H96919   7.159   9.702   2.280 -0.2433  0.2480  0.0928
  718MOL0     H96920   7.309   9.601   2.046  0.2568  1.3564 -0.6667
  718MOL0     H96921   7.141   9.657   2.048 -3.4631 -1.1858  3.0418
  718MOL0     H96922   7.056   9.478   2.166 -1.0049 -0.3249 -2.5388
  718MOL0     H96923   7.220   9.424   2.216 -2.6486 -1.6719  1.1310
  718MOL0     H96924   7.283   9.402   1.966 -0.2086  0.2599 -1.0873
  718MOL0     H96925   7.195   9.273   2.057 -1.2264  0.5692  2.7809
  718MOL0     H96926   6.948   9.394   1.736  0.9042 -0.8944 -1.9413
  718MOL0     H96927   7.574   9.694   2.391 -0.9175  0.2186 -0.1738
  718MOL0     H96928   7.725   9.699   2.680 -1.5655  0.6288  1.0908
  718MOL0     H96929   7.733   9.779   2.519  0.8775 -3.0648 -0.2797
  718MOL0     H96930   7.670   9.871   2.667 -3.5154 -1.5059  2.5803
  719MOL0     O96931   8.437   6.303   0.465 -1.2827  0.0137 -0.1396
  719MOL0     C96932   8.411   6.236   0.563  1.0811 -0.0687 -0.0518
  719MOL0     O96933   8.483   6.236   0.676  0.3896 -0.6307  0.3809
  719MOL0     C96934   8.605   6.286   0.682 -0.0879 -0.1277  0.1117
  719MOL0     C96935   8.631   6.421   0.664  0.9153  0.3668  0.0893
  719MOL0     C96936   8.759   6.476   0.654  0.4246 -0.0213  0.0509
  719MOL0     C96937   8.868   6.389   0.666  0.2246 -0.1052  0.3834
  719MOL0     O96938   8.999   6.434   0.648 -0.3901  0.4232 -1.0908
  719MOL0     C96939   9.019   6.577   0.663 -0.5561 -0.3088 -0.5323
  719MOL0     C96940   9.166   6.598   0.696 -0.0892 -0.0299  0.7051
  719MOL0     C96941   9.261   6.558   0.578 -0.5639  0.3160 -0.3620
  719MOL0     C96942   9.406   6.593   0.635  0.0832  0.7144 -0.1859
  719MOL0     C96943   9.522   6.595   0.530 -0.0209 -0.1539  0.2042
  719MOL0     C96944   9.527   6.729   0.450 -0.3071 -0.1018 -0.5979
  719MOL0     C96945   9.604   6.723   0.318  0.0341  0.3723 -0.4845
  719MOL0     C96946   9.749   6.706   0.351 -0.2222  0.0051  0.3548
  719MOL0     N96947   9.830   6.657   0.240 -0.4778  0.3591 -0.1648
  719MOL0     C96948   9.893   6.730   0.137  1.5729  0.3896 -0.8483
  719MOL0     C96949   9.949   6.632   0.070  0.4358  0.5789  0.9409
  719MOL0     C96950  10.041   6.683  -0.037  0.1808 -0.1343  0.0109
  719MOL0     C96951  10.155   6.775   0.012 -1.3153 -0.2074  0.4217
  719MOL0     C96952  10.238   6.710   0.122 -0.4524  0.3164 -0.6998
  719MOL0     C96953  10.370   6.781   0.162 -0.2746  0.2947 -0.4870
  719MOL0     O96954  10.438   6.700   0.252 -0.5738 -0.0276  0.5271
  719MOL0     C96955  10.563   6.740   0.301 -1.1519  0.0196  0.7920
  719MOL0     C96956  10.626   6.660   0.393 -0.1100 -0.0937 -0.6684
  719MOL0     C96957  10.754   6.685   0.440 -0.4883 -0.1889  0.1857
  719MOL0     C96958  10.826   6.798   0.384 -0.3729  0.3566 -0.3966
  719MOL0     C96959  10.970   6.820   0.418 -0.6567 -0.7789 -0.2791
  719MOL0     O96960  11.026   6.736   0.511  0.1444 -0.1155  0.1458
  719MOL0     C96961  11.157   6.747   0.527 -0.3739  0.2910  0.1272
  719MOL0     C96962  11.241   6.686   0.431 -0.1951  0.6889  0.0943
  719MOL0     C96963  11.373   6.713   0.421  0.3815  0.2243 -0.0499
  719MOL0     C96964  11.442   6.784   0.520  0.2381 -0.3023 -0.1851
  719MOL0     O96965  11.576   6.794   0.496 -0.1079 -0.3178  0.0849
  719MOL0     C96966  11.661   6.856   0.591 -0.4551  0.6192 -0.0312
  719MOL0     C96967  11.800   6.798   0.590  0.2012 -0.3697  0.4064
  719MOL0     C96968  11.871   6.809   0.459 -0.2191  0.4209  0.2260
  719MOL0     C96969  12.000   6.721   0.454 -0.6724  0.7891  0.3576
  719MOL0     C96970  12.115   6.795   0.516 -0.2579 -0.4680  0.4557
  719MOL0     C96971  12.239   6.722   0.490 -1.1456 -0.6208  0.1339
  719MOL0     C96972  12.362   6.812   0.504 -0.2464 -0.4486  0.1207
  719MOL0     C96973  12.382   6.906   0.381 -1.1704 -0.6531  0.4152
  719MOL0    Cl96974  12.530   6.850   0.286  0.0371 -0.2845 -0.3015
  719MOL0     C96975  11.362   6.843   0.624  0.3525 -0.0131  0.1577
  719MOL0     C96976  11.221   6.826   0.623  0.1476 -0.1511 -0.0886
  719MOL0     O96977  11.029   6.913   0.357  0.1424 -0.2427 -0.2744
  719MOL0     C96978  10.762   6.887   0.298  0.0713  0.3332  0.2621
  719MOL0     C96979  10.634   6.856   0.257 -0.0418 -0.1054  0.9724
  719MOL0     N96980   9.927   6.503   0.121  0.1271 -0.1264 -0.2157
  719MOL0     N96981   9.859   6.523   0.227 -0.4422  0.2234 -1.2608
  719MOL0     C96982   8.845   6.251   0.686 -0.0134 -0.1998  0.0101
  719MOL0     C96983   8.711   6.203   0.699  0.0348  0.5720  0.2398
  719MOL0     C96984   8.286   6.161   0.577 -0.1574  0.2622  1.0958
  719MOL0     C96985   8.190   6.196   0.482  0.0844  0.4798  0.7445
  719MOL0     C96986   8.064   6.135   0.491 -0.1797 -0.1393  0.4862
  719MOL0     C96987   8.026   6.044   0.593  0.0444  0.1180 -0.0400
  719MOL0     O96988   7.900   5.992   0.590 -0.0737  0.2250 -0.0314
  719MOL0     C96989   7.871   5.867   0.653 -0.0466  0.5705  0.4385
  719MOL0     C96990   7.736   5.813   0.607 -0.6334  0.0788  0.0802
  719MOL0     C96991   7.624   5.914   0.651  0.2336 -0.0142  0.1387
  719MOL0     C96992   7.486   5.844   0.667  0.0921 -0.4822 -0.0042
  719MOL0     C96993   7.389   5.948   0.712  0.1870  1.1492 -0.0337
  719MOL0     C96994   7.305   6.016   0.758  0.6268  0.1387 -0.4508
  719MOL0     C96995   8.124   6.013   0.684 -0.7600 -0.4105 -0.0860
  719MOL0     C96996   8.252   6.068   0.676 -0.2737 -0.7944  0.8242
  719MOL0     C96997   8.351   6.017   0.771  0.8294 -0.5029  0.4296
  719MOL0     H96998   8.540   6.480   0.656 -0.1101 -1.4086 -2.4056
  719MOL0     H96999   8.782   6.579   0.630  1.9773  0.1157  1.8177
  719MOL0     H97000   8.976   6.624   0.574  0.2733 -0.9662 -1.2983
  719MOL0     H97001   8.961   6.622   0.745  0.4054 -1.3720  0.7745
  719MOL0     H97002   9.198   6.555   0.792  0.7898  0.5178  0.6677
  719MOL0     H97003   9.181   6.706   0.704  2.3751 -0.4256  3.1256
  719MOL0     H97004   9.243   6.604   0.481  2.1578 -3.0261 -2.6966
  719MOL0     H97005   9.271   6.450   0.567  0.8015  0.5560 -1.7152
  719MOL0     H97006   9.409   6.692   0.681 -0.6813  1.2631 -1.2712
  719MOL0     H97007   9.440   6.513   0.702 -2.3269 -0.2175  0.0378
  719MOL0     H97008   9.619   6.581   0.579 -0.9682 -0.9403  1.9444
  719MOL0     H97009   9.507   6.512   0.462  0.8872 -1.1446  1.1647
  719MOL0     H97010   9.424   6.748   0.419 -0.5912 -0.0777  0.3232
  719MOL0     H97011   9.567   6.812   0.509  0.3571 -0.6315 -0.2850
  719MOL0     H97012   9.582   6.807   0.251  1.6995  1.6635  0.5040
  719MOL0     H97013   9.572   6.626   0.277 -1.4060 -1.4497  4.2751
  719MOL0     H97014   9.790   6.805   0.373 -2.2465  1.2016 -0.9517
  719MOL0     H97015   9.768   6.641   0.437  1.4015  1.0571  0.8264
  719MOL0     H97016   9.891   6.835   0.110  0.6912  0.7267  0.4092
  719MOL0     H97017  10.087   6.602  -0.094 -1.1651 -1.3232  0.5476
  719MOL0     H97018   9.980   6.749  -0.100  0.6325  1.6245  1.3345
  719MOL0     H97019  10.228   6.796  -0.066 -1.9678  0.6364  0.0140
  719MOL0     H97020  10.118   6.869   0.055  2.6861  1.2389  1.0614
  719MOL0     H97021  10.271   6.609   0.094  0.2268 -0.5909  2.9295
  719MOL0     H97022  10.182   6.698   0.215 -1.2635  3.3841 -0.6771
  719MOL0     H97023  10.361   6.880   0.207  0.6153  1.9808 -3.7103
  719MOL0     H97024  10.425   6.794   0.068  1.6129 -0.3875  0.4737
  719MOL0     H97025  10.571   6.574   0.429  0.5442  0.2499  1.2588
  719MOL0     H97026  10.806   6.635   0.521  0.2656  0.7522  0.3052
  719MOL0     H97027  11.201   6.622   0.354 -0.6220  1.0571  0.0080
  719MOL0     H97028  11.428   6.683   0.332 -0.3025 -0.8914 -0.1194
  719MOL0     H97029  11.666   6.965   0.576 -0.5224  0.5735 -0.3788
  719MOL0     H97030  11.626   6.846   0.694  0.9812  0.5749  0.4791
  719MOL0     H97031  11.859   6.835   0.674 -1.4218  1.0881  0.9647
  719MOL0     H97032  11.776   6.692   0.604 -1.0545 -0.2618 -0.6739
  719MOL0     H97033  11.804   6.781   0.377  1.9357  1.2760 -1.9542
  719MOL0     H97034  11.902   6.912   0.437  0.3275  0.5235  1.3625
  719MOL0     H97035  12.022   6.682   0.354  1.0306  1.2289  0.5347
  719MOL0     H97036  11.983   6.629   0.510  0.3885 -0.5695 -1.4583
  719MOL0     H97037  12.103   6.819   0.622  1.6944  2.0895  0.1828
  719MOL0     H97038  12.138   6.893   0.474  2.0056 -1.3573 -0.5581
  719MOL0     H97039  12.253   6.642   0.563 -0.0757 -1.1707 -0.6382
  719MOL0     H97040  12.228   6.681   0.389 -2.1911  2.8162 -1.2878
  719MOL0     H97041  12.460   6.768   0.527  0.2677  2.0340  3.4657
  719MOL0     H97042  12.350   6.886   0.584  3.0450  2.7504 -2.0383
  719MOL0     H97043  12.290   6.913   0.322 -0.8988 -1.0342 -0.0614
  719MOL0     H97044  12.403   7.006   0.421 -2.7335 -0.2169  0.1994
  719MOL0     H97045  11.402   6.902   0.705 -0.3951  0.8477 -0.0737
  719MOL0     H97046  11.162   6.894   0.684  2.9035  1.1502  1.2976
  719MOL0     H97047  10.813   6.979   0.274  0.2326  0.2410  0.2451
  719MOL0     H97048  10.601   6.924   0.180 -0.4262 -2.5765 -1.1695
  719MOL0     H97049   8.935   6.191   0.698  1.1819  1.4982 -0.2003
  719MOL0     H97050   8.698   6.097   0.718  0.3425  0.1442 -1.6876
  719MOL0     H97051   8.193   6.277   0.409 -1.2628  1.6886  1.9716
  719MOL0     H97052   7.986   6.168   0.422  1.0211  0.6010 -0.5634
  719MOL0     H97053   7.871   5.878   0.762  0.2742  0.4315  0.4544
  719MOL0     H97054   7.947   5.788   0.644  1.4101  1.5536  2.9343
  719MOL0     H97055   7.724   5.720   0.664  1.5819 -0.4040 -0.1632
  719MOL0     H97056   7.730   5.795   0.500 -0.1903 -2.1430  0.3859
  719MOL0     H97057   7.624   5.989   0.572 -1.5521 -1.9314 -1.8088
  719MOL0     H97058   7.637   5.958   0.750 -1.3968 -0.9047  0.7933
  719MOL0     H97059   7.449   5.798   0.575 -2.1292 -3.1912  2.0631
  719MOL0     H97060   7.485   5.761   0.738  1.1435 -1.8688 -1.5392
  719MOL0     H97061   7.225   6.079   0.791  0.3187 -0.5832  0.1914
  719MOL0     H97062   8.119   5.932   0.755 -2.4393 -0.1591  0.1074
  719MOL0     H97063   8.326   5.929   0.832  1.7757 -2.2652 -1.6132
  719MOL0     H97064   8.442   5.993   0.716  0.6144  1.1543 -0.6928
  719MOL0     H97065   8.383   6.090   0.846  1.3391 -0.1507 -0.1341
  720MOL0     O97066   9.869   1.561   3.610 -0.4117 -0.2135 -0.1167
  720MOL0     C97067   9.857   1.439   3.619  0.0653 -0.0526 -0.2222
  720MOL0     O97068   9.945   1.356   3.692 -0.4230 -0.0320  0.1192
  720MOL0     C97069  10.084   1.382   3.704 -0.3744 -0.0606 -0.1097
  720MOL0     C97070  10.160   1.483   3.634 -0.6058 -0.3246 -0.1071
  720MOL0     C97071  10.292   1.501   3.667  0.3033 -1.4152  0.4177
  720MOL0     C97072  10.346   1.419   3.769 -0.4171 -0.5326  0.2573
  720MOL0     O97073  10.481   1.451   3.785 -0.3165 -0.3543  0.3585
  720MOL0     C97074  10.560   1.366   3.866 -1.0032  0.4225 -0.5131
  720MOL0     C97075  10.531   1.391   4.014 -0.5075  0.2911  0.5994
  720MOL0     C97076  10.560   1.258   4.098  0.4747  0.5113  0.2276
  720MOL0     C97077  10.705   1.211   4.120  0.5553 -0.7728  0.0263
  720MOL0     C97078  10.713   1.058   4.110  0.7218  0.9219  1.4123
  720MOL0     C97079  10.684   1.003   3.969  0.6934  0.2184  0.1836
  720MOL0     C97080  10.742   0.863   3.951  0.2956 -0.7174  0.8513
  720MOL0     C97081  10.888   0.861   3.900 -0.3998  0.5325 -0.3081
  720MOL0     N97082  10.951   0.721   3.917 -0.5298 -0.1802  0.0601
  720MOL0     C97083  11.029   0.693   4.023 -0.4126 -0.0365 -0.5817
  720MOL0     C97084  11.060   0.559   4.009  0.5496 -0.1576  0.8469
  720MOL0     C97085  11.155   0.481   4.093 -0.5361 -0.0088  0.6730
  720MOL0     C97086  11.068   0.398   4.191  0.2237  1.6574 -0.7600
  720MOL0     C97087  11.135   0.277   4.269  0.7399 -0.6006  0.3657
  720MOL0     C97088  11.212   0.345   4.381 -0.2498 -0.1576 -1.3410
  720MOL0     O97089  11.344   0.385   4.323 -0.3227  0.5559 -0.8143
  720MOL0     C97090  11.423   0.438   4.424 -0.1642 -0.5148  0.3058
  720MOL0     C97091  11.512   0.353   4.487 -0.2644  0.3915  0.2761
  720MOL0     C97092  11.597   0.402   4.590  0.7744 -0.1343  0.3660
  720MOL0     C97093  11.591   0.543   4.613 -0.1986 -0.2800 -0.2800
  720MOL0     C97094  11.702   0.609   4.694 -0.0783  0.1531  0.0049
  720MOL0     O97095  11.763   0.519   4.770  0.4138  0.3453  0.0690
  720MOL0     C97096  11.864   0.558   4.859 -0.1111 -0.1521  0.1950
  720MOL0     C97097  11.868   0.674   4.940  0.7065 -0.3481  0.1138
  720MOL0     C97098  11.983   0.706   5.010  0.0043 -0.2623 -0.3710
  720MOL0     C97099  12.086   0.613   5.025 -0.1964  0.2374  0.2156
  720MOL0     O97100  12.184   0.643   5.114 -0.1918 -0.7377 -0.4814
  720MOL0     C97101  12.309   0.575   5.091 -0.6432 -0.1183 -0.4617
  720MOL0     C97102  12.416   0.639   5.187 -0.6701  0.7161 -0.5227
  720MOL0     C97103  12.429   0.791   5.198  0.6024  0.1895 -0.1585
  720MOL0     C97104  12.549   0.829   5.270  0.4578 -0.0954 -0.0392
  720MOL0     C97105  12.681   0.801   5.196 -0.2190  0.0697 -0.2411
  720MOL0     C97106  12.807   0.835   5.275  0.4520 -0.1594 -1.0917
  720MOL0     C97107  12.845   0.723   5.372 -0.5346 -0.6296  1.0784
  720MOL0     C97108  12.984   0.727   5.445  0.5457 -0.4209 -0.1461
  720MOL0    Cl97109  13.128   0.711   5.329  0.2528 -0.2627  0.4571
  720MOL0     C97110  12.082   0.497   4.949  1.4370  0.0718  0.2147
  720MOL0     C97111  11.973   0.466   4.862  0.1533  1.0053  0.4771
  720MOL0     O97112  11.737   0.719   4.680  0.1105  0.1508  0.0237
  720MOL0     C97113  11.485   0.623   4.558  0.3537 -0.3391  0.0133
  720MOL0     C97114  11.398   0.562   4.467 -0.5421 -0.5696  0.5124
  720MOL0     N97115  10.990   0.514   3.896  0.7174  0.5171 -1.0300
  720MOL0     N97116  10.917   0.610   3.840  0.5013 -0.9268  0.3460
  720MOL0     C97117  10.269   1.329   3.834  0.0818  0.9133  0.2754
  720MOL0     C97118  10.141   1.309   3.810 -0.0124  0.3375 -0.7635
  720MOL0     C97119   9.738   1.373   3.560 -0.8463 -0.9106 -0.4252
  720MOL0     C97120   9.733   1.227   3.574 -0.3552 -0.5182  0.4125
  720MOL0     C97121   9.622   1.155   3.518 -0.1936 -0.5868 -0.5489
  720MOL0     C97122   9.524   1.222   3.450  0.2835  0.4731 -0.1017
  720MOL0     O97123   9.432   1.157   3.368  0.2598 -0.2847 -0.5761
  720MOL0     C97124   9.322   1.104   3.442 -0.2714  0.4411  0.3980
  720MOL0     C97125   9.219   1.197   3.399 -0.4412  0.9357 -0.1045
  720MOL0     C97126   9.079   1.138   3.422  0.5165 -0.7791  0.4447
  720MOL0     C97127   8.958   1.239   3.398  0.5092  0.7992  0.0236
  720MOL0     C97128   8.889   1.257   3.531 -0.1480 -0.2876 -1.1280
  720MOL0     C97129   8.815   1.255   3.636 -0.6786 -0.2143  0.8323
  720MOL0     C97130   9.532   1.361   3.446  0.6459  0.6528 -0.2223
  720MOL0     C97131   9.637   1.438   3.492  0.9452 -0.5148 -0.4291
  720MOL0     C97132   9.639   1.581   3.455  0.6179 -0.5190  0.1256
  720MOL0     H97133  10.111   1.558   3.574  1.4658  2.4769  1.4855
  720MOL0     H97134  10.351   1.584   3.629  0.6763 -0.2311  3.2939
  720MOL0     H97135  10.530   1.268   3.827 -0.5051  1.6160 -4.3014
  720MOL0     H97136  10.664   1.390   3.841 -1.3051  2.4796 -0.0380
  720MOL0     H97137  10.429   1.426   4.030 -1.3919 -2.0930  0.6480
  720MOL0     H97138  10.604   1.469   4.038  2.2828 -1.4552 -1.4519
  720MOL0     H97139  10.500   1.181   4.049 -0.4127  1.5713 -0.4092
  720MOL0     H97140  10.520   1.284   4.197  0.4615  2.1090 -0.1649
  720MOL0     H97141  10.777   1.255   4.051  0.7810  0.0733  0.7790
  720MOL0     H97142  10.742   1.239   4.220  1.4820  2.2385 -1.0431
  720MOL0     H97143  10.813   1.025   4.142  0.5653 -0.4629  0.5546
  720MOL0     H97144  10.633   1.012   4.169  0.8767 -1.2770  0.0147
  720MOL0     H97145  10.574   1.000   3.966  0.3746  1.0031  4.4798
  720MOL0     H97146  10.720   1.068   3.889 -0.0610  0.7041  0.2230
  720MOL0     H97147  10.684   0.810   3.875  0.1178 -0.5915  0.8986
  720MOL0     H97148  10.743   0.813   4.048  0.1704  0.1777  1.3171
  720MOL0     H97149  10.885   0.884   3.793 -0.2668  0.6731 -0.2808
  720MOL0     H97150  10.942   0.936   3.958 -1.4085  1.3464 -0.3793
  720MOL0     H97151  11.073   0.752   4.102 -1.7864 -3.0842  2.7519
  720MOL0     H97152  11.214   0.415   4.028  0.9682  1.6011  0.3343
  720MOL0     H97153  11.208   0.553   4.156 -2.1741  0.3834  1.6633
  720MOL0     H97154  11.007   0.467   4.251 -1.2229  0.6913 -1.0569
  720MOL0     H97155  11.001   0.350   4.119 -0.7663  2.6552 -0.5391
  720MOL0     H97156  11.195   0.221   4.197 -0.0728 -1.9528  0.7124
  720MOL0     H97157  11.063   0.209   4.316  1.4479 -0.6504  1.4019
  720MOL0     H97158  11.235   0.276   4.463 -1.1061  0.9921 -0.0875
  720MOL0     H97159  11.153   0.421   4.433 -1.0588  0.5427 -3.1848
  720MOL0     H97160  11.522   0.247   4.463 -1.5624  0.4542 -0.6604
  720MOL0     H97161  11.674   0.336   4.628  1.2312  0.9477  1.3835
  720MOL0     H97162  11.794   0.753   4.935  0.2608 -0.3940  3.6797
  720MOL0     H97163  11.986   0.793   5.075 -1.5496 -1.8502  1.9764
  720MOL0     H97164  12.293   0.469   5.113 -2.2926 -0.4714 -2.9562
  720MOL0     H97165  12.337   0.589   4.987 -0.1999  1.6722 -0.1380
  720MOL0     H97166  12.396   0.595   5.285  1.5817 -1.5387 -0.9844
  720MOL0     H97167  12.509   0.592   5.156 -2.2284 -2.1301 -1.1432
  720MOL0     H97168  12.436   0.830   5.096  3.1530 -1.6613 -0.7834
  720MOL0     H97169  12.342   0.833   5.250  2.2253  0.6462  2.3835
  720MOL0     H97170  12.551   0.773   5.364 -2.3230 -0.6707 -0.2324
  720MOL0     H97171  12.535   0.936   5.289  1.6832  0.1931 -0.6203
  720MOL0     H97172  12.664   0.865   5.108  1.4475 -2.2773 -2.4205
  720MOL0     H97173  12.696   0.700   5.157 -0.8921  0.4092 -1.4644
  720MOL0     H97174  12.887   0.846   5.202  1.5913 -2.1660 -0.2196
  720MOL0     H97175  12.791   0.926   5.333 -0.6451 -2.9230  3.4472
  720MOL0     H97176  12.845   0.626   5.322  0.4681  0.0334 -0.2958
  720MOL0     H97177  12.763   0.719   5.444 -1.9682 -2.2689 -0.5631
  720MOL0     H97178  12.998   0.820   5.501 -2.1764  1.2156 -1.9417
  720MOL0     H97179  12.981   0.646   5.519 -2.2955 -1.3049 -1.1071
  720MOL0     H97180  12.162   0.424   4.940  0.5444 -0.8522 -0.5622
  720MOL0     H97181  11.980   0.372   4.808  0.5727  0.4480  1.4656
  720MOL0     H97182  11.468   0.729   4.571  0.3439  0.2994 -3.9291
  720MOL0     H97183  11.314   0.620   4.429 -0.0365  1.0356  1.7476
  720MOL0     H97184  10.318   1.276   3.915  0.8676  0.5198 -0.4318
  720MOL0     H97185  10.081   1.233   3.860  0.6626  0.4521  0.2579
  720MOL0     H97186   9.815   1.175   3.621  0.5602  2.7340  2.8183
  720MOL0     H97187   9.605   1.049   3.534 -0.9557 -0.1948  1.6569
  720MOL0     H97188   9.346   1.121   3.547  0.8215  1.9225 -0.0519
  720MOL0     H97189   9.291   1.000   3.430 -1.7302  1.0040 -1.0835
  720MOL0     H97190   9.227   1.219   3.292 -0.7384 -1.6044 -0.7081
  720MOL0     H97191   9.229   1.278   3.472 -0.1141 -1.4326  2.6929
  720MOL0     H97192   9.078   1.117   3.529  0.1476 -0.9635  0.4065
  720MOL0     H97193   9.066   1.043   3.368 -2.0682 -0.3954  0.2381
  720MOL0     H97194   8.980   1.340   3.362  0.6095  0.9296  0.4436
  720MOL0     H97195   8.888   1.191   3.329  1.3314 -3.5016  1.8346
  720MOL0     H97196   8.749   1.258   3.721  1.8116 -0.4363  2.9121
  720MOL0     H97197   9.447   1.413   3.404 -2.0487 -1.1873  2.5198
  720MOL0     H97198   9.566   1.596   3.375  0.4451 -2.6553 -0.1900
  720MOL0     H97199   9.605   1.643   3.538 -2.0739  0.1721 -1.3585
  720MOL0     H97200   9.738   1.610   3.418 -1.9702  4.8662 -4.0393
  721MOL0     O97201   3.975   0.256   8.616 -0.1499 -0.3150 -0.5865
  721MOL0     C97202   3.874   0.324   8.608 -0.8457  0.7120  0.2752
  721MOL0     O97203   3.871   0.457   8.578 -0.4071 -0.3188  0.6419
  721MOL0     C97204   3.993   0.521   8.543 -1.0066 -0.1526  0.4410
  721MOL0     C97205   4.046   0.507   8.422  0.7809 -0.3970 -0.1577
  721MOL0     C97206   4.159   0.576   8.384 -0.5806  0.4741  0.8475
  721MOL0     C97207   4.215   0.664   8.476  0.1458  0.2860  0.0992
  721MOL0     O97208   4.310   0.744   8.424  0.1041 -0.5238 -0.0789
  721MOL0     C97209   4.431   0.731   8.500 -0.1155  0.3489  0.1338
  721MOL0     C97210   4.537   0.829   8.454  0.4315 -0.5293 -0.1026
  721MOL0     C97211   4.559   0.818   8.304 -0.3744 -0.6015  0.5032
  721MOL0     C97212   4.655   0.932   8.268  0.7196 -0.0340  0.3544
  721MOL0     C97213   4.769   0.892   8.179  0.4041 -0.2893 -0.2245
  721MOL0     C97214   4.721   0.845   8.038 -0.1405 -0.0923  0.2904
  721MOL0     C97215   4.841   0.814   7.948  0.2229 -0.1725 -0.2011
  721MOL0     C97216   4.789   0.780   7.796  0.4171  0.0285  0.1032
  721MOL0     N97217   4.887   0.738   7.704 -0.9481  0.2203  0.0109
  721MOL0     C97218   4.866   0.650   7.596  0.5221 -0.0950  0.4663
  721MOL0     C97219   4.992   0.606   7.571 -0.5331 -0.2747 -0.1330
  721MOL0     C97220   5.043   0.514   7.468 -0.3397 -0.0789 -0.3814
  721MOL0     C97221   5.015   0.365   7.486  0.4051 -0.2973  0.1295
  721MOL0     C97222   5.060   0.326   7.626 -0.0231 -0.3296  0.2815
  721MOL0     C97223   5.032   0.182   7.676  0.3354  0.2918 -1.4743
  721MOL0     O97224   5.080   0.079   7.586  0.0463 -0.9437  0.6933
  721MOL0     C97225   5.216   0.065   7.581 -0.3205  0.5344  0.0037
  721MOL0     C97226   5.305   0.128   7.492  0.2427 -0.4058  0.3254
  721MOL0     C97227   5.441   0.086   7.480 -0.5584  0.1174 -1.2698
  721MOL0     C97228   5.492  -0.020   7.561 -1.1926  0.0696 -0.2015
  721MOL0     C97229   5.635  -0.059   7.571 -0.0282  0.3059 -0.8626
  721MOL0     O97230   5.722  -0.016   7.480  0.2645  0.2313  0.0461
  721MOL0     C97231   5.855  -0.044   7.496  0.5965 -0.0975  0.3590
  721MOL0     C97232   5.910  -0.171   7.463  0.7275 -0.5594 -0.5580
  721MOL0     C97233   6.050  -0.200   7.489 -0.3280 -0.4816 -0.7568
  721MOL0     C97234   6.134  -0.103   7.539  0.9839  0.0128  0.0641
  721MOL0     O97235   6.268  -0.103   7.567 -1.2189  0.5026  0.9853
  721MOL0     C97236   6.342  -0.226   7.555  0.0337 -0.5668 -0.8812
  721MOL0     C97237   6.306  -0.332   7.658 -0.8121 -0.0753 -0.0266
  721MOL0     C97238   6.360  -0.480   7.625  0.3403  0.3573  0.3723
  721MOL0     C97239   6.508  -0.486   7.589 -0.4542 -0.9844 -0.0219
  721MOL0     C97240   6.562  -0.617   7.549  0.8602  0.4455 -1.0632
  721MOL0     C97241   6.543  -0.738   7.647  0.1302  1.0222 -0.1196
  721MOL0     C97242   6.614  -0.873   7.603 -0.4209  0.0442 -0.2799
  721MOL0     C97243   6.764  -0.888   7.568 -0.2355  0.0105  0.3621
  721MOL0    Cl97244   6.844  -0.854   7.719 -0.4039 -0.3090 -0.0318
  721MOL0     C97245   6.075   0.019   7.572 -0.7317  1.2043  0.3120
  721MOL0     C97246   5.939   0.047   7.551  0.0898 -0.7668 -0.2867
  721MOL0     O97247   5.667  -0.124   7.669 -0.3429  1.0219 -0.2840
  721MOL0     C97248   5.403  -0.087   7.643 -0.4561  0.8697  0.4746
  721MOL0     C97249   5.263  -0.048   7.651  0.2559 -0.3313 -0.3116
  721MOL0     N97250   5.076   0.677   7.649 -0.0054  0.1778 -0.2792
  721MOL0     N97251   5.025   0.760   7.734  0.5995  0.5913  0.5973
  721MOL0     C97252   4.159   0.669   8.613 -0.4231 -0.2938  0.4834
  721MOL0     C97253   4.047   0.600   8.644 -0.9125 -1.0919 -0.1411
  721MOL0     C97254   3.741   0.256   8.627 -0.9426  0.8627  0.8766
  721MOL0     C97255   3.635   0.331   8.672  0.0084  0.4785  0.2228
  721MOL0     C97256   3.505   0.276   8.694  0.4673  0.5929  0.7103
  721MOL0     C97257   3.487   0.139   8.690 -0.3904  0.2819 -0.2632
  721MOL0     O97258   3.378   0.060   8.717 -0.0244 -0.2919  0.0992
  721MOL0     C97259   3.281   0.124   8.798  0.6218  0.1048 -0.4725
  721MOL0     C97260   3.164   0.032   8.841 -0.0676  0.0351 -0.6225
  721MOL0     C97261   3.077  -0.023   8.729 -1.2510  0.1057  0.3334
  721MOL0     C97262   3.138  -0.045   8.588 -0.8018 -0.3091  0.3750
  721MOL0     C97263   3.233  -0.156   8.575 -0.6782  0.5945 -0.3827
  721MOL0     C97264   3.325  -0.233   8.574 -0.2011 -0.3248 -0.1298
  721MOL0     C97265   3.600   0.064   8.644  0.0032  0.3485  0.4334
  721MOL0     C97266   3.722   0.116   8.607  0.7687  0.9749  0.0852
  721MOL0     C97267   3.823   0.028   8.544 -0.4853 -0.4348  0.4294
  721MOL0     H97268   3.996   0.446   8.348 -0.1390  0.1826 -0.0315
  721MOL0     H97269   4.209   0.566   8.288 -2.7358  1.7328 -0.4971
  721MOL0     H97270   4.415   0.754   8.606 -1.9417  1.5190 -0.3512
  721MOL0     H97271   4.473   0.630   8.490  0.3418  0.4627  0.8275
  721MOL0     H97272   4.627   0.805   8.510  1.1174  2.4505  0.2287
  721MOL0     H97273   4.506   0.931   8.476  1.3350 -0.3586  0.4156
  721MOL0     H97274   4.467   0.841   8.249  1.8169  1.3742 -2.7891
  721MOL0     H97275   4.600   0.718   8.288 -2.4340 -1.4760  0.4530
  721MOL0     H97276   4.588   1.010   8.230 -0.3376 -0.5383  1.1433
  721MOL0     H97277   4.697   0.974   8.359  1.7402 -0.2460  0.0020
  721MOL0     H97278   4.855   0.959   8.169  0.7066 -0.9533 -2.8884
  721MOL0     H97279   4.814   0.798   8.212  0.1748 -0.2784  0.1198
  721MOL0     H97280   4.648   0.764   8.041 -0.9788  0.6692  1.8924
  721MOL0     H97281   4.663   0.931   8.003 -1.2237  0.2877  2.8505
  721MOL0     H97282   4.896   0.726   7.981 -1.4126 -0.9064  0.6871
  721MOL0     H97283   4.916   0.893   7.950  0.7644 -0.5689 -2.1121
  721MOL0     H97284   4.708   0.707   7.795  0.0486  0.3349  2.3719
  721MOL0     H97285   4.746   0.872   7.755  1.0883 -0.0926 -0.9278
  721MOL0     H97286   4.776   0.621   7.542 -0.1157  0.0674  1.4283
  721MOL0     H97287   4.997   0.542   7.373 -0.4356  0.0880 -0.2843
  721MOL0     H97288   5.149   0.529   7.447  0.7022 -0.3912  3.7335
  721MOL0     H97289   4.910   0.344   7.465  0.4885  0.5859 -1.2528
  721MOL0     H97290   5.066   0.298   7.416 -1.6890  1.1010 -2.9580
  721MOL0     H97291   4.997   0.382   7.696 -2.1445 -1.5811 -0.5083
  721MOL0     H97292   5.165   0.352   7.639  0.1710 -1.1135  0.3187
  721MOL0     H97293   4.928   0.170   7.708  0.6061  0.4157 -0.5125
  721MOL0     H97294   5.100   0.175   7.761  0.2067  0.6153 -1.3437
  721MOL0     H97295   5.267   0.205   7.427 -0.2839 -0.2406  0.8201
  721MOL0     H97296   5.513   0.128   7.411 -1.3153 -1.1002 -2.8684
  721MOL0     H97297   5.848  -0.249   7.418  2.0825 -0.7632 -2.1837
  721MOL0     H97298   6.085  -0.301   7.471  1.0552 -0.2646  0.5065
  721MOL0     H97299   6.323  -0.260   7.452 -1.3499  0.7127 -1.0794
  721MOL0     H97300   6.446  -0.196   7.565 -0.1946 -0.1660  0.4844
  721MOL0     H97301   6.356  -0.298   7.749  0.4898  0.4060 -0.8952
  721MOL0     H97302   6.201  -0.329   7.686 -0.9147  0.6068 -0.4879
  721MOL0     H97303   6.346  -0.541   7.715  0.3757  0.5134  0.4854
  721MOL0     H97304   6.298  -0.521   7.545  1.0417  0.7423 -0.3835
  721MOL0     H97305   6.567  -0.450   7.674 -1.2803  0.5276 -0.0378
  721MOL0     H97306   6.526  -0.426   7.500  0.0937 -1.2219 -0.0701
  721MOL0     H97307   6.666  -0.593   7.527  1.1454 -0.7191 -1.0454
  721MOL0     H97308   6.515  -0.654   7.457  2.5206 -2.0025 -1.0044
  721MOL0     H97309   6.588  -0.710   7.743 -2.6446  2.8719  0.7595
  721MOL0     H97310   6.436  -0.748   7.667  0.8386 -3.9174  3.1560
  721MOL0     H97311   6.564  -0.894   7.508 -1.6020 -1.2589  0.5948
  721MOL0     H97312   6.592  -0.959   7.666  1.0619 -2.7197 -3.2836
  721MOL0     H97313   6.788  -0.989   7.533 -3.1298 -0.4082 -0.6733
  721MOL0     H97314   6.793  -0.814   7.492 -0.4835  2.9803  2.9727
  721MOL0     H97315   6.124   0.100   7.624  3.4650  0.8089 -2.5574
  721MOL0     H97316   5.897   0.140   7.588  1.5012 -0.7324  1.3921
  721MOL0     H97317   5.433  -0.180   7.690  0.6449  2.5700  3.3652
  721MOL0     H97318   5.192  -0.097   7.716  1.6581  0.6324  2.1078
  721MOL0     H97319   4.196   0.733   8.692 -2.0796 -1.0340  1.9221
  721MOL0     H97320   3.994   0.614   8.738 -1.6201 -0.2077 -0.6662
  721MOL0     H97321   3.659   0.436   8.683  2.6264 -0.1458  1.1087
  721MOL0     H97322   3.434   0.357   8.708  0.8016  1.7759 -3.3474
  721MOL0     H97323   3.241   0.213   8.749  1.9725  0.7023 -0.5193
  721MOL0     H97324   3.335   0.163   8.884  0.2413  1.3449 -0.7841
  721MOL0     H97325   3.104   0.084   8.916 -0.5649  0.1868 -1.1196
  721MOL0     H97326   3.192  -0.056   8.900 -2.3017 -1.1782 -1.2764
  721MOL0     H97327   2.996   0.047   8.707  0.0786  1.2589 -1.1645
  721MOL0     H97328   3.038  -0.117   8.768  1.5232 -0.9705  0.7545
  721MOL0     H97329   3.054  -0.067   8.521 -1.3577  2.0997  0.1715
  721MOL0     H97330   3.185   0.045   8.547  1.0023 -1.3649  0.0262
  721MOL0     H97331   3.420  -0.283   8.572 -0.3192 -0.5145 -1.5970
  721MOL0     H97332   3.593  -0.043   8.625 -1.4668  0.6568 -1.0142
  721MOL0     H97333   3.906   0.033   8.615  0.5384  2.5404 -0.7855
  721MOL0     H97334   3.793  -0.077   8.545  0.5691 -0.7680  2.1333
  721MOL0     H97335   3.862   0.052   8.445  0.4780  1.2088  1.1627
  722MOL0     O97336   3.001   2.974   5.681 -0.2406  0.4142 -0.0606
  722MOL0     C97337   2.969   3.050   5.775 -0.5697 -0.1002 -0.9460
  722MOL0     O97338   3.066   3.129   5.841 -0.4183  0.1354 -0.4300
  722MOL0     C97339   3.191   3.083   5.854  0.1270 -0.6919 -0.2841
  722MOL0     C97340   3.241   3.032   5.972  0.2550  0.7937  0.7269
  722MOL0     C97341   3.374   2.981   5.980  0.1707 -0.0727  0.0355
  722MOL0     C97342   3.466   3.004   5.879  0.3517 -0.1201  0.0402
  722MOL0     O97343   3.599   2.954   5.883  0.2992 -0.2477 -0.1673
  722MOL0     C97344   3.616   2.839   5.962  0.1078  0.3899 -0.2998
  722MOL0     C97345   3.756   2.783   5.950 -0.4567 -0.9852  0.2735
  722MOL0     C97346   3.799   2.757   5.808  0.2036  0.5523 -0.1468
  722MOL0     C97347   3.916   2.659   5.814 -0.6274  0.4359  0.0645
  722MOL0     C97348   4.053   2.727   5.839 -0.0940  0.1072 -0.2829
  722MOL0     C97349   4.147   2.615   5.811 -0.1939 -0.8581  0.3545
  722MOL0     C97350   4.291   2.658   5.823 -0.3378 -0.5289  0.9398
  722MOL0     C97351   4.385   2.536   5.820  0.1315 -0.6418  0.8896
  722MOL0     N97352   4.527   2.575   5.820 -0.1518 -0.2174  0.2685
  722MOL0     C97353   4.586   2.642   5.717  0.3078 -0.2066  0.3474
  722MOL0     C97354   4.723   2.665   5.748  0.9563  0.5497 -0.2270
  722MOL0     C97355   4.818   2.745   5.664  0.0349  0.3825  0.4058
  722MOL0     C97356   4.779   2.889   5.621  0.5424  0.7272  0.2766
  722MOL0     C97357   4.757   2.993   5.732 -0.7695 -0.0018  0.2242
  722MOL0     C97358   4.644   2.971   5.831  0.2744  0.3665 -0.9144
  722MOL0     O97359   4.515   2.982   5.757 -0.0897 -0.7200 -0.5844
  722MOL0     C97360   4.406   3.003   5.831  0.0664 -0.5236  0.1184
  722MOL0     C97361   4.299   3.069   5.768 -0.6896 -0.4838  0.7845
  722MOL0     C97362   4.187   3.106   5.839  1.0860 -0.4838  0.2079
  722MOL0     C97363   4.173   3.077   5.974  0.8313 -0.0736  0.2327
  722MOL0     C97364   4.063   3.138   6.054  0.6516 -0.4238 -0.0992
  722MOL0     O97365   4.000   3.252   6.020 -0.2189  0.0577  0.0889
  722MOL0     C97366   3.880   3.274   6.088 -0.3956  0.4429 -0.4382
  722MOL0     C97367   3.874   3.362   6.196 -0.1692  0.2426  0.9860
  722MOL0     C97368   3.750   3.385   6.257  0.1125  1.7383  0.9154
  722MOL0     C97369   3.632   3.328   6.205  0.5469 -1.2114 -0.5953
  722MOL0     O97370   3.517   3.350   6.286 -0.3870  0.2295 -0.0771
  722MOL0     C97371   3.392   3.289   6.255 -0.1067 -0.3264 -0.0113
  722MOL0     C97372   3.291   3.324   6.364 -0.2451  0.0694 -1.0446
  722MOL0     C97373   3.154   3.268   6.326  0.1922  1.2753  1.2627
  722MOL0     C97374   3.049   3.362   6.383 -0.2219 -0.8571  0.1805
  722MOL0     C97375   2.913   3.306   6.358 -0.4740  1.0563 -0.0196
  722MOL0     C97376   2.798   3.409   6.366  0.4914  0.1230  0.1746
  722MOL0     C97377   2.653   3.351   6.357 -0.8484 -0.1310  0.1228
  722MOL0     C97378   2.555   3.466   6.359 -0.0432 -0.3424 -0.5804
  722MOL0    Cl97379   2.547   3.543   6.196  0.0269  0.6126 -0.2025
  722MOL0     C97380   3.637   3.240   6.098 -0.7692 -0.2072 -0.1662
  722MOL0     C97381   3.763   3.213   6.037 -0.3826 -0.8207  0.4811
  722MOL0     O97382   4.039   3.072   6.158 -0.1164  0.3214  0.2848
  722MOL0     C97383   4.278   3.000   6.037  0.4850  0.0600 -0.0859
  722MOL0     C97384   4.386   2.970   5.965 -0.5602  0.5334 -1.2664
  722MOL0     N97385   4.739   2.608   5.873  0.3133  0.2237  0.2194
  722MOL0     N97386   4.620   2.558   5.916  0.0864  0.2153 -0.8650
  722MOL0     C97387   3.416   3.057   5.753  0.1238 -0.0489  0.8391
  722MOL0     C97388   3.277   3.089   5.741  0.7696  0.2479  0.3744
  722MOL0     C97389   2.832   3.082   5.812  0.1564 -0.1664  0.2747
  722MOL0     C97390   2.810   3.167   5.919  0.3412  0.1332 -0.1666
  722MOL0     C97391   2.684   3.195   5.967  0.1096 -0.6815  0.5015
  722MOL0     C97392   2.576   3.122   5.917 -0.9816  0.1023  1.0144
  722MOL0     O97393   2.443   3.134   5.960 -0.1837  0.6704  0.2673
  722MOL0     C97394   2.407   3.219   6.066 -0.0987 -0.3745 -0.0533
  722MOL0     C97395   2.249   3.234   6.054  0.0339 -0.2067  0.3896
  722MOL0     C97396   2.200   3.323   6.164 -0.3099  0.4483  0.2869
  722MOL0     C97397   2.068   3.390   6.127 -0.4875 -0.6229  0.4779
  722MOL0     C97398   1.997   3.448   6.242 -0.3939 -0.0345 -0.2608
  722MOL0     C97399   1.956   3.493   6.346  0.3704  0.4441 -0.4754
  722MOL0     C97400   2.593   3.036   5.808  0.5623 -0.2364  0.6423
  722MOL0     C97401   2.718   3.022   5.749 -0.3643 -0.9685 -0.5440
  722MOL0     C97402   2.734   2.934   5.634 -0.8726 -0.0829  0.6166
  722MOL0     H97403   3.185   3.026   6.065 -0.7184  0.0512  0.1120
  722MOL0     H97404   3.376   2.923   6.072 -1.9728 -0.2170  0.0413
  722MOL0     H97405   3.601   2.866   6.067  1.7909 -0.8766  0.2986
  722MOL0     H97406   3.543   2.761   5.937  0.4943  0.8894 -3.3703
  722MOL0     H97407   3.772   2.697   6.017  0.2233 -0.9621  0.1495
  722MOL0     H97408   3.829   2.858   5.983 -2.7807  1.5983 -0.0831
  722MOL0     H97409   3.827   2.846   5.751  0.0484  0.5149 -0.2835
  722MOL0     H97410   3.710   2.725   5.752 -1.4939  3.0686  0.9688
  722MOL0     H97411   3.904   2.576   5.884 -0.0317  0.5111  0.2614
  722MOL0     H97412   3.903   2.610   5.717 -0.9888 -0.3379  0.4987
  722MOL0     H97413   4.072   2.799   5.758  1.6125 -2.2004 -2.0891
  722MOL0     H97414   4.050   2.766   5.941  1.0612  0.4879 -0.3801
  722MOL0     H97415   4.133   2.528   5.876  1.5243 -0.8643  0.7575
  722MOL0     H97416   4.139   2.583   5.707  1.7175  0.4106 -0.2237
  722MOL0     H97417   4.303   2.716   5.915  0.1224 -1.9634  1.8272
  722MOL0     H97418   4.321   2.727   5.743  1.0597 -1.2446  0.8117
  722MOL0     H97419   4.372   2.466   5.903  1.6160 -0.7485  1.0617
  722MOL0     H97420   4.348   2.487   5.730 -0.2505  1.6942 -0.3028
  722MOL0     H97421   4.522   2.674   5.635 -0.7350 -1.3803  0.6683
  722MOL0     H97422   4.913   2.747   5.719  0.9124 -1.5925 -0.9255
  722MOL0     H97423   4.836   2.692   5.570  1.7718 -0.4574  1.1683
  722MOL0     H97424   4.853   2.936   5.556  0.8842  0.3686  0.3985
  722MOL0     H97425   4.688   2.875   5.562 -0.6245  2.2458  1.6276
  722MOL0     H97426   4.739   3.084   5.673 -1.5410  0.6913  1.4938
  722MOL0     H97427   4.853   2.996   5.784  1.2466 -1.7514 -3.0320
  722MOL0     H97428   4.652   3.037   5.917 -2.2380 -0.2269 -0.1394
  722MOL0     H97429   4.637   2.872   5.877  1.1563  0.7367  0.0555
  722MOL0     H97430   4.303   3.091   5.662 -2.5835  1.2346  1.0233
  722MOL0     H97431   4.118   3.168   5.782  1.9141  0.5025  0.2572
  722MOL0     H97432   3.964   3.410   6.233 -0.2415  1.3005 -0.1550
  722MOL0     H97433   3.738   3.441   6.349 -1.1818  0.0333  1.8613
  722MOL0     H97434   3.342   3.310   6.161  0.9745  0.6453 -0.3907
  722MOL0     H97435   3.403   3.180   6.261 -2.1520 -0.5783 -0.0053
  722MOL0     H97436   3.324   3.284   6.461 -1.0004 -1.3322 -1.3375
  722MOL0     H97437   3.288   3.433   6.376  1.5860  0.1082 -0.6176
  722MOL0     H97438   3.139   3.265   6.218 -1.5571 -2.5404  1.4745
  722MOL0     H97439   3.143   3.162   6.348 -0.2841  0.4826 -2.2334
  722MOL0     H97440   3.055   3.463   6.342  1.3702 -1.5725 -1.4669
  722MOL0     H97441   3.059   3.372   6.492  0.3680 -0.5750  0.1003
  722MOL0     H97442   2.903   3.223   6.429  0.8474  0.6804 -0.2563
  722MOL0     H97443   2.908   3.249   6.265  1.7338 -0.9030  0.9701
  722MOL0     H97444   2.806   3.463   6.461  1.0084  1.7829 -0.7842
  722MOL0     H97445   2.811   3.481   6.286 -0.1379 -0.6171 -0.6162
  722MOL0     H97446   2.628   3.292   6.445  1.6217 -2.3699 -0.5418
  722MOL0     H97447   2.651   3.283   6.271  1.9646 -2.7718  1.9444
  722MOL0     H97448   2.457   3.427   6.388  0.9039 -1.6318  1.0777
  722MOL0     H97449   2.578   3.536   6.440 -2.4727  1.0214 -0.9877
  722MOL0     H97450   3.543   3.196   6.067 -0.6443 -1.6242  1.3246
  722MOL0     H97451   3.772   3.157   5.945  1.8483  0.6375 -0.2781
  722MOL0     H97452   4.278   2.973   6.142  1.5768 -1.6333 -0.4739
  722MOL0     H97453   4.462   2.915   6.021  1.7622  1.4127 -3.3790
  722MOL0     H97454   3.478   3.077   5.666  3.4101 -0.9527  2.8307
  722MOL0     H97455   3.236   3.131   5.650  0.1646  0.9559  0.9548
  722MOL0     H97456   2.895   3.202   5.976  0.4925 -2.3153  1.2319
  722MOL0     H97457   2.677   3.272   6.043  1.8069  0.0616 -0.0252
  722MOL0     H97458   2.456   3.316   6.061 -1.8792  0.5117 -1.3867
  722MOL0     H97459   2.438   3.167   6.157  0.4732  2.2833  1.3685
  722MOL0     H97460   2.203   3.136   6.067 -1.3490  0.4882  0.9090
  722MOL0     H97461   2.219   3.273   5.956  0.5387 -3.1388 -1.0296
  722MOL0     H97462   2.274   3.402   6.185 -0.1660  0.2075  0.6967
  722MOL0     H97463   2.183   3.261   6.252 -0.6132  0.0300 -0.0660
  722MOL0     H97464   2.087   3.465   6.050 -3.4252  0.5945  0.8144
  722MOL0     H97465   1.996   3.316   6.094 -1.6573  0.5408  0.3338
  722MOL0     H97466   1.921   3.539   6.437 -1.5921 -0.1974 -0.8642
  722MOL0     H97467   2.505   2.984   5.772 -0.7071  2.7703 -1.0710
  722MOL0     H97468   2.804   2.983   5.566  0.9763 -0.2704  2.3000
  722MOL0     H97469   2.769   2.839   5.674 -1.9290 -0.7934 -0.0797
  722MOL0     H97470   2.637   2.921   5.583  0.7508  0.7941 -3.0363
  723MOL0     O97471   3.555   0.050   3.217 -0.1738  0.5305  0.3924
  723MOL0     C97472   3.640   0.030   3.306  0.3613 -0.6314 -0.5177
  723MOL0     O97473   3.677  -0.093   3.352  0.1401 -0.3725  0.4257
  723MOL0     C97474   3.618  -0.217   3.325 -0.2467 -1.1156  0.4402
  723MOL0     C97475   3.521  -0.244   3.222  0.3566  0.8934  0.6273
  723MOL0     C97476   3.473  -0.374   3.211  1.2033 -0.4071  0.6286
  723MOL0     C97477   3.520  -0.475   3.300  0.0581  0.0433 -0.3600
  723MOL0     O97478   3.457  -0.593   3.285 -0.5839 -0.4865 -0.3477
  723MOL0     C97479   3.521  -0.712   3.339  0.2249 -0.3179 -0.9392
  723MOL0     C97480   3.445  -0.829   3.296  0.4590  0.4140 -0.4788
  723MOL0     C97481   3.516  -0.893   3.182  0.5618  0.4121  0.5940
  723MOL0     C97482   3.435  -1.019   3.136 -0.2152  0.0498  0.0299
  723MOL0     C97483   3.433  -1.140   3.227 -0.3085 -0.1304 -0.6624
  723MOL0     C97484   3.568  -1.211   3.244  0.2270 -0.7784  1.0447
  723MOL0     C97485   3.567  -1.362   3.283  0.9272  1.1865  0.8643
  723MOL0     C97486   3.704  -1.443   3.310  0.6167  0.5982  0.4425
  723MOL0     N97487   3.786  -1.448   3.189 -0.4619 -0.7313 -0.6869
  723MOL0     C97488   3.927  -1.429   3.197  0.2436  0.4258  0.3163
  723MOL0     C97489   3.965  -1.447   3.071 -0.5867  0.0759  0.0099
  723MOL0     C97490   4.110  -1.457   3.030 -0.2004  0.4929  0.3832
  723MOL0     C97491   4.144  -1.582   2.947 -0.8973 -0.1578  0.6670
  723MOL0     C97492   4.104  -1.709   3.013  0.3331  0.3034  0.7345
  723MOL0     C97493   4.183  -1.825   2.940 -0.0254 -0.5683  0.0836
  723MOL0     O97494   4.267  -1.878   3.043  0.6821  0.3611  0.1642
  723MOL0     C97495   4.364  -1.967   2.993 -0.1874  0.1241 -0.3440
  723MOL0     C97496   4.341  -2.054   2.891  0.5911 -0.2625  0.0616
  723MOL0     C97497   4.446  -2.136   2.842  0.6017 -0.0440  0.0222
  723MOL0     C97498   4.569  -2.149   2.915  0.2269 -1.3569  0.5408
  723MOL0     C97499   4.680  -2.234   2.877 -0.1306 -0.3925  1.0888
  723MOL0     O97500   4.804  -2.191   2.928 -0.5243 -0.1691  0.1817
  723MOL0     C97501   4.923  -2.261   2.918  0.2381 -0.1396  0.3949
  723MOL0     C97502   5.039  -2.190   2.915 -0.3326  0.6043  0.7539
  723MOL0     C97503   5.162  -2.258   2.918  0.1719 -0.7605 -0.0833
  723MOL0     C97504   5.171  -2.397   2.910 -0.6612 -0.7256  0.8853
  723MOL0     O97505   5.291  -2.474   2.915  0.7795  0.2164  0.9823
  723MOL0     C97506   5.414  -2.412   2.870 -0.0146  0.0983 -0.1807
  723MOL0     C97507   5.516  -2.517   2.837  0.5874 -0.2355 -0.3638
  723MOL0     C97508   5.652  -2.456   2.779 -0.2536  0.1032 -1.1945
  723MOL0     C97509   5.745  -2.402   2.893  0.4922  0.2453 -0.0436
  723MOL0     C97510   5.869  -2.318   2.829 -0.5583  0.9274  0.0700
  723MOL0     C97511   5.988  -2.420   2.833  0.4095  0.5921  0.2419
  723MOL0     C97512   6.113  -2.346   2.821 -0.2887 -0.1494 -0.7012
  723MOL0     C97513   6.228  -2.433   2.789 -0.5492  0.1705  0.0908
  723MOL0    Cl97514   6.389  -2.351   2.816  0.1403 -0.2085  0.0977
  723MOL0     C97515   5.054  -2.466   2.918 -0.1405  0.3154  0.0071
  723MOL0     C97516   4.930  -2.398   2.916  0.4251 -0.5290 -0.9152
  723MOL0     O97517   4.669  -2.331   2.795  0.4102 -0.0955 -0.1767
  723MOL0     C97518   4.578  -2.065   3.024  0.4162 -0.5963  0.8055
  723MOL0     C97519   4.479  -1.968   3.065  0.6979  0.3378 -0.6620
  723MOL0     N97520   3.853  -1.454   2.985 -1.0179  0.1765 -0.9054
  723MOL0     N97521   3.748  -1.456   3.057 -1.0665 -0.7362 -0.2210
  723MOL0     C97522   3.621  -0.446   3.388  0.3890  0.5568  0.1804
  723MOL0     C97523   3.674  -0.325   3.396 -0.0243 -1.2748  0.1086
  723MOL0     C97524   3.688   0.146   3.387 -0.6660  0.7184 -0.2905
  723MOL0     C97525   3.778   0.131   3.494  0.8897  0.1102  1.1026
  723MOL0     C97526   3.842   0.244   3.565  0.2033  0.1713  0.1521
  723MOL0     C97527   3.818   0.376   3.519  0.9317 -0.3272  0.1037
  723MOL0     O97528   3.874   0.476   3.593  0.3341 -0.9836  0.2788
  723MOL0     C97529   3.997   0.536   3.535  0.7882  0.8543 -1.0357
  723MOL0     C97530   4.124   0.467   3.591  0.8691 -0.2477  0.5275
  723MOL0     C97531   4.253   0.523   3.516 -1.0668 -0.5856 -0.2917
  723MOL0     C97532   4.280   0.673   3.518  0.4452  0.4408 -0.3255
  723MOL0     C97533   4.424   0.697   3.492 -0.9770 -0.3900 -0.0463
  723MOL0     C97534   4.543   0.706   3.461  0.4626 -0.1080  0.5857
  723MOL0     C97535   3.731   0.393   3.415  0.4878  0.3377  0.1194
  723MOL0     C97536   3.668   0.282   3.341  0.6396 -0.5538 -0.1837
  723MOL0     C97537   3.567   0.332   3.234  0.2184  0.2302  0.2604
  723MOL0     H97538   3.485  -0.166   3.157  1.6321  1.5750  0.7102
  723MOL0     H97539   3.404  -0.399   3.131 -1.2711  4.1384  1.0329
  723MOL0     H97540   3.628  -0.705   3.316 -0.3573  1.8692 -3.5735
  723MOL0     H97541   3.524  -0.713   3.448  3.2138  2.1940 -0.8386
  723MOL0     H97542   3.343  -0.804   3.266  0.1085  0.5268  0.7533
  723MOL0     H97543   3.434  -0.898   3.380  1.0881 -0.8733 -1.4163
  723MOL0     H97544   3.614  -0.928   3.215 -0.5743 -2.2514  1.4201
  723MOL0     H97545   3.542  -0.825   3.100  1.5269  2.6013  2.6072
  723MOL0     H97546   3.328  -0.997   3.121  0.2679  1.2347 -2.1325
  723MOL0     H97547   3.472  -1.044   3.036  1.5160  3.2291 -0.2646
  723MOL0     H97548   3.411  -1.120   3.332  2.0240  0.9341 -0.2990
  723MOL0     H97549   3.347  -1.200   3.196 -1.6952  0.0033  2.5063
  723MOL0     H97550   3.612  -1.205   3.144 -4.0007  1.0414 -0.9231
  723MOL0     H97551   3.635  -1.159   3.313 -0.2662  0.2690  0.7443
  723MOL0     H97552   3.501  -1.419   3.217  4.2266 -1.6506 -0.3626
  723MOL0     H97553   3.504  -1.351   3.371  0.4558  2.3341  0.3912
  723MOL0     H97554   3.767  -1.397   3.386  1.1886 -0.4736  0.6338
  723MOL0     H97555   3.676  -1.547   3.330 -2.0994  0.5992 -2.4798
  723MOL0     H97556   3.986  -1.425   3.288 -1.1893  1.3093  1.2502
  723MOL0     H97557   4.140  -1.368   2.973  1.5224 -0.9859 -1.1271
  723MOL0     H97558   4.171  -1.453   3.121  0.2924 -1.5691  0.1724
  723MOL0     H97559   4.088  -1.578   2.853 -0.4470 -0.0806  0.3976
  723MOL0     H97560   4.253  -1.578   2.935 -0.6177  4.3273  2.7531
  723MOL0     H97561   3.998  -1.732   3.000  0.6883 -0.9053 -0.1877
  723MOL0     H97562   4.134  -1.704   3.118 -0.8682 -1.1332  1.1685
  723MOL0     H97563   4.243  -1.796   2.853  0.0089 -2.1317 -0.4388
  723MOL0     H97564   4.121  -1.906   2.901  0.8933 -1.3560  0.2147
  723MOL0     H97565   4.245  -2.058   2.840  1.8986  1.2185 -2.7410
  723MOL0     H97566   4.431  -2.190   2.749 -0.0960  0.9817 -0.4845
  723MOL0     H97567   5.046  -2.082   2.914 -0.1355  0.5910 -0.7678
  723MOL0     H97568   5.249  -2.194   2.925  0.4715 -0.8438 -2.2100
  723MOL0     H97569   5.401  -2.354   2.779  0.4418 -0.1946 -0.4330
  723MOL0     H97570   5.457  -2.353   2.952  3.4706 -2.7330  0.2908
  723MOL0     H97571   5.528  -2.593   2.915 -0.7905 -0.8420 -0.7051
  723MOL0     H97572   5.465  -2.568   2.755 -0.6568 -0.4045  0.4827
  723MOL0     H97573   5.701  -2.536   2.722 -0.0268  0.5447 -1.6254
  723MOL0     H97574   5.627  -2.372   2.715  1.8039  0.3355 -1.7600
  723MOL0     H97575   5.772  -2.488   2.955  0.0744 -0.2306 -0.5144
  723MOL0     H97576   5.687  -2.329   2.949 -3.7632 -1.5645 -1.6734
  723MOL0     H97577   5.904  -2.231   2.886 -2.2061  1.2522  0.6355
  723MOL0     H97578   5.853  -2.278   2.729 -3.3280 -0.1018  0.0194
  723MOL0     H97579   6.001  -2.483   2.921  2.8301  0.3545 -0.2135
  723MOL0     H97580   5.978  -2.480   2.741 -3.1604  0.1137  0.8020
  723MOL0     H97581   6.137  -2.306   2.920 -1.0991 -2.2149  0.3885
  723MOL0     H97582   6.100  -2.267   2.746  2.0849  1.4723  0.4620
  723MOL0     H97583   6.227  -2.527   2.846  0.5339 -0.6121 -1.1256
  723MOL0     H97584   6.231  -2.467   2.685 -1.7089  0.5925 -0.0959
  723MOL0     H97585   5.063  -2.573   2.936 -0.4273 -0.0059 -1.5826
  723MOL0     H97586   4.832  -2.444   2.910 -0.0791  0.2038  1.0006
  723MOL0     H97587   4.663  -2.075   3.090  1.1733 -0.5110 -0.1262
  723MOL0     H97588   4.487  -1.902   3.151 -0.6786 -0.7306  0.3332
  723MOL0     H97589   3.658  -0.521   3.456 -0.6844 -1.8298 -1.7254
  723MOL0     H97590   3.738  -0.319   3.483 -1.3953  0.8651  1.0566
  723MOL0     H97591   3.801   0.025   3.508 -1.4242 -0.3837  1.5920
  723MOL0     H97592   3.914   0.229   3.645  1.3928  1.7445 -0.5638
  723MOL0     H97593   4.008   0.638   3.574  3.6130  0.1423  0.2678
  723MOL0     H97594   4.009   0.534   3.426 -1.1371 -1.3955 -1.2862
  723MOL0     H97595   4.120   0.361   3.564 -2.2713  0.2613 -1.5168
  723MOL0     H97596   4.134   0.475   3.700 -0.7829  0.2095  0.6673
  723MOL0     H97597   4.249   0.493   3.411  0.0088  0.1923 -0.5584
  723MOL0     H97598   4.340   0.481   3.568  0.2708  2.7198  0.3961
  723MOL0     H97599   4.215   0.719   3.442 -2.4081  0.3095  1.8943
  723MOL0     H97600   4.257   0.722   3.613  0.4172  0.4320 -0.3277
  723MOL0     H97601   4.639   0.713   3.414 -0.9549  0.8933 -2.4094
  723MOL0     H97602   3.713   0.494   3.378  1.8249 -0.3212 -2.5956
  723MOL0     H97603   3.465   0.300   3.258 -0.2434  0.1922 -1.5998
  723MOL0     H97604   3.566   0.440   3.217 -2.3513  0.0686 -0.9511
  723MOL0     H97605   3.601   0.288   3.140 -0.9401 -0.8705  0.3314
  724MOL0     O97606  10.302   8.639   5.589 -0.2943  0.3045  0.0263
  724MOL0     C97607  10.323   8.760   5.605 -0.8801 -0.1733  0.5121
  724MOL0     O97608  10.414   8.827   5.528  0.9984  0.1655  0.7847
  724MOL0     C97609  10.501   8.764   5.440  0.8788  0.1760 -0.1048
  724MOL0     C97610  10.486   8.799   5.299  0.6309  0.2515 -0.2474
  724MOL0     C97611  10.589   8.758   5.209 -1.3563  0.7043 -1.4571
  724MOL0     C97612  10.705   8.691   5.260  0.9996  0.6391  0.0886
  724MOL0     O97613  10.802   8.668   5.169 -0.0347  0.4035 -0.2052
  724MOL0     C97614  10.940   8.659   5.204  0.3791 -0.5917  0.2236
  724MOL0     C97615  11.015   8.645   5.075  0.2345  0.2356 -0.2106
  724MOL0     C97616  11.145   8.560   5.082  0.3227 -0.5296 -1.0378
  724MOL0     C97617  11.207   8.561   4.943 -0.4098  0.7602  0.5896
  724MOL0     C97618  11.326   8.456   4.925 -0.8635 -0.2808  0.3760
  724MOL0     C97619  11.360   8.458   4.776  0.9556 -0.3540 -0.2544
  724MOL0     C97620  11.506   8.402   4.752 -0.1441 -0.4764 -0.1198
  724MOL0     C97621  11.614   8.510   4.784 -0.3718 -0.0212 -0.3047
  724MOL0     N97622  11.750   8.489   4.722  0.0029  0.2404  0.8222
  724MOL0     C97623  11.875   8.501   4.785  0.6008 -0.4880  0.2232
  724MOL0     C97624  11.966   8.494   4.683 -0.1747  0.5725  0.1462
  724MOL0     C97625  12.119   8.511   4.691  0.3658  0.7221 -0.4069
  724MOL0     C97626  12.164   8.634   4.616  0.2427  0.2466 -0.1863
  724MOL0     C97627  12.193   8.750   4.723  0.1461 -0.5377 -0.3598
  724MOL0     C97628  12.249   8.887   4.659  0.2891 -0.0067  0.6764
  724MOL0     O97629  12.316   8.871   4.529  0.5919  0.4132  0.3290
  724MOL0     C97630  12.376   8.979   4.466  0.8273 -0.1605 -1.6094
  724MOL0     C97631  12.337   9.108   4.487 -0.1361 -0.1560  0.5497
  724MOL0     C97632  12.411   9.209   4.429  0.4274  0.4498  0.2730
  724MOL0     C97633  12.523   9.181   4.347  0.4925 -0.5278  0.3977
  724MOL0     C97634  12.592   9.286   4.270  0.0035  0.6765  0.7214
  724MOL0     O97635  12.623   9.398   4.336 -0.5891  0.2148  0.2889
  724MOL0     C97636  12.697   9.499   4.274  0.9658 -0.1686 -0.2510
  724MOL0     C97637  12.664   9.553   4.151 -0.1374 -0.3219  0.1834
  724MOL0     C97638  12.754   9.630   4.087 -0.0553  0.1290 -0.1652
  724MOL0     C97639  12.874   9.672   4.143 -0.8270  0.7631 -0.6775
  724MOL0     O97640  12.974   9.762   4.094 -1.0783 -0.6230 -0.0121
  724MOL0     C97641  12.935   9.841   3.985 -0.7467 -0.1798 -0.7689
  724MOL0     C97642  13.040   9.943   3.953 -0.1336  0.4977  0.2529
  724MOL0     C97643  13.182   9.879   3.929  0.5344  0.3843  0.2911
  724MOL0     C97644  13.278   9.995   3.916 -0.3671 -0.1103 -0.6368
  724MOL0     C97645  13.419   9.935   3.883  0.3350 -0.6665 -0.3107
  724MOL0     C97646  13.533  10.041   3.873 -0.0771  0.2018  0.1713
  724MOL0     C97647  13.542  10.117   3.736 -0.1047 -0.3539 -0.1682
  724MOL0     C97648  13.677  10.187   3.702 -0.1965 -0.2600  0.7119
  724MOL0    Cl97649  13.725  10.280   3.841  0.3092  0.1514  0.2052
  724MOL0     C97650  12.903   9.617   4.271  0.4828  0.1697  0.6773
  724MOL0     C97651  12.814   9.530   4.339  0.8240 -0.4540  0.2170
  724MOL0     O97652  12.637   9.250   4.162 -0.6387  0.2701  0.1157
  724MOL0     C97653  12.564   9.053   4.329  0.0093 -0.0120  0.7414
  724MOL0     C97654  12.481   8.953   4.386  0.0022 -0.9025 -0.2793
  724MOL0     N97655  11.898   8.483   4.566 -0.5297  0.4365  0.6255
  724MOL0     N97656  11.777   8.470   4.589 -0.6843  0.4418 -0.1889
  724MOL0     C97657  10.711   8.655   5.397  1.0865  0.4009 -0.2471
  724MOL0     C97658  10.607   8.694   5.484  0.0462  0.5034  0.0086
  724MOL0     C97659  10.236   8.849   5.679  0.5630 -0.8409 -0.2764
  724MOL0     C97660  10.192   8.968   5.618  0.6294 -0.4081  0.2419
  724MOL0     C97661  10.105   9.056   5.692  0.3952  0.6821  0.1965
  724MOL0     C97662  10.074   9.019   5.825  0.8509  0.0194 -0.0383
  724MOL0     O97663   9.970   9.097   5.880 -0.1963  0.5017 -0.9859
  724MOL0     C97664   9.978   9.111   6.026  0.8112  0.2424 -0.5264
  724MOL0     C97665   9.953   9.258   6.054  0.4391 -0.5700 -0.5632
  724MOL0     C97666   9.944   9.284   6.210 -0.5599 -0.1614  0.7347
  724MOL0     C97667  10.072   9.350   6.269  1.3626  0.0343 -0.3760
  724MOL0     C97668  10.190   9.267   6.244  0.4558  0.1953 -0.6193
  724MOL0     C97669  10.297   9.200   6.234  0.4832  0.1360  0.6210
  724MOL0     C97670  10.123   8.906   5.886 -0.8793 -0.0804  0.4017
  724MOL0     C97671  10.201   8.817   5.815 -0.2761  0.2116  0.3304
  724MOL0     C97672  10.244   8.692   5.879 -0.1796  0.7014 -0.4126
  724MOL0     H97673  10.392   8.846   5.272  0.3026 -1.4629 -2.3891
  724MOL0     H97674  10.617   8.786   5.108  0.2328  1.2931 -0.8931
  724MOL0     H97675  10.977   8.738   5.270  0.1112 -2.2525  2.4977
  724MOL0     H97676  10.958   8.570   5.266 -1.9124  1.1354  3.6697
  724MOL0     H97677  11.031   8.747   5.039  1.4890  0.3684  0.6503
  724MOL0     H97678  10.952   8.605   4.995  1.1070  1.1847 -1.4056
  724MOL0     H97679  11.144   8.461   5.128 -1.0748  0.7738  1.9586
  724MOL0     H97680  11.208   8.619   5.148 -1.1580 -0.0262 -0.0209
  724MOL0     H97681  11.138   8.545   4.860  3.3121 -4.3117 -2.1472
  724MOL0     H97682  11.250   8.660   4.923  0.5162  0.4165  0.8036
  724MOL0     H97683  11.417   8.488   4.975 -0.8612  0.8369 -0.3104
  724MOL0     H97684  11.292   8.363   4.972  0.6146 -0.6446  0.7772
  724MOL0     H97685  11.289   8.393   4.723  0.4489 -1.4199  1.6344
  724MOL0     H97686  11.341   8.553   4.725 -1.4526 -0.3338  0.5389
  724MOL0     H97687  11.526   8.378   4.648 -2.0583  2.1692 -1.2031
  724MOL0     H97688  11.530   8.311   4.808  2.0224  0.0657 -0.0871
  724MOL0     H97689  11.577   8.599   4.732 -1.7267 -1.5100 -2.0460
  724MOL0     H97690  11.616   8.541   4.889  0.0453  2.1458 -0.9189
  724MOL0     H97691  11.893   8.531   4.887  2.3194 -0.1660 -0.1577
  724MOL0     H97692  12.152   8.498   4.794  0.3858 -4.0326 -0.8000
  724MOL0     H97693  12.161   8.425   4.638 -1.0754  1.1992 -2.4531
  724MOL0     H97694  12.254   8.614   4.556  0.3132  1.1104 -0.3796
  724MOL0     H97695  12.085   8.670   4.550  0.8047  1.1704 -0.3806
  724MOL0     H97696  12.272   8.725   4.795  0.1171  1.0440  0.2519
  724MOL0     H97697  12.101   8.781   4.772  0.1789  0.0671 -0.6774
  724MOL0     H97698  12.312   8.942   4.729 -0.4189 -0.9432  2.0815
  724MOL0     H97699  12.169   8.955   4.630 -0.2750 -0.0452  2.0847
  724MOL0     H97700  12.250   9.144   4.542 -1.9310 -0.0545 -2.1504
  724MOL0     H97701  12.379   9.312   4.429 -1.9607 -0.1543 -2.6183
  724MOL0     H97702  12.563   9.534   4.115 -0.4932  0.7291  0.5738
  724MOL0     H97703  12.726   9.674   3.992  0.1499  1.8647  0.5421
  724MOL0     H97704  12.933   9.786   3.891  0.4558  1.6279 -1.9061
  724MOL0     H97705  12.838   9.886   4.007 -0.7961 -1.3950  1.8485
  724MOL0     H97706  13.012   9.994   3.860  0.2314  0.1765 -0.0383
  724MOL0     H97707  13.053  10.018   4.031  1.4280 -1.0025  1.5179
  724MOL0     H97708  13.202   9.803   4.004 -1.7494  1.0819  1.7032
  724MOL0     H97709  13.175   9.816   3.839 -0.0849 -1.8890  1.8474
  724MOL0     H97710  13.275  10.044   4.014 -0.3851  0.5598 -0.9652
  724MOL0     H97711  13.237  10.057   3.836  0.8260 -2.6653 -3.3898
  724MOL0     H97712  13.414   9.871   3.794 -1.2375 -2.0849  0.7320
  724MOL0     H97713  13.452   9.880   3.972  0.9015 -2.7517 -1.7307
  724MOL0     H97714  13.538  10.123   3.946  3.4351 -0.7840  1.2273
  724MOL0     H97715  13.627   9.987   3.883  0.4422  0.1553 -3.4804
  724MOL0     H97716  13.476  10.203   3.728  0.1620 -0.2598 -1.7906
  724MOL0     H97717  13.522  10.043   3.658 -1.1227  0.7580 -0.9912
  724MOL0     H97718  13.757  10.117   3.675  3.3980  3.7605 -0.1269
  724MOL0     H97719  13.655  10.251   3.615 -0.1082 -2.0325 -0.6856
  724MOL0     H97720  12.999   9.629   4.321 -0.0907 -1.5950  2.3431
  724MOL0     H97721  12.836   9.491   4.437 -1.4781  1.7157  1.7064
  724MOL0     H97722  12.648   9.040   4.261 -0.8091  3.4687 -1.1414
  724MOL0     H97723  12.500   8.847   4.369  1.0204 -1.0421  1.5019
  724MOL0     H97724  10.782   8.586   5.441  0.3442 -0.8261 -0.8984
  724MOL0     H97725  10.619   8.658   5.586  1.6244  1.9277  0.3716
  724MOL0     H97726  10.216   8.976   5.513  0.7116  0.0057  0.2935
  724MOL0     H97727  10.062   9.143   5.644  0.4286 -0.2755 -1.6698
  724MOL0     H97728  10.079   9.090   6.062  0.0061  0.1573  1.8209
  724MOL0     H97729   9.905   9.046   6.075 -0.9906  0.4924 -2.7042
  724MOL0     H97730   9.856   9.291   6.016 -0.5745 -1.0536  1.4862
  724MOL0     H97731  10.036   9.321   6.020  1.4279 -0.9936  0.9645
  724MOL0     H97732   9.934   9.190   6.265 -0.6387 -0.0123  0.9768
  724MOL0     H97733   9.855   9.345   6.223 -1.0651 -0.1729 -2.1762
  724MOL0     H97734  10.089   9.452   6.234 -0.9525  0.8974  0.7736
  724MOL0     H97735  10.057   9.345   6.377 -0.9928 -1.0428 -0.6701
  724MOL0     H97736  10.385   9.151   6.199  1.9026  4.0700 -2.0265
  724MOL0     H97737  10.092   8.885   5.987 -0.7400  0.8030  0.6309
  724MOL0     H97738  10.353   8.687   5.880 -0.2095 -0.0209  0.1773
  724MOL0     H97739  10.220   8.699   5.986 -1.1168  2.0202 -0.6817
  724MOL0     H97740  10.199   8.606   5.830  1.6163  0.3769 -1.5557
  725MOL0     O97741   3.902   2.255   9.097 -0.3546 -0.1193 -0.5391
  725MOL0     C97742   3.853   2.201   8.998  0.4059  1.0322  0.1510
  725MOL0     O97743   3.915   2.122   8.914 -0.5001 -1.0751 -0.3480
  725MOL0     C97744   4.051   2.085   8.938 -0.1661 -0.9035  0.8131
  725MOL0     C97745   4.153   2.154   8.865  0.3409 -0.2962  0.3998
  725MOL0     C97746   4.284   2.137   8.912 -0.0123  0.6574  0.6231
  725MOL0     C97747   4.317   2.045   9.008  0.5523 -0.0976 -0.0095
  725MOL0     O97748   4.445   2.019   9.052 -0.0037  0.4362  0.3802
  725MOL0     C97749   4.551   2.076   8.977 -0.0162  0.3718  0.8528
  725MOL0     C97750   4.677   2.046   9.055 -0.3943  0.8223 -0.2898
  725MOL0     C97751   4.727   1.907   9.009  0.1203  0.2881 -0.1278
  725MOL0     C97752   4.825   1.850   9.103 -0.0583 -0.0455  0.5461
  725MOL0     C97753   4.965   1.909   9.099 -0.5249 -0.1183  0.3904
  725MOL0     C97754   5.063   1.822   9.178  0.3105  0.8027  0.4802
  725MOL0     C97755   5.217   1.850   9.167  0.4299  0.3537 -0.0203
  725MOL0     C97756   5.287   1.764   9.059 -0.5984  0.5801 -0.6427
  725MOL0     N97757   5.435   1.788   9.065  1.0218  0.2960  0.4306
  725MOL0     C97758   5.524   1.733   9.150  0.8713 -1.0215 -0.4408
  725MOL0     C97759   5.642   1.794   9.139 -0.0990  0.2453  0.5057
  725MOL0     C97760   5.765   1.779   9.215  0.4242  0.4932 -1.1879
  725MOL0     C97761   5.842   1.902   9.241 -0.3654  0.5323  0.8358
  725MOL0     C97762   5.974   1.877   9.325 -0.7014 -0.3052 -0.5916
  725MOL0     C97763   6.043   2.017   9.352  0.2959  0.5431  0.3840
  725MOL0     O97764   6.088   2.063   9.223 -0.2111 -0.5702  0.4945
  725MOL0     C97765   6.219   2.080   9.192 -0.1682 -0.0528 -0.8614
  725MOL0     C97766   6.268   2.170   9.094  0.4029 -0.3851 -0.4557
  725MOL0     C97767   6.406   2.192   9.068  0.1083 -0.3325  0.2088
  725MOL0     C97768   6.501   2.121   9.151  0.2801  0.2958  0.0008
  725MOL0     C97769   6.648   2.143   9.139 -0.6059 -0.2396  0.2216
  725MOL0     O97770   6.730   2.041   9.163 -0.3375  0.5441  0.6347
  725MOL0     C97771   6.869   2.055   9.125 -0.1250 -0.7665  0.0900
  725MOL0     C97772   6.966   1.996   9.206  0.3671  0.6169  0.5678
  725MOL0     C97773   7.100   1.983   9.165 -0.6747 -0.4390 -0.0129
  725MOL0     C97774   7.144   2.033   9.043  0.1430 -0.7928  0.3768
  725MOL0     O97775   7.273   2.028   8.993  0.0456 -0.0099  0.6878
  725MOL0     C97776   7.377   1.989   9.087  0.5392  1.1917 -0.9454
  725MOL0     C97777   7.505   2.039   9.038 -0.5067  0.0729  0.6269
  725MOL0     C97778   7.574   1.935   8.951 -0.9693 -0.1361 -0.0814
  725MOL0     C97779   7.700   1.983   8.891  0.5298 -0.3905  0.1373
  725MOL0     C97780   7.784   1.866   8.840  0.1596  0.0292 -0.5349
  725MOL0     C97781   7.779   1.847   8.691  0.7143  0.0413 -0.2309
  725MOL0     C97782   7.815   1.967   8.604 -0.7146 -0.2723 -0.4172
  725MOL0     C97783   7.951   2.022   8.640 -0.7958 -0.8098 -0.4975
  725MOL0    Cl97784   7.971   2.148   8.519 -0.2009  0.1820 -0.3631
  725MOL0     C97785   7.054   2.098   8.957 -0.1471  0.6874  0.2245
  725MOL0     C97786   6.914   2.104   9.000 -0.3585 -0.6354  0.4315
  725MOL0     O97787   6.692   2.260   9.111  0.5534 -0.7634 -0.5433
  725MOL0     C97788   6.455   2.016   9.229  0.5376  1.2430 -0.4725
  725MOL0     C97789   6.322   2.007   9.257 -0.3813  0.2970  0.4849
  725MOL0     N97790   5.630   1.877   9.026  0.5789  0.3427 -0.6658
  725MOL0     N97791   5.507   1.872   8.986 -0.3763 -0.2457 -1.0488
  725MOL0     C97792   4.214   1.970   9.070  0.1377 -0.1960 -0.1646
  725MOL0     C97793   4.086   1.995   9.031  1.0984 -0.1489 -0.0546
  725MOL0     C97794   3.707   2.229   8.969  0.5932  0.1413  0.3413
  725MOL0     C97795   3.653   2.177   8.846 -0.6641  0.1999  0.2356
  725MOL0     C97796   3.532   2.201   8.794  0.5299 -0.0604 -0.7162
  725MOL0     C97797   3.445   2.284   8.869  0.1605  0.0523 -0.3126
  725MOL0     O97798   3.326   2.332   8.825 -0.5931  0.9810  0.4584
  725MOL0     C97799   3.291   2.298   8.689 -0.5044  0.2893 -0.3381
  725MOL0     C97800   3.156   2.360   8.646 -0.2426  0.7253 -0.0810
  725MOL0     C97801   3.047   2.301   8.720 -0.1795  0.4100 -1.0834
  725MOL0     C97802   2.916   2.358   8.689  0.4455  0.5319 -0.3523
  725MOL0     C97803   2.799   2.300   8.758 -0.1098  0.4048  0.2201
  725MOL0     C97804   2.704   2.257   8.814 -0.3186  0.1575  0.2865
  725MOL0     C97805   3.485   2.330   8.995 -0.0883  0.5057  0.2337
  725MOL0     C97806   3.618   2.312   9.042 -1.2097  0.2493 -0.6704
  725MOL0     C97807   3.650   2.403   9.161  0.8101 -0.0985  0.2257
  725MOL0     H97808   4.123   2.227   8.790  0.0777 -3.7816 -3.2709
  725MOL0     H97809   4.354   2.179   8.841 -3.4678  1.6122 -2.5236
  725MOL0     H97810   4.549   2.043   8.873  1.9411  4.0977 -0.5350
  725MOL0     H97811   4.527   2.181   8.992 -3.0205  0.2242 -2.0173
  725MOL0     H97812   4.666   2.055   9.164  5.3197  2.0344  0.4964
  725MOL0     H97813   4.753   2.121   9.034  1.5586 -0.9642  0.0090
  725MOL0     H97814   4.764   1.897   8.907  0.4945  0.1804  0.0142
  725MOL0     H97815   4.647   1.833   9.018  0.2950 -0.3579 -3.0601
  725MOL0     H97816   4.787   1.847   9.205  0.2554  1.4771  0.7320
  725MOL0     H97817   4.833   1.745   9.072 -2.6560 -0.1330 -0.0366
  725MOL0     H97818   5.002   1.926   8.998  1.0310  1.6155  1.1884
  725MOL0     H97819   4.975   2.002   9.157  2.2353 -0.1367  0.0788
  725MOL0     H97820   5.034   1.829   9.283 -0.8151 -2.0383  0.4519
  725MOL0     H97821   5.055   1.718   9.145  3.1487  0.2034  1.3647
  725MOL0     H97822   5.276   1.835   9.258  0.3977  3.2732  0.5816
  725MOL0     H97823   5.229   1.953   9.132 -1.6677  0.2481 -1.2304
  725MOL0     H97824   5.263   1.657   9.066  0.6197  0.3245 -0.1167
  725MOL0     H97825   5.250   1.796   8.961 -0.2914 -0.1099 -0.9949
  725MOL0     H97826   5.500   1.653   9.219 -2.7027  0.4303  0.2453
  725MOL0     H97827   5.748   1.729   9.311 -0.7540  1.2070 -1.0111
  725MOL0     H97828   5.835   1.721   9.155 -1.9666 -2.3018 -1.5233
  725MOL0     H97829   5.859   1.946   9.142  2.5808 -1.0443  0.5226
  725MOL0     H97830   5.789   1.975   9.303 -2.0645  1.3376 -1.4048
  725MOL0     H97831   6.044   1.805   9.282  0.5942  0.7983 -0.4003
  725MOL0     H97832   5.950   1.835   9.423 -1.6898  0.6647 -0.3945
  725MOL0     H97833   6.127   2.013   9.422  1.4351  2.0466 -0.8150
  725MOL0     H97834   5.981   2.094   9.399  2.2770  3.0926 -0.8812
  725MOL0     H97835   6.190   2.226   9.044  0.4022  0.0012 -0.0274
  725MOL0     H97836   6.442   2.271   9.004 -1.8994  1.6252  1.3501
  725MOL0     H97837   6.929   1.962   9.301 -2.0557  0.6869 -0.2796
  725MOL0     H97838   7.163   1.925   9.231  0.6506  1.1294  0.1716
  725MOL0     H97839   7.366   2.032   9.187 -0.7853  0.7644 -0.8933
  725MOL0     H97840   7.378   1.880   9.091  1.2390  1.2318  0.8725
  725MOL0     H97841   7.481   2.130   8.982 -0.1259  0.7780  1.5834
  725MOL0     H97842   7.566   2.066   9.124 -0.3573  0.0359  0.5342
  725MOL0     H97843   7.597   1.850   9.016 -0.9593  1.3037  1.8873
  725MOL0     H97844   7.499   1.900   8.878 -2.3765  0.8207  0.8522
  725MOL0     H97845   7.759   2.039   8.964 -2.5024  0.1269  2.4045
  725MOL0     H97846   7.678   2.063   8.819  1.2000  1.0921  1.5277
  725MOL0     H97847   7.752   1.778   8.898 -1.3498  0.2313 -1.0160
  725MOL0     H97848   7.887   1.885   8.871  0.3240 -0.3159 -0.8694
  725MOL0     H97849   7.839   1.761   8.664 -0.1975  0.1301 -2.8487
  725MOL0     H97850   7.679   1.817   8.658  0.2454 -1.3242  2.2078
  725MOL0     H97851   7.746   2.051   8.597  0.2259  0.6218  0.5769
  725MOL0     H97852   7.829   1.921   8.506  0.5698 -1.1142  0.1263
  725MOL0     H97853   7.962   2.069   8.738  1.5014 -2.5864  0.1840
  725MOL0     H97854   8.027   1.944   8.633  1.3139  1.2398 -2.0293
  725MOL0     H97855   7.083   2.141   8.862 -1.3140 -1.8502 -1.4001
  725MOL0     H97856   6.844   2.142   8.927 -1.0278 -2.6633 -0.0318
  725MOL0     H97857   6.519   1.943   9.277 -1.5351  2.0271  4.0578
  725MOL0     H97858   6.296   1.939   9.338 -1.4113  0.5997  0.4241
  725MOL0     H97859   4.209   1.884   9.137 -2.6648  1.1313  1.5073
  725MOL0     H97860   4.003   1.942   9.077  1.1108  0.4286  0.6534
  725MOL0     H97861   3.724   2.120   8.787  2.3578  1.3191  2.5211
  725MOL0     H97862   3.503   2.177   8.692 -0.2040 -0.8670 -0.3283
  725MOL0     H97863   3.278   2.190   8.678 -1.0600  0.2565  0.5370
  725MOL0     H97864   3.370   2.338   8.625 -0.2030  3.6164  1.8324
  725MOL0     H97865   3.139   2.343   8.539 -2.7254  1.5355  0.1288
  725MOL0     H97866   3.160   2.466   8.671  0.8961  0.2493  1.9388
  725MOL0     H97867   3.055   2.306   8.829 -1.6675 -0.6475 -0.8835
  725MOL0     H97868   3.036   2.197   8.688 -2.7797 -0.2528  1.4888
  725MOL0     H97869   2.915   2.467   8.696  2.5497  0.4942  1.9877
  725MOL0     H97870   2.906   2.341   8.581 -0.4492 -1.4185 -0.0203
  725MOL0     H97871   2.622   2.219   8.871 -0.7626  0.4932 -0.1238
  725MOL0     H97872   3.402   2.383   9.042 -0.1352  1.8993 -1.3494
  725MOL0     H97873   3.725   2.474   9.125 -1.8539  2.8846  0.1632
  725MOL0     H97874   3.558   2.454   9.187 -0.6716 -1.7700 -1.3861
  725MOL0     H97875   3.691   2.350   9.248 -1.0940  0.2453  1.3722
  726MOL0     O97876   2.360   4.138   3.287 -0.0863  0.4911  0.7213
  726MOL0     C97877   2.380   4.027   3.231  0.1033  0.1872 -0.5304
  726MOL0     O97878   2.285   3.952   3.148  0.5611 -0.3079 -0.1746
  726MOL0     C97879   2.162   4.000   3.127 -0.2390 -0.5025 -0.3225
  726MOL0     C97880   2.068   3.909   3.096 -1.2204  0.1851  1.0863
  726MOL0     C97881   1.935   3.947   3.054 -0.1332 -0.0711 -0.2702
  726MOL0     C97882   1.910   4.090   3.031  0.7906 -0.1795 -0.1130
  726MOL0     O97883   1.792   4.145   2.983  0.0492 -0.5584 -0.0658
  726MOL0     C97884   1.727   4.063   2.880  0.1289  0.1459  0.4300
  726MOL0     C97885   1.702   4.135   2.743  0.7948 -0.6621 -0.4568
  726MOL0     C97886   1.832   4.197   2.689  0.2208  0.6580 -0.7093
  726MOL0     C97887   1.854   4.350   2.712 -0.4742  0.6197  0.2867
  726MOL0     C97888   1.991   4.390   2.645 -0.4121 -0.0447  1.0803
  726MOL0     C97889   2.111   4.314   2.691 -0.3063  1.3527  0.4529
  726MOL0     C97890   2.240   4.391   2.674 -0.1890 -0.3486 -0.4157
  726MOL0     C97891   2.283   4.402   2.527  0.0534 -0.3213 -0.3417
  726MOL0     N97892   2.394   4.494   2.537  0.2465  0.6408 -0.1429
  726MOL0     C97893   2.526   4.445   2.550  0.2813  0.3157  0.3435
  726MOL0     C97894   2.600   4.554   2.573  0.3299  0.0426  0.4828
  726MOL0     C97895   2.752   4.543   2.584  0.3268  0.2491  0.1592
  726MOL0     C97896   2.826   4.680   2.589 -0.3995 -0.3841 -0.1953
  726MOL0     C97897   2.836   4.747   2.447 -0.2008  0.0906 -0.8367
  726MOL0     C97898   2.778   4.894   2.448 -0.0794  0.8864  1.0488
  726MOL0     O97899   2.841   4.985   2.538 -0.1622  0.8219  0.4713
  726MOL0     C97900   2.976   4.989   2.542  0.9089  0.8996  0.7550
  726MOL0     C97901   3.047   4.931   2.646  0.9519 -0.4139 -0.3707
  726MOL0     C97902   3.188   4.926   2.635  1.2800 -0.3058 -0.8230
  726MOL0     C97903   3.263   4.988   2.533 -0.0899 -0.5312 -0.2029
  726MOL0     C97904   3.402   4.989   2.534 -0.7599 -0.6705  0.1694
  726MOL0     O97905   3.466   5.076   2.449 -0.5320  0.1000 -0.1515
  726MOL0     C97906   3.603   5.079   2.440 -0.5715 -0.2788 -0.3070
  726MOL0     C97907   3.692   4.974   2.453 -0.2011  0.5298  0.2572
  726MOL0     C97908   3.828   4.984   2.410 -0.1974  0.4710 -0.1446
  726MOL0     C97909   3.883   5.110   2.378  0.5726  0.3798  0.5088
  726MOL0     O97910   4.021   5.115   2.343 -0.3398  0.2196 -0.0415
  726MOL0     C97911   4.080   5.214   2.258 -0.2134 -0.0734  0.4703
  726MOL0     C97912   4.221   5.177   2.195  0.4265 -0.4658  0.5718
  726MOL0     C97913   4.338   5.159   2.291 -0.1894 -0.4262  0.0627
  726MOL0     C97914   4.448   5.079   2.233 -0.1834  0.2165  0.5924
  726MOL0     C97915   4.580   5.095   2.315  1.3920  0.9648  0.2144
  726MOL0     C97916   4.689   5.017   2.245 -0.4522 -0.1959  0.3994
  726MOL0     C97917   4.818   5.019   2.326  0.3130  0.3703 -0.8421
  726MOL0     C97918   4.921   4.973   2.224  0.4788 -0.5306 -0.6008
  726MOL0    Cl97919   5.074   4.969   2.309  0.3535 -0.3021 -0.3764
  726MOL0     C97920   3.795   5.219   2.375  0.2807 -0.2843 -0.6386
  726MOL0     C97921   3.660   5.201   2.399 -0.0891 -0.0193 -0.5174
  726MOL0     O97922   3.466   4.919   2.618 -0.3527  0.5415  0.2212
  726MOL0     C97923   3.189   5.046   2.435  0.2109  0.1135  0.5893
  726MOL0     C97924   3.051   5.051   2.445 -0.2164 -0.0989  0.5668
  726MOL0     N97925   2.511   4.663   2.587 -0.8166  0.8712  0.3086
  726MOL0     N97926   2.392   4.624   2.563  0.1376 -0.1980 -0.5985
  726MOL0     C97927   2.007   4.191   3.054 -1.1497  0.0635  0.1784
  726MOL0     C97928   2.132   4.142   3.104  0.1270  0.3807 -0.3121
  726MOL0     C97929   2.520   3.984   3.226 -0.1525  0.4770  0.1217
  726MOL0     C97930   2.557   3.934   3.098  0.8504 -0.3187 -0.9070
  726MOL0     C97931   2.691   3.892   3.083  1.2823  0.2456 -0.2983
  726MOL0     C97932   2.787   3.903   3.180 -0.0450 -0.2991 -0.4733
  726MOL0     O97933   2.913   3.843   3.156 -0.8575  0.5557 -0.1614
  726MOL0     C97934   3.013   3.835   3.253 -0.4098 -0.1270  0.3856
  726MOL0     C97935   3.144   3.805   3.195 -0.9250  1.0060  0.3440
  726MOL0     C97936   3.196   3.908   3.097  0.1530 -0.0641 -0.4370
  726MOL0     C97937   3.327   3.876   3.028  0.0489  1.2137  0.0608
  726MOL0     C97938   3.437   3.872   3.131  0.0858  0.4835 -0.2229
  726MOL0     C97939   3.536   3.864   3.214  0.3464 -1.0308  0.2091
  726MOL0     C97940   2.752   3.957   3.294  0.9134  0.0521  1.2584
  726MOL0     C97941   2.622   3.994   3.327 -0.0392 -0.0667  0.7098
  726MOL0     C97942   2.591   4.038   3.464 -0.3069 -0.3280  0.7145
  726MOL0     H97943   2.099   3.805   3.103  2.3562  1.0406  0.1358
  726MOL0     H97944   1.849   3.883   3.032  0.1979 -1.4988  2.1716
  726MOL0     H97945   1.787   3.974   2.857 -0.3394  0.4693 -2.3773
  726MOL0     H97946   1.625   4.031   2.901 -0.2906 -1.2357 -2.9681
  726MOL0     H97947   1.622   4.209   2.747 -0.3259 -1.8869  0.4853
  726MOL0     H97948   1.684   4.057   2.669 -1.3136 -1.6178  0.9633
  726MOL0     H97949   1.828   4.181   2.581  1.1226 -2.2698 -0.4217
  726MOL0     H97950   1.912   4.134   2.729  0.1086  0.5773 -0.6093
  726MOL0     H97951   1.770   4.394   2.658 -0.1415 -1.3519 -2.0130
  726MOL0     H97952   1.864   4.371   2.819 -0.2756 -1.9050  0.8355
  726MOL0     H97953   1.973   4.371   2.539 -2.5530 -0.0533  1.4064
  726MOL0     H97954   1.998   4.494   2.678 -0.8827 -0.3189  2.0760
  726MOL0     H97955   2.102   4.289   2.797 -0.0286  3.3428  0.9785
  726MOL0     H97956   2.109   4.213   2.649  1.2767  1.6648 -0.4383
  726MOL0     H97957   2.316   4.328   2.722  0.0381 -0.6627 -1.1640
  726MOL0     H97958   2.233   4.491   2.717 -1.4422 -0.7384  0.3253
  726MOL0     H97959   2.312   4.303   2.490 -1.1518 -1.3228  1.2372
  726MOL0     H97960   2.201   4.444   2.467 -0.2735 -0.7571 -0.2089
  726MOL0     H97961   2.558   4.341   2.556  0.3050  0.3430  0.7404
  726MOL0     H97962   2.762   4.495   2.681 -2.2906 -0.0976  0.3113
  726MOL0     H97963   2.785   4.474   2.506  2.9221 -0.6370  1.9103
  726MOL0     H97964   2.774   4.749   2.656 -1.9969 -1.0346 -0.7184
  726MOL0     H97965   2.930   4.675   2.622  0.4121  2.8804 -1.8185
  726MOL0     H97966   2.786   4.681   2.376  1.0567  1.8029 -3.4532
  726MOL0     H97967   2.941   4.746   2.416  0.1115 -0.6379  0.1531
  726MOL0     H97968   2.674   4.884   2.477 -0.1651  1.3835  0.9310
  726MOL0     H97969   2.777   4.932   2.345  2.4381 -1.4397  0.0296
  726MOL0     H97970   2.991   4.881   2.724 -1.8004  0.6977 -1.5070
  726MOL0     H97971   3.239   4.855   2.699  0.4853 -0.4564 -0.3390
  726MOL0     H97972   3.648   4.884   2.496 -0.5894  1.8002  2.7102
  726MOL0     H97973   3.889   4.894   2.401 -0.8218 -0.3821  3.0056
  726MOL0     H97974   4.014   5.224   2.172  1.7659 -0.5137 -1.1811
  726MOL0     H97975   4.082   5.309   2.311 -0.2203  0.2253 -0.0609
  726MOL0     H97976   4.225   5.082   2.141 -2.3944 -0.2763 -0.1586
  726MOL0     H97977   4.237   5.256   2.120 -0.4945 -2.2079 -1.5481
  726MOL0     H97978   4.377   5.258   2.318  2.0897 -0.9218 -1.2106
  726MOL0     H97979   4.308   5.112   2.385  0.7798 -0.2985  0.4468
  726MOL0     H97980   4.467   5.111   2.130  3.0730 -1.7716  0.4255
  726MOL0     H97981   4.437   4.970   2.228  1.9623  0.0150 -3.0020
  726MOL0     H97982   4.574   5.056   2.417  0.9797  1.6760  0.4692
  726MOL0     H97983   4.606   5.201   2.311 -0.7724  1.6285  1.7867
  726MOL0     H97984   4.656   4.914   2.229 -3.1257  0.6427 -0.0642
  726MOL0     H97985   4.694   5.048   2.141  0.2765 -2.7395 -0.3872
  726MOL0     H97986   4.815   4.950   2.410 -0.0230  0.9740 -0.3546
  726MOL0     H97987   4.837   5.123   2.353  1.3621  0.9774 -3.6078
  726MOL0     H97988   4.906   4.870   2.189  0.4601 -1.1912  1.2626
  726MOL0     H97989   4.913   5.038   2.136  0.5142 -1.9472 -1.7025
  726MOL0     H97990   3.827   5.318   2.342  2.8362  0.0669  2.4390
  726MOL0     H97991   3.586   5.278   2.380  0.0065  0.0072 -0.7793
  726MOL0     H97992   3.247   5.076   2.347  0.7196 -0.0639  0.8581
  726MOL0     H97993   3.003   5.104   2.362 -0.3801 -1.3193 -0.1429
  726MOL0     H97994   1.993   4.294   3.025 -2.7223 -0.3275 -0.6161
  726MOL0     H97995   2.222   4.203   3.108  2.3214 -2.7062  1.3509
  726MOL0     H97996   2.493   3.925   3.011  2.4211  1.3792 -2.3314
  726MOL0     H97997   2.721   3.849   2.988  1.5156 -1.0707  0.3447
  726MOL0     H97998   2.980   3.748   3.311 -1.1935 -2.0812 -2.7317
  726MOL0     H97999   3.025   3.921   3.318  0.0151 -0.2187  0.4342
  726MOL0     H98000   3.137   3.707   3.145 -1.1562  0.7450  0.8791
  726MOL0     H98001   3.221   3.805   3.273 -0.9482  1.9068  0.3747
  726MOL0     H98002   3.217   3.995   3.159  3.1019 -2.0054  1.5471
  726MOL0     H98003   3.129   3.939   3.016  1.9273 -0.9005 -2.3222
  726MOL0     H98004   3.320   3.781   2.973  0.7064  1.7496 -0.9793
  726MOL0     H98005   3.351   3.959   2.961 -2.7831  3.0770  1.1993
  726MOL0     H98006   3.620   3.859   3.279 -0.9598  0.2848  2.1306
  726MOL0     H98007   2.836   3.956   3.362  1.7976 -3.8603  0.3391
  726MOL0     H98008   2.642   4.128   3.499 -1.8034  0.0778  1.9511
  726MOL0     H98009   2.484   4.056   3.473  0.0139  2.6026 -0.3158
  726MOL0     H98010   2.621   3.960   3.535 -0.1895 -1.3866 -0.4701
  727MOL0     O98011   5.663   5.133   5.672  0.4647 -0.3327  0.8071
  727MOL0     C98012   5.582   5.060   5.617  0.3091 -0.5679  1.1874
  727MOL0     O98013   5.598   4.941   5.568 -0.0796 -0.2725 -0.4244
  727MOL0     C98014   5.732   4.901   5.561 -0.0054 -0.1743 -1.0962
  727MOL0     C98015   5.805   4.932   5.448  0.5751 -0.0766  0.6600
  727MOL0     C98016   5.936   4.890   5.433 -0.1782 -0.0689  0.5754
  727MOL0     C98017   5.999   4.817   5.536  0.9683 -0.2507 -0.0404
  727MOL0     O98018   6.131   4.799   5.535 -0.2492 -0.1648 -0.3448
  727MOL0     C98019   6.181   4.669   5.542 -0.5522  0.8868  1.2229
  727MOL0     C98020   6.328   4.666   5.585  0.2441 -0.4528 -0.4441
  727MOL0     C98021   6.446   4.703   5.491  0.4417  0.0489  0.0920
  727MOL0     C98022   6.582   4.689   5.574  0.2450  0.0044  0.0285
  727MOL0     C98023   6.703   4.695   5.489  0.1771  0.6157 -0.1182
  727MOL0     C98024   6.828   4.650   5.572 -0.2115  0.4339  0.4486
  727MOL0     C98025   6.950   4.632   5.482  0.6354 -0.4774 -0.3407
  727MOL0     C98026   7.067   4.557   5.544 -0.4907  0.1863 -0.4512
  727MOL0     N98027   7.178   4.536   5.461 -0.3074  0.3559  0.5559
  727MOL0     C98028   7.284   4.627   5.433  0.6652  0.6185 -0.2652
  727MOL0     C98029   7.364   4.551   5.358  0.4174 -0.0906  0.7845
  727MOL0     C98030   7.486   4.601   5.288 -0.1647  0.5687 -0.3852
  727MOL0     C98031   7.613   4.562   5.366 -0.4248  0.1677  0.3682
  727MOL0     C98032   7.741   4.592   5.296 -0.0254 -0.0101 -0.1734
  727MOL0     C98033   7.851   4.505   5.347  0.1805 -0.2092 -0.4838
  727MOL0     O98034   7.895   4.541   5.482 -0.1003  0.3672  0.7190
  727MOL0     C98035   8.016   4.487   5.528  0.0177 -0.1442 -0.6717
  727MOL0     C98036   8.092   4.562   5.617 -1.0095  0.0754 -0.4219
  727MOL0     C98037   8.215   4.516   5.668 -0.6724  0.1720  0.9421
  727MOL0     C98038   8.255   4.386   5.631 -0.5455 -0.8053 -0.2738
  727MOL0     C98039   8.379   4.319   5.678 -0.8168  0.5228  0.5818
  727MOL0     O98040   8.462   4.389   5.768  0.3512  0.0287  0.1889
  727MOL0     C98041   8.549   4.311   5.839 -0.1405  0.5084 -0.0939
  727MOL0     C98042   8.659   4.257   5.767  0.0727 -0.3133 -0.8780
  727MOL0     C98043   8.750   4.174   5.836  0.2896  0.2914 -1.2091
  727MOL0     C98044   8.724   4.134   5.964 -0.8316 -1.1146 -0.9148
  727MOL0     O98045   8.820   4.053   6.031  0.4579 -0.8941 -0.3886
  727MOL0     C98046   8.964   4.079   5.999 -0.4729  0.1943 -0.3115
  727MOL0     C98047   9.044   4.001   6.100 -0.0794  0.3711 -0.1626
  727MOL0     C98048   9.025   4.058   6.239  0.0525 -1.4948  0.7705
  727MOL0     C98049   9.096   3.980   6.356 -0.3673  0.9151 -0.3143
  727MOL0     C98050   9.243   4.003   6.341 -0.0611 -0.0200 -0.3796
  727MOL0     C98051   9.320   3.964   6.474 -0.2108 -0.1092  0.0555
  727MOL0     C98052   9.471   4.018   6.454 -0.4772  0.7277  0.1299
  727MOL0     C98053   9.566   3.928   6.539 -0.4115  0.8270  0.0063
  727MOL0    Cl98054   9.723   4.007   6.568 -0.5371 -0.4997 -0.0828
  727MOL0     C98055   8.602   4.162   6.029 -0.0982 -0.1160  0.2531
  727MOL0     C98056   8.517   4.250   5.965 -0.3034 -0.2859  0.2407
  727MOL0     O98057   8.408   4.214   5.618 -0.3426  0.7231 -0.0373
  727MOL0     C98058   8.177   4.311   5.547 -0.0922  0.0058  0.6299
  727MOL0     C98059   8.064   4.364   5.491 -0.4926 -0.2043 -0.1573
  727MOL0     N98060   7.313   4.422   5.332 -0.2252 -0.9774 -0.1745
  727MOL0     N98061   7.211   4.414   5.405  0.5513  0.5048 -0.0527
  727MOL0     C98062   5.914   4.778   5.641 -0.1194  0.4304  0.0616
  727MOL0     C98063   5.777   4.813   5.661 -0.8411 -0.9204 -0.0162
  727MOL0     C98064   5.444   5.124   5.614 -0.1176  0.6504  0.0552
  727MOL0     C98065   5.419   5.220   5.713  0.3608 -0.7399  0.5516
  727MOL0     C98066   5.292   5.284   5.720 -0.1924  0.5066  0.2157
  727MOL0     C98067   5.194   5.261   5.623 -0.7133 -0.4631 -0.0652
  727MOL0     O98068   5.072   5.322   5.641  0.3126 -0.6487 -0.8002
  727MOL0     C98069   4.962   5.292   5.560  0.7071  0.2982  0.1281
  727MOL0     C98070   4.837   5.360   5.626 -0.6695 -0.5085 -0.3714
  727MOL0     C98071   4.839   5.514   5.596 -0.5442  0.2099  0.4758
  727MOL0     C98072   4.762   5.581   5.710 -0.0950 -0.1265  0.5732
  727MOL0     C98073   4.712   5.716   5.674 -0.3681 -0.3668  0.4884
  727MOL0     C98074   4.675   5.826   5.640 -0.3770  0.6189  0.2891
  727MOL0     C98075   5.221   5.163   5.532  0.6799  0.7251 -0.7165
  727MOL0     C98076   5.342   5.088   5.524 -0.0907  0.4584 -0.0615
  727MOL0     C98077   5.360   5.004   5.403  0.2392  0.3650  0.5792
  727MOL0     H98078   5.763   4.992   5.368  2.7085  0.5681 -0.0582
  727MOL0     H98079   6.001   4.917   5.350  0.3645 -0.7550  0.7676
  727MOL0     H98080   6.121   4.607   5.609 -2.1207 -1.3139 -1.9954
  727MOL0     H98081   6.165   4.619   5.446 -1.0018  3.6554 -0.2194
  727MOL0     H98082   6.358   4.574   5.634 -0.9294  0.2847  1.8160
  727MOL0     H98083   6.333   4.737   5.668 -1.1030  1.0959 -1.6152
  727MOL0     H98084   6.426   4.807   5.462 -2.1882  0.1291  1.8332
  727MOL0     H98085   6.455   4.637   5.404 -3.2358  1.5740 -1.6515
  727MOL0     H98086   6.594   4.778   5.637 -0.2258  0.8288 -1.0051
  727MOL0     H98087   6.580   4.599   5.636  1.8991 -1.4395 -1.8821
  727MOL0     H98088   6.689   4.631   5.402 -1.8160 -1.3922  1.5619
  727MOL0     H98089   6.724   4.794   5.449  1.0326  0.9539  1.1105
  727MOL0     H98090   6.859   4.720   5.651 -0.5735  1.0660  0.0352
  727MOL0     H98091   6.807   4.555   5.623  2.1732 -0.0323  0.6588
  727MOL0     H98092   6.970   4.731   5.440  2.4995 -0.1288  1.2305
  727MOL0     H98093   6.919   4.582   5.390 -0.7116  1.5233 -1.0496
  727MOL0     H98094   7.101   4.608   5.635  1.1090  3.0823 -2.5145
  727MOL0     H98095   7.017   4.464   5.572 -1.2378  1.0352  1.1678
  727MOL0     H98096   7.289   4.733   5.458 -0.2417  0.6381 -0.1393
  727MOL0     H98097   7.483   4.550   5.191 -0.5142 -1.1005  0.4650
  727MOL0     H98098   7.478   4.710   5.275  1.6282  0.7146 -0.4914
  727MOL0     H98099   7.619   4.602   5.468  1.6208  2.6180 -0.6031
  727MOL0     H98100   7.608   4.454   5.376 -2.5496  0.1921  0.0910
  727MOL0     H98101   7.767   4.697   5.305 -0.4538 -0.0407  1.9227
  727MOL0     H98102   7.727   4.581   5.188 -1.9465  0.5083 -0.0164
  727MOL0     H98103   7.932   4.503   5.274  1.7142 -2.7466  1.1442
  727MOL0     H98104   7.812   4.403   5.356 -1.7387  0.6981  3.6426
  727MOL0     H98105   8.052   4.651   5.665  0.6785 -0.2749  1.7678
  727MOL0     H98106   8.276   4.572   5.737  1.4603 -0.8420 -0.0121
  727MOL0     H98107   8.672   4.285   5.663  1.2999  0.9522 -0.4189
  727MOL0     H98108   8.840   4.153   5.779  0.1911 -1.6886 -0.6782
  727MOL0     H98109   8.991   4.032   5.903  1.4328 -0.3705  0.4483
  727MOL0     H98110   8.992   4.185   5.997  0.5896 -0.0222  1.1136
  727MOL0     H98111   9.003   3.901   6.111  1.0311 -0.3496 -2.1606
  727MOL0     H98112   9.148   3.990   6.069  1.0559 -0.0843  3.3260
  727MOL0     H98113   9.060   4.161   6.227 -4.7633  0.4592  1.0696
  727MOL0     H98114   8.919   4.057   6.267 -0.6462 -1.6004 -1.6575
  727MOL0     H98115   9.077   3.872   6.351 -1.4047  0.9004  2.4235
  727MOL0     H98116   9.056   4.032   6.443 -2.2386 -1.3378  0.2756
  727MOL0     H98117   9.256   4.111   6.330  0.3038  0.2437  2.0786
  727MOL0     H98118   9.285   3.971   6.245 -1.7840 -0.7719 -0.9107
  727MOL0     H98119   9.277   3.998   6.569 -2.2385 -0.3887 -0.7017
  727MOL0     H98120   9.319   3.855   6.489  1.8897 -0.4330 -1.7374
  727MOL0     H98121   9.476   4.122   6.486 -3.8285  0.6440  1.2865
  727MOL0     H98122   9.501   4.011   6.349 -1.3264 -1.6286 -0.0285
  727MOL0     H98123   9.522   3.909   6.637 -1.0259  0.1636 -0.3888
  727MOL0     H98124   9.586   3.830   6.495 -0.8977  0.7273  0.0069
  727MOL0     H98125   8.569   4.117   6.123 -2.4270  0.6140 -0.1600
  727MOL0     H98126   8.416   4.261   6.004 -0.9979 -1.3318 -1.1865
  727MOL0     H98127   8.209   4.216   5.507  4.3992  1.7051 -0.3763
  727MOL0     H98128   8.004   4.305   5.422 -1.0445 -1.0329  0.9870
  727MOL0     H98129   5.960   4.711   5.713  0.7599  1.5343  0.5623
  727MOL0     H98130   5.721   4.788   5.750 -1.3689  1.0667  0.2530
  727MOL0     H98131   5.493   5.238   5.789  1.3624 -2.6183  0.1048
  727MOL0     H98132   5.274   5.358   5.797 -0.8383  0.0729  0.4759
  727MOL0     H98133   4.938   5.185   5.548 -0.6492  0.5009  0.8812
  727MOL0     H98134   4.973   5.324   5.456 -2.6530  3.1777  0.4722
  727MOL0     H98135   4.844   5.343   5.734  3.7706  1.8950 -0.0324
  727MOL0     H98136   4.752   5.301   5.592 -0.0138 -1.5295 -0.3056
  727MOL0     H98137   4.793   5.560   5.508  0.4054  1.7734  0.7540
  727MOL0     H98138   4.938   5.559   5.608  0.2212 -1.8586  2.5880
  727MOL0     H98139   4.674   5.518   5.724  0.7056 -1.2389  0.7250
  727MOL0     H98140   4.825   5.583   5.800 -2.5610 -0.6716  2.4146
  727MOL0     H98141   4.643   5.924   5.611 -1.0568  0.3546  0.1330
  727MOL0     H98142   5.152   5.123   5.458 -0.3835  2.1630 -0.5352
  727MOL0     H98143   5.436   5.052   5.342  0.4656 -1.4784 -0.6672
  727MOL0     H98144   5.388   4.902   5.432  4.3901  1.1164 -0.1951
  727MOL0     H98145   5.272   4.992   5.340  0.9357  2.3274 -0.8752
  728MOL0     O98146  10.649   6.192   6.566 -0.4555  0.1973  0.0277
  728MOL0     C98147  10.651   6.080   6.612  1.2491  0.0115 -0.4200
  728MOL0     O98148  10.754   6.001   6.633 -0.3668 -0.0180  0.4421
  728MOL0     C98149  10.880   6.033   6.597  0.7356  0.1470  0.1539
  728MOL0     C98150  10.950   5.951   6.504  0.0675  0.1536 -0.1220
  728MOL0     C98151  11.084   5.993   6.469  0.0283  0.2658 -0.6076
  728MOL0     C98152  11.153   6.097   6.539 -0.5624 -0.6574  0.5228
  728MOL0     O98153  11.287   6.120   6.523 -0.1330  0.3966 -0.2406
  728MOL0     C98154  11.367   6.062   6.624 -0.0443  0.5409  0.1185
  728MOL0     C98155  11.486   6.161   6.648  0.0416  0.6528 -0.0231
  728MOL0     C98156  11.585   6.167   6.520  0.8584  0.4853  0.2850
  728MOL0     C98157  11.712   6.241   6.558  0.2920  0.3282 -0.3454
  728MOL0     C98158  11.808   6.245   6.446 -0.2835 -0.1730  0.3531
  728MOL0     C98159  11.914   6.362   6.465 -0.6631  0.2712  0.1319
  728MOL0     C98160  11.990   6.362   6.609  1.0357 -0.1031 -0.5758
  728MOL0     C98161  12.097   6.461   6.598 -0.8706 -0.3228 -0.1859
  728MOL0     N98162  12.203   6.450   6.491 -0.5735 -0.8386 -0.3757
  728MOL0     C98163  12.321   6.373   6.484  0.0954 -0.4630  0.0790
  728MOL0     C98164  12.380   6.420   6.376  0.5155 -0.5314  0.8061
  728MOL0     C98165  12.503   6.364   6.314 -0.9587  0.1277 -0.2307
  728MOL0     C98166  12.624   6.458   6.338  0.0294  0.3404  0.2098
  728MOL0     C98167  12.654   6.476   6.495  0.5891  0.3930 -1.0395
  728MOL0     C98168  12.800   6.525   6.511  0.0198 -0.0226 -0.2649
  728MOL0     O98169  12.823   6.658   6.452  0.4266 -0.1194  0.7304
  728MOL0     C98170  12.955   6.686   6.453 -0.4073 -0.2500  0.0907
  728MOL0     C98171  13.031   6.661   6.335  0.5020 -0.8326 -0.0121
  728MOL0     C98172  13.167   6.698   6.331 -1.1661  0.5241 -0.3013
  728MOL0     C98173  13.229   6.758   6.443  1.2398 -0.1845  0.8658
  728MOL0     C98174  13.372   6.806   6.455 -0.3319 -0.5745 -0.6618
  728MOL0     O98175  13.406   6.869   6.570  0.5120  0.4518 -0.1311
  728MOL0     C98176  13.533   6.863   6.614 -0.3235  0.1687  0.1782
  728MOL0     C98177  13.590   6.981   6.666  0.5463 -0.3105  0.1644
  728MOL0     C98178  13.722   6.979   6.709  0.1753 -0.8530  0.1249
  728MOL0     C98179  13.795   6.859   6.718  0.5392  0.2839  0.8988
  728MOL0     O98180  13.920   6.854   6.768  0.0952 -0.4300  0.8759
  728MOL0     C98181  13.965   6.965   6.847  1.0942  0.6092  0.1439
  728MOL0     C98182  14.104   6.934   6.895 -0.7383  0.7613  0.5314
  728MOL0     C98183  14.146   7.029   7.006 -0.1459 -0.3672  0.0537
  728MOL0     C98184  14.248   6.960   7.092  0.1275  0.6366 -0.7427
  728MOL0     C98185  14.383   6.959   7.015 -0.4430  0.4339  0.2381
  728MOL0     C98186  14.489   6.876   7.086 -0.4755  0.3428 -0.4062
  728MOL0     C98187  14.535   6.944   7.215 -1.2254 -0.3847 -0.2519
  728MOL0     C98188  14.685   6.924   7.232 -0.4590  0.3744 -0.4516
  728MOL0    Cl98189  14.748   6.749   7.221  0.1252 -0.1722 -0.2341
  728MOL0     C98190  13.744   6.739   6.667 -0.0712 -0.5569 -1.2538
  728MOL0     C98191  13.618   6.745   6.606 -0.1748 -0.3096 -0.2641
  728MOL0     O98192  13.449   6.775   6.363 -0.8771  0.1750  0.0254
  728MOL0     C98193  13.147   6.783   6.552  0.1622 -0.2650  0.3169
  728MOL0     C98194  13.019   6.743   6.557  0.4147  0.2630 -1.5233
  728MOL0     N98195  12.301   6.526   6.320 -0.1470 -0.2430  0.2063
  728MOL0     N98196  12.202   6.550   6.399  0.4199 -0.2502  1.0381
  728MOL0     C98197  11.075   6.170   6.631 -0.3207  0.6917 -0.2865
  728MOL0     C98198  10.941   6.143   6.656  0.6762  0.0120 -0.8980
  728MOL0     C98199  10.506   6.015   6.631 -0.3628 -0.7665  0.3856
  728MOL0     C98200  10.414   6.046   6.530 -0.0868 -0.5337 -0.2341
  728MOL0     C98201  10.288   5.982   6.540 -0.4416  0.1496  0.2079
  728MOL0     C98202  10.261   5.877   6.633 -0.0023  0.2661 -0.5151
  728MOL0     O98203  10.128   5.840   6.630  0.5848  0.1024 -0.0568
  728MOL0     C98204  10.084   5.741   6.723 -0.5104 -0.4472 -0.5047
  728MOL0     C98205   9.943   5.686   6.695 -0.2386 -1.2527  0.4290
  728MOL0     C98206   9.852   5.809   6.711 -0.1237 -0.8616 -0.3392
  728MOL0     C98207   9.703   5.764   6.722 -0.2141 -0.1555  1.0423
  728MOL0     C98208   9.641   5.746   6.593  1.2712 -0.1501  0.0934
  728MOL0     C98209   9.577   5.742   6.487  0.4501  0.5639  0.3155
  728MOL0     C98210  10.362   5.842   6.726  0.6248  0.5046 -0.7416
  728MOL0     C98211  10.481   5.904   6.721  0.4143 -0.1492  0.1656
  728MOL0     C98212  10.590   5.859   6.822 -0.3371  0.0098  0.1755
  728MOL0     H98213  10.903   5.862   6.463  0.7027  0.6088 -1.9278
  728MOL0     H98214  11.143   5.931   6.402  0.0404 -1.9780  1.3390
  728MOL0     H98215  11.314   6.040   6.717  1.4595 -1.7454  0.5304
  728MOL0     H98216  11.402   5.964   6.590 -0.5261  0.1377  0.7645
  728MOL0     H98217  11.543   6.137   6.738 -0.0601 -0.4488 -0.2473
  728MOL0     H98218  11.453   6.262   6.673  0.1837  0.5472  0.6127
  728MOL0     H98219  11.543   6.225   6.437  1.8145  2.0086  0.8133
  728MOL0     H98220  11.599   6.065   6.483 -1.6410 -0.2795  1.2790
  728MOL0     H98221  11.684   6.342   6.588  3.6144  1.1283  0.4709
  728MOL0     H98222  11.761   6.197   6.645  0.3009  1.6363  0.3460
  728MOL0     H98223  11.863   6.151   6.440  0.7464  0.3801  0.7500
  728MOL0     H98224  11.751   6.253   6.353  0.6134  1.1180 -0.1148
  728MOL0     H98225  11.994   6.350   6.391 -0.5487  0.1062  0.2826
  728MOL0     H98226  11.865   6.458   6.442 -1.8766 -0.8766 -2.5402
  728MOL0     H98227  12.035   6.268   6.643  0.0182  0.2025  1.8043
  728MOL0     H98228  11.927   6.394   6.692  0.8763 -1.7765 -0.0278
  728MOL0     H98229  12.042   6.555   6.586  0.1988  0.0797 -2.5619
  728MOL0     H98230  12.150   6.478   6.692 -0.7184 -0.0754 -0.3144
  728MOL0     H98231  12.359   6.290   6.543  2.2687  0.2214 -0.2610
  728MOL0     H98232  12.530   6.275   6.371  1.6880  0.3957 -0.9407
  728MOL0     H98233  12.487   6.332   6.211  2.3144 -2.3701 -0.1437
  728MOL0     H98234  12.715   6.412   6.298 -0.4188 -0.5594  0.1875
  728MOL0     H98235  12.604   6.548   6.279 -2.4450 -0.4035 -0.1739
  728MOL0     H98236  12.634   6.387   6.556  0.1245  0.5690 -0.9323
  728MOL0     H98237  12.586   6.553   6.531  1.0655  0.8184 -1.0321
  728MOL0     H98238  12.869   6.453   6.467 -1.7982 -0.4405 -2.5798
  728MOL0     H98239  12.815   6.522   6.620  2.0362 -2.5982 -0.5193
  728MOL0     H98240  12.984   6.634   6.241  0.8996  3.4457 -1.6755
  728MOL0     H98241  13.219   6.672   6.240  1.0627  0.2668  0.9620
  728MOL0     H98242  13.530   7.070   6.685 -2.3628 -0.7561 -5.0437
  728MOL0     H98243  13.751   7.075   6.751 -1.5833 -0.1237 -0.2245
  728MOL0     H98244  13.968   7.055   6.785  0.6966 -0.2942 -1.2259
  728MOL0     H98245  13.901   6.989   6.933  1.3807  3.5911 -0.3577
  728MOL0     H98246  14.111   6.831   6.930  2.4620  0.8073  0.3201
  728MOL0     H98247  14.171   6.946   6.809  0.0960 -0.2512  1.0324
  728MOL0     H98248  14.187   7.123   6.969 -1.8703  0.5639  0.4040
  728MOL0     H98249  14.060   7.051   7.070  0.5292 -0.6574  1.0775
  728MOL0     H98250  14.202   6.862   7.109  2.0760 -0.2858 -0.5043
  728MOL0     H98251  14.269   7.013   7.186  0.0091 -0.8702  0.1628
  728MOL0     H98252  14.427   7.058   6.998  1.1432 -0.3884 -0.6595
  728MOL0     H98253  14.373   6.911   6.917  1.0591 -2.4562  1.3726
  728MOL0     H98254  14.457   6.772   7.099 -1.4027  0.6023 -0.5167
  728MOL0     H98255  14.575   6.880   7.019  0.3226 -2.0811  0.3601
  728MOL0     H98256  14.488   6.895   7.301  1.0913 -1.2696  0.5808
  728MOL0     H98257  14.515   7.051   7.227  1.4475  0.2810 -1.0704
  728MOL0     H98258  14.741   6.975   7.154  0.6626 -0.4765 -0.2239
  728MOL0     H98259  14.716   6.966   7.329  1.9478 -2.7999  0.3160
  728MOL0     H98260  13.814   6.656   6.665  1.2517  0.4378  0.6221
  728MOL0     H98261  13.578   6.655   6.559  1.2573 -1.0457 -0.1346
  728MOL0     H98262  13.180   6.841   6.638 -1.7241 -0.8494  1.5089
  728MOL0     H98263  12.964   6.760   6.649  1.0758 -0.1629 -1.0363
  728MOL0     H98264  11.122   6.256   6.679 -1.2151  2.6364 -2.6943
  728MOL0     H98265  10.887   6.208   6.724 -0.8507 -1.8793 -0.2031
  728MOL0     H98266  10.442   6.122   6.457  1.9615  0.4015  1.4411
  728MOL0     H98267  10.218   6.014   6.464  1.7122  3.9076 -0.4515
  728MOL0     H98268  10.091   5.783   6.824 -0.2025  1.5490 -1.3059
  728MOL0     H98269  10.147   5.651   6.731 -1.2078 -0.8233  1.1387
  728MOL0     H98270   9.924   5.615   6.776  0.5523  0.3901  2.1198
  728MOL0     H98271   9.926   5.649   6.593 -1.1758  0.0639  0.0768
  728MOL0     H98272   9.869   5.884   6.634  3.1536 -2.1529 -1.0549
  728MOL0     H98273   9.874   5.846   6.812  1.0996 -0.1117 -0.8605
  728MOL0     H98274   9.702   5.671   6.780  2.7319 -0.8069  0.2362
  728MOL0     H98275   9.653   5.851   6.765 -1.8128 -0.4277 -0.1523
  728MOL0     H98276   9.527   5.731   6.393  1.5639 -0.5933 -0.1774
  728MOL0     H98277  10.330   5.777   6.806 -2.3660  0.8517 -1.5481
  728MOL0     H98278  10.677   5.823   6.766 -1.2698 -1.1508 -0.5892
  728MOL0     H98279  10.614   5.939   6.892 -1.5680  3.1635 -2.7439
  728MOL0     H98280  10.553   5.769   6.872  0.6662 -0.3686  0.2568
  729MOL0     O98281   1.093   9.795   5.722  0.2349 -0.1744 -0.4763
  729MOL0     C98282   1.061   9.719   5.627 -0.0895  0.5176  0.6987
  729MOL0     O98283   1.150   9.639   5.556  0.0289  0.1658  0.2869
  729MOL0     C98284   1.286   9.654   5.577 -0.8714 -0.4141  0.2983
  729MOL0     C98285   1.361   9.711   5.473 -0.3737  0.7023  0.1891
  729MOL0     C98286   1.500   9.737   5.488  0.1640  0.6964  0.6749
  729MOL0     C98287   1.565   9.716   5.608 -0.2536 -0.1178  0.5917
  729MOL0     O98288   1.702   9.753   5.620 -0.6267 -0.1995  0.2366
  729MOL0     C98289   1.784   9.655   5.688  0.1886 -0.0888 -0.3194
  729MOL0     C98290   1.926   9.673   5.647 -0.1025  0.4238  0.3153
  729MOL0     C98291   2.028   9.583   5.711 -0.2877  0.7315 -0.3059
  729MOL0     C98292   2.160   9.590   5.651  0.0423 -0.3855 -0.0175
  729MOL0     C98293   2.186   9.526   5.512  0.0896  0.0187  0.7149
  729MOL0     C98294   2.339   9.533   5.488 -0.7082  1.0085  0.7024
  729MOL0     C98295   2.373   9.441   5.363  0.2582 -0.4787 -0.2856
  729MOL0     C98296   2.525   9.449   5.335 -0.7549  0.6496  0.2501
  729MOL0     N98297   2.562   9.400   5.203  0.1952 -0.0973 -0.2208
  729MOL0     C98298   2.557   9.267   5.166  0.2437  0.3782 -1.0479
  729MOL0     C98299   2.625   9.271   5.045 -0.1024 -0.0364  0.1562
  729MOL0     C98300   2.664   9.163   4.954  0.2793 -0.0455  0.5317
  729MOL0     C98301   2.798   9.100   5.008  0.2366  0.4533 -0.3541
  729MOL0     C98302   2.905   9.089   4.906 -0.9926  1.3059  0.2379
  729MOL0     C98303   3.030   9.006   4.955 -0.1631 -0.1329 -0.1708
  729MOL0     O98304   3.120   9.018   4.841 -0.5074 -0.9550  0.0021
  729MOL0     C98305   3.248   8.976   4.852 -0.1913 -0.3904 -0.0235
  729MOL0     C98306   3.307   8.899   4.958 -0.2327 -0.7351  0.3674
  729MOL0     C98307   3.443   8.867   4.958 -0.0141 -0.7113 -0.6530
  729MOL0     C98308   3.531   8.908   4.855 -0.5955 -0.4575 -0.6512
  729MOL0     C98309   3.675   8.872   4.848 -0.1531 -0.9829  0.1559
  729MOL0     O98310   3.761   8.941   4.762  0.2191 -0.8474  0.1545
  729MOL0     C98311   3.895   8.912   4.776  0.5578 -0.0182  0.3652
  729MOL0     C98312   3.966   8.967   4.896  0.3070  0.1251 -0.0065
  729MOL0     C98313   4.099   8.949   4.916  0.5424 -0.5986  0.1606
  729MOL0     C98314   4.176   8.880   4.825  0.1056 -0.0804 -1.1924
  729MOL0     O98315   4.312   8.866   4.837 -0.7689  0.0639  0.0776
  729MOL0     C98316   4.366   8.737   4.816 -0.2499  1.0278 -1.2286
  729MOL0     C98317   4.528   8.754   4.825  0.2186 -0.9299  0.3171
  729MOL0     C98318   4.618   8.622   4.818  0.0904 -0.0266  0.3564
  729MOL0     C98319   4.765   8.661   4.813 -1.2966  0.8825 -0.1553
  729MOL0     C98320   4.871   8.553   4.782 -0.0956 -0.8843 -0.5040
  729MOL0     C98321   4.898   8.455   4.904  0.5457 -0.4161 -0.4741
  729MOL0     C98322   4.955   8.523   5.024  1.2421 -0.3353  0.3263
  729MOL0     C98323   5.078   8.614   5.013 -0.0868  0.5009  0.6410
  729MOL0    Cl98324   5.216   8.532   4.926  0.0662 -0.0318  0.2247
  729MOL0     C98325   4.113   8.839   4.702  0.7825  0.3323  0.2064
  729MOL0     C98326   3.973   8.855   4.679 -0.1532  0.2272 -0.0969
  729MOL0     O98327   3.717   8.792   4.934  0.3192  0.2611 -0.1436
  729MOL0     C98328   3.469   8.976   4.744  0.0453  0.4189  0.5155
  729MOL0     C98329   3.334   9.015   4.751  0.0096 -0.2803  0.4474
  729MOL0     N98330   2.668   9.401   5.019  0.8957  0.6977 -0.5341
  729MOL0     N98331   2.628   9.479   5.109 -0.1508  0.6261 -0.1495
  729MOL0     C98332   1.490   9.655   5.712 -0.5135 -0.2618  0.6209
  729MOL0     C98333   1.348   9.632   5.702 -0.0484  0.8036  0.2953
  729MOL0     C98334   0.917   9.705   5.589 -0.2120  0.1287  0.0798
  729MOL0     C98335   0.877   9.589   5.518  0.1301  0.3045  0.4392
  729MOL0     C98336   0.753   9.561   5.481  0.8455  0.0472 -0.5449
  729MOL0     C98337   0.645   9.634   5.520 -0.1845 -0.1695  0.3847
  729MOL0     O98338   0.515   9.609   5.483  0.7560  0.2362 -0.1939
  729MOL0     C98339   0.411   9.684   5.562 -0.4776  0.4149  0.1623
  729MOL0     C98340   0.284   9.597   5.564 -0.1158  0.0487  0.6462
  729MOL0     C98341   0.182   9.646   5.653 -0.1480 -0.0928 -0.0244
  729MOL0     C98342   0.046   9.577   5.634  0.5652 -0.8423 -0.0540
  729MOL0     C98343  -0.031   9.630   5.519  0.7112  0.1398  0.9442
  729MOL0     C98344  -0.100   9.680   5.424  0.0391  0.8545 -1.0517
  729MOL0     C98345   0.684   9.764   5.564 -0.2199  0.4578  0.3363
  729MOL0     C98346   0.812   9.799   5.605  0.0550 -0.0060  0.4891
  729MOL0     C98347   0.839   9.939   5.653  0.5656 -0.0978 -0.8638
  729MOL0     H98348   1.316   9.747   5.381  0.6004  0.8711 -0.2349
  729MOL0     H98349   1.568   9.799   5.429  1.1263  0.8894  1.9264
  729MOL0     H98350   1.771   9.664   5.796  1.1620 -0.3461 -0.1629
  729MOL0     H98351   1.752   9.555   5.656  1.0641 -0.2410 -0.7619
  729MOL0     H98352   1.964   9.770   5.682  0.6397  0.2966 -0.1161
  729MOL0     H98353   1.930   9.670   5.538  0.7508  1.6215  0.2862
  729MOL0     H98354   1.990   9.481   5.701 -0.2961  0.6121  0.8434
  729MOL0     H98355   2.037   9.603   5.818  0.5510 -2.7722  0.3845
  729MOL0     H98356   2.188   9.695   5.652  2.2898 -0.9305  0.2866
  729MOL0     H98357   2.228   9.542   5.722  1.1815 -1.6330 -1.8593
  729MOL0     H98358   2.150   9.423   5.507 -1.9436  0.5767  2.3944
  729MOL0     H98359   2.143   9.582   5.428 -0.3719  0.5434  1.2934
  729MOL0     H98360   2.376   9.634   5.466  0.2472  0.2681 -1.4195
  729MOL0     H98361   2.392   9.497   5.576  1.3087  0.9052 -0.4848
  729MOL0     H98362   2.336   9.479   5.267 -1.6379  2.6638  1.5020
  729MOL0     H98363   2.339   9.339   5.385 -2.6747  0.6093  0.6637
  729MOL0     H98364   2.556   9.554   5.348 -1.0641  0.9032 -0.9432
  729MOL0     H98365   2.578   9.392   5.412  1.9400  2.8722  0.2249
  729MOL0     H98366   2.515   9.175   5.207  0.8973  0.5371  0.0082
  729MOL0     H98367   2.581   9.092   4.944  0.8865 -1.2072  2.9066
  729MOL0     H98368   2.678   9.217   4.860 -2.6498  1.4647  0.8516
  729MOL0     H98369   2.829   9.165   5.090 -0.4233  0.5046 -0.1435
  729MOL0     H98370   2.774   9.001   5.047  2.4576 -1.0943 -2.5705
  729MOL0     H98371   2.938   9.184   4.863  0.8820 -0.6207 -3.0645
  729MOL0     H98372   2.876   9.035   4.815 -1.2102  1.8077  0.0030
  729MOL0     H98373   3.017   8.899   4.976 -0.2163 -0.4715 -1.8006
  729MOL0     H98374   3.068   9.061   5.041  1.4787 -0.2620 -0.7792
  729MOL0     H98375   3.253   8.862   5.044 -1.4186  0.1299  0.0277
  729MOL0     H98376   3.475   8.794   5.032 -3.0269 -1.1184  0.3982
  729MOL0     H98377   3.908   9.016   4.974 -1.4502 -1.6135 -0.1430
  729MOL0     H98378   4.143   8.984   5.010 -0.9274  0.9456  0.3173
  729MOL0     H98379   4.330   8.667   4.891  0.9608  3.0463  1.4242
  729MOL0     H98380   4.349   8.705   4.713  2.9844 -2.2638 -0.9549
  729MOL0     H98381   4.561   8.830   4.753 -1.1007 -0.2724  0.3738
  729MOL0     H98382   4.553   8.805   4.919  2.7581 -0.0129 -0.7357
  729MOL0     H98383   4.600   8.573   4.913 -4.1599  2.1014  0.8782
  729MOL0     H98384   4.582   8.563   4.734 -4.3751 -1.7581  3.1707
  729MOL0     H98385   4.794   8.717   4.903 -2.5388 -0.0957  0.8912
  729MOL0     H98386   4.776   8.726   4.725  1.1881  0.3642 -0.3094
  729MOL0     H98387   4.969   8.600   4.773 -0.0585 -1.2541 -2.2282
  729MOL0     H98388   4.849   8.502   4.688  0.1949  1.1129 -1.7148
  729MOL0     H98389   4.809   8.399   4.932 -0.1779  1.5137  1.4059
  729MOL0     H98390   4.974   8.386   4.868  2.2665  0.2135  1.7377
  729MOL0     H98391   4.981   8.442   5.092  0.1600  1.6490  3.3606
  729MOL0     H98392   4.876   8.579   5.076  0.7687  0.0411 -0.7821
  729MOL0     H98393   5.063   8.702   4.949  1.6213  0.6972  0.4433
  729MOL0     H98394   5.109   8.662   5.106 -2.1399  0.9219  1.1385
  729MOL0     H98395   4.162   8.792   4.618 -0.0090  2.6474 -1.6483
  729MOL0     H98396   3.928   8.831   4.583  0.9048 -0.2211 -0.4964
  729MOL0     H98397   3.529   8.984   4.654  2.1425 -1.2203  1.6467
  729MOL0     H98398   3.284   9.070   4.671  0.2774 -0.7457 -0.0461
  729MOL0     H98399   1.544   9.625   5.801  1.7580  0.4196 -0.4609
  729MOL0     H98400   1.304   9.591   5.792 -1.2407  0.2987 -0.4948
  729MOL0     H98401   0.948   9.509   5.498  1.7713  1.7840  0.0261
  729MOL0     H98402   0.731   9.470   5.425  0.8513  1.6824 -3.3518
  729MOL0     H98403   0.389   9.784   5.524 -3.8108 -1.0400 -2.2161
  729MOL0     H98404   0.453   9.694   5.662  2.3336 -0.6928 -0.8063
  729MOL0     H98405   0.310   9.496   5.598 -0.8546 -0.4908 -0.2909
  729MOL0     H98406   0.250   9.591   5.460  1.5255 -1.1409  0.1318
  729MOL0     H98407   0.174   9.755   5.639  1.0987  0.4328  2.6987
  729MOL0     H98408   0.213   9.631   5.756  0.6577 -1.2912 -0.4252
  729MOL0     H98409   0.065   9.471   5.617  1.4630 -0.4459 -1.6538
  729MOL0     H98410  -0.005   9.595   5.729  1.4706 -0.8261  0.4469
  729MOL0     H98411  -0.166   9.725   5.353  0.2847  0.1013 -1.7718
  729MOL0     H98412   0.613   9.847   5.566 -1.8578 -0.9053  1.6266
  729MOL0     H98413   0.755  10.007   5.641  0.8822  0.2850 -0.9472
  729MOL0     H98414   0.872   9.939   5.757 -1.0425  0.6448 -0.3229
  729MOL0     H98415   0.919   9.986   5.594  0.1210  1.1572 -0.5132
  730MOL0     O98416   7.174   5.896  10.913 -0.1441 -0.6519  1.0682
  730MOL0     C98417   7.152   6.018  10.919 -0.2509  0.3390 -0.3474
  730MOL0     O98418   7.235   6.114  10.973  0.1694  0.1416 -0.4224
  730MOL0     C98419   7.364   6.081  11.010 -0.4040 -0.6141  0.7490
  730MOL0     C98420   7.385   6.017  11.131 -0.2967  0.4651 -0.2435
  730MOL0     C98421   7.520   5.968  11.164  0.2629  0.0423  0.3385
  730MOL0     C98422   7.630   5.974  11.073  0.9902  0.1787 -0.0221
  730MOL0     O98423   7.755   5.920  11.114  0.5216  0.7570  0.3463
  730MOL0     C98424   7.874   5.939  11.032 -0.2310 -0.0868 -0.3764
  730MOL0     C98425   7.996   5.876  11.101  0.3340  0.6538  0.3203
  730MOL0     C98426   8.121   5.935  11.042  0.2472 -0.2501  0.2862
  730MOL0     C98427   8.242   5.910  11.131  0.6261 -0.6304  1.0188
  730MOL0     C98428   8.357   5.939  11.044 -1.8647  0.0476  0.0723
  730MOL0     C98429   8.483   5.896  11.121  0.4719 -0.0579  0.6733
  730MOL0     C98430   8.603   5.918  11.039 -0.0615  0.4001  0.3935
  730MOL0     C98431   8.722   5.872  11.117  0.2046 -0.2186 -0.4565
  730MOL0     N98432   8.754   5.733  11.113 -0.3964 -0.5153  0.1738
  730MOL0     C98433   8.733   5.654  11.000  0.3073 -0.6609 -0.0990
  730MOL0     C98434   8.770   5.525  11.042  0.6503 -0.1859 -0.0849
  730MOL0     C98435   8.781   5.403  10.948  0.5959 -0.2860 -0.6854
  730MOL0     C98436   8.931   5.373  10.895  0.6316  0.4907 -0.6205
  730MOL0     C98437   9.014   5.308  11.000  0.1856  0.4781  0.3980
  730MOL0     C98438   9.158   5.292  10.956  0.2754  0.0461 -0.1874
  730MOL0     O98439   9.242   5.256  11.068 -0.0242  0.1859  0.7255
  730MOL0     C98440   9.383   5.235  11.046 -0.0622  0.3630  0.2099
  730MOL0     C98441   9.450   5.219  11.160 -0.6102 -0.4776 -0.9317
  730MOL0     C98442   9.580   5.182  11.161 -0.5882 -0.4668  0.5240
  730MOL0     C98443   9.649   5.154  11.039 -0.2033  0.2322 -0.1678
  730MOL0     C98444   9.788   5.106  11.042 -0.7855 -0.3681  0.0629
  730MOL0     O98445   9.861   5.110  10.927 -0.1988 -0.8103  0.3963
  730MOL0     C98446   9.973   5.029  10.922  0.5142  0.1688  0.8511
  730MOL0     C98447   9.955   4.907  10.847 -0.4137 -0.2017 -0.2134
  730MOL0     C98448  10.066   4.827  10.826  0.0989 -0.3134 -0.5431
  730MOL0     C98449  10.194   4.870  10.850 -0.2215 -0.1563  0.2284
  730MOL0     O98450  10.297   4.787  10.836  0.1959  0.8683  0.0619
  730MOL0     C98451  10.433   4.819  10.862  0.0573 -0.7077 -0.7219
  730MOL0     C98452  10.508   4.692  10.854 -0.8200  0.1857  0.1278
  730MOL0     C98453  10.640   4.727  10.787 -0.0372  0.0790  0.3515
  730MOL0     C98454  10.724   4.603  10.778  0.4004 -0.3851  0.3481
  730MOL0     C98455  10.860   4.637  10.718 -0.2099 -0.3407  0.2188
  730MOL0     C98456  10.947   4.706  10.831 -0.0737  0.6338  0.3921
  730MOL0     C98457  11.089   4.664  10.811 -0.4791  0.3196  0.3134
  730MOL0     C98458  11.127   4.653  10.660 -0.6403 -0.3233  0.2749
  730MOL0    Cl98459  11.306   4.620  10.649 -0.4137 -0.1977  0.1148
  730MOL0     C98460  10.220   4.994  10.904 -0.9281  0.3555 -0.3207
  730MOL0     C98461  10.107   5.072  10.947 -0.2858  0.6606 -0.3418
  730MOL0     O98462   9.829   5.054  11.141  0.5824 -0.2433 -0.0109
  730MOL0     C98463   9.579   5.165  10.917 -0.5548 -0.6993 -0.2027
  730MOL0     C98464   9.451   5.219  10.924  0.9461  0.5850  1.1567
  730MOL0     N98465   8.786   5.521  11.175 -0.9938 -0.6781 -0.6028
  730MOL0     N98466   8.773   5.646  11.217  0.0296  0.1722  0.0098
  730MOL0     C98467   7.609   6.052  10.954 -0.2013  0.6008 -0.4362
  730MOL0     C98468   7.478   6.107  10.927 -0.4105 -0.2954  0.4579
  730MOL0     C98469   7.022   6.068  10.872 -0.7234 -0.2117 -0.0687
  730MOL0     C98470   6.968   6.178  10.938 -0.5194 -0.1274  0.6933
  730MOL0     C98471   6.854   6.242  10.899 -0.4519  0.1654 -0.0969
  730MOL0     C98472   6.778   6.184  10.799  0.3430  0.4800  0.1280
  730MOL0     O98473   6.662   6.213  10.745  0.2337 -0.1885  0.2553
  730MOL0     C98474   6.590   6.324  10.797 -0.3384  0.0625  0.7740
  730MOL0     C98475   6.504   6.403  10.696 -0.6716  0.3720  0.3495
  730MOL0     C98476   6.401   6.321  10.617  0.1275  0.5886  0.5166
  730MOL0     C98477   6.332   6.386  10.496 -0.1841  1.3253  0.6096
  730MOL0     C98478   6.236   6.297  10.423 -0.1223 -0.2217 -0.4697
  730MOL0     C98479   6.174   6.223  10.351 -0.7012 -0.4420  0.6902
  730MOL0     C98480   6.826   6.069  10.732 -0.2368  0.0796  1.6402
  730MOL0     C98481   6.949   6.016  10.766 -0.3151  0.3400 -0.8187
  730MOL0     C98482   6.996   5.886  10.699 -0.3982  0.2830 -0.0847
  730MOL0     H98483   7.296   6.003  11.191  0.1175  0.9780  0.5104
  730MOL0     H98484   7.536   5.932  11.265 -1.1178  1.4310  1.0831
  730MOL0     H98485   7.861   5.898  10.931  3.1243  0.3087 -1.1155
  730MOL0     H98486   7.890   6.045  11.012  3.0644 -0.5126 -0.6164
  730MOL0     H98487   8.001   5.768  11.084  0.5080  0.5235  1.1591
  730MOL0     H98488   7.982   5.894  11.208 -0.6658 -2.7895  0.8918
  730MOL0     H98489   8.098   6.042  11.042 -0.1438 -0.3277  0.5215
  730MOL0     H98490   8.130   5.906  10.937  0.3221  2.3450 -0.5039
  730MOL0     H98491   8.237   5.964  11.226 -2.4969  1.5520 -0.2133
  730MOL0     H98492   8.230   5.803  11.148  2.2178 -1.4371 -2.1800
  730MOL0     H98493   8.341   5.890  10.947 -1.7173  1.9346 -0.9604
  730MOL0     H98494   8.378   6.043  11.018 -0.4555  0.8348  3.7632
  730MOL0     H98495   8.496   5.945  11.218  2.0604  2.0996 -0.5290
  730MOL0     H98496   8.476   5.789  11.139 -1.1863 -0.5306 -2.1298
  730MOL0     H98497   8.608   6.025  11.018 -4.0150  0.3045 -1.9563
  730MOL0     H98498   8.604   5.869  10.942  1.6252  1.8322 -0.3589
  730MOL0     H98499   8.806   5.935  11.087  1.3253 -0.8192  1.2624
  730MOL0     H98500   8.734   5.906  11.220 -0.6192  0.6972 -0.6524
  730MOL0     H98501   8.703   5.688  10.901 -0.2250  0.0160  0.2881
  730MOL0     H98502   8.746   5.309  10.991 -0.1455  0.0306 -0.5824
  730MOL0     H98503   8.715   5.414  10.862 -1.4634  0.1405  0.8750
  730MOL0     H98504   8.914   5.310  10.808 -2.1691  0.4946 -0.1663
  730MOL0     H98505   8.969   5.472  10.870 -0.9297  1.8861  2.0666
  730MOL0     H98506   8.969   5.219  11.045 -0.1496  0.3995 -0.0947
  730MOL0     H98507   9.011   5.379  11.084 -1.8324  0.3207  0.4983
  730MOL0     H98508   9.190   5.384  10.906  1.6877 -1.6614 -2.6209
  730MOL0     H98509   9.171   5.214  10.881  0.8009  0.9697 -1.0824
  730MOL0     H98510   9.395   5.242  11.251 -0.2989 -1.4260 -0.4935
  730MOL0     H98511   9.631   5.173  11.256 -0.7632 -0.6227  0.6039
  730MOL0     H98512   9.861   4.870  10.808  0.5935 -2.4656 -0.7006
  730MOL0     H98513  10.058   4.724  10.794  2.1220 -1.8148  3.2692
  730MOL0     H98514  10.457   4.897  10.790  0.4355 -0.6794 -0.5643
  730MOL0     H98515  10.436   4.853  10.966  0.4518 -1.9092 -0.3235
  730MOL0     H98516  10.521   4.652  10.955  2.5415 -0.8806 -0.5995
  730MOL0     H98517  10.457   4.614  10.796  0.1624  0.4252 -1.1107
  730MOL0     H98518  10.630   4.759  10.682 -0.5266 -1.0390  0.0401
  730MOL0     H98519  10.694   4.806  10.840  1.5171 -0.2868 -0.6429
  730MOL0     H98520  10.664   4.532  10.721  0.1989 -2.7932  3.2773
  730MOL0     H98521  10.728   4.568  10.882  0.0075  0.6628  0.7240
  730MOL0     H98522  10.852   4.697  10.627 -0.2702 -1.2724 -0.4027
  730MOL0     H98523  10.903   4.545  10.677 -0.2951 -0.6127  0.7296
  730MOL0     H98524  10.939   4.815  10.832 -0.1702  0.6375 -0.5100
  730MOL0     H98525  10.912   4.676  10.930 -0.3364 -0.6047 -0.0690
  730MOL0     H98526  11.109   4.566  10.854 -0.2045 -2.0573 -4.6123
  730MOL0     H98527  11.159   4.734  10.858 -0.0296 -0.3063  0.5952
  730MOL0     H98528  11.081   4.581  10.592 -0.3133  1.1128 -1.5424
  730MOL0     H98529  11.104   4.746  10.606  0.8300 -1.2819 -2.1774
  730MOL0     H98530  10.318   5.033  10.930 -0.0068 -1.0718 -1.5190
  730MOL0     H98531  10.111   5.173  10.986  0.2805 -0.0353  1.5558
  730MOL0     H98532   9.641   5.140  10.832 -0.0162 -1.8879  0.5159
  730MOL0     H98533   9.404   5.252  10.832  2.9404  2.2388  0.6536
  730MOL0     H98534   7.686   6.055  10.877 -1.7252 -3.2746 -2.3934
  730MOL0     H98535   7.455   6.157  10.833  0.5687 -0.6707 -0.0058
  730MOL0     H98536   7.015   6.214  11.029 -2.0041 -1.9445  2.2882
  730MOL0     H98537   6.828   6.335  10.949  1.4494 -0.3323  1.9780
  730MOL0     H98538   6.667   6.393  10.833  2.0374 -0.6587 -2.5087
  730MOL0     H98539   6.515   6.279  10.864 -2.4413 -3.4110 -3.4080
  730MOL0     H98540   6.579   6.450  10.632 -1.1249 -0.7160 -1.0383
  730MOL0     H98541   6.454   6.483  10.752 -1.0077  0.9721 -0.7730
  730MOL0     H98542   6.319   6.290  10.683 -1.7651  0.1406 -1.8798
  730MOL0     H98543   6.448   6.232  10.574 -3.1373 -1.7640  1.3968
  730MOL0     H98544   6.284   6.476  10.535  1.6618  1.7477  1.9885
  730MOL0     H98545   6.403   6.403  10.414  2.3758  0.0910  2.4655
  730MOL0     H98546   6.129   6.163  10.275  0.3486 -1.3601  0.7758
  730MOL0     H98547   6.769   6.023  10.652 -1.7165  1.7614  1.6602
  730MOL0     H98548   6.974   5.795  10.756 -2.9117 -0.5678 -2.2468
  730MOL0     H98549   6.952   5.879  10.599  1.9312 -0.7341 -1.1251
  730MOL0     H98550   7.099   5.896  10.664 -0.2875  1.4056  0.5044
  731MOL0     O98551   7.208   0.095   5.628  1.0418 -0.4972 -0.6949
  731MOL0     C98552   7.321   0.048   5.622 -0.7191  0.4736 -0.7031
  731MOL0     O98553   7.356  -0.077   5.578  0.4017  0.4987  0.2543
  731MOL0     C98554   7.249  -0.160   5.532  0.0528 -0.0635 -0.3944
  731MOL0     C98555   7.192  -0.153   5.405  1.4066  0.6814 -0.1310
  731MOL0     C98556   7.093  -0.240   5.363  0.1100 -0.4269 -0.1019
  731MOL0     C98557   7.040  -0.339   5.444  0.4598  0.2471 -0.6437
  731MOL0     O98558   6.941  -0.407   5.390 -0.0906 -0.5128 -0.5794
  731MOL0     C98559   6.855  -0.493   5.467 -0.2712 -0.5781  1.6300
  731MOL0     C98560   6.749  -0.550   5.366 -0.4896  0.7429 -0.0438
  731MOL0     C98561   6.811  -0.639   5.269  0.7397  0.5225 -0.0839
  731MOL0     C98562   6.722  -0.653   5.155 -1.0240  0.2179  0.4066
  731MOL0     C98563   6.784  -0.729   5.040  0.0864 -0.0576  0.8254
  731MOL0     C98564   6.807  -0.877   5.068 -0.4520 -0.4217 -0.2802
  731MOL0     C98565   6.680  -0.956   5.059 -0.4858  0.6058  0.8795
  731MOL0     C98566   6.713  -1.108   5.061  0.6218 -0.0957  0.4939
  731MOL0     N98567   6.596  -1.196   5.035  0.1032  0.5910 -0.1489
  731MOL0     C98568   6.462  -1.175   5.065 -0.3409 -0.1661 -0.3118
  731MOL0     C98569   6.395  -1.267   5.005  0.4901  0.1127  0.3581
  731MOL0     C98570   6.245  -1.283   5.010 -0.0780 -0.7610  0.9187
  731MOL0     C98571   6.177  -1.335   4.877  0.1645 -0.0934  0.2704
  731MOL0     C98572   6.113  -1.471   4.903 -0.0032  0.0728 -0.3203
  731MOL0     C98573   5.985  -1.455   4.994  0.6070  0.2513 -1.2847
  731MOL0     O98574   5.878  -1.413   4.913  0.1434  0.2864 -0.4477
  731MOL0     C98575   5.755  -1.389   4.970  0.5862  0.0486  0.2101
  731MOL0     C98576   5.738  -1.273   5.047  0.7356 -0.6967  0.3935
  731MOL0     C98577   5.607  -1.256   5.098 -0.6278 -0.0066 -1.1103
  731MOL0     C98578   5.494  -1.349   5.083 -0.3723 -0.3407  0.0368
  731MOL0     C98579   5.359  -1.303   5.117  0.5397  0.0269 -0.0004
  731MOL0     O98580   5.352  -1.180   5.179 -0.2868 -0.2519  0.9960
  731MOL0     C98581   5.226  -1.133   5.206 -0.1318  0.1321 -0.0943
  731MOL0     C98582   5.188  -1.150   5.336  0.3691  0.6352 -0.2635
  731MOL0     C98583   5.053  -1.119   5.377  0.7268  0.6594  1.0410
  731MOL0     C98584   4.966  -1.049   5.290 -0.0290 -0.1956 -0.8568
  731MOL0     O98585   4.831  -1.026   5.302 -0.1892  0.5023  0.7713
  731MOL0     C98586   4.776  -1.035   5.431 -0.0125 -0.1910 -0.9519
  731MOL0     C98587   4.646  -0.947   5.454  0.0823 -0.6248 -0.3540
  731MOL0     C98588   4.526  -0.979   5.360 -0.2047  0.3304  0.6881
  731MOL0     C98589   4.534  -0.898   5.232  0.1791 -0.0513  0.3489
  731MOL0     C98590   4.435  -0.914   5.113 -0.5146 -0.7184  0.5227
  731MOL0     C98591   4.429  -1.063   5.065 -0.1272  0.4167 -1.3029
  731MOL0     C98592   4.566  -1.130   5.019  0.2008 -0.2139  0.4473
  731MOL0     C98593   4.536  -1.237   4.913 -0.4965 -0.1756 -0.3302
  731MOL0    Cl98594   4.396  -1.333   4.975 -0.0348  0.0852  0.2568
  731MOL0     C98595   5.016  -1.013   5.171 -0.2160 -0.6036  0.2304
  731MOL0     C98596   5.144  -1.052   5.123  0.3742  0.1112  0.0732
  731MOL0     O98597   5.267  -1.361   5.074  0.1301  0.5326  0.1489
  731MOL0     C98598   5.527  -1.467   5.012 -0.9816  0.2532 -0.9334
  731MOL0     C98599   5.655  -1.486   4.967  1.3077 -0.2778 -0.3687
  731MOL0     N98600   6.486  -1.359   4.947  0.3350 -0.4557  0.8568
  731MOL0     N98601   6.605  -1.319   4.978 -0.5331  0.2796 -0.6577
  731MOL0     C98602   7.099  -0.358   5.568 -0.2399  0.0433  0.1539
  731MOL0     C98603   7.197  -0.268   5.612  0.2623  0.0747  0.3511
  731MOL0     C98604   7.450   0.123   5.664  0.1700 -0.2550 -0.0045
  731MOL0     C98605   7.554   0.047   5.713  0.5484 -0.2306 -0.3628
  731MOL0     C98606   7.671   0.111   5.753  0.0937 -0.4941 -0.5310
  731MOL0     C98607   7.694   0.243   5.719  0.0411 -0.0914 -0.5455
  731MOL0     O98608   7.807   0.311   5.752 -0.1034  0.0964  0.1081
  731MOL0     C98609   7.915   0.263   5.833 -0.0227 -0.1263  0.7055
  731MOL0     C98610   8.024   0.368   5.819 -0.3922 -0.2869  0.4311
  731MOL0     C98611   8.019   0.465   5.935  0.4974  0.3881 -0.1257
  731MOL0     C98612   7.888   0.554   5.923  0.1697  0.5803  0.1630
  731MOL0     C98613   7.872   0.629   6.047 -0.3436  0.0266 -0.2541
  731MOL0     C98614   7.856   0.695   6.146 -0.3787 -0.4364  0.1378
  731MOL0     C98615   7.590   0.320   5.668  0.6615 -0.2744 -0.3481
  731MOL0     C98616   7.460   0.260   5.653 -0.6069 -0.4962  0.2472
  731MOL0     C98617   7.343   0.346   5.600 -0.1159  0.5274  0.3192
  731MOL0     H98618   7.224  -0.077   5.335  0.4674 -1.1134 -2.6633
  731MOL0     H98619   7.048  -0.226   5.265  2.1993 -2.2071 -1.4262
  731MOL0     H98620   6.906  -0.569   5.526  2.4639 -1.6416 -1.7774
  731MOL0     H98621   6.795  -0.433   5.537 -1.3106  1.3235 -0.7341
  731MOL0     H98622   6.699  -0.457   5.336  1.4971  2.9055  2.7824
  731MOL0     H98623   6.684  -0.608   5.432  0.8443  1.1586  1.7122
  731MOL0     H98624   6.825  -0.739   5.309  0.0919  0.3059 -0.3924
  731MOL0     H98625   6.908  -0.601   5.235  1.5616 -0.6166  0.9015
  731MOL0     H98626   6.631  -0.708   5.182  0.1203 -2.2527 -0.4559
  731MOL0     H98627   6.687  -0.559   5.111  1.8397  0.5023 -1.4941
  731MOL0     H98628   6.718  -0.716   4.954 -0.8168  2.6199  1.8141
  731MOL0     H98629   6.878  -0.680   5.016  0.1370  0.8263  2.6259
  731MOL0     H98630   6.878  -0.919   4.996 -0.1771  0.7375 -0.6896
  731MOL0     H98631   6.853  -0.890   5.167 -1.3087 -1.1943  0.0343
  731MOL0     H98632   6.636  -0.932   4.962  0.9398  0.4049  0.1523
  731MOL0     H98633   6.616  -0.931   5.143  0.3092 -0.0442  1.6968
  731MOL0     H98634   6.782  -1.132   4.980 -0.9299 -2.6575 -0.1845
  731MOL0     H98635   6.765  -1.132   5.154  3.9991  2.0307 -0.6149
  731MOL0     H98636   6.424  -1.094   5.127 -1.1548  0.4524 -1.5706
  731MOL0     H98637   6.227  -1.354   5.092  0.7693 -1.1853  0.7451
  731MOL0     H98638   6.205  -1.186   5.040 -3.0740 -2.2706  2.2953
  731MOL0     H98639   6.106  -1.267   4.828 -0.0790 -1.5747 -1.5425
  731MOL0     H98640   6.262  -1.357   4.811 -1.0176 -2.2276 -0.6584
  731MOL0     H98641   6.186  -1.540   4.947 -1.5217 -1.5870 -0.2689
  731MOL0     H98642   6.085  -1.519   4.809 -1.8871 -0.1894  0.3296
  731MOL0     H98643   5.996  -1.378   5.070  1.1990 -3.6706  3.0263
  731MOL0     H98644   5.954  -1.552   5.033 -0.7339  1.5692  1.1689
  731MOL0     H98645   5.810  -1.192   5.048 -0.3093  0.3325 -1.7063
  731MOL0     H98646   5.585  -1.165   5.153  2.0113 -0.5932  1.1183
  731MOL0     H98647   5.253  -1.203   5.405 -0.7971  0.9793  1.1316
  731MOL0     H98648   5.017  -1.148   5.475  0.0973  1.0706  0.9405
  731MOL0     H98649   4.751  -1.140   5.452 -0.5711  0.2415  0.7173
  731MOL0     H98650   4.848  -1.002   5.507  0.1042 -2.0978 -0.1771
  731MOL0     H98651   4.616  -0.963   5.558  2.9647 -0.1002  0.6494
  731MOL0     H98652   4.678  -0.843   5.450  1.6186 -1.0336  0.6336
  731MOL0     H98653   4.547  -1.085   5.345  3.5067  0.5534  3.0185
  731MOL0     H98654   4.433  -0.965   5.415 -0.4781  1.3698 -0.0126
  731MOL0     H98655   4.635  -0.906   5.191 -0.7520 -1.0283 -1.9323
  731MOL0     H98656   4.525  -0.797   5.274 -0.0671 -0.8832  2.3674
  731MOL0     H98657   4.471  -0.854   5.029 -0.7452 -2.1971 -0.6730
  731MOL0     H98658   4.336  -0.881   5.145 -0.9845 -2.5159  1.0333
  731MOL0     H98659   4.384  -1.118   5.147  0.2022  2.9075  0.6541
  731MOL0     H98660   4.366  -1.067   4.975 -0.1311 -0.7199 -1.2588
  731MOL0     H98661   4.630  -1.167   5.100  3.1785 -0.0867 -1.6536
  731MOL0     H98662   4.636  -1.053   4.983  0.9509 -0.7104  0.8163
  731MOL0     H98663   4.510  -1.179   4.823  0.0973 -2.2722 -1.9439
  731MOL0     H98664   4.626  -1.296   4.895 -0.2044 -0.1463  0.9487
  731MOL0     H98665   4.950  -0.973   5.096  1.6691  0.1635 -1.1002
  731MOL0     H98666   5.173  -1.035   5.020 -1.0073 -1.0931 -0.5377
  731MOL0     H98667   5.458  -1.550   5.003 -0.5516 -0.1091 -0.9735
  731MOL0     H98668   5.677  -1.583   4.922 -1.1262 -1.6244  1.1094
  731MOL0     H98669   7.070  -0.442   5.630  0.2120 -0.9372 -0.9180
  731MOL0     H98670   7.232  -0.288   5.712 -0.0674  1.6835  0.8153
  731MOL0     H98671   7.559  -0.062   5.716  2.6077 -0.2119 -1.1169
  731MOL0     H98672   7.754   0.051   5.790  0.9786  1.3388  0.5783
  731MOL0     H98673   7.947   0.165   5.798  0.2275 -0.7735  2.6775
  731MOL0     H98674   7.882   0.243   5.935  2.1889 -0.5575  1.3896
  731MOL0     H98675   8.017   0.416   5.721  0.8813 -1.8683 -0.4847
  731MOL0     H98676   8.118   0.315   5.804  0.4234  1.6170 -1.7331
  731MOL0     H98677   8.114   0.518   5.933  2.3575 -2.6763  0.8721
  731MOL0     H98678   8.012   0.402   6.024 -2.0346  1.6379  0.6770
  731MOL0     H98679   7.900   0.623   5.839 -0.6795 -0.5421 -0.9233
  731MOL0     H98680   7.798   0.495   5.906 -0.6837  2.0138 -0.4511
  731MOL0     H98681   7.843   0.755   6.234  3.9183  1.0417  0.0128
  731MOL0     H98682   7.608   0.425   5.648  1.8448 -0.7598 -2.0845
  731MOL0     H98683   7.252   0.345   5.660 -0.4261 -1.7772 -0.0800
  731MOL0     H98684   7.374   0.450   5.591  0.0267  0.3633 -1.3801
  731MOL0     H98685   7.317   0.322   5.497  1.1287 -0.3668  0.1901
  732MOL0     O98686   8.270   9.317   3.564  0.3414  0.1466 -0.4789
  732MOL0     C98687   8.207   9.418   3.563 -0.7648 -0.1345  1.2498
  732MOL0     O98688   8.254   9.547   3.547 -0.0835  0.7713 -0.1122
  732MOL0     C98689   8.389   9.565   3.558  0.5508  0.5076 -0.5561
  732MOL0     C98690   8.477   9.511   3.657 -0.2297 -0.8096 -0.2176
  732MOL0     C98691   8.606   9.560   3.676 -0.9528 -0.4812  0.1794
  732MOL0     C98692   8.660   9.655   3.600 -0.4278 -0.4504 -0.1699
  732MOL0     O98693   8.788   9.677   3.618 -0.2424 -0.5468 -0.6980
  732MOL0     C98694   8.822   9.815   3.653  0.1940  0.1969 -0.2319
  732MOL0     C98695   8.951   9.830   3.728  0.2056  0.5552 -0.0299
  732MOL0     C98696   8.959   9.743   3.857  0.2305 -0.1343  0.6069
  732MOL0     C98697   9.072   9.770   3.948  0.0127  0.2413 -0.6661
  732MOL0     C98698   9.022   9.764   4.096  0.8290  0.0355  0.7491
  732MOL0     C98699   9.143   9.772   4.197 -0.0104  0.1227  0.8264
  732MOL0     C98700   9.080   9.769   4.344 -0.3031 -0.2066  0.4750
  732MOL0     C98701   9.190   9.772   4.456 -0.2833  0.6001  0.7471
  732MOL0     N98702   9.141   9.819   4.583 -0.6683  0.7412  0.2083
  732MOL0     C98703   9.027   9.775   4.648 -0.0942 -0.1013 -0.2452
  732MOL0     C98704   9.034   9.830   4.768 -0.8154 -0.6437  0.3335
  732MOL0     C98705   8.917   9.814   4.861  0.2519 -0.6182 -0.1137
  732MOL0     C98706   8.781   9.874   4.812 -0.9938  0.4108  0.5896
  732MOL0     C98707   8.791  10.017   4.765  0.1642  0.7974  0.4863
  732MOL0     C98708   8.659  10.084   4.751  0.7392 -0.1916  0.1904
  732MOL0     O98709   8.588  10.038   4.633 -0.0129  0.2815  0.2178
  732MOL0     C98710   8.452  10.056   4.610 -0.8120 -0.5896 -0.3754
  732MOL0     C98711   8.392  10.021   4.488 -0.0313  0.3303 -0.0185
  732MOL0     C98712   8.255  10.045   4.463 -0.5239  0.0750 -0.3325
  732MOL0     C98713   8.179  10.099   4.567 -0.5018 -0.2694  0.0913
  732MOL0     C98714   8.028  10.098   4.556  0.0046 -0.3508 -0.1177
  732MOL0     O98715   7.975  10.062   4.436  0.4309  0.4801 -1.1567
  732MOL0     C98716   7.847  10.005   4.433  1.2533  1.0977 -0.1063
  732MOL0     C98717   7.825   9.927   4.318  0.1801 -0.3049 -0.3530
  732MOL0     C98718   7.690   9.885   4.289  0.8272 -0.1981 -0.0793
  732MOL0     C98719   7.580   9.911   4.376 -0.0295 -0.3776 -0.0439
  732MOL0     O98720   7.464   9.865   4.318  0.9996 -0.1455 -0.3905
  732MOL0     C98721   7.349   9.836   4.400 -0.7501 -0.3436 -0.8445
  732MOL0     C98722   7.234   9.929   4.363 -0.0348 -0.3173 -0.3334
  732MOL0     C98723   7.156   9.900   4.239  0.6170  0.7504  0.3229
  732MOL0     C98724   7.069   9.772   4.253  0.3899 -0.2437 -0.7930
  732MOL0     C98725   6.976   9.766   4.139  0.4237 -0.7136  0.4469
  732MOL0     C98726   6.902   9.638   4.127 -0.6995 -0.4252  0.0095
  732MOL0     C98727   6.824   9.592   4.245  0.3502 -0.1617 -0.1478
  732MOL0     C98728   6.717   9.483   4.219 -0.4189  0.8158  0.1402
  732MOL0    Cl98729   6.807   9.345   4.145 -0.4132  0.1666 -0.4480
  732MOL0     C98730   7.602   9.992   4.491 -0.8727  0.0727  0.3377
  732MOL0     C98731   7.736  10.036   4.527  0.0059  1.0625  0.3923
  732MOL0     O98732   7.976  10.135   4.664  0.2546 -0.1921  0.1223
  732MOL0     C98733   8.246  10.147   4.683  0.1409  0.0197  0.4817
  732MOL0     C98734   8.382  10.128   4.707  0.2029  0.0845 -0.2700
  732MOL0     N98735   9.148   9.918   4.779 -0.5127  0.1217  0.1365
  732MOL0     N98736   9.208   9.913   4.667  0.3651 -0.2306  0.4243
  732MOL0     C98737   8.582   9.696   3.491  0.9347 -0.2311 -0.2603
  732MOL0     C98738   8.450   9.655   3.472 -0.3311 -0.1788  0.4419
  732MOL0     C98739   8.068   9.390   3.523  0.1752 -0.1479 -0.0905
  732MOL0     C98740   8.024   9.440   3.399  0.4416  0.0354 -0.1234
  732MOL0     C98741   7.904   9.400   3.349 -0.4773  1.0103  0.3093
  732MOL0     C98742   7.811   9.324   3.424  1.4328 -0.3980  0.1219
  732MOL0     O98743   7.695   9.286   3.355  0.3119 -0.0448  0.5987
  732MOL0     C98744   7.584   9.238   3.437 -0.2256 -0.2359 -0.5618
  732MOL0     C98745   7.473   9.171   3.348 -0.0953  0.3707 -0.6369
  732MOL0     C98746   7.386   9.278   3.289 -0.0712  0.2060 -0.2643
  732MOL0     C98747   7.271   9.332   3.375 -0.7250  0.2282  0.7351
  732MOL0     C98748   7.193   9.220   3.441  0.2286 -0.2587 -0.0382
  732MOL0     C98749   7.127   9.131   3.482 -0.5535  1.1182  0.0394
  732MOL0     C98750   7.855   9.290   3.553  0.1635 -0.1591 -0.3260
  732MOL0     C98751   7.986   9.320   3.610 -0.2842  0.4418 -0.1484
  732MOL0     C98752   8.020   9.271   3.750  0.0875  0.0762 -0.1356
  732MOL0     H98753   8.434   9.444   3.731  1.8297 -0.8030  1.0591
  732MOL0     H98754   8.673   9.516   3.749  1.3279 -2.1875 -2.7139
  732MOL0     H98755   8.842   9.870   3.561 -0.3347  2.0554  0.7016
  732MOL0     H98756   8.748   9.868   3.714  1.1925 -1.6407  2.8626
  732MOL0     H98757   8.964   9.932   3.764  2.3121  0.1674  0.4342
  732MOL0     H98758   9.036   9.805   3.664  0.0553  2.1377 -0.9103
  732MOL0     H98759   8.963   9.636   3.837  2.0726 -0.0588  0.4369
  732MOL0     H98760   8.860   9.769   3.897 -0.5937 -1.3189 -0.6039
  732MOL0     H98761   9.144   9.690   3.929  0.5467  0.7600 -0.8809
  732MOL0     H98762   9.120   9.867   3.932  0.4781  0.1023 -0.1548
  732MOL0     H98763   8.957   9.852   4.100  1.5197  0.5703  0.4355
  732MOL0     H98764   8.960   9.676   4.114  0.3339  0.6208  2.0284
  732MOL0     H98765   9.215   9.690   4.191  0.9867  0.9551  0.9078
  732MOL0     H98766   9.191   9.870   4.191 -0.9555  0.8172  3.4250
  732MOL0     H98767   9.033   9.674   4.371  2.1064 -1.1030  1.9174
  732MOL0     H98768   9.008   9.849   4.362 -0.1127  0.8731 -2.9378
  732MOL0     H98769   9.229   9.670   4.466 -3.1169 -0.6257  0.4184
  732MOL0     H98770   9.274   9.832   4.421 -1.0818  0.2838 -1.9999
  732MOL0     H98771   8.951   9.715   4.600  0.7670 -0.3574 -1.3363
  732MOL0     H98772   8.897   9.708   4.879 -1.5505 -0.2469  0.2730
  732MOL0     H98773   8.934   9.868   4.955  0.3123  1.8538 -1.4599
  732MOL0     H98774   8.749   9.805   4.733  0.9556 -1.3420  1.2425
  732MOL0     H98775   8.709   9.867   4.894 -1.5712  0.9235  0.1311
  732MOL0     H98776   8.831  10.027   4.663 -0.3966  0.2098  0.2038
  732MOL0     H98777   8.859  10.072   4.830  0.9667  1.2665 -0.6972
  732MOL0     H98778   8.689  10.188   4.736  1.1071 -0.4380 -0.8365
  732MOL0     H98779   8.600  10.069   4.842  1.4365 -2.9469  0.2728
  732MOL0     H98780   8.448   9.967   4.412  1.0347  0.3273  0.7394
  732MOL0     H98781   8.201  10.005   4.378  0.1648  1.3165 -1.3952
  732MOL0     H98782   7.899   9.906   4.241 -0.4523  1.7610 -1.6127
  732MOL0     H98783   7.678   9.845   4.188  2.2413 -0.1230 -0.3063
  732MOL0     H98784   7.326   9.730   4.381 -0.0878 -0.4163 -1.2522
  732MOL0     H98785   7.381   9.852   4.503  1.4065  0.4567 -1.5884
  732MOL0     H98786   7.166   9.930   4.448 -1.5243 -0.0370 -1.4849
  732MOL0     H98787   7.271  10.031   4.345 -0.4791 -0.3084 -1.2218
  732MOL0     H98788   7.090   9.986   4.221 -1.4651 -0.7597  0.3357
  732MOL0     H98789   7.226   9.892   4.156 -0.8700  1.5174 -1.0561
  732MOL0     H98790   7.018   9.773   4.350  0.1847  0.7185 -0.9014
  732MOL0     H98791   7.139   9.688   4.241  1.2836  0.3589  0.0006
  732MOL0     H98792   7.030   9.774   4.045  0.1731  0.8523  0.4170
  732MOL0     H98793   6.905   9.849   4.143  0.1686 -0.9479  3.0689
  732MOL0     H98794   6.836   9.644   4.040  0.5933 -2.0765 -1.1539
  732MOL0     H98795   6.981   9.568   4.098  2.1280  1.0548  3.3805
  732MOL0     H98796   6.783   9.681   4.293  1.0599 -0.0070  0.1944
  732MOL0     H98797   6.896   9.550   4.316  0.1446  0.0183  0.1672
  732MOL0     H98798   6.660   9.459   4.309  0.3844  0.7672  0.6507
  732MOL0     H98799   6.643   9.514   4.145 -2.1976 -1.5374  0.8154
  732MOL0     H98800   7.520  10.026   4.554 -0.5211 -2.1673  2.1640
  732MOL0     H98801   7.753  10.086   4.622  1.3888 -0.8894  1.2611
  732MOL0     H98802   8.186  10.202   4.754  0.2062  0.3360  0.2960
  732MOL0     H98803   8.420  10.162   4.803  0.9331  0.7422 -0.7851
  732MOL0     H98804   8.633   9.763   3.422  0.3212 -0.8111 -1.2923
  732MOL0     H98805   8.391   9.709   3.400  0.6037  1.9108  1.1757
  732MOL0     H98806   8.101   9.493   3.344 -0.6598 -1.8748 -3.7960
  732MOL0     H98807   7.878   9.417   3.245 -2.8296 -2.6544  0.1274
  732MOL0     H98808   7.545   9.320   3.498 -0.5763 -1.0919  0.3970
  732MOL0     H98809   7.620   9.159   3.504  1.2348 -0.9052 -2.0570
  732MOL0     H98810   7.425   9.095   3.409 -0.2389  0.7743 -0.2372
  732MOL0     H98811   7.517   9.116   3.264 -0.9724  0.3527 -1.0946
  732MOL0     H98812   7.347   9.236   3.196 -0.4463 -3.5228  1.3582
  732MOL0     H98813   7.450   9.365   3.274  1.2214 -0.2472  2.0904
  732MOL0     H98814   7.311   9.399   3.451  1.7014  2.0586 -1.9307
  732MOL0     H98815   7.206   9.385   3.304 -0.9486  1.6513  1.9698
  732MOL0     H98816   7.056   9.055   3.508 -0.5538  1.0006 -0.2938
  732MOL0     H98817   7.786   9.230   3.611 -1.6194  0.2706 -1.8826
  732MOL0     H98818   8.064   9.171   3.759  3.5395  1.4937  0.2754
  732MOL0     H98819   8.098   9.340   3.785 -0.3540  0.1506  0.7304
  732MOL0     H98820   7.933   9.285   3.815  0.7748 -3.4304  1.7840
  733MOL0     O98821   4.026   5.917   4.912 -0.1784 -0.0158  0.0320
  733MOL0     C98822   3.913   5.878   4.898  0.3262  0.7442  0.3055
  733MOL0     O98823   3.874   5.790   4.800  0.7387  0.0082  0.0703
  733MOL0     C98824   3.962   5.760   4.701 -0.1631 -0.0412 -0.1148
  733MOL0     C98825   4.063   5.666   4.718  0.4835  0.1623  0.1369
  733MOL0     C98826   4.163   5.637   4.629 -0.5406 -0.4025 -0.4217
  733MOL0     C98827   4.167   5.708   4.499 -0.2494  0.3691 -0.1237
  733MOL0     O98828   4.255   5.683   4.393  0.2317  0.1263 -0.3780
  733MOL0     C98829   4.370   5.597   4.415 -0.1456  0.7030 -0.4545
  733MOL0     C98830   4.496   5.656   4.475  0.1493 -0.6800 -0.6997
  733MOL0     C98831   4.624   5.571   4.461  0.1079  0.4921  0.7550
  733MOL0     C98832   4.681   5.559   4.319  0.2433 -0.0257  0.4309
  733MOL0     C98833   4.828   5.500   4.323  0.1833  0.1316  0.5715
  733MOL0     C98834   4.889   5.534   4.187 -0.0612  0.2633 -0.4651
  733MOL0     C98835   5.036   5.497   4.166 -0.2166  0.2039 -0.8582
  733MOL0     C98836   5.072   5.500   4.014 -0.3598 -0.6325 -0.4275
  733MOL0     N98837   5.213   5.469   3.991 -0.7832  0.2848 -0.3205
  733MOL0     C98838   5.320   5.548   4.038 -0.1998  0.2122 -0.2464
  733MOL0     C98839   5.433   5.483   3.997 -0.0567 -0.3965  0.2233
  733MOL0     C98840   5.571   5.518   4.028 -0.1375 -0.3730  0.4601
  733MOL0     C98841   5.649   5.591   3.912  1.1170  1.1883 -0.7661
  733MOL0     C98842   5.787   5.631   3.965  0.5732 -0.0424  0.6474
  733MOL0     C98843   5.904   5.531   3.977 -0.2246  0.3034  0.2514
  733MOL0     O98844   5.926   5.476   3.847  0.3137  0.4189 -0.1021
  733MOL0     C98845   6.038   5.513   3.782 -0.2145 -0.2038  1.0481
  733MOL0     C98846   6.154   5.428   3.794  0.4753 -0.4885 -0.0150
  733MOL0     C98847   6.276   5.468   3.738  0.4535  0.2345  0.2085
  733MOL0     C98848   6.294   5.595   3.676  0.4649 -0.0724 -0.6341
  733MOL0     C98849   6.423   5.646   3.639  0.4228 -0.2885  0.6773
  733MOL0     O98850   6.432   5.772   3.586  0.8591 -0.0493 -1.0995
  733MOL0     C98851   6.530   5.829   3.516 -0.1114 -0.0221  0.4043
  733MOL0     C98852   6.541   5.971   3.516  0.3410  0.7184 -0.0956
  733MOL0     C98853   6.638   6.032   3.437 -0.8415 -0.6693  0.1969
  733MOL0     C98854   6.734   5.960   3.361 -0.1457  0.4765  0.7319
  733MOL0     O98855   6.839   6.008   3.292 -0.2762  0.7108 -0.1313
  733MOL0     C98856   6.827   6.140   3.247 -0.1979 -1.0156  0.5360
  733MOL0     C98857   6.926   6.165   3.137  0.3600  0.1067 -0.9739
  733MOL0     C98858   6.898   6.090   3.012 -0.7696 -1.3074  0.5302
  733MOL0     C98859   6.958   6.151   2.888 -0.6098  0.8676  0.0504
  733MOL0     C98860   6.871   6.262   2.838  0.3199  0.3420  0.7251
  733MOL0     C98861   6.961   6.338   2.738 -0.5394 -0.1833 -1.0353
  733MOL0     C98862   6.877   6.419   2.646  0.1362 -0.6424  0.3243
  733MOL0     C98863   6.965   6.490   2.546  0.4409 -0.2312  0.4749
  733MOL0    Cl98864   7.061   6.385   2.445 -0.3438 -0.0106 -0.3073
  733MOL0     C98865   6.715   5.818   3.353  0.2827 -1.0226 -0.0531
  733MOL0     C98866   6.612   5.757   3.428  0.4689  0.0191 -0.4990
  733MOL0     O98867   6.520   5.573   3.648  0.6761 -0.5184 -0.6262
  733MOL0     C98868   6.177   5.679   3.668 -0.7410 -0.5708 -0.1819
  733MOL0     C98869   6.056   5.634   3.721 -0.1486  0.3821  0.0632
  733MOL0     N98870   5.389   5.366   3.935  0.1582  0.7600 -0.9012
  733MOL0     N98871   5.260   5.355   3.929  0.0405  0.5959  0.6108
  733MOL0     C98872   4.063   5.804   4.477 -1.1228  0.2995  0.1225
  733MOL0     C98873   3.968   5.828   4.574 -0.9616  0.2775 -0.0711
  733MOL0     C98874   3.817   5.925   5.003  0.0804  0.1313  0.7931
  733MOL0     C98875   3.677   5.899   4.974 -0.8761  0.4183  0.2306
  733MOL0     C98876   3.578   5.929   5.059  0.7051  0.2085  0.4145
  733MOL0     C98877   3.604   5.986   5.186 -0.4921  0.7847 -0.8406
  733MOL0     O98878   3.508   6.000   5.293 -0.9288  0.6304  0.8195
  733MOL0     C98879   3.401   5.913   5.307  0.3569  0.1482 -0.3448
  733MOL0     C98880   3.446   5.774   5.330 -1.0081 -0.0346 -0.8092
  733MOL0     C98881   3.380   5.672   5.242 -0.1808  0.5436  0.3492
  733MOL0     C98882   3.229   5.633   5.274 -0.2679 -1.3248 -0.0395
  733MOL0     C98883   3.124   5.723   5.212 -0.4939  0.3240 -0.0768
  733MOL0     C98884   3.037   5.781   5.161 -0.0968 -1.0527  0.0376
  733MOL0     C98885   3.739   6.011   5.215  0.6787  0.8184  0.2775
  733MOL0     C98886   3.852   5.982   5.127  0.6733 -0.5940 -0.3149
  733MOL0     C98887   3.994   6.028   5.183  0.7432 -0.2104 -0.5735
  733MOL0     H98888   4.065   5.613   4.813  2.8687  1.8967  1.1743
  733MOL0     H98889   4.235   5.560   4.657 -0.9583 -0.0403  1.8097
  733MOL0     H98890   4.341   5.520   4.486 -0.2727  0.1905 -1.0498
  733MOL0     H98891   4.408   5.546   4.326  2.3801  0.1870  0.8366
  733MOL0     H98892   4.474   5.684   4.579  0.8635 -0.3136 -0.6432
  733MOL0     H98893   4.509   5.755   4.431  0.3751  0.9950  2.7777
  733MOL0     H98894   4.605   5.467   4.489  0.0251 -0.9483 -3.7653
  733MOL0     H98895   4.705   5.616   4.520  1.5183 -1.5935  0.5185
  733MOL0     H98896   4.616   5.498   4.255  0.5819  2.2689 -2.3339
  733MOL0     H98897   4.677   5.658   4.274  3.2441  0.4083  0.9166
  733MOL0     H98898   4.882   5.549   4.405 -0.6084  1.5012  0.3103
  733MOL0     H98899   4.836   5.395   4.351  1.3272  0.4028  1.3451
  733MOL0     H98900   4.830   5.479   4.113  0.3826 -1.0042  0.0968
  733MOL0     H98901   4.879   5.640   4.163 -1.3226 -0.1824 -2.1498
  733MOL0     H98902   5.062   5.401   4.211  0.9726  1.0730  0.3956
  733MOL0     H98903   5.086   5.577   4.220  1.3260 -2.7830  2.5800
  733MOL0     H98904   5.019   5.427   3.953  0.6369 -1.2310 -0.5968
  733MOL0     H98905   5.055   5.601   3.976  1.8217 -1.2401 -3.3808
  733MOL0     H98906   5.320   5.636   4.100 -1.5150 -0.6539  1.0488
  733MOL0     H98907   5.564   5.589   4.110 -0.2835 -0.4137  0.4831
  733MOL0     H98908   5.621   5.424   4.054 -0.0847  0.0400  1.9224
  733MOL0     H98909   5.649   5.533   3.819 -0.1384  1.4154 -0.9219
  733MOL0     H98910   5.589   5.681   3.896  0.3963  0.6722 -1.0161
  733MOL0     H98911   5.779   5.679   4.063 -1.1826 -0.3996  0.7035
  733MOL0     H98912   5.841   5.702   3.902  1.3115 -1.3464 -0.2405
  733MOL0     H98913   5.874   5.458   4.052  0.5147 -1.4415 -1.0630
  733MOL0     H98914   5.986   5.583   4.027  1.5262 -3.6338  1.8908
  733MOL0     H98915   6.141   5.331   3.841  1.1436  0.6922  2.7763
  733MOL0     H98916   6.363   5.405   3.754  1.0290  1.3671  1.7892
  733MOL0     H98917   6.484   6.023   3.592 -1.2792 -2.4313  1.0202
  733MOL0     H98918   6.640   6.140   3.436  0.7114 -0.6776 -0.7231
  733MOL0     H98919   6.727   6.161   3.209  0.5094 -0.4909 -1.0957
  733MOL0     H98920   6.864   6.211   3.321  0.9644  2.7590 -3.2760
  733MOL0     H98921   6.910   6.271   3.115 -2.2253  0.3073  1.2381
  733MOL0     H98922   7.028   6.141   3.169  0.4310  0.4536 -0.9406
  733MOL0     H98923   6.945   5.992   3.023  5.1848  1.3399  2.3769
  733MOL0     H98924   6.793   6.063   2.994 -0.8986 -0.4720 -0.0546
  733MOL0     H98925   6.968   6.072   2.813 -0.1579  0.1274  0.8694
  733MOL0     H98926   7.051   6.194   2.926 -1.0141  0.9686  0.9621
  733MOL0     H98927   6.838   6.338   2.910 -0.9545  0.4660  0.0427
  733MOL0     H98928   6.777   6.221   2.799  0.0139 -0.2571  2.0283
  733MOL0     H98929   7.027   6.405   2.794 -2.3147 -0.9858  2.2744
  733MOL0     H98930   7.027   6.266   2.689  1.9696 -0.4437  2.3124
  733MOL0     H98931   6.817   6.489   2.704 -0.2912 -0.9560  0.2673
  733MOL0     H98932   6.811   6.350   2.593  0.0502  0.7778 -1.5224
  733MOL0     H98933   6.896   6.541   2.477 -1.5419 -3.1585  0.1040
  733MOL0     H98934   7.035   6.558   2.594  0.7638 -0.9560  1.0494
  733MOL0     H98935   6.778   5.767   3.280  0.7963  1.1608 -1.2263
  733MOL0     H98936   6.583   5.653   3.426  0.2635  0.0801 -1.2359
  733MOL0     H98937   6.178   5.774   3.614 -0.8952 -0.2186  0.4239
  733MOL0     H98938   5.968   5.696   3.701  1.8629  3.2274 -0.7294
  733MOL0     H98939   4.066   5.856   4.381  3.5738 -0.9124 -0.6654
  733MOL0     H98940   3.894   5.906   4.559 -2.2801 -1.0097 -0.3903
  733MOL0     H98941   3.651   5.847   4.883  2.1752  1.5500 -1.4674
  733MOL0     H98942   3.477   5.925   5.021  0.0702 -1.3608  2.0697
  733MOL0     H98943   3.321   5.916   5.233 -2.7086  0.0503  2.6961
  733MOL0     H98944   3.352   5.934   5.402  0.2976 -2.0734  0.1728
  733MOL0     H98945   3.415   5.745   5.431 -0.7292 -1.1211 -1.0245
  733MOL0     H98946   3.554   5.768   5.319 -0.9241  2.7131 -2.3500
  733MOL0     H98947   3.430   5.575   5.251 -0.7002  0.2067 -0.2798
  733MOL0     H98948   3.390   5.699   5.136 -3.4799  0.7462 -0.0152
  733MOL0     H98949   3.225   5.535   5.225 -0.0852  0.5672 -4.2655
  733MOL0     H98950   3.214   5.626   5.382 -0.2199  0.3084  0.0916
  733MOL0     H98951   2.978   5.858   5.115  1.5893  1.1657  1.3547
  733MOL0     H98952   3.767   6.053   5.311  1.0591  2.6514 -0.5895
  733MOL0     H98953   4.010   6.136   5.171 -3.7444  0.7798  0.6145
  733MOL0     H98954   3.988   6.015   5.291 -0.9289 -0.2430 -0.6412
  733MOL0     H98955   4.077   5.961   5.159 -0.4201 -2.6417  1.7378
  734MOL0     O98956  11.138   6.116   2.479 -0.7011  0.5807  0.1132
  734MOL0     C98957  11.124   6.113   2.603 -0.4798 -0.0871  0.7075
  734MOL0     O98958  11.221   6.124   2.694  0.5538 -0.0311 -0.0661
  734MOL0     C98959  11.352   6.146   2.662  0.0413  0.1936 -0.2180
  734MOL0     C98960  11.434   6.169   2.779  0.6300 -0.2034  0.6061
  734MOL0     C98961  11.568   6.221   2.763  0.2191  0.8891 -0.0436
  734MOL0     C98962  11.633   6.237   2.640 -0.0002  1.0158 -0.7938
  734MOL0     O98963  11.767   6.268   2.651  0.1783 -0.0347  1.1379
  734MOL0     C98964  11.822   6.294   2.524  0.3974 -0.1641  0.7078
  734MOL0     C98965  11.975   6.314   2.536 -0.4459  0.0012 -0.4510
  734MOL0     C98966  12.007   6.425   2.634  0.0479 -0.2403 -0.4170
  734MOL0     C98967  12.155   6.458   2.644 -1.1723 -0.1131 -0.2482
  734MOL0     C98968  12.183   6.581   2.737  0.0606 -0.4696 -0.1376
  734MOL0     C98969  12.154   6.725   2.684 -0.3518 -0.4186 -0.0391
  734MOL0     C98970  12.172   6.827   2.790 -0.7458 -0.3274 -0.0657
  734MOL0     C98971  12.310   6.840   2.860 -0.4898  0.2648 -0.2063
  734MOL0     N98972  12.314   6.948   2.961 -0.8476  0.2363  0.3212
  734MOL0     C98973  12.230   6.995   3.058 -0.6160  1.2209 -0.3432
  734MOL0     C98974  12.304   7.094   3.115  0.3386  0.3713 -0.0017
  734MOL0     C98975  12.263   7.179   3.232  0.1459  0.9414 -0.5644
  734MOL0     C98976  12.246   7.105   3.370 -0.1654 -0.2804 -0.3492
  734MOL0     C98977  12.107   7.091   3.419  0.0412 -0.6612  0.2984
  734MOL0     C98978  12.103   7.088   3.576  0.4128  0.2218 -0.0372
  734MOL0     O98979  12.000   7.008   3.639 -0.2787 -0.3047  0.5197
  734MOL0     C98980  11.865   7.029   3.617 -0.8576 -0.0755 -0.6838
  734MOL0     C98981  11.782   6.922   3.645 -0.3401  0.3401 -0.4619
  734MOL0     C98982  11.647   6.929   3.634 -0.1852 -0.0598  0.5771
  734MOL0     C98983  11.585   7.048   3.616 -0.4432 -1.0128  0.6669
  734MOL0     C98984  11.442   7.071   3.610 -0.2667  1.2087  0.4986
  734MOL0     O98985  11.367   6.954   3.620 -0.1462  0.2966  0.3426
  734MOL0     C98986  11.237   6.955   3.598 -0.3254 -1.0111  0.3750
  734MOL0     C98987  11.151   6.904   3.696  0.3659 -0.3220  0.2399
  734MOL0     C98988  11.011   6.906   3.667 -0.1711 -0.2377 -0.0441
  734MOL0     C98989  10.959   6.962   3.542 -0.8796  0.5472 -0.2570
  734MOL0     O98990  10.828   6.977   3.519  0.6934  0.1270  0.2548
  734MOL0     C98991  10.753   6.849   3.529  0.0693  0.1024 -0.3007
  734MOL0     C98992  10.612   6.872   3.589  0.3466 -0.1195 -0.5491
  734MOL0     C98993  10.548   6.740   3.636 -1.0821 -0.2769 -0.4030
  734MOL0     C98994  10.401   6.744   3.663 -0.2310 -0.5559 -0.3661
  734MOL0     C98995  10.352   6.613   3.726 -0.6265 -0.3579  0.5731
  734MOL0     C98996  10.207   6.638   3.758  0.1477  0.5983  0.1055
  734MOL0     C98997  10.155   6.505   3.828 -0.2302 -0.6494  0.1513
  734MOL0     C98998  10.004   6.525   3.850 -0.2811  0.5142  0.6543
  734MOL0    Cl98999   9.985   6.632   3.990 -0.4080 -0.4685  0.3915
  734MOL0     C99000  11.053   7.015   3.454 -0.2040  0.0292 -0.0520
  734MOL0     C99001  11.191   7.014   3.478  0.5326  0.1189  0.9590
  734MOL0     O99002  11.399   7.186   3.613 -0.0730  0.0924  0.2707
  734MOL0     C99003  11.671   7.168   3.599  0.4993 -0.0968  0.0041
  734MOL0     C99004  11.809   7.155   3.599  1.4373  0.0474  0.3910
  734MOL0     N99005  12.425   7.094   3.064 -0.1142  0.5587 -1.0516
  734MOL0     N99006  12.433   7.003   2.985 -0.8099 -0.3447  0.6207
  734MOL0     C99007  11.558   6.210   2.532 -0.4932  0.1682  0.1707
  734MOL0     C99008  11.423   6.167   2.545  0.5306 -0.1355 -0.6696
  734MOL0     C99009  10.986   6.090   2.655  0.4270  0.0775  0.1398
  734MOL0     C99010  10.889   6.060   2.559  0.0382  0.8037 -0.6667
  734MOL0     C99011  10.760   6.033   2.592 -0.5647 -0.2309  0.1214
  734MOL0     C99012  10.724   6.033   2.723  0.4013  0.1296 -0.0808
  734MOL0     O99013  10.595   6.011   2.761  0.8406 -0.4544  0.2473
  734MOL0     C99014  10.512   6.122   2.811  0.4944 -0.0292 -0.5272
  734MOL0     C99015  10.390   6.150   2.726 -1.0027  0.7746  0.0750
  734MOL0     C99016  10.290   6.260   2.773  0.0895  0.5534  0.0149
  734MOL0     C99017  10.147   6.244   2.716 -0.6365  0.7492 -0.6958
  734MOL0     C99018  10.048   6.318   2.790  0.4587 -0.0325  0.3466
  734MOL0     C99019   9.954   6.369   2.858 -0.1488  0.3171 -0.4070
  734MOL0     C99020  10.807   6.067   2.819 -1.0236 -0.7851 -0.4281
  734MOL0     C99021  10.945   6.100   2.788  0.0160  0.0973 -0.7831
  734MOL0     C99022  11.041   6.143   2.901 -0.8463 -0.4238  0.7685
  734MOL0     H99023  11.396   6.172   2.881 -3.5721 -2.4945 -0.6382
  734MOL0     H99024  11.613   6.239   2.860 -0.5298  1.3794  0.2199
  734MOL0     H99025  11.808   6.209   2.456  1.1589 -0.7816  1.3116
  734MOL0     H99026  11.774   6.387   2.493 -2.0390 -1.2257  1.0389
  734MOL0     H99027  11.995   6.353   2.436  1.2826 -1.0732 -0.5654
  734MOL0     H99028  12.031   6.223   2.559  1.5575  0.4943 -3.0146
  734MOL0     H99029  11.960   6.422   2.733 -3.0827 -0.5973 -1.8213
  734MOL0     H99030  11.955   6.508   2.586  0.3160  0.7081  0.8854
  734MOL0     H99031  12.201   6.372   2.694 -1.6226  0.3430  0.9940
  734MOL0     H99032  12.205   6.471   2.548 -1.2796 -1.2410 -0.4745
  734MOL0     H99033  12.126   6.555   2.826  1.3187 -3.1102 -0.0201
  734MOL0     H99034  12.291   6.570   2.754 -0.1980 -0.1434  2.0240
  734MOL0     H99035  12.223   6.755   2.605 -0.0372  2.4079  1.1738
  734MOL0     H99036  12.054   6.733   2.641 -0.0944 -1.9063 -0.9984
  734MOL0     H99037  12.105   6.804   2.874 -1.7851 -2.7702 -1.4559
  734MOL0     H99038  12.150   6.926   2.749 -2.8168  0.2681  2.2280
  734MOL0     H99039  12.342   6.742   2.895  0.3565  0.7143  0.3336
  734MOL0     H99040  12.378   6.860   2.776 -0.9582 -4.1956 -1.9007
  734MOL0     H99041  12.132   6.955   3.083  0.3605  0.0159  1.8222
  734MOL0     H99042  12.348   7.246   3.247  0.2097  0.7139  0.0922
  734MOL0     H99043  12.178   7.243   3.206  2.0047  4.3942  1.3054
  734MOL0     H99044  12.290   7.005   3.365  0.8443  0.2056 -3.5799
  734MOL0     H99045  12.309   7.163   3.438 -0.6739 -0.7658  0.5519
  734MOL0     H99046  12.077   6.995   3.376  1.2392 -0.7328 -0.4164
  734MOL0     H99047  12.040   7.165   3.374  1.4984 -1.2766 -3.1517
  734MOL0     H99048  12.097   7.188   3.621 -0.6381  0.2423 -0.2070
  734MOL0     H99049  12.204   7.058   3.607  1.0125  2.7075  0.7324
  734MOL0     H99050  11.832   6.831   3.678 -0.4693  1.0088  1.7481
  734MOL0     H99051  11.582   6.843   3.649  1.3448 -1.7077 -1.6730
  734MOL0     H99052  11.187   6.866   3.790  0.9478 -0.6301 -0.1013
  734MOL0     H99053  10.941   6.876   3.744 -0.0070  1.4246  0.7973
  734MOL0     H99054  10.739   6.802   3.431  0.6790 -1.9267  0.5444
  734MOL0     H99055  10.809   6.778   3.590  1.0146 -0.2451 -1.5279
  734MOL0     H99056  10.621   6.944   3.671 -0.2797  1.3078 -1.6770
  734MOL0     H99057  10.542   6.908   3.513 -1.5597 -1.9546  0.2229
  734MOL0     H99058  10.568   6.666   3.558  0.3407 -0.2025 -0.1294
  734MOL0     H99059  10.604   6.724   3.728  3.3083  0.8495 -2.6134
  734MOL0     H99060  10.347   6.765   3.570 -0.3291 -0.7311 -0.3493
  734MOL0     H99061  10.397   6.828   3.732 -1.7398  0.1561 -1.2792
  734MOL0     H99062  10.427   6.592   3.803  1.5938 -0.3589 -1.4514
  734MOL0     H99063  10.373   6.534   3.653  2.7812  0.2257  0.7586
  734MOL0     H99064  10.197   6.728   3.819 -0.3055 -0.4969  1.7097
  734MOL0     H99065  10.155   6.644   3.663 -1.6217 -3.6995  0.5661
  734MOL0     H99066  10.209   6.490   3.922 -1.4750 -1.9339  0.6939
  734MOL0     H99067  10.171   6.414   3.770  1.1535  0.2625 -0.9719
  734MOL0     H99068   9.968   6.578   3.761 -1.9716 -1.2868  0.2126
  734MOL0     H99069   9.962   6.425   3.862 -0.4950  0.6851  1.3608
  734MOL0     H99070  11.019   7.059   3.361 -0.5010 -0.5257 -0.2080
  734MOL0     H99071  11.260   7.067   3.413  0.3964  1.0309  1.5493
  734MOL0     H99072  11.629   7.268   3.598  0.0627 -0.2481  1.0943
  734MOL0     H99073  11.880   7.236   3.598  0.9691  0.5961  3.0256
  734MOL0     H99074  11.599   6.224   2.432  2.2644 -1.3078  0.9895
  734MOL0     H99075  11.368   6.154   2.453  0.1711  0.6494 -0.5714
  734MOL0     H99076  10.917   6.059   2.454 -2.6682 -0.0077 -1.4596
  734MOL0     H99077  10.689   6.006   2.514  1.7976 -2.3867 -1.4219
  734MOL0     H99078  10.565   6.217   2.813 -1.0947  0.8939  0.6471
  734MOL0     H99079  10.485   6.123   2.917 -0.4989  0.9348 -0.7731
  734MOL0     H99080  10.326   6.061   2.716 -1.5154  0.8592  2.1014
  734MOL0     H99081  10.429   6.152   2.624  4.8090 -1.1301  1.8875
  734MOL0     H99082  10.333   6.357   2.748  0.3410 -0.3057 -3.2801
  734MOL0     H99083  10.273   6.248   2.881  1.5757 -1.3902  0.1003
  734MOL0     H99084  10.137   6.284   2.614  0.0135  1.6319 -0.4285
  734MOL0     H99085  10.119   6.139   2.721 -1.6136  1.0753  1.7338
  734MOL0     H99086   9.881   6.393   2.933  2.3348  3.3119  1.2500
  734MOL0     H99087  10.780   6.087   2.922  3.0183  0.5455  0.5201
  734MOL0     H99088  11.102   6.062   2.941  0.4031  0.3348  0.4370
  734MOL0     H99089  11.107   6.226   2.876  0.1963 -0.6795  2.5679
  734MOL0     H99090  10.986   6.183   2.987 -0.4692 -1.9231  1.7411
  735MOL0     O99091   1.246   3.076   4.537  0.3958 -0.0211  0.4431
  735MOL0     C99092   1.227   3.195   4.500  0.0466  0.3684  0.7420
  735MOL0     O99093   1.320   3.283   4.456 -0.3039  0.8320 -0.9205
  735MOL0     C99094   1.447   3.234   4.464 -0.0375  0.9133  0.1701
  735MOL0     C99095   1.516   3.253   4.584  0.4346  1.0872  0.2899
  735MOL0     C99096   1.655   3.205   4.596  0.4838  0.1042 -0.0071
  735MOL0     C99097   1.713   3.140   4.492 -0.3110 -0.1409  0.4002
  735MOL0     O99098   1.840   3.093   4.510  0.5452  0.3267 -0.2889
  735MOL0     C99099   1.877   2.971   4.450 -0.4192 -0.3935 -0.1903
  735MOL0     C99100   2.023   2.964   4.464 -0.2002  0.5730 -0.1451
  735MOL0     C99101   2.086   3.051   4.357 -0.6630 -0.8780  0.8341
  735MOL0     C99102   2.235   3.090   4.391  0.1998  0.1492 -0.3554
  735MOL0     C99103   2.287   3.191   4.280  0.6383  0.3831 -0.8296
  735MOL0     C99104   2.407   3.273   4.341  0.3533 -0.4862  0.8737
  735MOL0     C99105   2.523   3.180   4.386 -0.1013  0.3394 -0.3201
  735MOL0     C99106   2.646   3.265   4.433  0.4764 -0.2798  0.1752
  735MOL0     N99107   2.750   3.176   4.485 -0.5044 -0.3611  0.0775
  735MOL0     C99108   2.791   3.162   4.621  0.3932  0.4025  0.3875
  735MOL0     C99109   2.891   3.073   4.615  0.1221  0.1959  0.9017
  735MOL0     C99110   2.966   3.007   4.726 -1.3445 -0.0559  0.5422
  735MOL0     C99111   3.089   3.088   4.749 -1.0438 -0.1397  0.0782
  735MOL0     C99112   3.170   3.035   4.866 -0.4041 -1.4650  0.3301
  735MOL0     C99113   3.285   3.124   4.890 -0.6102  0.0816  0.0294
  735MOL0     O99114   3.351   3.084   5.015 -0.0588  0.3868  0.3608
  735MOL0     C99115   3.436   2.983   5.032  0.1328 -0.5723 -0.3438
  735MOL0     C99116   3.508   2.912   4.940  0.1029  0.2127  0.6420
  735MOL0     C99117   3.572   2.792   4.983  0.3199 -0.2329  0.3337
  735MOL0     C99118   3.584   2.763   5.123 -0.9242  0.4909 -0.0338
  735MOL0     C99119   3.670   2.656   5.173  1.3488  0.7597 -0.0134
  735MOL0     O99120   3.684   2.627   5.307  0.1741 -0.4267  0.3544
  735MOL0     C99121   3.799   2.555   5.337 -0.3877 -0.6903  0.1075
  735MOL0     C99122   3.799   2.432   5.406 -0.3893 -0.5206  0.7447
  735MOL0     C99123   3.919   2.365   5.440  0.0621 -0.2980  0.4268
  735MOL0     C99124   4.048   2.425   5.407 -0.5919  0.3017  0.6177
  735MOL0     O99125   4.177   2.371   5.404  0.3654 -0.0824 -0.4502
  735MOL0     C99126   4.203   2.238   5.449  0.3263 -0.4515  1.1884
  735MOL0     C99127   4.326   2.251   5.530 -0.1390  0.1647 -0.3089
  735MOL0     C99128   4.446   2.300   5.451 -0.1904 -0.8913 -0.4173
  735MOL0     C99129   4.569   2.317   5.550  0.3044  0.3827 -0.8954
  735MOL0     C99130   4.669   2.406   5.489 -0.0383 -0.4189  0.0439
  735MOL0     C99131   4.724   2.347   5.355  0.0979 -0.3748 -0.1591
  735MOL0     C99132   4.856   2.416   5.312  1.0647  0.4240  0.1280
  735MOL0     C99133   4.921   2.344   5.195 -0.3819  0.4510  1.0844
  735MOL0    Cl99134   5.072   2.417   5.158  0.2341  0.1085  0.0880
  735MOL0     C99135   4.039   2.547   5.347 -0.6103 -0.0168  0.3876
  735MOL0     C99136   3.923   2.613   5.304  0.6586  0.3914 -0.8774
  735MOL0     O99137   3.733   2.600   5.086 -0.0970  0.1117 -0.0094
  735MOL0     C99138   3.525   2.847   5.213  0.2817  0.6333  0.4110
  735MOL0     C99139   3.452   2.957   5.163 -1.0105  0.6151 -0.1261
  735MOL0     N99140   2.907   3.027   4.484  0.1365  0.7698 -0.5513
  735MOL0     N99141   2.819   3.093   4.413  0.1214 -0.3607 -0.4042
  735MOL0     C99142   1.630   3.120   4.365 -0.4161 -0.9266 -0.4749
  735MOL0     C99143   1.499   3.161   4.361 -0.3968  0.2231  0.4798
  735MOL0     C99144   1.089   3.252   4.504  0.4802 -0.3651  0.3368
  735MOL0     C99145   1.063   3.362   4.418 -0.3515  0.0058  0.3007
  735MOL0     C99146   0.941   3.426   4.419  0.1284  0.3638  0.8935
  735MOL0     C99147   0.839   3.379   4.502 -0.3883  0.2934  0.4232
  735MOL0     O99148   0.713   3.438   4.510  0.2716  1.0878 -0.9435
  735MOL0     C99149   0.662   3.565   4.456 -0.4619  0.0531  0.2007
  735MOL0     C99150   0.607   3.540   4.317 -0.8676  0.5875 -0.4090
  735MOL0     C99151   0.553   3.659   4.255 -0.2097  0.1072  0.3415
  735MOL0     C99152   0.419   3.704   4.312  0.0376  0.0919 -0.9485
  735MOL0     C99153   0.313   3.628   4.239  0.1924  0.2811  0.8370
  735MOL0     C99154   0.226   3.564   4.191 -0.2696 -0.4550  0.3552
  735MOL0     C99155   0.866   3.273   4.588 -0.3697 -0.2105 -0.1791
  735MOL0     C99156   0.988   3.210   4.588  0.1425  0.1499  0.3729
  735MOL0     C99157   1.011   3.088   4.678  1.4348 -0.1071  0.2885
  735MOL0     H99158   1.468   3.315   4.658  1.2531  1.7342  0.2987
  735MOL0     H99159   1.712   3.222   4.687 -1.7247  0.0603  1.4447
  735MOL0     H99160   1.828   2.884   4.496 -0.8256 -0.7791 -1.3118
  735MOL0     H99161   1.865   2.972   4.341  1.6210  3.3978 -0.5404
  735MOL0     H99162   2.057   2.860   4.457  1.9838  1.1145  1.3986
  735MOL0     H99163   2.064   3.000   4.559  3.4755 -2.7048 -0.2571
  735MOL0     H99164   2.031   3.145   4.344  1.1450  0.2913  1.2918
  735MOL0     H99165   2.080   2.991   4.266  1.4953 -1.8541  1.2718
  735MOL0     H99166   2.225   3.148   4.483  1.5741  0.3321 -0.3036
  735MOL0     H99167   2.296   3.000   4.403 -0.4474 -0.1423  0.9613
  735MOL0     H99168   2.318   3.140   4.188  0.5948 -1.9821  0.3718
  735MOL0     H99169   2.206   3.260   4.254 -0.3924 -0.8532 -1.0571
  735MOL0     H99170   2.440   3.342   4.263 -0.3639  2.3442  2.9141
  735MOL0     H99171   2.369   3.334   4.423  1.2969  0.3797  0.6933
  735MOL0     H99172   2.560   3.113   4.308  0.8730 -0.6404  0.9382
  735MOL0     H99173   2.497   3.124   4.476  1.1783 -1.2994 -0.9342
  735MOL0     H99174   2.688   3.313   4.344  1.5419  0.3122  0.9769
  735MOL0     H99175   2.627   3.350   4.498  1.5377 -0.6378  0.9701
  735MOL0     H99176   2.749   3.216   4.705 -1.2086  0.8183 -0.6354
  735MOL0     H99177   2.901   3.018   4.814 -0.3970  1.4699  1.0999
  735MOL0     H99178   2.980   2.904   4.694 -0.3872 -0.1001  1.0683
  735MOL0     H99179   3.149   3.106   4.659 -2.8368  1.2646 -0.9190
  735MOL0     H99180   3.045   3.185   4.776 -0.8706 -0.7177  2.6232
  735MOL0     H99181   3.188   2.928   4.882 -1.9628 -1.5434  1.8207
  735MOL0     H99182   3.124   3.069   4.959  2.1339 -2.1214  1.9216
  735MOL0     H99183   3.244   3.224   4.906 -1.9072 -0.2290 -1.1560
  735MOL0     H99184   3.346   3.111   4.800  0.3004  0.8276  0.5302
  735MOL0     H99185   3.508   2.938   4.834  0.2488 -0.4793  0.4618
  735MOL0     H99186   3.634   2.739   4.911  2.3464  3.8303 -1.1998
  735MOL0     H99187   3.709   2.374   5.423  0.1664 -2.0363 -1.1573
  735MOL0     H99188   3.913   2.264   5.480  1.2074 -1.3753 -1.9013
  735MOL0     H99189   4.124   2.193   5.510  0.9836 -0.7042  1.8703
  735MOL0     H99190   4.222   2.172   5.364  2.1116 -0.3986  1.4945
  735MOL0     H99191   4.311   2.323   5.612  2.1889  1.5026 -0.9734
  735MOL0     H99192   4.355   2.155   5.574 -2.7453 -1.4502 -1.8382
  735MOL0     H99193   4.471   2.243   5.362 -0.3956  0.6484 -1.5002
  735MOL0     H99194   4.417   2.399   5.414  0.3612 -0.6842 -0.2915
  735MOL0     H99195   4.616   2.220   5.570 -0.5139 -0.6260 -3.5006
  735MOL0     H99196   4.541   2.363   5.646 -1.5380 -2.1495 -0.0800
  735MOL0     H99197   4.752   2.417   5.559 -0.9984  0.5539  1.0532
  735MOL0     H99198   4.618   2.501   5.473  1.0904  0.0683 -0.9082
  735MOL0     H99199   4.749   2.240   5.357  0.4459 -0.3257 -1.3785
  735MOL0     H99200   4.653   2.354   5.272  1.1020 -1.8722 -1.1890
  735MOL0     H99201   4.919   2.417   5.401  0.8423  2.6567  0.3069
  735MOL0     H99202   4.843   2.522   5.288  1.0365  0.5568  0.7301
  735MOL0     H99203   4.934   2.238   5.216 -1.6591 -0.0243 -0.3821
  735MOL0     H99204   4.851   2.357   5.112 -0.4086  3.0772  1.4191
  735MOL0     H99205   4.139   2.585   5.328 -0.9625  0.9059  0.3674
  735MOL0     H99206   3.932   2.706   5.247  1.2565  1.0361  0.2306
  735MOL0     H99207   3.532   2.835   5.321 -2.1239  0.1063  0.5691
  735MOL0     H99208   3.421   3.021   5.245  0.6804 -0.5036  1.4587
  735MOL0     H99209   1.670   3.067   4.279 -1.7529 -0.3931 -1.4443
  735MOL0     H99210   1.440   3.135   4.274 -0.2911 -2.7647  1.1902
  735MOL0     H99211   1.135   3.389   4.341 -1.1251  3.5530  0.6608
  735MOL0     H99212   0.928   3.504   4.345  3.4055 -2.4677 -3.1477
  735MOL0     H99213   0.745   3.635   4.460  0.0646 -0.6080  1.6765
  735MOL0     H99214   0.586   3.594   4.530  1.5850  1.3656  1.8740
  735MOL0     H99215   0.525   3.471   4.339  0.9062 -0.4610  3.8699
  735MOL0     H99216   0.676   3.494   4.245  0.4859  2.1166 -0.1290
  735MOL0     H99217   0.544   3.650   4.146  1.7397  2.9392 -0.1657
  735MOL0     H99218   0.625   3.742   4.260  0.3865 -0.3474 -0.3906
  735MOL0     H99219   0.412   3.705   4.421  0.2642 -3.5928 -0.7962
  735MOL0     H99220   0.403   3.807   4.278  0.0410  0.6100  0.5569
  735MOL0     H99221   0.146   3.519   4.135  0.6770 -0.1757 -1.2911
  735MOL0     H99222   0.789   3.248   4.659 -0.8189 -1.0281 -0.9361
  735MOL0     H99223   1.102   3.096   4.738  1.8357  0.4771 -0.3828
  735MOL0     H99224   0.926   3.072   4.745  1.5145  0.8385  0.6372
  735MOL0     H99225   1.001   3.000   4.614  0.5526 -1.2136  1.8642
  736MOL0     O99226  10.511   3.268   4.233 -0.3181  0.2338  0.4286
  736MOL0     C99227  10.415   3.315   4.290  0.9635  0.1534 -0.4029
  736MOL0     O99228  10.400   3.441   4.325 -0.1713 -0.2023  0.1531
  736MOL0     C99229  10.520   3.519   4.344  1.2051  0.3089 -0.0349
  736MOL0     C99230  10.535   3.623   4.253  0.0221 -0.7447  0.0267
  736MOL0     C99231  10.649   3.710   4.279 -0.2985 -0.0273 -0.4678
  736MOL0     C99232  10.735   3.676   4.386 -0.1917 -0.5165  0.1494
  736MOL0     O99233  10.841   3.755   4.392 -0.5288  0.0696  0.3484
  736MOL0     C99234  10.957   3.701   4.458  0.2843  1.4599  0.4115
  736MOL0     C99235  11.072   3.799   4.448 -0.5967 -0.1663  0.4577
  736MOL0     C99236  11.192   3.767   4.532 -0.2673  0.1702  0.2807
  736MOL0     C99237  11.300   3.878   4.503  0.1641 -0.3299 -0.6257
  736MOL0     C99238  11.420   3.864   4.593 -0.2662 -0.5646 -0.5147
  736MOL0     C99239  11.535   3.962   4.554  0.2863 -0.2883 -0.3969
  736MOL0     C99240  11.669   3.929   4.625 -0.4494 -0.3443  0.3346
  736MOL0     C99241  11.783   4.014   4.562  0.9566 -0.0751 -0.0589
  736MOL0     N99242  11.906   3.933   4.557 -0.3669  0.0053 -0.2794
  736MOL0     C99243  11.998   3.903   4.655 -0.1172  0.4805  0.3447
  736MOL0     C99244  12.116   3.865   4.594 -1.0758 -0.0728 -0.6332
  736MOL0     C99245  12.248   3.843   4.658  1.0612 -0.0669  0.1310
  736MOL0     C99246  12.282   3.696   4.657 -0.0798 -1.2001 -1.2981
  736MOL0     C99247  12.393   3.654   4.755  0.1833  0.1673  0.2235
  736MOL0     C99248  12.534   3.699   4.701  0.0260 -0.0335  0.0346
  736MOL0     O99249  12.638   3.622   4.773  0.1227  0.0301  0.2625
  736MOL0     C99250  12.764   3.668   4.793 -0.4872 -0.9171 -0.1203
  736MOL0     C99251  12.839   3.566   4.854 -0.2955  0.6741 -0.6964
  736MOL0     C99252  12.971   3.604   4.903 -0.5807  0.8670  0.0134
  736MOL0     C99253  13.025   3.734   4.874 -0.4382  0.2705 -0.3459
  736MOL0     C99254  13.170   3.765   4.912  0.7454 -0.4570 -0.0927
  736MOL0     O99255  13.220   3.898   4.880  0.5224 -0.9021 -0.4022
  736MOL0     C99256  13.348   3.915   4.899 -0.0720  0.1350 -0.2656
  736MOL0     C99257  13.410   3.928   5.021 -0.1859  0.1905  0.2030
  736MOL0     C99258  13.543   3.956   5.040  0.5905 -0.8971  0.7983
  736MOL0     C99259  13.623   3.982   4.930  0.3458 -0.4230 -0.6259
  736MOL0     O99260  13.750   4.024   4.937  0.2212  0.0131  0.6387
  736MOL0     C99261  13.810   4.038   5.060  0.4653  0.1835 -0.5933
  736MOL0     C99262  13.954   4.087   5.045  0.0962  0.5270 -0.0111
  736MOL0     C99263  14.053   3.989   4.973 -0.4722 -0.6486 -0.1843
  736MOL0     C99264  14.198   4.033   5.004 -0.7824 -0.6319 -0.4251
  736MOL0     C99265  14.301   3.946   4.932 -0.2519  0.2815 -0.9727
  736MOL0     C99266  14.438   3.959   5.003  0.4982  0.2541 -0.2260
  736MOL0     C99267  14.543   3.854   4.957  0.0991 -0.4534 -0.1309
  736MOL0     C99268  14.652   3.843   5.057 -0.2529 -1.3073  0.2334
  736MOL0    Cl99269  14.757   3.716   5.008 -0.4143 -0.2543 -0.2823
  736MOL0     C99270  13.568   3.966   4.804  0.4755  0.1416 -0.1842
  736MOL0     C99271  13.432   3.930   4.789  0.2942 -1.7285  0.3648
  736MOL0     O99272  13.241   3.670   4.944 -0.1102  0.3412  0.0329
  736MOL0     C99273  12.948   3.825   4.802 -0.0963  0.1278  0.1819
  736MOL0     C99274  12.811   3.800   4.775 -0.0056 -0.1547 -0.2109
  736MOL0     N99275  12.100   3.892   4.462 -0.4155 -0.4072  0.1813
  736MOL0     N99276  11.981   3.934   4.439  0.3753 -0.4580 -0.2074
  736MOL0     C99277  10.715   3.570   4.472 -0.1380  0.6470 -0.6361
  736MOL0     C99278  10.605   3.488   4.449  0.0324  0.2426 -0.5036
  736MOL0     C99279  10.299   3.221   4.301  0.0959  0.0123  0.5182
  736MOL0     C99280  10.312   3.088   4.245  1.0085 -0.2957  0.1985
  736MOL0     C99281  10.211   2.992   4.250 -0.1690 -0.0482  0.3091
  736MOL0     C99282  10.082   3.034   4.294 -0.3482 -0.2237 -0.3485
  736MOL0     O99283   9.977   2.946   4.300 -0.3534 -0.4023  0.0450
  736MOL0     C99284   9.997   2.814   4.248  0.1516  0.6742  0.2730
  736MOL0     C99285   9.859   2.750   4.252  0.5753 -0.4051 -1.0939
  736MOL0     C99286   9.877   2.594   4.241 -0.7158  0.1596 -0.6946
  736MOL0     C99287   9.762   2.519   4.200  0.0262 -0.2677  0.1557
  736MOL0     C99288   9.651   2.536   4.299 -0.1253 -0.1928  0.7160
  736MOL0     C99289   9.554   2.545   4.369  0.3368  0.2707 -0.6416
  736MOL0     C99290  10.071   3.159   4.360 -0.2141 -0.4352  1.0030
  736MOL0     C99291  10.177   3.254   4.359  0.0212  0.1980 -0.5669
  736MOL0     C99292  10.129   3.391   4.409  0.3572  0.2140 -1.0653
  736MOL0     H99293  10.455   3.643   4.183  1.2814 -0.1420 -1.2823
  736MOL0     H99294  10.654   3.807   4.231 -0.1243 -0.3221 -1.0573
  736MOL0     H99295  10.923   3.690   4.561 -2.4265 -1.1971 -0.6115
  736MOL0     H99296  10.990   3.607   4.412  0.0006  1.7209 -0.3310
  736MOL0     H99297  11.035   3.896   4.482  0.5952 -0.3841  2.5417
  736MOL0     H99298  11.102   3.794   4.342  2.0235  1.6739  1.0222
  736MOL0     H99299  11.231   3.667   4.514  0.5383  0.6885 -0.9516
  736MOL0     H99300  11.164   3.761   4.638  0.1524 -2.0371  0.3269
  736MOL0     H99301  11.343   3.863   4.403  0.7104  0.4374 -0.5146
  736MOL0     H99302  11.263   3.978   4.527 -0.5933 -1.0186  1.2719
  736MOL0     H99303  11.385   3.883   4.695  0.9026  1.3704 -0.4231
  736MOL0     H99304  11.460   3.763   4.600  3.3216  0.7747  0.5780
  736MOL0     H99305  11.552   3.961   4.446  1.6225  2.4326 -0.3061
  736MOL0     H99306  11.508   4.066   4.573  4.0111  0.6729  0.5287
  736MOL0     H99307  11.695   3.823   4.624  1.9375  0.1706  0.6651
  736MOL0     H99308  11.669   3.961   4.730  1.4946  1.6662 -0.2018
  736MOL0     H99309  11.757   4.050   4.462  3.3658 -0.1705 -0.7699
  736MOL0     H99310  11.801   4.098   4.630  0.3429 -0.1581  0.2179
  736MOL0     H99311  11.970   3.906   4.760  1.8392  0.2522  0.8984
  736MOL0     H99312  12.329   3.894   4.606 -0.1784  1.4837 -0.3726
  736MOL0     H99313  12.252   3.878   4.762  2.3218 -2.2834  0.8890
  736MOL0     H99314  12.192   3.640   4.686 -0.8217  0.4635 -0.1898
  736MOL0     H99315  12.308   3.661   4.557  2.7418 -1.4839 -0.5622
  736MOL0     H99316  12.390   3.545   4.762 -0.9541  0.1170 -0.7154
  736MOL0     H99317  12.392   3.696   4.856 -0.8483 -1.8480  1.1048
  736MOL0     H99318  12.543   3.806   4.721 -1.5257 -0.2847  2.5466
  736MOL0     H99319  12.545   3.683   4.593  0.4820  0.1689  0.0497
  736MOL0     H99320  12.808   3.463   4.867  1.4264  0.1110 -0.8106
  736MOL0     H99321  13.040   3.533   4.946  0.7220  2.1636  0.1758
  736MOL0     H99322  13.350   3.909   5.109 -0.9761 -0.3347 -0.4341
  736MOL0     H99323  13.582   3.960   5.141 -1.6543  1.2283  1.6834
  736MOL0     H99324  13.770   4.124   5.115 -0.9967 -3.1809  4.2638
  736MOL0     H99325  13.798   3.952   5.127 -0.7104  1.1542  0.5073
  736MOL0     H99326  13.949   4.177   4.982 -0.9982 -0.7025 -1.7462
  736MOL0     H99327  13.978   4.121   5.147 -2.4254  1.7798  0.2510
  736MOL0     H99328  14.032   3.889   5.014 -1.4966 -0.9005 -1.2637
  736MOL0     H99329  14.030   3.990   4.866 -0.2110 -0.0986 -0.2371
  736MOL0     H99330  14.213   4.025   5.113  2.1401  0.0369 -0.6818
  736MOL0     H99331  14.223   4.138   4.989  0.2050 -0.7251  0.4381
  736MOL0     H99332  14.319   3.970   4.827  1.8194  0.4055 -0.6303
  736MOL0     H99333  14.265   3.844   4.948 -1.1340  0.6234 -0.7559
  736MOL0     H99334  14.470   4.064   4.995  0.7943  0.5387  3.1662
  736MOL0     H99335  14.420   3.938   5.109  2.6271  1.0413  0.3410
  736MOL0     H99336  14.580   3.885   4.858 -1.3678  0.0799 -0.5455
  736MOL0     H99337  14.497   3.757   4.934 -3.3950  0.6027  1.7362
  736MOL0     H99338  14.703   3.939   5.074 -2.3568 -0.1078  0.0938
  736MOL0     H99339  14.604   3.803   5.147 -1.3523 -0.6444 -0.0398
  736MOL0     H99340  13.621   3.969   4.710  0.4494 -0.6353 -0.2300
  736MOL0     H99341  13.391   3.921   4.689 -2.9898  1.0567  1.2737
  736MOL0     H99342  12.979   3.924   4.770 -1.9445  1.1033  1.2318
  736MOL0     H99343  12.748   3.882   4.742 -1.1402 -0.5836  0.8053
  736MOL0     H99344  10.771   3.547   4.562 -1.3882  0.0743  0.0290
  736MOL0     H99345  10.580   3.414   4.523  2.3884  1.2696  1.4549
  736MOL0     H99346  10.409   3.058   4.205  0.4187  1.8330 -3.2195
  736MOL0     H99347  10.225   2.893   4.207 -2.9661 -0.6782  0.6553
  736MOL0     H99348  10.071   2.758   4.306 -1.6773 -1.0572  1.0737
  736MOL0     H99349  10.016   2.818   4.141  0.4981 -3.3432  0.0271
  736MOL0     H99350   9.810   2.767   4.156  1.4797 -1.8918 -1.8548
  736MOL0     H99351   9.802   2.789   4.337  2.8738 -0.6107  0.6413
  736MOL0     H99352   9.918   2.553   4.334 -0.9766 -3.4894 -2.0172
  736MOL0     H99353   9.951   2.575   4.163 -1.0577  1.6131 -1.4094
  736MOL0     H99354   9.738   2.555   4.100  0.3915  0.3420  0.2800
  736MOL0     H99355   9.789   2.413   4.200 -0.0640 -0.3122  1.7087
  736MOL0     H99356   9.474   2.530   4.438  1.8703 -1.0555  0.9439
  736MOL0     H99357   9.977   3.193   4.401  0.0143  1.0071  0.3635
  736MOL0     H99358  10.182   3.427   4.497 -1.5402  0.1208  0.1601
  736MOL0     H99359  10.145   3.461   4.326  1.7934 -0.5901 -1.5035
  736MOL0     H99360  10.024   3.389   4.438  0.9497 -0.4163  1.2712
  737MOL0     O99361   2.658   6.579   6.040 -0.6756 -0.3501 -0.0163
  737MOL0     C99362   2.564   6.645   6.076  0.2845  0.3866 -0.2279
  737MOL0     O99363   2.569   6.729   6.181  0.5703 -0.1871  0.0422
  737MOL0     C99364   2.685   6.781   6.233  0.4832  0.9136 -0.6488
  737MOL0     C99365   2.699   6.791   6.370  0.0828  1.1844  0.0238
  737MOL0     C99366   2.815   6.829   6.435  0.0459 -0.6681  0.4513
  737MOL0     C99367   2.927   6.858   6.354  0.6731  0.3345 -0.5757
  737MOL0     O99368   3.046   6.907   6.405  0.0783 -0.1862  0.3107
  737MOL0     C99369   3.076   6.892   6.540 -0.7850 -0.1932 -0.1805
  737MOL0     C99370   3.221   6.928   6.554 -1.1748  0.0831  0.3365
  737MOL0     C99371   3.270   6.905   6.705 -0.3362 -0.7328  0.2542
  737MOL0     C99372   3.425   6.915   6.728 -0.0811 -0.5331 -0.2864
  737MOL0     C99373   3.475   7.061   6.748  0.2082 -0.1039  1.3066
  737MOL0     C99374   3.428   7.110   6.886  0.0158 -0.1873 -0.0346
  737MOL0     C99375   3.469   7.259   6.905  0.0144  0.5751 -0.3164
  737MOL0     C99376   3.477   7.293   7.055  0.9930 -1.0396 -0.6551
  737MOL0     N99377   3.531   7.428   7.071  0.3121  0.1598 -0.0561
  737MOL0     C99378   3.465   7.546   7.032  0.1892  0.1486 -0.6077
  737MOL0     C99379   3.543   7.643   7.087  0.1210  0.9803  0.3410
  737MOL0     C99380   3.506   7.793   7.087  0.3223 -0.4998  0.2080
  737MOL0     C99381   3.634   7.873   7.058  0.6164  0.3424  0.1576
  737MOL0     C99382   3.629   7.916   6.907 -0.5165 -0.0877  0.5240
  737MOL0     C99383   3.617   7.800   6.810 -0.4034  0.2472 -0.0552
  737MOL0     O99384   3.656   7.839   6.679 -0.2850 -0.4183  0.5607
  737MOL0     C99385   3.791   7.853   6.647 -0.0114 -0.1850 -0.0553
  737MOL0     C99386   3.821   7.903   6.521  0.1781 -0.6509 -0.0223
  737MOL0     C99387   3.957   7.943   6.483 -0.5519  0.4145 -0.0558
  737MOL0     C99388   4.058   7.910   6.566  0.0692 -0.4060 -1.1369
  737MOL0     C99389   4.211   7.932   6.534  0.2896 -0.4446 -0.1121
  737MOL0     O99390   4.301   7.935   6.638 -0.0037  0.8599  0.4707
  737MOL0     C99391   4.431   7.948   6.594  0.0702 -0.1503  0.5165
  737MOL0     C99392   4.512   7.838   6.576  0.1243 -0.2254 -0.4431
  737MOL0     C99393   4.640   7.850   6.536 -0.5194 -0.8417 -0.1211
  737MOL0     C99394   4.702   7.976   6.535 -0.0981 -0.3784  0.5859
  737MOL0     O99395   4.833   8.002   6.508 -0.1729  0.4592 -0.1179
  737MOL0     C99396   4.899   7.901   6.426 -0.1765 -0.0974  0.5082
  737MOL0     C99397   5.026   7.957   6.354  0.8019 -0.0684 -0.1703
  737MOL0     C99398   5.147   7.979   6.458  0.1761 -0.8049  0.1989
  737MOL0     C99399   5.276   8.020   6.371  0.1666  0.1230  0.4526
  737MOL0     C99400   5.356   7.891   6.342  0.2576  0.8967  0.5112
  737MOL0     C99401   5.478   7.914   6.258  0.4624 -0.1842 -0.3908
  737MOL0     C99402   5.582   7.793   6.252  0.0251 -0.0292  0.1898
  737MOL0     C99403   5.703   7.843   6.174 -0.6112  0.0655 -0.2361
  737MOL0    Cl99404   5.799   7.960   6.273  0.2897 -0.3434  0.5019
  737MOL0     C99405   4.624   8.085   6.564 -0.7534  0.4426  0.6732
  737MOL0     C99406   4.491   8.074   6.590  0.9006 -0.5293  0.2068
  737MOL0     O99407   4.237   7.924   6.411 -0.0029 -0.4779  0.3457
  737MOL0     C99408   4.034   7.853   6.693  0.5409  0.0993  0.6242
  737MOL0     C99409   3.901   7.832   6.735 -0.2169 -0.7749 -1.0554
  737MOL0     N99410   3.654   7.590   7.152 -0.0718 -0.0963  0.8195
  737MOL0     N99411   3.646   7.464   7.141  0.3348  0.3360  0.4045
  737MOL0     C99412   2.920   6.849   6.215  0.0351 -0.6984  0.5375
  737MOL0     C99413   2.801   6.813   6.159  0.2484  0.2430  0.8799
  737MOL0     C99414   2.433   6.614   6.022 -0.1532  0.2092 -0.3827
  737MOL0     C99415   2.323   6.614   6.112  0.0027 -0.1993  0.4233
  737MOL0     C99416   2.195   6.593   6.071  0.6078 -1.0890  0.3308
  737MOL0     C99417   2.160   6.572   5.940 -1.3773  0.0951  0.2227
  737MOL0     O99418   2.039   6.536   5.877 -0.8133  0.5681 -0.1006
  737MOL0     C99419   1.938   6.474   5.962  0.4758  0.3248  0.8248
  737MOL0     C99420   1.797   6.469   5.894 -0.0838 -1.0253 -0.3022
  737MOL0     C99421   1.734   6.610   5.855 -0.6064  0.1114  0.3599
  737MOL0     C99422   1.593   6.596   5.796  0.1015  0.9948  0.4852
  737MOL0     C99423   1.486   6.586   5.894 -0.0102  0.2916 -0.6644
  737MOL0     C99424   1.402   6.577   5.981  0.3064  0.3485 -0.0019
  737MOL0     C99425   2.259   6.586   5.847 -0.0054  0.5588  0.0184
  737MOL0     C99426   2.397   6.611   5.884  0.6357  0.3038  0.2948
  737MOL0     C99427   2.507   6.637   5.781  0.4001  0.1745 -0.0174
  737MOL0     H99428   2.618   6.762   6.436  1.3285  1.9376  1.9848
  737MOL0     H99429   2.805   6.829   6.543 -3.5437  0.8057  0.2402
  737MOL0     H99430   3.017   6.951   6.611 -0.0892  1.1137 -0.6472
  737MOL0     H99431   3.061   6.791   6.580 -0.2337  0.9019  3.1246
  737MOL0     H99432   3.232   7.035   6.533 -1.0492 -0.2661 -1.4730
  737MOL0     H99433   3.274   6.871   6.478  0.6563  1.0940  0.7719
  737MOL0     H99434   3.250   6.800   6.728  3.2394 -1.8720 -1.0196
  737MOL0     H99435   3.219   6.966   6.779 -0.9008 -0.8398 -0.0382
  737MOL0     H99436   3.461   6.845   6.804  0.7206 -1.4964 -1.5158
  737MOL0     H99437   3.476   6.883   6.637  1.4082 -1.5310  0.8430
  737MOL0     H99438   3.584   7.067   6.739  0.1797  0.9050  1.5538
  737MOL0     H99439   3.434   7.117   6.663 -1.6144 -1.9161  0.9174
  737MOL0     H99440   3.318   7.106   6.891 -0.3909  0.8722 -4.2826
  737MOL0     H99441   3.480   7.040   6.952  0.8250  0.3210 -0.1226
  737MOL0     H99442   3.401   7.323   6.849 -1.8509  1.0125  2.2602
  737MOL0     H99443   3.572   7.266   6.869 -0.5400  1.3200 -1.8240
  737MOL0     H99444   3.381   7.306   7.106  2.1234 -1.8997  1.8498
  737MOL0     H99445   3.535   7.216   7.105 -1.6965 -1.7692  1.6305
  737MOL0     H99446   3.372   7.539   6.976 -0.9942 -3.8992  1.4217
  737MOL0     H99447   3.441   7.819   7.003  0.4130 -2.3976 -0.4925
  737MOL0     H99448   3.463   7.818   7.185  2.7077 -1.7909  1.6825
  737MOL0     H99449   3.639   7.963   7.120 -0.2600  0.6452 -0.2051
  737MOL0     H99450   3.727   7.817   7.073  1.3745  1.2116 -1.0728
  737MOL0     H99451   3.727   7.963   6.897 -0.9783  1.3616  2.2912
  737MOL0     H99452   3.549   7.989   6.896 -0.1339  0.2459 -0.0786
  737MOL0     H99453   3.518   7.753   6.806  0.3751 -1.3742 -1.6415
  737MOL0     H99454   3.682   7.719   6.844 -0.7631  0.9233  2.5128
  737MOL0     H99455   3.746   7.933   6.448 -0.5749  2.4682  1.8261
  737MOL0     H99456   3.985   7.993   6.390  0.7637  0.1980  0.1988
  737MOL0     H99457   4.475   7.738   6.595  0.2238  0.1733  2.3353
  737MOL0     H99458   4.684   7.754   6.513 -1.9862 -1.3619 -0.9392
  737MOL0     H99459   4.925   7.810   6.480 -1.0431 -1.0521 -0.6352
  737MOL0     H99460   4.833   7.868   6.345  0.4724 -1.9879  0.7038
  737MOL0     H99461   5.051   7.883   6.277  0.9169  0.0979 -0.2948
  737MOL0     H99462   5.013   8.045   6.290  3.9468 -0.3578 -1.4130
  737MOL0     H99463   5.125   8.068   6.519 -3.0669 -0.4232 -1.3186
  737MOL0     H99464   5.160   7.894   6.526  1.1342 -0.4315  0.5067
  737MOL0     H99465   5.346   8.095   6.410  2.3766 -0.4069 -2.2071
  737MOL0     H99466   5.241   8.063   6.276  1.4595  0.7371  0.2311
  737MOL0     H99467   5.290   7.824   6.286  0.7036 -0.5872  1.6956
  737MOL0     H99468   5.376   7.834   6.433 -2.3473 -1.6501 -0.3653
  737MOL0     H99469   5.449   7.925   6.153 -1.0865 -0.0561  0.0236
  737MOL0     H99470   5.521   8.010   6.288  0.6757  0.3271 -2.2441
  737MOL0     H99471   5.539   7.713   6.192  0.4042  0.3576 -0.6118
  737MOL0     H99472   5.603   7.749   6.350  0.4446 -0.8317 -0.2535
  737MOL0     H99473   5.762   7.752   6.160  1.8696  1.0912  2.4463
  737MOL0     H99474   5.686   7.890   6.077  0.6253  0.6265 -0.1963
  737MOL0     H99475   4.669   8.184   6.567  2.8990 -1.0212 -0.2954
  737MOL0     H99476   4.441   8.167   6.614  1.7493 -0.4316  1.7666
  737MOL0     H99477   4.109   7.822   6.764 -0.2363 -1.0604  0.9812
  737MOL0     H99478   3.879   7.797   6.835  0.3887 -2.7619 -1.5609
  737MOL0     H99479   3.001   6.854   6.143 -2.5414 -0.7902 -2.6021
  737MOL0     H99480   2.804   6.806   6.051  0.1338  0.5877  0.8549
  737MOL0     H99481   2.351   6.631   6.215  1.9303 -1.1017  0.1067
  737MOL0     H99482   2.107   6.600   6.135  0.4480  0.1594 -0.0057
  737MOL0     H99483   1.938   6.538   6.051 -0.8910  1.6921 -0.1218
  737MOL0     H99484   1.955   6.371   5.994 -0.9155 -0.8143 -1.8472
  737MOL0     H99485   1.735   6.413   5.964 -0.3533 -1.9187 -1.2278
  737MOL0     H99486   1.801   6.406   5.804  0.0615 -1.4530  0.0030
  737MOL0     H99487   1.801   6.650   5.778  0.1978 -1.1000  0.4044
  737MOL0     H99488   1.737   6.681   5.939  1.4309  1.5802 -0.8438
  737MOL0     H99489   1.578   6.680   5.726 -0.7256  0.0214 -0.5417
  737MOL0     H99490   1.592   6.507   5.733 -1.5514  1.1738  0.2051
  737MOL0     H99491   1.334   6.573   6.064 -0.0343 -0.3808 -0.3085
  737MOL0     H99492   2.223   6.589   5.745 -0.4626  0.3007  0.1703
  737MOL0     H99493   2.442   6.663   5.697 -0.3678 -1.5452  0.0106
  737MOL0     H99494   2.576   6.716   5.812  2.5199 -1.6607  0.2047
  737MOL0     H99495   2.570   6.550   5.762 -1.4593 -1.6446  1.6934
  738MOL0     O99496   4.867   4.353   9.079  0.1255  0.2758  0.5636
  738MOL0     C99497   4.796   4.415   9.006  0.2128  0.4758 -0.4444
  738MOL0     O99498   4.835   4.488   8.896  0.6179 -0.2806 -0.1089
  738MOL0     C99499   4.964   4.525   8.888  0.3902  0.3131 -0.1498
  738MOL0     C99500   4.983   4.660   8.858 -0.6746  0.1227 -0.0272
  738MOL0     C99501   5.109   4.714   8.829 -0.3827  0.7031  1.5271
  738MOL0     C99502   5.227   4.628   8.814  0.5306 -0.8658 -0.7306
  738MOL0     O99503   5.341   4.685   8.776 -0.1733  0.1557 -0.5006
  738MOL0     C99504   5.452   4.600   8.750  0.1607  0.3118  0.4103
  738MOL0     C99505   5.563   4.699   8.704  0.2776  0.5203  0.0890
  738MOL0     C99506   5.697   4.613   8.677 -0.0661  0.0224  0.9380
  738MOL0     C99507   5.827   4.687   8.653  0.3309 -0.5997  0.3586
  738MOL0     C99508   5.947   4.582   8.657 -0.6702 -0.2641  0.9520
  738MOL0     C99509   5.943   4.458   8.569 -0.1831  0.4109  0.2440
  738MOL0     C99510   6.063   4.374   8.573 -0.3656  0.0178 -0.1137
  738MOL0     C99511   6.087   4.292   8.698  0.2479 -0.3574 -0.3207
  738MOL0     N99512   6.195   4.190   8.692  0.8186  0.4487 -0.2388
  738MOL0     C99513   6.274   4.153   8.583 -0.2804 -0.7850  0.6306
  738MOL0     C99514   6.358   4.059   8.632 -0.6439  0.2664  0.7636
  738MOL0     C99515   6.452   3.974   8.549 -0.7994  0.2504 -0.6513
  738MOL0     C99516   6.568   4.070   8.504 -0.2054  0.4471 -0.7955
  738MOL0     C99517   6.684   4.007   8.446 -0.1134  0.4994  0.4604
  738MOL0     C99518   6.657   3.906   8.330 -0.4536  0.6421  0.0546
  738MOL0     O99519   6.784   3.856   8.271  0.0308 -0.5240 -0.1499
  738MOL0     C99520   6.870   3.771   8.341 -0.3590  0.9118  0.1031
  738MOL0     C99521   6.993   3.751   8.286  0.6629 -0.3762 -0.4416
  738MOL0     C99522   7.089   3.659   8.341 -0.5643 -0.3734 -0.7988
  738MOL0     C99523   7.054   3.583   8.453  0.6435  0.5742 -0.2979
  738MOL0     C99524   7.159   3.499   8.510  0.3016  0.3895 -0.5483
  738MOL0     O99525   7.252   3.450   8.413  0.2670  0.0100 -1.1760
  738MOL0     C99526   7.373   3.397   8.453 -0.0418  0.5333 -0.2036
  738MOL0     C99527   7.452   3.331   8.361 -0.6473  0.3735  0.8428
  738MOL0     C99528   7.581   3.284   8.392  0.4516  0.0493 -0.6514
  738MOL0     C99529   7.630   3.289   8.526  0.2858 -0.0948  0.9932
  738MOL0     O99530   7.746   3.227   8.558  0.5843  0.1874 -0.1944
  738MOL0     C99531   7.780   3.190   8.695 -0.4231  0.1041  0.0499
  738MOL0     C99532   7.911   3.103   8.704  0.0907  0.3400  0.3707
  738MOL0     C99533   8.019   3.154   8.616 -0.4295 -0.2242  1.2200
  738MOL0     C99534   8.153   3.082   8.648  0.4895  0.3079  0.8227
  738MOL0     C99535   8.135   2.939   8.589 -0.3501  0.4546 -0.4317
  738MOL0     C99536   8.266   2.855   8.583  0.1208 -0.2114  0.0918
  738MOL0     C99537   8.317   2.820   8.720  0.4042 -0.1881  0.0268
  738MOL0     C99538   8.455   2.759   8.710  0.1608 -0.8026 -0.1385
  738MOL0    Cl99539   8.505   2.726   8.883  0.1025  0.0290  0.0522
  738MOL0     C99540   7.542   3.355   8.622 -1.2255  0.4724  1.0397
  738MOL0     C99541   7.421   3.410   8.582  0.4887  0.1678  0.4838
  738MOL0     O99542   7.141   3.471   8.631 -0.1325 -0.3681 -0.2926
  738MOL0     C99543   6.934   3.612   8.519 -0.3307  0.5092  0.3318
  738MOL0     C99544   6.843   3.709   8.465 -0.5218 -0.5776  0.8932
  738MOL0     N99545   6.318   4.028   8.758 -0.3052  0.2346 -0.7781
  738MOL0     N99546   6.216   4.096   8.795  0.2350 -0.1305  0.0238
  738MOL0     C99547   5.200   4.492   8.845 -0.8190 -0.4421 -0.0875
  738MOL0     C99548   5.075   4.440   8.884 -0.2463 -0.2540  0.0948
  738MOL0     C99549   4.643   4.403   9.012 -0.7518  0.1517 -0.5439
  738MOL0     C99550   4.560   4.474   8.923 -0.0718  0.2530 -0.0172
  738MOL0     C99551   4.425   4.449   8.915  1.1155  0.0320  0.2800
  738MOL0     C99552   4.358   4.379   9.005  0.6393 -0.2437 -0.6834
  738MOL0     O99553   4.219   4.354   9.005  0.1844 -0.7309  0.4266
  738MOL0     C99554   4.131   4.434   8.927 -0.1088 -0.5702  0.4350
  738MOL0     C99555   3.989   4.410   8.962 -0.2435  0.2428  0.5926
  738MOL0     C99556   3.904   4.501   8.873 -0.0396 -0.3004  0.7244
  738MOL0     C99557   3.756   4.469   8.875  0.5651  0.3591  0.2269
  738MOL0     C99558   3.696   4.504   9.003  0.1453  0.4644 -0.2774
  738MOL0     C99559   3.628   4.531   9.100 -0.4543 -0.4931 -0.0236
  738MOL0     C99560   4.440   4.313   9.101  0.1847  0.0225  0.0153
  738MOL0     C99561   4.573   4.323   9.110 -0.8092 -0.9143 -0.0427
  738MOL0     C99562   4.648   4.241   9.214 -0.3227 -0.7999  0.3282
  738MOL0     H99563   4.888   4.709   8.879 -2.3320 -2.5454 -0.7516
  738MOL0     H99564   5.109   4.821   8.810 -1.0028  0.8867  2.4808
  738MOL0     H99565   5.484   4.540   8.835 -0.7001  0.2921  0.7262
  738MOL0     H99566   5.428   4.537   8.663  1.6465  1.9125 -1.2629
  738MOL0     H99567   5.578   4.764   8.791 -2.3279 -0.2177  1.1741
  738MOL0     H99568   5.533   4.760   8.619  1.0356  1.1181  0.2367
  738MOL0     H99569   5.682   4.563   8.581  2.8056 -2.6860  1.7368
  738MOL0     H99570   5.705   4.540   8.758  0.4539  0.9811  1.7774
  738MOL0     H99571   5.830   4.736   8.555  2.0606  1.3272  1.2837
  738MOL0     H99572   5.848   4.770   8.721  0.0362 -0.0040 -0.2642
  738MOL0     H99573   6.036   4.638   8.628 -1.4802 -0.2833 -1.9883
  738MOL0     H99574   5.964   4.542   8.757  1.1441 -1.7850  0.0821
  738MOL0     H99575   5.854   4.401   8.597 -0.1741  0.0689 -0.3920
  738MOL0     H99576   5.922   4.490   8.466 -1.3337  1.2081  0.7158
  738MOL0     H99577   6.151   4.439   8.573 -0.7063  0.5007 -1.1199
  738MOL0     H99578   6.058   4.313   8.482 -2.3147 -1.0033  0.6254
  738MOL0     H99579   6.094   4.362   8.782 -1.3681  0.1639 -0.5840
  738MOL0     H99580   5.992   4.239   8.708  1.2529 -1.9401  1.1391
  738MOL0     H99581   6.255   4.187   8.482 -1.2058 -1.9081  0.4066
  738MOL0     H99582   6.479   3.895   8.619 -3.7246  1.0135  1.5428
  738MOL0     H99583   6.418   3.933   8.454 -0.2761  0.8581 -1.1085
  738MOL0     H99584   6.532   4.149   8.438 -0.6364  1.9386  1.1134
  738MOL0     H99585   6.602   4.128   8.590 -2.5729 -1.0625  1.3178
  738MOL0     H99586   6.744   3.957   8.523  0.5557  0.5406 -0.0161
  738MOL0     H99587   6.753   4.077   8.398 -2.2674  1.0222 -2.1043
  738MOL0     H99588   6.585   3.938   8.254  0.5674 -0.9863 -1.6605
  738MOL0     H99589   6.608   3.815   8.367  2.6957 -1.1205  0.2437
  738MOL0     H99590   7.014   3.805   8.194 -2.5032  0.7555 -0.6156
  738MOL0     H99591   7.193   3.661   8.310  0.4373 -0.1156  2.2353
  738MOL0     H99592   7.421   3.317   8.258  1.4907 -2.4947  0.4933
  738MOL0     H99593   7.633   3.223   8.319 -1.2992 -3.3994  0.7339
  738MOL0     H99594   7.786   3.280   8.757 -1.6506  0.4999 -0.3854
  738MOL0     H99595   7.694   3.140   8.741 -1.8285  0.9512 -1.5570
  738MOL0     H99596   7.940   3.082   8.808 -1.6440 -1.5033  0.5520
  738MOL0     H99597   7.879   3.004   8.670 -4.0040  1.0049  1.6864
  738MOL0     H99598   7.982   3.137   8.514 -2.2206 -0.0009  1.7972
  738MOL0     H99599   8.023   3.263   8.626  0.9177 -0.1441  0.0891
  738MOL0     H99600   8.170   3.083   8.756 -2.5890  1.9031  1.4241
  738MOL0     H99601   8.234   3.131   8.595 -1.8215 -0.7517 -4.3053
  738MOL0     H99602   8.104   2.946   8.485 -0.9622  0.8669 -0.2249
  738MOL0     H99603   8.059   2.881   8.643  1.5101 -2.6425 -0.8922
  738MOL0     H99604   8.257   2.763   8.524  0.9326 -0.7270  0.7536
  738MOL0     H99605   8.338   2.915   8.527  2.5469 -2.7959  0.2271
  738MOL0     H99606   8.249   2.747   8.764 -1.2604  0.3978 -1.4310
  738MOL0     H99607   8.314   2.900   8.794  0.2169 -1.9424  2.0043
  738MOL0     H99608   8.466   2.667   8.652  0.2410  0.1549 -1.6949
  738MOL0     H99609   8.527   2.825   8.660 -1.5718  2.2008  1.0242
  738MOL0     H99610   7.567   3.363   8.727  1.0108 -1.5752  0.7359
  738MOL0     H99611   7.374   3.476   8.655 -1.2188 -1.2106  0.6746
  738MOL0     H99612   6.918   3.563   8.614  0.5796 -1.3187 -0.4057
  738MOL0     H99613   6.749   3.728   8.516 -1.2046 -2.3546  0.3800
  738MOL0     H99614   5.276   4.414   8.844  1.1108  1.3355 -1.8545
  738MOL0     H99615   5.068   4.332   8.881 -0.1440 -0.2598 -2.0434
  738MOL0     H99616   4.612   4.541   8.855 -1.5668  1.3532 -0.1183
  738MOL0     H99617   4.367   4.490   8.832  2.0475 -1.7161 -1.3067
  738MOL0     H99618   4.147   4.403   8.824 -1.0876  0.4293 -0.0388
  738MOL0     H99619   4.168   4.537   8.929  1.5065 -1.1090  0.0176
  738MOL0     H99620   3.974   4.417   9.070 -0.0606 -0.3532  0.6644
  738MOL0     H99621   3.970   4.308   8.926 -1.9770  1.1597 -1.3450
  738MOL0     H99622   3.940   4.502   8.770 -1.5204 -0.4778  0.1778
  738MOL0     H99623   3.922   4.602   8.911  0.0847  0.4386 -1.1931
  738MOL0     H99624   3.707   4.525   8.795 -1.3394 -0.0932  1.0322
  738MOL0     H99625   3.743   4.362   8.858  1.6084 -0.0704  1.9665
  738MOL0     H99626   3.588   4.556   9.196  0.1936  2.4752 -0.4135
  738MOL0     H99627   4.380   4.254   9.170 -0.6354  0.2746 -0.4684
  738MOL0     H99628   4.715   4.301   9.275 -1.0510  1.2269 -0.7645
  738MOL0     H99629   4.583   4.209   9.296  1.0644 -1.6458  1.1369
  738MOL0     H99630   4.698   4.155   9.167 -2.0906 -0.0777 -3.2532
  739MOL0     O99631   1.409   2.971   7.328  0.0110 -1.5399  0.2971
  739MOL0     C99632   1.379   2.858   7.341 -0.2503  0.5556 -0.2418
  739MOL0     O99633   1.444   2.769   7.427 -0.0865 -0.3568 -0.4501
  739MOL0     C99634   1.546   2.830   7.499  0.0612 -0.6438  0.3292
  739MOL0     C99635   1.679   2.813   7.454  0.0261  0.5554 -0.1817
  739MOL0     C99636   1.785   2.859   7.531 -0.1092  0.3041 -0.2793
  739MOL0     C99637   1.755   2.926   7.654 -0.4435  0.1400 -0.0841
  739MOL0     O99638   1.846   2.948   7.753 -0.1885  0.2072  0.4051
  739MOL0     C99639   1.942   3.040   7.711  0.5914  0.0466  0.3782
  739MOL0     C99640   1.894   3.182   7.717 -0.1740  0.3843  0.5784
  739MOL0     C99641   1.882   3.233   7.858 -0.8350  0.7588  0.2438
  739MOL0     C99642   1.804   3.360   7.866  0.3507 -0.0620  0.0939
  739MOL0     C99643   1.794   3.419   8.012 -0.8179 -0.0406  0.2753
  739MOL0     C99644   1.923   3.449   8.091 -0.0264 -0.1157  0.7800
  739MOL0     C99645   1.898   3.501   8.228 -0.0435 -0.4270  0.2059
  739MOL0     C99646   1.866   3.647   8.231  0.0889 -0.4325 -0.1019
  739MOL0     N99647   1.985   3.734   8.207 -0.2036 -0.6395 -0.1847
  739MOL0     C99648   2.100   3.742   8.280 -0.3499  0.1708 -0.4249
  739MOL0     C99649   2.169   3.843   8.215  0.7428  1.2694  0.9231
  739MOL0     C99650   2.300   3.887   8.259  1.0396 -0.1441 -0.2680
  739MOL0     C99651   2.399   3.879   8.148  0.2298  0.8502 -0.3649
  739MOL0     C99652   2.423   3.736   8.086  0.2380 -0.1856  0.2539
  739MOL0     C99653   2.545   3.668   8.133  0.0363 -0.8645  0.0136
  739MOL0     O99654   2.540   3.614   8.265 -0.1418 -0.0615  0.2899
  739MOL0     C99655   2.641   3.535   8.303 -0.1434  0.0419 -0.5193
  739MOL0     C99656   2.777   3.563   8.297 -0.6295 -0.3536  0.3133
  739MOL0     C99657   2.874   3.484   8.356 -0.0211 -0.6416 -0.2608
  739MOL0     C99658   2.845   3.369   8.426 -0.6995  0.2583 -1.3860
  739MOL0     C99659   2.949   3.300   8.504 -0.7930 -0.2355 -0.1258
  739MOL0     O99660   3.066   3.357   8.516 -0.5018  0.2963 -0.3810
  739MOL0     C99661   3.157   3.297   8.605  0.2251  0.6500 -0.3746
  739MOL0     C99662   3.189   3.353   8.728 -0.3183  0.4442  0.5198
  739MOL0     C99663   3.281   3.293   8.814 -0.7203  0.2945 -0.1493
  739MOL0     C99664   3.338   3.168   8.789 -0.0928 -0.1583 -0.3635
  739MOL0     O99665   3.424   3.130   8.887 -0.6998  0.1181  1.0563
  739MOL0     C99666   3.505   3.018   8.880  0.8403 -0.0204 -0.0310
  739MOL0     C99667   3.568   2.993   9.016  1.5284  0.5610  0.4649
  739MOL0     C99668   3.691   2.893   9.029  0.5929 -0.4229 -1.0599
  739MOL0     C99669   3.679   2.799   9.149 -0.7956 -1.0379 -0.0469
  739MOL0     C99670   3.671   2.874   9.291  0.3310  0.8506  0.3824
  739MOL0     C99671   3.665   2.759   9.388  0.3812  0.1181  0.8220
  739MOL0     C99672   3.704   2.810   9.528 -0.0799 -0.1112 -0.0104
  739MOL0     C99673   3.855   2.785   9.544  0.7695  0.8617 -0.8353
  739MOL0    Cl99674   3.915   2.824   9.714 -0.2136 -0.0689 -0.0900
  739MOL0     C99675   3.300   3.107   8.660 -0.4576  0.1490 -1.1548
  739MOL0     C99676   3.215   3.169   8.574 -0.1181 -0.9448  1.0747
  739MOL0     O99677   2.915   3.203   8.573  0.1021  0.0191 -0.1862
  739MOL0     C99678   2.712   3.333   8.438 -0.2534  0.1432  0.1085
  739MOL0     C99679   2.616   3.416   8.373  0.4944 -0.2093 -0.3754
  739MOL0     N99680   2.105   3.883   8.097  0.2374  0.1828 -0.2976
  739MOL0     N99681   1.989   3.820   8.094 -0.8791 -0.3522 -0.5147
  739MOL0     C99682   1.627   2.948   7.696  0.0863 -0.3262 -0.3570
  739MOL0     C99683   1.518   2.902   7.616 -1.1272  0.1887 -0.0456
  739MOL0     C99684   1.261   2.812   7.268  0.3198 -0.2978 -0.3640
  739MOL0     C99685   1.259   2.694   7.217  0.8206  0.4614  0.9183
  739MOL0     C99686   1.147   2.639   7.152  0.3898 -0.3484 -0.6368
  739MOL0     C99687   1.027   2.705   7.149 -0.7865 -0.0947 -0.1496
  739MOL0     O99688   0.923   2.638   7.100 -0.1158  0.5289  0.1094
  739MOL0     C99689   0.793   2.695   7.080 -0.1842  0.4422 -0.0099
  739MOL0     C99690   0.703   2.587   7.005  0.4366 -0.0418  0.2290
  739MOL0     C99691   0.567   2.636   6.960  0.3181  0.2483 -1.6703
  739MOL0     C99692   0.574   2.663   6.811 -0.5721 -0.4905  1.0143
  739MOL0     C99693   0.458   2.740   6.762 -0.7629  0.8470 -0.5143
  739MOL0     C99694   0.380   2.820   6.706  0.8085 -0.4563  1.3148
  739MOL0     C99695   1.019   2.836   7.203 -0.0280 -0.8049 -0.1547
  739MOL0     C99696   1.140   2.895   7.256  0.3656  0.4337  0.8215
  739MOL0     C99697   1.136   3.044   7.297  0.5897 -0.8787 -0.6229
  739MOL0     H99698   1.708   2.763   7.362 -0.0469  0.0413  0.0689
  739MOL0     H99699   1.886   2.862   7.492  1.7007 -1.4706  3.6968
  739MOL0     H99700   2.027   3.045   7.779  0.4003  2.4155  0.5290
  739MOL0     H99701   1.982   3.008   7.614  0.4298 -4.2459  1.5266
  739MOL0     H99702   1.794   3.188   7.672  0.9100  1.6501 -1.8295
  739MOL0     H99703   1.965   3.243   7.660  0.8386 -2.6891 -1.7275
  739MOL0     H99704   1.975   3.251   7.913 -0.7586  0.4340  0.2212
  739MOL0     H99705   1.825   3.159   7.914 -1.9606  1.5663  0.1978
  739MOL0     H99706   1.855   3.434   7.805 -1.2973 -0.2441 -1.5966
  739MOL0     H99707   1.702   3.348   7.828 -0.5825  0.4092  2.2807
  739MOL0     H99708   1.734   3.509   7.999  3.3343  2.9081 -0.5555
  739MOL0     H99709   1.739   3.345   8.071 -0.0031 -1.9112 -1.1868
  739MOL0     H99710   1.981   3.357   8.098  0.6252  0.0592 -1.6526
  739MOL0     H99711   1.976   3.522   8.030 -1.0126  0.6507  0.8031
  739MOL0     H99712   1.991   3.473   8.279  0.5047 -2.4200 -1.7087
  739MOL0     H99713   1.822   3.446   8.285  0.4154 -0.0065  1.2507
  739MOL0     H99714   1.790   3.672   8.156 -0.7667 -1.8660  0.2326
  739MOL0     H99715   1.828   3.671   8.330 -2.1793  1.6490 -1.3467
  739MOL0     H99716   2.131   3.681   8.364 -0.3264 -0.1392 -0.6554
  739MOL0     H99717   2.295   3.989   8.297 -1.1439 -1.2514  2.7904
  739MOL0     H99718   2.332   3.827   8.345  2.7917  1.6230  0.3923
  739MOL0     H99719   2.369   3.936   8.059 -0.5984  1.2957  0.1924
  739MOL0     H99720   2.498   3.921   8.168  0.6246  0.9978 -2.4051
  739MOL0     H99721   2.434   3.748   7.978 -0.6742  1.3242  0.2952
  739MOL0     H99722   2.336   3.672   8.109 -0.4639  0.8007  0.3935
  739MOL0     H99723   2.629   3.737   8.117 -0.6007 -0.7750 -3.7533
  739MOL0     H99724   2.564   3.579   8.072 -1.1869 -0.7439 -0.5680
  739MOL0     H99725   2.809   3.659   8.259  1.4466 -0.3847  1.8608
  739MOL0     H99726   2.977   3.518   8.350  0.7677 -2.8889 -0.6194
  739MOL0     H99727   3.151   3.452   8.752  0.4871  0.3205  2.5211
  739MOL0     H99728   3.319   3.349   8.899  5.5279 -2.6113 -0.4436
  739MOL0     H99729   3.450   2.941   8.825 -1.5206 -0.1806  2.3365
  739MOL0     H99730   3.586   3.047   8.812 -1.2306  0.5184 -2.4238
  739MOL0     H99731   3.601   3.089   9.058  0.9574  0.4604  1.1682
  739MOL0     H99732   3.479   2.959   9.070  2.2614 -2.1692  0.0654
  739MOL0     H99733   3.706   2.840   8.935  1.4914 -0.5064 -0.8798
  739MOL0     H99734   3.786   2.944   9.049  1.8324 -2.5519 -1.1380
  739MOL0     H99735   3.759   2.725   9.139  0.3174  0.0777  0.3821
  739MOL0     H99736   3.581   2.751   9.138 -2.0906  1.4240  0.0220
  739MOL0     H99737   3.594   2.950   9.303 -1.4767 -0.8270 -0.1557
  739MOL0     H99738   3.762   2.935   9.298  2.2294 -1.1759 -3.7150
  739MOL0     H99739   3.561   2.725   9.383  0.0123  1.2841 -3.0558
  739MOL0     H99740   3.716   2.663   9.370  0.6667  0.7575 -2.4283
  739MOL0     H99741   3.645   2.756   9.602  0.5821 -2.4846 -1.1063
  739MOL0     H99742   3.682   2.916   9.541  1.4597  0.0242  2.0017
  739MOL0     H99743   3.880   2.682   9.518 -1.4129  0.9703 -3.9316
  739MOL0     H99744   3.916   2.843   9.473  2.4120  1.9887  1.3570
  739MOL0     H99745   3.337   3.011   8.625  0.2109  0.1440 -0.4602
  739MOL0     H99746   3.184   3.120   8.482 -0.2009 -0.0352  0.6016
  739MOL0     H99747   2.694   3.242   8.494  1.3408  0.5255  1.3028
  739MOL0     H99748   2.513   3.382   8.371  0.3128  0.3586 -1.1771
  739MOL0     H99749   1.621   3.010   7.785 -1.2771 -0.5838 -0.2491
  739MOL0     H99750   1.416   2.927   7.642 -1.8132 -3.3948  1.1999
  739MOL0     H99751   1.350   2.635   7.213  0.7631  0.2313  2.6096
  739MOL0     H99752   1.130   2.539   7.113 -1.0253 -0.5176  0.3053
  739MOL0     H99753   0.795   2.789   7.024 -2.6447 -1.1314 -3.0125
  739MOL0     H99754   0.749   2.721   7.177  2.1664 -0.0743  1.2929
  739MOL0     H99755   0.685   2.496   7.063  1.8395 -1.6204 -1.6795
  739MOL0     H99756   0.753   2.548   6.915 -3.4926  0.0838 -2.2672
  739MOL0     H99757   0.532   2.726   7.013  1.0522  0.8430 -2.1693
  739MOL0     H99758   0.497   2.556   6.984  1.8159 -1.5692 -3.0921
  739MOL0     H99759   0.655   2.735   6.795  1.2305 -2.5115  0.5506
  739MOL0     H99760   0.595   2.582   6.741  1.7969  3.0996 -2.8834
  739MOL0     H99761   0.303   2.887   6.674  2.4830  0.6323 -0.6415
  739MOL0     H99762   0.932   2.900   7.207 -0.5768 -1.5644  0.4080
  739MOL0     H99763   1.160   3.065   7.402  2.2196  3.5804 -1.6707
  739MOL0     H99764   1.209   3.112   7.252  2.7098 -1.3665  1.8503
  739MOL0     H99765   1.036   3.089   7.296  1.2231  1.2832  4.1983
  740MOL0     O99766   3.544   5.555   8.648  0.9557  0.4159  0.5606
  740MOL0     C99767   3.465   5.516   8.738  0.6302  0.1865 -0.9859
  740MOL0     O99768   3.503   5.429   8.836 -0.0043 -0.2820 -0.4288
  740MOL0     C99769   3.636   5.389   8.857 -0.0593 -0.2073 -0.4691
  740MOL0     C99770   3.665   5.254   8.878 -0.5334  0.7568  0.2392
  740MOL0     C99771   3.806   5.215   8.899 -0.0163 -0.3068  0.2773
  740MOL0     C99772   3.912   5.313   8.903  0.0929  0.3982  0.3198
  740MOL0     O99773   4.043   5.272   8.927  0.3453  0.0529  0.2744
  740MOL0     C99774   4.143   5.371   8.929  0.1063 -0.4914  0.1131
  740MOL0     C99775   4.280   5.299   8.912  0.4618  0.1280  0.3728
  740MOL0     C99776   4.393   5.387   8.868  0.3104 -0.6626  1.0581
  740MOL0     C99777   4.513   5.300   8.841  0.0321 -0.0298  0.0502
  740MOL0     C99778   4.637   5.381   8.795  0.0877 -0.1390  0.6598
  740MOL0     C99779   4.761   5.297   8.781  0.7312  1.3386  0.2309
  740MOL0     C99780   4.868   5.386   8.714 -0.2246  1.2334 -0.5407
  740MOL0     C99781   5.000   5.306   8.722 -0.0652 -0.0365  0.1177
  740MOL0     N99782   4.999   5.171   8.667 -0.2921  0.2754 -0.5873
  740MOL0     C99783   5.024   5.133   8.534  0.3459 -0.2145  0.7372
  740MOL0     C99784   4.975   5.008   8.518  0.2085 -0.4259  0.2830
  740MOL0     C99785   4.976   4.941   8.383 -0.3229 -0.1074 -0.2162
  740MOL0     C99786   5.103   4.854   8.369 -0.4249  0.6513  0.6166
  740MOL0     C99787   5.124   4.772   8.480  0.0124  0.1549  0.2890
  740MOL0     C99788   5.223   4.660   8.449  0.7346 -0.3901 -0.1203
  740MOL0     O99789   5.344   4.716   8.415  0.1891 -0.8417  0.1281
  740MOL0     C99790   5.433   4.629   8.351 -0.2476 -0.6842 -0.2730
  740MOL0     C99791   5.412   4.495   8.307  0.0086 -0.0303 -0.5513
  740MOL0     C99792   5.513   4.423   8.247 -0.1059  0.7698  0.1682
  740MOL0     C99793   5.635   4.489   8.205 -0.5708 -0.2288  0.5979
  740MOL0     C99794   5.746   4.419   8.128  0.2050  0.4818  0.0874
  740MOL0     O99795   5.878   4.462   8.150  0.2392 -0.4134 -0.6973
  740MOL0     C99796   5.975   4.377   8.097  0.2001 -0.5419 -1.3512
  740MOL0     C99797   6.070   4.441   8.023  0.1291 -0.2947  0.0406
  740MOL0     C99798   6.187   4.376   7.991 -0.6196 -0.0598  0.1193
  740MOL0     C99799   6.215   4.244   8.044  0.7616  0.5287  0.1878
  740MOL0     O99800   6.326   4.171   8.006  0.2855 -0.1532  0.4149
  740MOL0     C99801   6.437   4.248   7.973  0.2820  0.8298  0.1297
  740MOL0     C99802   6.554   4.149   7.965  0.2043  0.1920  0.0694
  740MOL0     C99803   6.682   4.219   7.916  0.1994 -0.9513 -0.2795
  740MOL0     C99804   6.789   4.128   7.865  0.1060  0.1869 -0.3259
  740MOL0     C99805   6.936   4.190   7.868 -0.4071  0.2485 -0.5764
  740MOL0     C99806   7.038   4.085   7.823  0.6222  0.2233 -0.4804
  740MOL0     C99807   7.177   4.143   7.832 -0.0358 -0.2697 -0.1150
  740MOL0     C99808   7.273   4.050   7.757  0.0489  0.2244 -0.3715
  740MOL0    Cl99809   7.426   4.144   7.747  0.1574 -0.2260  0.3443
  740MOL0     C99810   6.123   4.182   8.128 -0.0564  0.4006  0.4935
  740MOL0     C99811   6.001   4.251   8.158 -0.4779 -0.1036  1.1789
  740MOL0     O99812   5.714   4.325   8.056 -0.6439  0.8017  0.5640
  740MOL0     C99813   5.649   4.628   8.239 -0.3091  0.6404  0.3306
  740MOL0     C99814   5.548   4.691   8.304 -0.2535 -0.5055 -0.4931
  740MOL0     N99815   4.920   4.973   8.639  0.0371 -0.2357 -0.0639
  740MOL0     N99816   4.936   5.063   8.730  0.2091  0.2699  0.0653
  740MOL0     C99817   3.870   5.448   8.876  0.0139 -0.1487  0.6923
  740MOL0     C99818   3.737   5.486   8.852  0.4621 -0.2907  0.7377
  740MOL0     C99819   3.330   5.564   8.752  0.3013 -0.8452 -0.1884
  740MOL0     C99820   3.309   5.683   8.690 -0.6403 -0.1226  0.8844
  740MOL0     C99821   3.182   5.732   8.689  0.6142  0.1302  0.0400
  740MOL0     C99822   3.070   5.666   8.740  0.6862 -1.7409 -0.1564
  740MOL0     O99823   2.940   5.718   8.739 -0.3144  0.2784  0.4265
  740MOL0     C99824   2.909   5.854   8.694 -0.3236 -0.2573  0.3531
  740MOL0     C99825   2.778   5.913   8.746 -0.5927 -0.0516  0.5881
  740MOL0     C99826   2.758   5.909   8.899  0.1494  0.1747  0.4447
  740MOL0     C99827   2.876   5.967   8.970  0.1650 -0.9154  0.1907
  740MOL0     C99828   2.979   5.872   9.016 -0.1810  0.0364 -0.3298
  740MOL0     C99829   3.056   5.785   9.042 -0.6625 -0.0368  0.1813
  740MOL0     C99830   3.092   5.548   8.801 -0.5746 -1.2668  0.2767
  740MOL0     C99831   3.219   5.493   8.799 -0.4177 -0.0101  0.1413
  740MOL0     C99832   3.226   5.348   8.857  1.0509 -0.6514  0.2487
  740MOL0     H99833   3.588   5.178   8.878  0.0326  0.1642 -0.5119
  740MOL0     H99834   3.830   5.110   8.912  2.1918  0.1683  0.4504
  740MOL0     H99835   4.125   5.432   8.840 -0.3910 -2.6983 -1.3860
  740MOL0     H99836   4.123   5.443   9.009 -3.4450  0.6411 -1.5672
  740MOL0     H99837   4.268   5.221   8.836 -2.0798 -0.2867  1.1169
  740MOL0     H99838   4.312   5.240   8.999  2.4140 -0.3475 -0.6165
  740MOL0     H99839   4.408   5.465   8.944  1.4505 -0.1441  0.3266
  740MOL0     H99840   4.360   5.432   8.774  0.9709 -0.3733  0.9625
  740MOL0     H99841   4.534   5.253   8.938  1.1476 -3.2157 -1.6111
  740MOL0     H99842   4.478   5.218   8.779 -1.2011  0.7037 -0.2619
  740MOL0     H99843   4.615   5.431   8.700 -1.6711 -0.4317  0.8882
  740MOL0     H99844   4.661   5.459   8.867  1.1715  0.5771 -0.4389
  740MOL0     H99845   4.795   5.259   8.878 -0.7000 -0.4947  0.0883
  740MOL0     H99846   4.729   5.214   8.717 -1.5069  0.4142  2.3905
  740MOL0     H99847   4.872   5.484   8.762  0.1565  0.9757 -0.0359
  740MOL0     H99848   4.841   5.402   8.610 -0.5402  3.5354 -0.1600
  740MOL0     H99849   5.078   5.363   8.671  0.4413 -1.1916 -0.4215
  740MOL0     H99850   5.038   5.308   8.825 -0.7325  1.3138  0.3573
  740MOL0     H99851   5.064   5.202   8.461 -2.3969  0.0050 -0.7227
  740MOL0     H99852   4.882   4.884   8.384 -0.2565 -0.2175 -0.3015
  740MOL0     H99853   4.975   5.014   8.301  2.1684  1.1685  0.7995
  740MOL0     H99854   5.077   4.793   8.281 -0.9934  1.8150 -0.0457
  740MOL0     H99855   5.188   4.920   8.351  4.1656 -4.1417  2.2739
  740MOL0     H99856   5.027   4.734   8.515 -0.5545  0.5767 -0.7919
  740MOL0     H99857   5.163   4.827   8.566 -0.3510 -0.2788  0.7396
  740MOL0     H99858   5.190   4.613   8.356 -2.5888  0.1240  0.6714
  740MOL0     H99859   5.236   4.579   8.521  1.4565 -2.0942 -2.0865
  740MOL0     H99860   5.319   4.442   8.328 -0.4293  1.0625  0.3577
  740MOL0     H99861   5.499   4.318   8.222  1.8813  0.3816  0.5426
  740MOL0     H99862   6.061   4.543   7.987 -0.0269  0.3839  1.8763
  740MOL0     H99863   6.262   4.419   7.926  0.5683 -0.9439  0.8716
  740MOL0     H99864   6.430   4.288   7.872  0.9157 -0.8306 -0.5999
  740MOL0     H99865   6.465   4.328   8.043 -0.0312  0.3286  0.8401
  740MOL0     H99866   6.573   4.097   8.060  0.0984  0.4900  0.2555
  740MOL0     H99867   6.527   4.078   7.887 -0.1139  1.0567 -0.6216
  740MOL0     H99868   6.653   4.296   7.844 -0.2132  0.4211  1.2833
  740MOL0     H99869   6.714   4.278   8.002  0.0002 -0.3648 -0.5984
  740MOL0     H99870   6.750   4.109   7.765 -0.7097  0.2144 -0.0167
  740MOL0     H99871   6.786   4.032   7.916 -1.0248  0.3806  0.0093
  740MOL0     H99872   6.957   4.235   7.965 -3.7647  1.3550 -0.2239
  740MOL0     H99873   6.946   4.268   7.792 -0.4298 -0.3056 -1.1572
  740MOL0     H99874   7.034   3.995   7.885  0.4062 -1.0072 -2.2001
  740MOL0     H99875   7.008   4.065   7.720  1.4792  4.0670 -1.6487
  740MOL0     H99876   7.209   4.152   7.936  1.4681  2.2784 -0.7264
  740MOL0     H99877   7.195   4.241   7.786  3.1140 -1.2719 -1.3457
  740MOL0     H99878   7.289   3.966   7.826 -1.9584 -0.7386 -0.9665
  740MOL0     H99879   7.237   4.015   7.660 -1.8332  0.9545  0.0091
  740MOL0     H99880   6.143   4.081   8.162 -1.3895 -0.4170 -0.9950
  740MOL0     H99881   5.922   4.215   8.223 -3.4924 -0.2630 -2.2529
  740MOL0     H99882   5.734   4.686   8.204  0.7327 -0.7900  0.3755
  740MOL0     H99883   5.564   4.795   8.330  0.9578 -1.0961  1.3714
  740MOL0     H99884   3.941   5.529   8.866  0.4875 -0.3924  1.8796
  740MOL0     H99885   3.723   5.591   8.829 -0.4243 -1.2982 -4.5134
  740MOL0     H99886   3.388   5.740   8.643  0.0438 -1.6084  0.1829
  740MOL0     H99887   3.174   5.825   8.633  2.3422  0.6285  0.5627
  740MOL0     H99888   2.908   5.856   8.584  1.5765  0.6619  0.3033
  740MOL0     H99889   2.992   5.920   8.718 -0.0519 -0.8981  1.2165
  740MOL0     H99890   2.690   5.868   8.698 -1.8207  1.5427  1.2499
  740MOL0     H99891   2.778   6.017   8.713  1.9943 -0.2164 -0.0702
  740MOL0     H99892   2.728   5.814   8.945 -3.0586  1.6676  1.8094
  740MOL0     H99893   2.670   5.973   8.916  1.2505  1.6859  0.7065
  740MOL0     H99894   2.917   6.043   8.903 -2.5914  1.7962  1.3778
  740MOL0     H99895   2.828   6.016   9.055  0.6982 -0.5429  0.2800
  740MOL0     H99896   3.111   5.697   9.069  2.3708  1.6045 -0.3159
  740MOL0     H99897   2.996   5.508   8.834  0.9829 -4.6272  1.2421
  740MOL0     H99898   3.127   5.304   8.846 -0.1315  2.4178 -5.9281
  740MOL0     H99899   3.290   5.285   8.795 -1.4608  0.2588 -3.6123
  740MOL0     H99900   3.253   5.357   8.963  0.8924 -1.5686  0.3732
  741MOL0     O99901   0.414   4.948   8.574  1.0583  0.1062 -0.0778
  741MOL0     C99902   0.402   4.839   8.631 -1.0026  0.5482  0.3859
  741MOL0     O99903   0.482   4.728   8.610 -0.0958 -0.2540 -0.0572
  741MOL0     C99904   0.584   4.750   8.528 -0.3303 -0.9705 -0.1130
  741MOL0     C99905   0.700   4.812   8.574  0.9395 -0.7365  0.3357
  741MOL0     C99906   0.806   4.834   8.483  0.5337  0.8601 -0.6161
  741MOL0     C99907   0.795   4.788   8.349 -0.6156  0.5630 -0.5311
  741MOL0     O99908   0.900   4.794   8.253 -0.0461  0.3421 -0.2348
  741MOL0     C99909   0.986   4.914   8.252 -0.1413  0.0598  0.0891
  741MOL0     C99910   1.130   4.880   8.248  0.4950 -0.4241  0.1318
  741MOL0     C99911   1.173   4.778   8.365  0.6520 -0.7530  0.0291
  741MOL0     C99912   1.321   4.756   8.343 -0.5914  0.8840 -0.1134
  741MOL0     C99913   1.405   4.684   8.451  0.0647  0.4226  0.0901
  741MOL0     C99914   1.558   4.697   8.412  0.0410  1.0904 -0.6741
  741MOL0     C99915   1.654   4.631   8.522 -0.0301  0.0259 -0.0121
  741MOL0     C99916   1.711   4.502   8.463  0.1086 -0.0948 -0.0327
  741MOL0     N99917   1.787   4.429   8.562  1.0468 -0.1726 -0.0693
  741MOL0     C99918   1.906   4.469   8.629  0.7761 -0.3255  0.7060
  741MOL0     C99919   1.913   4.385   8.734  0.6464  0.8489  0.5358
  741MOL0     C99920   2.018   4.388   8.838 -0.4080 -0.8481 -0.3360
  741MOL0     C99921   2.001   4.513   8.937 -0.5202 -0.3400 -0.4851
  741MOL0     C99922   2.077   4.643   8.912  0.3628  0.0944 -1.0475
  741MOL0     C99923   2.231   4.619   8.894  0.2013  0.8955 -0.3860
  741MOL0     O99924   2.282   4.511   8.974 -0.6863  0.7022 -0.3829
  741MOL0     C99925   2.415   4.495   8.963 -0.0941 -0.5483 -0.7597
  741MOL0     C99926   2.493   4.561   8.872 -1.3168  1.3640 -0.2882
  741MOL0     C99927   2.627   4.533   8.874 -0.0209 -0.2683  0.4967
  741MOL0     C99928   2.693   4.457   8.970  0.1133  0.7297 -1.1145
  741MOL0     C99929   2.845   4.435   8.955  0.2797 -0.3909 -1.0792
  741MOL0     O99930   2.900   4.342   9.027 -0.0752  0.1415 -0.5210
  741MOL0     C99931   3.039   4.320   8.997  0.9040  0.2807  0.5558
  741MOL0     C99932   3.144   4.403   9.035 -0.5295  0.6622 -0.3988
  741MOL0     C99933   3.275   4.374   9.003 -0.6132 -1.3224  0.5059
  741MOL0     C99934   3.308   4.251   8.948 -0.3886  0.3187 -0.6152
  741MOL0     O99935   3.443   4.223   8.943  0.1251 -0.1341 -0.1283
  741MOL0     C99936   3.486   4.088   8.926  0.5573 -0.4064  0.0072
  741MOL0     C99937   3.629   4.085   8.909 -0.8298 -0.4512 -1.3873
  741MOL0     C99938   3.668   3.937   8.904 -0.9735  0.0127  0.1273
  741MOL0     C99939   3.820   3.911   8.868  0.1352 -0.0810  0.8528
  741MOL0     C99940   3.908   3.936   8.990  0.4185 -0.4955  0.8732
  741MOL0     C99941   4.053   3.949   8.935 -0.5825  0.2651  0.2098
  741MOL0     C99942   4.142   3.938   9.068  0.0671 -0.0003 -0.1728
  741MOL0     C99943   4.289   3.954   9.040 -0.4369  0.4647 -0.0815
  741MOL0    Cl99944   4.344   3.784   8.996  0.1006  0.0488  0.0354
  741MOL0     C99945   3.204   4.163   8.904  0.5995 -0.1016  0.9046
  741MOL0     C99946   3.071   4.200   8.930  0.1937 -0.4801 -0.5066
  741MOL0     O99947   2.912   4.515   8.891  0.4863  0.4660 -0.2950
  741MOL0     C99948   2.616   4.386   9.065 -0.1022 -0.0785  1.5328
  741MOL0     C99949   2.476   4.404   9.051 -0.2701 -0.3350 -0.4182
  741MOL0     N99950   1.802   4.305   8.737  0.4546 -0.5254 -0.3960
  741MOL0     N99951   1.725   4.337   8.636 -0.3831 -0.2159 -0.0001
  741MOL0     C99952   0.668   4.742   8.304 -0.2881  0.5772  0.4066
  741MOL0     C99953   0.566   4.718   8.395 -0.0419  0.1288  0.5977
  741MOL0     C99954   0.281   4.806   8.717 -0.1760  0.6426 -0.1656
  741MOL0     C99955   0.274   4.671   8.768  0.3106 -0.5502  0.3124
  741MOL0     C99956   0.193   4.626   8.870 -0.6084 -0.0002  0.3634
  741MOL0     C99957   0.091   4.714   8.916 -0.0605 -1.6781  0.7471
  741MOL0     O99958  -0.001   4.675   9.006  0.2303  0.1615  0.5730
  741MOL0     C99959  -0.032   4.533   9.020  0.2069 -0.0454 -0.3404
  741MOL0     C99960  -0.180   4.522   9.052 -0.1197  0.3763 -0.8910
  741MOL0     C99961  -0.239   4.384   9.081  0.0597 -0.2846 -0.0475
  741MOL0     C99962  -0.388   4.373   9.065 -1.0461  0.4903  0.0785
  741MOL0     C99963  -0.435   4.400   8.936 -0.6470  0.1641 -0.2651
  741MOL0     C99964  -0.487   4.420   8.827  0.5628 -0.4835  1.1518
  741MOL0     C99965   0.078   4.841   8.854 -0.2306 -0.3573 -0.1909
  741MOL0     C99966   0.176   4.885   8.764  0.6295 -0.2587  0.3515
  741MOL0     C99967   0.158   5.032   8.727 -0.4159 -0.8609  0.1275
  741MOL0     H99968   0.717   4.824   8.681  0.4577  0.0308  0.3288
  741MOL0     H99969   0.903   4.870   8.517 -0.2630  0.9954  1.6521
  741MOL0     H99970   0.960   4.972   8.163 -1.7772 -0.0162  0.4809
  741MOL0     H99971   0.961   4.983   8.333  0.3538 -2.1257  2.2170
  741MOL0     H99972   1.185   4.974   8.249 -2.9111  1.7654  2.1603
  741MOL0     H99973   1.140   4.838   8.148  0.5665 -0.4790  0.1623
  741MOL0     H99974   1.113   4.687   8.364 -0.6055 -0.0182  1.7780
  741MOL0     H99975   1.163   4.825   8.464  2.8750 -0.1976  0.0497
  741MOL0     H99976   1.331   4.697   8.252 -0.9236  2.6815 -1.3596
  741MOL0     H99977   1.369   4.852   8.320  2.9826 -0.7930 -0.3665
  741MOL0     H99978   1.376   4.754   8.530 -1.0226  1.5081 -1.2132
  741MOL0     H99979   1.375   4.583   8.481  0.1779  0.8936  1.8618
  741MOL0     H99980   1.579   4.643   8.320  3.0222 -1.0259  1.0553
  741MOL0     H99981   1.575   4.804   8.399  1.1302  1.4696  2.8177
  741MOL0     H99982   1.599   4.617   8.616  0.2920  1.3282  0.3897
  741MOL0     H99983   1.736   4.703   8.533 -0.4953  0.7191 -1.0149
  741MOL0     H99984   1.631   4.437   8.425 -0.0028 -0.0517  0.1250
  741MOL0     H99985   1.772   4.516   8.374  1.2763 -0.7551  0.6359
  741MOL0     H99986   1.977   4.545   8.599 -2.3537  2.3940 -0.4787
  741MOL0     H99987   2.009   4.291   8.889  0.1882 -1.3308 -1.1201
  741MOL0     H99988   2.117   4.390   8.791 -0.2537 -0.0849 -0.0035
  741MOL0     H99989   1.893   4.529   8.938 -0.1645  2.8918  1.4251
  741MOL0     H99990   2.022   4.476   9.038  0.1521 -0.2465 -0.5852
  741MOL0     H99991   2.078   4.696   9.008 -2.2348 -0.1847 -0.8084
  741MOL0     H99992   2.034   4.706   8.833  0.0222  0.5580 -0.5009
  741MOL0     H99993   2.277   4.716   8.914 -0.3729  0.6587  2.4817
  741MOL0     H99994   2.253   4.587   8.792  2.5450  0.4447  0.1916
  741MOL0     H99995   2.459   4.638   8.803  0.7977  0.8603 -2.0257
  741MOL0     H99996   2.682   4.596   8.805 -3.2422  2.1135 -0.0813
  741MOL0     H99997   3.113   4.492   9.089  1.0902 -0.0995  1.9281
  741MOL0     H99998   3.355   4.444   9.020 -3.4159  2.8381 -1.4981
  741MOL0     H99999   3.443   4.032   9.010 -3.7358  1.7370 -0.4777
  741MOL0     H    0   3.449   4.054   8.829  1.5872 -0.3829 -0.4028
  741MOL0     H    1   3.670   4.143   8.825  1.8442  2.9712  1.9447
  741MOL0     H    2   3.682   4.123   8.997 -0.9575 -1.3902 -0.8958
  741MOL0     H    3   3.649   3.892   9.002  0.7716  2.2263  1.5785
  741MOL0     H    4   3.602   3.894   8.828  0.5142 -1.3499 -0.4405
  741MOL0     H    5   3.851   3.975   8.785 -2.0038 -0.4591 -0.3464
  741MOL0     H    6   3.839   3.806   8.842  1.7867  0.1994  0.8749
  741MOL0     H    7   3.907   3.850   9.058  0.4224 -1.1905  0.0135
  741MOL0     H    8   3.876   4.025   9.044 -3.8938 -1.8709  0.9712
  741MOL0     H    9   4.076   3.869   8.864 -2.3147 -1.2042  1.2075
  741MOL0     H   10   4.068   4.044   8.883  0.2094  0.2948  0.4873
  741MOL0     H   11   4.128   3.840   9.113  2.5409 -0.1994  0.3139
  741MOL0     H   12   4.102   4.013   9.138  2.0982  0.1215  0.9437
  741MOL0     H   13   4.323   4.028   8.967 -0.4026  3.2853  2.5820
  741MOL0     H   14   4.342   3.979   9.132  0.5949  0.7587 -0.7423
  741MOL0     H   15   3.223   4.064   8.863  0.0446 -0.1984  0.8687
  741MOL0     H   16   2.992   4.135   8.892 -1.7561  1.9730 -0.8779
  741MOL0     H   17   2.656   4.330   9.149 -3.0751 -0.4338  2.8099
  741MOL0     H   18   2.427   4.337   9.121  2.0181  0.2888  1.9427
  741MOL0     H   19   0.656   4.717   8.200  0.7236  2.8679 -0.3264
  741MOL0     H   20   0.477   4.667   8.360 -1.0051  1.8158  0.4916
  741MOL0     H   21   0.328   4.588   8.724 -0.6828 -0.2749 -1.5113
  741MOL0     H   22   0.207   4.531   8.920 -3.4133  0.6132  2.5998
  741MOL0     H   23   0.012   4.494   9.113 -1.6718  0.9906  1.0659
  741MOL0     H   24  -0.015   4.467   8.935  0.9016  1.9292 -1.7913
  741MOL0     H   25  -0.239   4.569   8.973 -1.3743 -1.7036 -1.2720
  741MOL0     H   26  -0.186   4.578   9.145  0.2538 -0.5827 -0.2722
  741MOL0     H   27  -0.209   4.344   9.178  2.9974 -2.9085 -1.8453
  741MOL0     H   28  -0.185   4.316   9.015  0.9403  0.4686 -0.1225
  741MOL0     H   29  -0.425   4.271   9.082 -2.7516  1.5992  4.2797
  741MOL0     H   30  -0.435   4.442   9.135  1.4522  2.7544 -0.2763
  741MOL0     H   31  -0.536   4.451   8.737  1.8976  2.7294  1.3645
  741MOL0     H   32  -0.015   4.891   8.878  0.1944 -0.4209  1.8233
  741MOL0     H   33   0.243   5.093   8.760  0.3268 -0.6730 -2.0267
  741MOL0     H   34   0.152   5.037   8.618  1.9309 -0.7077 -0.0359
  741MOL0     H   35   0.063   5.074   8.761  0.4974  2.3612 -0.9183
  742MOL0     O   36   2.145  10.014   7.529 -0.6387 -0.1551  0.0402
  742MOL0     C   37   2.066   9.921   7.503  0.7683 -0.5753 -0.5445
  742MOL0     O   38   2.093   9.793   7.526  0.8566 -0.3865 -0.1136
  742MOL0     C   39   2.211   9.749   7.581  0.0019  0.5478 -0.5153
  742MOL0     C   40   2.337   9.818   7.571 -0.3135  0.6385 -0.3093
  742MOL0     C   41   2.444   9.765   7.643 -0.6023  0.2422 -0.3878
  742MOL0     C   42   2.443   9.648   7.719 -0.3964 -0.7056 -0.2453
  742MOL0     O   43   2.563   9.614   7.777  1.3033  0.1375  0.3755
  742MOL0     C   44   2.571   9.482   7.833 -0.0227  0.4371  0.8838
  742MOL0     C   45   2.717   9.444   7.839 -0.2710 -0.3786  0.1876
  742MOL0     C   46   2.807   9.516   7.941 -0.5244  0.2276 -0.6599
  742MOL0     C   47   2.951   9.527   7.883 -0.3389  0.8590  0.5233
  742MOL0     C   48   3.051   9.585   7.975 -0.2372 -0.0860  0.0348
  742MOL0     C   49   3.167   9.632   7.894 -0.2064 -0.3274  0.5347
  742MOL0     C   50   3.244   9.523   7.806  0.3197  0.2384  0.1818
  742MOL0     C   51   3.363   9.572   7.723  0.0494 -0.3534  0.4319
  742MOL0     N   52   3.461   9.627   7.817 -0.2912  0.4179  0.1501
  742MOL0     C   53   3.521   9.562   7.929  0.1606  0.5910  0.5644
  742MOL0     C   54   3.598   9.662   7.976 -0.5923 -0.1382 -0.1558
  742MOL0     C   55   3.663   9.654   8.112 -0.4170  0.8961  0.5119
  742MOL0     C   56   3.822   9.645   8.091 -0.8419  0.6158 -0.7443
  742MOL0     C   57   3.887   9.763   8.014 -0.6760 -0.6795  0.6124
  742MOL0     C   58   4.037   9.756   7.994 -0.4292 -0.8069 -0.1703
  742MOL0     O   59   4.097   9.725   8.121 -0.4687  0.3348 -0.4028
  742MOL0     C   60   4.231   9.711   8.105  0.3507 -0.8326 -1.3928
  742MOL0     C   61   4.306   9.751   7.997 -0.9422 -0.1422 -0.7612
  742MOL0     C   62   4.451   9.744   8.002  0.6310 -0.3387  0.8110
  742MOL0     C   63   4.519   9.711   8.123  0.1334 -0.7449 -0.8017
  742MOL0     C   64   4.667   9.718   8.127 -0.3656 -0.3487  0.4054
  742MOL0     O   65   4.739   9.699   8.008  0.2645 -0.2539  0.2364
  742MOL0     C   66   4.872   9.723   8.017 -1.0592  0.4859  0.3970
  742MOL0     C   67   4.963   9.657   8.103 -0.5607 -0.1923  0.1788
  742MOL0     C   68   5.095   9.700   8.124 -0.2890 -0.3779 -0.3908
  742MOL0     C   69   5.141   9.805   8.051  0.1041 -0.0717  0.3325
  742MOL0     O   70   5.271   9.853   8.053  0.0964  0.4722  0.2297
  742MOL0     C   71   5.364   9.795   8.139 -0.1077 -0.4334 -0.8312
  742MOL0     C   72   5.484   9.887   8.117 -0.5961  0.6397 -0.0823
  742MOL0     C   73   5.609   9.857   8.202  0.2354 -0.0922  0.2220
  742MOL0     C   74   5.600   9.904   8.353 -0.4959  1.0028  0.1646
  742MOL0     C   75   5.734   9.874   8.419 -0.4054 -0.0741  0.1483
  742MOL0     C   76   5.740   9.929   8.553  0.5206 -1.7012 -0.3449
  742MOL0     C   77   5.859   9.862   8.639  0.2514  0.3779  1.0709
  742MOL0     C   78   5.873   9.922   8.782 -0.8449 -0.1824 -1.1982
  742MOL0    Cl   79   5.989   9.813   8.860  0.0573 -0.1272  0.0177
  742MOL0     C   80   5.054   9.877   7.955 -0.0123 -0.4882  0.6932
  742MOL0     C   81   4.926   9.822   7.931 -0.2380  0.1662 -0.3556
  742MOL0     O   82   4.717   9.740   8.235 -0.4509  0.1638 -0.2165
  742MOL0     C   83   4.445   9.677   8.235  0.0297 -0.3540  0.2188
  742MOL0     C   84   4.303   9.669   8.223 -0.4396  0.5088 -0.4894
  742MOL0     N   85   3.596   9.776   7.896  0.1445  0.0503  0.3032
  742MOL0     N   86   3.502   9.754   7.807 -0.4944  0.6538 -0.3576
  742MOL0     C   87   2.323   9.576   7.729  0.2146 -0.3799 -0.0161
  742MOL0     C   88   2.208   9.623   7.657 -0.6235 -0.3185  0.5767
  742MOL0     C   89   1.924   9.957   7.464 -0.6675  0.4212 -0.0000
  742MOL0     C   90   1.834   9.851   7.464  0.4412 -0.0817 -0.0374
  742MOL0     C   91   1.703   9.876   7.429 -1.2264 -0.1484  0.4110
  742MOL0     C   92   1.666  10.003   7.386  0.0174  0.0814 -0.0858
  742MOL0     O   93   1.537  10.045   7.350  0.2302 -0.2204  0.7978
  742MOL0     C   94   1.431   9.946   7.344 -0.0641  0.2736  0.4471
  742MOL0     C   95   1.318   9.965   7.255  0.4899 -0.5273 -0.7934
  742MOL0     C   96   1.203   9.872   7.295  0.2851  0.8257 -0.4664
  742MOL0     C   97   1.073   9.891   7.224 -0.2284  0.4204  0.1722
  742MOL0     C   98   1.088   9.879   7.077  0.0978 -1.0781 -1.1429
  742MOL0     C   99   1.071   9.885   6.954 -0.0460  0.4035 -1.0621
  742MOL0     C  100   1.757  10.111   7.380 -0.4076 -0.1824  0.1245
  742MOL0     C  101   1.888  10.089   7.417 -0.2012  0.5208  0.2625
  742MOL0     C  102   1.985  10.196   7.384  0.1841 -0.7708  0.0481
  742MOL0     H  103   2.349   9.905   7.507 -2.0684  1.0029 -0.1900
  742MOL0     H  104   2.533   9.825   7.628 -0.5961  0.0953 -0.9651
  742MOL0     H  105   2.535   9.476   7.937  1.0498  1.1770  1.3221
  742MOL0     H  106   2.525   9.406   7.770  1.7000  0.9295 -1.0735
  742MOL0     H  107   2.758   9.467   7.741  0.4970  0.0698  0.6025
  742MOL0     H  108   2.726   9.336   7.857  1.0006 -0.0888  1.4819
  742MOL0     H  109   2.805   9.467   8.038  1.2069  1.6782  0.1676
  742MOL0     H  110   2.768   9.617   7.959 -1.0696 -0.3242  1.5228
  742MOL0     H  111   2.982   9.425   7.862  0.9020  1.1846  0.6646
  742MOL0     H  112   2.949   9.570   7.783 -0.2495 -4.6046 -2.1836
  742MOL0     H  113   3.005   9.663   8.036  0.3103 -1.7777  2.8143
  742MOL0     H  114   3.080   9.512   8.051  2.3621  1.2195  0.3835
  742MOL0     H  115   3.141   9.725   7.841 -0.0022  1.1241  2.8588
  742MOL0     H  116   3.235   9.673   7.969  0.5935 -2.2336  0.9101
  742MOL0     H  117   3.172   9.476   7.739  1.1111  0.2818 -0.7256
  742MOL0     H  118   3.291   9.449   7.871  3.0240  2.3064  0.7889
  742MOL0     H  119   3.400   9.484   7.669  0.5765  1.1323 -1.7557
  742MOL0     H  120   3.330   9.643   7.647 -0.4451 -0.0226  0.9421
  742MOL0     H  121   3.507   9.463   7.971  0.8097 -0.2963 -1.2013
  742MOL0     H  122   3.645   9.744   8.170  0.2093  2.0438 -0.9965
  742MOL0     H  123   3.621   9.568   8.165 -0.3323  0.7484  0.3425
  742MOL0     H  124   3.863   9.631   8.191 -1.7432 -0.6417 -0.5212
  742MOL0     H  125   3.840   9.559   8.026  2.6979  1.9187 -1.7004
  742MOL0     H  126   3.856   9.855   8.065 -2.6852 -1.1202  0.2831
  742MOL0     H  127   3.844   9.766   7.913 -1.5663 -0.8091  0.9786
  742MOL0     H  128   4.066   9.855   7.959  1.2524 -1.1464  0.1837
  742MOL0     H  129   4.061   9.688   7.912  0.0472  2.1406 -2.6422
  742MOL0     H  130   4.275   9.787   7.900  1.0392 -0.4988 -1.5806
  742MOL0     H  131   4.515   9.770   7.918 -1.3107 -0.6180 -0.8308
  742MOL0     H  132   4.925   9.572   8.159  0.3839 -0.3189  0.6543
  742MOL0     H  133   5.159   9.666   8.205 -0.3583  2.5985  1.0255
  742MOL0     H  134   5.329   9.802   8.242 -0.3076  0.9558 -0.9824
  742MOL0     H  135   5.395   9.694   8.110  2.8155  0.7452 -2.3077
  742MOL0     H  136   5.514   9.860   8.015  2.7015  1.8639  0.4244
  742MOL0     H  137   5.454   9.991   8.130  0.6082  0.7776  2.2234
  742MOL0     H  138   5.625   9.750   8.186 -1.4249 -0.1617 -1.2919
  742MOL0     H  139   5.695   9.909   8.159  1.1920  1.0114  3.2241
  742MOL0     H  140   5.521   9.839   8.394  0.3620 -0.2394 -0.0998
  742MOL0     H  141   5.563  10.007   8.356 -1.8522  0.5592 -0.3068
  742MOL0     H  142   5.820   9.909   8.360 -1.6249 -0.5858 -2.0402
  742MOL0     H  143   5.753   9.767   8.427  0.0287  0.0617  1.0542
  742MOL0     H  144   5.745  10.039   8.551 -0.7708 -1.5805  0.9936
  742MOL0     H  145   5.647   9.908   8.608 -0.5500  0.3377 -1.2741
  742MOL0     H  146   5.954   9.871   8.585  0.0190  1.4573  0.8140
  742MOL0     H  147   5.841   9.754   8.636  1.2170  0.1337 -3.2566
  742MOL0     H  148   5.899  10.028   8.778  1.2914 -0.5680  0.5351
  742MOL0     H  149   5.778   9.915   8.836  0.6163  1.9630  1.9363
  742MOL0     H  150   5.084   9.957   7.889 -0.5954  0.0840  1.1106
  742MOL0     H  151   4.868   9.882   7.862  0.0649 -0.6240 -1.3174
  742MOL0     H  152   4.494   9.669   8.332 -0.2240  0.5666  0.4303
  742MOL0     H  153   4.243   9.651   8.311  0.0142 -0.9886 -0.4638
  742MOL0     H  154   2.322   9.481   7.782 -1.6070  0.2012  1.0896
  742MOL0     H  155   2.117   9.564   7.663  0.0319 -1.2822  1.2636
  742MOL0     H  156   1.851   9.749   7.496 -0.0302  0.3741  1.7635
  742MOL0     H  157   1.636   9.791   7.440 -0.7436 -0.6031 -0.0989
  742MOL0     H  158   1.394   9.949   7.446  0.3540  0.9603  0.5845
  742MOL0     H  159   1.483   9.852   7.324  1.4743  1.3878 -1.2221
  742MOL0     H  160   1.348   9.936   7.154 -1.0637  0.1065 -1.4695
  742MOL0     H  161   1.292  10.070   7.240  3.3290  0.1800 -1.2704
  742MOL0     H  162   1.183   9.887   7.402  3.3730  1.0366  0.1959
  742MOL0     H  163   1.243   9.770   7.287  1.9723  1.4707 -0.7138
  742MOL0     H  164   1.010   9.816   7.272  4.0912 -2.0534  2.6704
  742MOL0     H  165   1.038   9.992   7.243  1.7727  0.9340  1.4846
  742MOL0     H  166   1.052   9.888   6.849  1.6047  1.4864 -1.3735
  742MOL0     H  167   1.732  10.205   7.333 -1.2032 -0.6595 -0.4487
  742MOL0     H  168   2.045  10.175   7.296 -0.8787 -0.4988 -0.7651
  742MOL0     H  169   1.932  10.292   7.376  1.3520  0.0332  1.3873
  742MOL0     H  170   2.056  10.212   7.466  2.2328 -1.4140 -1.5192
  743MOL0     O  171   5.154   5.577   1.519 -0.1940  0.4285  0.2536
  743MOL0     C  172   5.159   5.454   1.497  1.2431  0.5906  0.1656
  743MOL0     O  173   5.253   5.363   1.551  0.3857 -1.2783  0.3226
  743MOL0     C  174   5.356   5.415   1.621  0.1634  0.2778  0.5551
  743MOL0     C  175   5.476   5.381   1.557  0.0117  0.3228 -0.4096
  743MOL0     C  176   5.600   5.417   1.623 -0.5448  0.5681  0.1072
  743MOL0     C  177   5.595   5.467   1.753  0.2751 -0.0941 -0.3162
  743MOL0     O  178   5.708   5.496   1.832  0.5086 -0.1333 -0.3394
  743MOL0     C  179   5.827   5.413   1.835 -0.3523 -0.8138 -0.6582
  743MOL0     C  180   5.936   5.502   1.890  0.3028  0.1346 -0.4499
  743MOL0     C  181   6.076   5.442   1.881  0.0862  1.0532 -0.2449
  743MOL0     C  182   6.186   5.513   1.957  0.0212 -0.4606  0.0847
  743MOL0     C  183   6.322   5.463   1.904 -0.5533 -0.2461 -0.2879
  743MOL0     C  184   6.436   5.489   2.004 -0.4686 -0.3693  0.2811
  743MOL0     C  185   6.490   5.631   1.995  0.3880 -0.4818 -0.3510
  743MOL0     C  186   6.588   5.652   2.106  0.3626  0.0758  0.1630
  743MOL0     N  187   6.538   5.673   2.238  0.2465  0.4846  0.2861
  743MOL0     C  188   6.434   5.757   2.269  0.0041 -0.0379  0.1903
  743MOL0     C  189   6.412   5.735   2.404  0.5329  0.5260 -0.0202
  743MOL0     C  190   6.299   5.793   2.488  0.7372  0.5938 -0.8938
  743MOL0     C  191   6.191   5.694   2.534 -0.2142  0.4222 -0.0060
  743MOL0     C  192   6.094   5.737   2.646 -0.0670  0.2251  0.6051
  743MOL0     C  193   6.025   5.872   2.632 -0.0264  0.3244  0.2621
  743MOL0     O  194   5.945   5.883   2.511  0.2489  0.1795 -0.2315
  743MOL0     C  195   5.828   5.817   2.500  0.4090  0.2280  0.7609
  743MOL0     C  196   5.787   5.776   2.377 -0.5230 -0.8438  0.1117
  743MOL0     C  197   5.661   5.715   2.356  0.4715 -0.2042 -0.9660
  743MOL0     C  198   5.568   5.700   2.458  0.4356  0.2136 -0.6162
  743MOL0     C  199   5.428   5.672   2.443  0.1612  0.4383 -0.7827
  743MOL0     O  200   5.354   5.638   2.557  0.2153 -0.6151  0.2410
  743MOL0     C  201   5.221   5.601   2.547 -0.0642 -0.4658  0.2207
  743MOL0     C  202   5.133   5.681   2.623 -0.1480  0.0184  1.1517
  743MOL0     C  203   4.991   5.656   2.601 -0.3613  0.4669  0.8508
  743MOL0     C  204   4.948   5.547   2.525  0.4397  0.1839  0.5475
  743MOL0     O  205   4.819   5.509   2.504 -0.7953  0.1502  0.3617
  743MOL0     C  206   4.735   5.506   2.616  1.0034  0.8457  0.7181
  743MOL0     C  207   4.765   5.390   2.703 -0.2695 -0.5008  0.2130
  743MOL0     C  208   4.717   5.261   2.646  0.6488  0.0959 -0.2691
  743MOL0     C  209   4.750   5.147   2.752 -0.5884  0.1965 -0.2474
  743MOL0     C  210   4.711   5.007   2.700  0.0587  0.5929  0.0868
  743MOL0     C  211   4.736   4.902   2.814  0.4165  0.0812  0.0225
  743MOL0     C  212   4.702   4.759   2.760  0.8506 -0.0493  0.1037
  743MOL0     C  213   4.757   4.722   2.618 -0.2192  0.7851 -0.4808
  743MOL0    Cl  214   4.935   4.763   2.606 -0.4362 -0.0026  0.2262
  743MOL0     C  215   5.044   5.463   2.470 -0.4686  0.1192  1.4600
  743MOL0     C  216   5.175   5.496   2.474  0.2935  0.2992 -0.3638
  743MOL0     O  217   5.388   5.665   2.326 -0.2107  0.4142  0.3366
  743MOL0     C  218   5.623   5.719   2.597 -0.0919 -0.2191  0.2114
  743MOL0     C  219   5.753   5.773   2.612 -0.0510  0.3520  0.1866
  743MOL0     N  220   6.498   5.625   2.441  0.4327  0.1090  0.0847
  743MOL0     N  221   6.576   5.591   2.343 -0.0450  0.0285 -0.2884
  743MOL0     C  222   5.481   5.495   1.818  0.1158  0.4286  0.4908
  743MOL0     C  223   5.358   5.470   1.747  0.9660  0.1519 -0.5323
  743MOL0     C  224   5.027   5.392   1.443  0.3961 -0.5618 -0.5548
  743MOL0     C  225   4.994   5.258   1.480  0.7729 -0.6579 -1.0426
  743MOL0     C  226   4.880   5.199   1.425  0.5557 -0.4042 -0.2237
  743MOL0     C  227   4.795   5.260   1.332 -0.4025 -0.0423 -0.4647
  743MOL0     O  228   4.686   5.199   1.275  0.3012 -0.4437 -0.1804
  743MOL0     C  229   4.682   5.054   1.266 -0.0502  0.3074  0.3686
  743MOL0     C  230   4.540   5.007   1.230  0.7591  0.4599 -0.2658
  743MOL0     C  231   4.445   5.026   1.346 -0.5175  0.8801  0.8248
  743MOL0     C  232   4.310   5.027   1.283 -0.4144 -0.3322  0.1838
  743MOL0     C  233   4.258   4.900   1.244 -0.4852  0.4529 -0.3086
  743MOL0     C  234   4.200   4.793   1.229 -0.5018 -0.1205  0.3963
  743MOL0     C  235   4.832   5.393   1.292  0.1445  0.4553  0.1137
  743MOL0     C  236   4.941   5.458   1.346 -0.8562 -0.0334  0.5421
  743MOL0     C  237   4.967   5.592   1.293  0.4463 -0.4327 -0.3689
  743MOL0     H  238   5.485   5.337   1.458  0.2125 -0.5875  0.0091
  743MOL0     H  239   5.688   5.398   1.562 -0.2872 -0.9737  0.9229
  743MOL0     H  240   5.814   5.324   1.897 -1.2561 -1.1399 -1.3010
  743MOL0     H  241   5.857   5.385   1.734  0.4499 -1.5163 -0.2386
  743MOL0     H  242   5.921   5.531   1.994  6.7117 -2.8645  1.8086
  743MOL0     H  243   5.947   5.594   1.832 -4.4931 -0.2323 -2.4240
  743MOL0     H  244   6.110   5.422   1.779  0.1254 -1.7602  0.2313
  743MOL0     H  245   6.068   5.347   1.935  1.2694  1.3140  0.4159
  743MOL0     H  246   6.186   5.619   1.930  0.3301 -1.3055 -3.7695
  743MOL0     H  247   6.177   5.505   2.066 -1.6295  1.0444  0.1076
  743MOL0     H  248   6.316   5.356   1.884  1.8827 -0.3052 -1.0459
  743MOL0     H  249   6.341   5.511   1.807  1.0106  0.1967  0.2065
  743MOL0     H  250   6.391   5.468   2.101 -1.0848  2.9931  0.8161
  743MOL0     H  251   6.515   5.416   1.983  1.3257  1.6381 -0.2097
  743MOL0     H  252   6.413   5.709   2.004  1.8530  0.8223  2.0367
  743MOL0     H  253   6.560   5.633   1.912 -0.2274 -1.8953 -0.9403
  743MOL0     H  254   6.664   5.573   2.108  3.6802  2.9771 -1.3827
  743MOL0     H  255   6.665   5.726   2.083 -0.3549  0.5355 -0.8154
  743MOL0     H  256   6.371   5.812   2.201 -0.6886  1.2057  1.7551
  743MOL0     H  257   6.341   5.848   2.572 -1.4085  0.3919  0.3892
  743MOL0     H  258   6.256   5.882   2.442  3.7590  2.9977  0.6490
  743MOL0     H  259   6.119   5.686   2.453 -1.6956 -1.2056  1.3957
  743MOL0     H  260   6.238   5.600   2.564 -1.1400 -0.0949 -0.1489
  743MOL0     H  261   6.135   5.733   2.747 -0.7909 -1.1683  0.8567
  743MOL0     H  262   6.015   5.662   2.639  0.0165  0.0603  1.3586
  743MOL0     H  263   6.091   5.959   2.635 -1.9259  1.8830 -0.5747
  743MOL0     H  264   5.963   5.894   2.720  1.8011  2.1374  1.1873
  743MOL0     H  265   5.859   5.789   2.296 -0.5969 -0.7540  0.0603
  743MOL0     H  266   5.618   5.699   2.258 -3.1118 -0.5939  0.5329
  743MOL0     H  267   5.177   5.758   2.685 -0.2586  0.0208  1.2287
  743MOL0     H  268   4.917   5.729   2.632 -2.0652  0.1663 -2.1239
  743MOL0     H  269   4.745   5.596   2.677 -0.9383  0.7425  1.2525
  743MOL0     H  270   4.631   5.502   2.580  1.7767 -2.8404 -1.7418
  743MOL0     H  271   4.871   5.384   2.730 -0.7254 -0.2434  2.2861
  743MOL0     H  272   4.698   5.404   2.789  0.9305 -0.2221  1.1365
  743MOL0     H  273   4.609   5.254   2.628  0.4805  0.6955  0.4715
  743MOL0     H  274   4.774   5.250   2.553  0.3814  1.5783 -0.6496
  743MOL0     H  275   4.706   5.171   2.849 -0.8737  0.9978 -0.5685
  743MOL0     H  276   4.859   5.137   2.762 -0.2974 -3.9973 -4.2088
  743MOL0     H  277   4.759   4.978   2.606  0.2076 -2.0596  0.8927
  743MOL0     H  278   4.603   5.014   2.683 -0.0926  0.7474  1.0858
  743MOL0     H  279   4.841   4.902   2.844  0.4010  1.0011  0.1229
  743MOL0     H  280   4.681   4.917   2.908  0.3065 -2.5643  0.4396
  743MOL0     H  281   4.594   4.763   2.748  0.6737  1.6128  1.8289
  743MOL0     H  282   4.732   4.686   2.836  1.1934  0.6726  0.6708
  743MOL0     H  283   4.753   4.613   2.609 -2.0575  0.5484  1.9427
  743MOL0     H  284   4.699   4.758   2.532 -0.1675  3.2753  0.4414
  743MOL0     H  285   5.008   5.379   2.411  3.5418 -0.6203 -0.2777
  743MOL0     H  286   5.252   5.437   2.425  1.0692  2.3714 -1.7768
  743MOL0     H  287   5.570   5.708   2.691 -0.2173 -0.5153  0.1074
  743MOL0     H  288   5.786   5.810   2.708 -3.0546  1.3233  0.9576
  743MOL0     H  289   5.493   5.523   1.921 -0.7008  0.5235  0.5681
  743MOL0     H  290   5.265   5.472   1.803  0.8537 -1.0284 -0.6428
  743MOL0     H  291   5.060   5.206   1.549  0.4353 -0.9309 -0.9266
  743MOL0     H  292   4.857   5.098   1.459 -0.0813 -0.2597 -0.2114
  743MOL0     H  293   4.722   4.989   1.344  3.1666 -1.6433 -2.5900
  743MOL0     H  294   4.749   5.027   1.184  1.9752  0.3403  1.9320
  743MOL0     H  295   4.537   4.898   1.222  0.7095  0.4363  0.0761
  743MOL0     H  296   4.502   5.059   1.141  0.3162 -2.1295 -1.6867
  743MOL0     H  297   4.465   5.117   1.403  0.7633  1.6718 -0.7919
  743MOL0     H  298   4.456   4.940   1.412 -0.1843  0.3007  0.0310
  743MOL0     H  299   4.230   5.073   1.342 -1.6718  0.7636 -2.1835
  743MOL0     H  300   4.300   5.096   1.198 -1.9327  0.0606  0.6433
  743MOL0     H  301   4.138   4.706   1.235 -0.5365 -0.0742  0.7051
  743MOL0     H  302   4.762   5.440   1.223 -1.1051 -0.0418  1.0011
  743MOL0     H  303   4.902   5.619   1.209  0.0517  2.5464  0.7682
  743MOL0     H  304   4.945   5.659   1.377  2.6971  2.0362 -1.5658
  743MOL0     H  305   5.072   5.611   1.268  0.0171  1.9071 -0.6533
  744MOL0     O  306   3.071   3.680  10.227 -0.3801 -0.5537  0.4702
  744MOL0     C  307   2.992   3.652  10.313  0.3279 -0.0097 -0.5928
  744MOL0     O  308   2.859   3.650  10.300  0.1711 -0.3805  0.1511
  744MOL0     C  309   2.803   3.568  10.202 -0.2620  0.4772 -0.3627
  744MOL0     C  310   2.675   3.598  10.156 -0.1503  0.5279 -0.2690
  744MOL0     C  311   2.619   3.531  10.052  0.1801  0.0744 -0.9852
  744MOL0     C  312   2.690   3.423   9.997  0.0438  0.3974  0.3108
  744MOL0     O  313   2.629   3.349   9.903  0.7132  0.6113  0.1522
  744MOL0     C  314   2.639   3.214   9.914  0.2158  0.5107  0.2182
  744MOL0     C  315   2.520   3.138   9.840 -0.3113  0.2238  0.6030
  744MOL0     C  316   2.536   3.140   9.684  0.3265 -0.4415  0.6420
  744MOL0     C  317   2.440   3.041   9.623  0.5165 -0.7387  0.4519
  744MOL0     C  318   2.473   3.037   9.465 -0.8009 -0.3133  0.1078
  744MOL0     C  319   2.402   2.927   9.394 -0.1637  0.2640  0.1854
  744MOL0     C  320   2.420   2.919   9.234  0.6347  0.3076  0.2244
  744MOL0     C  321   2.321   3.022   9.180  0.1631 -0.2876 -0.2902
  744MOL0     N  322   2.287   3.004   9.041 -0.1651 -0.4748  0.2680
  744MOL0     C  323   2.375   2.963   8.944 -0.3839  0.5420  1.0840
  744MOL0     C  324   2.296   2.927   8.841 -0.3455 -0.0107  0.2287
  744MOL0     C  325   2.347   2.892   8.702 -0.1500 -0.4666 -0.8858
  744MOL0     C  326   2.408   2.757   8.694  0.6157  1.1179  0.0632
  744MOL0     C  327   2.461   2.731   8.554 -0.7353 -0.3704  0.2655
  744MOL0     C  328   2.550   2.842   8.486 -0.8050  0.2175 -0.5975
  744MOL0     O  329   2.655   2.875   8.583 -0.4142 -0.3124 -0.3527
  744MOL0     C  330   2.784   2.813   8.578 -1.4896  0.1436  0.3920
  744MOL0     C  331   2.891   2.875   8.655 -0.1641  0.1938  0.9969
  744MOL0     C  332   3.023   2.831   8.642  1.0038  0.8383  0.7390
  744MOL0     C  333   3.053   2.738   8.545  0.0759  0.6967  0.1551
  744MOL0     C  334   3.192   2.703   8.534 -0.8828  0.1503  0.1030
  744MOL0     O  335   3.274   2.753   8.627 -0.4047 -0.6693  0.3715
  744MOL0     C  336   3.409   2.707   8.638  0.0535  0.3029  0.2347
  744MOL0     C  337   3.500   2.735   8.535 -0.3881  1.1459 -0.0001
  744MOL0     C  338   3.628   2.692   8.549 -0.6918 -0.3846 -0.8424
  744MOL0     C  339   3.673   2.632   8.672  0.5783  0.0617  0.1147
  744MOL0     O  340   3.811   2.618   8.685 -0.0579 -0.1814  0.2730
  744MOL0     C  341   3.868   2.559   8.799 -0.0724 -0.6432 -0.0961
  744MOL0     C  342   4.010   2.629   8.830 -0.6364  0.1344 -0.4342
  744MOL0     C  343   4.093   2.640   8.702  0.3413  1.0763  0.4708
  744MOL0     C  344   4.242   2.661   8.728 -0.0710  0.1603  0.1518
  744MOL0     C  345   4.333   2.671   8.602 -0.0284  0.1273  0.0621
  744MOL0     C  346   4.355   2.541   8.533  0.5686 -0.4983  0.2878
  744MOL0     C  347   4.497   2.540   8.484  0.4949  0.6084  0.1638
  744MOL0     C  348   4.602   2.494   8.599  0.8512  0.6937 -0.0601
  744MOL0    Cl  349   4.634   2.316   8.586  0.2472 -0.2361  0.1707
  744MOL0     C  350   3.576   2.596   8.763 -0.4603  0.1463 -0.6854
  744MOL0     C  351   3.449   2.638   8.754  0.1616  0.5496  0.7553
  744MOL0     O  352   3.224   2.623   8.450  0.7894  0.9888 -0.4086
  744MOL0     C  353   2.952   2.680   8.474  0.0337  0.8023 -0.3596
  744MOL0     C  354   2.818   2.710   8.492 -0.1589  0.2102 -0.2616
  744MOL0     N  355   2.160   2.951   8.877 -0.1334 -0.4109  0.5719
  744MOL0     N  356   2.163   3.002   8.993  0.0164  0.1547  0.0177
  744MOL0     C  357   2.827   3.407  10.024 -0.5520  0.1574 -0.0021
  744MOL0     C  358   2.881   3.469  10.135  0.9387 -0.5285 -0.2981
  744MOL0     C  359   3.039   3.646  10.459 -0.1476 -0.0049  0.8542
  744MOL0     C  360   3.158   3.715  10.488  1.0650 -0.2013 -0.0737
  744MOL0     C  361   3.221   3.705  10.610 -0.3920  0.4279  1.0725
  744MOL0     C  362   3.161   3.626  10.712  0.3468 -0.4200  0.1933
  744MOL0     O  363   3.216   3.598  10.831 -0.1432 -0.7526  0.1541
  744MOL0     C  364   3.168   3.677  10.940  0.3715  1.0851  0.5448
  744MOL0     C  365   3.175   3.830  10.919  0.1740  0.1481 -0.1618
  744MOL0     C  366   3.318   3.882  10.928  0.3297  0.1983  0.2950
  744MOL0     C  367   3.331   4.024  10.867  0.3444  0.2427  0.0264
  744MOL0     C  368   3.470   4.072  10.887  1.0549  0.0498 -0.4829
  744MOL0     C  369   3.578   4.114  10.898 -0.2940 -0.3615 -0.1652
  744MOL0     C  370   3.037   3.572  10.684 -0.2758 -1.0269  0.5476
  744MOL0     C  371   2.968   3.585  10.561 -1.0824 -0.0700  0.2056
  744MOL0     C  372   2.826   3.535  10.557  0.2307 -0.7203  0.0634
  744MOL0     H  373   2.625   3.678  10.211 -0.8889 -1.1361  1.6473
  744MOL0     H  374   2.517   3.548  10.021 -0.2418  2.1341  1.2554
  744MOL0     H  375   2.731   3.184   9.864 -0.4142 -0.9765 -0.1276
  744MOL0     H  376   2.653   3.197  10.022 -1.3337  0.9207  0.5190
  744MOL0     H  377   2.424   3.186   9.863 -1.7288 -0.9628 -2.4157
  744MOL0     H  378   2.516   3.035   9.876 -0.2238  0.4622  1.3209
  744MOL0     H  379   2.638   3.111   9.656  0.0980 -0.5419 -0.1019
  744MOL0     H  380   2.519   3.238   9.639  4.8022 -0.1002 -0.7815
  744MOL0     H  381   2.452   2.942   9.667 -0.0481 -1.2189 -0.4375
  744MOL0     H  382   2.335   3.070   9.636  1.3725  3.4213 -0.5382
  744MOL0     H  383   2.439   3.131   9.421  1.0819 -0.1322 -1.0710
  744MOL0     H  384   2.580   3.027   9.447 -0.5352  3.4000 -1.0381
  744MOL0     H  385   2.458   2.839   9.426  1.8341  1.7412  0.9481
  744MOL0     H  386   2.297   2.911   9.420 -1.1117  2.5847 -1.8121
  744MOL0     H  387   2.381   2.823   9.202  1.3911  0.6686 -1.9089
  744MOL0     H  388   2.526   2.923   9.206  0.9109 -2.9815  0.4353
  744MOL0     H  389   2.229   3.019   9.240 -0.0853 -2.1680 -0.7195
  744MOL0     H  390   2.359   3.124   9.196 -1.6918  0.5324 -0.8141
  744MOL0     H  391   2.481   2.948   8.957 -0.4778  0.8032  2.3659
  744MOL0     H  392   2.273   2.916   8.626  1.1673  0.5346 -1.8957
  744MOL0     H  393   2.422   2.969   8.683 -0.6576  1.1201  2.7100
  744MOL0     H  394   2.497   2.747   8.758  0.2258 -1.9799  0.2643
  744MOL0     H  395   2.341   2.680   8.735  0.6536  1.3536  0.5792
  744MOL0     H  396   2.376   2.709   8.488  0.2042  0.9932 -1.4756
  744MOL0     H  397   2.530   2.646   8.561 -1.6659 -1.2169 -0.3812
  744MOL0     H  398   2.493   2.933   8.463 -3.0569 -0.6756  1.0334
  744MOL0     H  399   2.606   2.804   8.400  0.0312 -0.9085  0.4012
  744MOL0     H  400   2.864   2.966   8.708 -3.8064 -2.5715  4.4692
  744MOL0     H  401   3.101   2.883   8.695  3.9232 -3.1037  0.7489
  744MOL0     H  402   3.477   2.782   8.440 -0.9975 -0.8464 -0.9062
  744MOL0     H  403   3.698   2.704   8.466  2.6374 -3.1342  1.2807
  744MOL0     H  404   3.802   2.565   8.886  1.4659 -2.3218  1.2805
  744MOL0     H  405   3.881   2.453   8.776  1.7986 -0.6269  0.6251
  744MOL0     H  406   3.987   2.730   8.865  5.1542  1.1077  1.5738
  744MOL0     H  407   4.057   2.570   8.909  0.3063  1.4620  0.0271
  744MOL0     H  408   4.085   2.550   8.640 -1.2688  0.1081  2.0153
  744MOL0     H  409   4.051   2.715   8.634  0.4240 -1.0488 -2.1220
  744MOL0     H  410   4.268   2.578   8.794 -2.7611  0.2878  1.4945
  744MOL0     H  411   4.244   2.751   8.790  1.7165  0.7257 -0.6661
  744MOL0     H  412   4.428   2.711   8.639 -0.3491  0.4595  0.5420
  744MOL0     H  413   4.285   2.750   8.543 -0.1300 -0.3240 -0.4603
  744MOL0     H  414   4.324   2.454   8.593 -1.9036 -0.5573 -0.9706
  744MOL0     H  415   4.293   2.533   8.444 -0.3657 -0.1221  0.8896
  744MOL0     H  416   4.529   2.637   8.445  0.3853 -1.2894 -5.5147
  744MOL0     H  417   4.505   2.470   8.400  2.6606  0.9757  0.0064
  744MOL0     H  418   4.689   2.559   8.596  0.9269  0.6305  0.5573
  744MOL0     H  419   4.563   2.514   8.700  0.3931  2.4696 -0.5475
  744MOL0     H  420   3.603   2.572   8.865  0.0710  1.3671 -0.5171
  744MOL0     H  421   3.383   2.618   8.839 -0.0675 -0.3901  0.3759
  744MOL0     H  422   2.968   2.605   8.397 -0.2728  0.2454  0.1130
  744MOL0     H  423   2.736   2.660   8.442 -1.8993  2.0958  0.5408
  744MOL0     H  424   2.884   3.328   9.976  1.1755  0.7751  0.9520
  744MOL0     H  425   2.984   3.442  10.156  1.2512 -1.1403 -2.4591
  744MOL0     H  426   3.212   3.756  10.403 -3.2221  1.0121 -2.5031
  744MOL0     H  427   3.323   3.739  10.624 -0.2993 -0.0443  1.5707
  744MOL0     H  428   3.231   3.648  11.025 -0.2759  2.1865  1.4280
  744MOL0     H  429   3.065   3.651  10.967  0.1156  1.9848  0.4686
  744MOL0     H  430   3.114   3.869  11.001 -1.3377 -1.1327 -0.6295
  744MOL0     H  431   3.129   3.856  10.823  0.7146  1.4709 -0.0789
  744MOL0     H  432   3.390   3.819  10.875  0.7211 -1.0174  2.1673
  744MOL0     H  433   3.350   3.891  11.032 -1.5420 -0.0951  0.9343
  744MOL0     H  434   3.315   4.011  10.760  1.4420  2.1573 -0.4013
  744MOL0     H  435   3.262   4.089  10.922 -1.0100 -0.3756 -0.8838
  744MOL0     H  436   3.681   4.135  10.918 -0.0304  2.0927 -3.2389
  744MOL0     H  437   2.986   3.530  10.770  0.5576 -1.1143  1.0024
  744MOL0     H  438   2.756   3.613  10.527  0.8230 -1.1356 -2.6987
  744MOL0     H  439   2.814   3.457  10.481  2.2804  0.4146 -1.5478
  744MOL0     H  440   2.802   3.495  10.656  1.4542 -1.0372  0.2533
  745MOL0     O  441   0.965  11.178   4.062 -0.4174  0.0425 -0.1559
  745MOL0     C  442   0.895  11.277   4.097 -0.7061  0.2604  0.8406
  745MOL0     O  443   0.774  11.296   4.049 -0.7276  0.3239  0.1260
  745MOL0     C  444   0.704  11.190   4.000 -0.5245 -0.8029  0.8283
  745MOL0     C  445   0.628  11.208   3.890  0.5800  0.1920  0.0281
  745MOL0     C  446   0.553  11.100   3.835 -0.0457 -1.2445  0.1348
  745MOL0     C  447   0.550  10.978   3.902 -0.1060  1.5523  0.6693
  745MOL0     O  448   0.484  10.873   3.844  0.3223  0.2109  1.3553
  745MOL0     C  449   0.457  10.755   3.912  0.0434  0.2994  0.5171
  745MOL0     C  450   0.390  10.654   3.807 -0.5254 -0.7694  0.3719
  745MOL0     C  451   0.416  10.680   3.657  0.2327 -0.1899 -0.1233
  745MOL0     C  452   0.354  10.561   3.574  0.0084 -0.7485 -0.0144
  745MOL0     C  453   0.399  10.562   3.431 -0.3341 -0.6143 -0.1321
  745MOL0     C  454   0.348  10.443   3.344 -0.0382 -0.5025  0.4797
  745MOL0     C  455   0.415  10.436   3.209  0.1227  0.2093  0.6539
  745MOL0     C  456   0.366  10.538   3.114  0.1353  0.1164 -0.9053
  745MOL0     N  457   0.399  10.531   2.974 -0.0029  0.8072  1.1659
  745MOL0     C  458   0.384  10.419   2.893  0.4798  0.1159  0.1315
  745MOL0     C  459   0.453  10.442   2.785 -0.8456 -0.0429  0.5990
  745MOL0     C  460   0.444  10.352   2.668  0.0799  0.4716  0.5930
  745MOL0     C  461   0.588  10.313   2.615 -0.8102  0.4345 -0.1454
  745MOL0     C  462   0.674  10.228   2.723 -0.3468  0.0943 -0.2925
  745MOL0     C  463   0.812  10.187   2.673  0.4319 -0.8812 -0.2449
  745MOL0     O  464   0.853  10.095   2.780 -0.3449  0.0168  0.1796
  745MOL0     C  465   0.984  10.092   2.818  0.0168 -0.5369  0.1182
  745MOL0     C  466   1.085  10.075   2.732 -0.2280 -0.3062  0.2523
  745MOL0     C  467   1.225  10.094   2.762  0.5400  0.3382  0.4930
  745MOL0     C  468   1.253  10.105   2.899 -0.8635  0.0346 -0.6581
  745MOL0     C  469   1.396  10.111   2.932 -0.5165  1.5872  0.2801
  745MOL0     O  470   1.480  10.044   2.839 -0.6438  0.8950  0.1948
  745MOL0     C  471   1.611  10.072   2.841 -0.5195 -0.7284  0.0720
  745MOL0     C  472   1.689  10.065   2.951  0.8840 -0.2425 -0.2014
  745MOL0     C  473   1.822  10.110   2.939  0.0549 -0.0274  0.3657
  745MOL0     C  474   1.871  10.152   2.810 -0.1518  0.0778 -0.1197
  745MOL0     O  475   2.000  10.202   2.798  0.2183 -0.1537 -0.0631
  745MOL0     C  476   2.024  10.331   2.869 -0.1147 -0.5927 -0.4256
  745MOL0     C  477   2.149  10.395   2.814 -0.8590  0.0998 -0.7558
  745MOL0     C  478   2.145  10.439   2.663 -0.3466  0.5154 -0.2902
  745MOL0     C  479   2.262  10.537   2.637  0.3563  0.4619  0.9070
  745MOL0     C  480   2.267  10.584   2.493 -0.4993 -0.3562  0.2152
  745MOL0     C  481   2.361  10.705   2.468 -0.7825  0.0611  0.4290
  745MOL0     C  482   2.508  10.673   2.461  0.1144  1.2185  0.5696
  745MOL0     C  483   2.528  10.610   2.324  0.6931  0.6151  0.0691
  745MOL0    Cl  484   2.711  10.602   2.321 -0.1987  0.4644  0.4393
  745MOL0     C  485   1.787  10.149   2.693  0.2593  0.4044  0.4363
  745MOL0     C  486   1.661  10.101   2.709  1.2910 -0.4841 -0.3684
  745MOL0     O  487   1.433  10.194   3.014  0.2884 -1.0876 -0.4731
  745MOL0     C  488   1.151  10.108   2.993 -0.5572  0.1973  0.6576
  745MOL0     C  489   1.011  10.106   2.949 -0.4143 -0.1294  0.3655
  745MOL0     N  490   0.508  10.570   2.791  0.3572  0.0982  0.4285
  745MOL0     N  491   0.477  10.624   2.911 -0.2392  0.6120  0.0874
  745MOL0     C  492   0.625  10.958   4.013  0.0465  0.8386 -0.1213
  745MOL0     C  493   0.698  11.070   4.065  0.0021  0.6868 -0.5722
  745MOL0     C  494   0.966  11.393   4.156 -0.0729  1.0685 -1.0912
  745MOL0     C  495   0.902  11.517   4.146 -0.6218 -0.3137 -0.4304
  745MOL0     C  496   0.950  11.638   4.207 -0.2992  0.1482 -0.5218
  745MOL0     C  497   1.082  11.630   4.258  0.2140  0.6139  0.2668
  745MOL0     O  498   1.153  11.737   4.300 -0.0912 -0.9922  0.2591
  745MOL0     C  499   1.129  11.764   4.443 -0.7262 -1.2227 -0.2266
  745MOL0     C  500   1.203  11.890   4.489  0.1220  0.3313 -0.8189
  745MOL0     C  501   1.354  11.890   4.482 -0.7195  0.2432  0.8929
  745MOL0     C  502   1.407  12.017   4.556 -0.1175  0.4253 -0.4049
  745MOL0     C  503   1.423  11.997   4.700  0.7494 -0.2899 -0.0960
  745MOL0     C  504   1.424  11.973   4.815  0.4643 -0.0534 -0.8759
  745MOL0     C  505   1.143  11.505   4.275 -0.3495  0.4520 -0.0595
  745MOL0     C  506   1.087  11.382   4.235  0.7873 -0.2838  0.0299
  745MOL0     C  507   1.154  11.250   4.263  0.4650  0.1379  0.1601
  745MOL0     H  508   0.620  11.294   3.825 -3.4565  0.0893  0.1489
  745MOL0     H  509   0.494  11.131   3.749 -0.0334 -0.9120  0.2487
  745MOL0     H  510   0.548  10.711   3.954  0.3631  1.1486  0.7347
  745MOL0     H  511   0.385  10.769   3.993 -1.6317 -0.9034 -0.6913
  745MOL0     H  512   0.283  10.660   3.827 -0.1139  0.7857  2.5982
  745MOL0     H  513   0.423  10.551   3.820  0.6563 -0.4855 -0.2647
  745MOL0     H  514   0.523  10.682   3.635  0.2175 -2.8255 -0.7524
  745MOL0     H  515   0.367  10.776   3.636 -1.8066 -0.9761  0.7664
  745MOL0     H  516   0.375  10.463   3.619  0.7838  0.5389  2.6795
  745MOL0     H  517   0.246  10.557   3.592  0.2116 -0.0283  1.6015
  745MOL0     H  518   0.362  10.657   3.390 -2.8380 -0.2306  2.6660
  745MOL0     H  519   0.508  10.554   3.431 -0.2899 -0.2351 -1.2332
  745MOL0     H  520   0.353  10.344   3.391 -3.8246 -0.5333  1.1483
  745MOL0     H  521   0.242  10.460   3.324  0.3243 -0.2191 -1.4708
  745MOL0     H  522   0.395  10.337   3.166 -0.1954 -0.5316  2.4253
  745MOL0     H  523   0.523  10.448   3.226 -0.0279  3.3537 -0.0352
  745MOL0     H  524   0.256  10.536   3.109  0.0394 -3.6089 -0.1477
  745MOL0     H  525   0.405  10.632   3.155 -0.1522 -0.8251  1.6904
  745MOL0     H  526   0.324  10.329   2.910  1.0683 -0.5359 -1.1212
  745MOL0     H  527   0.381  10.263   2.676 -0.6908  0.9329 -0.1966
  745MOL0     H  528   0.401  10.409   2.586 -0.7826 -1.8496 -0.6538
  745MOL0     H  529   0.582  10.264   2.517  1.9337 -0.6588  0.1629
  745MOL0     H  530   0.645  10.403   2.591 -0.2375 -0.4857 -2.5596
  745MOL0     H  531   0.622  10.134   2.746  1.9671 -0.8145  1.6490
  745MOL0     H  532   0.684  10.283   2.817 -1.4254 -0.4984  0.1862
  745MOL0     H  533   0.877  10.274   2.658  0.2498 -1.0608 -2.3985
  745MOL0     H  534   0.800  10.128   2.581 -1.9222  1.2975 -1.4597
  745MOL0     H  535   1.048  10.061   2.631 -1.0800  0.3006  0.4666
  745MOL0     H  536   1.294  10.096   2.678 -1.1366 -1.3215 -1.0287
  745MOL0     H  537   1.650  10.048   3.050  0.2907 -0.0192 -0.3923
  745MOL0     H  538   1.888  10.098   3.024 -1.3590 -2.1362  1.2378
  745MOL0     H  539   1.940  10.399   2.854  0.4201 -0.1595 -1.5688
  745MOL0     H  540   2.034  10.322   2.978 -0.3997  3.7260  0.1034
  745MOL0     H  541   2.188  10.477   2.875 -0.3580 -0.1449 -0.7422
  745MOL0     H  542   2.225  10.321   2.839 -0.3105  1.0578  0.5701
  745MOL0     H  543   2.153  10.348   2.602 -0.6411 -0.1137  0.5990
  745MOL0     H  544   2.052  10.494   2.649  0.5606  1.7597 -1.6939
  745MOL0     H  545   2.359  10.493   2.662  1.3911  0.1751 -3.0474
  745MOL0     H  546   2.243  10.626   2.697 -1.0892  1.7492 -1.3187
  745MOL0     H  547   2.163  10.616   2.481 -0.9951 -1.0901  2.1073
  745MOL0     H  548   2.286  10.502   2.424  0.9938  0.5182 -0.4612
  745MOL0     H  549   2.332  10.754   2.375  1.2948 -1.1771 -0.9452
  745MOL0     H  550   2.343  10.789   2.536 -1.3284  0.3470 -0.0551
  745MOL0     H  551   2.540  10.606   2.542 -1.0070 -2.1500 -1.5857
  745MOL0     H  552   2.553  10.772   2.458 -0.0718  1.2857 -1.7936
  745MOL0     H  553   2.495  10.506   2.316  0.1728  0.7375  0.5639
  745MOL0     H  554   2.476  10.665   2.245 -0.6309  0.5808  0.8829
  745MOL0     H  555   1.818  10.189   2.597 -2.2928  0.9829 -0.2148
  745MOL0     H  556   1.590  10.095   2.627 -0.3910  0.6892  0.9517
  745MOL0     H  557   1.182  10.112   3.097  1.6960 -3.2865  0.2909
  745MOL0     H  558   0.931  10.108   3.022 -1.6267  0.3240 -0.9380
  745MOL0     H  559   0.634  10.858   4.055 -2.7875  1.1555  1.5105
  745MOL0     H  560   0.755  11.049   4.155  1.1136 -0.7421 -1.5539
  745MOL0     H  561   0.811  11.517   4.086  1.0191  0.7331 -3.1197
  745MOL0     H  562   0.903  11.736   4.197  0.6337  0.6579 -0.0754
  745MOL0     H  563   1.177  11.685   4.501 -0.8203 -0.8578  0.3527
  745MOL0     H  564   1.023  11.764   4.472 -0.1115 -2.2713  2.2948
  745MOL0     H  565   1.168  11.892   4.592 -2.3344  0.9037 -1.6001
  745MOL0     H  566   1.158  11.979   4.445 -1.5083  2.5824  4.6057
  745MOL0     H  567   1.388  11.867   4.381  0.4744 -3.2111  1.9290
  745MOL0     H  568   1.386  11.798   4.532  1.2404 -1.6646 -3.4335
  745MOL0     H  569   1.503  12.050   4.516 -0.5931  2.3239 -0.0782
  745MOL0     H  570   1.339  12.100   4.537 -0.5743 -0.0214 -0.7720
  745MOL0     H  571   1.423  11.954   4.921 -1.7884 -2.2545 -1.1907
  745MOL0     H  572   1.248  11.501   4.303  0.5097 -0.1817 -3.0104
  745MOL0     H  573   1.212  11.229   4.173  2.5407 -1.6074  1.8103
  745MOL0     H  574   1.222  11.257   4.349 -0.0907 -1.0889  0.7264
  745MOL0     H  575   1.087  11.169   4.291  2.3136 -1.6722 -0.4453
  746MOL0     O  576   6.653   3.200   0.579 -0.0198 -0.2234  0.2154
  746MOL0     C  577   6.578   3.130   0.647  0.9035 -0.0641  0.5506
  746MOL0     O  578   6.620   3.036   0.733 -0.5789  0.0307 -1.0032
  746MOL0     C  579   6.760   3.008   0.751 -0.4610  0.2988  0.2464
  746MOL0     C  580   6.808   2.982   0.879  0.9993  0.1421 -0.1171
  746MOL0     C  581   6.937   2.938   0.901  0.0902 -0.0331 -0.2519
  746MOL0     C  582   7.030   2.939   0.798 -0.6183 -0.2622  0.6803
  746MOL0     O  583   7.165   2.915   0.802 -0.6834 -0.5689  0.5253
  746MOL0     C  584   7.227   2.852   0.906  0.3814 -0.4513  0.3408
  746MOL0     C  585   7.372   2.833   0.869  0.1309  0.2674  1.2885
  746MOL0     C  586   7.383   2.741   0.744  0.5944  0.0290 -0.4315
  746MOL0     C  587   7.513   2.670   0.751  0.2102  0.4209  0.7325
  746MOL0     C  588   7.523   2.567   0.638  0.2155  0.0966  0.2665
  746MOL0     C  589   7.640   2.474   0.673 -0.2164 -0.3094  0.5454
  746MOL0     C  590   7.774   2.544   0.663  0.2767  0.1281 -0.6915
  746MOL0     C  591   7.901   2.457   0.703 -0.1309  0.4811  0.8107
  746MOL0     N  592   7.879   2.322   0.652 -0.0036  0.2859  0.6530
  746MOL0     C  593   7.852   2.293   0.517  0.8703  0.6003  0.5383
  746MOL0     C  594   7.839   2.157   0.517  0.5810 -0.9560 -0.2524
  746MOL0     C  595   7.781   2.073   0.402  0.1328 -0.0070  0.4155
  746MOL0     C  596   7.859   1.947   0.364  0.3506 -0.2001 -0.0407
  746MOL0     C  597   7.966   1.991   0.263 -0.3653  0.5950 -0.0169
  746MOL0     C  598   8.067   1.878   0.247  0.3117 -0.6746  0.4204
  746MOL0     O  599   8.002   1.756   0.193 -0.1640 -0.5622  0.3168
  746MOL0     C  600   8.095   1.650   0.206  0.4734  0.8382 -0.6229
  746MOL0     C  601   8.041   1.536   0.143  0.1216  0.5751  0.6338
  746MOL0     C  602   8.119   1.411   0.133 -0.4952 -0.5889 -0.5361
  746MOL0     C  603   8.239   1.405   0.194  0.4083 -0.9968 -0.6333
  746MOL0     C  604   8.328   1.292   0.184 -0.0811  0.6476  1.0678
  746MOL0     O  605   8.452   1.311   0.240 -0.4698 -0.1500 -1.2429
  746MOL0     C  606   8.552   1.217   0.206  1.4154 -0.9543 -0.5524
  746MOL0     C  607   8.602   1.208   0.069  0.1471  0.1442  0.0689
  746MOL0     C  608   8.711   1.128   0.039  0.2183  0.6577  0.3454
  746MOL0     C  609   8.768   1.053   0.128  0.1126 -0.2303 -0.5128
  746MOL0     O  610   8.874   0.970   0.094 -0.1214 -0.9075 -0.7959
  746MOL0     C  611   8.902   0.844   0.146  1.4909  0.2909 -0.2703
  746MOL0     C  612   9.042   0.834   0.211  0.0082  0.1133 -0.5384
  746MOL0     C  613   9.160   0.822   0.118  0.7093  0.1056  0.0716
  746MOL0     C  614   9.181   0.677   0.063  0.7982  0.1996  0.2155
  746MOL0     C  615   9.309   0.662  -0.020  0.2296  0.7047 -0.1118
  746MOL0     C  616   9.438   0.688   0.060  0.9573 -1.1176 -1.2521
  746MOL0     C  617   9.563   0.672  -0.026 -0.7372  0.0735  0.0618
  746MOL0     C  618   9.684   0.704   0.058 -0.0993 -0.3325  0.1133
  746MOL0    Cl  619   9.824   0.632  -0.028 -0.3025 -0.0436 -0.5732
  746MOL0     C  620   8.722   1.052   0.260 -0.7986  0.4192 -1.0935
  746MOL0     C  621   8.624   1.145   0.295  1.3306  0.9203 -0.2666
  746MOL0     O  622   8.292   1.186   0.120 -0.3427 -0.0845 -0.1703
  746MOL0     C  623   8.283   1.521   0.269  0.1951  0.2688 -0.1776
  746MOL0     C  624   8.211   1.637   0.269 -0.3357 -0.0391 -0.5518
  746MOL0     N  625   7.857   2.112   0.646 -0.8252  0.2977  0.0412
  746MOL0     N  626   7.882   2.205   0.726 -0.1543  0.2749  0.2074
  746MOL0     C  627   6.987   2.966   0.664  0.6464  0.6640  0.4754
  746MOL0     C  628   6.851   2.995   0.638  0.6297  0.4910 -0.4662
  746MOL0     C  629   6.431   3.170   0.644  0.1653  0.2256  0.2665
  746MOL0     C  630   6.348   3.055   0.655  0.4014 -0.4523 -0.6161
  746MOL0     C  631   6.206   3.077   0.654 -0.7486  0.2224  0.7141
  746MOL0     C  632   6.151   3.207   0.649 -0.5996 -0.7796  0.8737
  746MOL0     O  633   6.018   3.226   0.678  0.1046 -0.5089  0.2138
  746MOL0     C  634   5.928   3.113   0.701 -0.5005 -0.2280 -0.2089
  746MOL0     C  635   5.796   3.179   0.730  0.3697  0.8093 -0.7146
  746MOL0     C  636   5.701   3.104   0.829  0.1050 -0.1124  0.3022
  746MOL0     C  637   5.689   2.948   0.794 -0.1730 -0.7520  0.5695
  746MOL0     C  638   5.607   2.890   0.902  0.0304 -0.0451  1.2054
  746MOL0     C  639   5.548   2.854   1.001 -0.0124 -0.0105  0.7535
  746MOL0     C  640   6.244   3.309   0.631  0.4761  0.2339 -0.5395
  746MOL0     C  641   6.380   3.298   0.633  0.4910  0.4376  1.0543
  746MOL0     C  642   6.450   3.431   0.635  0.1943  0.2340 -0.0603
  746MOL0     H  643   6.748   2.991   0.969 -1.9102  1.1134 -2.0055
  746MOL0     H  644   6.974   2.905   0.998 -0.5796  0.3354  0.1321
  746MOL0     H  645   7.223   2.918   0.994  1.5551 -2.2057  1.7924
  746MOL0     H  646   7.172   2.760   0.930  0.7631 -0.8838 -0.4062
  746MOL0     H  647   7.428   2.792   0.954  2.5106 -2.4683 -1.3559
  746MOL0     H  648   7.404   2.933   0.840  2.5456 -0.9982 -0.7514
  746MOL0     H  649   7.371   2.794   0.650  0.7584 -1.0520 -1.0856
  746MOL0     H  650   7.295   2.677   0.745  0.2466  0.4778 -1.5368
  746MOL0     H  651   7.594   2.742   0.732  0.3870  0.3341  1.1397
  746MOL0     H  652   7.532   2.623   0.848 -3.0491 -1.1186  0.7386
  746MOL0     H  653   7.431   2.509   0.623  0.5157 -0.1539 -0.6789
  746MOL0     H  654   7.532   2.623   0.544 -2.2709 -0.2609 -0.2563
  746MOL0     H  655   7.627   2.434   0.774 -0.3599  2.0296  1.5137
  746MOL0     H  656   7.634   2.377   0.622 -1.7499 -0.4691  0.9909
  746MOL0     H  657   7.767   2.630   0.729 -1.0488  2.0068 -3.1269
  746MOL0     H  658   7.776   2.578   0.559 -0.7403  1.4653 -0.3060
  746MOL0     H  659   7.994   2.503   0.668 -0.5121  0.4135 -0.3495
  746MOL0     H  660   7.902   2.441   0.811 -1.9523  1.1347  0.9492
  746MOL0     H  661   7.843   2.362   0.433 -0.0484 -0.5386 -0.3215
  746MOL0     H  662   7.678   2.045   0.424 -0.3831  2.0238  0.7738
  746MOL0     H  663   7.772   2.148   0.323  0.2277 -0.3032  0.1233
  746MOL0     H  664   7.910   1.901   0.449  0.7060 -0.0748 -0.1812
  746MOL0     H  665   7.789   1.873   0.324  1.5029 -0.4311 -1.7655
  746MOL0     H  666   8.021   2.083   0.281  2.2466 -0.8816  0.0531
  746MOL0     H  667   7.909   2.005   0.171 -0.0911 -1.7668 -0.6258
  746MOL0     H  668   8.111   1.855   0.344  1.2831 -2.9010 -0.4904
  746MOL0     H  669   8.148   1.900   0.176  0.1896  0.9454  0.7482
  746MOL0     H  670   7.941   1.548   0.103  0.0446 -0.9682  0.3281
  746MOL0     H  671   8.082   1.331   0.070 -0.7959 -0.9461  0.0922
  746MOL0     H  672   8.552   1.262  -0.011  1.8639  1.9490  0.1345
  746MOL0     H  673   8.744   1.122  -0.064  0.0285 -0.2876  0.3346
  746MOL0     H  674   8.821   0.811   0.211 -0.4654  0.8936 -2.2556
  746MOL0     H  675   8.901   0.772   0.064 -1.2646  1.6925 -1.6185
  746MOL0     H  676   9.044   0.924   0.274 -1.4090 -1.1042  1.3844
  746MOL0     H  677   9.039   0.752   0.283 -1.6658  1.9711  1.6797
  746MOL0     H  678   9.149   0.891   0.033  0.0027 -0.3721 -0.2369
  746MOL0     H  679   9.248   0.845   0.178 -0.4193 -1.4083  2.4747
  746MOL0     H  680   9.090   0.651   0.008  1.5971  1.4679 -1.8499
  746MOL0     H  681   9.176   0.608   0.147  1.2319  1.6698  1.4872
  746MOL0     H  682   9.297   0.736  -0.100 -1.3231 -0.2486 -0.8102
  746MOL0     H  683   9.321   0.567  -0.073 -1.0505  0.5471 -0.1435
  746MOL0     H  684   9.434   0.793   0.089 -1.5736 -1.0384 -1.6781
  746MOL0     H  685   9.445   0.622   0.147  2.1798  2.6992  1.8361
  746MOL0     H  686   9.566   0.732  -0.117  1.6388 -1.5342 -1.0558
  746MOL0     H  687   9.567   0.564  -0.044 -2.7277 -0.3195  1.6088
  746MOL0     H  688   9.701   0.812   0.067  1.6926 -0.5118 -0.6107
  746MOL0     H  689   9.657   0.656   0.152 -1.0635  1.4206  0.7794
  746MOL0     H  690   8.774   1.000   0.340  0.1118 -1.2837 -2.7324
  746MOL0     H  691   8.599   1.159   0.400 -1.4537  2.0765 -0.9982
  746MOL0     H  692   8.380   1.517   0.316  0.2495  0.5968 -0.2575
  746MOL0     H  693   8.259   1.719   0.323  0.1953 -0.2324 -0.7179
  746MOL0     H  694   7.058   2.950   0.585 -1.2415 -0.7871 -1.0483
  746MOL0     H  695   6.808   3.005   0.538  0.3647 -0.2256 -0.4316
  746MOL0     H  696   6.378   2.950   0.661  1.6120 -0.0485  1.3234
  746MOL0     H  697   6.150   2.984   0.650 -0.8355  0.3052 -0.9169
  746MOL0     H  698   5.968   3.050   0.782 -2.9632 -1.2132  0.3262
  746MOL0     H  699   5.917   3.050   0.613 -1.4745 -2.1628  1.2119
  746MOL0     H  700   5.747   3.171   0.632  1.4336  1.0590 -1.2861
  746MOL0     H  701   5.796   3.281   0.772  1.2502  0.6313 -0.2690
  746MOL0     H  702   5.600   3.146   0.839 -1.6429 -4.2390  3.5618
  746MOL0     H  703   5.734   3.113   0.933  1.1339 -0.9339  0.0600
  746MOL0     H  704   5.655   2.944   0.691  1.4615  2.8093 -0.2399
  746MOL0     H  705   5.784   2.895   0.782 -0.7326 -1.5998 -0.2338
  746MOL0     H  706   5.490   2.851   1.091  0.1591  0.4689  0.8841
  746MOL0     H  707   6.198   3.407   0.621  0.4598  0.0960 -2.0414
  746MOL0     H  708   6.381   3.513   0.612  3.9484  3.3268 -1.3804
  746MOL0     H  709   6.493   3.447   0.734 -0.1744 -0.7102  0.2601
  746MOL0     H  710   6.523   3.449   0.555 -1.5682  2.0961 -1.3485
  747MOL0     O  711   4.429   6.418   7.008 -0.5417 -0.3594 -1.1349
  747MOL0     C  712   4.449   6.519   7.075 -0.5746 -0.2268  0.4894
  747MOL0     O  713   4.352   6.586   7.142  1.1355  0.8036  0.1995
  747MOL0     C  714   4.224   6.532   7.142 -0.5182 -0.2567  0.1656
  747MOL0     C  715   4.135   6.551   7.034 -0.2747 -0.7592  0.5462
  747MOL0     C  716   4.008   6.506   7.050  0.4998  0.4190 -0.2385
  747MOL0     C  717   3.955   6.447   7.167  0.0855  0.1333 -0.0051
  747MOL0     O  718   3.824   6.400   7.166  0.5876 -0.5060  0.9146
  747MOL0     C  719   3.764   6.377   7.287  0.4748 -0.2532 -0.5365
  747MOL0     C  720   3.617   6.362   7.292 -0.5160 -0.5888  0.4494
  747MOL0     C  721   3.557   6.312   7.428 -0.8040 -0.1780 -0.3843
  747MOL0     C  722   3.405   6.319   7.427  0.0560 -0.4323 -0.7222
  747MOL0     C  723   3.350   6.265   7.558 -0.1067  0.2766 -0.3272
  747MOL0     C  724   3.204   6.287   7.556 -0.0963  0.0029 -0.1106
  747MOL0     C  725   3.138   6.213   7.675 -0.1155  0.5325  0.2919
  747MOL0     C  726   2.993   6.231   7.689  0.1480  0.6085  0.6477
  747MOL0     N  727   2.925   6.128   7.761 -0.3350 -0.0250  0.6359
  747MOL0     C  728   2.965   6.005   7.800  0.1566  0.6156  0.5187
  747MOL0     C  729   2.865   5.946   7.869  0.0819 -0.1562  0.7027
  747MOL0     C  730   2.866   5.816   7.946 -0.6647  0.7561  0.1399
  747MOL0     C  731   3.002   5.748   7.960  0.6672 -0.1097  0.5587
  747MOL0     C  732   3.035   5.666   7.831  0.1440 -0.1418  0.2284
  747MOL0     C  733   3.186   5.667   7.816  0.2244  0.3425 -0.3174
  747MOL0     O  734   3.237   5.793   7.766  0.0407  0.5637 -1.0398
  747MOL0     C  735   3.375   5.806   7.760 -0.2951 -0.4234 -0.3452
  747MOL0     C  736   3.435   5.932   7.752  0.1336  0.4278  0.1000
  747MOL0     C  737   3.570   5.963   7.719 -0.4701  0.1511 -0.6214
  747MOL0     C  738   3.662   5.854   7.720 -0.3075  0.6031  0.3437
  747MOL0     C  739   3.803   5.873   7.687 -0.0555 -0.2668  0.0155
  747MOL0     O  740   3.888   5.771   7.710 -0.3765 -0.2256 -0.1387
  747MOL0     C  741   3.970   5.732   7.608  0.3742  0.0980  1.5320
  747MOL0     C  742   4.082   5.660   7.642  0.1545 -0.0424  0.1060
  747MOL0     C  743   4.158   5.589   7.552  0.2908  0.4953 -0.2459
  747MOL0     C  744   4.122   5.582   7.417 -0.6598 -1.1144  0.4672
  747MOL0     O  745   4.204   5.501   7.339  0.2484  0.4144  0.4346
  747MOL0     C  746   4.157   5.449   7.211  0.6006  0.5086 -0.8390
  747MOL0     C  747   4.188   5.552   7.098 -0.4522 -0.2883  0.5387
  747MOL0     C  748   4.208   5.495   6.957 -0.5604 -0.0208  0.9595
  747MOL0     C  749   4.220   5.603   6.838 -0.1723 -0.2203  0.0789
  747MOL0     C  750   4.090   5.695   6.831 -0.0091  0.3082  0.3378
  747MOL0     C  751   4.078   5.787   6.706  0.1649 -0.7086  0.0133
  747MOL0     C  752   4.198   5.880   6.690  0.6950  0.9585  0.4010
  747MOL0     C  753   4.191   5.986   6.583 -0.5411  0.3894 -0.3224
  747MOL0    Cl  754   4.358   6.074   6.571  0.7395 -0.1769 -0.4663
  747MOL0     C  755   4.016   5.671   7.376 -0.1230  0.4055  0.6523
  747MOL0     C  756   3.937   5.734   7.470  0.5856  0.1722 -0.2137
  747MOL0     O  757   3.829   5.973   7.622 -0.4950 -0.4372 -0.3947
  747MOL0     C  758   3.604   5.723   7.742 -0.1111  0.6576  0.7246
  747MOL0     C  759   3.470   5.702   7.765 -0.2759 -0.2306  0.3711
  747MOL0     N  760   2.760   6.039   7.874  0.0484 -0.3666 -0.1640
  747MOL0     N  761   2.792   6.135   7.802 -0.4075 -0.5622  0.0720
  747MOL0     C  762   4.040   6.430   7.275 -0.4074  0.3251  0.3434
  747MOL0     C  763   4.176   6.471   7.264  0.0466  0.5423 -0.2082
  747MOL0     C  764   4.581   6.591   7.071  0.5886 -0.1697 -0.9470
  747MOL0     C  765   4.576   6.727   7.076 -0.2318  0.6326  0.1774
  747MOL0     C  766   4.698   6.796   7.103 -0.1307 -0.1349  1.0085
  747MOL0     C  767   4.824   6.738   7.102 -0.4154 -0.2781  0.1683
  747MOL0     O  768   4.942   6.811   7.095 -0.2410 -0.1631 -0.0728
  747MOL0     C  769   5.032   6.771   7.203 -0.9768 -0.1174  0.9073
  747MOL0     C  770   5.001   6.865   7.321 -0.2967  0.1498  0.4348
  747MOL0     C  771   5.093   6.845   7.438  0.5311  0.1516 -0.0289
  747MOL0     C  772   5.241   6.821   7.403  0.4390  0.6047  0.7773
  747MOL0     C  773   5.297   6.925   7.315  0.1174 -0.1665  0.2332
  747MOL0     C  774   5.348   6.997   7.235 -0.2396 -0.6327 -0.3638
  747MOL0     C  775   4.826   6.598   7.095  0.6967 -0.3145 -0.2472
  747MOL0     C  776   4.708   6.526   7.081  0.1326  0.3133 -0.2544
  747MOL0     C  777   4.713   6.378   7.073  0.2514 -0.6758  0.1423
  747MOL0     H  778   4.168   6.596   6.941 -0.3014  3.4712  2.3426
  747MOL0     H  779   3.939   6.494   6.967 -3.0882  0.8612  2.4387
  747MOL0     H  780   3.803   6.286   7.334 -1.6284 -1.2669 -0.6360
  747MOL0     H  781   3.778   6.471   7.340 -0.4611  0.1531 -0.9723
  747MOL0     H  782   3.587   6.297   7.209  1.0387 -0.1703 -0.5002
  747MOL0     H  783   3.580   6.464   7.277  3.1407  0.9992  0.9575
  747MOL0     H  784   3.592   6.371   7.512 -1.1441  0.1933 -0.4998
  747MOL0     H  785   3.587   6.208   7.445  0.7940  0.3851  0.3890
  747MOL0     H  786   3.378   6.425   7.420 -1.1039 -0.6596 -0.0567
  747MOL0     H  787   3.365   6.273   7.336 -0.3851  1.5235 -1.5594
  747MOL0     H  788   3.376   6.159   7.562  3.3542  1.0060  0.3491
  747MOL0     H  789   3.393   6.328   7.637 -1.0928  0.8879 -0.2545
  747MOL0     H  790   3.196   6.393   7.578 -0.4978  0.2144 -1.2404
  747MOL0     H  791   3.165   6.258   7.458  1.3844  0.4300 -0.8552
  747MOL0     H  792   3.192   6.244   7.766  0.2732 -1.0423  0.6186
  747MOL0     H  793   3.155   6.108   7.652  1.5188  0.9166 -0.4715
  747MOL0     H  794   2.977   6.319   7.753 -2.6854  0.9086 -0.3200
  747MOL0     H  795   2.932   6.252   7.600 -2.2769  2.4211  2.5955
  747MOL0     H  796   3.062   5.962   7.776 -0.2270  0.5123 -0.8887
  747MOL0     H  797   2.836   5.843   8.048  4.3435  3.9831  1.1546
  747MOL0     H  798   2.801   5.745   7.894  0.1898 -1.5383  2.0056
  747MOL0     H  799   3.082   5.822   7.973  1.5035 -1.0784  1.0584
  747MOL0     H  800   2.989   5.686   8.049 -0.7029 -0.7453 -0.0526
  747MOL0     H  801   2.981   5.703   7.743  2.7255 -0.2828 -1.5108
  747MOL0     H  802   3.001   5.563   7.846  2.3568 -0.9698 -0.0967
  747MOL0     H  803   3.223   5.590   7.747  3.9495  2.4635 -1.0032
  747MOL0     H  804   3.230   5.662   7.917  1.6097  1.7913 -0.7960
  747MOL0     H  805   3.369   6.016   7.770 -0.1034  0.0412  1.1154
  747MOL0     H  806   3.603   6.066   7.714 -1.3783  0.4980  0.2243
  747MOL0     H  807   4.105   5.651   7.748 -1.3214  0.2261  0.4643
  747MOL0     H  808   4.231   5.516   7.586  0.5149  1.3880  1.2755
  747MOL0     H  809   4.213   5.357   7.193 -0.1621  0.4321 -3.1235
  747MOL0     H  810   4.050   5.425   7.212  0.5614  0.6833 -0.7486
  747MOL0     H  811   4.099   5.615   7.088 -1.2259 -1.4329 -0.0100
  747MOL0     H  812   4.276   5.612   7.119  1.1099 -0.6647 -3.9551
  747MOL0     H  813   4.303   5.440   6.960 -0.8623 -0.7698 -1.3239
  747MOL0     H  814   4.125   5.430   6.928  0.4281 -0.2906 -1.4843
  747MOL0     H  815   4.240   5.562   6.739 -2.3199  0.3147 -0.6306
  747MOL0     H  816   4.309   5.666   6.849  0.1950 -0.7859  0.4092
  747MOL0     H  817   4.097   5.761   6.918  2.8373 -1.9521  1.9797
  747MOL0     H  818   4.003   5.630   6.827  0.6288 -0.7708  2.5757
  747MOL0     H  819   4.064   5.727   6.615 -2.3033  0.4428 -0.4690
  747MOL0     H  820   3.998   5.862   6.709  0.6840 -0.1138 -0.5981
  747MOL0     H  821   4.285   5.821   6.661 -0.3866 -1.6869  2.1580
  747MOL0     H  822   4.218   5.930   6.785  3.9371 -0.0111  0.3271
  747MOL0     H  823   4.150   5.947   6.489 -2.4035 -0.4837  0.8065
  747MOL0     H  824   4.116   6.056   6.618  0.6993  0.9442  1.3470
  747MOL0     H  825   3.992   5.672   7.270  4.4048  2.2727 -0.5842
  747MOL0     H  826   3.853   5.787   7.427  0.9900  3.7172  2.8061
  747MOL0     H  827   3.662   5.632   7.738  0.6438  1.1137  1.1614
  747MOL0     H  828   3.433   5.602   7.782 -1.4451  0.1691  0.2296
  747MOL0     H  829   3.997   6.400   7.370  0.0160 -1.6298 -0.0303
  747MOL0     H  830   4.237   6.457   7.352  0.0594  1.4432 -0.0635
  747MOL0     H  831   4.479   6.775   7.065 -0.7834 -0.6783 -1.0263
  747MOL0     H  832   4.689   6.903   7.114 -0.5448 -0.1839  1.1459
  747MOL0     H  833   5.126   6.796   7.152 -1.6770  0.6243 -0.0610
  747MOL0     H  834   5.036   6.664   7.222  3.8058 -0.3494 -0.1118
  747MOL0     H  835   4.900   6.860   7.365 -2.2374 -3.0013 -3.7081
  747MOL0     H  836   5.020   6.964   7.278  1.2698 -0.8469 -1.3039
  747MOL0     H  837   5.056   6.764   7.502 -2.4588  1.6854  0.3294
  747MOL0     H  838   5.095   6.933   7.502  2.1192 -0.5600  0.9697
  747MOL0     H  839   5.290   6.819   7.501 -2.7983 -2.1383  2.5458
  747MOL0     H  840   5.258   6.722   7.360 -1.1920  0.3842  0.5784
  747MOL0     H  841   5.415   7.056   7.176  1.3529 -2.8346 -0.8958
  747MOL0     H  842   4.919   6.543   7.094  1.4460  0.9150 -0.7169
  747MOL0     H  843   4.816   6.342   7.069  0.1661 -1.0348  1.0637
  747MOL0     H  844   4.664   6.336   7.161  2.8521 -3.8839  0.2367
  747MOL0     H  845   4.649   6.361   6.985 -2.6007  0.6862  1.7924
  748MOL0     O  846   2.133   2.167   7.623  0.2158 -0.0814  0.9093
  748MOL0     C  847   2.086   2.276   7.645 -0.2880 -0.7657 -0.2186
  748MOL0     O  848   2.150   2.376   7.706 -0.8796  0.2373  1.1784
  748MOL0     C  849   2.284   2.361   7.738  0.3098 -0.7626  0.1275
  748MOL0     C  850   2.381   2.313   7.644 -0.5090 -0.4095 -0.1115
  748MOL0     C  851   2.512   2.302   7.683 -0.0778 -0.3585 -0.1486
  748MOL0     C  852   2.549   2.310   7.817 -0.8033 -1.0325 -0.0994
  748MOL0     O  853   2.678   2.287   7.862 -0.1783  0.0353  0.5910
  748MOL0     C  854   2.789   2.271   7.770  1.0262 -0.2253 -0.3728
  748MOL0     C  855   2.908   2.322   7.839  0.2739 -0.2361  0.2045
  748MOL0     C  856   3.038   2.325   7.751  1.0755  0.7635  0.3515
  748MOL0     C  857   3.151   2.368   7.841 -0.3315 -0.6550  0.2070
  748MOL0     C  858   3.281   2.353   7.751  0.5030 -0.1206 -0.2860
  748MOL0     C  859   3.404   2.388   7.842 -0.3119  0.0909  0.1138
  748MOL0     C  860   3.542   2.321   7.793  0.0469  0.7244 -0.2273
  748MOL0     C  861   3.537   2.169   7.796  0.6876  0.0949 -0.0587
  748MOL0     N  862   3.682   2.113   7.799 -0.1334  0.1766 -0.1074
  748MOL0     C  863   3.745   2.040   7.903  1.2067 -0.2022 -1.0011
  748MOL0     C  864   3.861   2.006   7.862 -0.0073  0.1674 -0.0929
  748MOL0     C  865   3.977   1.932   7.929 -0.3270 -0.0045  0.2066
  748MOL0     C  866   3.981   1.965   8.073  0.1387  0.1634 -0.3422
  748MOL0     C  867   4.111   1.914   8.147 -0.4090  0.4689  0.9627
  748MOL0     C  868   4.230   2.013   8.121 -0.5296 -0.3498  0.5815
  748MOL0     O  869   4.315   1.958   8.015 -0.0123  0.0661  1.0123
  748MOL0     C  870   4.435   1.898   8.059 -0.4041  0.0101  0.0471
  748MOL0     C  871   4.433   1.758   8.089  0.1202 -0.5515  0.2318
  748MOL0     C  872   4.548   1.694   8.133 -0.8463  0.4039  0.3509
  748MOL0     C  873   4.667   1.760   8.137  0.1631  0.1187 -0.6271
  748MOL0     C  874   4.800   1.689   8.162  1.1427  0.3581  0.2494
  748MOL0     O  875   4.918   1.760   8.175 -0.9368  0.4705  0.9668
  748MOL0     C  876   5.038   1.693   8.201 -0.7530  0.7281  0.0080
  748MOL0     C  877   5.141   1.764   8.264 -0.3765 -0.6035 -0.0214
  748MOL0     C  878   5.268   1.714   8.282  0.3192  0.4241  0.1815
  748MOL0     C  879   5.304   1.584   8.249 -0.1020 -0.8792 -0.0821
  748MOL0     O  880   5.427   1.525   8.284 -0.6059 -0.6519  0.4003
  748MOL0     C  881   5.543   1.609   8.301 -0.1548 -0.2395 -0.0800
  748MOL0     C  882   5.668   1.530   8.345 -0.2944  0.4065  0.1218
  748MOL0     C  883   5.733   1.446   8.230 -0.0283 -0.0692 -0.1059
  748MOL0     C  884   5.860   1.404   8.300  0.1680 -0.5353  0.1734
  748MOL0     C  885   5.963   1.359   8.202 -0.7159  0.3414 -0.2746
  748MOL0     C  886   5.991   1.468   8.097 -0.8828  0.0065  0.2518
  748MOL0     C  887   6.114   1.433   8.014  0.5350  0.2184 -0.5349
  748MOL0     C  888   6.109   1.490   7.876 -0.8682  0.7407 -0.5785
  748MOL0    Cl  889   6.145   1.660   7.887  0.4571 -0.3656 -0.2739
  748MOL0     C  890   5.216   1.513   8.180  0.6975 -0.1398 -0.2315
  748MOL0     C  891   5.083   1.560   8.157 -0.3775 -0.6271  0.4627
  748MOL0     O  892   4.795   1.567   8.166  0.3313 -0.4053  0.0295
  748MOL0     C  893   4.670   1.899   8.108  0.6282 -0.0343 -0.3374
  748MOL0     C  894   4.554   1.970   8.065  0.0504  0.3498 -0.4312
  748MOL0     N  895   3.882   2.056   7.733 -0.0441  0.2455 -0.1347
  748MOL0     N  896   3.766   2.108   7.696 -0.4837 -1.1225 -0.0452
  748MOL0     C  897   2.455   2.355   7.910  0.0966 -0.1246  0.5223
  748MOL0     C  898   2.324   2.384   7.869 -0.3992  0.3219 -0.2065
  748MOL0     C  899   1.944   2.302   7.614  0.2688 -0.1424  0.4822
  748MOL0     C  900   1.871   2.198   7.554  0.7744  0.0212 -0.4188
  748MOL0     C  901   1.735   2.213   7.524 -0.0750  0.0106 -0.4793
  748MOL0     C  902   1.656   2.318   7.562 -0.5163 -0.4447  0.2792
  748MOL0     O  903   1.522   2.310   7.541  0.3518  0.2390  0.7910
  748MOL0     C  904   1.451   2.407   7.604  0.0581 -1.1065  0.5648
  748MOL0     C  905   1.309   2.406   7.557  0.6576  0.0387  0.0462
  748MOL0     C  906   1.230   2.270   7.585  0.4639 -0.0081  0.4155
  748MOL0     C  907   1.076   2.286   7.561 -0.3786  0.1120  0.3781
  748MOL0     C  908   1.047   2.337   7.429 -0.1016 -0.5404  0.2736
  748MOL0     C  909   1.015   2.375   7.319  0.0114 -0.0620 -0.3751
  748MOL0     C  910   1.728   2.430   7.616  0.0098 -0.2018  0.3314
  748MOL0     C  911   1.871   2.429   7.629  0.5164  0.6697 -0.2220
  748MOL0     C  912   1.931   2.561   7.681 -0.2873  0.5001 -0.9466
  748MOL0     H  913   2.354   2.276   7.546  0.7187  0.2263 -0.7197
  748MOL0     H  914   2.588   2.269   7.613  1.0273  1.7697 -0.0446
  748MOL0     H  915   2.789   2.167   7.738  2.1730  0.0117 -1.1759
  748MOL0     H  916   2.784   2.335   7.681 -1.8060  1.5355  0.8988
  748MOL0     H  917   2.923   2.263   7.931 -1.6251 -0.3947  0.4552
  748MOL0     H  918   2.902   2.427   7.867 -0.3227 -0.7100  2.0246
  748MOL0     H  919   3.023   2.403   7.676  1.7429 -0.0948 -0.7037
  748MOL0     H  920   3.057   2.228   7.706 -0.0519  0.1488  1.1393
  748MOL0     H  921   3.131   2.474   7.858 -0.6277  0.0420 -3.5988
  748MOL0     H  922   3.154   2.308   7.932 -0.6229  1.0227  1.3736
  748MOL0     H  923   3.285   2.251   7.711  3.8726 -0.3903  0.5041
  748MOL0     H  924   3.283   2.424   7.667 -2.3666  1.3203  0.7256
  748MOL0     H  925   3.423   2.495   7.850  0.0002  0.2237 -1.8202
  748MOL0     H  926   3.384   2.361   7.946  2.1126 -0.9299  0.3869
  748MOL0     H  927   3.611   2.347   7.874 -0.1761  2.5259 -0.5869
  748MOL0     H  928   3.574   2.374   7.703  2.3607 -1.1340 -0.6160
  748MOL0     H  929   3.477   2.130   7.879 -0.9075  0.6593 -0.8918
  748MOL0     H  930   3.484   2.141   7.704  1.2384  0.0851 -0.3760
  748MOL0     H  931   3.695   2.007   7.994  0.0480 -1.1775 -1.9667
  748MOL0     H  932   3.984   1.826   7.906  1.4355 -0.3729  2.1797
  748MOL0     H  933   4.074   1.960   7.886 -0.6016 -1.9595 -1.8442
  748MOL0     H  934   3.969   2.072   8.092  0.4462  0.8240 -3.3924
  748MOL0     H  935   3.890   1.925   8.118  0.7018  0.2117  0.8720
  748MOL0     H  936   4.127   1.812   8.112  0.5681  1.2159 -0.9187
  748MOL0     H  937   4.106   1.909   8.256 -0.1804 -2.2228  0.9216
  748MOL0     H  938   4.282   2.038   8.213  0.4185 -0.2239  0.0181
  748MOL0     H  939   4.186   2.106   8.085 -0.1561  0.1261  1.3393
  748MOL0     H  940   4.335   1.716   8.068  1.4515 -3.0797 -1.4185
  748MOL0     H  941   4.549   1.587   8.153 -0.7154  0.3790  0.2144
  748MOL0     H  942   5.128   1.869   8.285 -0.7576 -0.1633 -2.1941
  748MOL0     H  943   5.342   1.778   8.329  0.4645  0.1278  0.3584
  748MOL0     H  944   5.561   1.678   8.218 -0.1747 -0.2715 -0.1106
  748MOL0     H  945   5.521   1.658   8.396  0.2916  1.7120 -0.9437
  748MOL0     H  946   5.738   1.609   8.374  0.5641 -0.0167 -0.7587
  748MOL0     H  947   5.653   1.473   8.438  1.9305 -2.5295 -1.1410
  748MOL0     H  948   5.677   1.355   8.209 -0.1415 -0.1035  0.3320
  748MOL0     H  949   5.738   1.513   8.144  2.0957 -0.1040 -0.0625
  748MOL0     H  950   5.824   1.322   8.363 -4.6380  0.7226 -0.5747
  748MOL0     H  951   5.900   1.487   8.360  0.3259 -0.3844 -0.1390
  748MOL0     H  952   5.936   1.262   8.158  2.1438 -1.3844  1.4687
  748MOL0     H  953   6.050   1.341   8.265 -2.8295  0.5549  2.9006
  748MOL0     H  954   5.908   1.490   8.029  1.0828 -2.0959 -3.1239
  748MOL0     H  955   6.016   1.564   8.142 -1.9526  1.2271 -1.5999
  748MOL0     H  956   6.117   1.324   8.011 -1.5466  0.1350 -0.8278
  748MOL0     H  957   6.203   1.473   8.064  0.7680  1.5771 -1.9514
  748MOL0     H  958   6.191   1.460   7.811  0.7864  0.5088  1.4912
  748MOL0     H  959   6.011   1.473   7.830 -2.3586 -0.7606  2.8143
  748MOL0     H  960   5.242   1.409   8.160 -1.6910 -1.4045  2.4727
  748MOL0     H  961   5.018   1.484   8.112  0.8479 -1.6783  0.4005
  748MOL0     H  962   4.769   1.944   8.112  1.1123 -1.1479  1.0647
  748MOL0     H  963   4.556   2.070   8.022 -2.7615  0.5483 -0.2608
  748MOL0     H  964   2.474   2.374   8.015 -1.8238 -2.7525  1.4442
  748MOL0     H  965   2.242   2.411   7.935 -0.7359  0.3327 -0.6285
  748MOL0     H  966   1.919   2.104   7.527  2.7441  1.1830 -1.1340
  748MOL0     H  967   1.685   2.129   7.478  1.7861  0.2011 -3.0867
  748MOL0     H  968   1.478   2.509   7.577  0.7524 -1.1228  1.1419
  748MOL0     H  969   1.437   2.387   7.711 -4.2706 -0.2887  0.3321
  748MOL0     H  970   1.310   2.426   7.449  0.5393 -0.8812 -0.1381
  748MOL0     H  971   1.262   2.492   7.606  0.4432 -0.9682  1.6781
  748MOL0     H  972   1.245   2.252   7.692 -0.0957 -1.4466  0.2729
  748MOL0     H  973   1.279   2.193   7.524  0.2460 -0.4788  0.8286
  748MOL0     H  974   1.024   2.192   7.583 -1.1885  0.9064  2.0673
  748MOL0     H  975   1.049   2.362   7.634 -1.5681 -0.6370  0.7377
  748MOL0     H  976   0.991   2.415   7.223 -1.6836 -0.2998 -0.0820
  748MOL0     H  977   1.674   2.523   7.632  0.9745  0.5412 -0.5865
  748MOL0     H  978   2.011   2.584   7.610  0.3699  1.6749  0.1410
  748MOL0     H  979   1.858   2.643   7.681  0.7788  1.4789  0.0874
  748MOL0     H  980   1.960   2.551   7.786 -1.7746  0.9823 -0.4670
  749MOL0     O  981   2.188   6.128   6.336  0.1399  0.1886 -0.0178
  749MOL0     C  982   2.134   6.231   6.334  0.5535 -0.4908  0.2657
  749MOL0     O  983   2.199   6.351   6.359 -0.0412  0.2655  0.5767
  749MOL0     C  984   2.330   6.341   6.390 -0.3441  0.5094  0.5383
  749MOL0     C  985   2.428   6.341   6.291  0.1937 -0.4929 -0.2124
  749MOL0     C  986   2.565   6.351   6.329  0.6480 -1.0787  0.2595
  749MOL0     C  987   2.618   6.368   6.462 -0.1193 -0.3868  0.6162
  749MOL0     O  988   2.743   6.397   6.512 -0.6741 -0.5374  0.6683
  749MOL0     C  989   2.855   6.380   6.422  0.7673  0.7320  0.3923
  749MOL0     C  990   2.975   6.460   6.466  0.7519  0.2724  0.4400
  749MOL0     C  991   3.037   6.392   6.588 -0.4031 -0.0579 -0.2549
  749MOL0     C  992   3.130   6.483   6.668  0.5458 -0.2427 -0.7951
  749MOL0     C  993   3.197   6.410   6.781 -0.6301  0.1067 -0.1896
  749MOL0     C  994   3.269   6.502   6.893 -0.4131  0.5322  0.6152
  749MOL0     C  995   3.363   6.437   6.987 -0.4557 -0.4942  0.1488
  749MOL0     C  996   3.484   6.375   6.924 -0.7171  0.5976 -0.0175
  749MOL0     N  997   3.572   6.483   6.864 -0.2676 -0.1466 -1.4685
  749MOL0     C  998   3.644   6.572   6.936 -0.0092  0.8006  0.1811
  749MOL0     C  999   3.671   6.665   6.836  0.2936 -0.5384 -0.6732
  749MOL0     C 1000   3.749   6.791   6.861 -0.2327  0.1665  0.7040
  749MOL0     C 1001   3.895   6.808   6.803  0.3966 -0.4301  0.3266
  749MOL0     C 1002   3.914   6.751   6.657 -0.2392  0.0705 -0.5896
  749MOL0     C 1003   4.044   6.805   6.608 -0.1445  0.1678 -1.1303
  749MOL0     O 1004   4.138   6.834   6.714  0.2238 -0.1578  0.3883
  749MOL0     C 1005   4.259   6.875   6.683  0.4141 -0.6910  0.0815
  749MOL0     C 1006   4.326   6.925   6.793 -0.3301 -0.2787 -0.5160
  749MOL0     C 1007   4.463   6.951   6.786 -0.1549  0.0995  0.9482
  749MOL0     C 1008   4.531   6.936   6.663  0.0687  0.8846  0.7249
  749MOL0     C 1009   4.675   6.974   6.647 -0.2079 -0.5177 -0.2404
  749MOL0     O 1010   4.748   7.036   6.742 -0.5032 -0.1453 -0.2491
  749MOL0     C 1011   4.885   7.039   6.747 -0.0963  0.4880  0.3568
  749MOL0     C 1012   4.972   7.061   6.630  0.7960 -0.2865 -0.3335
  749MOL0     C 1013   5.113   7.071   6.642 -0.1184  0.3177 -0.7356
  749MOL0     C 1014   5.179   7.082   6.769  0.3883  0.6109 -0.1720
  749MOL0     O 1015   5.317   7.113   6.773  0.6737  0.4424 -0.2901
  749MOL0     C 1016   5.345   7.252   6.757  0.9145  0.5694  0.0357
  749MOL0     C 1017   5.491   7.276   6.725  0.6767 -0.3082  0.1625
  749MOL0     C 1018   5.592   7.258   6.843  0.4981 -0.6442 -0.8414
  749MOL0     C 1019   5.739   7.222   6.810  0.7768 -1.1225  0.3731
  749MOL0     C 1020   5.849   7.266   6.913  0.4148  1.3211  0.6366
  749MOL0     C 1021   5.992   7.234   6.867 -0.3062 -0.1390  0.0375
  749MOL0     C 1022   6.096   7.311   6.949  0.2556  0.2842 -0.0416
  749MOL0     C 1023   6.236   7.281   6.908 -0.8213  0.8380 -0.3992
  749MOL0    Cl 1024   6.360   7.384   6.983 -0.4324  0.1967  0.0258
  749MOL0     C 1025   5.097   7.058   6.885 -0.0291 -0.5152 -0.1526
  749MOL0     C 1026   4.958   7.036   6.878 -0.6387 -0.1167  0.4951
  749MOL0     O 1027   4.718   6.951   6.532  0.2570  0.1601  0.3451
  749MOL0     C 1028   4.458   6.892   6.546 -0.0576 -0.6835 -0.1482
  749MOL0     C 1029   4.327   6.865   6.557  0.4409  0.1948 -0.1360
  749MOL0     N 1030   3.632   6.630   6.713  0.7659  0.1473  0.1935
  749MOL0     N 1031   3.564   6.519   6.737  0.0884  0.4175 -0.1240
  749MOL0     C 1032   2.518   6.364   6.556  0.3694  0.2958 -0.7511
  749MOL0     C 1033   2.378   6.348   6.521  0.3072 -0.3194 -0.7434
  749MOL0     C 1034   1.992   6.245   6.287 -0.2153 -0.3972  0.1018
  749MOL0     C 1035   1.949   6.172   6.168  0.2065 -0.3918 -0.4581
  749MOL0     C 1036   1.816   6.168   6.123  0.0638  0.1041  0.1580
  749MOL0     C 1037   1.722   6.249   6.189  0.6862  0.4294  0.0334
  749MOL0     O 1038   1.597   6.271   6.143  0.1130 -0.0827 -0.0519
  749MOL0     C 1039   1.534   6.166   6.077 -0.0244 -0.8991 -0.2595
  749MOL0     C 1040   1.400   6.217   6.020 -0.0070 -0.7047 -1.0026
  749MOL0     C 1041   1.313   6.093   5.997 -0.3264 -0.3942  0.3030
  749MOL0     C 1042   1.180   6.142   5.951 -0.4200  0.0895 -1.3330
  749MOL0     C 1043   1.087   6.032   5.941  0.4714  0.1583 -0.6844
  749MOL0     C 1044   1.005   5.943   5.938 -0.4359  0.0391 -0.0433
  749MOL0     C 1045   1.766   6.326   6.295 -0.1794  0.1754 -0.1034
  749MOL0     C 1046   1.894   6.319   6.351 -0.1971 -0.2713  0.5985
  749MOL0     C 1047   1.913   6.395   6.484 -0.1065  0.1393 -1.2464
  749MOL0     H 1048   2.407   6.337   6.185  0.1390 -0.9969 -0.1875
  749MOL0     H 1049   2.631   6.366   6.244  0.2987 -0.4061  0.1061
  749MOL0     H 1050   2.879   6.273   6.417  2.9671  1.2082 -0.1225
  749MOL0     H 1051   2.826   6.399   6.318 -1.0362 -0.0743  0.7023
  749MOL0     H 1052   2.946   6.561   6.496  0.0135  0.5210 -1.0288
  749MOL0     H 1053   3.040   6.472   6.379  0.9698  0.8124  0.6710
  749MOL0     H 1054   3.084   6.295   6.576  0.1342  0.2277 -0.4940
  749MOL0     H 1055   2.964   6.361   6.664  0.6574 -0.1045  0.7717
  749MOL0     H 1056   3.202   6.523   6.596  1.1680 -0.4811 -0.3168
  749MOL0     H 1057   3.083   6.563   6.726  0.4214 -1.1284  0.3566
  749MOL0     H 1058   3.132   6.337   6.830 -1.0811 -0.5655 -1.7096
  749MOL0     H 1059   3.276   6.350   6.734 -0.1188  2.0257 -1.9328
  749MOL0     H 1060   3.328   6.579   6.842  1.5636 -1.5077 -0.3678
  749MOL0     H 1061   3.197   6.543   6.964  0.1424  0.0007  1.5153
  749MOL0     H 1062   3.302   6.368   7.046 -0.4860 -0.6221 -0.0322
  749MOL0     H 1063   3.389   6.516   7.059 -2.0978 -1.2966  1.7015
  749MOL0     H 1064   3.545   6.320   6.997  0.3409 -0.3443 -1.5581
  749MOL0     H 1065   3.460   6.298   6.850 -0.5029 -0.1595  0.6816
  749MOL0     H 1066   3.672   6.593   7.038 -1.0099 -1.6854  1.0434
  749MOL0     H 1067   3.685   6.858   6.803  0.2913 -1.2388 -1.6044
  749MOL0     H 1068   3.745   6.823   6.966  2.6315 -1.2747  1.3528
  749MOL0     H 1069   3.924   6.913   6.804 -0.5564 -0.1217 -1.0566
  749MOL0     H 1070   3.961   6.762   6.877  2.3200  1.9547  0.1913
  749MOL0     H 1071   3.834   6.773   6.586  0.8974  2.4367 -1.2277
  749MOL0     H 1072   3.928   6.643   6.666 -0.4193 -0.0411 -1.6201
  749MOL0     H 1073   4.024   6.898   6.553  0.2372 -0.1695 -1.8530
  749MOL0     H 1074   4.099   6.735   6.546  0.5813 -0.7266  0.4678
  749MOL0     H 1075   4.277   6.950   6.887  0.0480 -0.0364 -0.3779
  749MOL0     H 1076   4.519   6.995   6.867  1.1027 -2.0951  1.3233
  749MOL0     H 1077   4.933   7.050   6.529  1.8092 -1.0703 -0.6505
  749MOL0     H 1078   5.173   7.088   6.554  1.7466  2.0626  0.7828
  749MOL0     H 1079   5.272   7.287   6.684 -1.3981 -0.1022  1.9074
  749MOL0     H 1080   5.318   7.308   6.847  0.0375 -1.7197  1.2755
  749MOL0     H 1081   5.517   7.218   6.637 -0.3224 -0.1457 -0.2517
  749MOL0     H 1082   5.491   7.379   6.687  1.2508  0.3071  1.7406
  749MOL0     H 1083   5.595   7.355   6.894 -0.9605 -0.3669 -1.2180
  749MOL0     H 1084   5.545   7.191   6.916  0.6656  0.4453  0.3040
  749MOL0     H 1085   5.756   7.280   6.719 -4.5118 -1.4983 -1.1902
  749MOL0     H 1086   5.763   7.119   6.781  1.5212 -0.9551  0.3583
  749MOL0     H 1087   5.829   7.217   7.009  2.3602 -1.9036 -0.4314
  749MOL0     H 1088   5.841   7.375   6.915 -0.4415  1.2677  0.4851
  749MOL0     H 1089   6.009   7.127   6.881  0.7948 -0.5105 -3.1176
  749MOL0     H 1090   6.003   7.253   6.759 -0.0098 -0.7510 -0.0467
  749MOL0     H 1091   6.077   7.297   7.056  0.5576  0.8349  0.0906
  749MOL0     H 1092   6.072   7.415   6.925  0.1700  0.3191  0.1926
  749MOL0     H 1093   6.252   7.176   6.934 -0.0461  0.2472 -2.9727
  749MOL0     H 1094   6.234   7.289   6.799 -1.4680  0.3797 -0.4235
  749MOL0     H 1095   5.152   7.057   6.979 -0.1227 -1.2048 -0.1019
  749MOL0     H 1096   4.896   7.009   6.962 -0.9229 -0.0352  0.3149
  749MOL0     H 1097   4.498   6.880   6.446  0.4038  3.2455 -0.5704
  749MOL0     H 1098   4.283   6.839   6.461 -0.8267  1.0965  0.1668
  749MOL0     H 1099   2.545   6.374   6.661 -1.6725 -3.3785  0.3150
  749MOL0     H 1100   2.307   6.356   6.602  0.0759  1.0306 -1.0512
  749MOL0     H 1101   2.020   6.110   6.115 -1.1746 -1.3878 -1.2132
  749MOL0     H 1102   1.793   6.115   6.031  0.0089  1.6654 -0.7558
  749MOL0     H 1103   1.503   6.098   6.156  0.4615 -1.6318 -0.6874
  749MOL0     H 1104   1.585   6.114   5.995 -1.9512  0.3663 -2.3828
  749MOL0     H 1105   1.419   6.278   5.931 -1.0514  2.7732  0.9357
  749MOL0     H 1106   1.358   6.296   6.083  0.3057 -0.1902 -1.4286
  749MOL0     H 1107   1.301   6.028   6.084  0.1712  1.2883  1.6973
  749MOL0     H 1108   1.363   6.036   5.918 -4.2804 -1.4001 -1.6760
  749MOL0     H 1109   1.147   6.227   6.011 -0.1526  0.3698 -1.5784
  749MOL0     H 1110   1.184   6.178   5.848 -1.4776  1.2793 -0.9740
  749MOL0     H 1111   0.923   5.876   5.923 -1.7738  1.6879 -0.4274
  749MOL0     H 1112   1.697   6.399   6.334  0.9294  1.9273 -1.2869
  749MOL0     H 1113   1.980   6.482   6.479  0.8251 -0.3682  1.1389
  749MOL0     H 1114   1.818   6.419   6.531  1.3317  0.4088  1.7613
  749MOL0     H 1115   1.963   6.322   6.549 -2.6877 -0.4238  0.2132
  750MOL0     O 1116   8.529   4.271   3.635  0.8814 -1.4528  0.0174
  750MOL0     C 1117   8.430   4.308   3.693  0.5379  0.3076  0.4967
  750MOL0     O 1118   8.421   4.377   3.813 -0.0014 -0.3219  0.0280
  750MOL0     C 1119   8.530   4.420   3.883 -0.3141  1.0381 -0.8110
  750MOL0     C 1120   8.511   4.428   4.021  0.7990 -0.0053  0.4629
  750MOL0     C 1121   8.619   4.463   4.092 -0.0716 -0.0422 -0.0137
  750MOL0     C 1122   8.751   4.484   4.045 -0.0672  0.2188  0.6334
  750MOL0     O 1123   8.841   4.504   4.141 -0.0590  0.2091 -0.4255
  750MOL0     C 1124   8.978   4.469   4.107 -0.5397  0.0137  0.1929
  750MOL0     C 1125   9.048   4.581   4.047 -0.0211 -0.4585  0.1229
  750MOL0     C 1126   9.194   4.543   4.013  0.2659  0.7140  0.4246
  750MOL0     C 1127   9.194   4.490   3.873  0.5828 -0.3720 -0.5824
  750MOL0     C 1128   9.333   4.440   3.840  0.5498  0.0943  0.5477
  750MOL0     C 1129   9.343   4.409   3.689 -0.0742 -0.5439 -0.2761
  750MOL0     C 1130   9.491   4.393   3.643 -0.5364  0.1709  0.5214
  750MOL0     C 1131   9.544   4.536   3.599  0.5898  0.3256 -0.3239
  750MOL0     N 1132   9.687   4.523   3.547 -0.3774 -0.2114 -0.8895
  750MOL0     C 1133   9.744   4.435   3.447  0.4704 -0.2700 -1.4962
  750MOL0     C 1134   9.875   4.470   3.442  0.2249  0.0118 -0.0651
  750MOL0     C 1135   9.980   4.413   3.353  0.6096  0.9386  0.3159
  750MOL0     C 1136  10.087   4.332   3.442  0.6641 -0.6967  0.5168
  750MOL0     C 1137  10.209   4.308   3.358 -0.0229  0.3999 -0.8783
  750MOL0     C 1138  10.327   4.282   3.454 -0.5229 -0.8210  1.0671
  750MOL0     O 1139  10.439   4.262   3.358  0.5079 -0.0412 -0.2593
  750MOL0     C 1140  10.559   4.277   3.421 -0.9330 -0.1482  0.4053
  750MOL0     C 1141  10.589   4.268   3.562  0.4345  0.1345  0.4854
  750MOL0     C 1142  10.712   4.297   3.617 -0.4499 -0.0486  0.4229
  750MOL0     C 1143  10.822   4.333   3.529 -0.5073  0.2706 -0.2026
  750MOL0     C 1144  10.957   4.371   3.579 -0.3449 -0.0272  0.0301
  750MOL0     O 1145  11.039   4.430   3.490 -0.0708 -0.0733  0.5165
  750MOL0     C 1146  11.175   4.437   3.523  0.3494  0.0874  0.3499
  750MOL0     C 1147  11.227   4.544   3.598  0.1893 -0.0357 -0.3560
  750MOL0     C 1148  11.365   4.547   3.625 -0.7318  1.0188 -0.5441
  750MOL0     C 1149  11.449   4.439   3.590 -0.2255  0.3580  0.3713
  750MOL0     O 1150  11.579   4.434   3.613  0.1034  0.1682  0.1455
  750MOL0     C 1151  11.654   4.552   3.593  0.0649 -0.0485 -0.5508
  750MOL0     C 1152  11.810   4.527   3.592 -0.1110 -0.7223  0.3870
  750MOL0     C 1153  11.859   4.453   3.463 -0.8144 -0.3093  0.4109
  750MOL0     C 1154  12.013   4.494   3.428  0.5260  0.0735  0.5050
  750MOL0     C 1155  12.104   4.504   3.552  0.3364 -0.3193 -0.4400
  750MOL0     C 1156  12.248   4.508   3.529 -0.3204 -0.3723 -0.3428
  750MOL0     C 1157  12.335   4.568   3.641 -0.6938 -0.0325 -0.1332
  750MOL0     C 1158  12.336   4.497   3.775 -0.0352 -0.5399 -0.6360
  750MOL0    Cl 1159  12.432   4.348   3.764  0.3982 -0.0483  0.0949
  750MOL0     C 1160  11.394   4.327   3.515 -0.6112 -0.6344 -0.3199
  750MOL0     C 1161  11.255   4.328   3.491  0.8974  0.3268  0.4445
  750MOL0     O 1162  10.986   4.349   3.700 -0.5558 -0.2271 -0.6083
  750MOL0     C 1163  10.791   4.333   3.390  0.2351  0.5213  0.4722
  750MOL0     C 1164  10.666   4.300   3.336  0.7819 -1.0087  0.2652
  750MOL0     N 1165   9.906   4.574   3.534 -0.1713 -0.7284 -0.1213
  750MOL0     N 1166   9.791   4.601   3.595  0.4109 -0.7652 -0.5366
  750MOL0     C 1167   8.771   4.479   3.905  0.4982 -0.5032 -0.2059
  750MOL0     C 1168   8.653   4.446   3.828 -0.3416 -0.7199 -0.2109
  750MOL0     C 1169   8.292   4.274   3.635 -0.8261 -1.0996 -0.3696
  750MOL0     C 1170   8.177   4.302   3.715 -0.1053 -0.2699  0.5495
  750MOL0     C 1171   8.048   4.275   3.667 -0.7864  0.7075  0.0575
  750MOL0     C 1172   8.033   4.208   3.544 -0.3987 -0.3783 -0.1159
  750MOL0     O 1173   7.918   4.195   3.484  0.0486  0.2982 -0.1357
  750MOL0     C 1174   7.826   4.109   3.554  0.6717  0.2211  0.5604
  750MOL0     C 1175   7.705   4.082   3.468 -0.4731 -0.0797  0.1027
  750MOL0     C 1176   7.735   3.985   3.355 -0.5835 -0.3023  0.7728
  750MOL0     C 1177   7.610   3.957   3.268 -0.0169 -0.5327 -0.0920
  750MOL0     C 1178   7.669   3.921   3.140 -0.0579  0.4079  0.6120
  750MOL0     C 1179   7.727   3.913   3.032  0.2951 -0.6207  0.0499
  750MOL0     C 1180   8.141   4.165   3.467  0.4078 -0.4800  0.5144
  750MOL0     C 1181   8.272   4.198   3.519  0.9487 -0.7300  0.4940
  750MOL0     C 1182   8.379   4.167   3.419 -0.6147  0.0135  0.9219
  750MOL0     H 1183   8.414   4.397   4.058  1.2444 -0.2357  1.4771
  750MOL0     H 1184   8.602   4.461   4.199 -1.1712  0.0674 -0.1733
  750MOL0     H 1185   9.027   4.432   4.198 -0.3762 -0.2019  0.0174
  750MOL0     H 1186   8.983   4.387   4.035  0.2131  0.7124 -0.5757
  750MOL0     H 1187   9.038   4.664   4.117  0.8641 -0.3459  0.1345
  750MOL0     H 1188   8.997   4.617   3.957 -1.1365  1.4200  1.4445
  750MOL0     H 1189   9.222   4.464   4.084  1.1304  0.5295 -0.1117
  750MOL0     H 1190   9.270   4.621   4.019  1.5603  0.0461 -3.8248
  750MOL0     H 1191   9.122   4.409   3.855 -2.5292  2.0641  0.0110
  750MOL0     H 1192   9.162   4.569   3.805 -0.2607  1.3809  1.6955
  750MOL0     H 1193   9.408   4.519   3.845  3.3388 -2.2877 -0.4965
  750MOL0     H 1194   9.362   4.356   3.903  0.8056  0.1172  0.4608
  750MOL0     H 1195   9.305   4.308   3.671 -0.2845 -0.3551 -0.9243
  750MOL0     H 1196   9.292   4.477   3.621 -1.9854 -0.0508  1.5520
  750MOL0     H 1197   9.485   4.330   3.553 -1.8644  0.0799  0.6561
  750MOL0     H 1198   9.563   4.341   3.707 -0.7548 -0.5206  0.2215
  750MOL0     H 1199   9.474   4.568   3.521 -0.5992  0.8104  0.8997
  750MOL0     H 1200   9.533   4.602   3.686  1.2346  0.4393 -0.3248
  750MOL0     H 1201   9.703   4.358   3.383 -0.1249 -0.3154 -1.0605
  750MOL0     H 1202   9.932   4.344   3.283  0.6889 -0.2739  1.4090
  750MOL0     H 1203  10.028   4.496   3.301  0.6634  0.5569 -0.2540
  750MOL0     H 1204  10.122   4.397   3.522  0.1927  1.2969 -0.8135
  750MOL0     H 1205  10.045   4.243   3.490 -4.1321  1.9127  1.8315
  750MOL0     H 1206  10.238   4.390   3.292  2.5270  1.3322  1.1906
  750MOL0     H 1207  10.197   4.219   3.296  1.9363  0.4011 -1.3246
  750MOL0     H 1208  10.312   4.205   3.531 -0.4141 -0.3948  1.5172
  750MOL0     H 1209  10.347   4.376   3.505 -0.6318 -1.5039  2.4091
  750MOL0     H 1210  10.508   4.247   3.632 -0.8848 -0.9407 -1.2650
  750MOL0     H 1211  10.724   4.304   3.724  4.2278  4.5462  0.0530
  750MOL0     H 1212  11.153   4.619   3.623 -0.7361 -1.3649  1.1054
  750MOL0     H 1213  11.413   4.633   3.668  1.2069 -0.4002  0.2761
  750MOL0     H 1214  11.625   4.602   3.500 -1.4701  1.1270  0.5056
  750MOL0     H 1215  11.637   4.631   3.667 -0.8815  1.2714 -2.1073
  750MOL0     H 1216  11.852   4.627   3.597  1.7196 -1.3489 -1.1250
  750MOL0     H 1217  11.843   4.478   3.684  0.1922  0.2511  0.7985
  750MOL0     H 1218  11.845   4.349   3.494 -0.4476  0.3569  3.1307
  750MOL0     H 1219  11.794   4.470   3.377 -0.2859 -3.6376 -0.8019
  750MOL0     H 1220  12.014   4.592   3.379 -2.1399 -0.1574 -0.1741
  750MOL0     H 1221  12.060   4.422   3.362  2.2416  2.7244 -1.3781
  750MOL0     H 1222  12.090   4.413   3.611  2.2951 -2.9021 -3.6423
  750MOL0     H 1223  12.076   4.590   3.614  2.2572  2.5633 -3.2227
  750MOL0     H 1224  12.284   4.407   3.504 -0.0054 -0.9541  2.2386
  750MOL0     H 1225  12.252   4.567   3.437 -2.1868 -0.5518 -0.5690
  750MOL0     H 1226  12.299   4.670   3.651  0.5145  0.5053 -0.9813
  750MOL0     H 1227  12.438   4.582   3.605 -0.0579  0.7334  1.8588
  750MOL0     H 1228  12.387   4.559   3.849  0.5732 -0.9720 -0.6815
  750MOL0     H 1229  12.234   4.479   3.810 -0.1723  2.4624  0.7456
  750MOL0     H 1230  11.466   4.254   3.479  0.0060 -0.3560  0.3239
  750MOL0     H 1231  11.221   4.242   3.434  1.5918  0.9295 -0.9037
  750MOL0     H 1232  10.864   4.355   3.313 -2.8805 -0.3326 -2.9669
  750MOL0     H 1233  10.649   4.310   3.229  1.9556  1.5081  0.2472
  750MOL0     H 1234   8.874   4.492   3.874 -0.0820 -1.8023 -2.9332
  750MOL0     H 1235   8.668   4.446   3.721 -1.1324  1.0773 -0.3655
  750MOL0     H 1236   8.180   4.350   3.812 -1.3902  0.6396  0.1609
  750MOL0     H 1237   7.960   4.292   3.729 -0.9653 -1.2510  0.4069
  750MOL0     H 1238   7.791   4.156   3.647  1.5224  0.5505  0.7208
  750MOL0     H 1239   7.858   4.009   3.587 -0.3980 -0.3173  0.0408
  750MOL0     H 1240   7.662   4.171   3.422  0.6374 -0.8381 -2.6207
  750MOL0     H 1241   7.621   4.032   3.517 -1.6608  1.2014 -0.5422
  750MOL0     H 1242   7.773   3.886   3.381  0.2250 -0.6248 -1.4119
  750MOL0     H 1243   7.823   4.029   3.307  0.8915 -2.6246  1.1660
  750MOL0     H 1244   7.551   3.881   3.318 -0.7325  0.6610  0.9236
  750MOL0     H 1245   7.540   4.041   3.261  1.1220  0.4693  0.1312
  750MOL0     H 1246   7.770   3.916   2.934  0.0040  1.4673 -0.0590
  750MOL0     H 1247   8.126   4.111   3.375 -1.7055 -1.0570  1.1194
  750MOL0     H 1248   8.450   4.092   3.457  0.8434  1.1181  0.4439
  750MOL0     H 1249   8.344   4.122   3.326 -0.2331  1.5143  0.0264
  750MOL0     H 1250   8.429   4.260   3.392 -2.1037 -0.0688 -2.6610
  751MOL0     O 1251  11.245   6.846   4.733  0.1325  0.5162  0.7827
  751MOL0     C 1252  11.191   6.796   4.635  0.3229 -0.4928  0.1313
  751MOL0     O 1253  11.232   6.825   4.504  0.0075 -0.1965 -0.1151
  751MOL0     C 1254  11.365   6.854   4.482  0.1731  0.7759  0.2456
  751MOL0     C 1255  11.468   6.772   4.534 -0.1076  0.1669 -0.5513
  751MOL0     C 1256  11.603   6.806   4.509 -0.4844 -0.1652 -0.3198
  751MOL0     C 1257  11.637   6.905   4.418 -0.0556  0.2142  0.7915
  751MOL0     O 1258  11.757   6.944   4.383 -0.8879  0.7023 -0.0262
  751MOL0     C 1259  11.874   6.863   4.403 -0.1306 -0.3526  0.3063
  751MOL0     C 1260  11.956   6.965   4.488 -0.1904  0.7779  0.2348
  751MOL0     C 1261  12.011   7.078   4.399 -0.2830 -0.6893  0.8686
  751MOL0     C 1262  12.129   7.158   4.466  0.2743 -0.3229  0.1048
  751MOL0     C 1263  12.135   7.306   4.410  0.0353  0.6467 -0.0308
  751MOL0     C 1264  12.248   7.396   4.472 -0.6634 -1.0652 -0.1967
  751MOL0     C 1265  12.228   7.424   4.621  0.3515  0.3251  0.0379
  751MOL0     C 1266  12.326   7.533   4.668 -0.2239  0.6135  0.1069
  751MOL0     N 1267  12.462   7.470   4.683 -0.2866  0.4882 -0.2192
  751MOL0     C 1268  12.564   7.478   4.597  0.2395  0.8669  0.4262
  751MOL0     C 1269  12.646   7.370   4.625  0.1717  0.1297  0.0538
  751MOL0     C 1270  12.762   7.316   4.540 -0.7514  0.0353  0.1257
  751MOL0     C 1271  12.726   7.253   4.407  0.4933  0.2153 -0.3078
  751MOL0     C 1272  12.729   7.100   4.411 -0.1588  0.5121 -0.6331
  751MOL0     C 1273  12.647   7.034   4.530  0.2319  0.1189 -1.2530
  751MOL0     O 1274  12.508   7.084   4.533  0.2972  0.5875 -0.0280
  751MOL0     C 1275  12.418   7.002   4.599  0.2590 -0.2862 -0.1223
  751MOL0     C 1276  12.394   6.883   4.547  0.2545  1.1421 -0.2124
  751MOL0     C 1277  12.296   6.800   4.596 -0.6347 -0.2054  0.2480
  751MOL0     C 1278  12.213   6.848   4.702  0.2864 -0.7607 -0.3718
  751MOL0     C 1279  12.097   6.771   4.748  0.0038  0.3724  0.8005
  751MOL0     O 1280  12.015   6.827   4.843  0.4169  0.8284  0.1485
  751MOL0     C 1281  11.901   6.762   4.868  0.1945  0.5746 -0.3338
  751MOL0     C 1282  11.787   6.815   4.805 -0.0558 -0.7067 -0.4532
  751MOL0     C 1283  11.663   6.760   4.828 -0.3962 -0.1031 -0.6181
  751MOL0     C 1284  11.649   6.651   4.918  0.2923 -0.6023  0.5053
  751MOL0     O 1285  11.526   6.593   4.932  0.3847 -0.4364 -0.1699
  751MOL0     C 1286  11.475   6.585   5.064 -0.1917 -0.3759  0.5892
  751MOL0     C 1287  11.407   6.704   5.136 -0.6624  0.0329 -0.8642
  751MOL0     C 1288  11.357   6.687   5.283 -0.8302  0.5042 -0.0872
  751MOL0     C 1289  11.212   6.699   5.291 -0.6219 -0.5530 -0.5632
  751MOL0     C 1290  11.185   6.735   5.439 -0.6438  0.7033  0.3416
  751MOL0     C 1291  11.040   6.766   5.449  0.4573 -0.6242 -0.7847
  751MOL0     C 1292  10.994   6.826   5.582  0.0644  0.3614  0.1918
  751MOL0     C 1293  10.846   6.870   5.580 -0.0901  0.0804 -0.1556
  751MOL0    Cl 1294  10.837   7.053   5.581  0.0553  0.1435 -0.3711
  751MOL0     C 1295  11.761   6.604   4.984 -0.0212  0.6913  0.1659
  751MOL0     C 1296  11.882   6.665   4.966 -0.1933  0.4270  0.0865
  751MOL0     O 1297  12.072   6.659   4.688 -0.1930  0.0806 -0.4836
  751MOL0     C 1298  12.241   6.973   4.762  0.1741 -0.0346  0.9959
  751MOL0     C 1299  12.341   7.043   4.706  0.2748  0.6206 -0.3838
  751MOL0     N 1300  12.589   7.306   4.738  0.2095 -0.1856 -0.1630
  751MOL0     N 1301  12.485   7.369   4.772  0.2414 -0.3445  0.7615
  751MOL0     C 1302  11.537   6.980   4.354  0.9510  0.7405  0.2921
  751MOL0     C 1303  11.403   6.950   4.384  0.1140  0.1940 -0.5919
  751MOL0     C 1304  11.062   6.729   4.652 -0.5576  0.5742  0.1808
  751MOL0     C 1305  10.974   6.739   4.539 -0.2838  0.2594 -0.3123
  751MOL0     C 1306  10.851   6.683   4.552 -0.1736 -0.6622 -0.1766
  751MOL0     C 1307  10.809   6.612   4.665  0.2560 -0.0327  0.2038
  751MOL0     O 1308  10.682   6.563   4.676 -0.4965 -0.2071 -0.1290
  751MOL0     C 1309  10.602   6.527   4.561 -0.3141 -0.1526 -0.2665
  751MOL0     C 1310  10.476   6.464   4.609 -0.6047  0.6302  0.0935
  751MOL0     C 1311  10.386   6.405   4.496 -0.3270  0.7062  0.1926
  751MOL0     C 1312  10.309   6.504   4.427 -0.4633  0.6560  0.3205
  751MOL0     C 1313  10.224   6.441   4.324  0.3581 -0.2665  0.3260
  751MOL0     C 1314  10.160   6.392   4.227  0.5887 -0.0101 -0.5393
  751MOL0     C 1315  10.896   6.601   4.770  0.6703  1.0034  0.3078
  751MOL0     C 1316  11.021   6.661   4.769  0.1769  1.0918  0.1356
  751MOL0     C 1317  11.112   6.639   4.882 -0.3293  0.1708 -0.2471
  751MOL0     H 1318  11.447   6.689   4.600  2.0161  2.6872  3.7744
  751MOL0     H 1319  11.676   6.741   4.557 -0.4880  0.1632  0.1330
  751MOL0     H 1320  11.861   6.776   4.468 -1.6719  1.3417  2.4480
  751MOL0     H 1321  11.932   6.837   4.314  4.7653  4.9910  1.3235
  751MOL0     H 1322  12.034   6.908   4.539 -1.1756 -0.6304  0.2215
  751MOL0     H 1323  11.892   7.011   4.564  1.3362 -0.4236  2.3235
  751MOL0     H 1324  11.940   7.144   4.349  0.7538  0.5157  0.9178
  751MOL0     H 1325  12.049   7.029   4.309 -3.6050  1.0925 -1.7495
  751MOL0     H 1326  12.099   7.172   4.571 -2.2686 -0.2406 -0.5763
  751MOL0     H 1327  12.227   7.109   4.462  0.1352 -0.6830  0.8767
  751MOL0     H 1328  12.157   7.288   4.304 -2.1316 -1.0978 -0.2517
  751MOL0     H 1329  12.040   7.353   4.438  0.7857  0.2262  3.8376
  751MOL0     H 1330  12.346   7.348   4.461 -0.4146 -0.4525 -0.7162
  751MOL0     H 1331  12.243   7.487   4.412 -0.7751  0.0174  1.3903
  751MOL0     H 1332  12.244   7.331   4.676  1.1512 -0.4190 -1.3713
  751MOL0     H 1333  12.126   7.459   4.639  1.0113  1.4444  1.9214
  751MOL0     H 1334  12.312   7.617   4.599 -2.8566 -1.0877 -1.6365
  751MOL0     H 1335  12.292   7.560   4.768 -0.6018 -1.9690  0.7566
  751MOL0     H 1336  12.580   7.557   4.525  0.5249 -0.3342 -0.8767
  751MOL0     H 1337  12.826   7.400   4.512 -1.9066  1.0207  0.3438
  751MOL0     H 1338  12.827   7.249   4.597  0.5316 -0.9626 -2.3979
  751MOL0     H 1339  12.627   7.289   4.377 -0.5944 -3.0563 -1.0320
  751MOL0     H 1340  12.785   7.288   4.323 -0.3552  1.7784 -0.3016
  751MOL0     H 1341  12.829   7.055   4.412 -0.9459 -1.3467  0.7822
  751MOL0     H 1342  12.670   7.069   4.324  0.5939  1.5595 -1.5384
  751MOL0     H 1343  12.691   7.083   4.617  1.3303  1.2601 -2.4085
  751MOL0     H 1344  12.655   6.925   4.540  0.0381  0.1284 -0.9843
  751MOL0     H 1345  12.449   6.867   4.455 -0.4499  1.2766 -0.6665
  751MOL0     H 1346  12.262   6.708   4.550  0.0975 -0.0919 -0.5392
  751MOL0     H 1347  11.803   6.897   4.736  0.3910  0.3261  0.8370
  751MOL0     H 1348  11.575   6.794   4.775 -0.0091 -0.4175 -1.4760
  751MOL0     H 1349  11.405   6.502   5.073 -0.8567 -0.3672 -3.0626
  751MOL0     H 1350  11.562   6.559   5.124  0.5079  1.0490  0.2534
  751MOL0     H 1351  11.484   6.780   5.127 -0.0163 -0.5567 -0.3922
  751MOL0     H 1352  11.325   6.750   5.080  0.4918  2.9655 -0.3272
  751MOL0     H 1353  11.393   6.589   5.317 -0.2041 -0.8900 -4.1873
  751MOL0     H 1354  11.409   6.755   5.351 -1.0348  0.1032  0.4785
  751MOL0     H 1355  11.159   6.613   5.249 -4.6419  2.6446 -2.7805
  751MOL0     H 1356  11.187   6.786   5.230  3.4685 -2.2783 -5.4364
  751MOL0     H 1357  11.238   6.829   5.457  3.6749 -0.8571 -2.6047
  751MOL0     H 1358  11.211   6.652   5.505  0.0773  0.2421 -0.5108
  751MOL0     H 1359  11.007   6.841   5.377  0.3143  0.1319  0.0605
  751MOL0     H 1360  10.986   6.672   5.433  1.1689 -0.8988 -1.6910
  751MOL0     H 1361  11.068   6.902   5.609  0.1764  1.2755 -2.3957
  751MOL0     H 1362  11.003   6.749   5.659 -0.6758 -1.1489 -1.1821
  751MOL0     H 1363  10.788   6.819   5.503 -2.3003  0.7708  0.9441
  751MOL0     H 1364  10.791   6.842   5.671 -0.9539 -2.1838 -1.2956
  751MOL0     H 1365  11.765   6.507   5.033  1.5017  0.7115  0.1130
  751MOL0     H 1366  11.969   6.614   5.006  0.8783  0.7521 -1.7350
  751MOL0     H 1367  12.197   7.007   4.855 -0.1230 -2.7734  1.9409
  751MOL0     H 1368  12.352   7.140   4.752 -2.7165  0.4709  0.8743
  751MOL0     H 1369  11.563   7.059   4.284  1.5281  0.2509 -0.0540
  751MOL0     H 1370  11.318   6.996   4.336 -0.8789 -3.2030 -2.4550
  751MOL0     H 1371  11.010   6.785   4.448 -1.8779 -1.5177 -1.9406
  751MOL0     H 1372  10.787   6.702   4.467 -1.9293 -1.0890  0.9986
  751MOL0     H 1373  10.661   6.462   4.496  1.9809  2.2819 -0.8152
  751MOL0     H 1374  10.564   6.611   4.500 -4.3825 -0.7875  1.0665
  751MOL0     H 1375  10.419   6.538   4.667 -2.0452  0.3017 -0.8589
  751MOL0     H 1376  10.519   6.382   4.667  2.1974  1.9366  0.0151
  751MOL0     H 1377  10.314   6.335   4.539 -0.7169  0.8361 -0.2387
  751MOL0     H 1378  10.450   6.349   4.428 -0.3390 -1.4607  1.8478
  751MOL0     H 1379  10.247   6.558   4.499 -0.7455 -0.4381  0.9308
  751MOL0     H 1380  10.375   6.572   4.372  1.4726  0.9447  2.8273
  751MOL0     H 1381  10.111   6.357   4.139 -1.1189  0.9134  0.0065
  751MOL0     H 1382  10.862   6.543   4.855  1.4311  0.3386  0.1692
  751MOL0     H 1383  11.073   6.556   4.942  1.5477 -2.7078 -2.6780
  751MOL0     H 1384  11.214   6.613   4.855 -0.8426  0.5857 -2.8767
  751MOL0     H 1385  11.115   6.728   4.945  0.8498 -1.3473  1.9537
  752MOL0     O 1386   4.210  11.013   5.178 -0.3631 -0.0142  0.6792
  752MOL0     C 1387   4.258  10.903   5.195  0.2529  0.3281  0.4478
  752MOL0     O 1388   4.251  10.799   5.105 -0.6442  0.4037  0.1162
  752MOL0     C 1389   4.156  10.776   5.008 -0.3480 -0.1959  0.1196
  752MOL0     C 1390   4.182  10.674   4.919  0.6343 -0.3839  0.8815
  752MOL0     C 1391   4.095  10.628   4.831  0.2363  0.3576  0.3686
  752MOL0     C 1392   3.965  10.681   4.820 -0.8081  0.4174  0.9585
  752MOL0     O 1393   3.884  10.616   4.731  0.0717 -0.4590 -0.1592
  752MOL0     C 1394   3.750  10.666   4.728 -0.0266 -0.3573 -0.7241
  752MOL0     C 1395   3.662  10.602   4.619 -0.7457  0.3792  0.3934
  752MOL0     C 1396   3.517  10.650   4.627 -0.1739 -0.3278  0.3054
  752MOL0     C 1397   3.427  10.567   4.526 -0.9374 -0.9935  0.0602
  752MOL0     C 1398   3.277  10.557   4.580 -0.0621  0.1061 -0.1382
  752MOL0     C 1399   3.190  10.484   4.477  1.1282  0.2037 -0.1462
  752MOL0     C 1400   3.049  10.458   4.533  0.0737  1.0913 -0.7004
  752MOL0     C 1401   2.962  10.390   4.424 -0.6364  0.0171 -0.1550
  752MOL0     N 1402   2.914  10.483   4.320 -0.0205  0.5055 -0.3506
  752MOL0     C 1403   2.933  10.456   4.188  0.5625  0.1753  0.1486
  752MOL0     C 1404   2.932  10.582   4.136  0.3977  1.8796 -0.4780
  752MOL0     C 1405   2.945  10.620   3.996 -0.2077  0.5891  0.5809
  752MOL0     C 1406   2.819  10.581   3.920  0.0502  0.7339  0.1821
  752MOL0     C 1407   2.798  10.643   3.775  0.4264  1.1833 -0.2673
  752MOL0     C 1408   2.731  10.532   3.688 -1.1290 -0.0135 -0.7381
  752MOL0     O 1409   2.715  10.587   3.556  0.0210 -0.5949  0.2184
  752MOL0     C 1410   2.652  10.504   3.470 -0.3886  0.4785 -0.2990
  752MOL0     C 1411   2.600  10.371   3.499 -0.5769 -1.1799  0.0165
  752MOL0     C 1412   2.521  10.308   3.404 -0.2450  0.3400 -0.3271
  752MOL0     C 1413   2.528  10.342   3.266 -0.2453 -0.3990  0.0609
  752MOL0     C 1414   2.463  10.259   3.170  0.2555 -0.0954  0.3864
  752MOL0     O 1415   2.430  10.134   3.210  0.4685 -0.3755 -0.3831
  752MOL0     C 1416   2.329  10.057   3.163  0.6180 -1.0814 -0.0216
  752MOL0     C 1417   2.289  10.057   3.032 -0.7626  0.1511 -0.0833
  752MOL0     C 1418   2.184   9.983   2.986  0.4035 -0.0115  0.5655
  752MOL0     C 1419   2.119   9.900   3.073 -0.6522  0.0793 -0.2825
  752MOL0     O 1420   2.015   9.817   3.041 -0.0555  0.0880 -0.2681
  752MOL0     C 1421   1.960   9.819   2.912  0.3325  0.0147  0.3159
  752MOL0     C 1422   1.962   9.684   2.826 -0.5634  0.6887 -0.3214
  752MOL0     C 1423   1.840   9.594   2.855 -0.0810  0.2472  0.0187
  752MOL0     C 1424   1.725   9.659   2.780 -0.4805  0.3763 -0.5497
  752MOL0     C 1425   1.590   9.592   2.818 -1.0149 -0.6069 -0.0727
  752MOL0     C 1426   1.482   9.629   2.721 -0.4888 -1.1907 -0.5833
  752MOL0     C 1427   1.349   9.553   2.746  0.1909  0.3146 -0.6821
  752MOL0     C 1428   1.252   9.562   2.628  0.1596 -0.1139 -0.3521
  752MOL0    Cl 1429   1.181   9.728   2.628  0.2957 -0.3022 -0.0361
  752MOL0     C 1430   2.150   9.909   3.209  0.5246  0.2241 -1.0017
  752MOL0     C 1431   2.254   9.987   3.256 -0.0554 -0.2295  0.3033
  752MOL0     O 1432   2.426  10.316   3.069 -0.4390 -0.0224  0.1672
  752MOL0     C 1433   2.602  10.460   3.231 -0.8941  0.6464 -0.1748
  752MOL0     C 1434   2.648  10.538   3.336 -0.5347  0.8131  0.1070
  752MOL0     N 1435   2.911  10.670   4.238 -0.9092 -0.0658 -0.4350
  752MOL0     N 1436   2.894  10.609   4.347  1.0964 -0.1426  0.3707
  752MOL0     C 1437   3.937  10.791   4.903 -0.0838  0.0930 -0.3272
  752MOL0     C 1438   4.031  10.837   4.994  0.4398  0.3284 -0.0262
  752MOL0     C 1439   4.327  10.875   5.317  0.7603 -0.4479 -0.3125
  752MOL0     C 1440   4.431  10.782   5.310  0.2041  0.1543  0.8779
  752MOL0     C 1441   4.501  10.746   5.428 -0.5203  0.4251  0.5463
  752MOL0     C 1442   4.484  10.811   5.548  0.4330  0.3527  0.5517
  752MOL0     O 1443   4.572  10.776   5.648  0.1824 -0.4932  0.6943
  752MOL0     C 1444   4.577  10.848   5.766 -0.3678 -0.2502 -0.6960
  752MOL0     C 1445   4.504  10.769   5.872  0.8622  0.2502 -0.7585
  752MOL0     C 1446   4.548  10.614   5.882 -0.2239 -1.0155  0.1659
  752MOL0     C 1447   4.451  10.540   5.972 -0.3855  0.0259 -0.2002
  752MOL0     C 1448   4.505  10.557   6.110  0.2380 -0.2724 -0.6451
  752MOL0     C 1449   4.563  10.572   6.215  0.8352 -1.0364  0.0288
  752MOL0     C 1450   4.378  10.910   5.553 -0.2669  0.1484  0.3371
  752MOL0     C 1451   4.295  10.930   5.443 -0.0398  0.8124  0.2187
  752MOL0     C 1452   4.172  11.015   5.471 -0.7482  0.0654  0.6788
  752MOL0     H 1453   4.281  10.630   4.923  0.6637 -0.2570  2.8081
  752MOL0     H 1454   4.130  10.552   4.762  2.1362  0.0948  1.5476
  752MOL0     H 1455   3.707  10.668   4.828  2.2451 -0.7293  0.3325
  752MOL0     H 1456   3.759  10.772   4.704 -0.7819  0.5799  2.6084
  752MOL0     H 1457   3.671  10.498   4.652 -0.4237  1.0707  2.6775
  752MOL0     H 1458   3.702  10.611   4.517 -0.0169  2.2267  0.8074
  752MOL0     H 1459   3.499  10.756   4.605 -1.4980 -0.6425 -0.2259
  752MOL0     H 1460   3.495  10.635   4.733  4.1306  0.7346  1.5260
  752MOL0     H 1461   3.434  10.618   4.429 -1.9272  0.6070  0.7961
  752MOL0     H 1462   3.470  10.466   4.516  2.0263  0.2816 -1.5615
  752MOL0     H 1463   3.276  10.515   4.680  0.5745 -0.3604 -0.3240
  752MOL0     H 1464   3.227  10.654   4.591 -1.5468 -0.8386  2.3877
  752MOL0     H 1465   3.186  10.530   4.378  0.8303 -2.1038 -1.2559
  752MOL0     H 1466   3.240  10.389   4.458  0.5299 -0.9877  3.4083
  752MOL0     H 1467   3.011  10.546   4.587 -1.9564 -0.9608  1.5029
  752MOL0     H 1468   3.045  10.393   4.621  1.4485 -0.0502 -1.4620
  752MOL0     H 1469   3.017  10.312   4.371 -0.5592 -0.3270  0.4316
  752MOL0     H 1470   2.874  10.350   4.475 -0.8153 -0.0307 -0.4981
  752MOL0     H 1471   2.945  10.368   4.125  2.8640  1.4778 -1.3828
  752MOL0     H 1472   2.951  10.729   3.988 -1.7435  1.1306  4.3575
  752MOL0     H 1473   3.032  10.570   3.953 -1.1705 -2.3076  1.7526
  752MOL0     H 1474   2.813  10.472   3.926 -1.0712  0.7754  0.1621
  752MOL0     H 1475   2.732  10.608   3.981 -1.8447  0.1225 -2.0642
  752MOL0     H 1476   2.883  10.694   3.730  1.2053  2.4548  2.4509
  752MOL0     H 1477   2.723  10.722   3.783 -0.6752  0.1466  0.1343
  752MOL0     H 1478   2.640  10.507   3.743  0.4997  0.6617  2.5096
  752MOL0     H 1479   2.798  10.447   3.676  0.0356  0.7924 -0.2006
  752MOL0     H 1480   2.608  10.327   3.598  1.1802  1.2849  1.0848
  752MOL0     H 1481   2.468  10.218   3.433 -0.0088 -0.6998 -2.8761
  752MOL0     H 1482   2.355  10.118   2.971  0.7357  1.1882  2.3934
  752MOL0     H 1483   2.164   9.985   2.880 -0.3118 -1.8598  0.6287
  752MOL0     H 1484   1.857   9.850   2.931 -0.2773 -1.5128 -0.3673
  752MOL0     H 1485   1.990   9.909   2.858  0.7116 -0.1585  0.2344
  752MOL0     H 1486   1.973   9.697   2.718 -2.6813 -3.2027 -1.2013
  752MOL0     H 1487   2.048   9.623   2.853 -0.0732  1.7768  0.6573
  752MOL0     H 1488   1.850   9.490   2.820  0.3256 -0.0582  0.9920
  752MOL0     H 1489   1.817   9.591   2.962  1.0243  0.9212  0.2876
  752MOL0     H 1490   1.741   9.631   2.675 -0.1150  0.5505 -0.5412
  752MOL0     H 1491   1.723   9.768   2.788  0.0036  0.2501  2.0482
  752MOL0     H 1492   1.555   9.614   2.919 -4.6019 -0.1409 -1.2538
  752MOL0     H 1493   1.607   9.484   2.818  3.6139 -0.0788  1.6272
  752MOL0     H 1494   1.474   9.737   2.709  0.2128 -0.6639  2.7858
  752MOL0     H 1495   1.515   9.582   2.627  0.7532  0.2052 -0.8704
  752MOL0     H 1496   1.304   9.600   2.834  1.1744 -2.4755  1.4845
  752MOL0     H 1497   1.368   9.447   2.767  2.5543  0.4757 -1.6714
  752MOL0     H 1498   1.292   9.545   2.528  1.6308 -1.6548  0.4545
  752MOL0     H 1499   1.168   9.496   2.652 -0.1440  0.9513  1.8768
  752MOL0     H 1500   2.102   9.841   3.278 -0.2640  2.4961  0.8292
  752MOL0     H 1501   2.273   9.984   3.363  0.9218 -3.9470  0.1502
  752MOL0     H 1502   2.602  10.486   3.125 -1.9303 -2.6206 -1.1006
  752MOL0     H 1503   2.695  10.632   3.308 -1.4452  0.3557 -3.4398
  752MOL0     H 1504   3.836  10.831   4.898 -0.9058 -1.8370 -0.1521
  752MOL0     H 1505   4.002  10.921   5.056  3.2917 -0.1110  2.1156
  752MOL0     H 1506   4.452  10.733   5.215 -2.9814  1.4324 -0.6304
  752MOL0     H 1507   4.580  10.671   5.434  0.4515  1.0131 -2.7662
  752MOL0     H 1508   4.544  10.952   5.759 -1.3632 -0.4834  0.3111
  752MOL0     H 1509   4.682  10.858   5.795 -0.0152  2.1814 -2.4682
  752MOL0     H 1510   4.396  10.773   5.854  0.7424 -1.4385 -0.6565
  752MOL0     H 1511   4.508  10.820   5.968 -3.3787 -0.3224 -0.0948
  752MOL0     H 1512   4.651  10.586   5.906  1.2002  0.6765 -3.3111
  752MOL0     H 1513   4.539  10.571   5.782  3.4770 -0.2767 -0.6194
  752MOL0     H 1514   4.349  10.578   5.961 -0.4297 -0.7563 -3.3398
  752MOL0     H 1515   4.446  10.435   5.944 -1.3082 -0.0414  0.1771
  752MOL0     H 1516   4.625  10.578   6.302  4.2228 -0.5910 -2.2392
  752MOL0     H 1517   4.356  10.968   5.643 -2.2387 -0.2887  0.1767
  752MOL0     H 1518   4.187  11.112   5.423  1.3063 -1.2427 -1.5236
  752MOL0     H 1519   4.077  10.977   5.431 -1.7901  3.8229 -0.9116
  752MOL0     H 1520   4.156  11.030   5.578  0.0267 -0.0814  0.8163
  753MOL0     O 1521   4.175   2.979   0.860  0.1652  0.6641  0.2104
  753MOL0     C 1522   4.242   3.025   0.952 -0.5746 -0.1986  0.3059
  753MOL0     O 1523   4.251   2.961   1.077 -0.6060 -0.3157  0.6570
  753MOL0     C 1524   4.152   2.890   1.123 -0.1590 -0.4232  0.6696
  753MOL0     C 1525   4.082   2.930   1.234  0.6831 -0.1581  0.5251
  753MOL0     C 1526   3.968   2.864   1.271  0.6904  0.0514 -0.8449
  753MOL0     C 1527   3.924   2.743   1.210 -0.1955 -0.1690  0.4614
  753MOL0     O 1528   3.822   2.662   1.263  0.2680  1.0208  0.4390
  753MOL0     C 1529   3.816   2.658   1.400  1.0742  0.1235 -0.0137
  753MOL0     C 1530   3.694   2.569   1.433  0.1448 -0.7847  0.4307
  753MOL0     C 1531   3.563   2.638   1.398  0.9865 -1.0972  0.1521
  753MOL0     C 1532   3.440   2.558   1.454 -0.3082 -0.2468 -0.1169
  753MOL0     C 1533   3.306   2.623   1.437 -0.4702 -0.3963 -0.0126
  753MOL0     C 1534   3.292   2.756   1.516 -1.0117  0.1302  0.0812
  753MOL0     C 1535   3.174   2.852   1.476 -0.0147  0.1345 -0.0451
  753MOL0     C 1536   3.038   2.783   1.508  0.8201 -0.6057  0.3449
  753MOL0     N 1537   3.028   2.743   1.650 -0.2931 -0.2821 -0.4267
  753MOL0     C 1538   3.001   2.824   1.760  0.8194 -1.2148  0.9734
  753MOL0     C 1539   3.033   2.753   1.875 -0.4739  0.0992 -0.1901
  753MOL0     C 1540   3.043   2.804   2.020 -0.1722 -1.0609  0.1552
  753MOL0     C 1541   2.909   2.793   2.094  0.4875 -0.2324  0.8668
  753MOL0     C 1542   2.916   2.831   2.239  0.0443  0.6617  0.0458
  753MOL0     C 1543   2.945   2.984   2.247 -0.5060  0.1787 -0.7445
  753MOL0     O 1544   3.077   3.017   2.199  0.2293 -0.0281  0.0823
  753MOL0     C 1545   3.149   3.128   2.233  0.0687 -0.3990 -0.1683
  753MOL0     C 1546   3.101   3.224   2.326  0.1424  0.8925  0.0072
  753MOL0     C 1547   3.175   3.332   2.362  0.3575 -0.1161 -0.2002
  753MOL0     C 1548   3.299   3.361   2.306 -0.1587  0.0056  0.1467
  753MOL0     C 1549   3.369   3.482   2.331 -0.3592  0.0091 -0.3394
  753MOL0     O 1550   3.307   3.573   2.411  0.4706 -0.3817  0.2378
  753MOL0     C 1551   3.386   3.655   2.478  0.5174 -0.6072  0.2251
  753MOL0     C 1552   3.420   3.777   2.415  0.2304 -0.1899 -0.6902
  753MOL0     C 1553   3.480   3.877   2.491  0.1783 -0.2626 -0.4310
  753MOL0     C 1554   3.505   3.867   2.628  0.3848 -0.3228 -0.1113
  753MOL0     O 1555   3.559   3.969   2.702  1.1250 -0.4007  0.4848
  753MOL0     C 1556   3.650   3.944   2.811 -0.3846 -0.4048 -0.2196
  753MOL0     C 1557   3.769   3.860   2.774 -0.0158 -0.1145 -0.1913
  753MOL0     C 1558   3.859   3.909   2.658  0.0866  0.3622 -0.0737
  753MOL0     C 1559   3.909   4.047   2.676 -0.4847 -0.9585  0.2229
  753MOL0     C 1560   4.010   4.081   2.556 -0.0754 -0.5210 -0.5145
  753MOL0     C 1561   4.108   4.194   2.582  0.1266 -1.1157 -0.2962
  753MOL0     C 1562   4.202   4.232   2.465  0.2420  0.6264 -0.7925
  753MOL0     C 1563   4.294   4.124   2.432  0.1449  0.0594  0.1892
  753MOL0    Cl 1564   4.440   4.169   2.339 -0.1788 -0.2446  0.1942
  753MOL0     C 1565   3.468   3.755   2.688 -0.2587  1.0161 -0.2035
  753MOL0     C 1566   3.404   3.650   2.617 -0.7464  0.4254  0.1147
  753MOL0     O 1567   3.487   3.501   2.289  0.3370  0.8975 -0.1974
  753MOL0     C 1568   3.340   3.278   2.196 -0.1067  0.7053 -1.1216
  753MOL0     C 1569   3.272   3.153   2.172 -0.1127 -1.1579 -0.4116
  753MOL0     N 1570   3.057   2.626   1.828 -0.6271 -0.3173  0.4539
  753MOL0     N 1571   3.049   2.620   1.697  0.1557 -0.5849  0.5599
  753MOL0     C 1572   3.996   2.700   1.097 -0.6305 -0.5600 -0.2481
  753MOL0     C 1573   4.105   2.779   1.055 -0.3772 -1.0277 -0.0392
  753MOL0     C 1574   4.345   3.135   0.920  0.7580 -0.1165 -0.0005
  753MOL0     C 1575   4.439   3.173   1.017 -0.7222  0.6372 -0.1246
  753MOL0     C 1576   4.532   3.267   0.991 -0.2292  0.7653 -0.1060
  753MOL0     C 1577   4.534   3.329   0.867  0.8852  0.7742  0.0266
  753MOL0     O 1578   4.614   3.437   0.855 -0.6622 -0.6600 -0.1667
  753MOL0     C 1579   4.669   3.468   0.725 -0.9205 -0.6392  0.0559
  753MOL0     C 1580   4.792   3.559   0.736  1.2408 -0.3466 -0.1139
  753MOL0     C 1581   4.912   3.503   0.811 -0.2496  0.0958  0.7177
  753MOL0     C 1582   4.900   3.504   0.960 -0.1024 -0.4578 -0.3381
  753MOL0     C 1583   5.018   3.470   1.039  0.5428  0.4516  0.1389
  753MOL0     C 1584   5.111   3.426   1.104 -0.1967  0.1764 -0.6853
  753MOL0     C 1585   4.439   3.302   0.776  1.1067  0.0470 -0.5742
  753MOL0     C 1586   4.349   3.198   0.796 -0.5359 -0.3891 -0.0859
  753MOL0     C 1587   4.258   3.191   0.669  0.5767 -0.2592 -0.4885
  753MOL0     H 1588   4.110   3.025   1.280 -0.6953 -0.1334  1.3799
  753MOL0     H 1589   3.914   2.895   1.360  1.6195 -0.7159  0.0204
  753MOL0     H 1590   3.910   2.611   1.432  0.3005 -3.6968 -2.6656
  753MOL0     H 1591   3.801   2.754   1.451  2.0868  0.4421 -0.2700
  753MOL0     H 1592   3.693   2.553   1.541  0.0584 -1.2013  0.3693
  753MOL0     H 1593   3.689   2.470   1.387 -1.7920  0.0698 -1.3454
  753MOL0     H 1594   3.564   2.644   1.289  2.3090 -0.3985  0.1753
  753MOL0     H 1595   3.556   2.741   1.434  0.4398 -1.3494  0.7858
  753MOL0     H 1596   3.435   2.457   1.412 -1.1705 -0.6020  0.7854
  753MOL0     H 1597   3.448   2.553   1.563  0.0119  0.8062 -0.0794
  753MOL0     H 1598   3.288   2.641   1.331  0.1647  2.1136  0.2496
  753MOL0     H 1599   3.232   2.552   1.475  1.4039 -2.4065  0.0608
  753MOL0     H 1600   3.278   2.750   1.624  0.3771  0.3469  0.2840
  753MOL0     H 1601   3.379   2.821   1.505 -2.1394  1.4476 -1.5733
  753MOL0     H 1602   3.175   2.877   1.369 -2.6631  1.1295  0.0954
  753MOL0     H 1603   3.179   2.940   1.540  0.1492 -1.2089  1.8577
  753MOL0     H 1604   2.956   2.854   1.492 -0.9857 -2.0401  2.6096
  753MOL0     H 1605   3.018   2.703   1.436 -0.3611  0.7423 -0.8917
  753MOL0     H 1606   2.973   2.928   1.755 -0.5628 -1.4191  3.0174
  753MOL0     H 1607   3.124   2.751   2.069  0.3782  1.1948  1.8865
  753MOL0     H 1608   3.072   2.908   2.001 -0.3910 -1.1520 -0.7723
  753MOL0     H 1609   2.829   2.853   2.049 -0.4703 -0.2971  2.4374
  753MOL0     H 1610   2.877   2.689   2.091 -1.2111  0.2512  1.0014
  753MOL0     H 1611   2.992   2.774   2.294  0.4821  1.0436 -0.1604
  753MOL0     H 1612   2.817   2.816   2.283  0.8784 -5.5558  0.7530
  753MOL0     H 1613   2.958   2.999   2.355  2.3191 -0.9719 -0.8304
  753MOL0     H 1614   2.867   3.053   2.214  0.7576  1.8564 -0.3281
  753MOL0     H 1615   3.002   3.212   2.369  1.1463 -0.0341  2.2177
  753MOL0     H 1616   3.121   3.392   2.434  1.2783  0.5793 -0.0754
  753MOL0     H 1617   3.407   3.802   2.310 -0.1991  0.9331 -0.3821
  753MOL0     H 1618   3.486   3.978   2.452 -1.1063  0.6522  1.5735
  753MOL0     H 1619   3.706   4.032   2.847  1.6803 -1.6361 -0.3007
  753MOL0     H 1620   3.607   3.897   2.900 -2.2735 -1.3862 -1.5973
  753MOL0     H 1621   3.839   3.840   2.856 -0.5495 -2.9981 -0.3404
  753MOL0     H 1622   3.735   3.762   2.739 -0.5601  0.2334 -0.6514
  753MOL0     H 1623   3.940   3.835   2.655  0.5182  0.8540 -0.7421
  753MOL0     H 1624   3.805   3.901   2.564  1.7215 -0.2012 -1.0146
  753MOL0     H 1625   3.956   4.049   2.775 -2.4030 -4.5872  1.3992
  753MOL0     H 1626   3.822   4.113   2.677 -0.7584 -1.2830 -0.9784
  753MOL0     H 1627   3.945   4.113   2.474  0.5524  2.3205  0.0171
  753MOL0     H 1628   4.071   3.995   2.526  1.4825  1.1823 -2.4910
  753MOL0     H 1629   4.040   4.275   2.610 -0.5780 -1.1518 -1.7930
  753MOL0     H 1630   4.160   4.170   2.674 -0.7990 -1.2458  0.2063
  753MOL0     H 1631   4.259   4.315   2.507  3.0711 -2.2447  1.4822
  753MOL0     H 1632   4.149   4.264   2.375 -0.5676 -2.1736 -1.4246
  753MOL0     H 1633   4.335   4.070   2.518 -0.7119 -1.8282 -0.5401
  753MOL0     H 1634   4.229   4.059   2.373  0.5532  0.6517 -0.9488
  753MOL0     H 1635   3.483   3.742   2.795 -0.5088 -1.9012 -0.4397
  753MOL0     H 1636   3.378   3.557   2.667 -1.9751 -0.8663 -2.7607
  753MOL0     H 1637   3.416   3.299   2.121  0.7321 -1.2063 -0.8827
  753MOL0     H 1638   3.307   3.099   2.085  0.9906 -1.8014  0.4075
  753MOL0     H 1639   3.967   2.610   1.045 -2.5023  1.4995 -3.0492
  753MOL0     H 1640   4.162   2.737   0.973  1.9308 -1.1935  1.5672
  753MOL0     H 1641   4.437   3.118   1.110 -2.2377  0.3034 -0.3262
  753MOL0     H 1642   4.603   3.295   1.069 -0.0768 -0.6047  0.2810
  753MOL0     H 1643   4.597   3.519   0.661 -0.6426  0.5996  0.6868
  753MOL0     H 1644   4.701   3.369   0.691 -1.3746 -0.9441  0.4899
  753MOL0     H 1645   4.756   3.656   0.771 -0.9388 -1.3929  0.7132
  753MOL0     H 1646   4.817   3.579   0.631 -2.3620  3.5274 -0.4679
  753MOL0     H 1647   4.997   3.561   0.775 -0.3877 -1.3588 -2.2971
  753MOL0     H 1648   4.926   3.402   0.769  0.2243  0.9702 -1.3676
  753MOL0     H 1649   4.863   3.603   0.988 -0.2916 -0.7592  0.5389
  753MOL0     H 1650   4.823   3.432   0.990 -0.2522 -0.0851  0.1986
  753MOL0     H 1651   5.180   3.378   1.171  0.7664  0.7893 -1.2202
  753MOL0     H 1652   4.445   3.353   0.680 -0.0509 -1.3149 -1.4244
  753MOL0     H 1653   4.267   3.284   0.612 -3.4814  2.0158  2.0821
  753MOL0     H 1654   4.297   3.123   0.593  0.7101  1.5782 -2.1261
  753MOL0     H 1655   4.152   3.172   0.686  0.8476 -0.1063  1.7666
  754MOL0     O 1656   8.244   2.999   1.380  0.4567 -0.4821  0.9781
  754MOL0     C 1657   8.304   2.997   1.482 -0.7507  0.3059 -0.8511
  754MOL0     O 1658   8.251   3.046   1.601 -0.4172  0.3306 -0.3030
  754MOL0     C 1659   8.121   3.095   1.597 -0.3160  0.1767 -0.5748
  754MOL0     C 1660   8.021   3.014   1.620  0.0733 -0.4075 -0.6251
  754MOL0     C 1661   7.888   3.062   1.623  0.1278 -0.7538 -0.3170
  754MOL0     C 1662   7.855   3.193   1.590 -0.7716 -0.5874 -0.0111
  754MOL0     O 1663   7.734   3.264   1.599  0.4012  0.1727 -0.3895
  754MOL0     C 1664   7.620   3.196   1.648  0.0947 -0.6158  0.5724
  754MOL0     C 1665   7.490   3.278   1.619 -0.7945 -0.5890 -0.9242
  754MOL0     C 1666   7.371   3.213   1.686  0.1233 -0.4512 -0.1235
  754MOL0     C 1667   7.302   3.104   1.613  0.1754  0.3428  0.7715
  754MOL0     C 1668   7.160   3.072   1.651  0.5150 -0.0300  0.2341
  754MOL0     C 1669   7.056   3.183   1.617 -0.7997 -0.1091 -0.2147
  754MOL0     C 1670   6.909   3.155   1.666 -0.7847  0.4299  0.2124
  754MOL0     C 1671   6.824   3.281   1.644  0.4326 -1.3054  0.4607
  754MOL0     N 1672   6.683   3.250   1.663  1.3808  0.0114  0.9640
  754MOL0     C 1673   6.637   3.181   1.770  0.4261 -0.1775  0.1720
  754MOL0     C 1674   6.494   3.182   1.761 -0.6109 -0.2728  0.8428
  754MOL0     C 1675   6.382   3.137   1.850 -0.3108  0.2194  0.6146
  754MOL0     C 1676   6.435   3.127   1.991  0.0614  0.3484 -0.4128
  754MOL0     C 1677   6.447   3.263   2.070 -0.0782  0.7389  1.0481
  754MOL0     C 1678   6.491   3.243   2.218 -0.1055  0.1594  0.0447
  754MOL0     O 1679   6.578   3.126   2.241 -0.0262  0.0762 -0.5340
  754MOL0     C 1680   6.719   3.132   2.217 -0.3920 -0.0496  0.8487
  754MOL0     C 1681   6.797   3.250   2.204 -0.0431  0.1948 -0.0151
  754MOL0     C 1682   6.937   3.228   2.170  1.0263 -0.0722  0.4338
  754MOL0     C 1683   6.997   3.095   2.176 -0.5287  0.0001  0.1871
  754MOL0     C 1684   7.144   3.081   2.159  0.2241 -0.3669 -0.0023
  754MOL0     O 1685   7.199   2.963   2.189 -0.3376  0.0317  0.2392
  754MOL0     C 1686   7.337   2.930   2.172  0.7339  0.4202  0.4276
  754MOL0     C 1687   7.365   2.799   2.220 -0.4735 -0.2935 -0.2562
  754MOL0     C 1688   7.498   2.751   2.221  0.0516  0.1862  0.3134
  754MOL0     C 1689   7.593   2.813   2.137  0.2042 -0.3774  0.3106
  754MOL0     O 1690   7.716   2.751   2.134 -0.2663  0.6578  0.5452
  754MOL0     C 1691   7.828   2.819   2.081  0.2048 -0.1856  0.1087
  754MOL0     C 1692   7.945   2.724   2.097  0.3469 -0.1577 -0.5431
  754MOL0     C 1693   8.087   2.784   2.067  0.2805 -0.4450  0.5287
  754MOL0     C 1694   8.138   2.784   1.925  0.0790  0.6504  0.2392
  754MOL0     C 1695   8.252   2.685   1.894  0.1688 -0.0354 -0.8611
  754MOL0     C 1696   8.317   2.705   1.758 -0.7968  0.3323  0.5241
  754MOL0     C 1697   8.450   2.632   1.758 -0.2372 -0.0293  0.3805
  754MOL0     C 1698   8.514   2.649   1.623  0.0461  0.1744 -0.0456
  754MOL0    Cl 1699   8.616   2.505   1.589 -0.3466  0.0730 -0.5963
  754MOL0     C 1700   7.563   2.938   2.085 -0.2016  0.4488  0.3436
  754MOL0     C 1701   7.437   2.998   2.103  0.4575  0.0238 -0.5913
  754MOL0     O 1702   7.206   3.174   2.109 -0.0818 -0.5913  0.3424
  754MOL0     C 1703   6.912   2.986   2.172  0.6266 -0.0070 -0.1131
  754MOL0     C 1704   6.776   3.003   2.199  0.1102 -0.4480  0.0925
  754MOL0     N 1705   6.469   3.230   1.634  0.2676  0.4820  0.1448
  754MOL0     N 1706   6.574   3.286   1.582 -0.8866 -0.1739 -0.0215
  754MOL0     C 1707   7.959   3.282   1.562 -0.8630  0.5870  0.6108
  754MOL0     C 1708   8.094   3.229   1.562 -0.7204 -0.2459 -0.4076
  754MOL0     C 1709   8.444   2.968   1.476 -0.2437 -0.3985 -0.8220
  754MOL0     C 1710   8.525   3.049   1.560  0.7279  0.1858 -1.2752
  754MOL0     C 1711   8.661   3.044   1.545 -0.2935  0.7591 -0.5128
  754MOL0     C 1712   8.732   2.963   1.452  0.4488 -0.4480  0.9873
  754MOL0     O 1713   8.866   2.961   1.415 -0.3850  0.1765 -0.2296
  754MOL0     C 1714   8.957   2.930   1.524 -0.1201  0.7157 -0.0715
  754MOL0     C 1715   9.100   2.923   1.478  0.5077 -0.2803  0.2036
  754MOL0     C 1716   9.134   2.806   1.377  0.9121 -0.0520  0.2817
  754MOL0     C 1717   9.280   2.771   1.363 -0.5002 -0.1626 -0.4196
  754MOL0     C 1718   9.316   2.635   1.323  0.0085  0.4832  0.8194
  754MOL0     C 1719   9.331   2.517   1.292  0.3531 -0.4946  0.0823
  754MOL0     C 1720   8.651   2.892   1.362  0.5582 -0.4089  1.4569
  754MOL0     C 1721   8.504   2.894   1.376 -0.2304 -0.1611  0.1276
  754MOL0     C 1722   8.419   2.798   1.288 -0.9761  0.3354  0.1854
  754MOL0     H 1723   8.051   2.915   1.652 -1.4517 -2.4584 -4.8056
  754MOL0     H 1724   7.812   3.002   1.672  0.3617 -1.2138 -0.5133
  754MOL0     H 1725   7.596   3.104   1.594 -0.9517 -0.4605  0.7633
  754MOL0     H 1726   7.630   3.173   1.755 -2.5510  0.1513  1.0585
  754MOL0     H 1727   7.471   3.289   1.511 -2.3829 -2.4672 -0.9052
  754MOL0     H 1728   7.497   3.377   1.664 -1.4909  0.0987 -2.2404
  754MOL0     H 1729   7.299   3.295   1.686 -0.1773 -0.6885 -1.7268
  754MOL0     H 1730   7.372   3.186   1.792  0.8057 -0.0086 -0.0114
  754MOL0     H 1731   7.299   3.131   1.507  0.7949 -0.1573  0.6156
  754MOL0     H 1732   7.367   3.016   1.608  4.0540  2.9576 -3.5822
  754MOL0     H 1733   7.124   2.984   1.596 -0.6512  0.0818  0.7831
  754MOL0     H 1734   7.153   3.050   1.758 -1.1184 -2.1475 -0.2292
  754MOL0     H 1735   7.090   3.275   1.665  1.4010 -1.0431  0.1005
  754MOL0     H 1736   7.058   3.197   1.508  0.7197 -0.0468 -0.1959
  754MOL0     H 1737   6.906   3.129   1.772 -1.6644 -0.8346 -0.1002
  754MOL0     H 1738   6.871   3.072   1.605  1.3098 -0.8637  0.5589
  754MOL0     H 1739   6.864   3.366   1.700  2.5311 -2.5904  1.0226
  754MOL0     H 1740   6.836   3.316   1.541 -0.6025 -1.8632  0.1292
  754MOL0     H 1741   6.697   3.145   1.853  0.2278  0.8844  0.8050
  754MOL0     H 1742   6.300   3.209   1.852 -1.7567 -1.3075 -0.6403
  754MOL0     H 1743   6.344   3.040   1.816  1.6491 -0.6373  0.6725
  754MOL0     H 1744   6.380   3.050   2.046  2.0906 -2.0135 -1.4695
  754MOL0     H 1745   6.532   3.077   1.987  0.6605  1.5161 -1.1339
  754MOL0     H 1746   6.357   3.325   2.068 -1.4640 -1.1935 -0.9195
  754MOL0     H 1747   6.522   3.320   2.015  0.9476 -0.3688  1.2573
  754MOL0     H 1748   6.399   3.220   2.272 -1.1251  1.4113 -1.0576
  754MOL0     H 1749   6.539   3.338   2.242  1.7157 -0.5845 -0.4588
  754MOL0     H 1750   6.761   3.349   2.230  3.2182  0.8328  2.7794
  754MOL0     H 1751   7.000   3.315   2.154  0.3384  0.0455 -2.1221
  754MOL0     H 1752   7.279   2.753   2.268  0.8755  0.1192  2.7374
  754MOL0     H 1753   7.519   2.656   2.270  0.0796 -0.0537 -0.1548
  754MOL0     H 1754   7.817   2.851   1.976  0.1686 -0.2638  0.0886
  754MOL0     H 1755   7.855   2.901   2.148 -1.5559 -0.9830  1.8789
  754MOL0     H 1756   7.936   2.675   2.194 -2.9602 -2.3547 -1.7737
  754MOL0     H 1757   7.914   2.641   2.032 -1.6303 -3.1285  3.7393
  754MOL0     H 1758   8.099   2.886   2.107  4.8073 -0.5315 -0.0682
  754MOL0     H 1759   8.155   2.714   2.117  3.3546 -0.7207 -3.5410
  754MOL0     H 1760   8.174   2.886   1.906 -1.2254  1.1085  0.1801
  754MOL0     H 1761   8.059   2.765   1.852 -2.1755  2.3064  2.0783
  754MOL0     H 1762   8.202   2.588   1.901 -1.0260  0.6108 -0.2386
  754MOL0     H 1763   8.324   2.693   1.977 -1.4204 -1.0866  0.6844
  754MOL0     H 1764   8.253   2.672   1.676  0.7725  2.1946 -1.6147
  754MOL0     H 1765   8.337   2.812   1.748  2.6596 -0.1463  0.8310
  754MOL0     H 1766   8.444   2.524   1.776  0.1416 -0.1103  0.0429
  754MOL0     H 1767   8.507   2.690   1.832  1.1266  2.2488 -2.2842
  754MOL0     H 1768   8.430   2.653   1.553  0.2101 -2.6403 -0.5205
  754MOL0     H 1769   8.581   2.735   1.620 -0.6451  0.7969  1.5345
  754MOL0     H 1770   7.643   2.991   2.035 -0.8494  0.4084 -0.7842
  754MOL0     H 1771   7.415   3.093   2.055 -0.9589 -0.0343 -0.0932
  754MOL0     H 1772   6.958   2.893   2.140  1.3682 -0.3352  1.7567
  754MOL0     H 1773   6.703   2.924   2.184  2.0204 -1.9364 -2.1988
  754MOL0     H 1774   7.946   3.388   1.541 -2.3348  0.3838  0.4212
  754MOL0     H 1775   8.181   3.292   1.546  0.9956 -0.8522  4.5515
  754MOL0     H 1776   8.478   3.121   1.626 -5.3448 -2.7415 -1.7507
  754MOL0     H 1777   8.715   3.118   1.604  2.9538 -2.8573  1.5857
  754MOL0     H 1778   8.926   2.837   1.573 -1.9082  1.4659  0.3086
  754MOL0     H 1779   8.951   3.009   1.599  4.0554  0.2602  1.0120
  754MOL0     H 1780   9.154   2.907   1.572  1.6058  1.5727 -0.0519
  754MOL0     H 1781   9.121   3.024   1.441 -0.0707  0.0060  0.6389
  754MOL0     H 1782   9.096   2.843   1.281  0.5590 -0.3593  0.3016
  754MOL0     H 1783   9.087   2.708   1.389 -0.0838  0.4661  0.7557
  754MOL0     H 1784   9.341   2.829   1.292  2.6906 -1.1212  1.3185
  754MOL0     H 1785   9.331   2.793   1.457 -2.0331  0.1849  0.3644
  754MOL0     H 1786   9.360   2.426   1.245 -0.5129  1.0576 -3.9430
  754MOL0     H 1787   8.709   2.837   1.289  0.7044 -0.2375  1.4461
  754MOL0     H 1788   8.481   2.718   1.248 -2.1391 -1.7711  2.3485
  754MOL0     H 1789   8.341   2.757   1.353 -1.8329  1.2776 -0.2079
  754MOL0     H 1790   8.373   2.866   1.216 -2.4114 -1.2502 -0.4690
  755MOL0     O 1791   3.416   4.605   6.321  0.5172  0.2967 -0.1963
  755MOL0     C 1792   3.365   4.499   6.293  0.4674  0.6703 -0.5870
  755MOL0     O 1793   3.429   4.379   6.278 -0.4108 -0.2779 -0.2534
  755MOL0     C 1794   3.547   4.360   6.343 -0.2294  0.0345 -0.4324
  755MOL0     C 1795   3.559   4.387   6.480  0.3198 -0.5705  0.6376
  755MOL0     C 1796   3.680   4.374   6.547 -0.1224 -0.0636  0.0788
  755MOL0     C 1797   3.792   4.317   6.488 -0.6004 -0.2003  0.6890
  755MOL0     O 1798   3.895   4.292   6.569 -0.4164  0.2482  0.2785
  755MOL0     C 1799   4.013   4.240   6.500  1.0240 -0.2701 -0.5055
  755MOL0     C 1800   4.123   4.215   6.603  0.6480 -0.2860 -0.1708
  755MOL0     C 1801   4.250   4.219   6.532 -0.4217  0.3142  0.0738
  755MOL0     C 1802   4.358   4.193   6.630 -1.1095  0.0727  0.0398
  755MOL0     C 1803   4.503   4.202   6.573 -0.3001 -0.4031 -0.1449
  755MOL0     C 1804   4.617   4.175   6.683 -0.9967  0.0733  0.0924
  755MOL0     C 1805   4.622   4.272   6.794 -0.2099 -0.5938  0.6409
  755MOL0     C 1806   4.738   4.251   6.894 -0.1177 -0.7292 -0.8648
  755MOL0     N 1807   4.867   4.303   6.837  0.0224 -0.3459 -0.2833
  755MOL0     C 1808   4.940   4.259   6.733  0.4937  0.8414  0.6221
  755MOL0     C 1809   5.056   4.325   6.727 -0.1584 -0.1376 -0.1494
  755MOL0     C 1810   5.182   4.287   6.646  0.1671 -0.0455  0.1150
  755MOL0     C 1811   5.269   4.410   6.620 -1.3547 -0.8364  0.6636
  755MOL0     C 1812   5.406   4.378   6.561 -0.0062  0.3998 -0.2007
  755MOL0     C 1813   5.401   4.324   6.417  0.1126  0.1139  0.3341
  755MOL0     O 1814   5.520   4.244   6.388 -0.1932 -0.0133  0.0064
  755MOL0     C 1815   5.629   4.306   6.338  0.1102 -0.0602 -0.3960
  755MOL0     C 1816   5.725   4.211   6.301 -0.0680 -0.5703  0.3099
  755MOL0     C 1817   5.852   4.258   6.257 -0.2136 -0.5152  0.3911
  755MOL0     C 1818   5.883   4.396   6.255 -0.2701  0.1122 -0.6681
  755MOL0     C 1819   6.016   4.448   6.203 -0.0507  0.7101 -0.2698
  755MOL0     O 1820   6.039   4.575   6.213 -0.1408  0.2939  0.0342
  755MOL0     C 1821   6.151   4.624   6.149  0.4662  1.1489  0.1858
  755MOL0     C 1822   6.148   4.662   6.018  1.3834  0.4543 -0.2607
  755MOL0     C 1823   6.261   4.703   5.952 -0.0424  0.0231  0.2634
  755MOL0     C 1824   6.387   4.710   6.019  0.5272  0.0761 -0.6212
  755MOL0     O 1825   6.503   4.750   5.944  0.0281  0.0469 -0.2414
  755MOL0     C 1826   6.514   4.892   5.925 -0.1298  0.3933 -0.4637
  755MOL0     C 1827   6.583   4.970   6.036 -0.1019  0.1129  0.0568
  755MOL0     C 1828   6.728   4.940   6.027 -0.6977 -0.0758  0.1049
  755MOL0     C 1829   6.811   5.061   6.068 -0.4802 -0.0499 -0.1358
  755MOL0     C 1830   6.952   5.005   6.106  0.1015 -0.0266 -0.4670
  755MOL0     C 1831   7.058   5.111   6.132  0.0893  0.2281  0.5410
  755MOL0     C 1832   7.092   5.180   6.004  0.1450  0.7109 -0.2655
  755MOL0     C 1833   7.237   5.222   6.011  0.2069 -0.1871 -0.2080
  755MOL0    Cl 1834   7.278   5.326   6.151  0.1228  0.0888  0.1447
  755MOL0     C 1835   6.394   4.668   6.152  0.5494  0.6794 -0.0048
  755MOL0     C 1836   6.277   4.620   6.214 -0.1638 -0.2054  0.3021
  755MOL0     O 1837   6.092   4.367   6.156 -0.5343  0.0595 -0.5198
  755MOL0     C 1838   5.779   4.485   6.294 -0.2805 -0.5179 -0.6787
  755MOL0     C 1839   5.655   4.443   6.336  0.2121  0.4957 -0.2980
  755MOL0     N 1840   5.046   4.437   6.817  0.8542  0.0608  0.7355
  755MOL0     N 1841   4.938   4.412   6.882  0.2507  0.0885  1.1854
  755MOL0     C 1842   3.770   4.272   6.350  0.7153  0.5117 -1.0672
  755MOL0     C 1843   3.651   4.303   6.279  0.4457 -0.5491 -0.2258
  755MOL0     C 1844   3.221   4.473   6.273  0.6138  0.9664  0.2381
  755MOL0     C 1845   3.187   4.405   6.152  0.1085  0.1247  0.0981
  755MOL0     C 1846   3.055   4.375   6.121  0.2817 -0.3221  0.5995
  755MOL0     C 1847   2.945   4.432   6.193 -1.0361 -1.1086 -0.1033
  755MOL0     O 1848   2.813   4.414   6.169 -0.3721 -0.0062 -0.1241
  755MOL0     C 1849   2.776   4.324   6.062 -0.1453 -0.1305  0.6180
  755MOL0     C 1850   2.639   4.269   6.072 -1.0795 -1.1541  0.4104
  755MOL0     C 1851   2.528   4.369   6.039 -0.1245 -0.3653 -0.0383
  755MOL0     C 1852   2.404   4.295   6.000  0.7627 -0.5513 -0.3386
  755MOL0     C 1853   2.280   4.378   5.995  0.7938  0.6397  0.4925
  755MOL0     C 1854   2.182   4.446   5.994 -0.0493  0.8028  0.2209
  755MOL0     C 1855   2.986   4.518   6.299  0.4114 -0.1310  0.1892
  755MOL0     C 1856   3.120   4.547   6.341  0.1319 -0.1687  0.0230
  755MOL0     C 1857   3.149   4.651   6.449  0.5857  0.7133  0.9824
  755MOL0     H 1858   3.473   4.439   6.520  0.7101 -0.2313  1.0499
  755MOL0     H 1859   3.681   4.404   6.651  1.3518  1.3688 -0.3026
  755MOL0     H 1860   3.988   4.140   6.462 -0.9471  0.0927 -0.2949
  755MOL0     H 1861   4.046   4.308   6.421  0.2965 -1.0069 -1.4696
  755MOL0     H 1862   4.107   4.125   6.663 -2.3843 -0.7145 -1.3974
  755MOL0     H 1863   4.124   4.304   6.667  0.1992 -0.2602 -0.1909
  755MOL0     H 1864   4.272   4.312   6.479  0.9479  1.7963  3.0038
  755MOL0     H 1865   4.247   4.140   6.456 -2.1014  1.0779 -0.7110
  755MOL0     H 1866   4.337   4.268   6.707 -1.0748 -1.5603  1.7241
  755MOL0     H 1867   4.349   4.098   6.683 -0.9831  1.2541  2.2967
  755MOL0     H 1868   4.513   4.126   6.495  0.3425 -0.1976 -0.2684
  755MOL0     H 1869   4.521   4.302   6.532 -0.1980 -0.0140  0.8295
  755MOL0     H 1870   4.608   4.072   6.716 -0.9160 -0.3405 -1.1304
  755MOL0     H 1871   4.711   4.188   6.628 -0.0514 -0.2665  1.5752
  755MOL0     H 1872   4.524   4.263   6.842 -1.6422 -0.2333 -1.9923
  755MOL0     H 1873   4.631   4.372   6.750  1.3800 -0.9273  0.1223
  755MOL0     H 1874   4.724   4.306   6.987 -0.4202 -0.3973 -1.1054
  755MOL0     H 1875   4.755   4.148   6.928  0.3823  0.2438  2.1326
  755MOL0     H 1876   4.914   4.178   6.665  0.2209  1.8184 -0.4720
  755MOL0     H 1877   5.243   4.212   6.697  2.3171  0.3813 -1.6594
  755MOL0     H 1878   5.148   4.243   6.552 -0.4632 -2.3345  1.3525
  755MOL0     H 1879   5.213   4.481   6.559 -0.6446 -0.8937 -0.0710
  755MOL0     H 1880   5.290   4.457   6.717  0.4383 -1.7223  0.7469
  755MOL0     H 1881   5.447   4.295   6.619  0.1403  0.5561 -0.0817
  755MOL0     H 1882   5.472   4.465   6.561  0.2525  0.2058  0.1320
  755MOL0     H 1883   5.380   4.403   6.344  0.1098 -0.7404 -0.6161
  755MOL0     H 1884   5.327   4.245   6.400  0.8718 -0.3369 -1.0410
  755MOL0     H 1885   5.718   4.103   6.314 -0.9620 -0.5978 -0.3361
  755MOL0     H 1886   5.916   4.183   6.213 -2.8330 -1.1975 -2.6048
  755MOL0     H 1887   6.054   4.657   5.965  0.4146  0.9444  1.3534
  755MOL0     H 1888   6.257   4.728   5.847  1.3567 -2.1328 -0.3695
  755MOL0     H 1889   6.564   4.911   5.829  0.1240 -2.0026 -0.8749
  755MOL0     H 1890   6.416   4.939   5.916 -1.2677 -1.3923  1.6935
  755MOL0     H 1891   6.561   5.075   6.018  1.0023  0.2671 -0.4892
  755MOL0     H 1892   6.534   4.933   6.127  0.3552 -1.1397 -0.1826
  755MOL0     H 1893   6.752   4.853   6.089 -0.6982 -0.6182 -0.6503
  755MOL0     H 1894   6.761   4.913   5.926  1.8013  0.4567  0.7112
  755MOL0     H 1895   6.781   5.121   6.154 -0.0834  1.9569 -1.3300
  755MOL0     H 1896   6.813   5.133   5.986  0.4358 -0.8281 -0.8307
  755MOL0     H 1897   6.995   4.934   6.035  1.1292  0.5977 -0.4844
  755MOL0     H 1898   6.956   4.950   6.201  0.3099 -0.3991 -0.6916
  755MOL0     H 1899   7.029   5.190   6.202 -0.0939  1.6876 -1.1416
  755MOL0     H 1900   7.148   5.063   6.171  1.8568  2.7574 -0.1805
  755MOL0     H 1901   7.021   5.263   5.994  1.2900  1.6214 -1.0651
  755MOL0     H 1902   7.076   5.114   5.919 -1.3676 -2.2737  2.1306
  755MOL0     H 1903   7.293   5.127   6.010  0.7778  0.1462 -1.3427
  755MOL0     H 1904   7.268   5.266   5.916 -1.4627 -1.1212 -1.2384
  755MOL0     H 1905   6.489   4.662   6.204  0.3417 -2.6722  0.2070
  755MOL0     H 1906   6.283   4.584   6.316 -0.9541  1.6551  1.0405
  755MOL0     H 1907   5.802   4.591   6.300 -0.4099 -0.5547  1.9232
  755MOL0     H 1908   5.584   4.517   6.373  1.2960  1.6524 -0.4636
  755MOL0     H 1909   3.845   4.213   6.298  0.6974 -0.6836  0.2211
  755MOL0     H 1910   3.638   4.277   6.174 -2.7161  0.1669 -0.0911
  755MOL0     H 1911   3.264   4.364   6.087 -1.3385 -0.7198 -1.1569
  755MOL0     H 1912   3.038   4.307   6.038 -0.2167 -1.0081  1.2497
  755MOL0     H 1913   2.844   4.241   6.081  2.7374  2.1066  0.9404
  755MOL0     H 1914   2.796   4.369   5.964  0.2390 -2.3679 -0.3890
  755MOL0     H 1915   2.632   4.237   6.176 -3.6222 -0.5641  0.4741
  755MOL0     H 1916   2.628   4.183   6.005  1.5437 -0.5760 -0.9050
  755MOL0     H 1917   2.554   4.433   5.954 -1.7284  0.5227  0.1045
  755MOL0     H 1918   2.511   4.437   6.123 -3.7608 -0.7711 -0.2842
  755MOL0     H 1919   2.425   4.263   5.898  2.5889  0.1814 -0.2332
  755MOL0     H 1920   2.387   4.206   6.062  3.9110 -0.4342  0.9151
  755MOL0     H 1921   2.087   4.495   5.996 -0.2321  0.5574 -1.3939
  755MOL0     H 1922   2.908   4.576   6.346  0.5477 -0.3454  0.6873
  755MOL0     H 1923   3.238   4.623   6.505  0.7129 -0.3213  0.2935
  755MOL0     H 1924   3.168   4.751   6.407 -2.9362  1.6822  1.3430
  755MOL0     H 1925   3.059   4.655   6.512 -0.3117 -1.1954 -0.1022
  756MOL0     O 1926   0.752   7.442   0.132  0.2462 -0.4121  0.0359
  756MOL0     C 1927   0.708   7.330   0.171  0.4104 -0.1807 -0.2461
  756MOL0     O 1928   0.774   7.206   0.157  0.6639 -0.0049  0.5713
  756MOL0     C 1929   0.907   7.200   0.141 -1.1364 -0.0552  0.3958
  756MOL0     C 1930   1.006   7.268   0.221  0.2132 -0.3706  0.2332
  756MOL0     C 1931   1.139   7.239   0.217 -0.4885 -0.0992 -0.1887
  756MOL0     C 1932   1.195   7.151   0.127 -0.5470  0.5017 -0.6468
  756MOL0     O 1933   1.325   7.113   0.119 -0.5122 -0.1885 -0.1043
  756MOL0     C 1934   1.415   7.215   0.179  0.1735 -0.2088  0.4140
  756MOL0     C 1935   1.563   7.190   0.134  0.4440 -1.0098  0.4506
  756MOL0     C 1936   1.605   7.045   0.139 -0.0095  0.4639  0.1518
  756MOL0     C 1937   1.754   7.021   0.118 -0.6401  0.8356  0.2760
  756MOL0     C 1938   1.808   7.054  -0.022  0.2460 -0.5033 -0.8448
  756MOL0     C 1939   1.949   7.115  -0.019 -0.4813 -0.0395  0.0266
  756MOL0     C 1940   1.952   7.259   0.044 -0.5174  0.6535 -0.4408
  756MOL0     C 1941   2.093   7.312   0.094 -0.4340 -0.3537 -1.1320
  756MOL0     N 1942   2.208   7.334   0.004  0.0802 -0.2114  0.0454
  756MOL0     C 1943   2.248   7.256  -0.107 -0.6161  0.7230  0.1345
  756MOL0     C 1944   2.362   7.314  -0.152  0.3368 -0.3847  0.6048
  756MOL0     C 1945   2.433   7.263  -0.272 -0.4280 -0.4607  1.0421
  756MOL0     C 1946   2.433   7.361  -0.394  0.1219 -0.4477  0.7894
  756MOL0     C 1947   2.498   7.316  -0.523 -0.7986  0.3804  0.4261
  756MOL0     C 1948   2.636   7.257  -0.501  0.3125  0.1825  0.4108
  756MOL0     O 1949   2.720   7.371  -0.455  0.5070  0.4757  0.3525
  756MOL0     C 1950   2.840   7.326  -0.420 -0.4388  0.2816  0.6796
  756MOL0     C 1951   2.869   7.330  -0.286  0.0127  0.6826 -0.4817
  756MOL0     C 1952   3.002   7.304  -0.246 -0.2314  0.2867 -0.6572
  756MOL0     C 1953   3.111   7.280  -0.329  0.0447 -0.4492  0.5498
  756MOL0     C 1954   3.251   7.254  -0.290  0.1545 -0.3002 -0.1057
  756MOL0     O 1955   3.334   7.223  -0.385 -0.0692 -0.0049 -0.1161
  756MOL0     C 1956   3.456   7.161  -0.360 -0.0948  0.6249 -0.0634
  756MOL0     C 1957   3.552   7.175  -0.457 -0.1804 -0.2617 -0.1464
  756MOL0     C 1958   3.678   7.113  -0.447 -0.2973 -0.3133 -0.3019
  756MOL0     C 1959   3.718   7.040  -0.339  0.0389  0.0625  0.2741
  756MOL0     O 1960   3.845   7.000  -0.343  0.9363  0.6652 -0.7222
  756MOL0     C 1961   3.904   6.902  -0.245  0.3604  0.2613 -0.1176
  756MOL0     C 1962   3.984   6.971  -0.132  0.6418  0.5543 -0.5734
  756MOL0     C 1963   4.068   7.089  -0.175  0.2127  0.0499 -0.1961
  756MOL0     C 1964   4.140   7.153  -0.055  0.3511  0.4037  0.0952
  756MOL0     C 1965   4.214   7.273  -0.113 -0.7602 -0.6586  0.5977
  756MOL0     C 1966   4.334   7.244  -0.204  0.2799 -0.0665  0.0541
  756MOL0     C 1967   4.395   7.378  -0.254 -1.0482  0.4608 -0.0468
  756MOL0     C 1968   4.317   7.469  -0.342 -0.3436  0.3633 -0.1440
  756MOL0    Cl 1969   4.264   7.377  -0.490 -0.1136 -0.3073  0.3288
  756MOL0     C 1970   3.625   7.023  -0.229 -0.6947 -0.2201 -0.1480
  756MOL0     C 1971   3.498   7.085  -0.246  0.1373 -0.4510  0.0643
  756MOL0     O 1972   3.276   7.255  -0.174 -0.7497 -0.1562 -0.5518
  756MOL0     C 1973   3.078   7.280  -0.466 -0.1481  0.3438 -0.3930
  756MOL0     C 1974   2.943   7.295  -0.507  0.1304 -0.4133 -0.2088
  756MOL0     N 1975   2.405   7.405  -0.063 -0.4203 -0.6714 -0.0940
  756MOL0     N 1976   2.310   7.419   0.030  1.1844 -0.1271  0.2333
  756MOL0     C 1977   1.110   7.077   0.049  0.1851  0.5575  0.9468
  756MOL0     C 1978   0.965   7.104   0.050 -0.3008 -0.7105  0.0869
  756MOL0     C 1979   0.571   7.327   0.241 -0.4662 -0.2855  0.4660
  756MOL0     C 1980   0.520   7.194   0.259  1.1835 -0.1625  0.3405
  756MOL0     C 1981   0.395   7.170   0.301 -0.4155 -0.3645  0.3317
  756MOL0     C 1982   0.310   7.280   0.335 -0.8339 -0.7240  0.4496
  756MOL0     O 1983   0.174   7.270   0.364 -0.2003  0.4127  0.3574
  756MOL0     C 1984   0.124   7.142   0.409 -0.0220 -0.1719  0.6855
  756MOL0     C 1985  -0.024   7.135   0.417  0.3249  0.0046 -0.3529
  756MOL0     C 1986  -0.090   7.230   0.514 -0.3979  0.7734  0.4146
  756MOL0     C 1987  -0.240   7.225   0.503  0.6204 -0.7943 -0.1394
  756MOL0     C 1988  -0.297   7.348   0.548 -0.3238  0.1165  0.0547
  756MOL0     C 1989  -0.337   7.450   0.588  0.7757 -0.3078 -0.2646
  756MOL0     C 1990   0.358   7.413   0.312 -0.2690  0.4256  0.4952
  756MOL0     C 1991   0.491   7.436   0.265  0.6290 -0.4089  0.4487
  756MOL0     C 1992   0.526   7.582   0.251 -0.1975 -0.6336  0.5380
  756MOL0     H 1993   0.965   7.337   0.294 -1.0822 -2.1753  1.3093
  756MOL0     H 1994   1.204   7.293   0.285 -1.6993 -0.3977  1.2544
  756MOL0     H 1995   1.386   7.314   0.143  2.2369  0.9023  1.6001
  756MOL0     H 1996   1.417   7.214   0.289  0.4597  0.6061  0.4196
  756MOL0     H 1997   1.632   7.255   0.189  0.7017 -1.1834  0.3336
  756MOL0     H 1998   1.568   7.224   0.030  0.4224 -1.0084  0.4499
  756MOL0     H 1999   1.553   6.998   0.055  0.6190 -1.8384  0.9905
  756MOL0     H 2000   1.563   7.008   0.233 -2.8011  2.1023 -0.3114
  756MOL0     H 2001   1.809   7.075   0.196  1.2268  0.9063 -1.0339
  756MOL0     H 2002   1.776   6.915   0.134  2.0375  1.0247 -1.3688
  756MOL0     H 2003   1.802   6.963  -0.083 -2.9957 -0.2878 -1.0131
  756MOL0     H 2004   1.744   7.126  -0.073  1.5198  0.7029 -0.7947
  756MOL0     H 2005   2.016   7.045   0.032 -2.0398 -2.0706 -0.5847
  756MOL0     H 2006   1.992   7.128  -0.119 -0.7920  0.6654 -0.0231
  756MOL0     H 2007   1.900   7.263   0.140  0.5966  1.8295  0.1625
  756MOL0     H 2008   1.901   7.326  -0.026 -1.0840  0.6459 -0.0389
  756MOL0     H 2009   2.079   7.410   0.140 -0.4615  0.4414 -2.7783
  756MOL0     H 2010   2.124   7.250   0.179 -0.2714  0.9742 -0.1896
  756MOL0     H 2011   2.196   7.168  -0.144 -2.1035  1.0384  1.3955
  756MOL0     H 2012   2.540   7.255  -0.248 -0.1808  0.6948  0.4212
  756MOL0     H 2013   2.392   7.166  -0.302 -0.4983 -0.4568  1.1280
  756MOL0     H 2014   2.330   7.387  -0.419  0.9749  1.6141 -0.8332
  756MOL0     H 2015   2.480   7.454  -0.362 -0.4688  0.8938 -1.9512
  756MOL0     H 2016   2.507   7.386  -0.606  4.1193 -0.5674 -0.1712
  756MOL0     H 2017   2.435   7.243  -0.575  0.5966  0.5640 -1.6256
  756MOL0     H 2018   2.678   7.220  -0.596  3.2961  2.2351  0.7899
  756MOL0     H 2019   2.635   7.174  -0.429 -0.0058 -0.2052 -0.0343
  756MOL0     H 2020   2.796   7.361  -0.211  1.1489 -1.7248  1.7399
  756MOL0     H 2021   3.026   7.307  -0.140  2.5991  1.8098 -1.2392
  756MOL0     H 2022   3.521   7.241  -0.537 -1.7529  0.1885  0.7899
  756MOL0     H 2023   3.750   7.144  -0.522 -1.5445  0.0802 -1.3874
  756MOL0     H 2024   3.827   6.834  -0.207 -0.3528 -0.2691 -2.3535
  756MOL0     H 2025   3.970   6.833  -0.299 -0.9809 -1.2658  0.1241
  756MOL0     H 2026   3.916   7.017  -0.059  0.2256  2.4660 -2.0967
  756MOL0     H 2027   4.044   6.894  -0.083 -0.0357  0.6782  0.4954
  756MOL0     H 2028   4.129   7.056  -0.260 -0.2774  0.5093 -0.7352
  756MOL0     H 2029   3.996   7.167  -0.202  1.1198  2.1043  2.8219
  756MOL0     H 2030   4.205   7.078  -0.010 -0.1759  0.7768  1.5080
  756MOL0     H 2031   4.048   7.173   0.000 -1.4993 -1.0259 -2.2615
  756MOL0     H 2032   4.235   7.357  -0.047  0.0345  0.7586 -1.3698
  756MOL0     H 2033   4.148   7.315  -0.189  1.6915 -0.8049 -1.7836
  756MOL0     H 2034   4.410   7.187  -0.149 -2.5105 -1.8447  2.3345
  756MOL0     H 2035   4.306   7.185  -0.292  1.8486 -1.7035  0.5862
  756MOL0     H 2036   4.485   7.357  -0.312 -1.8531  3.7344 -2.8659
  756MOL0     H 2037   4.426   7.438  -0.168  1.6808  1.5029 -1.6252
  756MOL0     H 2038   4.227   7.506  -0.291 -0.8877  2.3439 -2.3710
  756MOL0     H 2039   4.371   7.559  -0.371 -1.9501  1.5794  0.4615
  756MOL0     H 2040   3.659   6.977  -0.137  1.0751  0.4534 -0.4233
  756MOL0     H 2041   3.430   7.066  -0.163 -0.2680 -0.0798 -0.1781
  756MOL0     H 2042   3.149   7.258  -0.545 -1.6681  2.6622 -2.5466
  756MOL0     H 2043   2.917   7.300  -0.612  0.3692 -0.6337 -0.2810
  756MOL0     H 2044   1.140   6.991  -0.010  0.5288  0.6480  0.9837
  756MOL0     H 2045   0.897   7.041  -0.007  1.6475 -1.8537 -1.0511
  756MOL0     H 2046   0.583   7.109   0.236 -0.0082 -1.6393  2.2503
  756MOL0     H 2047   0.358   7.068   0.306  0.5020 -0.7425 -0.2357
  756MOL0     H 2048   0.166   7.126   0.509  2.2495 -2.2025 -0.4879
  756MOL0     H 2049   0.148   7.051   0.353  0.4381 -1.2294  2.5373
  756MOL0     H 2050  -0.059   7.036   0.445 -0.2759  0.7891  1.8928
  756MOL0     H 2051  -0.060   7.148   0.314  1.8732 -1.7670 -1.1854
  756MOL0     H 2052  -0.046   7.330   0.503  0.7573  0.0577 -2.2633
  756MOL0     H 2053  -0.069   7.205   0.618  3.5894  1.3444 -0.0849
  756MOL0     H 2054  -0.272   7.218   0.399 -0.4014 -0.5118  0.1432
  756MOL0     H 2055  -0.285   7.143   0.560  0.3628  1.2402  2.7710
  756MOL0     H 2056  -0.385   7.536   0.631 -0.5354 -0.1359 -1.9363
  756MOL0     H 2057   0.288   7.495   0.322  0.5458  1.1672  0.2478
  756MOL0     H 2058   0.460   7.657   0.295 -0.8155 -0.5274 -0.5489
  756MOL0     H 2059   0.622   7.609   0.296 -0.7284  1.8176  0.3244
  756MOL0     H 2060   0.529   7.590   0.142  2.1450 -1.8182  0.4457
  757MOL0     O 2061   7.831  10.083  10.617  0.5800  0.4771 -0.2311
  757MOL0     C 2062   7.836   9.980  10.683  0.6591  0.0219 -0.5037
  757MOL0     O 2063   7.727   9.917  10.745 -0.1293  0.2087  0.5001
  757MOL0     C 2064   7.607   9.981  10.745 -0.3517  0.4907  0.6082
  757MOL0     C 2065   7.504   9.922  10.665  0.2772 -0.9260  1.0200
  757MOL0     C 2066   7.379   9.980  10.646 -0.6961 -0.6282  0.2125
  757MOL0     C 2067   7.350  10.100  10.711  0.2813  0.2520  0.7976
  757MOL0     O 2068   7.221  10.138  10.707 -0.1711  0.3983 -0.3824
  757MOL0     C 2069   7.194  10.275  10.710 -0.6857  0.5937 -0.0765
  757MOL0     C 2070   7.054  10.309  10.654  0.2079 -0.3250 -0.3237
  757MOL0     C 2071   6.944  10.296  10.762  0.6823 -0.3462  0.3638
  757MOL0     C 2072   6.811  10.366  10.716  0.8397 -0.1672  0.1066
  757MOL0     C 2073   6.693  10.341  10.818 -0.3738  0.1603 -0.4590
  757MOL0     C 2074   6.570  10.413  10.761  0.3615  0.7639 -0.5746
  757MOL0     C 2075   6.467  10.440  10.870  0.3277 -0.3897 -0.6756
  757MOL0     C 2076   6.499  10.559  10.963  1.1318  0.4933 -0.1383
  757MOL0     N 2077   6.553  10.667  10.881  0.4345  0.3605 -1.0966
  757MOL0     C 2078   6.686  10.712  10.877  0.4164  0.1056  0.2295
  757MOL0     C 2079   6.696  10.829  10.806  0.1050  0.3712 -0.3126
  757MOL0     C 2080   6.822  10.883  10.748  0.6733  0.0660  0.3303
  757MOL0     C 2081   6.922  10.929  10.850 -0.0201 -0.4047  0.4117
  757MOL0     C 2082   7.038  11.018  10.792  0.9435 -0.0515  0.0170
  757MOL0     C 2083   7.162  11.011  10.881 -0.3100 -0.4158  0.9970
  757MOL0     O 2084   7.278  11.066  10.818 -0.9393 -0.1273 -0.5980
  757MOL0     C 2085   7.405  11.025  10.843 -0.2332 -0.1174 -0.6787
  757MOL0     C 2086   7.432  10.932  10.944  0.9005 -0.4061 -0.4047
  757MOL0     C 2087   7.567  10.917  10.988  0.7325  0.3919  0.2171
  757MOL0     C 2088   7.674  10.992  10.927 -0.2863  0.0602  0.6334
  757MOL0     C 2089   7.815  10.974  10.979 -0.1169 -0.0329 -0.7186
  757MOL0     O 2090   7.906  11.056  10.934 -0.4994 -0.5748 -0.7538
  757MOL0     C 2091   8.037  11.036  10.986  0.6203  0.1380 -0.0924
  757MOL0     C 2092   8.121  10.928  10.956  0.2236 -0.3552 -0.3276
  757MOL0     C 2093   8.250  10.923  10.998  0.1063 -0.4171 -0.2700
  757MOL0     C 2094   8.315  11.034  11.059 -0.6640  0.4637 -0.6539
  757MOL0     O 2095   8.443  11.017  11.100  0.3669  0.6512 -0.1722
  757MOL0     C 2096   8.496  11.136  11.158 -0.5129 -0.3618  0.4991
  757MOL0     C 2097   8.636  11.119  11.216 -0.4867  0.5211 -0.4168
  757MOL0     C 2098   8.634  11.055  11.345 -0.1310 -0.1611 -0.4518
  757MOL0     C 2099   8.770  11.079  11.428 -0.0501  0.0296 -0.3256
  757MOL0     C 2100   8.857  10.954  11.400 -0.4478  1.0200  0.5984
  757MOL0     C 2101   8.840  10.845  11.502  0.7684  1.0588 -0.8498
  757MOL0     C 2102   8.938  10.728  11.482 -0.1535  0.2510  1.0472
  757MOL0     C 2103   8.948  10.635  11.607 -0.8827 -1.0132 -0.2473
  757MOL0    Cl 2104   9.111  10.559  11.602  0.0364 -0.3016  0.0158
  757MOL0     C 2105   8.233  11.151  11.086 -0.2101  0.4327 -0.4776
  757MOL0     C 2106   8.097  11.147  11.046 -0.1915  0.4588  0.0837
  757MOL0     O 2107   7.820  10.882  11.065 -0.3822 -0.0557 -0.7459
  757MOL0     C 2108   7.641  11.074  10.817  0.0547  1.3010  0.7596
  757MOL0     C 2109   7.512  11.091  10.781  0.4039 -0.1835 -0.3475
  757MOL0     N 2110   6.563  10.868  10.784  0.6107 -0.8070 -0.5346
  757MOL0     N 2111   6.482  10.775  10.835  0.0795  0.6123 -0.1950
  757MOL0     C 2112   7.441  10.150  10.799 -0.5093  0.3159  1.1706
  757MOL0     C 2113   7.574  10.092  10.822  0.5442 -0.8199 -0.2290
  757MOL0     C 2114   7.962   9.905  10.683  0.8290 -0.4494 -0.8608
  757MOL0     C 2115   7.969   9.785  10.760 -0.1423  0.0392 -0.7082
  757MOL0     C 2116   8.072   9.694  10.743 -0.2124  0.5711  0.3851
  757MOL0     C 2117   8.193   9.731  10.669  0.3887 -0.6812 -0.8721
  757MOL0     O 2118   8.291   9.638  10.667 -0.5561  0.7633  0.2090
  757MOL0     C 2119   8.420   9.652  10.608 -0.3652 -0.8773  0.5340
  757MOL0     C 2120   8.452   9.513  10.580  1.4511 -0.0342  0.8383
  757MOL0     C 2121   8.555   9.488  10.475 -0.3633 -0.0887 -0.2689
  757MOL0     C 2122   8.682   9.556  10.487 -0.3971  0.0133  0.1048
  757MOL0     C 2123   8.769   9.532  10.370  0.3858  0.6947  0.0805
  757MOL0     C 2124   8.824   9.479  10.281 -0.5885  0.4499  0.2239
  757MOL0     C 2125   8.191   9.861  10.615  1.0224 -1.0468  0.1402
  757MOL0     C 2126   8.080   9.948  10.613  0.1352  0.0079 -0.6715
  757MOL0     C 2127   8.091  10.080  10.536  0.0554 -0.0850 -0.2531
  757MOL0     H 2128   7.525   9.827  10.618 -0.8509  0.1353 -1.8306
  757MOL0     H 2129   7.308   9.921  10.589  0.8326 -0.2778 -2.2078
  757MOL0     H 2130   7.201  10.312  10.812 -0.8271  1.0540 -0.2269
  757MOL0     H 2131   7.279  10.326  10.664  2.1637 -1.3225  2.6555
  757MOL0     H 2132   7.033  10.239  10.572 -0.3259 -0.2684 -0.2398
  757MOL0     H 2133   7.048  10.410  10.612  0.0808 -0.4861 -0.7010
  757MOL0     H 2134   6.974  10.346  10.854 -1.4905 -0.8837  1.4218
  757MOL0     H 2135   6.921  10.191  10.782  0.5519 -0.4987 -0.5425
  757MOL0     H 2136   6.837  10.471  10.706 -2.3887  0.8114  0.6099
  757MOL0     H 2137   6.783  10.312  10.625 -1.8691 -0.0629  0.7735
  757MOL0     H 2138   6.678  10.236  10.846 -1.3303  1.1284  3.2358
  757MOL0     H 2139   6.718  10.393  10.911  0.9899 -1.6602  0.2535
  757MOL0     H 2140   6.596  10.506  10.711  1.9567  0.7812  0.2004
  757MOL0     H 2141   6.536  10.347  10.681  0.2111 -0.1378  0.2101
  757MOL0     H 2142   6.443  10.353  10.931 -1.2748  1.5543  1.6672
  757MOL0     H 2143   6.376  10.469  10.816  1.1799  6.3393  0.5576
  757MOL0     H 2144   6.405  10.596  11.006  0.5969 -0.0496 -0.8139
  757MOL0     H 2145   6.569  10.537  11.044  0.4140  0.8295  0.5906
  757MOL0     H 2146   6.762  10.646  10.918 -1.0123 -2.4381 -0.9932
  757MOL0     H 2147   6.863  10.804  10.685  0.3882  0.3474 -0.2154
  757MOL0     H 2148   6.788  10.969  10.689 -2.0634 -0.2643  1.2847
  757MOL0     H 2149   6.880  10.994  10.926 -1.9070 -0.4708 -0.5202
  757MOL0     H 2150   6.961  10.835  10.891  1.7994  0.0762 -0.1147
  757MOL0     H 2151   7.011  11.123  10.784  2.8156  0.4130 -0.7918
  757MOL0     H 2152   7.062  10.985  10.690 -0.0766 -1.1253  0.0981
  757MOL0     H 2153   7.180  10.909  10.915 -1.0252 -0.3000  1.7611
  757MOL0     H 2154   7.130  11.076  10.964 -2.0452 -0.4086  0.3712
  757MOL0     H 2155   7.365  10.862  10.993  0.7588  0.0218  0.0276
  757MOL0     H 2156   7.582  10.854  11.076  1.3771  1.0201  0.5615
  757MOL0     H 2157   8.064  10.845  10.914 -2.4051  0.2577  1.7812
  757MOL0     H 2158   8.305  10.829  10.989 -0.3710 -1.3208  3.9319
  757MOL0     H 2159   8.508  11.208  11.077 -2.9688 -0.2574  0.1384
  757MOL0     H 2160   8.437  11.173  11.242  2.2497  0.5940  2.1684
  757MOL0     H 2161   8.694  11.062  11.143  1.1864  1.8325 -0.1727
  757MOL0     H 2162   8.687  11.216  11.225 -0.1556  0.2130  1.2487
  757MOL0     H 2163   8.564  11.099  11.416  2.9098  0.4926  2.4045
  757MOL0     H 2164   8.601  10.951  11.336 -1.6184  0.3328 -0.9204
  757MOL0     H 2165   8.751  11.084  11.536 -0.2770 -1.4986 -0.2711
  757MOL0     H 2166   8.828  11.169  11.406  1.5566 -0.7115  0.7302
  757MOL0     H 2167   8.963  10.980  11.402 -0.0158 -0.4390 -0.9617
  757MOL0     H 2168   8.835  10.907  11.304 -0.2057  0.3948  0.8425
  757MOL0     H 2169   8.843  10.889  11.602  0.2272  1.6461 -1.0822
  757MOL0     H 2170   8.740  10.802  11.492  1.4277 -0.9681  0.6993
  757MOL0     H 2171   9.034  10.778  11.471  0.3513 -0.9672 -0.3783
  757MOL0     H 2172   8.920  10.671  11.390 -1.2655 -0.8636  1.9167
  757MOL0     H 2173   8.951  10.694  11.699 -1.4134 -2.8261  1.0092
  757MOL0     H 2174   8.861  10.569  11.602 -0.1467 -1.9550 -1.1966
  757MOL0     H 2175   8.278  11.238  11.133  1.0994 -1.1009  1.1778
  757MOL0     H 2176   8.042  11.241  11.050 -0.3460  0.3839 -0.2982
  757MOL0     H 2177   7.715  11.120  10.752  0.4363 -2.2479 -1.5891
  757MOL0     H 2178   7.481  11.163  10.705 -1.3340 -0.7381 -0.2092
  757MOL0     H 2179   7.408  10.232  10.863 -3.2331 -0.7291  1.2759
  757MOL0     H 2180   7.651  10.130  10.888 -0.8687  0.1549  0.9212
  757MOL0     H 2181   7.891   9.755  10.828 -0.5470  0.6908 -0.8756
  757MOL0     H 2182   8.071   9.604  10.803  3.7874 -0.5469 -0.8787
  757MOL0     H 2183   8.486   9.708  10.676 -1.6413  0.6027  0.6100
  757MOL0     H 2184   8.417   9.705  10.513  1.4286 -0.6527  0.5609
  757MOL0     H 2185   8.361   9.462  10.546  2.8675 -4.2984  2.7854
  757MOL0     H 2186   8.476   9.468  10.676 -0.3752 -1.2363  0.7956
  757MOL0     H 2187   8.515   9.514  10.378 -1.3082  0.3229  0.2239
  757MOL0     H 2188   8.570   9.379  10.477 -1.5849 -0.2596  0.7165
  757MOL0     H 2189   8.669   9.665  10.495  1.1855  0.3877 -1.6178
  757MOL0     H 2190   8.730   9.507  10.572  0.5239 -1.1283 -1.0361
  757MOL0     H 2191   8.899   9.440  10.215  1.1955  1.5211  1.5335
  757MOL0     H 2192   8.272   9.890  10.548 -1.4847  0.3465 -2.5134
  757MOL0     H 2193   8.180  10.075  10.473 -0.3732  0.5065 -0.9238
  757MOL0     H 2194   8.011  10.093  10.462  0.2252 -0.9702 -0.6017
  757MOL0     H 2195   8.094  10.172  10.595 -1.8264 -0.7159  0.9075
  758MOL0     O 2196   7.587   8.049   4.262 -0.1345  0.0363 -0.1200
  758MOL0     C 2197   7.514   7.949   4.277 -0.1671  0.0271  1.2455
  758MOL0     O 2198   7.568   7.826   4.300  0.0839 -0.6913 -0.3482
  758MOL0     C 2199   7.705   7.816   4.304 -0.5996  0.4786 -0.8123
  758MOL0     C 2200   7.774   7.843   4.418  0.4684 -0.0655 -0.0487
  758MOL0     C 2201   7.916   7.834   4.415  0.3359  0.3756 -0.5273
  758MOL0     C 2202   7.988   7.806   4.300 -0.3022 -0.7081  0.3430
  758MOL0     O 2203   8.126   7.827   4.301  0.0193 -0.2079 -0.3609
  758MOL0     C 2204   8.198   7.822   4.178 -0.0836 -1.1734  0.4092
  758MOL0     C 2205   8.345   7.834   4.227  0.4471 -0.1801  0.4430
  758MOL0     C 2206   8.432   7.829   4.103  1.2687  0.1868 -0.4056
  758MOL0     C 2207   8.566   7.800   4.158  0.1048  0.5443  0.5155
  758MOL0     C 2208   8.673   7.763   4.043  0.1459  0.0497 -0.2315
  758MOL0     C 2209   8.810   7.732   4.106  0.2136 -0.3443 -0.1841
  758MOL0     C 2210   8.920   7.717   3.998 -0.7641 -0.1861 -0.2547
  758MOL0     C 2211   9.063   7.693   4.062 -0.7384  0.7101  0.0283
  758MOL0     N 2212   9.157   7.656   3.948  0.0069 -0.3931 -0.5317
  758MOL0     C 2213   9.203   7.746   3.857 -0.2440  0.3095  0.4282
  758MOL0     C 2214   9.266   7.664   3.764  0.5972 -0.5311 -0.7401
  758MOL0     C 2215   9.337   7.719   3.641 -1.2691  0.0039  0.6437
  758MOL0     C 2216   9.275   7.666   3.510 -0.1277  0.1787  0.8432
  758MOL0     C 2217   9.302   7.523   3.475 -0.1648 -0.2644 -0.1059
  758MOL0     C 2218   9.275   7.493   3.324 -1.1869 -0.4965 -0.4393
  758MOL0     O 2219   9.328   7.591   3.231 -0.2213 -0.6337 -0.0291
  758MOL0     C 2220   9.463   7.584   3.194  0.7142  0.4894 -0.0740
  758MOL0     C 2221   9.559   7.495   3.248 -0.7410 -0.5186  0.3235
  758MOL0     C 2222   9.685   7.494   3.203  0.1108  1.0114 -0.8780
  758MOL0     C 2223   9.734   7.593   3.118 -0.2505 -0.7395  0.2869
  758MOL0     C 2224   9.879   7.603   3.088 -0.4849 -0.3341  0.3428
  758MOL0     O 2225   9.964   7.535   3.168 -0.4669  0.2166  0.0936
  758MOL0     C 2226  10.101   7.560   3.135 -0.3675  0.2153 -0.0196
  758MOL0     C 2227  10.169   7.531   3.016  0.0090  0.8932  0.2873
  758MOL0     C 2228  10.303   7.564   2.994  0.7693 -0.3491 -0.4963
  758MOL0     C 2229  10.386   7.594   3.105  0.2545 -0.6694 -0.6310
  758MOL0     O 2230  10.523   7.601   3.105  0.3012 -0.6080  0.0799
  758MOL0     C 2231  10.598   7.531   2.998  0.5943 -0.3539 -0.5536
  758MOL0     C 2232  10.610   7.619   2.867  0.6733 -0.4085 -0.3418
  758MOL0     C 2233  10.693   7.748   2.893 -0.4033  0.2901  0.7819
  758MOL0     C 2234  10.770   7.780   2.763  0.4338 -0.1563  0.0569
  758MOL0     C 2235  10.868   7.897   2.784  0.2987 -1.1055  0.0601
  758MOL0     C 2236  10.953   7.918   2.653  0.7742 -0.3723 -0.0928
  758MOL0     C 2237  11.034   8.047   2.665 -0.1489  0.3364  0.4356
  758MOL0     C 2238  11.138   8.061   2.549 -0.5030  0.0480 -0.0832
  758MOL0    Cl 2239  11.062   8.032   2.396 -0.1108  0.1834 -0.3022
  758MOL0     C 2240  10.313   7.625   3.231 -0.1665 -0.1512 -0.1652
  758MOL0     C 2241  10.174   7.606   3.240  0.4484 -0.8338  1.1404
  758MOL0     O 2242   9.920   7.672   2.993 -0.2504  0.3098 -0.0435
  758MOL0     C 2243   9.643   7.680   3.057 -0.7210  0.4204  0.1559
  758MOL0     C 2244   9.503   7.669   3.092 -0.8374 -0.4835  0.4545
  758MOL0     N 2245   9.257   7.530   3.809  0.5104  0.8552  0.0163
  758MOL0     N 2246   9.182   7.529   3.911  0.0742 -0.1969  0.2276
  758MOL0     C 2247   7.916   7.785   4.180 -0.6209  0.3896  0.4449
  758MOL0     C 2248   7.777   7.798   4.178  0.5269  0.5790 -1.1522
  758MOL0     C 2249   7.364   7.955   4.265 -0.6885 -0.4604 -0.7910
  758MOL0     C 2250   7.318   8.074   4.214 -0.0267 -0.6113  0.0220
  758MOL0     C 2251   7.185   8.086   4.201  0.0242 -0.0931  0.3895
  758MOL0     C 2252   7.090   7.989   4.243 -0.1038  1.1849  0.7016
  758MOL0     O 2253   6.960   8.013   4.222  0.0602  0.3601 -0.1340
  758MOL0     C 2254   6.908   8.118   4.304 -0.3848 -0.2697  0.8144
  758MOL0     C 2255   6.899   8.090   4.459  0.3233  0.1347 -0.1801
  758MOL0     C 2256   6.846   8.210   4.538  0.8134 -0.4214 -0.0475
  758MOL0     C 2257   6.938   8.328   4.547 -0.7724 -0.4034  0.0803
  758MOL0     C 2258   7.062   8.303   4.622  0.1948  0.5107 -0.2493
  758MOL0     C 2259   7.159   8.277   4.691 -0.1641 -0.5563  0.4922
  758MOL0     C 2260   7.144   7.879   4.310 -0.1572  0.0041  0.7528
  758MOL0     C 2261   7.279   7.860   4.323 -0.3867  0.0231  0.2788
  758MOL0     C 2262   7.316   7.727   4.384 -0.3198 -0.6471 -0.3493
  758MOL0     H 2263   7.717   7.877   4.504  2.0658  0.8215  0.7138
  758MOL0     H 2264   7.971   7.848   4.508 -0.5285  1.1706 -0.1293
  758MOL0     H 2265   8.183   7.728   4.124  1.2980 -0.9635 -0.3748
  758MOL0     H 2266   8.165   7.913   4.128 -1.2450 -0.3789  2.4703
  758MOL0     H 2267   8.364   7.737   4.275  2.8925  0.0842  0.1332
  758MOL0     H 2268   8.374   7.917   4.292  1.8574 -1.3547  1.3766
  758MOL0     H 2269   8.438   7.918   4.040 -1.3297  0.4425 -0.3936
  758MOL0     H 2270   8.397   7.746   4.041 -1.1358  0.3925  0.5909
  758MOL0     H 2271   8.600   7.887   4.216  2.5688  1.4656 -2.0607
  758MOL0     H 2272   8.569   7.717   4.229  2.0138  0.8783  0.8845
  758MOL0     H 2273   8.634   7.685   3.978  0.7283  0.7356 -1.4545
  758MOL0     H 2274   8.676   7.854   3.982 -1.8231  1.3822  1.5480
  758MOL0     H 2275   8.828   7.812   4.179 -2.0789 -1.0621  1.2993
  758MOL0     H 2276   8.790   7.649   4.175  2.1481  0.9174  2.0559
  758MOL0     H 2277   8.929   7.798   3.924  0.4033 -0.2827 -0.2381
  758MOL0     H 2278   8.899   7.626   3.942 -0.4783 -0.8079  0.6308
  758MOL0     H 2279   9.096   7.783   4.115 -1.3496  0.0895  1.5315
  758MOL0     H 2280   9.056   7.611   4.134 -0.4499  0.7137  0.0606
  758MOL0     H 2281   9.184   7.853   3.853 -2.2493  0.0267  1.3542
  758MOL0     H 2282   9.327   7.828   3.637  0.4423  0.1635 -0.8609
  758MOL0     H 2283   9.443   7.693   3.642 -1.3139 -0.2771 -0.2757
  758MOL0     H 2284   9.167   7.686   3.512 -0.4841 -1.6427  1.4088
  758MOL0     H 2285   9.320   7.724   3.429 -0.8503  0.1240  0.3927
  758MOL0     H 2286   9.244   7.451   3.534  0.4023  1.0330  2.1095
  758MOL0     H 2287   9.402   7.492   3.504  0.1974  1.3219  0.4415
  758MOL0     H 2288   9.167   7.497   3.312 -1.2489 -1.9488 -0.5488
  758MOL0     H 2289   9.313   7.391   3.310 -1.1635 -0.4398 -0.7966
  758MOL0     H 2290   9.522   7.418   3.315 -1.7831  0.6184  1.1161
  758MOL0     H 2291   9.745   7.407   3.229 -0.0211  1.4920  1.1289
  758MOL0     H 2292  10.096   7.498   2.943 -0.3639 -2.5388  2.0085
  758MOL0     H 2293  10.338   7.564   2.892 -0.6116 -0.1285 -0.9869
  758MOL0     H 2294  10.701   7.516   3.032  0.0314  1.0969  2.1245
  758MOL0     H 2295  10.561   7.431   2.976  0.9126 -0.9746  1.5086
  758MOL0     H 2296  10.653   7.560   2.785 -0.5653 -0.1464 -1.1998
  758MOL0     H 2297  10.513   7.655   2.831  1.0800  0.4944 -0.5536
  758MOL0     H 2298  10.634   7.830   2.934 -0.5488 -0.5167  2.2390
  758MOL0     H 2299  10.775   7.724   2.960  0.1773 -1.4571 -0.4729
  758MOL0     H 2300  10.698   7.796   2.682  0.9030  0.3638 -0.2653
  758MOL0     H 2301  10.825   7.689   2.736  0.0322 -0.0408 -1.2531
  758MOL0     H 2302  10.936   7.876   2.868  0.8622 -2.9484 -0.8108
  758MOL0     H 2303  10.809   7.986   2.804  0.0453 -1.5171  1.2294
  758MOL0     H 2304  11.023   7.836   2.639  1.0142 -0.0534 -0.7680
  758MOL0     H 2305  10.880   7.930   2.573 -2.5063  3.5411  3.0117
  758MOL0     H 2306  11.074   8.047   2.768  0.0747 -2.3751  0.4182
  758MOL0     H 2307  10.982   8.143   2.660  1.6062  1.3634  0.9042
  758MOL0     H 2308  11.186   8.159   2.546  1.4816 -0.8980 -0.6031
  758MOL0     H 2309  11.213   7.987   2.576  0.9754  1.6754  0.4929
  758MOL0     H 2310  10.364   7.662   3.320 -0.3159  3.1332 -1.3363
  758MOL0     H 2311  10.115   7.639   3.324 -1.6924  0.9055 -0.9120
  758MOL0     H 2312   9.686   7.755   2.991  1.1188 -1.5039 -0.9453
  758MOL0     H 2313   9.430   7.733   3.043 -1.6520 -1.7917 -0.0782
  758MOL0     H 2314   7.962   7.782   4.082  2.1574  0.2463  1.6519
  758MOL0     H 2315   7.719   7.785   4.087  0.2674 -0.4557 -0.8501
  758MOL0     H 2316   7.389   8.144   4.172 -0.6207 -1.1430 -1.9900
  758MOL0     H 2317   7.145   8.175   4.154  1.7478  0.8537  0.6514
  758MOL0     H 2318   6.809   8.136   4.263 -0.1719 -2.4839 -0.9141
  758MOL0     H 2319   6.976   8.203   4.296  0.4719 -1.0091 -0.1325
  758MOL0     H 2320   6.996   8.074   4.506  0.1079  0.2227  0.3038
  758MOL0     H 2321   6.840   8.000   4.478 -0.0736  0.6423  1.1413
  758MOL0     H 2322   6.823   8.170   4.637  0.8820  1.8279  0.9350
  758MOL0     H 2323   6.751   8.250   4.501  1.5914  1.0950 -0.4854
  758MOL0     H 2324   6.949   8.377   4.450  1.5175  1.9489  1.4105
  758MOL0     H 2325   6.896   8.407   4.610  2.7250  1.6005  0.1312
  758MOL0     H 2326   7.244   8.252   4.752  0.3747  0.6479  0.2611
  758MOL0     H 2327   7.069   7.819   4.360 -3.1869  1.0670 -2.0772
  758MOL0     H 2328   7.223   7.683   4.420 -0.2038  0.5296  1.5434
  758MOL0     H 2329   7.373   7.659   4.321  0.6045 -1.5062  1.3641
  758MOL0     H 2330   7.380   7.743   4.471  1.1598 -4.0294 -0.6744
  759MOL0     O 2331   6.499   9.299   1.407 -0.6555  0.0747  0.1819
  759MOL0     C 2332   6.460   9.205   1.337  0.4612  0.5764 -0.4100
  759MOL0     O 2333   6.539   9.098   1.289  0.3888  0.9131  0.3092
  759MOL0     C 2334   6.670   9.082   1.327  0.4096 -0.1092  0.1606
  759MOL0     C 2335   6.707   8.950   1.343 -0.4721 -0.6025  0.0474
  759MOL0     C 2336   6.843   8.916   1.364  0.0963 -1.1630 -0.8981
  759MOL0     C 2337   6.939   9.018   1.370 -0.5916 -0.1343  0.1228
  759MOL0     O 2338   7.068   8.969   1.388 -0.0355  0.0244  0.0996
  759MOL0     C 2339   7.177   9.064   1.405 -0.9022  0.2021  0.4100
  759MOL0     C 2340   7.187   9.126   1.545 -0.2752  0.3759 -0.8444
  759MOL0     C 2341   7.324   9.181   1.583  0.5194 -0.3026  1.3151
  759MOL0     C 2342   7.326   9.228   1.726 -0.1165 -0.1523 -0.1544
  759MOL0     C 2343   7.459   9.246   1.784  0.3495 -0.7947  0.8337
  759MOL0     C 2344   7.513   9.116   1.842  0.6013  0.2866  0.1475
  759MOL0     C 2345   7.660   9.123   1.881  0.2715 -1.3954 -0.4881
  759MOL0     C 2346   7.694   8.984   1.923 -0.1205  0.6067 -0.2247
  759MOL0     N 2347   7.823   8.979   1.989 -0.1875 -0.3073 -0.3059
  759MOL0     C 2348   7.849   8.975   2.126 -0.7394  0.6432 -0.0458
  759MOL0     C 2349   7.980   8.937   2.149  0.7835  0.1519  0.9761
  759MOL0     C 2350   8.044   8.910   2.279 -0.5137  0.0738 -0.0721
  759MOL0     C 2351   8.198   8.916   2.266 -0.0878  0.7932  0.5264
  759MOL0     C 2352   8.234   8.781   2.206 -0.3878  0.9890 -0.7135
  759MOL0     C 2353   8.378   8.777   2.163  0.4390  0.2713 -0.3981
  759MOL0     O 2354   8.462   8.801   2.274 -0.1606 -0.3670  0.7624
  759MOL0     C 2355   8.590   8.837   2.248 -0.8464 -0.1604  0.3740
  759MOL0     C 2356   8.655   8.898   2.354  0.5507 -0.3681  0.0183
  759MOL0     C 2357   8.792   8.918   2.350  0.2899 -0.3768  0.7394
  759MOL0     C 2358   8.872   8.873   2.248 -0.8944  0.6032  0.2080
  759MOL0     C 2359   9.018   8.892   2.259  0.1492 -0.8765  0.1102
  759MOL0     O 2360   9.085   8.891   2.146  0.1426 -0.6118  0.5815
  759MOL0     C 2361   9.211   8.947   2.155 -0.7585 -1.6654 -0.0701
  759MOL0     C 2362   9.314   8.876   2.199  0.3445 -0.3693 -0.8993
  759MOL0     C 2363   9.438   8.936   2.221  0.3710  0.2405 -0.4757
  759MOL0     C 2364   9.459   9.065   2.185  0.2153 -1.4402  0.1505
  759MOL0     O 2365   9.585   9.123   2.182  0.0027  0.7819  0.5860
  759MOL0     C 2366   9.600   9.255   2.207 -0.4493 -0.7388  0.2926
  759MOL0     C 2367   9.752   9.279   2.233 -0.0325  0.5099 -0.1898
  759MOL0     C 2368   9.787   9.266   2.382 -0.2914  0.5381  0.4244
  759MOL0     C 2369   9.929   9.322   2.406  0.6024  0.1162 -0.1272
  759MOL0     C 2370   9.957   9.307   2.550  0.1470 -0.1087  0.2773
  759MOL0     C 2371  10.113   9.314   2.567  0.0689  0.8693 -0.3291
  759MOL0     C 2372  10.149   9.297   2.715  0.6829  0.3725 -0.7910
  759MOL0     C 2373  10.292   9.333   2.749 -0.2084  0.2024 -0.0969
  759MOL0    Cl 2374  10.394   9.232   2.647 -0.5460 -0.1406 -0.0919
  759MOL0     C 2375   9.350   9.138   2.146  0.6290 -0.8693  0.5290
  759MOL0     C 2376   9.220   9.086   2.129 -1.2936  0.2566  0.6196
  759MOL0     O 2377   9.058   8.914   2.377 -0.0502 -0.5934  0.1189
  759MOL0     C 2378   8.806   8.815   2.137 -0.0639  0.6046  0.0281
  759MOL0     C 2379   8.669   8.799   2.133  0.6340 -0.5033 -0.8445
  759MOL0     N 2380   8.035   8.939   2.023 -1.1695  0.3583  0.0048
  759MOL0     N 2381   7.942   8.953   1.928  0.2453 -0.1738 -0.1278
  759MOL0     C 2382   6.900   9.151   1.352 -0.9093 -0.3896  0.2284
  759MOL0     C 2383   6.761   9.182   1.346 -0.0709 -0.1421  0.4611
  759MOL0     C 2384   6.311   9.194   1.316  0.4694  0.1609 -0.3718
  759MOL0     C 2385   6.267   9.090   1.245 -0.0072 -0.3045  0.5915
  759MOL0     C 2386   6.132   9.062   1.230  0.8297 -0.1688  0.3027
  759MOL0     C 2387   6.033   9.141   1.303 -0.8097  0.0256  0.7916
  759MOL0     O 2388   5.894   9.122   1.295  0.3319 -0.7478 -0.0949
  759MOL0     C 2389   5.835   9.051   1.185 -0.6817  0.1042  0.6489
  759MOL0     C 2390   5.686   9.023   1.199  0.7146 -0.2046 -0.0077
  759MOL0     C 2391   5.601   9.150   1.206 -1.2875 -0.4692 -0.3046
  759MOL0     C 2392   5.455   9.132   1.262 -0.1235  0.5181 -0.8402
  759MOL0     C 2393   5.392   9.266   1.277  0.1945 -0.3136 -0.4224
  759MOL0     C 2394   5.318   9.365   1.291 -0.2021  0.4173  0.1947
  759MOL0     C 2395   6.080   9.243   1.381 -0.1397 -0.6330  0.9008
  759MOL0     C 2396   6.219   9.274   1.386  0.3293 -1.0961  0.4499
  759MOL0     C 2397   6.251   9.402   1.456  0.4965 -0.1646 -0.6969
  759MOL0     H 2398   6.631   8.874   1.329  1.2233 -2.0246 -2.1252
  759MOL0     H 2399   6.875   8.812   1.367  4.7318  0.0007 -1.7884
  759MOL0     H 2400   7.266   9.002   1.386 -1.4936  0.1221 -2.7649
  759MOL0     H 2401   7.173   9.133   1.320 -0.3069  0.7464  0.8245
  759MOL0     H 2402   7.170   9.038   1.608  0.3302  0.4589 -0.5554
  759MOL0     H 2403   7.107   9.199   1.559 -2.1861 -1.7156 -0.0868
  759MOL0     H 2404   7.357   9.255   1.509 -3.0312  0.3459  0.1630
  759MOL0     H 2405   7.393   9.098   1.567 -0.7744 -1.0962 -0.5258
  759MOL0     H 2406   7.272   9.323   1.731  1.6580  0.8587  1.5371
  759MOL0     H 2407   7.266   9.149   1.771 -0.0161 -2.7496 -4.0952
  759MOL0     H 2408   7.524   9.274   1.700  1.0931 -0.3028  1.5610
  759MOL0     H 2409   7.464   9.328   1.856 -1.6830  1.7262 -1.6224
  759MOL0     H 2410   7.450   9.092   1.928  0.8638 -0.5706  0.1045
  759MOL0     H 2411   7.505   9.041   1.763 -0.9307 -0.4288  0.9358
  759MOL0     H 2412   7.669   9.189   1.968 -2.1292  0.5025 -1.5630
  759MOL0     H 2413   7.731   9.155   1.804 -1.0257 -3.6037 -2.7724
  759MOL0     H 2414   7.624   8.947   1.998  1.1970 -1.6081  0.0259
  759MOL0     H 2415   7.689   8.919   1.835 -0.0867 -0.0824  0.2723
  759MOL0     H 2416   7.778   8.984   2.208 -1.0922 -0.8663 -0.1489
  759MOL0     H 2417   8.015   8.987   2.352  3.7701  1.7920  0.1302
  759MOL0     H 2418   8.014   8.812   2.315 -0.1304  0.4622  1.3784
  759MOL0     H 2419   8.239   8.997   2.205  3.5986  0.6884  2.5470
  759MOL0     H 2420   8.237   8.922   2.369 -0.5708 -0.5827  0.8076
  759MOL0     H 2421   8.175   8.759   2.117 -1.1305  1.3554 -0.3243
  759MOL0     H 2422   8.213   8.702   2.278  0.8137  1.3898  0.1144
  759MOL0     H 2423   8.405   8.849   2.086 -0.9045  1.4517  0.1989
  759MOL0     H 2424   8.400   8.676   2.127  0.0734 -0.1023  0.3998
  759MOL0     H 2425   8.609   8.929   2.448  3.5045  2.2868  0.8005
  759MOL0     H 2426   8.835   8.962   2.440  0.1821  2.1258 -0.3562
  759MOL0     H 2427   9.294   8.773   2.224  0.3594  0.2469  1.9442
  759MOL0     H 2428   9.519   8.868   2.247  0.8012  0.3890 -1.3865
  759MOL0     H 2429   9.574   9.322   2.124  1.4968  2.3426  1.9808
  759MOL0     H 2430   9.544   9.287   2.296  1.7936 -0.4574  1.6725
  759MOL0     H 2431   9.817   9.214   2.173  0.3860 -0.0753  0.8708
  759MOL0     H 2432   9.791   9.374   2.194 -0.2670  1.0288  0.8088
  759MOL0     H 2433   9.714   9.325   2.439 -0.7752 -0.0906  0.4554
  759MOL0     H 2434   9.783   9.159   2.401  0.9445 -0.2473 -3.0631
  759MOL0     H 2435   9.941   9.425   2.371  2.6604 -0.6125 -1.7618
  759MOL0     H 2436  10.000   9.262   2.348 -1.4073  0.8430 -3.6701
  759MOL0     H 2437   9.927   9.213   2.597  0.0540 -0.9614 -1.4411
  759MOL0     H 2438   9.898   9.378   2.610  2.2745  1.3987  0.7190
  759MOL0     H 2439  10.166   9.243   2.503 -1.7948 -0.9292  0.0460
  759MOL0     H 2440  10.154   9.409   2.530 -0.2837  0.2927 -2.2711
  759MOL0     H 2441  10.139   9.191   2.738 -0.6363  0.4066 -1.1343
  759MOL0     H 2442  10.082   9.359   2.776  3.1621  0.3725  2.1976
  759MOL0     H 2443  10.314   9.440   2.743 -0.3928  0.2478  0.0157
  759MOL0     H 2444  10.306   9.306   2.854  1.5613  0.8493 -0.1377
  759MOL0     H 2445   9.349   9.241   2.112 -0.3936 -1.5573 -1.7130
  759MOL0     H 2446   9.139   9.149   2.094 -2.5882 -1.3585  0.5645
  759MOL0     H 2447   8.849   8.772   2.047 -1.3751 -1.0458  0.1425
  759MOL0     H 2448   8.625   8.747   2.048  0.0115  1.3096 -1.7018
  759MOL0     H 2449   6.981   9.221   1.331  0.8684 -1.7436  2.1571
  759MOL0     H 2450   6.743   9.288   1.350  0.1117 -0.0719 -0.3724
  759MOL0     H 2451   6.339   9.031   1.189 -0.1236  1.1968 -1.2336
  759MOL0     H 2452   6.101   8.977   1.171 -0.2940  1.2768 -1.2960
  759MOL0     H 2453   5.886   8.957   1.164 -1.9846  0.0807 -2.9847
  759MOL0     H 2454   5.842   9.117   1.098  0.9929  3.0109  2.7993
  759MOL0     H 2455   5.680   8.980   1.300  3.7333 -0.1995  0.2670
  759MOL0     H 2456   5.639   8.956   1.127  1.0027 -1.7118  1.1569
  759MOL0     H 2457   5.603   9.203   1.110  0.6617  0.4963  0.2117
  759MOL0     H 2458   5.645   9.221   1.277 -2.7003  2.3697 -2.0720
  759MOL0     H 2459   5.395   9.063   1.202  3.4218 -0.5780 -3.3879
  759MOL0     H 2460   5.471   9.093   1.364 -0.2945  2.2297 -0.1285
  759MOL0     H 2461   5.254   9.446   1.320 -1.4616 -0.6217  0.4598
  759MOL0     H 2462   6.010   9.306   1.434 -1.0340 -0.2405 -0.7015
  759MOL0     H 2463   6.297   9.474   1.388 -2.0556  1.9733 -0.3173
  759MOL0     H 2464   6.173   9.471   1.488  0.5911 -0.7043  0.7903
  759MOL0     H 2465   6.319   9.373   1.537  1.0398 -0.4713 -1.2532
  760MOL0     O 2466   8.149   7.106   4.346 -0.0261  0.4481  0.0395
  760MOL0     C 2467   8.127   7.222   4.313  0.1163  0.8604 -0.0429
  760MOL0     O 2468   8.213   7.316   4.279 -0.0545  0.1260 -0.3316
  760MOL0     C 2469   8.335   7.290   4.227  0.9014  0.3865 -0.6820
  760MOL0     C 2470   8.376   7.168   4.166  0.9334 -0.5570  0.0890
  760MOL0     C 2471   8.510   7.168   4.117  0.5044  0.7462  0.0101
  760MOL0     C 2472   8.594   7.271   4.130 -0.2357 -0.4702  0.7026
  760MOL0     O 2473   8.725   7.241   4.095 -0.0953  0.4070 -0.1281
  760MOL0     C 2474   8.820   7.343   4.087  0.9569 -0.7692 -0.2655
  760MOL0     C 2475   8.959   7.283   4.087 -0.5436  0.4065 -0.0252
  760MOL0     C 2476   8.985   7.187   3.964 -0.6188  0.2118 -0.3365
  760MOL0     C 2477   9.135   7.180   3.944 -0.6708  0.5188  0.4633
  760MOL0     C 2478   9.183   7.125   3.812  0.4971  1.0866  0.6132
  760MOL0     C 2479   9.162   6.973   3.797 -0.3189  0.3667 -0.5982
  760MOL0     C 2480   9.151   6.917   3.649  0.5725 -0.6310 -0.8166
  760MOL0     C 2481   9.284   6.914   3.578  0.2285  0.3278 -0.6082
  760MOL0     N 2482   9.375   6.807   3.620  0.0712 -0.8391  0.0009
  760MOL0     C 2483   9.366   6.674   3.584  0.9396 -0.3940  0.3883
  760MOL0     C 2484   9.472   6.618   3.651  0.6663  0.0818 -0.4195
  760MOL0     C 2485   9.505   6.467   3.640  0.6281  0.2277 -0.4667
  760MOL0     C 2486   9.647   6.444   3.602  0.3237  0.5599  0.1291
  760MOL0     C 2487   9.663   6.450   3.450  0.4687  0.0261  0.3267
  760MOL0     C 2488   9.799   6.408   3.399 -0.0332  0.0364 -0.1280
  760MOL0     O 2489   9.906   6.505   3.413 -0.1568 -0.2168  0.6398
  760MOL0     C 2490  10.023   6.493   3.346 -0.4032 -0.3446 -1.0120
  760MOL0     C 2491  10.127   6.577   3.388  0.6204 -0.3043 -0.0423
  760MOL0     C 2492  10.251   6.574   3.324  0.3169 -0.3923 -0.5949
  760MOL0     C 2493  10.275   6.473   3.231 -0.2694 -1.0581  0.4219
  760MOL0     C 2494  10.410   6.460   3.169  0.1836  0.0466  0.2660
  760MOL0     O 2495  10.503   6.549   3.224  0.2874  0.2981  0.0067
  760MOL0     C 2496  10.637   6.550   3.196 -0.0428  0.2946 -1.1422
  760MOL0     C 2497  10.709   6.424   3.191  0.9994 -0.6761  0.0985
  760MOL0     C 2498  10.849   6.440   3.172  1.0970  0.2045  0.0899
  760MOL0     C 2499  10.911   6.560   3.157  0.0952 -0.7430 -1.3230
  760MOL0     O 2500  11.043   6.593   3.137 -0.8973 -0.2625 -0.6244
  760MOL0     C 2501  11.125   6.507   3.054  0.3897  0.1785  0.3420
  760MOL0     C 2502  11.236   6.585   2.990 -0.2204 -0.2970  0.3101
  760MOL0     C 2503  11.355   6.497   2.956  0.0569  0.5253 -0.0993
  760MOL0     C 2504  11.482   6.577   2.934  0.6624  0.0787 -0.0144
  760MOL0     C 2505  11.477   6.650   2.797 -0.0131  0.3549  0.5577
  760MOL0     C 2506  11.614   6.721   2.756  0.7201  0.2774  0.1944
  760MOL0     C 2507  11.668   6.825   2.838  0.5376 -0.3062  0.0886
  760MOL0     C 2508  11.776   6.913   2.777  0.1818  0.0995  0.0313
  760MOL0    Cl 2509  11.703   7.003   2.637  0.1357  0.2602 -0.3046
  760MOL0     C 2510  10.834   6.675   3.166 -0.3158  0.1690 -0.4586
  760MOL0     C 2511  10.695   6.670   3.181  0.4810 -0.2923  0.6538
  760MOL0     O 2512  10.436   6.378   3.087  0.0215  0.7476  0.0353
  760MOL0     C 2513  10.173   6.377   3.198  0.0002 -1.0052  0.8446
  760MOL0     C 2514  10.047   6.395   3.256  0.3137  0.0864 -0.1365
  760MOL0     N 2515   9.541   6.711   3.718  0.2454  0.9568 -0.0572
  760MOL0     N 2516   9.487   6.830   3.695  0.5608  0.0014 -0.4747
  760MOL0     C 2517   8.539   7.394   4.170  0.3986 -0.0462 -0.0143
  760MOL0     C 2518   8.408   7.398   4.219  0.4429 -0.0664  0.0647
  760MOL0     C 2519   8.001   7.267   4.352  0.1574 -0.9796  0.2461
  760MOL0     C 2520   7.979   7.401   4.391  0.4552 -0.4624  0.9069
  760MOL0     C 2521   7.853   7.444   4.428  0.6329  0.3971  0.2596
  760MOL0     C 2522   7.745   7.355   4.442  0.6374 -0.4004 -0.3107
  760MOL0     O 2523   7.622   7.413   4.486 -0.8809 -0.1613  0.1779
  760MOL0     C 2524   7.501   7.334   4.471 -0.3311 -0.2779  0.1887
  760MOL0     C 2525   7.374   7.415   4.492  0.1350  0.4442  0.0172
  760MOL0     C 2526   7.253   7.329   4.542 -0.2459 -0.1164  0.4729
  760MOL0     C 2527   7.198   7.226   4.442  0.6599  0.6758 -0.7096
  760MOL0     C 2528   7.101   7.132   4.504  0.0274 -0.0144 -0.3141
  760MOL0     C 2529   7.031   7.048   4.558  0.5765  0.3995 -0.8327
  760MOL0     C 2530   7.762   7.227   4.402  0.9929  0.7734  0.6707
  760MOL0     C 2531   7.885   7.185   4.352  0.1997 -0.3270  0.0406
  760MOL0     C 2532   7.885   7.044   4.300 -0.0767  0.3554 -0.2285
  760MOL0     H 2533   8.307   7.086   4.177  1.2850 -0.8778 -0.0635
  760MOL0     H 2534   8.549   7.073   4.082  2.6894  1.5709  0.0566
  760MOL0     H 2535   8.810   7.409   4.000  1.0879  0.3740  0.5572
  760MOL0     H 2536   8.796   7.415   4.165 -0.3608 -1.6878  0.2170
  760MOL0     H 2537   8.974   7.234   4.183  0.2479  0.9154  0.1218
  760MOL0     H 2538   9.029   7.367   4.080  0.1670 -0.0878  0.9600
  760MOL0     H 2539   8.942   7.231   3.874  2.7687 -0.6941 -2.6056
  760MOL0     H 2540   8.951   7.084   3.974  0.9156 -0.5033 -1.9036
  760MOL0     H 2541   9.179   7.281   3.936  2.2617 -0.8168 -3.0608
  760MOL0     H 2542   9.186   7.127   4.025  2.9936  1.8420 -0.7730
  760MOL0     H 2543   9.139   7.176   3.726  1.2137 -0.8782 -0.9972
  760MOL0     H 2544   9.286   7.160   3.799  0.6269  2.0748  3.5851
  760MOL0     H 2545   9.243   6.919   3.847 -0.9825  1.2359  1.5172
  760MOL0     H 2546   9.064   6.943   3.833 -0.9266  2.2528 -0.5536
  760MOL0     H 2547   9.072   6.972   3.598  0.1778 -0.5854 -0.1720
  760MOL0     H 2548   9.105   6.818   3.653 -2.1171  0.5833  0.8293
  760MOL0     H 2549   9.250   6.902   3.475  0.3700  0.1831 -0.6375
  760MOL0     H 2550   9.332   7.013   3.580  0.4411  0.3203 -2.7338
  760MOL0     H 2551   9.300   6.617   3.519 -0.5808  0.3157  1.2675
  760MOL0     H 2552   9.475   6.410   3.729  0.6800  0.8215 -0.0633
  760MOL0     H 2553   9.436   6.422   3.568  2.8545 -4.7324  0.0502
  760MOL0     H 2554   9.717   6.514   3.648  1.3158  0.3484 -0.9818
  760MOL0     H 2555   9.683   6.347   3.636  0.3765  0.4760 -0.1627
  760MOL0     H 2556   9.646   6.549   3.409 -0.0014  0.0064  0.4674
  760MOL0     H 2557   9.587   6.380   3.414 -0.6414  1.6187 -0.5043
  760MOL0     H 2558   9.777   6.389   3.293 -1.2114 -2.5241  0.4865
  760MOL0     H 2559   9.834   6.312   3.437  0.1565 -0.4099 -1.3667
  760MOL0     H 2560  10.107   6.658   3.458  0.3239 -2.1431  2.0900
  760MOL0     H 2561  10.331   6.645   3.345  0.2024 -1.0225  2.4790
  760MOL0     H 2562  10.654   6.330   3.193 -0.6568  0.2517  1.9723
  760MOL0     H 2563  10.904   6.347   3.158  0.5781  0.0992 -1.4427
  760MOL0     H 2564  11.163   6.422   3.113 -0.0573  1.6664  2.9106
  760MOL0     H 2565  11.058   6.457   2.983  0.9745 -0.0737 -0.0375
  760MOL0     H 2566  11.189   6.635   2.905 -1.0545  0.8859  1.4369
  760MOL0     H 2567  11.272   6.657   3.065  4.6371 -2.2687  0.2641
  760MOL0     H 2568  11.380   6.436   3.044 -1.0162  1.7429  1.0987
  760MOL0     H 2569  11.332   6.441   2.865 -1.2940  2.4312 -0.9931
  760MOL0     H 2570  11.560   6.500   2.930  0.5960 -0.1476  2.1046
  760MOL0     H 2571  11.498   6.645   3.018 -2.0897  0.2389  0.4836
  760MOL0     H 2572  11.405   6.732   2.796  3.6966  3.9319  0.8924
  760MOL0     H 2573  11.447   6.578   2.720  0.4490  0.8070 -0.0551
  760MOL0     H 2574  11.687   6.640   2.765 -3.1845 -3.3995  3.1490
  760MOL0     H 2575  11.615   6.752   2.652 -0.1985  1.6097  0.5629
  760MOL0     H 2576  11.713   6.768   2.919 -0.6960 -0.3921  0.7463
  760MOL0     H 2577  11.597   6.897   2.882  2.1008  0.6590  1.1216
  760MOL0     H 2578  11.818   6.982   2.850  0.8501  1.1468 -1.3026
  760MOL0     H 2579  11.854   6.845   2.741 -0.2475  1.1535 -3.1919
  760MOL0     H 2580  10.890   6.768   3.171 -0.9434  0.4929  0.9288
  760MOL0     H 2581  10.645   6.765   3.188 -1.4386 -1.3102  1.5511
  760MOL0     H 2582  10.189   6.297   3.127  2.9417  0.8095 -0.7278
  760MOL0     H 2583   9.962   6.337   3.222  0.1143  0.2709  0.0377
  760MOL0     H 2584   8.598   7.485   4.178  0.6285 -0.2860  1.3222
  760MOL0     H 2585   8.372   7.488   4.268 -0.7111 -0.9048  0.8448
  760MOL0     H 2586   8.061   7.472   4.398  1.1982 -1.2073  0.0551
  760MOL0     H 2587   7.824   7.544   4.457 -2.4243  0.0062 -1.1085
  760MOL0     H 2588   7.515   7.248   4.537  2.0227 -0.6474 -0.6947
  760MOL0     H 2589   7.507   7.291   4.371 -0.5128  0.3821 -0.1154
  760MOL0     H 2590   7.346   7.465   4.399 -0.2415  1.0559  0.4519
  760MOL0     H 2591   7.394   7.492   4.566 -0.4192  2.2527 -1.6241
  760MOL0     H 2592   7.174   7.403   4.562  1.0651  1.0974  1.4394
  760MOL0     H 2593   7.290   7.287   4.636  1.3843 -1.9052 -0.9037
  760MOL0     H 2594   7.157   7.275   4.354 -0.7539 -0.2218 -0.5883
  760MOL0     H 2595   7.283   7.165   4.407  0.5451  1.1974 -1.9415
  760MOL0     H 2596   6.969   6.968   4.595 -1.8993  2.3225 -0.5366
  760MOL0     H 2597   7.682   7.155   4.414 -0.0724  1.7915 -0.0646
  760MOL0     H 2598   7.906   6.965   4.373 -2.2936  0.0623  0.1569
  760MOL0     H 2599   7.787   7.013   4.262 -1.0758  0.0223  2.4274
  760MOL0     H 2600   7.934   7.038   4.203 -2.7054 -0.5480 -1.6188
  761MOL0     O 2601   6.934   0.348  11.250  0.2722  0.1439  0.0222
  761MOL0     C 2602   6.924   0.469  11.239  0.4137 -1.0704  0.2833
  761MOL0     O 2603   6.809   0.540  11.210  0.1565  0.0415  0.4525
  761MOL0     C 2604   6.685   0.489  11.176  0.6191 -0.0706 -0.0781
  761MOL0     C 2605   6.666   0.354  11.137 -0.6915  0.1042 -0.5896
  761MOL0     C 2606   6.541   0.303  11.121  0.0746  0.2505  0.2652
  761MOL0     C 2607   6.426   0.380  11.134 -0.3510  0.1620  0.3474
  761MOL0     O 2608   6.293   0.338  11.117  0.6488 -0.1408 -0.8648
  761MOL0     C 2609   6.267   0.207  11.063  0.2514  0.7005 -0.1654
  761MOL0     C 2610   6.115   0.172  11.027 -0.6032 -0.2255  0.0183
  761MOL0     C 2611   6.092   0.023  10.989 -0.3834 -0.0012  0.0977
  761MOL0     C 2612   5.956   0.000  10.918  0.5074  0.1213  0.1195
  761MOL0     C 2613   5.936  -0.142  10.869 -0.1282 -0.0291  0.2379
  761MOL0     C 2614   5.796  -0.177  10.826  0.0960  0.1575 -0.1487
  761MOL0     C 2615   5.697  -0.230  10.933  0.4244  0.0862  0.8060
  761MOL0     C 2616   5.559  -0.270  10.878  0.7837  0.7130 -0.1017
  761MOL0     N 2617   5.555  -0.398  10.804  0.1189 -0.0534 -1.4692
  761MOL0     C 2618   5.632  -0.437  10.700 -0.3792 -0.0309 -0.2349
  761MOL0     C 2619   5.594  -0.571  10.677  0.4043  0.1756 -1.2436
  761MOL0     C 2620   5.652  -0.662  10.573 -0.2454  0.3025  0.5039
  761MOL0     C 2621   5.800  -0.685  10.595  0.5686 -0.3796  0.2311
  761MOL0     C 2622   5.862  -0.718  10.456  0.7427 -0.6816 -0.3062
  761MOL0     C 2623   6.009  -0.730  10.476  0.3202  0.2476  0.8256
  761MOL0     O 2624   6.070  -0.798  10.361 -0.0340  0.7850  0.2240
  761MOL0     C 2625   6.198  -0.820  10.372 -0.5099 -0.0214 -0.3355
  761MOL0     C 2626   6.254  -0.886  10.266 -0.4048  0.1293 -0.1207
  761MOL0     C 2627   6.395  -0.923  10.265 -0.0116  0.0780 -0.0870
  761MOL0     C 2628   6.477  -0.876  10.367 -0.5578 -0.0962  0.1546
  761MOL0     C 2629   6.622  -0.897  10.369 -0.3628 -0.2150 -0.2521
  761MOL0     O 2630   6.675  -0.981  10.271  0.4923 -0.0929 -0.4010
  761MOL0     C 2631   6.810  -1.008  10.254  0.0154 -0.2429  0.2362
  761MOL0     C 2632   6.898  -0.935  10.162 -0.3983 -1.3449 -0.4348
  761MOL0     C 2633   7.032  -0.958  10.177  0.1563  0.7001  0.3078
  761MOL0     C 2634   7.094  -1.052  10.253 -0.9866  0.1392 -1.4228
  761MOL0     O 2635   7.229  -1.066  10.253  0.0441 -0.1382  0.5243
  761MOL0     C 2636   7.297  -1.169  10.317 -0.8171 -0.2231 -0.6254
  761MOL0     C 2637   7.428  -1.201  10.247 -0.1635 -0.4703 -0.4915
  761MOL0     C 2638   7.523  -1.084  10.266 -0.4133  0.1633 -0.4540
  761MOL0     C 2639   7.611  -1.100  10.393  0.3916 -0.3854 -0.2877
  761MOL0     C 2640   7.703  -0.973  10.435 -0.0467  0.4326  0.3720
  761MOL0     C 2641   7.802  -0.960  10.326  0.0051  0.2727  0.9558
  761MOL0     C 2642   7.935  -0.905  10.368  0.6636  0.0564 -0.4880
  761MOL0     C 2643   8.064  -0.949  10.301 -0.2261  0.7535  0.5982
  761MOL0    Cl 2644   8.196  -0.849  10.368  0.0963 -0.1862  0.2333
  761MOL0     C 2645   7.006  -1.134  10.332 -0.3172 -0.4973 -0.2666
  761MOL0     C 2646   6.866  -1.111  10.345 -0.2424 -0.5780  0.3380
  761MOL0     O 2647   6.696  -0.831  10.446  0.4274  0.3710  0.0283
  761MOL0     C 2648   6.419  -0.801  10.471 -0.2895 -0.3327  0.3674
  761MOL0     C 2649   6.281  -0.775  10.476 -1.0981 -0.0993  0.3295
  761MOL0     N 2650   5.496  -0.611  10.768  0.3995 -0.2207  0.5987
  761MOL0     N 2651   5.472  -0.501  10.835 -0.4230  0.0559  0.6908
  761MOL0     C 2652   6.446   0.516  11.161 -0.3545  0.0044  0.6443
  761MOL0     C 2653   6.572   0.569  11.181 -0.3920 -0.4294  0.3057
  761MOL0     C 2654   7.050   0.544  11.264  0.0865  0.5759  0.1220
  761MOL0     C 2655   7.164   0.496  11.195 -0.9200 -0.9141  0.3458
  761MOL0     C 2656   7.289   0.558  11.200 -0.1754  0.2034 -0.6924
  761MOL0     C 2657   7.302   0.679  11.274 -0.3593  0.8382 -0.3647
  761MOL0     O 2658   7.423   0.735  11.291 -0.6638  0.1639  0.3382
  761MOL0     C 2659   7.437   0.879  11.323 -0.9167 -0.1935 -0.1279
  761MOL0     C 2660   7.569   0.913  11.395 -0.7073  0.3104  0.0486
  761MOL0     C 2661   7.685   0.951  11.304  0.9241  0.0648  0.6836
  761MOL0     C 2662   7.820   0.916  11.366 -0.3285  0.3325 -0.0916
  761MOL0     C 2663   7.931   0.993  11.316 -0.7449 -0.3445 -0.1060
  761MOL0     C 2664   8.033   1.055  11.297  0.5026  0.1757 -0.5731
  761MOL0     C 2665   7.189   0.733  11.335  0.0801  0.2070 -0.2804
  761MOL0     C 2666   7.062   0.667  11.322  0.4590 -0.6152  0.3415
  761MOL0     C 2667   6.938   0.740  11.380  0.0559 -0.5304 -0.2628
  761MOL0     H 2668   6.760   0.308  11.110  0.8515  1.2875  2.2968
  761MOL0     H 2669   6.541   0.201  11.083  2.5548  0.5365 -0.6871
  761MOL0     H 2670   6.326   0.192  10.972 -0.5218 -3.2396 -0.1914
  761MOL0     H 2671   6.309   0.136  11.135  0.6698  1.5667  0.4584
  761MOL0     H 2672   6.086   0.224  10.935  1.7068 -0.2720 -0.7789
  761MOL0     H 2673   6.046   0.202  11.107 -1.6811 -1.8374 -0.2501
  761MOL0     H 2674   6.109  -0.041  11.077 -0.0567 -0.2794 -0.1620
  761MOL0     H 2675   6.178  -0.014  10.931  0.3730  1.0342  0.5222
  761MOL0     H 2676   5.876   0.013  10.991  0.4451 -2.2305  0.5445
  761MOL0     H 2677   5.943   0.071  10.836  0.5509  0.7151  0.6199
  761MOL0     H 2678   5.999  -0.165  10.783  3.4927  0.5014  2.5106
  761MOL0     H 2679   5.964  -0.216  10.945 -2.0136  0.2316  1.2374
  761MOL0     H 2680   5.763  -0.082  10.783 -2.9167 -1.1433 -0.9436
  761MOL0     H 2681   5.814  -0.255  10.752  1.8965 -0.6628  1.0684
  761MOL0     H 2682   5.674  -0.146  11.000  0.4504  0.4390  0.3732
  761MOL0     H 2683   5.747  -0.314  10.983  0.2839 -0.0934  0.6442
  761MOL0     H 2684   5.503  -0.270  10.972  2.4559  0.4778  0.9205
  761MOL0     H 2685   5.517  -0.198  10.807 -0.5201 -0.5515 -0.6496
  761MOL0     H 2686   5.705  -0.381  10.643 -0.9101  1.5457  0.5587
  761MOL0     H 2687   5.604  -0.760  10.567  0.4205  0.0330 -2.9077
  761MOL0     H 2688   5.633  -0.623  10.472 -0.7312  1.8137  1.1537
  761MOL0     H 2689   5.842  -0.590  10.628  2.1231 -0.6816 -0.7678
  761MOL0     H 2690   5.827  -0.759  10.671  3.9399 -0.2776 -0.6784
  761MOL0     H 2691   5.834  -0.648  10.377 -2.4188 -0.3005  1.0120
  761MOL0     H 2692   5.824  -0.816  10.427  1.6887 -0.8091 -1.1625
  761MOL0     H 2693   6.023  -0.788  10.568  2.1076 -0.1385  0.3604
  761MOL0     H 2694   6.047  -0.627  10.481 -0.6684  0.6890 -0.3371
  761MOL0     H 2695   6.186  -0.924  10.190  0.3986  0.3820 -0.9773
  761MOL0     H 2696   6.437  -0.990  10.190  1.2978  3.3199 -2.4758
  761MOL0     H 2697   6.868  -0.848  10.106  0.1796  0.0064  1.2809
  761MOL0     H 2698   7.095  -0.909  10.103 -1.3680  0.5597 -1.1428
  761MOL0     H 2699   7.315  -1.145  10.423  0.8417  1.9251 -1.3228
  761MOL0     H 2700   7.247  -1.266  10.306  0.1789 -1.0612  1.5934
  761MOL0     H 2701   7.470  -1.294  10.286 -0.8329  0.3160  2.3198
  761MOL0     H 2702   7.399  -1.214  10.142 -0.0736 -0.4884 -0.5148
  761MOL0     H 2703   7.595  -1.089  10.183 -0.7936  2.0231 -0.9470
  761MOL0     H 2704   7.473  -0.987  10.266 -0.2951  0.2244 -0.1764
  761MOL0     H 2705   7.661  -1.196  10.384 -0.3106 -0.5666 -3.3883
  761MOL0     H 2706   7.536  -1.108  10.472  0.0400 -1.9835 -0.7512
  761MOL0     H 2707   7.747  -0.996  10.532  1.1191  2.2975  0.3190
  761MOL0     H 2708   7.644  -0.882  10.432 -1.9220 -0.7293  0.1830
  761MOL0     H 2709   7.822  -1.063  10.295  2.2968  0.6510  1.0346
  761MOL0     H 2710   7.759  -0.902  10.243 -1.1592  0.2432  1.5139
  761MOL0     H 2711   7.946  -0.934  10.473 -0.4837 -0.5388 -0.5123
  761MOL0     H 2712   7.924  -0.798  10.348  0.4239 -0.6517 -5.3967
  761MOL0     H 2713   8.083  -1.056  10.318  0.1672  0.5261 -1.0747
  761MOL0     H 2714   8.058  -0.939  10.193  3.6096 -1.6321 -0.0448
  761MOL0     H 2715   7.041  -1.222  10.385  0.6417 -0.3974 -0.7209
  761MOL0     H 2716   6.805  -1.179  10.404 -2.1927 -1.1593 -2.2044
  761MOL0     H 2717   6.484  -0.760  10.548 -1.1212 -0.0662  0.9410
  761MOL0     H 2718   6.241  -0.712  10.555 -0.2642 -2.3871  2.7078
  761MOL0     H 2719   6.370   0.593  11.166 -0.8580 -0.2027 -2.2454
  761MOL0     H 2720   6.592   0.676  11.190  1.2239 -0.5484 -1.2009
  761MOL0     H 2721   7.157   0.409  11.131 -2.2047 -1.8733  1.7248
  761MOL0     H 2722   7.381   0.514  11.165  0.3325 -0.4240  1.3571
  761MOL0     H 2723   7.359   0.917  11.390 -0.3821  0.9124 -0.1019
  761MOL0     H 2724   7.434   0.942  11.234  0.8136  0.9317  0.5631
  761MOL0     H 2725   7.602   0.833  11.462 -1.5505  1.0418  1.3699
  761MOL0     H 2726   7.557   1.005  11.453  0.9775  2.5479 -2.8626
  761MOL0     H 2727   7.687   1.060  11.294 -0.4532  0.2079  1.7046
  761MOL0     H 2728   7.668   0.909  11.204 -0.6684  0.6822  0.6637
  761MOL0     H 2729   7.821   0.916  11.475  2.0877  0.5158 -0.0524
  761MOL0     H 2730   7.842   0.812  11.338  1.6833  0.7069 -0.0353
  761MOL0     H 2731   8.117   1.121  11.285 -0.5905  1.6049 -0.7186
  761MOL0     H 2732   7.181   0.830  11.383  2.0656 -0.7419  2.2176
  761MOL0     H 2733   6.856   0.673  11.408  0.3917 -0.1594  1.7305
  761MOL0     H 2734   6.964   0.787  11.475  0.0308 -0.5190 -0.2615
  761MOL0     H 2735   6.908   0.816  11.307  1.4786  0.3054 -0.0289
  762MOL0     O 2736   2.962   3.799   2.444  0.0484 -0.0343  0.0449
  762MOL0     C 2737   3.061   3.827   2.512  0.0649  0.2059 -0.2367
  762MOL0     O 2738   3.098   3.768   2.632 -0.1445  0.0550  0.0000
  762MOL0     C 2739   3.022   3.676   2.692 -0.8499 -0.1335 -0.1353
  762MOL0     C 2740   2.998   3.688   2.827  0.0963 -0.2634 -0.0367
  762MOL0     C 2741   2.904   3.604   2.898  1.3999  0.0548 -0.4161
  762MOL0     C 2742   2.824   3.512   2.825  0.2204 -1.6282  1.1845
  762MOL0     O 2743   2.718   3.451   2.883 -0.5000 -0.3825 -0.2131
  762MOL0     C 2744   2.681   3.319   2.836 -0.5662  0.3225 -0.4701
  762MOL0     C 2745   2.799   3.214   2.840  0.1096  0.2861 -0.1124
  762MOL0     C 2746   2.768   3.089   2.769  0.9372 -0.3903 -0.8840
  762MOL0     C 2747   2.884   3.000   2.739  0.9295  0.1238 -0.0499
  762MOL0     C 2748   2.841   2.883   2.647 -0.1503 -0.2161 -0.0392
  762MOL0     C 2749   2.937   2.765   2.643 -0.1022 -0.1214 -0.6814
  762MOL0     C 2750   3.085   2.799   2.642 -0.1828 -0.2877 -1.0779
  762MOL0     C 2751   3.175   2.676   2.670  0.1752  0.0719 -0.2759
  762MOL0     N 2752   3.202   2.594   2.544 -0.0918 -0.7078 -0.3117
  762MOL0     C 2753   3.183   2.462   2.530 -0.1821  0.4098  0.7404
  762MOL0     C 2754   3.194   2.446   2.392 -0.8419 -0.0668 -0.1144
  762MOL0     C 2755   3.182   2.318   2.318 -0.4555 -0.1993 -0.2901
  762MOL0     C 2756   3.061   2.238   2.334  0.1948 -0.2929  0.3744
  762MOL0     C 2757   3.070   2.131   2.445  0.0935  0.4180 -0.9819
  762MOL0     C 2758   3.175   2.020   2.437 -0.2997  0.6990  0.4427
  762MOL0     O 2759   3.171   1.945   2.563  0.3773 -0.3103  0.0922
  762MOL0     C 2760   3.251   1.841   2.598  0.2516 -0.3751  0.4811
  762MOL0     C 2761   3.375   1.814   2.550 -0.6637  0.0793 -0.4222
  762MOL0     C 2762   3.446   1.699   2.601  0.2162 -0.0725 -0.8421
  762MOL0     C 2763   3.402   1.622   2.703  0.1320  0.0791  0.5288
  762MOL0     C 2764   3.485   1.516   2.757 -0.4275  0.3847  0.0245
  762MOL0     O 2765   3.619   1.541   2.751 -0.3140 -0.1347  0.0828
  762MOL0     C 2766   3.710   1.467   2.827 -0.1001  0.0065  0.4805
  762MOL0     C 2767   3.836   1.478   2.773 -0.1120  0.2788 -0.2619
  762MOL0     C 2768   3.943   1.413   2.831 -0.2270  0.1950  0.6099
  762MOL0     C 2769   3.925   1.332   2.945  0.3790 -0.5513  0.1835
  762MOL0     O 2770   4.034   1.271   2.999  0.2945  0.6247 -0.9338
  762MOL0     C 2771   4.097   1.351   3.107 -0.0408  0.0185 -0.5228
  762MOL0     C 2772   4.237   1.297   3.117 -0.0196  0.0428 -0.2391
  762MOL0     C 2773   4.316   1.268   2.989 -0.4327 -0.4187  1.1142
  762MOL0     C 2774   4.458   1.217   3.011  1.0010  0.0005  0.2057
  762MOL0     C 2775   4.529   1.211   2.872  0.5289 -0.6500  0.1622
  762MOL0     C 2776   4.678   1.182   2.900 -0.6310  0.0754 -0.6900
  762MOL0     C 2777   4.777   1.244   2.801  0.8524  0.6022 -0.8209
  762MOL0     C 2778   4.915   1.187   2.824  1.1725  0.9010 -0.2070
  762MOL0    Cl 2779   5.036   1.246   2.711  0.0881  0.7049 -0.3162
  762MOL0     C 2780   3.794   1.311   2.991  0.5547 -0.4611 -0.3868
  762MOL0     C 2781   3.686   1.374   2.929  0.2122  0.2702 -0.0189
  762MOL0     O 2782   3.440   1.416   2.796  0.0971 -0.0418 -0.3699
  762MOL0     C 2783   3.270   1.650   2.750  0.5473  0.0495 -0.3788
  762MOL0     C 2784   3.202   1.757   2.702  0.0157  0.0970  0.1282
  762MOL0     N 2785   3.231   2.559   2.336  0.4350 -0.1616  0.2767
  762MOL0     N 2786   3.248   2.643   2.428 -1.0782  0.2920 -0.0434
  762MOL0     C 2787   2.855   3.496   2.683 -0.5399 -1.0283  0.0884
  762MOL0     C 2788   2.953   3.571   2.622 -0.3281 -0.2263 -0.2002
  762MOL0     C 2789   3.138   3.942   2.461 -1.3295  0.7647  0.3001
  762MOL0     C 2790   3.174   4.043   2.550  0.2035 -0.2924  0.8175
  762MOL0     C 2791   3.246   4.152   2.509 -0.7551  0.1719  0.0739
  762MOL0     C 2792   3.295   4.180   2.383 -0.2799 -0.0053  0.5444
  762MOL0     O 2793   3.366   4.297   2.361 -0.5329  0.1307  0.4513
  762MOL0     C 2794   3.406   4.323   2.226 -0.1407 -0.0203  0.5191
  762MOL0     C 2795   3.525   4.229   2.191 -0.4970 -0.4472  0.8030
  762MOL0     C 2796   3.577   4.258   2.049  0.3889  0.1469 -0.3220
  762MOL0     C 2797   3.707   4.174   2.011 -0.0156  0.0275 -0.9715
  762MOL0     C 2798   3.833   4.216   2.083  0.6682  0.0321 -0.5260
  762MOL0     C 2799   3.930   4.253   2.141  0.3656 -0.0843  0.5076
  762MOL0     C 2800   3.252   4.075   2.288 -0.8029 -0.1976  0.1566
  762MOL0     C 2801   3.181   3.959   2.326 -0.6450 -0.2872 -0.6752
  762MOL0     C 2802   3.157   3.852   2.214 -0.4502 -0.4456  0.1751
  762MOL0     H 2803   3.044   3.769   2.882 -2.4660  0.7974  0.6916
  762MOL0     H 2804   2.887   3.620   3.004  0.8023  1.1353 -0.6618
  762MOL0     H 2805   2.603   3.277   2.900 -0.8923  1.0302 -0.3891
  762MOL0     H 2806   2.646   3.327   2.732 -0.7992  1.3494 -0.3246
  762MOL0     H 2807   2.822   3.184   2.943  0.1171 -1.2808 -0.5563
  762MOL0     H 2808   2.888   3.246   2.785 -0.2254 -1.3055 -1.6336
  762MOL0     H 2809   2.721   3.103   2.671  0.5025 -2.4710 -1.0259
  762MOL0     H 2810   2.683   3.045   2.821 -1.9445  4.4529 -0.8597
  762MOL0     H 2811   2.966   3.049   2.685  0.0484 -0.9035 -2.4601
  762MOL0     H 2812   2.921   2.966   2.836  0.0078 -0.9193 -0.0551
  762MOL0     H 2813   2.741   2.848   2.674 -0.4898  0.8117  0.0571
  762MOL0     H 2814   2.846   2.931   2.549 -2.0035  1.1037  0.4583
  762MOL0     H 2815   2.910   2.696   2.724 -2.2376  2.6170  1.1291
  762MOL0     H 2816   2.919   2.715   2.548  1.2886  0.4567 -1.2726
  762MOL0     H 2817   3.113   2.859   2.729  1.8324  0.0878 -1.9282
  762MOL0     H 2818   3.121   2.846   2.549  1.0311  1.0048  0.0012
  762MOL0     H 2819   3.273   2.691   2.717  0.2141 -0.8172 -0.0528
  762MOL0     H 2820   3.132   2.602   2.738  1.4554 -1.2008 -0.8064
  762MOL0     H 2821   3.163   2.380   2.598  1.8946 -4.3936 -3.7551
  762MOL0     H 2822   3.194   2.338   2.211 -2.6666  2.1900 -0.1755
  762MOL0     H 2823   3.271   2.260   2.345 -0.2728 -0.4977 -1.4630
  762MOL0     H 2824   2.977   2.299   2.367  1.7373  2.2310 -0.0715
  762MOL0     H 2825   3.024   2.192   2.243 -1.9652  0.2887  0.9086
  762MOL0     H 2826   2.971   2.084   2.441  0.3802 -0.2474 -0.4928
  762MOL0     H 2827   3.080   2.180   2.543  2.6274 -2.1257  0.2021
  762MOL0     H 2828   3.277   2.056   2.426  0.1450 -0.5562  0.4097
  762MOL0     H 2829   3.152   1.953   2.355  3.5825 -0.4735  0.1261
  762MOL0     H 2830   3.419   1.880   2.476 -0.1472 -0.2759 -0.4388
  762MOL0     H 2831   3.545   1.676   2.563 -0.6757 -2.3375 -1.9728
  762MOL0     H 2832   3.843   1.538   2.683 -1.0977 -2.6939 -2.4978
  762MOL0     H 2833   4.043   1.425   2.791 -0.4500  2.4576  0.6099
  762MOL0     H 2834   4.104   1.453   3.068 -1.0404 -0.1698 -1.2591
  762MOL0     H 2835   4.046   1.349   3.204 -1.5974  0.3800 -1.2946
  762MOL0     H 2836   4.299   1.373   3.166  2.2174  0.5213 -3.4838
  762MOL0     H 2837   4.240   1.210   3.183  1.6721 -0.1391 -0.5003
  762MOL0     H 2838   4.259   1.195   2.931  1.0704 -1.0037  0.3222
  762MOL0     H 2839   4.320   1.361   2.932 -1.7841 -1.3027 -0.5468
  762MOL0     H 2840   4.450   1.117   3.054 -4.6492 -0.0686 -0.3301
  762MOL0     H 2841   4.522   1.275   3.079  3.0219 -3.3010  1.3725
  762MOL0     H 2842   4.525   1.306   2.818 -2.3919 -0.9823 -0.3755
  762MOL0     H 2843   4.480   1.133   2.813  0.1764 -1.7635  1.8797
  762MOL0     H 2844   4.705   1.212   3.002  1.1500 -0.2642 -1.0236
  762MOL0     H 2845   4.686   1.073   2.903 -1.9894 -0.0470 -1.0313
  762MOL0     H 2846   4.772   1.353   2.800 -1.1737  0.5394 -1.1528
  762MOL0     H 2847   4.743   1.208   2.703  0.4056 -1.1229 -0.0602
  762MOL0     H 2848   4.944   1.193   2.929 -0.9031 -1.4007  0.5972
  762MOL0     H 2849   4.916   1.080   2.800  4.1569  1.0238 -0.9421
  762MOL0     H 2850   3.780   1.253   3.082  0.9638  0.5358  0.3256
  762MOL0     H 2851   3.585   1.350   2.960 -1.0741  3.3553 -1.4825
  762MOL0     H 2852   3.226   1.581   2.821 -0.0072  1.1729  0.4019
  762MOL0     H 2853   3.097   1.777   2.724  0.2795  3.3654 -0.9924
  762MOL0     H 2854   2.796   3.425   2.624 -2.9025  0.4888  0.4762
  762MOL0     H 2855   2.996   3.557   2.523  2.7575 -0.6588  1.1005
  762MOL0     H 2856   3.140   4.047   2.653  2.1676  2.5107  1.4886
  762MOL0     H 2857   3.287   4.217   2.585  3.6339 -0.8513 -1.1451
  762MOL0     H 2858   3.433   4.428   2.219  0.4517 -0.1997 -0.0167
  762MOL0     H 2859   3.322   4.313   2.157  1.5708  0.7945 -1.8030
  762MOL0     H 2860   3.508   4.121   2.191  0.1343 -0.5647 -0.0023
  762MOL0     H 2861   3.607   4.257   2.257 -1.7713  1.3359  1.6955
  762MOL0     H 2862   3.607   4.363   2.047 -1.6721  0.7975  0.2505
  762MOL0     H 2863   3.491   4.243   1.982  0.6757  0.1158 -0.6882
  762MOL0     H 2864   3.692   4.070   2.044  1.0312  0.2482  0.2540
  762MOL0     H 2865   3.712   4.176   1.901  2.2910  1.6496 -0.9041
  762MOL0     H 2866   4.015   4.294   2.192  0.9956  0.7243 -1.1097
  762MOL0     H 2867   3.282   4.088   2.185  0.3541  1.2139  0.6360
  762MOL0     H 2868   3.207   3.759   2.243 -1.0968  0.2394  4.0212
  762MOL0     H 2869   3.051   3.822   2.217 -0.4371 -0.4637  2.8306
  762MOL0     H 2870   3.184   3.884   2.113 -1.8908 -1.4003 -0.5525
  763MOL0     O 2871   2.879   9.389   6.018  0.5837 -0.3756 -0.2827
  763MOL0     C 2872   2.767   9.340   6.030 -0.1242 -0.5847 -0.5438
  763MOL0     O 2873   2.666   9.407   6.098  0.6029  0.0331 -0.1634
  763MOL0     C 2874   2.706   9.495   6.200 -0.3158 -0.0011 -0.3098
  763MOL0     C 2875   2.819   9.469   6.286  0.3116 -0.4954  0.2563
  763MOL0     C 2876   2.848   9.545   6.397  0.1677 -0.5531 -0.1117
  763MOL0     C 2877   2.767   9.656   6.431 -0.6568  0.0810 -0.1311
  763MOL0     O 2878   2.777   9.731   6.554  1.0367  0.6366  0.3913
  763MOL0     C 2879   2.899   9.731   6.613 -0.8921  0.4094 -0.9816
  763MOL0     C 2880   2.914   9.856   6.694  0.6065 -1.0890  0.3994
  763MOL0     C 2881   3.046   9.864   6.775 -0.8021  0.2147  0.5892
  763MOL0     C 2882   3.046   9.742   6.868  0.4406 -0.4680 -1.0704
  763MOL0     C 2883   3.153   9.745   6.972  0.3451  0.5595  0.5400
  763MOL0     C 2884   3.175   9.606   7.026 -0.4218 -0.4201  0.0542
  763MOL0     C 2885   3.275   9.595   7.136  0.7615  0.6345 -0.0118
  763MOL0     C 2886   3.418   9.613   7.077  0.1083  0.4030 -0.0629
  763MOL0     N 2887   3.516   9.581   7.181  0.3109  0.6555  0.5435
  763MOL0     C 2888   3.547   9.657   7.293  0.7220  0.4329  0.5674
  763MOL0     C 2889   3.658   9.609   7.349  0.5375 -0.6399 -0.1877
  763MOL0     C 2890   3.717   9.650   7.487  0.0090 -0.9969 -0.3047
  763MOL0     C 2891   3.752   9.800   7.490  0.1190 -0.2032 -0.2226
  763MOL0     C 2892   3.844   9.856   7.385 -0.4465 -1.1709 -0.0208
  763MOL0     C 2893   3.976   9.774   7.357 -0.1410  0.5702 -0.6902
  763MOL0     O 2894   4.042   9.751   7.488 -0.1560 -0.9314  0.1441
  763MOL0     C 2895   4.168   9.700   7.496  1.2645  0.4791  0.6109
  763MOL0     C 2896   4.228   9.634   7.389 -0.2228 -0.6767 -0.6284
  763MOL0     C 2897   4.344   9.561   7.412  0.1189  0.1152  0.7304
  763MOL0     C 2898   4.414   9.574   7.538  0.0345 -0.0705 -0.4619
  763MOL0     C 2899   4.542   9.507   7.551  0.2880 -0.9388 -0.2689
  763MOL0     O 2900   4.618   9.551   7.657  0.3430 -0.7076  0.1919
  763MOL0     C 2901   4.752   9.559   7.647  0.7337  0.1635  1.0082
  763MOL0     C 2902   4.824   9.601   7.528  0.9856  0.6526 -0.2512
  763MOL0     C 2903   4.960   9.622   7.531  0.6164 -0.9746 -0.2662
  763MOL0     C 2904   5.032   9.592   7.644 -0.0724  0.1920 -0.2812
  763MOL0     O 2905   5.167   9.594   7.620 -0.4209  0.0356 -0.0543
  763MOL0     C 2906   5.255   9.629   7.723 -0.8796  0.0518 -0.7712
  763MOL0     C 2907   5.393   9.662   7.671  0.0636  0.2173  0.2304
  763MOL0     C 2908   5.518   9.637   7.758 -0.2423  0.2202  0.2978
  763MOL0     C 2909   5.632   9.691   7.670 -0.4758  0.3477  0.1254
  763MOL0     C 2910   5.777   9.674   7.733 -0.9299  0.3620  0.0741
  763MOL0     C 2911   5.814   9.791   7.820 -0.1840  0.1410 -0.2918
  763MOL0     C 2912   5.954   9.768   7.879 -0.5318 -0.4970  0.5774
  763MOL0     C 2913   5.978   9.868   7.993 -0.1432 -0.1972 -0.3303
  763MOL0    Cl 2914   6.004  10.037   7.934  0.0754 -0.3212 -0.2779
  763MOL0     C 2915   4.974   9.542   7.760  0.0172  0.5798 -0.7241
  763MOL0     C 2916   4.832   9.527   7.756 -0.1569  0.8390  0.7731
  763MOL0     O 2917   4.579   9.433   7.468  0.6795 -0.2229  1.1767
  763MOL0     C 2918   4.351   9.647   7.642 -0.9008 -0.0009  0.4801
  763MOL0     C 2919   4.235   9.713   7.613  0.3749  0.0533  0.2933
  763MOL0     N 2920   3.698   9.514   7.264  0.7226  0.2329  0.3865
  763MOL0     N 2921   3.612   9.493   7.168 -0.2972 -0.8389  0.0387
  763MOL0     C 2922   2.661   9.685   6.349 -0.1396  1.0780  0.4149
  763MOL0     C 2923   2.629   9.611   6.230 -0.7350 -0.0716  0.2517
  763MOL0     C 2924   2.735   9.207   5.978  0.6043 -0.3231 -0.6841
  763MOL0     C 2925   2.618   9.145   6.022  0.2616  1.1706 -0.2794
  763MOL0     C 2926   2.568   9.023   5.971 -0.2184  0.0621  0.5416
  763MOL0     C 2927   2.649   8.945   5.888 -0.7372  0.0347  0.4448
  763MOL0     O 2928   2.619   8.826   5.825 -0.2324 -0.6931  0.4481
  763MOL0     C 2929   2.482   8.783   5.814  0.3837 -0.1370 -0.1047
  763MOL0     C 2930   2.447   8.709   5.943  0.8794 -0.1063  0.0850
  763MOL0     C 2931   2.310   8.640   5.946  0.1144 -0.5047 -0.6727
  763MOL0     C 2932   2.187   8.723   5.931 -0.5431  0.0852 -0.3678
  763MOL0     C 2933   2.162   8.824   6.048 -0.8942 -0.2241 -0.5129
  763MOL0     C 2934   2.133   8.899   6.145 -0.4332  0.3472  0.2269
  763MOL0     C 2935   2.773   8.999   5.850  0.0101 -0.5171  0.4696
  763MOL0     C 2936   2.817   9.132   5.891  0.7356 -0.3230  0.2291
  763MOL0     C 2937   2.942   9.184   5.827 -0.2785 -0.4345 -0.3464
  763MOL0     H 2938   2.881   9.381   6.273  0.6171 -0.3085  0.4085
  763MOL0     H 2939   2.922   9.512   6.470  1.4036 -2.5917 -2.1742
  763MOL0     H 2940   2.914   9.645   6.680  2.1409  1.3533 -0.2600
  763MOL0     H 2941   2.973   9.732   6.531 -1.9615  0.5002 -1.9709
  763MOL0     H 2942   2.832   9.872   6.764  1.9496  1.6880  1.4914
  763MOL0     H 2943   2.910   9.943   6.628 -1.2276  0.3823  2.3041
  763MOL0     H 2944   3.046   9.959   6.830 -1.2180  1.5409 -1.5590
  763MOL0     H 2945   3.130   9.861   6.705 -0.6706  0.1452  0.7497
  763MOL0     H 2946   2.950   9.738   6.920  1.3826 -0.9967  0.7144
  763MOL0     H 2947   3.060   9.649   6.813  1.9832 -1.2220  0.4800
  763MOL0     H 2948   3.250   9.774   6.930  0.5343 -2.3829 -1.3798
  763MOL0     H 2949   3.126   9.824   7.043 -1.7431  1.5315 -1.2314
  763MOL0     H 2950   3.080   9.573   7.069 -2.0718  3.5381 -0.0835
  763MOL0     H 2951   3.208   9.545   6.941  0.7273  1.4915 -0.9357
  763MOL0     H 2952   3.279   9.498   7.186  1.1641  0.7594  0.2008
  763MOL0     H 2953   3.247   9.664   7.216 -1.4529 -1.9118  1.5867
  763MOL0     H 2954   3.437   9.559   6.983  1.8337 -0.1011  0.5391
  763MOL0     H 2955   3.427   9.720   7.056 -2.7176  0.4788 -1.3259
  763MOL0     H 2956   3.495   9.738   7.343  0.1408 -1.3097  2.9536
  763MOL0     H 2957   3.638   9.631   7.561  0.3953 -1.7483 -0.0756
  763MOL0     H 2958   3.794   9.579   7.517 -0.8154 -2.9133 -2.4443
  763MOL0     H 2959   3.659   9.857   7.493 -0.4975 -1.1864 -0.0982
  763MOL0     H 2960   3.798   9.815   7.588  1.4621  1.4875 -1.0561
  763MOL0     H 2961   3.869   9.961   7.404 -4.9781  0.2037 -0.4821
  763MOL0     H 2962   3.780   9.855   7.296 -0.0573 -0.8832 -0.3042
  763MOL0     H 2963   4.044   9.828   7.291 -3.0564  1.1445 -3.5030
  763MOL0     H 2964   3.957   9.676   7.313 -0.8640  0.5156 -0.2738
  763MOL0     H 2965   4.190   9.620   7.288  2.5053 -1.3475 -1.6678
  763MOL0     H 2966   4.392   9.520   7.324 -2.8582  2.8459 -2.4555
  763MOL0     H 2967   4.765   9.626   7.441 -2.8233  1.1196  2.2186
  763MOL0     H 2968   5.004   9.650   7.436 -0.0970 -1.5210 -0.7761
  763MOL0     H 2969   5.211   9.710   7.783  2.1987  0.7460  0.7841
  763MOL0     H 2970   5.253   9.540   7.786 -0.4376  0.0136 -0.8082
  763MOL0     H 2971   5.410   9.601   7.582  1.2706 -0.4253  0.8776
  763MOL0     H 2972   5.391   9.765   7.634 -0.7223  0.6125  1.2977
  763MOL0     H 2973   5.513   9.697   7.850  2.1891  2.7778 -1.0837
  763MOL0     H 2974   5.533   9.532   7.782  1.4322  0.6347  1.2527
  763MOL0     H 2975   5.608   9.796   7.652  1.6441  0.4443 -2.9490
  763MOL0     H 2976   5.627   9.639   7.574  1.2212 -2.3492  1.3735
  763MOL0     H 2977   5.851   9.669   7.652  2.0401 -1.6172  2.6454
  763MOL0     H 2978   5.792   9.584   7.793  1.6005 -0.0863 -1.0697
  763MOL0     H 2979   5.801   9.880   7.758 -4.1428  0.3502  0.5559
  763MOL0     H 2980   5.744   9.788   7.904 -0.9851 -1.8054 -0.9743
  763MOL0     H 2981   6.036   9.785   7.808  1.3961  2.4111  3.2600
  763MOL0     H 2982   5.958   9.669   7.924  1.6929  0.1958  2.0380
  763MOL0     H 2983   5.896   9.870   8.065  1.5267  1.2619  1.6641
  763MOL0     H 2984   6.072   9.849   8.047  0.8729  2.6105 -0.9393
  763MOL0     H 2985   5.026   9.520   7.853 -0.3764 -0.2115 -0.6864
  763MOL0     H 2986   4.783   9.491   7.846 -1.2650 -1.2142 -0.5758
  763MOL0     H 2987   4.405   9.668   7.734  2.9959  0.4593 -1.6988
  763MOL0     H 2988   4.189   9.762   7.699  3.2040  1.6744  1.0226
  763MOL0     H 2989   2.592   9.762   6.380 -0.1270  0.5282  1.8552
  763MOL0     H 2990   2.538   9.630   6.175 -1.4309 -0.7519  1.1325
  763MOL0     H 2991   2.562   9.198   6.100 -2.3533  0.4134 -1.5251
  763MOL0     H 2992   2.467   8.990   5.994 -0.3865  0.2754  0.1080
  763MOL0     H 2993   2.463   8.719   5.728  0.4247  1.1102 -1.0712
  763MOL0     H 2994   2.414   8.868   5.802 -0.1233 -0.5343 -0.0718
  763MOL0     H 2995   2.443   8.785   6.022 -3.4881  1.2408 -1.1463
  763MOL0     H 2996   2.518   8.630   5.970  1.7881  0.7686  0.3035
  763MOL0     H 2997   2.296   8.596   6.045 -1.9306 -1.5068 -1.3343
  763MOL0     H 2998   2.310   8.556   5.876  2.4777 -0.0137 -1.3631
  763MOL0     H 2999   2.204   8.787   5.843  1.1504  3.6059  2.2746
  763MOL0     H 3000   2.095   8.665   5.923  0.0618 -0.8266 -0.9905
  763MOL0     H 3001   2.110   8.965   6.226  0.5564 -0.0405  0.8290
  763MOL0     H 3002   2.835   8.948   5.778  1.3413 -0.8508  1.8024
  763MOL0     H 3003   2.931   9.286   5.789 -1.1927 -0.9078 -1.3927
  763MOL0     H 3004   3.028   9.201   5.893  3.1230 -0.3695 -4.3911
  763MOL0     H 3005   2.970   9.123   5.740  0.1409 -1.5043  0.5098
  764MOL0     O 3006   6.316   6.005   1.055  0.0230  0.3961  0.6218
  764MOL0     C 3007   6.285   6.117   1.082  0.2654  0.6144 -1.3939
  764MOL0     O 3008   6.365   6.227   1.056  0.3122 -0.2072  0.8057
  764MOL0     C 3009   6.493   6.220   1.004  0.0866  0.3148 -0.0953
  764MOL0     C 3010   6.585   6.124   1.029 -0.1469 -0.5652  0.2009
  764MOL0     C 3011   6.709   6.128   0.958 -0.5364  0.4851  0.0284
  764MOL0     C 3012   6.738   6.230   0.867 -0.7967  0.3848 -0.2524
  764MOL0     O 3013   6.849   6.212   0.784  0.6243  0.0916 -0.3908
  764MOL0     C 3014   6.933   6.325   0.761 -0.1927 -0.7496  1.1063
  764MOL0     C 3015   7.035   6.278   0.651  0.4840 -0.3902  0.2045
  764MOL0     C 3016   7.141   6.387   0.615 -0.2331  0.2191 -0.0362
  764MOL0     C 3017   7.233   6.340   0.505  0.7094 -0.2017 -0.8518
  764MOL0     C 3018   7.334   6.445   0.462 -0.1833  0.4522 -0.0114
  764MOL0     C 3019   7.447   6.394   0.362  0.1063  0.3895 -0.0975
  764MOL0     C 3020   7.516   6.266   0.414  1.1454 -0.1592  0.0411
  764MOL0     C 3021   7.571   6.287   0.559  0.3247 -1.1121 -0.7559
  764MOL0     N 3022   7.685   6.389   0.548  0.3903 -0.0412 -0.1541
  764MOL0     C 3023   7.817   6.372   0.518  1.0262 -0.8468 -0.2879
  764MOL0     C 3024   7.850   6.498   0.480  0.6696 -0.0674  0.2428
  764MOL0     C 3025   7.982   6.525   0.403  0.3795  0.0656 -0.0056
  764MOL0     C 3026   8.099   6.561   0.499 -0.3089  0.1774  0.6455
  764MOL0     C 3027   8.222   6.610   0.415  0.4595  0.1129 -0.7403
  764MOL0     C 3028   8.323   6.675   0.509  0.0469  0.1690  0.3934
  764MOL0     O 3029   8.419   6.749   0.435 -0.0132  0.5877 -0.0610
  764MOL0     C 3030   8.531   6.789   0.496  0.0062  0.1586  0.6950
  764MOL0     C 3031   8.628   6.850   0.413 -0.3810  0.8216 -0.3634
  764MOL0     C 3032   8.752   6.886   0.472  0.7920 -0.1982 -1.0329
  764MOL0     C 3033   8.775   6.882   0.607  0.2930 -0.2431 -0.1229
  764MOL0     C 3034   8.909   6.923   0.646  0.5702  0.6458 -1.3974
  764MOL0     O 3035   8.991   6.955   0.549  0.4155 -0.3936 -0.6651
  764MOL0     C 3036   9.120   7.005   0.572  0.1266  0.3759  0.0567
  764MOL0     C 3037   9.146   7.113   0.658 -0.7878 -0.1863 -0.1776
  764MOL0     C 3038   9.276   7.173   0.649  0.6125  0.5958  0.4537
  764MOL0     C 3039   9.367   7.133   0.545  0.0414 -0.3301  0.2153
  764MOL0     O 3040   9.496   7.178   0.537  0.4106 -0.1849  0.3291
  764MOL0     C 3041   9.521   7.292   0.619 -0.0194  0.1182  0.7382
  764MOL0     C 3042   9.666   7.327   0.577 -0.2459 -0.0382 -0.4716
  764MOL0     C 3043   9.711   7.451   0.660 -0.0249  0.1432  0.8177
  764MOL0     C 3044   9.866   7.472   0.650  0.2610  0.4802  0.3705
  764MOL0     C 3045   9.927   7.514   0.514  0.3211  0.3935 -0.6445
  764MOL0     C 3046   9.908   7.663   0.487  0.7263 -0.2133  0.6410
  764MOL0     C 3047   9.970   7.706   0.353 -0.0011 -0.0504 -0.1325
  764MOL0     C 3048   9.880   7.669   0.231 -0.0337  0.2697 -1.1034
  764MOL0    Cl 3049   9.981   7.723   0.084 -0.4490  0.3436 -0.2863
  764MOL0     C 3050   9.329   7.035   0.458  0.2189 -0.0940  0.6571
  764MOL0     C 3051   9.212   6.964   0.478  0.1246  0.0955 -1.2623
  764MOL0     O 3052   8.938   6.920   0.768 -0.4833 -0.2591  0.2293
  764MOL0     C 3053   8.684   6.827   0.691  0.4253 -0.5666  0.2109
  764MOL0     C 3054   8.561   6.783   0.635  0.2633 -0.3549  0.2765
  764MOL0     N 3055   7.746   6.596   0.512 -0.6828  0.7281  0.2073
  764MOL0     N 3056   7.649   6.520   0.559  0.4552 -0.6827 -0.3555
  764MOL0     C 3057   6.646   6.336   0.851  0.2074 -0.1448 -0.1885
  764MOL0     C 3058   6.518   6.323   0.916 -1.2146 -0.9181 -0.3889
  764MOL0     C 3059   6.151   6.138   1.146  0.4986 -0.1287  0.6411
  764MOL0     C 3060   6.114   6.276   1.141 -0.0037  0.1545  0.3650
  764MOL0     C 3061   5.992   6.320   1.179  0.2783 -0.4914  0.2251
  764MOL0     C 3062   5.904   6.237   1.233 -0.0475  0.6722  0.1399
  764MOL0     O 3063   5.787   6.293   1.266 -0.0851 -0.0517  0.3862
  764MOL0     C 3064   5.703   6.220   1.356 -0.2967  0.3580 -0.4916
  764MOL0     C 3065   5.595   6.133   1.294  0.7552  0.6034 -0.2763
  764MOL0     C 3066   5.498   6.228   1.208 -0.0000  0.5153 -0.4327
  764MOL0     C 3067   5.545   6.262   1.062 -0.0788 -0.1491  0.6022
  764MOL0     C 3068   5.449   6.344   0.986 -0.3211 -0.3410  0.5549
  764MOL0     C 3069   5.359   6.420   0.938 -0.5603  0.4297 -1.0048
  764MOL0     C 3070   5.926   6.099   1.240  0.2633 -0.7772 -0.2259
  764MOL0     C 3071   6.050   6.043   1.193  0.2560  0.2982 -0.3677
  764MOL0     C 3072   6.075   5.890   1.208  0.5459 -1.0158 -0.4378
  764MOL0     H 3073   6.554   6.035   1.084 -2.5625  1.1961  1.9264
  764MOL0     H 3074   6.773   6.042   0.972  1.3134  2.2387  3.7832
  764MOL0     H 3075   6.867   6.409   0.736  0.4380 -1.1023 -2.2049
  764MOL0     H 3076   6.987   6.341   0.855 -1.7521 -0.7621  2.0555
  764MOL0     H 3077   6.980   6.263   0.558  2.4061 -1.7052 -0.8053
  764MOL0     H 3078   7.082   6.181   0.672  0.8595 -0.0471  0.9725
  764MOL0     H 3079   7.200   6.410   0.705 -0.2310  0.1198 -0.0121
  764MOL0     H 3080   7.095   6.478   0.577 -1.4056 -0.5250 -0.4402
  764MOL0     H 3081   7.277   6.244   0.534  0.3223  0.0567  0.7380
  764MOL0     H 3082   7.171   6.321   0.417  0.9684 -3.0287 -0.5144
  764MOL0     H 3083   7.285   6.525   0.405 -0.6034 -0.0637 -0.3717
  764MOL0     H 3084   7.390   6.484   0.548 -1.1692 -3.4086  2.6461
  764MOL0     H 3085   7.400   6.385   0.263 -0.5987  0.6211  0.2126
  764MOL0     H 3086   7.529   6.466   0.349  0.0945  0.1358 -1.8604
  764MOL0     H 3087   7.602   6.243   0.350 -0.1265  0.0240 -1.8201
  764MOL0     H 3088   7.448   6.180   0.408 -0.1837  0.9605 -2.0641
  764MOL0     H 3089   7.496   6.305   0.637 -1.2310  1.2321 -2.6317
  764MOL0     H 3090   7.611   6.190   0.591 -1.6939 -1.3828  1.2353
  764MOL0     H 3091   7.861   6.274   0.501  0.8999 -0.8025 -0.9075
  764MOL0     H 3092   8.020   6.443   0.340  3.1104  1.3682 -0.2352
  764MOL0     H 3093   7.965   6.604   0.328 -1.9423 -0.9575 -0.6361
  764MOL0     H 3094   8.070   6.640   0.569  2.6650  3.3593 -1.3365
  764MOL0     H 3095   8.135   6.481   0.564 -2.9748 -3.6932 -2.2057
  764MOL0     H 3096   8.187   6.691   0.350 -3.3928 -1.4249 -0.8621
  764MOL0     H 3097   8.267   6.532   0.352  0.6265 -0.4508  0.0560
  764MOL0     H 3098   8.368   6.592   0.566  0.0187 -0.9247 -1.1114
  764MOL0     H 3099   8.264   6.737   0.577 -1.3189 -0.4410 -0.1936
  764MOL0     H 3100   8.615   6.842   0.306  1.1095 -2.9039 -0.3983
  764MOL0     H 3101   8.821   6.941   0.409  1.0790  0.4448 -0.1632
  764MOL0     H 3102   9.059   7.141   0.717 -0.6451 -1.4922  0.6835
  764MOL0     H 3103   9.289   7.250   0.724 -0.2376 -0.2259  1.4706
  764MOL0     H 3104   9.444   7.369   0.605 -1.0617 -0.8990  0.7647
  764MOL0     H 3105   9.527   7.257   0.723  0.0245  2.8928  1.7720
  764MOL0     H 3106   9.728   7.238   0.590 -2.6977 -2.3801 -3.1684
  764MOL0     H 3107   9.666   7.354   0.471  2.5549  2.2606 -0.0202
  764MOL0     H 3108   9.644   7.530   0.626 -3.6434 -2.0104  2.3925
  764MOL0     H 3109   9.684   7.429   0.764 -0.7989 -0.9068  0.4140
  764MOL0     H 3110   9.910   7.373   0.662 -0.0202  0.1431 -1.1567
  764MOL0     H 3111   9.903   7.545   0.722  3.7615  1.7906 -2.4435
  764MOL0     H 3112   9.881   7.462   0.430 -0.1786  0.5554 -0.4703
  764MOL0     H 3113  10.034   7.491   0.516  0.8227  2.3180 -1.6953
  764MOL0     H 3114   9.801   7.684   0.476  0.5429 -1.1412  0.5937
  764MOL0     H 3115   9.949   7.728   0.565 -2.0323  0.9529  1.2562
  764MOL0     H 3116  10.072   7.673   0.330  0.6132  1.2375  0.6235
  764MOL0     H 3117   9.975   7.815   0.345  1.1066  0.0672  1.6253
  764MOL0     H 3118   9.873   7.560   0.225  0.1072  0.1756  0.1553
  764MOL0     H 3119   9.777   7.706   0.227  0.6055  2.9458  2.0859
  764MOL0     H 3120   9.402   7.025   0.378  1.7291 -1.1654  2.1065
  764MOL0     H 3121   9.185   6.879   0.415 -0.5769  0.3018 -1.2513
  764MOL0     H 3122   8.696   6.813   0.798  0.2248 -1.2524  0.1486
  764MOL0     H 3123   8.492   6.741   0.707 -2.0160  0.3740 -1.3653
  764MOL0     H 3124   6.643   6.413   0.775 -1.5397  0.5853  0.5564
  764MOL0     H 3125   6.433   6.383   0.888 -1.7872 -1.8883 -0.7570
  764MOL0     H 3126   6.183   6.351   1.104 -2.2059  1.4227 -1.3834
  764MOL0     H 3127   5.973   6.427   1.178  1.2323 -0.3034  1.4014
  764MOL0     H 3128   5.652   6.289   1.424  1.0540 -0.1410  1.1043
  764MOL0     H 3129   5.759   6.151   1.420  1.0182  1.5116 -0.3427
  764MOL0     H 3130   5.543   6.078   1.372  1.1076 -1.6380 -1.5154
  764MOL0     H 3131   5.633   6.049   1.235  0.1262  1.4406 -1.9339
  764MOL0     H 3132   5.482   6.324   1.259  1.0410  0.9326 -0.8710
  764MOL0     H 3133   5.400   6.180   1.213  1.0311 -1.6095  1.4240
  764MOL0     H 3134   5.638   6.319   1.068  0.4063 -0.5684 -1.7938
  764MOL0     H 3135   5.568   6.166   1.013 -1.7723 -0.9693  1.3272
  764MOL0     H 3136   5.269   6.473   0.917 -1.0883  0.5639  1.3769
  764MOL0     H 3137   5.851   6.032   1.281 -0.5884  1.6966  2.6051
  764MOL0     H 3138   5.983   5.830   1.208 -1.0114  1.2584 -1.4614
  764MOL0     H 3139   6.129   5.857   1.119  1.0308 -0.1296 -0.4776
  764MOL0     H 3140   6.140   5.876   1.295  1.7464  1.6590 -0.8284
  765MOL0     O 3141   2.495   1.764   6.173  0.1900  0.0555 -0.3811
  765MOL0     C 3142   2.503   1.832   6.071  0.5077  0.1329  0.8844
  765MOL0     O 3143   2.615   1.837   5.993 -0.1962 -0.0298  0.5215
  765MOL0     C 3144   2.725   1.752   6.009  0.4728 -0.2440 -0.0420
  765MOL0     C 3145   2.719   1.616   6.040  0.3365 -0.7811  0.2769
  765MOL0     C 3146   2.825   1.525   6.039  1.0018 -0.5127 -0.3956
  765MOL0     C 3147   2.950   1.574   6.002 -0.0981  0.3463  0.4297
  765MOL0     O 3148   3.061   1.500   5.993 -1.0937  0.2100 -0.5006
  765MOL0     C 3149   3.091   1.415   6.107 -0.4532  0.1450 -0.1973
  765MOL0     C 3150   3.226   1.356   6.086 -0.0822  0.0869  0.4314
  765MOL0     C 3151   3.346   1.451   6.057 -0.2265  0.0974 -0.0508
  765MOL0     C 3152   3.385   1.468   5.911 -0.0203 -0.0633  0.4061
  765MOL0     C 3153   3.496   1.577   5.891 -0.1164  0.9141  0.0417
  765MOL0     C 3154   3.551   1.583   5.748 -0.1325 -0.4643 -0.4703
  765MOL0     C 3155   3.616   1.454   5.691  0.3230  0.3498  0.2633
  765MOL0     C 3156   3.681   1.464   5.555 -0.6709  0.1826 -0.3326
  765MOL0     N 3157   3.721   1.327   5.509  0.3637  0.9808 -0.3917
  765MOL0     C 3158   3.826   1.255   5.551 -0.1429 -0.8922  0.3350
  765MOL0     C 3159   3.843   1.167   5.445 -0.3885 -0.2793 -1.1258
  765MOL0     C 3160   3.949   1.063   5.430 -0.4048 -0.1275  0.2991
  765MOL0     C 3161   3.904   0.939   5.519 -0.4614 -0.8750  1.0336
  765MOL0     C 3162   3.883   0.966   5.669  0.8879 -0.5786  0.2315
  765MOL0     C 3163   3.862   0.850   5.753 -1.2137 -0.0478 -0.8293
  765MOL0     O 3164   3.899   0.860   5.893 -0.2526  0.1709  0.3767
  765MOL0     C 3165   4.027   0.850   5.934 -0.3598 -0.2061 -0.6612
  765MOL0     C 3166   4.060   0.848   6.074 -0.0546 -0.5413 -0.3834
  765MOL0     C 3167   4.187   0.829   6.123 -0.6635 -1.4675  1.2051
  765MOL0     C 3168   4.290   0.812   6.026 -0.5203  0.2334  0.6656
  765MOL0     C 3169   4.426   0.793   6.087  0.6040  0.6973 -0.2780
  765MOL0     O 3170   4.441   0.742   6.217 -0.1056 -0.3425  0.8587
  765MOL0     C 3171   4.570   0.709   6.254  0.2769  0.2915  0.1755
  765MOL0     C 3172   4.648   0.818   6.298  0.7004  0.5218 -0.3849
  765MOL0     C 3173   4.780   0.795   6.331 -1.0994 -0.2311  0.1741
  765MOL0     C 3174   4.839   0.669   6.327  0.3102 -0.0438  0.2256
  765MOL0     O 3175   4.968   0.656   6.368 -0.6518 -0.2116 -0.0593
  765MOL0     C 3176   5.039   0.540   6.327  0.0572  0.0824 -0.5456
  765MOL0     C 3177   5.167   0.550   6.400  0.4017  0.0034  0.3193
  765MOL0     C 3178   5.263   0.427   6.373 -0.3215  0.6791 -0.6178
  765MOL0     C 3179   5.401   0.480   6.393  1.1752  0.0996  0.6130
  765MOL0     C 3180   5.498   0.378   6.348 -0.5190  0.0029 -0.4609
  765MOL0     C 3181   5.638   0.425   6.336 -0.5395  0.3789  0.6057
  765MOL0     C 3182   5.668   0.512   6.213 -0.3426 -0.3437 -0.6639
  765MOL0     C 3183   5.818   0.505   6.182  0.6884  0.5294  0.4685
  765MOL0    Cl 3184   5.866   0.332   6.144 -0.1090 -0.2981 -0.0117
  765MOL0     C 3185   4.759   0.558   6.288  0.1596 -0.3167 -0.2089
  765MOL0     C 3186   4.622   0.575   6.253 -0.4014  0.2065  0.4667
  765MOL0     O 3187   4.526   0.803   6.012  0.6367  0.4047 -0.2924
  765MOL0     C 3188   4.267   0.825   5.889  0.4205 -0.8391  1.1151
  765MOL0     C 3189   4.139   0.844   5.848 -0.4139  1.0343  1.0502
  765MOL0     N 3190   3.750   1.184   5.354  0.9547  0.0634  0.1993
  765MOL0     N 3191   3.678   1.280   5.391 -0.1388  0.0080  0.8595
  765MOL0     C 3192   2.965   1.710   5.969  0.2139  0.1275 -0.0166
  765MOL0     C 3193   2.850   1.799   5.972  0.7880 -0.0198  0.4840
  765MOL0     C 3194   2.391   1.914   6.024  0.2865 -0.1454 -0.4776
  765MOL0     C 3195   2.403   1.968   5.896 -0.8682  0.0415 -0.2981
  765MOL0     C 3196   2.300   2.039   5.835 -0.3984 -0.0125  0.6917
  765MOL0     C 3197   2.187   2.067   5.904  0.3553  0.5910  0.6391
  765MOL0     O 3198   2.084   2.128   5.838 -0.3226  0.1529 -0.2571
  765MOL0     C 3199   1.954   2.143   5.907  0.2487 -0.2750  0.2920
  765MOL0     C 3200   1.848   2.193   5.800 -0.0729  1.2050 -1.1279
  765MOL0     C 3201   1.816   2.072   5.710 -0.4262  0.4771  0.0894
  765MOL0     C 3202   1.761   2.127   5.575  0.5045  0.0315  0.2329
  765MOL0     C 3203   1.653   2.222   5.583  0.1608 -0.8532 -0.0959
  765MOL0     C 3204   1.561   2.302   5.563 -0.3654  0.2869  0.2905
  765MOL0     C 3205   2.178   2.022   6.035  0.1958  0.5181 -0.4079
  765MOL0     C 3206   2.276   1.948   6.101 -0.3483 -0.3890  0.1726
  765MOL0     C 3207   2.235   1.898   6.247  0.4370  0.2017 -0.5559
  765MOL0     H 3208   2.618   1.581   6.062  0.3701  0.6120  3.0819
  765MOL0     H 3209   2.809   1.420   6.058 -0.6814 -0.4463 -1.2314
  765MOL0     H 3210   3.094   1.461   6.207 -0.5615 -0.8886  0.3006
  765MOL0     H 3211   3.011   1.341   6.108  0.2620 -0.7109 -2.0960
  765MOL0     H 3212   3.218   1.291   5.997 -0.2430  1.3973 -0.5361
  765MOL0     H 3213   3.258   1.282   6.160 -2.1739 -1.2170  0.1283
  765MOL0     H 3214   3.425   1.419   6.125  0.3853 -0.2580 -0.9022
  765MOL0     H 3215   3.318   1.549   6.097 -1.3098 -0.8621  1.6493
  765MOL0     H 3216   3.427   1.378   5.865 -0.2499  0.8630 -1.7346
  765MOL0     H 3217   3.298   1.488   5.849 -1.5633 -0.7578  2.2495
  765MOL0     H 3218   3.447   1.670   5.920  1.6470  1.8094  0.2287
  765MOL0     H 3219   3.577   1.558   5.961  1.1939  4.3214 -0.3745
  765MOL0     H 3220   3.468   1.610   5.682  0.6921 -0.1724 -1.4279
  765MOL0     H 3221   3.618   1.669   5.743 -0.3312 -0.2780  0.0324
  765MOL0     H 3222   3.549   1.370   5.670  1.2355 -0.3534  0.0926
  765MOL0     H 3223   3.693   1.425   5.763 -0.8473 -1.6692  0.7608
  765MOL0     H 3224   3.613   1.500   5.477 -0.1397 -2.1963 -2.0085
  765MOL0     H 3225   3.769   1.528   5.557 -0.8155  0.3865 -0.5411
  765MOL0     H 3226   3.891   1.270   5.637  3.7416  1.0100 -2.6257
  765MOL0     H 3227   3.966   1.035   5.326 -0.9305 -1.0515  0.4521
  765MOL0     H 3228   4.045   1.097   5.470 -1.1455  0.3371  1.7685
  765MOL0     H 3229   3.808   0.904   5.483  0.2278 -1.1868 -0.5707
  765MOL0     H 3230   3.980   0.862   5.508  0.9812  0.6324 -0.1137
  765MOL0     H 3231   3.790   1.024   5.677 -1.1862 -3.5317 -0.5800
  765MOL0     H 3232   3.973   1.011   5.712  0.2597  1.5141 -0.5028
  765MOL0     H 3233   3.911   0.763   5.707  1.3626 -0.1661  1.8358
  765MOL0     H 3234   3.755   0.833   5.747 -1.0488 -2.1090  0.6810
  765MOL0     H 3235   3.981   0.857   6.148 -0.4156  3.1315 -1.0068
  765MOL0     H 3236   4.206   0.830   6.230 -0.2216 -4.2041  1.2226
  765MOL0     H 3237   4.619   0.923   6.306  2.7686  0.9915  2.6534
  765MOL0     H 3238   4.842   0.876   6.369 -2.2655 -0.0445  1.7767
  765MOL0     H 3239   4.986   0.448   6.352  0.4650 -0.1701 -0.5941
  765MOL0     H 3240   5.070   0.532   6.222 -0.1939  0.3501 -0.6432
  765MOL0     H 3241   5.221   0.641   6.373 -0.5192  0.6475  0.5706
  765MOL0     H 3242   5.144   0.549   6.507  1.8546 -0.7409  0.6530
  765MOL0     H 3243   5.258   0.353   6.454 -0.0797  0.8835 -0.4144
  765MOL0     H 3244   5.240   0.379   6.278 -0.2381  0.0518 -0.3296
  765MOL0     H 3245   5.414   0.508   6.498  0.9258 -0.2198  0.7310
  765MOL0     H 3246   5.413   0.568   6.329 -0.7001  0.6825  0.9879
  765MOL0     H 3247   5.473   0.318   6.260 -0.6759 -2.3469  1.1176
  765MOL0     H 3248   5.495   0.308   6.432 -0.2104  2.4625  1.7312
  765MOL0     H 3249   5.660   0.488   6.423  0.1926  1.8909 -0.6237
  765MOL0     H 3250   5.706   0.340   6.338 -0.7950 -0.1042 -3.3791
  765MOL0     H 3251   5.646   0.615   6.242  0.9516 -0.0453 -0.6744
  765MOL0     H 3252   5.605   0.482   6.129 -3.2894  2.2388  0.4613
  765MOL0     H 3253   5.855   0.571   6.103  2.3707 -1.8636 -0.8849
  765MOL0     H 3254   5.863   0.548   6.272 -1.4843  2.0632  0.8957
  765MOL0     H 3255   4.782   0.452   6.298 -0.5668 -0.6292 -1.6219
  765MOL0     H 3256   4.560   0.490   6.224  0.6751 -0.4731  0.0863
  765MOL0     H 3257   4.350   0.821   5.820 -0.5580 -0.5656 -0.1026
  765MOL0     H 3258   4.125   0.847   5.740  1.3513 -0.6761  0.7194
  765MOL0     H 3259   3.059   1.749   5.931 -1.0047  0.9444 -2.4345
  765MOL0     H 3260   2.867   1.902   5.942  0.1008 -0.3176 -0.9839
  765MOL0     H 3261   2.497   1.963   5.842  1.5398 -2.6183  3.6409
  765MOL0     H 3262   2.302   2.075   5.732  1.2039  0.3625  0.8226
  765MOL0     H 3263   1.966   2.217   5.987 -2.3599 -1.2226  1.6938
  765MOL0     H 3264   1.912   2.058   5.961 -0.2295  0.8747  1.8036
  765MOL0     H 3265   1.896   2.270   5.739 -2.5707  3.2199 -0.7361
  765MOL0     H 3266   1.755   2.236   5.837  0.0448  0.9331 -0.5126
  765MOL0     H 3267   1.745   2.001   5.752  0.1238  0.1447  0.4738
  765MOL0     H 3268   1.906   2.012   5.693 -2.4797 -2.2460 -2.1643
  765MOL0     H 3269   1.834   2.177   5.510 -0.1223  0.3828 -0.2138
  765MOL0     H 3270   1.727   2.038   5.521  0.1824 -0.7139  1.6281
  765MOL0     H 3271   1.489   2.380   5.550 -0.5753 -0.0234 -0.4548
  765MOL0     H 3272   2.098   2.066   6.095  0.4525  0.9947 -0.4049
  765MOL0     H 3273   2.320   1.858   6.302  0.5325  1.3222  0.1430
  765MOL0     H 3274   2.190   1.982   6.301  1.4511 -0.3476  1.2201
  765MOL0     H 3275   2.160   1.819   6.240 -0.1899  0.7995 -0.6960
  766MOL0     O 3276   9.144   3.245  10.463 -0.5192  0.2983 -0.2693
  766MOL0     C 3277   9.106   3.222  10.352  0.5795  0.6771 -0.0697
  766MOL0     O 3278   9.189   3.200  10.244  0.1036 -0.3240 -0.2778
  766MOL0     C 3279   9.316   3.150  10.264  0.2826  0.5754  0.6104
  766MOL0     C 3280   9.332   3.012  10.230  0.5824 -0.1102  1.0994
  766MOL0     C 3281   9.455   2.949  10.244 -0.0441  0.0840  1.1716
  766MOL0     C 3282   9.567   3.028  10.278  1.0202 -0.9214  0.0585
  766MOL0     O 3283   9.684   2.963  10.296  0.2595  0.0180 -0.0375
  766MOL0     C 3284   9.818   3.016  10.269 -0.3043  0.5508  0.3928
  766MOL0     C 3285   9.903   2.901  10.322 -0.6518 -1.1285 -0.5107
  766MOL0     C 3286  10.048   2.922  10.294 -0.3542  0.0529 -0.2292
  766MOL0     C 3287  10.101   3.014  10.408  0.4766 -0.4048 -0.0226
  766MOL0     C 3288  10.243   3.054  10.377  0.3495  0.0937 -0.2443
  766MOL0     C 3289  10.314   3.117  10.492  0.3793 -1.0761  0.0455
  766MOL0     C 3290  10.465   3.119  10.487 -0.3475 -0.5621  0.4124
  766MOL0     C 3291  10.526   3.189  10.613 -0.0987 -0.1981  0.1129
  766MOL0     N 3292  10.670   3.204  10.598  0.4128  1.0079 -0.0870
  766MOL0     C 3293  10.756   3.102  10.604 -0.7096  0.6683  0.5953
  766MOL0     C 3294  10.874   3.158  10.621  0.0037  0.2609  1.0625
  766MOL0     C 3295  11.010   3.095  10.627 -0.0407  0.1524  0.1465
  766MOL0     C 3296  11.061   3.100  10.776  0.2903  0.3718  0.7779
  766MOL0     C 3297  11.073   3.237  10.833  0.0213 -0.2228  0.5253
  766MOL0     C 3298  11.140   3.225  10.970 -0.1327 -0.1738  0.1257
  766MOL0     O 3299  11.280   3.224  10.950 -0.0688  0.3332  0.4635
  766MOL0     C 3300  11.363   3.209  11.064 -0.2707  0.1602  0.3363
  766MOL0     C 3301  11.497   3.202  11.018  0.6671  0.0927 -0.4964
  766MOL0     C 3302  11.599   3.183  11.117  0.0275  0.2790  0.2539
  766MOL0     C 3303  11.577   3.161  11.251  0.3454 -0.0130  0.1337
  766MOL0     C 3304  11.692   3.150  11.342 -0.0811  0.7822  0.1362
  766MOL0     O 3305  11.814   3.148  11.284 -0.1330 -0.3619  0.3986
  766MOL0     C 3306  11.932   3.150  11.354  0.3082 -0.3107 -0.6275
  766MOL0     C 3307  11.988   3.040  11.415  0.2413 -0.3461 -0.0440
  766MOL0     C 3308  12.115   3.040  11.466  0.0257  0.1741 -0.7458
  766MOL0     C 3309  12.195   3.158  11.457  0.5156  0.2747  0.4534
  766MOL0     O 3310  12.321   3.148  11.509  0.0626  0.1431 -0.0041
  766MOL0     C 3311  12.418   3.240  11.451  0.4940  0.5752  0.7575
  766MOL0     C 3312  12.559   3.200  11.502  0.0236  0.1576  0.1276
  766MOL0     C 3313  12.593   3.273  11.635 -0.5005 -0.4071  0.6009
  766MOL0     C 3314  12.516   3.230  11.759  0.1486  0.0832  0.2187
  766MOL0     C 3315  12.561   3.286  11.889 -0.8921  0.1811  0.5363
  766MOL0     C 3316  12.514   3.431  11.912 -0.2608 -0.6843 -0.4253
  766MOL0     C 3317  12.602   3.539  11.856  0.2413  0.6877  0.8311
  766MOL0     C 3318  12.531   3.677  11.838 -0.8713 -0.8343 -0.2086
  766MOL0    Cl 3319  12.480   3.733  11.998 -0.3210 -0.3052  0.2685
  766MOL0     C 3320  12.139   3.268  11.400  0.4190  0.5482 -0.0619
  766MOL0     C 3321  12.016   3.261  11.341  0.0814 -0.2446  0.3929
  766MOL0     O 3322  11.665   3.149  11.466  0.0432 -0.1015  0.4778
  766MOL0     C 3323  11.442   3.171  11.294 -0.1511  0.3075 -0.2834
  766MOL0     C 3324  11.333   3.191  11.202 -0.4471  0.5860  0.3292
  766MOL0     N 3325  10.861   3.288  10.595  0.4541 -0.2685 -0.4180
  766MOL0     N 3326  10.734   3.320  10.591  0.4540  0.7804  0.5739
  766MOL0     C 3327   9.556   3.169  10.299  0.4017 -0.3812  0.1488
  766MOL0     C 3328   9.425   3.232  10.294 -0.5347 -0.4080  0.2770
  766MOL0     C 3329   8.961   3.231  10.317 -0.1318  0.0374 -0.3253
  766MOL0     C 3330   8.931   3.246  10.184 -0.7241  0.2158 -0.4545
  766MOL0     C 3331   8.802   3.268  10.141 -0.7867  0.5404  0.0291
  766MOL0     C 3332   8.705   3.290  10.236 -0.4281 -0.0676  0.2509
  766MOL0     O 3333   8.582   3.321  10.182 -0.3166  0.2830  1.1457
  766MOL0     C 3334   8.482   3.389  10.262 -0.3775  0.1410  0.0837
  766MOL0     C 3335   8.352   3.380  10.176  0.0783 -0.2777  0.2361
  766MOL0     C 3336   8.315   3.227  10.181 -0.9536 -0.1438  0.2983
  766MOL0     C 3337   8.214   3.200  10.070  0.4787 -0.1725 -1.0112
  766MOL0     C 3338   8.084   3.252  10.110  1.3482  0.2135 -0.4402
  766MOL0     C 3339   7.973   3.272  10.162  0.1070 -0.0169 -0.2656
  766MOL0     C 3340   8.734   3.280  10.372  0.0486 -0.6197  0.1844
  766MOL0     C 3341   8.861   3.248  10.420 -0.2746  0.2945  0.2796
  766MOL0     C 3342   8.882   3.222  10.568  1.1669  0.1331 -0.2002
  766MOL0     H 3343   9.243   2.956  10.206  1.1725 -1.0938  1.1482
  766MOL0     H 3344   9.469   2.841  10.237 -1.4866 -0.0790  0.1321
  766MOL0     H 3345   9.818   3.028  10.160 -0.8788 -1.6446  0.1027
  766MOL0     H 3346   9.839   3.108  10.325 -0.3085  0.0543  1.2243
  766MOL0     H 3347   9.882   2.811  10.265 -0.2499 -1.3020 -0.3909
  766MOL0     H 3348   9.878   2.880  10.427  3.0950  0.9079  1.0129
  766MOL0     H 3349  10.061   2.976  10.199  0.7106  0.6043  0.2212
  766MOL0     H 3350  10.103   2.829  10.282 -0.5194 -0.2291  1.0846
  766MOL0     H 3351  10.044   3.106  10.422 -0.8445 -1.4556  2.0045
  766MOL0     H 3352  10.093   2.956  10.501  0.6897 -1.0643 -0.4079
  766MOL0     H 3353  10.292   2.958  10.359 -3.8231 -2.2291 -0.5423
  766MOL0     H 3354  10.237   3.117  10.288  2.2273  1.7886  0.7601
  766MOL0     H 3355  10.273   3.214  10.519  0.6685 -1.6371  2.7802
  766MOL0     H 3356  10.283   3.052  10.574  0.0677  1.6217  2.1748
  766MOL0     H 3357  10.504   3.168  10.397  2.5762 -1.5758  1.0133
  766MOL0     H 3358  10.511   3.020  10.480 -0.9176 -0.7953 -0.1177
  766MOL0     H 3359  10.482   3.284  10.642 -1.7974 -0.5377 -1.1415
  766MOL0     H 3360  10.517   3.122  10.699  5.4693  0.0586  1.2715
  766MOL0     H 3361  10.748   2.994  10.614  1.9345  0.4152  0.7168
  766MOL0     H 3362  11.004   2.989  10.601 -1.4244 -0.3627  2.3290
  766MOL0     H 3363  11.072   3.142  10.550 -1.3691  1.1423 -0.3465
  766MOL0     H 3364  10.997   3.034  10.836  2.6710 -0.9378  2.0157
  766MOL0     H 3365  11.161   3.056  10.767 -0.7498 -1.9923 -0.2435
  766MOL0     H 3366  10.976   3.281  10.859  1.1295  3.7435 -1.3173
  766MOL0     H 3367  11.121   3.307  10.765  0.8071  1.2249  2.4822
  766MOL0     H 3368  11.119   3.127  11.015  2.0887 -1.3647 -1.2482
  766MOL0     H 3369  11.108   3.305  11.037 -1.0974 -1.4142  1.1943
  766MOL0     H 3370  11.515   3.208  10.911  2.2458 -0.2094 -0.2709
  766MOL0     H 3371  11.702   3.174  11.086 -0.0990 -1.3267  0.2221
  766MOL0     H 3372  11.936   2.946  11.427  0.9237 -0.8033 -0.6369
  766MOL0     H 3373  12.182   2.967  11.510 -0.2223  0.0028 -0.6455
  766MOL0     H 3374  12.408   3.226  11.343 -1.9479  2.2732  0.6901
  766MOL0     H 3375  12.404   3.346  11.472  2.3483  1.4861 -2.0711
  766MOL0     H 3376  12.551   3.093  11.524 -0.4444  0.1575 -0.0389
  766MOL0     H 3377  12.628   3.237  11.425 -0.6592  0.8332 -0.1802
  766MOL0     H 3378  12.699   3.254  11.658  0.2076 -0.6362 -2.4249
  766MOL0     H 3379  12.581   3.377  11.605  0.4964 -0.7635 -1.2216
  766MOL0     H 3380  12.525   3.121  11.759  1.9329  0.1023 -2.6604
  766MOL0     H 3381  12.410   3.258  11.750  0.2596 -0.0889 -2.5290
  766MOL0     H 3382  12.669   3.305  11.889 -1.2664  2.7874 -0.9142
  766MOL0     H 3383  12.537   3.223  11.975  1.1111 -0.9331  0.3417
  766MOL0     H 3384  12.417   3.442  11.863  0.3112  1.5640 -1.1521
  766MOL0     H 3385  12.496   3.450  12.018  0.1696 -0.8518 -0.3189
  766MOL0     H 3386  12.643   3.508  11.759  0.3569 -1.8904  1.6297
  766MOL0     H 3387  12.693   3.554  11.914  0.1618  2.7437  0.4754
  766MOL0     H 3388  12.604   3.749  11.800 -0.8687  0.7670  2.5898
  766MOL0     H 3389  12.442   3.684  11.774 -1.2394 -1.0758  0.2716
  766MOL0     H 3390  12.185   3.362  11.372  0.3801  1.3886  2.4643
  766MOL0     H 3391  11.984   3.350  11.289 -0.5037 -0.4859  0.3255
  766MOL0     H 3392  11.416   3.159  11.399  0.8517 -0.1714 -0.0779
  766MOL0     H 3393  11.232   3.210  11.238  0.0859  1.9668  1.1825
  766MOL0     H 3394   9.644   3.216  10.342 -0.5556  0.7836  0.8963
  766MOL0     H 3395   9.398   3.332  10.324  0.4959 -0.4393  1.3823
  766MOL0     H 3396   9.009   3.236  10.109  0.0112  0.9320  0.1906
  766MOL0     H 3397   8.800   3.270  10.032  4.9956 -1.2199 -0.4344
  766MOL0     H 3398   8.514   3.492  10.274 -0.8592  0.2134  0.7968
  766MOL0     H 3399   8.463   3.339  10.357  3.4988  1.6310  1.8236
  766MOL0     H 3400   8.368   3.413  10.073  0.3299  1.7477  0.8682
  766MOL0     H 3401   8.268   3.435  10.219 -0.7386 -2.0701  1.0288
  766MOL0     H 3402   8.284   3.196  10.281  1.7111 -2.6524  0.4682
  766MOL0     H 3403   8.402   3.168  10.152 -1.2931  0.1227 -1.3331
  766MOL0     H 3404   8.228   3.229   9.965 -2.7956  0.6682 -1.3526
  766MOL0     H 3405   8.210   3.091  10.071  2.4502 -0.3753  2.8639
  766MOL0     H 3406   7.877   3.283  10.210 -0.1408  0.4820 -0.8527
  766MOL0     H 3407   8.653   3.288  10.444  0.9349 -2.2238  1.4581
  766MOL0     H 3408   8.938   3.302  10.618  1.4008 -0.4509  0.4949
  766MOL0     H 3409   8.784   3.218  10.617 -0.3049 -0.3962 -2.9829
  766MOL0     H 3410   8.931   3.125  10.580  0.2068 -0.2188  1.1646
  767MOL0     O 3411   1.245   3.457   1.400  0.8946  0.4486 -0.1421
  767MOL0     C 3412   1.210   3.539   1.317 -0.5083  0.2752 -0.0635
  767MOL0     O 3413   1.272   3.655   1.289  0.0997 -0.3347  0.5683
  767MOL0     C 3414   1.383   3.707   1.351 -0.1380  0.1070 -0.3420
  767MOL0     C 3415   1.389   3.840   1.392 -0.2152 -0.3494 -0.2565
  767MOL0     C 3416   1.492   3.900   1.466 -0.1979 -0.0594  0.1859
  767MOL0     C 3417   1.610   3.829   1.491 -0.1631  0.2793 -0.2750
  767MOL0     O 3418   1.725   3.871   1.554  0.1490 -0.2956 -0.3734
  767MOL0     C 3419   1.707   3.974   1.647 -0.9688  0.2795 -0.3243
  767MOL0     C 3420   1.823   3.981   1.735 -0.4795 -1.4153 -0.2788
  767MOL0     C 3421   1.801   4.087   1.840  0.3099  0.5956  1.2053
  767MOL0     C 3422   1.931   4.118   1.907 -0.0700 -0.0825 -0.2546
  767MOL0     C 3423   1.914   4.209   2.027 -0.9328 -0.6929  0.5350
  767MOL0     C 3424   2.036   4.216   2.126  0.3800  0.5181 -0.8626
  767MOL0     C 3425   2.128   4.338   2.108 -0.3122 -0.2763 -0.5323
  767MOL0     C 3426   2.066   4.477   2.147 -0.0625  0.6328 -0.1855
  767MOL0     N 3427   2.157   4.589   2.130 -1.1921  0.2520 -0.3143
  767MOL0     C 3428   2.268   4.631   2.204 -0.2085  0.7799 -0.6623
  767MOL0     C 3429   2.332   4.740   2.147  0.2124 -0.2946  0.4123
  767MOL0     C 3430   2.448   4.807   2.210  0.1542  0.3848  0.1421
  767MOL0     C 3431   2.575   4.752   2.149 -0.0702 -0.5934  0.3221
  767MOL0     C 3432   2.623   4.810   2.013 -0.1039  0.2995 -0.3470
  767MOL0     C 3433   2.759   4.760   1.967  0.7063 -0.0281 -0.6713
  767MOL0     O 3434   2.800   4.840   1.857 -0.2864  0.2142 -0.2121
  767MOL0     C 3435   2.930   4.811   1.796  1.1995 -0.1318 -0.4410
  767MOL0     C 3436   2.981   4.920   1.717  0.5125  0.7547 -0.4339
  767MOL0     C 3437   3.104   4.907   1.655 -0.0036 -0.1134 -0.0045
  767MOL0     C 3438   3.170   4.780   1.663  0.1367 -0.1469  0.0071
  767MOL0     C 3439   3.288   4.757   1.573  0.3862  0.0066 -0.3720
  767MOL0     O 3440   3.359   4.646   1.595 -1.5011 -0.9721 -0.1364
  767MOL0     C 3441   3.460   4.628   1.503  0.5440  0.5997  0.6519
  767MOL0     C 3442   3.437   4.524   1.410  0.3940 -0.7249  0.2579
  767MOL0     C 3443   3.527   4.489   1.309 -1.3137  0.2802 -0.5063
  767MOL0     C 3444   3.646   4.561   1.299  0.5016 -0.1688 -1.1084
  767MOL0     O 3445   3.741   4.534   1.203  1.1319 -0.0369 -0.2471
  767MOL0     C 3446   3.802   4.413   1.216  0.4503 -0.2946  0.4846
  767MOL0     C 3447   3.956   4.432   1.249  0.2596  0.1064 -0.0876
  767MOL0     C 3448   4.042   4.303   1.225  0.0521  0.4957  0.2556
  767MOL0     C 3449   4.179   4.326   1.295  0.2234  0.2514 -0.0342
  767MOL0     C 3450   4.284   4.210   1.284  0.2001  0.3575 -0.5325
  767MOL0     C 3451   4.398   4.219   1.391 -0.3122 -0.1856 -0.4064
  767MOL0     C 3452   4.488   4.095   1.414  0.0076 -1.1475 -0.6087
  767MOL0     C 3453   4.606   4.116   1.500  0.4537 -0.7523  0.1493
  767MOL0    Cl 3454   4.721   4.250   1.443 -0.0577  0.1218 -0.1525
  767MOL0     C 3455   3.672   4.668   1.394  1.1002 -0.0798  0.2917
  767MOL0     C 3456   3.581   4.693   1.500 -1.5082  0.4035 -0.2301
  767MOL0     O 3457   3.314   4.848   1.496  0.0408 -0.7229  1.1050
  767MOL0     C 3458   3.125   4.673   1.743 -0.4470 -0.3376  0.2166
  767MOL0     C 3459   3.004   4.689   1.814 -0.4112 -0.3679  0.3616
  767MOL0     N 3460   2.263   4.763   2.025 -0.2246  0.1632 -0.2381
  767MOL0     N 3461   2.164   4.673   2.024  0.0606 -0.1024 -0.9949
  767MOL0     C 3462   1.606   3.694   1.452 -0.2505  0.0665  0.4556
  767MOL0     C 3463   1.494   3.632   1.391 -0.4463 -0.2754  0.3447
  767MOL0     C 3464   1.075   3.520   1.258 -0.6056 -0.6854 -0.2900
  767MOL0     C 3465   0.980   3.446   1.326 -0.4950 -0.1379  0.0078
  767MOL0     C 3466   0.851   3.415   1.265  0.5064  0.5222 -0.3112
  767MOL0     C 3467   0.821   3.463   1.135 -0.1114 -0.2199 -0.0932
  767MOL0     O 3468   0.704   3.420   1.086 -0.1962  0.2758  0.3202
  767MOL0     C 3469   0.660   3.461   0.955  0.1000  0.9755  0.2961
  767MOL0     C 3470   0.505   3.455   0.933 -0.0940  0.3865  0.1418
  767MOL0     C 3471   0.433   3.585   0.981 -0.3172  0.1501  0.0857
  767MOL0     C 3472   0.300   3.606   0.917 -0.6837  0.2936  0.8999
  767MOL0     C 3473   0.293   3.645   0.775  0.4824  0.2674  0.2739
  767MOL0     C 3474   0.280   3.662   0.661 -0.0642 -0.1647  0.0114
  767MOL0     C 3475   0.919   3.526   1.060  0.4698 -1.1851 -0.9580
  767MOL0     C 3476   1.041   3.559   1.125  0.2388  0.0048 -0.5061
  767MOL0     C 3477   1.132   3.629   1.035 -0.1976  0.0395 -0.5938
  767MOL0     H 3478   1.304   3.905   1.374 -0.2580 -0.3534 -0.0740
  767MOL0     H 3479   1.482   4.004   1.495 -2.0664  0.1499 -1.0145
  767MOL0     H 3480   1.682   4.066   1.593  2.1739  0.7266 -1.2022
  767MOL0     H 3481   1.619   3.945   1.705 -0.6111 -0.9239 -0.3530
  767MOL0     H 3482   1.902   4.011   1.666 -0.9139 -0.1213 -0.2418
  767MOL0     H 3483   1.840   3.880   1.773 -1.7442 -1.8030 -0.6799
  767MOL0     H 3484   1.727   4.059   1.915 -1.0436  0.3010 -0.1818
  767MOL0     H 3485   1.763   4.180   1.798 -1.4504 -0.2668  0.7842
  767MOL0     H 3486   1.974   4.028   1.953  0.4739  2.1888  4.3114
  767MOL0     H 3487   2.007   4.159   1.841 -1.1480 -0.1293 -1.5759
  767MOL0     H 3488   1.888   4.310   1.992  1.0875  0.3688  1.8845
  767MOL0     H 3489   1.839   4.167   2.094 -1.9032  0.6843  0.3588
  767MOL0     H 3490   1.991   4.209   2.226  1.0292  0.2593 -0.5854
  767MOL0     H 3491   2.097   4.127   2.110 -0.5649 -0.0296 -1.4840
  767MOL0     H 3492   2.147   4.343   2.001 -0.3783  3.3856 -0.5035
  767MOL0     H 3493   2.230   4.326   2.144  0.7290  0.7413 -2.9422
  767MOL0     H 3494   1.979   4.499   2.084  0.8491  2.3983 -0.8969
  767MOL0     H 3495   2.035   4.472   2.252  0.2832  1.3950 -0.0399
  767MOL0     H 3496   2.303   4.583   2.295  4.2433  0.4476 -2.3266
  767MOL0     H 3497   2.439   4.915   2.194  0.5820  0.4501  0.3430
  767MOL0     H 3498   2.454   4.794   2.318  0.7406 -2.3292 -0.1583
  767MOL0     H 3499   2.658   4.775   2.216 -0.1679  2.7859 -0.5507
  767MOL0     H 3500   2.563   4.645   2.130 -0.2178 -0.4348 -0.5270
  767MOL0     H 3501   2.638   4.917   2.029  0.1284 -0.1303  3.0084
  767MOL0     H 3502   2.540   4.799   1.943  1.0089  0.7614 -1.7964
  767MOL0     H 3503   2.757   4.655   1.939  1.8829 -0.5159  0.9053
  767MOL0     H 3504   2.831   4.757   2.049 -2.2342  1.8204  2.2268
  767MOL0     H 3505   2.942   5.021   1.714  2.6822  1.6184 -1.7015
  767MOL0     H 3506   3.141   4.998   1.610 -4.9290  1.8165 -0.6953
  767MOL0     H 3507   3.344   4.468   1.418 -2.1027  2.5505 -2.4042
  767MOL0     H 3508   3.517   4.401   1.247  0.9776  0.9212 -1.9351
  767MOL0     H 3509   3.754   4.337   1.279 -0.0249 -2.9951 -2.8237
  767MOL0     H 3510   3.797   4.374   1.114 -1.1054 -0.5161  0.6230
  767MOL0     H 3511   4.003   4.512   1.190  2.4972 -0.4246  0.8891
  767MOL0     H 3512   3.959   4.467   1.352 -0.8255  3.3115 -1.0225
  767MOL0     H 3513   3.987   4.226   1.280  0.3703 -0.4640 -0.7440
  767MOL0     H 3514   4.041   4.265   1.123  0.9551  0.7424  0.1463
  767MOL0     H 3515   4.157   4.363   1.396 -1.1013  1.3298 -0.6764
  767MOL0     H 3516   4.228   4.411   1.245  3.2499 -0.9876  0.6307
  767MOL0     H 3517   4.332   4.207   1.186  1.4516 -0.4635  0.0667
  767MOL0     H 3518   4.234   4.113   1.290 -0.2069  0.0366 -5.5400
  767MOL0     H 3519   4.463   4.293   1.345 -0.8271  0.1946 -0.5297
  767MOL0     H 3520   4.357   4.255   1.486 -0.6769 -1.3736 -0.0826
  767MOL0     H 3521   4.517   4.061   1.314  2.0781  1.0292 -0.8266
  767MOL0     H 3522   4.416   4.021   1.451 -0.2239  0.1711  1.7797
  767MOL0     H 3523   4.571   4.155   1.596  0.1328 -1.3665  0.2913
  767MOL0     H 3524   4.663   4.022   1.505  0.3321 -0.7953  0.7879
  767MOL0     H 3525   3.762   4.728   1.388  0.9151  0.1818  0.1597
  767MOL0     H 3526   3.591   4.773   1.573 -3.0892 -0.1949  0.6813
  767MOL0     H 3527   3.192   4.590   1.762 -2.2338 -1.2136  3.6202
  767MOL0     H 3528   2.983   4.606   1.880  4.4300 -3.0269 -0.9699
  767MOL0     H 3529   1.695   3.643   1.489 -0.1308  0.5490  0.8362
  767MOL0     H 3530   1.495   3.524   1.383 -0.5840 -0.4102  1.9336
  767MOL0     H 3531   1.004   3.404   1.423 -0.3540  1.2402  0.5939
  767MOL0     H 3532   0.777   3.360   1.323  2.4330 -2.5828 -0.5831
  767MOL0     H 3533   0.708   3.390   0.886  0.2916  0.8192  0.5903
  767MOL0     H 3534   0.690   3.561   0.922  2.4661  1.0783  2.5062
  767MOL0     H 3535   0.465   3.372   0.993  3.8583  1.2154  4.5224
  767MOL0     H 3536   0.490   3.433   0.827  3.5974 -1.4927 -0.1459
  767MOL0     H 3537   0.499   3.670   0.959  1.1233 -1.1425 -0.7282
  767MOL0     H 3538   0.422   3.582   1.089 -0.3989 -1.6577  0.0554
  767MOL0     H 3539   0.250   3.508   0.921  2.2085 -1.4864 -1.6758
  767MOL0     H 3540   0.256   3.683   0.981  0.0467 -0.4653  2.3691
  767MOL0     H 3541   0.298   3.673   0.556 -2.3101 -3.1995 -0.8134
  767MOL0     H 3542   0.898   3.566   0.961 -2.6052  2.8122  0.9900
  767MOL0     H 3543   1.158   3.728   1.073 -1.6547  1.7240 -3.6114
  767MOL0     H 3544   1.231   3.585   1.021  0.7196  1.6694  0.3801
  767MOL0     H 3545   1.093   3.636   0.933 -0.1386 -1.4057 -0.7371
  768MOL0     O 3546   1.486   7.221   5.707  0.4488 -0.7366  0.5392
  768MOL0     C 3547   1.405   7.150   5.764 -0.4819  0.4855  0.1223
  768MOL0     O 3548   1.405   7.109   5.897  1.5847  0.3059 -0.3296
  768MOL0     C 3549   1.512   7.125   5.988 -0.3655  0.0207 -0.0923
  768MOL0     C 3550   1.516   7.027   6.090  0.4932 -1.1246  0.0228
  768MOL0     C 3551   1.608   7.040   6.191 -0.0797  0.6515  0.1497
  768MOL0     C 3552   1.710   7.140   6.183  0.0546  0.6920 -1.2077
  768MOL0     O 3553   1.802   7.134   6.292 -0.0510 -0.4386  0.5675
  768MOL0     C 3554   1.906   7.234   6.293 -0.8282  0.2124  0.1772
  768MOL0     C 3555   1.992   7.224   6.423  0.2333  0.5128 -0.4152
  768MOL0     C 3556   1.915   7.165   6.549 -0.4951  0.4323 -0.7638
  768MOL0     C 3557   1.803   7.258   6.603  0.9532 -1.3502  0.9564
  768MOL0     C 3558   1.854   7.391   6.666  0.1714  0.1952  0.3234
  768MOL0     C 3559   1.739   7.476   6.728  0.7349  0.3058  0.2216
  768MOL0     C 3560   1.796   7.583   6.818  0.8621  0.4966  0.3989
  768MOL0     C 3561   1.840   7.535   6.958 -0.1256 -0.3027 -0.4059
  768MOL0     N 3562   1.969   7.589   7.001  0.8222  0.1985 -0.3027
  768MOL0     C 3563   2.025   7.542   7.117  0.0986 -0.2357 -0.0240
  768MOL0     C 3564   2.156   7.583   7.100  0.0488  0.5445  0.3156
  768MOL0     C 3565   2.272   7.560   7.205  0.4581  0.5473  0.1293
  768MOL0     C 3566   2.297   7.694   7.267  0.5638  0.3953 -0.0794
  768MOL0     C 3567   2.408   7.688   7.366  0.6106  0.1911 -0.0483
  768MOL0     C 3568   2.539   7.663   7.308 -0.0105  0.8079 -0.1271
  768MOL0     O 3569   2.592   7.778   7.233  0.0566  0.7202  0.2811
  768MOL0     C 3570   2.720   7.815   7.240  0.3853 -0.5987 -0.0952
  768MOL0     C 3571   2.820   7.727   7.282 -0.7516 -0.5475  0.0371
  768MOL0     C 3572   2.955   7.771   7.312 -0.0927  0.6302 -0.4129
  768MOL0     C 3573   2.988   7.900   7.298  0.0015 -0.5815  0.2441
  768MOL0     C 3574   3.127   7.942   7.337  0.9082 -0.4794  0.6505
  768MOL0     O 3575   3.143   8.053   7.403 -0.7792 -0.8668  0.6007
  768MOL0     C 3576   3.259   8.091   7.474 -0.0045 -0.7791  0.5771
  768MOL0     C 3577   3.380   8.021   7.498  0.0746  1.3152  0.0847
  768MOL0     C 3578   3.479   8.077   7.583 -0.0229 -0.3502  0.2703
  768MOL0     C 3579   3.464   8.202   7.643 -0.4919 -0.6145 -0.4025
  768MOL0     O 3580   3.558   8.266   7.726 -0.0495 -0.1323 -0.0646
  768MOL0     C 3581   3.692   8.284   7.669 -0.1268 -0.0842 -0.5846
  768MOL0     C 3582   3.779   8.344   7.781 -0.8427 -0.3467 -0.5236
  768MOL0     C 3583   3.934   8.354   7.755  0.8497 -0.4256 -1.0857
  768MOL0     C 3584   4.011   8.378   7.888 -0.5901  0.2684 -0.3347
  768MOL0     C 3585   4.165   8.358   7.857  0.8454  0.3658  0.0059
  768MOL0     C 3586   4.230   8.455   7.750  0.3342  0.1382  0.6013
  768MOL0     C 3587   4.377   8.421   7.721 -0.3339  0.0165 -0.8198
  768MOL0     C 3588   4.442   8.508   7.617  0.2098 -0.0030  0.7483
  768MOL0    Cl 3589   4.372   8.472   7.458  0.2197 -0.2731  0.4730
  768MOL0     C 3590   3.344   8.273   7.611 -0.2083  0.3549  0.2794
  768MOL0     C 3591   3.246   8.221   7.522 -0.1976  0.2186 -0.1323
  768MOL0     O 3592   3.220   7.872   7.306  0.3716  0.2317 -0.4163
  768MOL0     C 3593   2.883   7.996   7.269 -1.0948 -0.0486 -0.3442
  768MOL0     C 3594   2.752   7.954   7.238 -0.7853  0.1392  0.2970
  768MOL0     N 3595   2.171   7.649   6.978  0.1774 -0.4874 -0.6765
  768MOL0     N 3596   2.063   7.645   6.917  0.1153  1.0082 -0.6241
  768MOL0     C 3597   1.704   7.241   6.089 -0.0191 -0.1784  0.1605
  768MOL0     C 3598   1.612   7.230   5.980  0.2411  0.3442 -0.2257
  768MOL0     C 3599   1.278   7.117   5.696  0.0293  0.3734 -0.4849
  768MOL0     C 3600   1.203   7.214   5.632 -0.8658 -0.2249 -0.3132
  768MOL0     C 3601   1.069   7.190   5.588 -0.8203  0.4496 -1.2373
  768MOL0     C 3602   1.015   7.066   5.594  0.4945  0.9000  0.5590
  768MOL0     O 3603   0.883   7.032   5.561  0.2502 -0.1621  1.0751
  768MOL0     C 3604   0.784   7.129   5.529  0.2509  0.4622  0.0915
  768MOL0     C 3605   0.655   7.077   5.466 -0.5343 -0.1873 -1.5252
  768MOL0     C 3606   0.559   7.014   5.571  0.0347  0.1591  0.2897
  768MOL0     C 3607   0.431   6.953   5.515  0.3749  0.2967  0.3656
  768MOL0     C 3608   0.450   6.843   5.422 -0.4353  0.8379 -0.2932
  768MOL0     C 3609   0.463   6.764   5.334 -0.2138 -0.3684 -0.2324
  768MOL0     C 3610   1.096   6.961   5.635 -0.1319 -0.6583  0.5291
  768MOL0     C 3611   1.229   6.982   5.678  0.4737  0.3592 -0.7909
  768MOL0     C 3612   1.306   6.874   5.723  0.1874  1.1831 -0.5600
  768MOL0     H 3613   1.439   6.951   6.086 -1.1599  0.5156 -2.8191
  768MOL0     H 3614   1.607   6.978   6.280 -1.6460  0.4469  0.0215
  768MOL0     H 3615   1.966   7.223   6.202  1.6365 -0.4278  1.7878
  768MOL0     H 3616   1.860   7.333   6.295 -3.0870 -0.7628  2.0865
  768MOL0     H 3617   2.023   7.326   6.450  0.9033 -0.2340  1.8893
  768MOL0     H 3618   2.084   7.167   6.408  2.1847  2.4282  2.9906
  768MOL0     H 3619   1.989   7.153   6.629  0.9935 -3.1290 -2.4379
  768MOL0     H 3620   1.878   7.064   6.532 -0.2215  0.3618 -0.9486
  768MOL0     H 3621   1.728   7.273   6.525  1.6017 -1.9979  0.1924
  768MOL0     H 3622   1.752   7.202   6.683  1.5743 -1.8052  1.0421
  768MOL0     H 3623   1.937   7.379   6.737 -1.3114  1.5220  2.4049
  768MOL0     H 3624   1.908   7.445   6.588  2.3237  2.6543  3.2661
  768MOL0     H 3625   1.674   7.518   6.651 -1.0015 -3.9832 -0.9587
  768MOL0     H 3626   1.678   7.419   6.798  1.9372  1.8363  2.6521
  768MOL0     H 3627   1.710   7.648   6.832 -0.0708 -0.7127  0.4015
  768MOL0     H 3628   1.878   7.631   6.763  1.9595 -2.6002 -0.9419
  768MOL0     H 3629   1.768   7.545   7.040  0.4926 -0.5623  0.1680
  768MOL0     H 3630   1.860   7.427   6.957 -0.8775 -0.5820  3.2290
  768MOL0     H 3631   1.983   7.469   7.185 -2.7614  0.9986 -0.3420
  768MOL0     H 3632   2.239   7.482   7.273  0.7312 -1.7004 -2.1740
  768MOL0     H 3633   2.356   7.513   7.152  0.6852  1.9303 -0.7892
  768MOL0     H 3634   2.323   7.763   7.187  0.4459 -2.3399 -2.6761
  768MOL0     H 3635   2.202   7.725   7.313 -1.6521 -2.9005 -1.9503
  768MOL0     H 3636   2.387   7.609   7.439 -0.0082  1.6297  1.3984
  768MOL0     H 3637   2.413   7.782   7.421 -2.6373 -0.1652  1.0687
  768MOL0     H 3638   2.523   7.586   7.232 -2.1377  0.1851  0.8729
  768MOL0     H 3639   2.591   7.624   7.396  0.8958  0.3955 -0.8323
  768MOL0     H 3640   2.802   7.620   7.285 -0.9965 -0.5463 -1.1133
  768MOL0     H 3641   3.032   7.701   7.343  0.8316  0.4481 -2.8795
  768MOL0     H 3642   3.399   7.924   7.453 -0.2579  1.0558  0.4911
  768MOL0     H 3643   3.579   8.037   7.591 -0.1437 -0.5550  0.8283
  768MOL0     H 3644   3.745   8.192   7.643  0.7914  0.0685  0.6386
  768MOL0     H 3645   3.689   8.360   7.590 -0.9275  2.7876  1.9751
  768MOL0     H 3646   3.738   8.443   7.802 -0.8406 -0.6817  1.1679
  768MOL0     H 3647   3.755   8.277   7.864  0.5673 -0.7179 -0.3867
  768MOL0     H 3648   3.961   8.260   7.706 -1.0285 -1.1593 -0.7969
  768MOL0     H 3649   3.947   8.444   7.694  0.9636  0.1576 -0.2212
  768MOL0     H 3650   3.972   8.299   7.952 -1.8781 -0.6078 -2.0892
  768MOL0     H 3651   3.981   8.472   7.935 -2.0238 -0.7942  0.9587
  768MOL0     H 3652   4.166   8.253   7.825 -1.1992  0.7923 -1.7460
  768MOL0     H 3653   4.230   8.366   7.944 -0.2111  0.5900  0.7939
  768MOL0     H 3654   4.172   8.443   7.658 -1.3608 -0.7209  1.7399
  768MOL0     H 3655   4.220   8.560   7.781 -1.2113  1.2581 -3.1886
  768MOL0     H 3656   4.366   8.317   7.688 -0.4259  0.5593 -2.5682
  768MOL0     H 3657   4.437   8.426   7.813 -0.7720 -0.6833 -0.4784
  768MOL0     H 3658   4.422   8.611   7.647  0.4295  0.1216  0.4718
  768MOL0     H 3659   4.549   8.486   7.611  0.4093  1.1846 -0.5929
  768MOL0     H 3660   3.328   8.367   7.663  2.7627 -0.2873  2.6678
  768MOL0     H 3661   3.149   8.269   7.512 -1.3065 -2.4121 -4.1908
  768MOL0     H 3662   2.900   8.103   7.266 -0.5751 -0.1353 -0.6184
  768MOL0     H 3663   2.680   8.028   7.207 -1.6811 -0.8763 -0.1155
  768MOL0     H 3664   1.767   7.330   6.091  0.7167 -0.6784  2.0102
  768MOL0     H 3665   1.616   7.311   5.908  0.8715  0.3143 -0.2295
  768MOL0     H 3666   1.242   7.312   5.606 -1.0098 -0.6133 -2.1699
  768MOL0     H 3667   1.018   7.281   5.557 -1.8616  1.8195  3.6842
  768MOL0     H 3668   0.826   7.186   5.445 -1.3349  2.6326  0.6858
  768MOL0     H 3669   0.777   7.189   5.621 -2.6397  1.5314 -0.7422
  768MOL0     H 3670   0.686   7.006   5.388  1.3640 -0.0638 -0.9197
  768MOL0     H 3671   0.599   7.160   5.422 -1.0485  0.4901  0.3395
  768MOL0     H 3672   0.533   7.093   5.643 -2.0533 -1.0349  0.9346
  768MOL0     H 3673   0.603   6.928   5.623  1.3206 -0.2592 -1.3975
  768MOL0     H 3674   0.372   6.920   5.600 -0.2585  1.6772  0.4958
  768MOL0     H 3675   0.388   7.041   5.465  1.5628  0.5186 -0.2996
  768MOL0     H 3676   0.460   6.702   5.247 -4.8598 -0.8880  0.0264
  768MOL0     H 3677   1.059   6.860   5.651 -2.0483  0.2324  2.1090
  768MOL0     H 3678   1.250   6.780   5.721 -0.3801  1.1759  4.2387
  768MOL0     H 3679   1.402   6.867   5.671 -1.5086 -2.5107 -3.6834
  768MOL0     H 3680   1.332   6.882   5.829  0.7382 -2.3478 -0.3204
  769MOL0     O 3681   7.334   4.098   2.483  0.3999 -0.1926  1.0778
  769MOL0     C 3682   7.280   4.139   2.380  0.3636  0.1907 -0.2093
  769MOL0     O 3683   7.337   4.150   2.258  0.6559 -0.2046 -0.0350
  769MOL0     C 3684   7.453   4.084   2.243 -0.0437  0.2477  0.7445
  769MOL0     C 3685   7.568   4.152   2.245  0.3882 -0.0099 -0.4861
  769MOL0     C 3686   7.694   4.083   2.230  0.4588 -0.4162  0.1198
  769MOL0     C 3687   7.697   3.947   2.212 -0.2291  0.0693 -0.4591
  769MOL0     O 3688   7.821   3.893   2.194  0.4914 -0.0052  0.5778
  769MOL0     C 3689   7.883   3.794   2.272  0.5342  0.0752 -0.3433
  769MOL0     C 3690   8.018   3.762   2.207 -0.6506 -0.9604  0.6824
  769MOL0     C 3691   8.131   3.851   2.259  0.3587 -0.1078  0.0914
  769MOL0     C 3692   8.276   3.832   2.202 -0.6131  0.2482  0.0288
  769MOL0     C 3693   8.290   3.861   2.054  0.4608  0.1617  0.2803
  769MOL0     C 3694   8.367   3.991   2.026  0.4801 -0.1768 -0.2982
  769MOL0     C 3695   8.516   3.977   2.049  0.1796  1.0768 -0.3397
  769MOL0     C 3696   8.599   4.098   2.004 -0.0733  0.1384  0.2044
  769MOL0     N 3697   8.742   4.080   2.038 -0.1641  0.2005 -0.6061
  769MOL0     C 3698   8.835   4.014   1.962 -0.1500 -0.3441 -1.0599
  769MOL0     C 3699   8.948   4.008   2.044  0.4398 -0.5667  0.0505
  769MOL0     C 3700   9.077   3.939   2.009  0.9331 -0.8296 -0.5255
  769MOL0     C 3701   9.100   3.790   2.047  0.1498 -0.7046 -0.7051
  769MOL0     C 3702   9.072   3.696   1.933  0.1850 -0.0879 -0.2196
  769MOL0     C 3703   9.194   3.694   1.841  0.1979 -0.6192  0.0118
  769MOL0     O 3704   9.312   3.632   1.898  0.1033 -0.4145 -0.3460
  769MOL0     C 3705   9.432   3.657   1.850 -0.0749  0.3300  1.1322
  769MOL0     C 3706   9.529   3.659   1.940 -0.4281  0.1495  0.0106
  769MOL0     C 3707   9.657   3.683   1.898  0.5916 -0.0194  0.0349
  769MOL0     C 3708   9.684   3.703   1.757  0.2992 -0.3400 -0.4793
  769MOL0     C 3709   9.828   3.723   1.702 -0.0489 -0.0067  0.0639
  769MOL0     O 3710   9.916   3.756   1.804  0.1482 -0.3732 -0.5491
  769MOL0     C 3711  10.038   3.813   1.786  0.1925  0.5493 -1.0237
  769MOL0     C 3712  10.083   3.877   1.673 -0.6468 -0.4874  0.3549
  769MOL0     C 3713  10.214   3.931   1.676  0.0022  0.8161  0.2675
  769MOL0     C 3714  10.294   3.925   1.788  0.6246 -0.1915 -0.6155
  769MOL0     O 3715  10.419   3.984   1.800  0.1172 -0.3027  0.3409
  769MOL0     C 3716  10.483   4.046   1.690  0.8552  1.0458 -0.6582
  769MOL0     C 3717  10.593   4.133   1.744  0.9158  0.2013  1.2593
  769MOL0     C 3718  10.695   4.053   1.837 -0.1698  0.3091  0.1474
  769MOL0     C 3719  10.795   4.156   1.895 -0.4663 -0.1639 -0.1216
  769MOL0     C 3720  10.909   4.102   1.965  0.2264 -0.7376 -0.1603
  769MOL0     C 3721  10.878   4.029   2.084 -0.6927  0.3793 -0.2937
  769MOL0     C 3722  11.008   4.004   2.173 -0.7191  0.0383 -1.4801
  769MOL0     C 3723  11.120   3.915   2.106  0.8542 -0.9148 -0.7375
  769MOL0    Cl 3724  11.055   3.780   2.024  0.2017  0.6228  0.1540
  769MOL0     C 3725  10.246   3.860   1.902  0.1221  0.0141  0.9786
  769MOL0     C 3726  10.116   3.810   1.902  0.3916  0.4642 -0.0654
  769MOL0     O 3727   9.856   3.700   1.586 -0.4856  0.5511 -0.2522
  769MOL0     C 3728   9.580   3.707   1.674 -1.1509  0.7017 -0.2489
  769MOL0     C 3729   9.449   3.696   1.717  0.2230 -0.7230 -0.3725
  769MOL0     N 3730   8.929   4.087   2.161 -0.5990 -0.3309  1.1514
  769MOL0     N 3731   8.806   4.129   2.155 -0.5811  0.8183 -0.6360
  769MOL0     C 3732   7.575   3.874   2.192 -0.0296  0.5684 -0.5900
  769MOL0     C 3733   7.451   3.944   2.203 -0.9076 -0.1010 -0.2324
  769MOL0     C 3734   7.138   4.182   2.389  0.1188  0.4517  0.1153
  769MOL0     C 3735   7.095   4.286   2.301 -0.9066 -0.0979  0.1949
  769MOL0     C 3736   6.982   4.358   2.321  0.0810 -0.2690  0.4181
  769MOL0     C 3737   6.882   4.322   2.404 -0.1065 -0.2046 -0.5893
  769MOL0     O 3738   6.764   4.390   2.413  0.3320 -0.3139 -0.8363
  769MOL0     C 3739   6.642   4.318   2.412 -0.5692  0.3503  0.9249
  769MOL0     C 3740   6.532   4.427   2.416 -1.0071  0.1412  0.2581
  769MOL0     C 3741   6.391   4.372   2.423  0.7697  0.0477 -0.0570
  769MOL0     C 3742   6.284   4.478   2.406 -0.2754 -0.3610 -0.0509
  769MOL0     C 3743   6.278   4.572   2.521 -0.0319 -0.6045  0.2581
  769MOL0     C 3744   6.286   4.649   2.613 -0.1955 -0.6512 -0.3877
  769MOL0     C 3745   6.916   4.216   2.488  0.6699  0.7601 -0.0060
  769MOL0     C 3746   7.042   4.144   2.483 -0.4518 -1.3077 -0.2689
  769MOL0     C 3747   7.068   4.037   2.586 -0.0277  0.4318 -0.0871
  769MOL0     H 3748   7.558   4.256   2.273  1.7886  0.0040  0.0845
  769MOL0     H 3749   7.787   4.139   2.236  2.9955 -3.5784 -4.0129
  769MOL0     H 3750   7.889   3.829   2.376 -1.5445  0.6824 -0.3874
  769MOL0     H 3751   7.819   3.706   2.275  0.8882 -0.1858 -0.3296
  769MOL0     H 3752   8.019   3.767   2.097 -2.4905  1.6812  0.6909
  769MOL0     H 3753   8.047   3.658   2.225  1.6459 -0.6828 -0.8462
  769MOL0     H 3754   8.149   3.846   2.367  1.3119 -0.6969 -0.0776
  769MOL0     H 3755   8.119   3.956   2.232  1.9827 -0.0297 -0.4645
  769MOL0     H 3756   8.346   3.893   2.259 -0.3540  1.5045 -1.5639
  769MOL0     H 3757   8.303   3.727   2.208 -3.7342 -0.7910 -1.5094
  769MOL0     H 3758   8.349   3.778   2.014  2.8814  1.9246 -0.0173
  769MOL0     H 3759   8.198   3.860   1.997  0.9033  2.7061 -0.6224
  769MOL0     H 3760   8.354   4.010   1.919 -0.3805  0.1562 -0.1423
  769MOL0     H 3761   8.327   4.081   2.074  1.3815  1.4174 -2.4126
  769MOL0     H 3762   8.558   3.887   2.003 -0.2685  1.5787 -1.7907
  769MOL0     H 3763   8.527   3.966   2.157 -0.9011  2.0227 -0.1064
  769MOL0     H 3764   8.582   4.106   1.896 -3.5388  2.3537  0.7623
  769MOL0     H 3765   8.564   4.191   2.049  0.1189 -0.3164  1.3203
  769MOL0     H 3766   8.812   3.977   1.863 -0.8932 -1.8082 -0.3682
  769MOL0     H 3767   9.091   3.954   1.901  1.5432  1.8863 -0.1459
  769MOL0     H 3768   9.158   3.994   2.060 -0.8976  1.8842 -0.3128
  769MOL0     H 3769   9.199   3.783   2.093 -0.6471 -2.0478  0.9467
  769MOL0     H 3770   9.022   3.756   2.116  0.4846 -0.9070 -0.4214
  769MOL0     H 3771   8.984   3.728   1.877  0.7472  0.0861 -1.0351
  769MOL0     H 3772   9.046   3.602   1.981 -1.1765  0.4405  0.1188
  769MOL0     H 3773   9.208   3.797   1.806 -3.9015 -0.1391 -0.6628
  769MOL0     H 3774   9.157   3.647   1.750  0.0684 -2.8176  1.1336
  769MOL0     H 3775   9.509   3.623   2.040  1.1921  2.3175  1.1965
  769MOL0     H 3776   9.733   3.679   1.975 -1.4091  1.9585  2.3011
  769MOL0     H 3777  10.026   3.875   1.581 -0.9000 -2.2409  0.5224
  769MOL0     H 3778  10.247   3.966   1.578 -0.5119 -0.5868 -0.4382
  769MOL0     H 3779  10.532   3.970   1.628  1.5201  0.9031  0.0232
  769MOL0     H 3780  10.404   4.106   1.645 -1.6211 -0.4103  1.4913
  769MOL0     H 3781  10.641   4.184   1.660 -0.8870  1.8714  1.1780
  769MOL0     H 3782  10.551   4.207   1.812  2.6784  2.3927  0.0909
  769MOL0     H 3783  10.642   4.006   1.920  1.2815 -3.6104 -0.9440
  769MOL0     H 3784  10.745   3.973   1.783 -1.3548 -0.1077 -0.3613
  769MOL0     H 3785  10.744   4.229   1.959 -2.9765 -1.0490 -0.9730
  769MOL0     H 3786  10.838   4.215   1.813 -1.9316 -1.8428 -2.2016
  769MOL0     H 3787  10.972   4.186   1.993  0.4280 -0.7042 -0.7001
  769MOL0     H 3788  10.972   4.044   1.896  0.5755  0.6175 -1.0078
  769MOL0     H 3789  10.804   4.073   2.151 -1.4073 -0.2121 -0.6777
  769MOL0     H 3790  10.838   3.930   2.060 -1.0620  0.4244  0.1396
  769MOL0     H 3791  10.975   3.956   2.266 -0.1824  0.6298 -0.9737
  769MOL0     H 3792  11.064   4.094   2.196  0.0504 -0.8629  0.3793
  769MOL0     H 3793  11.166   3.977   2.029  2.9218  1.9758  2.5210
  769MOL0     H 3794  11.194   3.893   2.183  0.5389 -0.4080 -0.2790
  769MOL0     H 3795  10.312   3.853   1.989  1.3613 -0.7970  0.0126
  769MOL0     H 3796  10.070   3.773   1.992 -2.2248  0.6349 -1.2460
  769MOL0     H 3797   9.615   3.725   1.573  0.9475 -0.3229  0.2337
  769MOL0     H 3798   9.370   3.698   1.642 -0.3124 -2.0544  0.1329
  769MOL0     H 3799   7.580   3.768   2.170 -1.4078  0.5176 -0.7568
  769MOL0     H 3800   7.361   3.885   2.189 -0.2378 -1.0683 -0.5439
  769MOL0     H 3801   7.152   4.321   2.215 -1.9312  1.2831  0.0487
  769MOL0     H 3802   6.960   4.436   2.249 -0.4459 -0.4183  0.4169
  769MOL0     H 3803   6.638   4.245   2.493  1.9375  0.5451  1.3142
  769MOL0     H 3804   6.637   4.257   2.321 -0.6717  3.3306 -1.2261
  769MOL0     H 3805   6.544   4.483   2.323 -0.5434 -1.8304 -0.9310
  769MOL0     H 3806   6.544   4.496   2.499 -0.0133  1.0205 -0.5971
  769MOL0     H 3807   6.377   4.327   2.521  0.1923  0.0595 -0.1331
  769MOL0     H 3808   6.369   4.293   2.351 -2.7589  0.1706  0.7512
  769MOL0     H 3809   6.314   4.514   2.307  0.7163 -5.2932 -1.7928
  769MOL0     H 3810   6.185   4.435   2.386  0.4626 -1.1267 -2.2604
  769MOL0     H 3811   6.275   4.738   2.672  0.6258 -0.6243 -0.2703
  769MOL0     H 3812   6.859   4.191   2.577  0.0373  1.8323 -0.0868
  769MOL0     H 3813   7.119   4.081   2.672  0.0416  1.8840 -0.8365
  769MOL0     H 3814   6.968   4.010   2.621 -1.1478  1.2042 -2.4386
  769MOL0     H 3815   7.104   3.942   2.546 -0.4542  0.4144 -0.4522
  770MOL0     O 3816   5.866   6.628   4.271  0.1002 -0.3152  0.1427
  770MOL0     C 3817   5.760   6.610   4.325  0.8169  0.4119 -0.5446
  770MOL0     O 3818   5.742   6.519   4.432 -0.3360  0.3957 -0.4042
  770MOL0     C 3819   5.835   6.418   4.451  0.0487  0.3184 -0.6706
  770MOL0     C 3820   5.973   6.445   4.461  0.1123  0.1718 -0.3948
  770MOL0     C 3821   6.068   6.349   4.489  0.5226  0.5533  0.6350
  770MOL0     C 3822   6.026   6.213   4.500  0.4629 -0.2844  0.0831
  770MOL0     O 3823   6.119   6.125   4.537  0.0236  0.6761  0.1122
  770MOL0     C 3824   6.083   6.001   4.592  0.0699 -0.1742 -0.1289
  770MOL0     C 3825   6.197   5.949   4.671 -0.4092 -0.2746  0.3011
  770MOL0     C 3826   6.175   5.812   4.744  0.6220 -0.0536  0.8557
  770MOL0     C 3827   6.280   5.800   4.850  0.6507 -0.1215  0.4668
  770MOL0     C 3828   6.264   5.661   4.925 -0.2894  0.3893 -0.4776
  770MOL0     C 3829   6.385   5.628   5.017 -0.0698 -0.0333  0.0896
  770MOL0     C 3830   6.401   5.724   5.133  0.0065 -0.4598 -0.7085
  770MOL0     C 3831   6.461   5.670   5.252 -0.4725  0.1072  0.1651
  770MOL0     N 3832   6.598   5.617   5.236 -0.2425  0.0846 -0.5017
  770MOL0     C 3833   6.699   5.669   5.156  0.2809  0.3205  0.6861
  770MOL0     C 3834   6.813   5.608   5.198  0.4814  0.2552 -0.9937
  770MOL0     C 3835   6.947   5.622   5.141 -0.6371 -0.8391  0.4407
  770MOL0     C 3836   7.059   5.564   5.224 -0.7123 -0.7381 -0.5154
  770MOL0     C 3837   7.191   5.609   5.165 -0.1372  1.1290  0.0140
  770MOL0     C 3838   7.299   5.519   5.233 -0.5121  0.2785  0.2963
  770MOL0     O 3839   7.421   5.591   5.229 -0.2217 -0.2397  0.3300
  770MOL0     C 3840   7.503   5.576   5.124  0.5206 -0.6826 -0.4007
  770MOL0     C 3841   7.465   5.520   4.996 -0.2578 -0.4419  0.3328
  770MOL0     C 3842   7.548   5.510   4.890 -0.0956 -0.3297  0.1391
  770MOL0     C 3843   7.686   5.550   4.901  0.1288 -0.7435 -0.3292
  770MOL0     C 3844   7.780   5.525   4.786 -0.2274 -0.0582 -0.6565
  770MOL0     O 3845   7.908   5.554   4.820 -0.3754  0.2148 -0.6985
  770MOL0     C 3846   8.011   5.517   4.731  0.4512 -0.6186  0.0058
  770MOL0     C 3847   8.007   5.397   4.664  1.0216  0.3017 -0.1879
  770MOL0     C 3848   8.116   5.363   4.584  0.7640 -0.0518  0.1971
  770MOL0     C 3849   8.221   5.445   4.557 -0.0301  0.0575  0.9565
  770MOL0     O 3850   8.321   5.414   4.468 -0.5503 -0.0236 -0.9418
  770MOL0     C 3851   8.339   5.285   4.395  0.1036  0.4496 -0.2551
  770MOL0     C 3852   8.482   5.262   4.357  0.1460 -0.2565  0.1557
  770MOL0     C 3853   8.593   5.264   4.464 -0.0388  0.8506 -0.1079
  770MOL0     C 3854   8.554   5.156   4.571  0.3215  0.7433  0.3877
  770MOL0     C 3855   8.682   5.078   4.621 -0.2864 -0.2096  0.6740
  770MOL0     C 3856   8.771   5.153   4.724 -0.7958  0.6558  0.3657
  770MOL0     C 3857   8.882   5.070   4.765 -0.7227  0.4361  0.4943
  770MOL0     C 3858   8.976   5.140   4.861  0.1512 -0.0649 -0.0848
  770MOL0    Cl 3859   9.027   5.279   4.780 -0.0635 -0.2500  0.1661
  770MOL0     C 3860   8.235   5.559   4.637 -1.0628  0.0964 -0.1061
  770MOL0     C 3861   8.128   5.594   4.724 -0.9626 -0.2834  0.1845
  770MOL0     O 3862   7.739   5.482   4.680 -0.1554  0.2476 -0.3837
  770MOL0     C 3863   7.725   5.615   5.018 -0.6819  0.1036  0.1892
  770MOL0     C 3864   7.640   5.619   5.123  0.3542  0.7845  0.0180
  770MOL0     N 3865   6.771   5.517   5.301  0.1438 -0.3219 -0.9859
  770MOL0     N 3866   6.643   5.523   5.320 -0.2168 -0.4266 -0.3900
  770MOL0     C 3867   5.885   6.187   4.487  0.1875  0.1727 -0.0684
  770MOL0     C 3868   5.796   6.290   4.473 -0.6510 -0.4501 -0.3732
  770MOL0     C 3869   5.658   6.702   4.274  0.2919 -0.7798  0.2666
  770MOL0     C 3870   5.687   6.796   4.174 -0.0583  0.3448 -0.0253
  770MOL0     C 3871   5.588   6.884   4.124 -0.5465  0.0015  0.0457
  770MOL0     C 3872   5.466   6.902   4.191  0.2460  0.3076  1.3655
  770MOL0     O 3873   5.370   6.990   4.149  0.2469  0.4171  0.0403
  770MOL0     C 3874   5.247   6.926   4.131 -0.4827  1.6929 -0.0478
  770MOL0     C 3875   5.222   6.927   3.978 -0.2083  0.4664  0.1550
  770MOL0     C 3876   5.085   6.857   3.930 -0.0905 -0.2601 -0.4761
  770MOL0     C 3877   5.062   6.723   3.990 -0.3325 -0.0866 -0.1941
  770MOL0     C 3878   5.189   6.646   3.957  1.3239 -0.2008 -0.7552
  770MOL0     C 3879   5.288   6.571   3.947  0.4819 -0.4706  0.2578
  770MOL0     C 3880   5.443   6.828   4.306 -0.4043  0.1196 -0.1107
  770MOL0     C 3881   5.528   6.720   4.340  0.8344 -0.3187 -0.1370
  770MOL0     C 3882   5.478   6.626   4.454 -0.0753 -0.2217  0.0273
  770MOL0     H 3883   6.012   6.546   4.450 -1.4793  0.8382 -0.1400
  770MOL0     H 3884   6.174   6.373   4.495 -0.0134  3.4361 -0.2974
  770MOL0     H 3885   6.001   6.011   4.664 -0.0611 -1.1335 -0.1247
  770MOL0     H 3886   6.062   5.930   4.511 -0.0950 -1.2291  0.8050
  770MOL0     H 3887   6.241   6.027   4.734  0.3410 -0.0321 -0.5047
  770MOL0     H 3888   6.289   5.939   4.614  1.7252 -1.6015  3.6719
  770MOL0     H 3889   6.168   5.735   4.667  1.4963 -1.7188  2.3704
  770MOL0     H 3890   6.075   5.814   4.787  0.1483  2.6990 -0.2072
  770MOL0     H 3891   6.374   5.803   4.796  0.8980  0.2941  0.9081
  770MOL0     H 3892   6.270   5.883   4.922 -1.7326 -0.4269  0.5657
  770MOL0     H 3893   6.168   5.653   4.976 -1.4699 -3.7780 -2.8654
  770MOL0     H 3894   6.260   5.576   4.856  2.3022  0.1641 -0.4313
  770MOL0     H 3895   6.361   5.528   5.053  1.0579  0.6377  2.9383
  770MOL0     H 3896   6.473   5.635   4.952 -1.4566 -2.2800 -2.2466
  770MOL0     H 3897   6.308   5.779   5.151  0.9564  1.1610 -0.4844
  770MOL0     H 3898   6.469   5.803   5.099  1.4607 -1.2137  0.3330
  770MOL0     H 3899   6.465   5.737   5.338  3.2548 -1.5098  1.4807
  770MOL0     H 3900   6.401   5.584   5.282  0.2561 -1.1235 -1.7316
  770MOL0     H 3901   6.700   5.740   5.074 -0.1213  1.1030  1.3506
  770MOL0     H 3902   6.956   5.567   5.048  1.7812 -0.3083  0.3016
  770MOL0     H 3903   6.970   5.724   5.110  1.6702 -1.8333 -1.3416
  770MOL0     H 3904   7.051   5.600   5.327 -2.7479 -1.4876 -0.3694
  770MOL0     H 3905   7.040   5.457   5.208 -0.7908 -0.4111 -2.9977
  770MOL0     H 3906   7.214   5.712   5.194 -1.6275  1.7105 -0.7438
  770MOL0     H 3907   7.201   5.594   5.057 -0.3790 -1.8221  0.3044
  770MOL0     H 3908   7.317   5.419   5.193  0.5457 -0.2412  1.9585
  770MOL0     H 3909   7.268   5.498   5.336 -1.3664 -2.3683 -0.4220
  770MOL0     H 3910   7.366   5.476   4.984  0.1715 -1.8845  1.6900
  770MOL0     H 3911   7.514   5.464   4.798  2.5814  0.8453 -1.5269
  770MOL0     H 3912   7.920   5.334   4.675 -0.3694  2.1327 -0.2332
  770MOL0     H 3913   8.131   5.260   4.552  0.1022 -0.4811  1.2282
  770MOL0     H 3914   8.300   5.205   4.459 -1.9519  0.7655 -1.0222
  770MOL0     H 3915   8.271   5.278   4.309 -0.1060  0.1638 -0.0677
  770MOL0     H 3916   8.493   5.175   4.291  0.3706  0.2127 -0.4385
  770MOL0     H 3917   8.497   5.338   4.279 -2.2657  0.5823  0.4373
  770MOL0     H 3918   8.683   5.226   4.416  2.7020  3.3808  2.5986
  770MOL0     H 3919   8.591   5.363   4.510 -3.0986  0.0252  1.9022
  770MOL0     H 3920   8.494   5.083   4.516  0.9709  0.9638 -0.6451
  770MOL0     H 3921   8.493   5.208   4.646 -3.4832 -0.8276 -1.3566
  770MOL0     H 3922   8.742   5.046   4.536  0.6191 -0.1580  1.2819
  770MOL0     H 3923   8.639   4.990   4.670 -0.3322  0.0553  1.1177
  770MOL0     H 3924   8.820   5.232   4.666  0.1956  0.8427  1.4152
  770MOL0     H 3925   8.711   5.195   4.805 -0.8189 -0.3887  0.9091
  770MOL0     H 3926   8.933   5.039   4.673 -2.4386 -1.9687  0.2239
  770MOL0     H 3927   8.845   4.970   4.793  1.0531 -0.5383 -0.4753
  770MOL0     H 3928   8.927   5.172   4.954 -1.3563 -2.0339 -0.1481
  770MOL0     H 3929   9.070   5.087   4.874  0.2248 -1.0429 -3.6749
  770MOL0     H 3930   8.321   5.623   4.617 -1.3287  0.2422 -0.8034
  770MOL0     H 3931   8.127   5.673   4.798 -0.0854 -2.1766  2.3421
  770MOL0     H 3932   7.827   5.651   5.030 -0.5222 -0.5086  0.7377
  770MOL0     H 3933   7.656   5.672   5.217  1.2250  0.7028 -0.0779
  770MOL0     H 3934   5.851   6.085   4.502 -1.7563  0.4354 -2.1101
  770MOL0     H 3935   5.696   6.258   4.448 -1.2514 -0.9332  2.3044
  770MOL0     H 3936   5.780   6.784   4.119  1.0445  1.5779  1.4942
  770MOL0     H 3937   5.630   6.941   4.041  1.7683 -1.8296 -0.1412
  770MOL0     H 3938   5.159   6.970   4.180 -1.9461 -0.5934 -0.4393
  770MOL0     H 3939   5.251   6.824   4.170  3.8664  1.5858 -0.2963
  770MOL0     H 3940   5.308   6.883   3.927 -0.3105 -1.3581  1.4346
  770MOL0     H 3941   5.207   7.031   3.947  3.3221  1.8665  2.5333
  770MOL0     H 3942   5.095   6.844   3.822  0.9142 -0.9497 -0.3094
  770MOL0     H 3943   5.008   6.932   3.952 -2.3678 -2.5247 -0.2262
  770MOL0     H 3944   5.042   6.718   4.097 -0.9006  1.5129 -0.1948
  770MOL0     H 3945   4.988   6.664   3.935 -0.5848 -0.3888  0.4633
  770MOL0     H 3946   5.380   6.517   3.946  0.3500 -0.7165  1.0375
  770MOL0     H 3947   5.356   6.845   4.369 -0.6246 -1.5266  0.0597
  770MOL0     H 3948   5.485   6.521   4.425  2.3567 -0.1524  0.1288
  770MOL0     H 3949   5.551   6.654   4.532  0.1655  1.5271 -0.7670
  770MOL0     H 3950   5.382   6.654   4.497 -1.0234  0.6828 -2.4751
  771MOL0     O 3951  10.945   7.798   1.242  0.2585 -1.2816  0.4138
  771MOL0     C 3952  10.951   7.811   1.358  0.1143  0.5718 -1.4220
  771MOL0     O 3953  11.061   7.777   1.440 -0.0471  0.0288 -0.9419
  771MOL0     C 3954  11.159   7.712   1.372  0.1606  0.0419 -0.8152
  771MOL0     C 3955  11.149   7.573   1.340  0.8266 -0.4162 -0.2030
  771MOL0     C 3956  11.249   7.514   1.273 -0.6887  0.5040 -0.3000
  771MOL0     C 3957  11.359   7.582   1.230 -0.5962 -0.4884 -0.4158
  771MOL0     O 3958  11.449   7.503   1.165  1.1906 -0.1133  0.3665
  771MOL0     C 3959  11.534   7.568   1.063 -0.3000 -0.0437  0.2922
  771MOL0     C 3960  11.650   7.468   1.027 -0.1647  0.7210 -0.0409
  771MOL0     C 3961  11.789   7.514   1.057  1.2304  0.0193  0.6083
  771MOL0     C 3962  11.885   7.419   0.997 -0.6073 -0.5690 -0.2774
  771MOL0     C 3963  12.023   7.426   1.059  0.7193  0.7696 -0.5002
  771MOL0     C 3964  12.124   7.344   0.987  0.5510 -0.3270  0.2497
  771MOL0     C 3965  12.270   7.382   1.031  0.3370 -0.4733  0.9108
  771MOL0     C 3966  12.295   7.338   1.176  0.3178  0.0022  0.2914
  771MOL0     N 3967  12.440   7.342   1.207  0.7501 -0.7559 -0.8408
  771MOL0     C 3968  12.518   7.455   1.174  0.7294 -0.3959  0.2383
  771MOL0     C 3969  12.643   7.426   1.222  0.5524 -0.0721 -0.5069
  771MOL0     C 3970  12.766   7.511   1.219  0.3532  0.6499 -0.1345
  771MOL0     C 3971  12.834   7.494   1.079  0.0034  0.1169  0.0246
  771MOL0     C 3972  12.912   7.356   1.068  0.3158 -1.0613  0.4709
  771MOL0     C 3973  12.938   7.330   0.915 -0.2012 -0.1809 -0.1232
  771MOL0     O 3974  12.987   7.445   0.843  0.1004 -0.7143  0.3269
  771MOL0     C 3975  13.108   7.506   0.874 -0.4847 -0.1893 -0.0320
  771MOL0     C 3976  13.210   7.452   0.956  0.6663 -0.0235 -0.2565
  771MOL0     C 3977  13.331   7.519   0.978  0.0686  0.3564  0.1159
  771MOL0     C 3978  13.350   7.639   0.906 -0.6130 -1.0421 -0.6480
  771MOL0     C 3979  13.490   7.697   0.926  0.1540  0.0145  0.1284
  771MOL0     O 3980  13.565   7.655   1.037  0.5973  0.7589  0.2256
  771MOL0     C 3981  13.695   7.700   1.048  0.6751 -0.1652 -0.0493
  771MOL0     C 3982  13.801   7.624   1.004 -0.6023 -0.0437  0.1289
  771MOL0     C 3983  13.933   7.662   1.001 -0.2700 -0.2118  0.6650
  771MOL0     C 3984  13.959   7.788   1.054  0.6164  0.4283  0.3909
  771MOL0     O 3985  14.087   7.836   1.037  0.1113 -0.9107 -0.6062
  771MOL0     C 3986  14.122   7.967   1.089  0.1787 -0.5284 -0.4391
  771MOL0     C 3987  14.265   8.010   1.071  0.4031 -0.5446 -0.3362
  771MOL0     C 3988  14.300   8.041   0.928  0.2425 -0.0838 -0.1184
  771MOL0     C 3989  14.447   8.098   0.929 -0.8485 -0.0489 -0.7303
  771MOL0     C 3990  14.488   8.146   0.792 -0.0184  1.0164  0.1635
  771MOL0     C 3991  14.628   8.198   0.794 -0.5944  0.0691  0.3172
  771MOL0     C 3992  14.669   8.227   0.646  0.6513  0.6234 -0.7507
  771MOL0     C 3993  14.804   8.296   0.638  0.1056  0.0029 -0.6824
  771MOL0    Cl 3994  14.932   8.229   0.751 -0.1515  0.1925  0.0591
  771MOL0     C 3995  13.855   7.868   1.107 -0.4388 -0.1098  0.3502
  771MOL0     C 3996  13.722   7.825   1.108  0.0357  0.0045  0.4534
  771MOL0     O 3997  13.523   7.786   0.849 -1.1178  0.0672  0.0982
  771MOL0     C 3998  13.255   7.692   0.829 -0.6741 -0.6877 -0.5918
  771MOL0     C 3999  13.133   7.628   0.815 -0.3465  0.8006 -0.3444
  771MOL0     N 4000  12.637   7.298   1.276  0.5565 -0.3013  0.0762
  771MOL0     N 4001  12.511   7.250   1.268 -0.1187 -0.4133  0.4130
  771MOL0     C 4002  11.370   7.721   1.264  0.1104  1.4788 -0.0649
  771MOL0     C 4003  11.270   7.781   1.335 -0.3372  0.0343 -1.1690
  771MOL0     C 4004  10.848   7.891   1.422 -0.0444 -1.3933  0.4736
  771MOL0     C 4005  10.824   7.871   1.563 -0.0919 -0.4868 -0.1593
  771MOL0     C 4006  10.729   7.935   1.638 -0.1561  0.2252 -0.2056
  771MOL0     C 4007  10.651   8.020   1.574 -1.1473  0.1478 -0.7933
  771MOL0     O 4008  10.559   8.084   1.648 -0.1146 -0.0799  0.0058
  771MOL0     C 4009  10.452   8.160   1.587  0.2370 -0.3912  0.6425
  771MOL0     C 4010  10.407   8.247   1.697  0.6644 -0.1558  0.1937
  771MOL0     C 4011  10.511   8.362   1.727  1.0230  0.1764 -0.1371
  771MOL0     C 4012  10.489   8.445   1.849  0.3980 -0.0752 -0.8702
  771MOL0     C 4013  10.352   8.501   1.860  0.3006  0.2348 -1.0495
  771MOL0     C 4014  10.239   8.546   1.878  0.1500  0.6552 -1.2501
  771MOL0     C 4015  10.663   8.048   1.442 -0.3301  0.0657  0.4295
  771MOL0     C 4016  10.763   7.993   1.361  0.2951 -0.0268 -0.4676
  771MOL0     C 4017  10.754   8.035   1.216 -0.2742  0.3880  0.5727
  771MOL0     H 4018  11.068   7.505   1.367  0.4026  0.4059  0.6446
  771MOL0     H 4019  11.236   7.409   1.250 -1.7780  1.1750 -3.1410
  771MOL0     H 4020  11.478   7.595   0.973  0.9542 -0.4043 -0.6235
  771MOL0     H 4021  11.582   7.661   1.097  0.1414  0.3819 -1.4003
  771MOL0     H 4022  11.644   7.449   0.920 -0.3028 -0.5065  0.1654
  771MOL0     H 4023  11.630   7.371   1.073  1.0215  0.4700 -0.0147
  771MOL0     H 4024  11.793   7.510   1.166 -3.7231  0.6967  1.0582
  771MOL0     H 4025  11.787   7.613   1.011 -1.8553 -0.6638 -1.0482
  771MOL0     H 4026  11.846   7.317   1.005  0.2031 -0.7968  1.0895
  771MOL0     H 4027  11.899   7.441   0.890  0.9517 -0.0461  0.0158
  771MOL0     H 4028  12.045   7.533   1.065 -0.1497  1.1188 -2.7456
  771MOL0     H 4029  12.019   7.386   1.161 -0.8475 -1.2308 -1.2783
  771MOL0     H 4030  12.105   7.238   1.006 -0.5350 -0.0053  1.0962
  771MOL0     H 4031  12.117   7.369   0.881 -0.2810 -0.7309  0.2015
  771MOL0     H 4032  12.286   7.489   1.017 -0.3646 -0.7687 -3.6256
  771MOL0     H 4033  12.334   7.330   0.960  1.3085  0.9043  0.7489
  771MOL0     H 4034  12.230   7.396   1.242  0.6485  0.5307  0.1513
  771MOL0     H 4035  12.259   7.234   1.172 -1.8763  0.6928  0.8233
  771MOL0     H 4036  12.485   7.544   1.121  2.5982 -0.5580 -1.3400
  771MOL0     H 4037  12.751   7.619   1.233 -0.3741  0.6789 -1.0747
  771MOL0     H 4038  12.833   7.474   1.297  0.6781 -0.4378 -0.9025
  771MOL0     H 4039  12.756   7.498   1.003 -1.1967 -4.0043  0.8277
  771MOL0     H 4040  12.915   7.567   1.065  0.6767 -0.6063  0.1291
  771MOL0     H 4041  12.854   7.276   1.115 -0.5089 -0.1131  1.0889
  771MOL0     H 4042  13.006   7.364   1.124 -0.0335  0.3009  0.8814
  771MOL0     H 4043  12.850   7.290   0.863  1.1569 -3.2278 -0.2995
  771MOL0     H 4044  13.019   7.257   0.916  0.3284  0.3983  1.4216
  771MOL0     H 4045  13.195   7.352   0.996 -2.3566  1.1019  1.7912
  771MOL0     H 4046  13.405   7.475   1.044 -1.2915  0.3799  1.7397
  771MOL0     H 4047  13.776   7.525   0.967 -2.4068  1.1370 -2.0666
  771MOL0     H 4048  14.003   7.602   0.942 -0.8118 -1.4853  1.2761
  771MOL0     H 4049  14.053   8.039   1.045  3.6497  0.8766 -4.1022
  771MOL0     H 4050  14.088   7.953   1.193  1.1039 -2.5911 -0.3649
  771MOL0     H 4051  14.299   8.088   1.139  3.0041 -1.4166 -0.5194
  771MOL0     H 4052  14.322   7.922   1.102  0.9533  0.0784  0.4229
  771MOL0     H 4053  14.276   7.956   0.864 -2.3449 -1.8211  2.8634
  771MOL0     H 4054  14.239   8.122   0.887  0.3366 -0.6664 -1.4463
  771MOL0     H 4055  14.524   8.034   0.974 -2.5149 -1.8661 -0.3242
  771MOL0     H 4056  14.447   8.192   0.985 -1.0585  0.5714 -1.7558
  771MOL0     H 4057  14.434   8.232   0.751  0.5559 -0.6419 -4.7584
  771MOL0     H 4058  14.478   8.070   0.714  0.7631  2.8478 -1.8379
  771MOL0     H 4059  14.635   8.287   0.857 -0.1384 -0.0237  0.3983
  771MOL0     H 4060  14.703   8.128   0.832  1.8672  2.3863 -0.0320
  771MOL0     H 4061  14.600   8.272   0.574 -1.3793 -3.8380 -1.9710
  771MOL0     H 4062  14.691   8.128   0.605 -0.3212  0.3039 -0.5065
  771MOL0     H 4063  14.843   8.305   0.536  1.3795  2.8428 -0.0403
  771MOL0     H 4064  14.782   8.395   0.680  0.7955  0.2241 -0.8283
  771MOL0     H 4065  13.868   7.968   1.145 -2.9471  1.2641 -2.0493
  771MOL0     H 4066  13.641   7.891   1.136  1.5942  2.5928 -0.7962
  771MOL0     H 4067  13.275   7.787   0.780  2.4782 -1.0726 -0.2697
  771MOL0     H 4068  13.050   7.667   0.756  0.0121  2.8046  0.3930
  771MOL0     H 4069  11.461   7.777   1.245  1.8805 -0.0587  3.0971
  771MOL0     H 4070  11.282   7.880   1.378  1.4750 -0.2816 -0.8623
  771MOL0     H 4071  10.899   7.814   1.616  0.6132  1.9336  1.6029
  771MOL0     H 4072  10.710   7.922   1.744  3.1270  0.3553  0.4821
  771MOL0     H 4073  10.363   8.106   1.552  1.3008 -0.8254 -1.5824
  771MOL0     H 4074  10.488   8.221   1.504  1.4637 -1.2343  0.5376
  771MOL0     H 4075  10.415   8.189   1.790 -1.3186 -1.9214 -0.6547
  771MOL0     H 4076  10.306   8.288   1.683  0.7734  0.3407  0.8443
  771MOL0     H 4077  10.526   8.418   1.635  1.2813 -1.8876 -1.4334
  771MOL0     H 4078  10.606   8.308   1.731  1.0162  0.2443  1.6109
  771MOL0     H 4079  10.499   8.390   1.943  1.2760 -0.1740 -1.0129
  771MOL0     H 4080  10.549   8.536   1.836  0.6270 -0.1447 -0.3365
  771MOL0     H 4081  10.141   8.584   1.858 -0.6887  0.6930  2.3031
  771MOL0     H 4082  10.600   8.107   1.376  1.7463  0.0337 -1.6911
  771MOL0     H 4083  10.758   7.945   1.154  1.2927  2.1104 -2.0012
  771MOL0     H 4084  10.662   8.086   1.184 -0.4068  0.7801  1.5540
  771MOL0     H 4085  10.842   8.096   1.193 -0.4876  0.4082 -0.2536
  772MOL0     O 4086   1.458   3.223   7.773 -0.3873  0.8996 -0.2765
  772MOL0     C 4087   1.386   3.235   7.670  1.0152 -0.4850 -0.0202
  772MOL0     O 4088   1.422   3.279   7.537  0.0619  0.8605 -0.1208
  772MOL0     C 4089   1.554   3.308   7.526 -0.1768  0.4319  0.4215
  772MOL0     C 4090   1.604   3.437   7.562  0.3103 -0.1520  1.0481
  772MOL0     C 4091   1.734   3.478   7.517  0.3417  0.3647 -0.9133
  772MOL0     C 4092   1.813   3.396   7.436 -1.0135  0.9407 -0.1228
  772MOL0     O 4093   1.932   3.448   7.395 -0.7491  0.0741  0.4214
  772MOL0     C 4094   1.943   3.469   7.257 -0.2907  0.3176  0.2042
  772MOL0     C 4095   2.070   3.556   7.232  0.1670  0.2362 -0.0705
  772MOL0     C 4096   2.205   3.493   7.280  0.6449 -0.7707  1.2739
  772MOL0     C 4097   2.233   3.373   7.195 -0.0386  0.2101  1.2851
  772MOL0     C 4098   2.368   3.315   7.245  0.2872  0.4009  0.5211
  772MOL0     C 4099   2.435   3.227   7.131 -0.3295 -0.5004 -0.0642
  772MOL0     C 4100   2.576   3.191   7.176  1.0334 -0.4990  0.1421
  772MOL0     C 4101   2.639   3.106   7.075  0.4343 -0.2072  0.3802
  772MOL0     N 4102   2.769   3.068   7.130 -0.4092 -0.0960  0.2564
  772MOL0     C 4103   2.882   3.139   7.119  0.1348 -0.2329 -0.0600
  772MOL0     C 4104   2.985   3.058   7.160  0.2859  0.2534 -0.3566
  772MOL0     C 4105   3.126   3.109   7.169 -0.3696  0.0238  0.3358
  772MOL0     C 4106   3.205   3.041   7.056  0.2692 -0.3389 -0.7494
  772MOL0     C 4107   3.346   3.089   7.073  0.3233 -0.5190 -0.2441
  772MOL0     C 4108   3.446   3.049   6.959 -0.3438 -0.0110 -0.1979
  772MOL0     O 4109   3.576   3.080   7.017 -0.3354 -0.6994 -0.5568
  772MOL0     C 4110   3.690   3.033   6.957 -0.1330  0.0308 -0.0748
  772MOL0     C 4111   3.708   2.956   6.839  0.3852  0.2153  0.1739
  772MOL0     C 4112   3.837   2.927   6.789 -0.3435  0.6017 -0.7467
  772MOL0     C 4113   3.955   2.968   6.862 -0.3190  0.8834  0.3757
  772MOL0     C 4114   4.091   2.928   6.825 -0.6362 -0.5723 -0.2082
  772MOL0     O 4115   4.195   3.000   6.878 -0.1218 -0.1993  0.1172
  772MOL0     C 4116   4.330   2.978   6.837 -0.0099  0.2917  0.9658
  772MOL0     C 4117   4.407   2.860   6.804 -0.0576  0.1096 -0.4346
  772MOL0     C 4118   4.546   2.866   6.769 -0.2282  0.3129  0.8254
  772MOL0     C 4119   4.618   2.981   6.762 -0.3026 -1.8023  0.4764
  772MOL0     O 4120   4.753   2.992   6.724  0.0452  0.4603 -0.8555
  772MOL0     C 4121   4.805   2.899   6.637 -0.0750 -1.1693 -0.6366
  772MOL0     C 4122   4.938   2.940   6.575 -0.5722 -0.2896 -0.1629
  772MOL0     C 4123   5.024   2.823   6.507  0.7752  0.3965 -0.3990
  772MOL0     C 4124   5.143   2.886   6.460  0.2316  0.4996  0.8389
  772MOL0     C 4125   5.249   2.780   6.416  1.0400 -0.6153 -0.1989
  772MOL0     C 4126   5.376   2.846   6.372 -0.2718  0.1664 -0.1011
  772MOL0     C 4127   5.463   2.728   6.330  0.2384  0.9319  0.3885
  772MOL0     C 4128   5.608   2.778   6.304  0.3575  0.0357  0.1201
  772MOL0    Cl 4129   5.675   2.817   6.454 -0.2091 -0.1948 -0.3516
  772MOL0     C 4130   4.545   3.101   6.788 -0.1493 -0.0135 -0.2450
  772MOL0     C 4131   4.411   3.093   6.830  0.6286  0.2620  0.9772
  772MOL0     O 4132   4.095   2.836   6.740  0.4442  0.2306  0.2250
  772MOL0     C 4133   3.934   3.055   6.975  0.6492  0.1300 -0.3778
  772MOL0     C 4134   3.804   3.084   7.021  0.0950  0.3539  0.2493
  772MOL0     N 4135   2.920   2.940   7.198 -0.1895 -0.0641 -0.4462
  772MOL0     N 4136   2.795   2.948   7.177  0.0630 -0.3932  0.2674
  772MOL0     C 4137   1.759   3.274   7.405 -1.5207 -0.3697 -0.2264
  772MOL0     C 4138   1.635   3.233   7.446  1.0072  0.0580  0.1894
  772MOL0     C 4139   1.243   3.202   7.704  0.1666 -1.0313 -0.3598
  772MOL0     C 4140   1.216   3.086   7.783  0.1302 -0.9175 -0.1893
  772MOL0     C 4141   1.088   3.052   7.816  0.5882  0.2788  0.0381
  772MOL0     C 4142   0.981   3.133   7.772 -0.2383  0.4382 -0.0792
  772MOL0     O 4143   0.863   3.092   7.825  0.0701 -0.3972 -0.1805
  772MOL0     C 4144   0.745   3.168   7.799  0.0936  0.4759 -0.6901
  772MOL0     C 4145   0.688   3.120   7.667  0.1591  0.1964  0.5407
  772MOL0     C 4146   0.541   3.166   7.637  0.2113 -0.5409 -0.1232
  772MOL0     C 4147   0.476   3.084   7.532  0.4920 -0.6721  0.7721
  772MOL0     C 4148   0.341   3.131   7.486  0.0076 -0.1718 -0.1352
  772MOL0     C 4149   0.238   3.180   7.438 -0.3870 -0.0407  0.8965
  772MOL0     C 4150   1.003   3.250   7.688  0.0259  0.6975 -0.2473
  772MOL0     C 4151   1.140   3.286   7.664 -0.0556 -0.2643  0.0284
  772MOL0     C 4152   1.167   3.417   7.588  0.1300 -0.7956 -0.4718
  772MOL0     H 4153   1.543   3.493   7.633 -2.5237 -2.2829  0.5094
  772MOL0     H 4154   1.767   3.574   7.557 -0.1988 -0.6273  2.1866
  772MOL0     H 4155   1.949   3.376   7.199 -0.3206  2.1289 -2.8865
  772MOL0     H 4156   1.859   3.526   7.216  0.1812  0.0185 -1.2320
  772MOL0     H 4157   2.054   3.653   7.280 -1.2982  0.4676 -0.9570
  772MOL0     H 4158   2.086   3.571   7.124  1.8409 -1.5769 -0.1299
  772MOL0     H 4159   2.209   3.466   7.386  0.0885  1.1867  1.8363
  772MOL0     H 4160   2.281   3.571   7.267 -0.7098  0.5014  0.7026
  772MOL0     H 4161   2.150   3.304   7.214  1.3513 -1.7582  0.5869
  772MOL0     H 4162   2.250   3.406   7.092  1.2416  0.2221  1.4805
  772MOL0     H 4163   2.439   3.395   7.262  0.6395  0.1853  0.0892
  772MOL0     H 4164   2.358   3.256   7.337 -0.6157 -0.5033 -0.1254
  772MOL0     H 4165   2.370   3.144   7.105 -3.0217  0.9813  1.4553
  772MOL0     H 4166   2.452   3.289   7.043  1.4455  0.7031  1.0442
  772MOL0     H 4167   2.574   3.148   7.277  1.2557 -0.8806 -0.0147
  772MOL0     H 4168   2.631   3.283   7.199 -1.0658  0.5084  1.4137
  772MOL0     H 4169   2.578   3.016   7.067  0.8501 -0.5464  0.9299
  772MOL0     H 4170   2.651   3.170   6.987  1.2603  2.0316  2.0127
  772MOL0     H 4171   2.899   3.239   7.082  3.0998 -0.9222 -0.8331
  772MOL0     H 4172   3.132   3.218   7.164  0.9405 -0.0585 -0.5028
  772MOL0     H 4173   3.154   3.071   7.267 -0.6530 -2.7076 -0.5719
  772MOL0     H 4174   3.201   2.931   7.056 -1.5103 -0.3047 -0.4656
  772MOL0     H 4175   3.159   3.077   6.963  0.9536  0.7002 -0.6961
  772MOL0     H 4176   3.381   3.070   7.175  0.5315 -2.9509 -0.7035
  772MOL0     H 4177   3.341   3.198   7.066  1.8719 -0.5520 -3.4089
  772MOL0     H 4178   3.424   3.115   6.874  0.6450  1.5577  0.7230
  772MOL0     H 4179   3.433   2.943   6.936  2.5859 -0.1923 -1.4789
  772MOL0     H 4180   3.625   2.917   6.781 -1.6288  0.2340  2.8767
  772MOL0     H 4181   3.850   2.880   6.692 -3.0593 -1.0560 -0.4127
  772MOL0     H 4182   4.352   2.768   6.786 -1.2955  0.8838 -0.7356
  772MOL0     H 4183   4.596   2.772   6.747 -1.3842  0.1505 -1.4253
  772MOL0     H 4184   4.832   2.821   6.709 -2.2884 -1.0725  0.4092
  772MOL0     H 4185   4.732   2.862   6.565  0.1075 -1.4978 -0.6540
  772MOL0     H 4186   4.933   3.030   6.513 -0.0659  0.9677  1.5584
  772MOL0     H 4187   4.992   2.986   6.658 -0.2085  0.4998 -0.8224
  772MOL0     H 4188   5.046   2.750   6.585  2.3325  2.3566  1.1221
  772MOL0     H 4189   4.966   2.774   6.429  1.8168 -0.5885 -0.5722
  772MOL0     H 4190   5.183   2.950   6.539  1.4784 -1.5725  1.9691
  772MOL0     H 4191   5.128   2.959   6.379  3.3766  1.1453  0.7152
  772MOL0     H 4192   5.205   2.717   6.338 -0.8993 -0.4268  0.6675
  772MOL0     H 4193   5.280   2.724   6.505 -2.4004 -0.2535  1.3898
  772MOL0     H 4194   5.355   2.914   6.289 -2.2614  3.9061  3.1107
  772MOL0     H 4195   5.420   2.912   6.447  0.9252  0.1999 -0.8096
  772MOL0     H 4196   5.422   2.671   6.246  2.1664  0.4681 -0.3011
  772MOL0     H 4197   5.460   2.662   6.417 -2.3517  0.9970  0.4347
  772MOL0     H 4198   5.666   2.696   6.260  3.3597  2.0882  0.0223
  772MOL0     H 4199   5.614   2.864   6.237 -4.1599  0.2249 -0.3392
  772MOL0     H 4200   4.598   3.196   6.783 -2.1162  1.2917  1.8249
  772MOL0     H 4201   4.373   3.193   6.849 -1.3471  0.0481 -1.3488
  772MOL0     H 4202   4.019   3.083   7.036  1.8041 -5.2778  1.0751
  772MOL0     H 4203   3.790   3.148   7.107  2.2168  1.7515 -0.3691
  772MOL0     H 4204   1.803   3.201   7.338 -0.3831 -0.9319  1.0852
  772MOL0     H 4205   1.602   3.141   7.399  0.3277  0.8158 -0.8814
  772MOL0     H 4206   1.296   3.026   7.826  0.7182 -1.4614 -1.9733
  772MOL0     H 4207   1.064   2.971   7.884  0.5389  0.1094 -0.1826
  772MOL0     H 4208   0.764   3.273   7.774 -0.8741  0.5884 -0.9997
  772MOL0     H 4209   0.668   3.159   7.876 -0.4816 -0.9607 -1.3905
  772MOL0     H 4210   0.695   3.012   7.655 -0.6005  0.3791 -1.9781
  772MOL0     H 4211   0.756   3.151   7.587  1.7312  0.7054  1.9947
  772MOL0     H 4212   0.529   3.269   7.603 -0.7197 -0.0737  1.5417
  772MOL0     H 4213   0.481   3.168   7.728 -1.2218  1.8600 -1.0134
  772MOL0     H 4214   0.539   3.086   7.443  0.6087  0.0105  0.8655
  772MOL0     H 4215   0.461   2.983   7.571 -1.0300 -1.7168 -2.2292
  772MOL0     H 4216   0.157   3.228   7.387  0.3821  0.8245  0.4596
  772MOL0     H 4217   0.927   3.319   7.654  0.3115  1.1600  0.0298
  772MOL0     H 4218   1.077   3.477   7.573  1.0947  1.4498  1.8500
  772MOL0     H 4219   1.245   3.481   7.631  0.1666 -0.0263 -1.6319
  772MOL0     H 4220   1.201   3.402   7.485  0.3678  0.2854 -0.5592
  773MOL0     O 4221  10.287  10.226   7.762  0.0909  0.0880 -0.2962
  773MOL0     C 4222  10.228  10.120   7.751 -0.3638 -0.0060 -0.0249
  773MOL0     O 4223  10.290  10.005   7.708 -0.2737 -0.1443  0.4562
  773MOL0     C 4224  10.421  10.004   7.677 -1.0941 -0.8442  0.3253
  773MOL0     C 4225  10.470   9.967   7.553 -0.1606 -0.6050 -0.6528
  773MOL0     C 4226  10.610   9.978   7.521  0.0080  0.4167 -0.5309
  773MOL0     C 4227  10.702  10.023   7.615 -0.1338 -0.3681  0.0060
  773MOL0     O 4228  10.836  10.024   7.593 -0.5340 -0.0481 -1.0823
  773MOL0     C 4229  10.878  10.058   7.463  0.0890 -0.0311  0.5407
  773MOL0     C 4230  11.008  10.132   7.469  0.4033 -0.2913  0.0965
  773MOL0     C 4231  10.981  10.282   7.490 -0.3430 -0.9320 -0.0798
  773MOL0     C 4232  10.919  10.333   7.623 -0.5180  0.2417 -0.4821
  773MOL0     C 4233  10.905  10.481   7.647  0.2651 -0.3910 -0.5983
  773MOL0     C 4234  11.039  10.547   7.631  0.4382 -0.0524 -0.8054
  773MOL0     C 4235  11.047  10.671   7.699 -0.1736 -0.6526  0.3985
  773MOL0     C 4236  11.067  10.666   7.860 -0.9902 -0.5455  0.6840
  773MOL0     N 4237  11.146  10.781   7.914  0.0818  0.4048 -0.1212
  773MOL0     C 4238  11.089  10.900   7.942 -0.4872 -0.1624 -0.7551
  773MOL0     C 4239  11.186  10.974   8.004 -1.2576 -0.2298 -0.6274
  773MOL0     C 4240  11.161  11.118   8.048 -0.3874  0.4505  0.4283
  773MOL0     C 4241  11.144  11.227   7.936 -0.2671  0.1654 -0.4336
  773MOL0     C 4242  11.253  11.236   7.829  0.4692  0.0469  0.0870
  773MOL0     C 4243  11.400  11.239   7.881 -0.1923  0.4726  0.7235
  773MOL0     O 4244  11.412  11.325   7.990  0.2724 -0.1563  0.2327
  773MOL0     C 4245  11.537  11.340   8.039  0.0511  0.5572 -0.4377
  773MOL0     C 4246  11.547  11.460   8.105  0.1590  0.5219  0.8897
  773MOL0     C 4247  11.670  11.485   8.161 -0.6036  0.0659 -0.0887
  773MOL0     C 4248  11.783  11.399   8.157  0.8294  0.2715  0.5029
  773MOL0     C 4249  11.907  11.444   8.214  0.5924  0.1184  0.7353
  773MOL0     O 4250  11.922  11.581   8.232 -0.1941 -0.9415 -0.0327
  773MOL0     C 4251  12.049  11.615   8.284  1.2788  0.4174  0.9660
  773MOL0     C 4252  12.066  11.620   8.419 -0.7598 -0.9109  0.0802
  773MOL0     C 4253  12.185  11.657   8.484  0.3212 -0.9457 -0.2292
  773MOL0     C 4254  12.300  11.663   8.411  0.3566 -0.0201  0.1522
  773MOL0     O 4255  12.410  11.716   8.463 -0.4206  0.5340 -0.8675
  773MOL0     C 4256  12.520  11.629   8.470 -0.1759 -0.5864 -0.6095
  773MOL0     C 4257  12.641  11.703   8.525 -0.7098 -0.3168  0.7659
  773MOL0     C 4258  12.696  11.816   8.436 -0.1663 -0.0909  0.2252
  773MOL0     C 4259  12.844  11.843   8.456 -0.1590 -0.2395 -1.0650
  773MOL0     C 4260  12.889  11.978   8.392  0.1457  0.2750 -0.8998
  773MOL0     C 4261  13.036  11.968   8.339  0.2029  0.2359  0.3934
  773MOL0     C 4262  13.137  11.939   8.445 -0.3682  0.2715  0.0327
  773MOL0     C 4263  13.280  11.920   8.388  0.4432  0.2584  0.4960
  773MOL0    Cl 4264  13.354  12.067   8.295 -0.0105  0.3843  0.2206
  773MOL0     C 4265  12.284  11.650   8.270  0.4154  0.5081 -0.3032
  773MOL0     C 4266  12.167  11.629   8.201  0.2570 -0.0293  0.1908
  773MOL0     O 4267  11.997  11.360   8.235  0.0185  0.0107  0.0598
  773MOL0     C 4268  11.764  11.277   8.078 -0.7575 -0.0112 -0.2139
  773MOL0     C 4269  11.640  11.251   8.027  0.4366 -0.7764 -0.1398
  773MOL0     N 4270  11.302  10.895   8.006  0.0999  0.3588 -0.1740
  773MOL0     N 4271  11.273  10.778   7.959 -0.1305  0.3617  1.0475
  773MOL0     C 4272  10.656  10.062   7.743  0.2943 -0.9124 -0.3745
  773MOL0     C 4273  10.519  10.056   7.773  0.2899 -0.2153  1.1545
  773MOL0     C 4274  10.071  10.114   7.778  0.2792  0.4889  0.0628
  773MOL0     C 4275  10.000   9.990   7.765  0.3927  0.6311  0.0013
  773MOL0     C 4276   9.859   9.987   7.759 -0.3061  1.0452 -0.2424
  773MOL0     C 4277   9.785  10.105   7.783  0.3484 -0.3982  0.7284
  773MOL0     O 4278   9.653  10.114   7.777  0.7772 -0.0809  0.0497
  773MOL0     C 4279   9.577  10.002   7.829 -0.2470  0.1114 -0.1285
  773MOL0     C 4280   9.425  10.036   7.865  0.3092 -0.0750  0.3563
  773MOL0     C 4281   9.407  10.185   7.919  0.8238 -0.5592 -0.2687
  773MOL0     C 4282   9.258  10.218   7.976 -0.4088 -0.2611 -0.0562
  773MOL0     C 4283   9.232  10.365   7.972  0.2477 -0.3285  0.6622
  773MOL0     C 4284   9.197  10.483   7.972  0.0826 -0.5635  0.1045
  773MOL0     C 4285   9.852  10.222   7.804 -0.4854 -0.5769  0.4153
  773MOL0     C 4286   9.992  10.238   7.792 -0.1999  0.5093  0.5487
  773MOL0     C 4287  10.052  10.376   7.799  0.2435  0.5567  0.0296
  773MOL0     H 4288  10.399   9.933   7.478  0.8287  1.4473 -2.6345
  773MOL0     H 4289  10.655   9.953   7.426  2.3263 -1.9339  1.0448
  773MOL0     H 4290  10.893   9.971   7.398 -1.7080  0.7899 -1.0681
  773MOL0     H 4291  10.803  10.124   7.418  1.9151  2.0290  0.3850
  773MOL0     H 4292  11.072  10.133   7.381 -1.6321  1.2949 -1.4864
  773MOL0     H 4293  11.063  10.086   7.552 -1.9314  0.0244  1.9228
  773MOL0     H 4294  10.935  10.342   7.410 -1.5023 -1.0075  0.5138
  773MOL0     H 4295  11.080  10.328   7.498 -0.5555 -0.0609 -1.8098
  773MOL0     H 4296  10.817  10.292   7.622 -0.5551  0.2153  1.5043
  773MOL0     H 4297  10.969  10.295   7.712 -0.2668  0.7762 -0.3916
  773MOL0     H 4298  10.828  10.521   7.581  0.0508  0.4299  0.1367
  773MOL0     H 4299  10.887  10.501   7.752  1.9701 -2.3599  0.1456
  773MOL0     H 4300  11.113  10.477   7.673  0.9336  0.4184 -0.8843
  773MOL0     H 4301  11.057  10.579   7.528  1.2609  1.7744 -0.1273
  773MOL0     H 4302  10.968  10.740   7.667  0.2166  0.0395  0.9084
  773MOL0     H 4303  11.139  10.708   7.653  0.0208 -0.4761  0.9247
  773MOL0     H 4304  10.976  10.653   7.920 -1.7353  1.6417  0.1206
  773MOL0     H 4305  11.126  10.578   7.887  1.3276  1.1650  1.5157
  773MOL0     H 4306  10.987  10.936   7.932  0.5429  3.1760 -0.4413
  773MOL0     H 4307  11.065  11.120   8.100 -1.3815  1.2791 -1.3273
  773MOL0     H 4308  11.244  11.144   8.115  0.7323  3.6727 -1.9309
  773MOL0     H 4309  11.052  11.196   7.885 -0.0715 -2.7765  0.7878
  773MOL0     H 4310  11.129  11.327   7.977 -2.6212  0.3969 -1.6486
  773MOL0     H 4311  11.231  11.326   7.771  0.5327  0.3339  0.5043
  773MOL0     H 4312  11.239  11.151   7.761  1.3544  0.0338 -0.0986
  773MOL0     H 4313  11.471  11.271   7.804 -0.7945 -2.0196 -1.0168
  773MOL0     H 4314  11.423  11.132   7.894  0.0612  0.5285  0.7468
  773MOL0     H 4315  11.469  11.534   8.088  1.3387  1.5486 -0.2357
  773MOL0     H 4316  11.680  11.585   8.202  3.5737 -0.0942 -0.2635
  773MOL0     H 4317  11.982  11.593   8.481 -1.4358  1.5966  0.3464
  773MOL0     H 4318  12.184  11.659   8.592 -0.5586 -2.0989 -0.1921
  773MOL0     H 4319  12.500  11.546   8.539 -0.4461  1.1984  1.5661
  773MOL0     H 4320  12.548  11.586   8.373  0.2575 -1.1153 -0.2595
  773MOL0     H 4321  12.625  11.759   8.617  0.8139 -0.9894  1.4941
  773MOL0     H 4322  12.726  11.636   8.546  0.0068  0.7125  1.2259
  773MOL0     H 4323  12.675  11.778   8.336  1.0172 -0.3421  0.0547
  773MOL0     H 4324  12.633  11.905   8.444 -3.6853 -2.5510  3.4007
  773MOL0     H 4325  12.896  11.764   8.401 -0.6137  0.1722 -2.1140
  773MOL0     H 4326  12.876  11.841   8.561 -1.9278  3.5566 -0.2983
  773MOL0     H 4327  12.886  12.059   8.465  1.0446  0.0766 -0.6405
  773MOL0     H 4328  12.824  12.004   8.307  0.0781 -0.2253 -1.0105
  773MOL0     H 4329  13.025  11.888   8.265  1.1742 -2.4411  2.9666
  773MOL0     H 4330  13.059  12.060   8.284 -3.8691  0.4601 -1.2700
  773MOL0     H 4331  13.119  11.851   8.506 -1.5348  1.3211  1.2448
  773MOL0     H 4332  13.136  12.025   8.513 -1.5528 -1.2784  2.0733
  773MOL0     H 4333  13.344  11.902   8.475 -0.3207 -2.5304  0.5750
  773MOL0     H 4334  13.282  11.832   8.324  2.2516  0.7999 -0.2320
  773MOL0     H 4335  12.368  11.655   8.202 -1.1486 -1.6030 -2.5503
  773MOL0     H 4336  12.174  11.633   8.093 -3.4453  0.5117 -0.1576
  773MOL0     H 4337  11.851  11.212   8.082  0.1862  1.2855  1.5906
  773MOL0     H 4338  11.637  11.156   7.975  0.9235 -1.0324  0.2966
  773MOL0     H 4339  10.729  10.095   7.816 -1.1944  1.5312  0.0792
  773MOL0     H 4340  10.495  10.088   7.874  0.7798 -0.4415  1.3449
  773MOL0     H 4341  10.060   9.903   7.741 -0.0054 -0.6863  3.3109
  773MOL0     H 4342   9.812   9.891   7.745  0.1617  0.5043  1.6080
  773MOL0     H 4343   9.635   9.963   7.914  0.9991  0.9722 -0.5570
  773MOL0     H 4344   9.570   9.924   7.753 -0.9560  0.8013 -0.7856
  773MOL0     H 4345   9.393   9.972   7.948  1.6479  3.4251  3.9573
  773MOL0     H 4346   9.356  10.019   7.782  1.9111  0.1066 -1.0714
  773MOL0     H 4347   9.431  10.250   7.834  3.7386 -1.4901 -0.2615
  773MOL0     H 4348   9.483  10.209   7.994  0.5322  0.1029 -0.1824
  773MOL0     H 4349   9.179  10.176   7.912 -0.8065  2.1553 -1.2798
  773MOL0     H 4350   9.248  10.175   8.076 -0.6164 -0.1230 -0.0163
  773MOL0     H 4351   9.185  10.589   7.961 -2.8249 -0.7165  0.8286
  773MOL0     H 4352   9.788  10.306   7.827  0.4313  0.0992  0.5501
  773MOL0     H 4353   9.972  10.451   7.796 -0.0723  0.1993 -2.2486
  773MOL0     H 4354  10.112  10.388   7.890  2.6093 -1.7593 -1.1044
  773MOL0     H 4355  10.118  10.388   7.712  0.5437 -1.1588 -0.0108
  774MOL0     O 4356   6.436   5.952   5.647 -0.2157  0.1544 -0.1399
  774MOL0     C 4357   6.370   5.851   5.631 -0.3253 -0.4201  0.0234
  774MOL0     O 4358   6.414   5.729   5.659 -0.4411  0.6243 -0.4713
  774MOL0     C 4359   6.550   5.721   5.700  0.7056 -0.3139  0.2083
  774MOL0     C 4360   6.577   5.717   5.829 -0.0820  0.4772 -0.3893
  774MOL0     C 4361   6.700   5.670   5.874  0.5193 -0.2626 -0.4987
  774MOL0     C 4362   6.806   5.640   5.791  0.0090  0.7335 -0.8215
  774MOL0     O 4363   6.932   5.603   5.832 -0.3484  0.5533 -0.2457
  774MOL0     C 4364   6.968   5.637   5.963  0.2107  1.2239  0.6452
  774MOL0     C 4365   7.101   5.583   5.998 -0.7569 -0.2396 -0.3130
  774MOL0     C 4366   7.235   5.643   5.943 -0.0205 -0.1669 -0.0221
  774MOL0     C 4367   7.316   5.558   5.841  0.5554  0.1371  0.4480
  774MOL0     C 4368   7.304   5.627   5.698  0.3109  0.1798 -0.2496
  774MOL0     C 4369   7.384   5.545   5.592 -0.6138  0.1931  0.5790
  774MOL0     C 4370   7.533   5.554   5.609  0.6043 -1.2312  0.4591
  774MOL0     C 4371   7.596   5.444   5.531  0.2772  0.1778 -0.0612
  774MOL0     N 4372   7.752   5.433   5.534  0.1925  0.6804  0.4369
  774MOL0     C 4373   7.831   5.472   5.422  0.0919 -0.9823 -0.1865
  774MOL0     C 4374   7.967   5.446   5.452  0.6398  0.6958  0.0144
  774MOL0     C 4375   8.076   5.475   5.358  0.6036  0.0847 -0.1668
  774MOL0     C 4376   8.207   5.479   5.437  0.4707 -0.3792 -0.1075
  774MOL0     C 4377   8.326   5.542   5.363  0.2420  0.6658 -0.3430
  774MOL0     C 4378   8.438   5.518   5.455  0.0205 -0.8957  0.0358
  774MOL0     O 4379   8.559   5.558   5.394 -0.5764  0.5228  0.3947
  774MOL0     C 4380   8.677   5.519   5.459  0.6050  0.2108 -0.8021
  774MOL0     C 4381   8.696   5.529   5.598  0.8764 -0.3912  1.0344
  774MOL0     C 4382   8.831   5.522   5.652 -0.0700  0.2739 -0.2731
  774MOL0     C 4383   8.935   5.491   5.570 -0.0042  0.2541 -0.6437
  774MOL0     C 4384   9.072   5.461   5.625 -0.3618  0.8064  0.4467
  774MOL0     O 4385   9.168   5.410   5.537  0.2779  0.4505  0.0075
  774MOL0     C 4386   9.296   5.380   5.584  0.1353 -0.3171 -0.1248
  774MOL0     C 4387   9.355   5.276   5.510  1.0201 -0.0013 -0.0143
  774MOL0     C 4388   9.490   5.248   5.533  0.3278  0.3268  0.4056
  774MOL0     C 4389   9.567   5.320   5.626 -0.2255  0.3077  0.9249
  774MOL0     O 4390   9.706   5.279   5.633  0.3632  0.2184  0.0670
  774MOL0     C 4391   9.766   5.306   5.758  0.3151 -0.2745  0.5801
  774MOL0     C 4392   9.887   5.224   5.791  0.0778  0.0418  0.0948
  774MOL0     C 4393   9.999   5.253   5.691  0.6234  0.0393  1.1122
  774MOL0     C 4394  10.119   5.158   5.708 -0.3545 -0.4483 -0.0155
  774MOL0     C 4395  10.187   5.169   5.848  1.3772  0.0521  0.6749
  774MOL0     C 4396  10.301   5.073   5.868 -0.1822 -0.0238 -0.3146
  774MOL0     C 4397  10.415   5.086   5.761 -0.4823  0.4181  0.7625
  774MOL0     C 4398  10.531   4.991   5.787 -0.1463 -0.7955 -0.5270
  774MOL0    Cl 4399  10.593   5.006   5.956  0.3581 -0.3150  0.1944
  774MOL0     C 4400   9.509   5.422   5.698  0.8999  0.7944 -0.1394
  774MOL0     C 4401   9.374   5.451   5.675 -0.3478 -0.4456  0.0597
  774MOL0     O 4402   9.094   5.484   5.742 -0.1594 -0.4004 -0.2908
  774MOL0     C 4403   8.912   5.490   5.425  0.5187 -1.1654 -0.3033
  774MOL0     C 4404   8.783   5.501   5.376  0.1172 -0.2623  0.8308
  774MOL0     N 4405   7.955   5.373   5.573  0.0580 -0.4195  0.0826
  774MOL0     N 4406   7.836   5.367   5.616  0.1913 -0.6528  0.0040
  774MOL0     C 4407   6.781   5.660   5.654 -0.0496 -0.0244 -0.6029
  774MOL0     C 4408   6.653   5.679   5.605  0.1612  0.2014  0.2295
  774MOL0     C 4409   6.241   5.854   5.552 -0.2666 -0.1995  0.2391
  774MOL0     C 4410   6.199   5.735   5.492 -0.3816 -0.7961 -0.6380
  774MOL0     C 4411   6.102   5.740   5.400 -0.1121  0.2269  0.1577
  774MOL0     C 4412   6.032   5.853   5.378  0.2589  0.4558  0.5411
  774MOL0     O 4413   5.948   5.856   5.273  0.3741 -0.2674  0.0284
  774MOL0     C 4414   5.983   5.823   5.135 -0.1832  0.2454  0.7177
  774MOL0     C 4415   5.860   5.853   5.040  0.1552  0.1121 -0.1418
  774MOL0     C 4416   5.764   5.739   5.068 -0.3441 -0.1164 -0.1350
  774MOL0     C 4417   5.659   5.731   4.968  0.7530 -0.5686 -0.8312
  774MOL0     C 4418   5.574   5.851   4.974 -0.2176 -0.4167  0.1264
  774MOL0     C 4419   5.502   5.944   4.957  0.0638 -0.1812 -0.4721
  774MOL0     C 4420   6.057   5.969   5.446  0.2510  0.5137  0.5168
  774MOL0     C 4421   6.165   5.965   5.529 -0.2384  0.1615  0.4477
  774MOL0     C 4422   6.187   6.095   5.599 -0.3255  0.0769 -0.1827
  774MOL0     H 4423   6.495   5.742   5.896 -1.6147  2.7326 -2.8768
  774MOL0     H 4424   6.713   5.665   5.981  0.8724 -1.1541 -0.5780
  774MOL0     H 4425   6.965   5.744   5.980  0.2028  1.2953  0.2180
  774MOL0     H 4426   6.895   5.592   6.032 -1.4990  2.0904 -0.5210
  774MOL0     H 4427   7.107   5.475   5.978  2.7955 -0.3461  0.6836
  774MOL0     H 4428   7.116   5.581   6.106 -1.7313  0.1264 -0.1628
  774MOL0     H 4429   7.294   5.669   6.032  0.9405 -0.7251 -0.4787
  774MOL0     H 4430   7.216   5.738   5.892 -0.6062 -1.5719 -2.5555
  774MOL0     H 4431   7.420   5.548   5.874  1.1034 -0.5429 -1.3893
  774MOL0     H 4432   7.269   5.460   5.826 -0.6286  1.0727 -2.8342
  774MOL0     H 4433   7.199   5.633   5.671 -0.0934  3.0182  1.5465
  774MOL0     H 4434   7.351   5.725   5.692 -3.6804  2.1886 -1.4134
  774MOL0     H 4435   7.354   5.440   5.601 -1.5033  0.5435  2.2737
  774MOL0     H 4436   7.373   5.585   5.491  3.2640 -1.6126 -0.7814
  774MOL0     H 4437   7.578   5.556   5.709 -2.6210 -1.0758  2.0275
  774MOL0     H 4438   7.570   5.647   5.565  1.8975 -2.1970 -0.5682
  774MOL0     H 4439   7.564   5.351   5.579  3.4964 -1.5876 -1.0429
  774MOL0     H 4440   7.558   5.456   5.430 -2.0194 -1.6193  0.5080
  774MOL0     H 4441   7.791   5.544   5.351  1.4160  0.2990  0.3151
  774MOL0     H 4442   8.087   5.400   5.279 -0.6061  0.5800 -0.8368
  774MOL0     H 4443   8.053   5.573   5.313 -1.3307 -0.4955 -0.5393
  774MOL0     H 4444   8.192   5.534   5.531 -0.9979 -0.0563 -0.5149
  774MOL0     H 4445   8.240   5.379   5.467  0.3867 -0.0170  1.2676
  774MOL0     H 4446   8.318   5.649   5.343 -0.1091  0.3349 -2.1264
  774MOL0     H 4447   8.341   5.493   5.266  0.7258 -0.5245  0.3148
  774MOL0     H 4448   8.442   5.411   5.477 -4.1263 -1.1130  0.4933
  774MOL0     H 4449   8.414   5.564   5.552  0.9426  0.7869 -0.4936
  774MOL0     H 4450   8.615   5.547   5.668 -0.0114 -2.0101  0.4680
  774MOL0     H 4451   8.854   5.536   5.757 -1.1698  1.5324 -0.1726
  774MOL0     H 4452   9.292   5.226   5.437  1.8530 -0.5764 -0.3576
  774MOL0     H 4453   9.548   5.175   5.477  2.1766  2.0285 -0.0259
  774MOL0     H 4454   9.780   5.415   5.753  1.2435 -0.4478 -1.8588
  774MOL0     H 4455   9.696   5.282   5.838 -0.7961 -3.0466 -1.0833
  774MOL0     H 4456   9.917   5.250   5.893 -2.5551  1.0449  0.6863
  774MOL0     H 4457   9.865   5.117   5.779  1.8349 -0.3619  0.1068
  774MOL0     H 4458   9.964   5.226   5.591  1.8158 -3.0494  1.4146
  774MOL0     H 4459  10.012   5.361   5.704 -2.0122  0.3086  2.2335
  774MOL0     H 4460  10.181   5.189   5.624  0.3503 -0.9826  0.2982
  774MOL0     H 4461  10.086   5.054   5.702 -1.6079 -0.0188 -1.0925
  774MOL0     H 4462  10.116   5.156   5.930 -2.0266 -1.5560 -2.2157
  774MOL0     H 4463  10.227   5.270   5.840  4.5361 -1.2145 -1.6955
  774MOL0     H 4464  10.343   5.091   5.968  1.2696 -1.9907 -0.5082
  774MOL0     H 4465  10.261   4.972   5.880 -1.1248  0.3614 -0.1572
  774MOL0     H 4466  10.459   5.186   5.757 -0.6864  0.4774 -0.1253
  774MOL0     H 4467  10.386   5.054   5.661 -0.9570 -0.5601  1.1994
  774MOL0     H 4468  10.494   4.888   5.783 -1.0777 -0.5052  0.2318
  774MOL0     H 4469  10.598   5.007   5.702 -1.2047  0.2664 -1.2011
  774MOL0     H 4470   9.556   5.480   5.776 -0.3278  0.6626  0.7424
  774MOL0     H 4471   9.326   5.528   5.735  2.9148 -0.4426  2.9506
  774MOL0     H 4472   8.989   5.475   5.350  2.0024  0.8773  0.7278
  774MOL0     H 4473   8.764   5.505   5.269 -1.9935  0.9921  1.1982
  774MOL0     H 4474   6.867   5.650   5.588 -1.1079 -0.0752 -2.0141
  774MOL0     H 4475   6.629   5.679   5.500  1.0715 -1.3761 -0.0058
  774MOL0     H 4476   6.260   5.648   5.515  0.5301 -0.1458 -0.5422
  774MOL0     H 4477   6.094   5.643   5.352  0.4827  0.6426 -0.7981
  774MOL0     H 4478   6.022   5.721   5.129  0.7045  0.6420 -2.3774
  774MOL0     H 4479   6.060   5.896   5.105 -0.4141  0.3360  0.3294
  774MOL0     H 4480   5.894   5.854   4.936  3.0082 -1.1297  0.6642
  774MOL0     H 4481   5.808   5.949   5.049 -2.2436 -1.2572  1.6091
  774MOL0     H 4482   5.722   5.739   5.170  1.4536 -0.7395  0.6443
  774MOL0     H 4483   5.817   5.643   5.063 -1.1190 -0.6838  1.4825
  774MOL0     H 4484   5.716   5.725   4.875  0.6856  1.4228 -1.0435
  774MOL0     H 4485   5.598   5.642   4.986  0.7865 -0.4880 -0.3135
  774MOL0     H 4486   5.437   6.029   4.964 -1.4497 -1.3427 -0.0329
  774MOL0     H 4487   6.002   6.061   5.435 -1.7742 -0.1778  3.6043
  774MOL0     H 4488   6.097   6.141   5.640  0.2550 -1.0208  2.5383
  774MOL0     H 4489   6.250   6.086   5.688 -0.4181  3.5959  0.3881
  774MOL0     H 4490   6.239   6.158   5.527  1.1718  0.2824  1.0260
  775MOL0     O 4491   8.533  11.123   5.852 -0.2515  0.0498 -0.0183
  775MOL0     C 4492   8.581  11.015   5.867 -0.1450  0.0632  0.8782
  775MOL0     O 4493   8.698  10.984   5.932  0.7032 -1.0339  0.3758
  775MOL0     C 4494   8.788  11.086   5.964 -0.2379  0.0567  1.0412
  775MOL0     C 4495   8.919  11.075   5.921 -0.1529 -0.9412 -0.0223
  775MOL0     C 4496   9.005  11.184   5.931  0.2024  0.1325 -0.3494
  775MOL0     C 4497   8.973  11.297   6.000  0.6002  0.3334 -0.1430
  775MOL0     O 4498   9.064  11.398   5.999  0.7279  0.2096 -0.7368
  775MOL0     C 4499   9.007  11.532   5.969  0.3941 -0.1246  0.3468
  775MOL0     C 4500   8.984  11.624   6.094 -1.2644 -0.5732 -0.2387
  775MOL0     C 4501   9.112  11.692   6.148 -0.9380 -0.4966  0.5925
  775MOL0     C 4502   9.096  11.768   6.272 -0.0867 -0.6666  0.4545
  775MOL0     C 4503   9.244  11.816   6.319  0.8387 -0.9167  0.0705
  775MOL0     C 4504   9.242  11.933   6.422  0.5329 -0.1709  0.4691
  775MOL0     C 4505   9.164  11.893   6.548 -0.3736 -0.2910  0.5208
  775MOL0     C 4506   9.148  12.009   6.647 -0.1895 -0.6343  0.2234
  775MOL0     N 4507   9.279  12.065   6.692  0.2121 -0.4522 -0.1002
  775MOL0     C 4508   9.409  12.015   6.696  0.0007 -0.4463 -0.2330
  775MOL0     C 4509   9.494  12.123   6.710  0.1515 -1.0251  0.9133
  775MOL0     C 4510   9.640  12.110   6.732 -0.2745  0.1609  0.3991
  775MOL0     C 4511   9.696  12.219   6.834 -0.5817  0.7537  0.0091
  775MOL0     C 4512   9.805  12.155   6.916 -0.3032  0.5817  0.4917
  775MOL0     C 4513   9.945  12.141   6.847  0.9172 -0.4352  0.3888
  775MOL0     O 4514  10.008  12.271   6.842 -0.0510  0.0196 -0.2870
  775MOL0     C 4515  10.131  12.276   6.774  0.7182  0.5716  0.1007
  775MOL0     C 4516  10.141  12.229   6.641 -1.1462  0.4416 -0.3416
  775MOL0     C 4517  10.269  12.242   6.573  1.0953 -0.2374 -0.3525
  775MOL0     C 4518  10.377  12.295   6.643 -0.5095 -0.3661 -0.1268
  775MOL0     C 4519  10.508  12.304   6.582  0.4202  0.3959  0.3165
  775MOL0     O 4520  10.584  12.405   6.615  0.1926 -0.1016  0.4603
  775MOL0     C 4521  10.710  12.429   6.554 -0.3027 -0.0491  0.1572
  775MOL0     C 4522  10.801  12.483   6.635  0.1749 -0.2347 -1.0814
  775MOL0     C 4523  10.921  12.519   6.582  0.7589 -0.7727  0.1573
  775MOL0     C 4524  10.949  12.509   6.447 -1.1345  0.2285  0.0511
  775MOL0     O 4525  11.064  12.552   6.381 -0.7491 -0.3545 -0.1554
  775MOL0     C 4526  11.184  12.573   6.452 -0.6369  0.4964 -0.5742
  775MOL0     C 4527  11.312  12.583   6.363 -0.4617  0.6388  0.5547
  775MOL0     C 4528  11.327  12.698   6.261  0.4982  0.0495 -1.0428
  775MOL0     C 4529  11.249  12.682   6.136  0.0624  0.8483 -0.8081
  775MOL0     C 4530  11.245  12.809   6.060  0.1879 -0.7256  0.2078
  775MOL0     C 4531  11.374  12.843   5.986  1.0804 -0.2274  0.0594
  775MOL0     C 4532  11.371  12.984   5.916 -0.3374  0.4383  0.1238
  775MOL0     C 4533  11.236  13.018   5.857 -0.3094 -0.3612 -0.7794
  775MOL0    Cl 4534  11.254  13.152   5.754 -0.2106 -0.0317 -0.1988
  775MOL0     C 4535  10.857  12.443   6.367  0.5895  0.3080  0.0187
  775MOL0     C 4536  10.744  12.396   6.426 -0.1200 -0.0590  0.2791
  775MOL0     O 4537  10.532  12.214   6.493 -0.1486 -1.1296  0.3332
  775MOL0     C 4538  10.358  12.345   6.776 -0.3764  0.0537  0.4570
  775MOL0     C 4539  10.235  12.345   6.835 -0.2980  0.1636  0.3026
  775MOL0     N 4540   9.412  12.231   6.715  0.5117 -0.0599  0.3774
  775MOL0     N 4541   9.288  12.202   6.704  0.0210 -0.5090  0.2748
  775MOL0     C 4542   8.844  11.308   6.057 -0.4310  0.0370  0.4982
  775MOL0     C 4543   8.753  11.203   6.036 -0.2099  0.5851 -0.3619
  775MOL0     C 4544   8.507  10.898   5.819  0.0688  0.9081  1.1451
  775MOL0     C 4545   8.565  10.772   5.853  0.0251  0.3028  0.0408
  775MOL0     C 4546   8.503  10.656   5.811  0.1311 -0.2469 -0.3367
  775MOL0     C 4547   8.381  10.660   5.743 -0.0406  1.2960  0.8961
  775MOL0     O 4548   8.321  10.545   5.700  1.1057  0.4184 -0.1451
  775MOL0     C 4549   8.196  10.520   5.758  0.9335  0.1642 -0.2291
  775MOL0     C 4550   8.200  10.407   5.868 -0.0123 -0.2725  0.2440
  775MOL0     C 4551   8.212  10.263   5.813  0.3121  0.4613  0.1689
  775MOL0     C 4552   8.098  10.223   5.712  0.2416 -0.5014  0.3657
  775MOL0     C 4553   7.962  10.233   5.769  0.7837  1.8342 -0.6530
  775MOL0     C 4554   7.850  10.214   5.820  0.4834  0.3364 -0.2644
  775MOL0     C 4555   8.320  10.784   5.713  0.3139 -0.4283 -0.4122
  775MOL0     C 4556   8.382  10.904   5.752  0.5391 -0.2300 -0.8811
  775MOL0     C 4557   8.307  11.029   5.710  0.0711  0.2187 -0.3218
  775MOL0     H 4558   8.943  10.982   5.870 -0.2740  0.3278 -2.5231
  775MOL0     H 4559   9.101  11.173   5.880  0.8333 -1.2441  1.0398
  775MOL0     H 4560   9.073  11.579   5.895  2.3804 -0.0888  2.0497
  775MOL0     H 4561   8.913  11.524   5.913  0.4641  2.0500 -0.1627
  775MOL0     H 4562   8.944  11.564   6.177 -1.1252  0.5842  0.7045
  775MOL0     H 4563   8.914  11.705   6.072 -0.3098  0.4301  0.3310
  775MOL0     H 4564   9.131  11.771   6.074 -0.2352 -0.7042  0.5486
  775MOL0     H 4565   9.193  11.619   6.140  1.7939  2.1690  1.8180
  775MOL0     H 4566   9.036  11.856   6.250  1.9296  0.4624 -0.8901
  775MOL0     H 4567   9.049  11.702   6.345  0.8597 -0.9516  0.8277
  775MOL0     H 4568   9.298  11.728   6.355  0.2939 -0.4120  2.3000
  775MOL0     H 4569   9.307  11.846   6.235  1.6629 -1.0039  0.6419
  775MOL0     H 4570   9.347  11.955   6.445  0.9758 -0.0847 -1.4714
  775MOL0     H 4571   9.198  12.028   6.390  0.8991  0.1519  0.9124
  775MOL0     H 4572   9.220  11.811   6.594  0.9193 -0.4304 -1.2067
  775MOL0     H 4573   9.067  11.856   6.513  0.4508  0.0819 -2.4715
  775MOL0     H 4574   9.082  12.085   6.604 -3.5365 -2.1524  2.2865
  775MOL0     H 4575   9.094  11.954   6.724  0.5338 -0.5449  0.8024
  775MOL0     H 4576   9.452  11.916   6.696  0.4791 -0.2383 -0.2057
  775MOL0     H 4577   9.650  12.009   6.772  0.1855  0.5166  1.2069
  775MOL0     H 4578   9.690  12.113   6.635 -1.3239 -1.4038 -0.2289
  775MOL0     H 4579   9.726  12.310   6.780 -2.3160  0.8367 -0.8650
  775MOL0     H 4580   9.616  12.239   6.905 -0.5941  1.3486 -0.1690
  775MOL0     H 4581   9.767  12.060   6.955 -2.8131  1.0281 -0.6600
  775MOL0     H 4582   9.829  12.219   7.001  1.4500 -0.9028  1.1817
  775MOL0     H 4583   9.939  12.095   6.748  1.5235 -2.8702  1.4257
  775MOL0     H 4584  10.008  12.073   6.904  0.7651 -4.9766 -4.1229
  775MOL0     H 4585  10.060  12.179   6.589 -0.7175 -2.1464  1.2870
  775MOL0     H 4586  10.268  12.229   6.466  1.4735 -0.2372 -0.3589
  775MOL0     H 4587  10.771  12.514   6.734 -0.1018  0.9929 -1.5272
  775MOL0     H 4588  11.002  12.566   6.637  1.5865 -0.6200 -1.1494
  775MOL0     H 4589  11.186  12.662   6.516  0.2716 -0.1670  0.3600
  775MOL0     H 4590  11.208  12.482   6.507  1.0572  0.9705 -0.4564
  775MOL0     H 4591  11.389  12.581   6.441 -0.6122  1.7872  0.7625
  775MOL0     H 4592  11.311  12.493   6.301  0.1105  0.9272  0.1247
  775MOL0     H 4593  11.296  12.782   6.323  0.1901 -0.1670 -0.8990
  775MOL0     H 4594  11.434  12.717   6.247  0.9569 -1.3896  0.1366
  775MOL0     H 4595  11.147  12.660   6.169  0.1694  3.2908  1.4447
  775MOL0     H 4596  11.279  12.596   6.076 -2.3879  1.7529 -3.5648
  775MOL0     H 4597  11.234  12.896   6.126 -1.7394 -1.4350  0.9034
  775MOL0     H 4598  11.157  12.797   5.995  1.3215 -0.3435 -1.4419
  775MOL0     H 4599  11.459  12.843   6.056  1.0921  0.1705  0.0463
  775MOL0     H 4600  11.379  12.769   5.906  1.7562 -0.7979  0.6170
  775MOL0     H 4601  11.438  12.976   5.830  0.1501  0.3813  0.5065
  775MOL0     H 4602  11.397  13.064   5.986 -2.6293 -0.7249  2.4674
  775MOL0     H 4603  11.202  12.934   5.796 -2.3359  1.8050 -2.8578
  775MOL0     H 4604  11.163  13.054   5.930  0.1061 -0.3863 -0.3479
  775MOL0     H 4605  10.867  12.428   6.260 -0.9712 -2.3391  0.1565
  775MOL0     H 4606  10.668  12.357   6.359 -1.8071 -0.9224  2.5567
  775MOL0     H 4607  10.441  12.391   6.828 -1.6572  2.4994  0.4571
  775MOL0     H 4608  10.212  12.397   6.927  2.2237 -0.3744  1.3319
  775MOL0     H 4609   8.818  11.391   6.121  0.0814  0.1161  0.6125
  775MOL0     H 4610   8.655  11.217   6.079 -0.8168 -1.0138 -1.1427
  775MOL0     H 4611   8.650  10.753   5.917  0.1600 -2.9255 -0.9217
  775MOL0     H 4612   8.544  10.559   5.836  0.3207  0.2491  1.4633
  775MOL0     H 4613   8.118  10.494   5.685 -1.1960 -0.8004  2.2355
  775MOL0     H 4614   8.147  10.605   5.807 -0.4170 -0.2113 -0.8563
  775MOL0     H 4615   8.111  10.417   5.931  1.2069  2.1242  1.7717
  775MOL0     H 4616   8.283  10.438   5.933 -0.3554  2.2082 -0.4099
  775MOL0     H 4617   8.214  10.195   5.899  0.6386  2.2088  1.5986
  775MOL0     H 4618   8.303  10.232   5.760 -0.4069 -1.4804 -0.0144
  775MOL0     H 4619   8.108  10.298   5.633  0.1785  2.4981  3.0288
  775MOL0     H 4620   8.114  10.119   5.680 -1.2820 -0.8224  0.6042
  775MOL0     H 4621   7.756  10.200   5.871  0.5304 -0.6839 -0.4224
  775MOL0     H 4622   8.224  10.782   5.662 -0.0624  3.0369 -0.1077
  775MOL0     H 4623   8.344  11.076   5.619  0.4149  2.2548  0.8053
  775MOL0     H 4624   8.201  11.005   5.696 -0.6022  0.5943  3.0729
  775MOL0     H 4625   8.309  11.100   5.793  2.5706 -0.3164  0.1794
  776MOL0     O 4626   5.540   8.717   8.202 -0.7053  0.4494 -0.0608
  776MOL0     C 4627   5.444   8.637   8.199  0.8512 -0.4053 -0.0818
  776MOL0     O 4628   5.452   8.498   8.206  0.2668  0.2770  0.2232
  776MOL0     C 4629   5.582   8.462   8.186  0.0175 -0.4188  0.0161
  776MOL0     C 4630   5.641   8.418   8.071  0.5498  0.3374  0.0223
  776MOL0     C 4631   5.774   8.393   8.056 -0.0878  0.1343 -0.3748
  776MOL0     C 4632   5.856   8.400   8.164 -0.8638 -0.5110 -0.0779
  776MOL0     O 4633   5.984   8.357   8.135  0.1209  0.3263 -0.4516
  776MOL0     C 4634   6.088   8.374   8.240  0.0573  0.0493 -1.3820
  776MOL0     C 4635   6.228   8.360   8.181  0.3855 -0.3209 -0.3550
  776MOL0     C 4636   6.268   8.494   8.118 -0.5307 -0.1149 -0.1099
  776MOL0     C 4637   6.377   8.488   8.009 -0.2651 -0.8144  0.2553
  776MOL0     C 4638   6.420   8.624   7.952 -0.5839 -0.2077  0.3153
  776MOL0     C 4639   6.563   8.607   7.884  0.1299  0.4515  0.1989
  776MOL0     C 4640   6.682   8.601   7.982  0.4586  0.1537 -0.2499
  776MOL0     C 4641   6.805   8.575   7.889 -0.3027 -0.1050  0.1128
  776MOL0     N 4642   6.931   8.564   7.963 -0.0532 -0.0539  0.3348
  776MOL0     C 4643   6.995   8.679   8.008 -0.8671  0.2091 -0.0782
  776MOL0     C 4644   7.107   8.631   8.074  0.0747  0.3970 -0.7466
  776MOL0     C 4645   7.217   8.718   8.129 -0.1765  0.1879  0.6534
  776MOL0     C 4646   7.353   8.673   8.068  0.3277  0.1448 -0.5130
  776MOL0     C 4647   7.451   8.774   8.106  0.4916 -0.3100 -0.1544
  776MOL0     C 4648   7.590   8.725   8.081  0.6778 -0.1110  1.0097
  776MOL0     O 4649   7.680   8.830   8.118 -0.1077  0.1033  0.1625
  776MOL0     C 4650   7.812   8.818   8.081  0.4224  0.1560  0.0008
  776MOL0     C 4651   7.880   8.723   8.006 -0.0479 -0.4556  0.7310
  776MOL0     C 4652   8.020   8.740   7.979  0.6679 -0.5936  0.4629
  776MOL0     C 4653   8.098   8.845   8.023  0.1360 -0.0957  0.3771
  776MOL0     C 4654   8.247   8.846   8.002  0.1492  0.0305 -0.5608
  776MOL0     O 4655   8.296   8.779   7.895  0.2509 -0.2416 -0.6241
  776MOL0     C 4656   8.433   8.747   7.881  0.7907  0.0163 -0.9789
  776MOL0     C 4657   8.466   8.608   7.865  0.3009 -0.4722  0.0916
  776MOL0     C 4658   8.596   8.571   7.841 -0.5762  0.2888 -0.6216
  776MOL0     C 4659   8.699   8.662   7.849  1.1617  0.5434  0.1068
  776MOL0     O 4660   8.819   8.599   7.836  0.2759  0.0182  0.0582
  776MOL0     C 4661   8.931   8.681   7.821 -0.1686  0.1171  0.0475
  776MOL0     C 4662   9.048   8.585   7.803  0.3233 -0.1208 -0.4272
  776MOL0     C 4663   9.194   8.632   7.778  0.0873  0.0995 -0.6723
  776MOL0     C 4664   9.216   8.712   7.645  0.8618  0.2817  0.4493
  776MOL0     C 4665   9.369   8.735   7.629  0.7927  1.2568  0.8632
  776MOL0     C 4666   9.399   8.791   7.489 -0.2402  0.3666  0.4910
  776MOL0     C 4667   9.545   8.777   7.438  0.8172  0.0188 -0.0788
  776MOL0     C 4668   9.540   8.816   7.295  0.3273  0.1540 -0.7716
  776MOL0    Cl 4669   9.706   8.779   7.218  0.1227 -0.0128 -0.4550
  776MOL0     C 4670   8.670   8.801   7.867  0.2047  0.2744  0.3517
  776MOL0     C 4671   8.537   8.841   7.886 -0.2268 -0.9328  0.7137
  776MOL0     O 4672   8.304   8.895   8.097  0.0218  0.3032 -0.0543
  776MOL0     C 4673   8.032   8.941   8.095 -0.1335  0.3930  0.5265
  776MOL0     C 4674   7.892   8.924   8.128 -0.9017 -0.8072  0.4252
  776MOL0     N 4675   7.095   8.492   8.088  0.3999 -0.0058 -0.1540
  776MOL0     N 4676   6.984   8.459   8.026  0.0232 -0.7900  0.3769
  776MOL0     C 4677   5.799   8.436   8.284 -0.2710  0.3944  0.7789
  776MOL0     C 4678   5.663   8.474   8.299 -0.6887  0.1060 -0.9307
  776MOL0     C 4679   5.303   8.696   8.203 -1.0365 -0.4817 -0.1121
  776MOL0     C 4680   5.201   8.598   8.167 -0.1349 -0.8411  1.1609
  776MOL0     C 4681   5.073   8.644   8.144 -0.1581  0.0505 -0.0347
  776MOL0     C 4682   5.033   8.773   8.162 -0.3662  0.8080 -0.2139
  776MOL0     O 4683   4.908   8.807   8.130  0.9994  0.3395 -0.5969
  776MOL0     C 4684   4.842   8.869   8.247  0.0120  0.0352 -0.4645
  776MOL0     C 4685   4.699   8.818   8.271 -0.3766  0.3466 -0.4356
  776MOL0     C 4686   4.611   8.841   8.142  0.0527  0.1500  0.3566
  776MOL0     C 4687   4.468   8.785   8.142 -0.4943  0.5470  0.3592
  776MOL0     C 4688   4.402   8.811   8.013  0.1882  1.0970  0.5395
  776MOL0     C 4689   4.345   8.854   7.915  0.1787 -0.0553  0.3216
  776MOL0     C 4690   5.131   8.860   8.208  0.2183  0.4026  0.5951
  776MOL0     C 4691   5.260   8.825   8.233 -0.0556 -1.1261 -0.6895
  776MOL0     C 4692   5.347   8.941   8.270  0.7037  0.0821  0.1905
  776MOL0     H 4693   5.582   8.415   7.980 -2.4452 -3.9917  1.7443
  776MOL0     H 4694   5.819   8.360   7.963  2.4751 -0.4267  0.9514
  776MOL0     H 4695   6.080   8.471   8.290  2.3374 -0.1797 -0.4917
  776MOL0     H 4696   6.084   8.298   8.318 -1.1400  1.0488 -0.4312
  776MOL0     H 4697   6.231   8.282   8.105 -0.1906 -2.1816  1.4482
  776MOL0     H 4698   6.297   8.343   8.264  1.5973  0.3187 -1.1959
  776MOL0     H 4699   6.292   8.564   8.199 -1.1803  0.1949 -0.1755
  776MOL0     H 4700   6.181   8.537   8.068 -1.9786  1.1959  3.2094
  776MOL0     H 4701   6.458   8.422   8.040  1.0271 -1.9456 -4.6379
  776MOL0     H 4702   6.340   8.420   7.931 -0.6921 -1.6577  1.1642
  776MOL0     H 4703   6.343   8.667   7.887  1.0797  3.8569  0.6710
  776MOL0     H 4704   6.442   8.696   8.032 -1.5132 -0.6790  1.0042
  776MOL0     H 4705   6.569   8.523   7.815  2.7583  0.0764  0.8072
  776MOL0     H 4706   6.574   8.695   7.821  2.6362 -0.2820 -0.4686
  776MOL0     H 4707   6.673   8.520   8.055  2.7328 -0.5473 -0.6664
  776MOL0     H 4708   6.702   8.692   8.039 -0.5729  1.1301 -1.3740
  776MOL0     H 4709   6.789   8.483   7.832 -2.3614 -0.3191  0.9489
  776MOL0     H 4710   6.808   8.654   7.814 -0.1672  1.1886  1.4464
  776MOL0     H 4711   6.979   8.785   7.994  3.2824  1.2016  1.1277
  776MOL0     H 4712   7.197   8.817   8.088  0.2275  0.3795  0.9143
  776MOL0     H 4713   7.229   8.728   8.237  2.2127  0.3328  0.4305
  776MOL0     H 4714   7.380   8.575   8.107 -2.1559 -0.6006 -0.5028
  776MOL0     H 4715   7.349   8.636   7.965  0.2626 -1.7944  0.1515
  776MOL0     H 4716   7.456   8.797   8.213  3.2707 -2.9197  0.4201
  776MOL0     H 4717   7.443   8.859   8.038  3.1216 -1.0970 -1.5933
  776MOL0     H 4718   7.585   8.709   7.973  1.6168 -0.2376  0.9727
  776MOL0     H 4719   7.616   8.631   8.130 -0.4091 -0.2096  1.4131
  776MOL0     H 4720   7.831   8.639   7.960 -0.1032 -1.0696  1.8735
  776MOL0     H 4721   8.063   8.667   7.910 -2.2863 -1.9226 -0.1465
  776MOL0     H 4722   8.388   8.534   7.847  1.5834 -1.0882 -3.8999
  776MOL0     H 4723   8.614   8.465   7.822 -1.9620 -0.1633  0.3580
  776MOL0     H 4724   8.925   8.741   7.730 -0.9449 -2.7265 -1.9170
  776MOL0     H 4725   8.955   8.744   7.907  0.6608  0.5316 -0.4755
  776MOL0     H 4726   9.044   8.516   7.889 -5.8942 -1.6309 -1.4387
  776MOL0     H 4727   9.026   8.527   7.713  2.2442 -0.2858 -0.8378
  776MOL0     H 4728   9.239   8.676   7.868 -0.5546 -0.0186 -0.2901
  776MOL0     H 4729   9.237   8.532   7.768 -0.6756 -0.3781  0.5494
  776MOL0     H 4730   9.162   8.807   7.653 -0.4038 -0.1984 -1.7145
  776MOL0     H 4731   9.186   8.650   7.560  1.6742 -1.0103  1.0737
  776MOL0     H 4732   9.422   8.640   7.640  1.9635  2.0524  2.3605
  776MOL0     H 4733   9.403   8.802   7.708  1.7917  0.3565  1.2197
  776MOL0     H 4734   9.337   8.755   7.407  1.3934 -0.3043 -0.5108
  776MOL0     H 4735   9.386   8.898   7.509  2.0421  0.9181 -0.6102
  776MOL0     H 4736   9.587   8.677   7.453 -1.5357 -1.1442 -0.7765
  776MOL0     H 4737   9.623   8.835   7.489  2.4338 -2.8595  0.9522
  776MOL0     H 4738   9.459   8.767   7.240 -0.1379  1.2532 -1.0889
  776MOL0     H 4739   9.521   8.924   7.288  3.4474  0.8876  0.3847
  776MOL0     H 4740   8.747   8.878   7.872  2.9682 -2.2286 -0.3989
  776MOL0     H 4741   8.510   8.945   7.894 -2.0465 -1.3129 -0.0131
  776MOL0     H 4742   8.080   9.032   8.131 -2.8382  2.2305 -0.2413
  776MOL0     H 4743   7.836   8.999   8.181  0.0194  0.3041 -0.1291
  776MOL0     H 4744   5.864   8.439   8.371 -0.9666  0.0409  1.3155
  776MOL0     H 4745   5.635   8.498   8.401  1.3327  0.0277 -0.3005
  776MOL0     H 4746   5.220   8.493   8.148 -0.3355 -0.1740 -4.7541
  776MOL0     H 4747   4.991   8.575   8.127 -1.1367  1.5613 -1.8444
  776MOL0     H 4748   4.840   8.976   8.222 -0.7893 -0.1314 -1.1794
  776MOL0     H 4749   4.900   8.858   8.339 -0.4736  0.7394 -0.0716
  776MOL0     H 4750   4.670   8.881   8.356  2.0347 -1.3474  1.8411
  776MOL0     H 4751   4.707   8.713   8.299  2.4620  0.2547 -1.2426
  776MOL0     H 4752   4.651   8.785   8.056 -4.1790  0.4034 -2.0315
  776MOL0     H 4753   4.613   8.946   8.112  2.0571 -0.8349 -3.7321
  776MOL0     H 4754   4.457   8.676   8.145 -3.1826  0.6700 -1.5206
  776MOL0     H 4755   4.411   8.829   8.224  0.6613  1.4910  0.6721
  776MOL0     H 4756   4.294   8.872   7.822 -1.3191  0.9097  1.2831
  776MOL0     H 4757   5.097   8.964   8.207 -0.8188  0.0722  0.2288
  776MOL0     H 4758   5.298   9.030   8.311 -1.3304 -0.0788 -1.6911
  776MOL0     H 4759   5.427   8.899   8.332 -0.1170  0.9754  1.9465
  776MOL0     H 4760   5.393   8.977   8.178 -0.1082  0.0586 -0.2339
  777MOL0     O 4761   3.148   5.101   1.105  0.0714  0.3640 -0.6462
  777MOL0     C 4762   3.144   5.205   1.173  0.3839 -0.7375 -0.1339
  777MOL0     O 4763   3.256   5.272   1.215 -0.3876  0.1630 -0.5845
  777MOL0     C 4764   3.378   5.221   1.171 -0.0152 -0.7710  0.1195
  777MOL0     C 4765   3.458   5.296   1.084 -0.4510  0.4415 -0.1482
  777MOL0     C 4766   3.586   5.253   1.042  0.3321 -0.0600 -0.6872
  777MOL0     C 4767   3.639   5.128   1.081 -0.4666  0.2077  0.5846
  777MOL0     O 4768   3.763   5.105   1.027  0.1429 -0.6189 -0.1806
  777MOL0     C 4769   3.837   4.985   1.059  0.8531  0.8148 -0.0671
  777MOL0     C 4770   3.932   4.948   0.950  0.2440 -0.8895 -0.3665
  777MOL0     C 4771   4.035   5.056   0.927 -0.2299 -0.4746  0.6898
  777MOL0     C 4772   4.151   5.006   0.842  0.8912  0.0442  0.0542
  777MOL0     C 4773   4.270   5.108   0.841  0.5717  0.2625  0.4748
  777MOL0     C 4774   4.383   5.052   0.753 -0.1945  0.0827  0.3000
  777MOL0     C 4775   4.501   5.153   0.721  1.1177 -0.1272 -0.5808
  777MOL0     C 4776   4.567   5.187   0.857 -0.5583 -0.2665 -0.1356
  777MOL0     N 4777   4.699   5.242   0.830  0.2101 -0.3740 -0.6676
  777MOL0     C 4778   4.798   5.263   0.921 -0.4904  0.6631 -0.0249
  777MOL0     C 4779   4.892   5.337   0.859 -0.2154  1.0794 -0.3604
  777MOL0     C 4780   5.017   5.388   0.927 -0.2737 -1.3616 -0.5204
  777MOL0     C 4781   5.120   5.266   0.920  0.4688  0.0705 -0.1656
  777MOL0     C 4782   5.257   5.311   0.969  0.0506 -0.5144 -0.1371
  777MOL0     C 4783   5.273   5.283   1.117 -0.0472  0.0017 -0.3178
  777MOL0     O 4784   5.379   5.357   1.176 -0.1297 -0.3406 -0.1531
  777MOL0     C 4785   5.515   5.316   1.170  0.9270  0.3180  0.2325
  777MOL0     C 4786   5.602   5.410   1.211 -0.0188 -0.2245  0.3741
  777MOL0     C 4787   5.739   5.386   1.195 -0.5588  0.0801 -0.0381
  777MOL0     C 4788   5.787   5.264   1.139  0.0423  0.4196  1.1661
  777MOL0     C 4789   5.929   5.244   1.101 -0.0275 -0.9836  1.1276
  777MOL0     O 4790   5.957   5.122   1.041  0.0637 -0.4587  0.1849
  777MOL0     C 4791   6.088   5.097   1.013  0.0291 -0.1984  0.3895
  777MOL0     C 4792   6.135   5.133   0.886 -0.3009  0.4773  0.4514
  777MOL0     C 4793   6.272   5.119   0.864 -0.4662 -0.5539  1.3667
  777MOL0     C 4794   6.363   5.081   0.956  0.1868  0.2704 -0.0847
  777MOL0     O 4795   6.493   5.086   0.932 -0.5113  0.2358  0.0101
  777MOL0     C 4796   6.567   4.973   0.965 -1.0590 -0.3047  0.0091
  777MOL0     C 4797   6.701   4.972   0.899  0.4326 -0.6255  0.7466
  777MOL0     C 4798   6.702   4.967   0.759 -0.0892 -0.0688  0.3145
  777MOL0     C 4799   6.834   4.913   0.706 -1.1296  0.7447  0.1286
  777MOL0     C 4800   6.804   4.854   0.570 -0.6974  0.5243 -0.6968
  777MOL0     C 4801   6.929   4.821   0.493  0.3027 -0.1291 -0.0553
  777MOL0     C 4802   7.017   4.716   0.561  0.2675 -0.1410 -0.3540
  777MOL0     C 4803   7.113   4.668   0.457  0.3330 -0.4742 -0.0389
  777MOL0    Cl 4804   7.210   4.538   0.525 -0.4924  0.5297  0.0540
  777MOL0     C 4805   6.309   5.035   1.081  0.5655 -0.2335  0.2474
  777MOL0     C 4806   6.175   5.045   1.104  0.3413  0.2430 -0.7270
  777MOL0     O 4807   6.017   5.321   1.137 -0.2241  0.0701 -0.3115
  777MOL0     C 4808   5.694   5.167   1.108 -0.4061  0.1734  0.3253
  777MOL0     C 4809   5.557   5.190   1.126  0.2090 -0.4809 -0.6677
  777MOL0     N 4810   4.857   5.359   0.730 -0.2195 -0.4440  0.4482
  777MOL0     N 4811   4.743   5.294   0.712 -0.0312  0.2161 -0.4987
  777MOL0     C 4812   3.561   5.051   1.166  0.6331  0.9882 -0.1382
  777MOL0     C 4813   3.438   5.096   1.218 -0.4421 -0.1304  0.3396
  777MOL0     C 4814   3.006   5.265   1.181  0.0149 -0.6015 -0.5346
  777MOL0     C 4815   3.008   5.408   1.202 -0.2135  0.6943 -0.3861
  777MOL0     C 4816   2.885   5.476   1.209 -0.1911  0.9289 -0.2340
  777MOL0     C 4817   2.762   5.409   1.193 -0.1585  0.9184 -0.4667
  777MOL0     O 4818   2.650   5.480   1.223  0.6553 -0.6868  0.3326
  777MOL0     C 4819   2.519   5.441   1.176  0.0425 -0.3383  0.7917
  777MOL0     C 4820   2.405   5.538   1.216 -0.6069 -0.6132  0.6122
  777MOL0     C 4821   2.261   5.512   1.187 -0.7103  0.2086 -0.2483
  777MOL0     C 4822   2.217   5.577   1.051  0.2691 -0.8288  0.3239
  777MOL0     C 4823   2.093   5.524   1.012 -0.5591 -0.6323  0.1848
  777MOL0     C 4824   1.983   5.475   0.991 -0.4910 -0.5206 -0.1159
  777MOL0     C 4825   2.768   5.274   1.158  0.1306  0.4552 -0.4520
  777MOL0     C 4826   2.883   5.201   1.154 -0.9410  0.1136 -0.2923
  777MOL0     C 4827   2.876   5.052   1.144 -0.6346 -0.3466 -0.5267
  777MOL0     H 4828   3.423   5.395   1.056  1.5512  1.2486  0.0108
  777MOL0     H 4829   3.641   5.319   0.975 -2.8017  0.3233 -3.1209
  777MOL0     H 4830   3.881   4.997   1.159  1.7519 -0.7660 -0.2400
  777MOL0     H 4831   3.764   4.904   1.067 -0.0379  1.6949  1.1536
  777MOL0     H 4832   3.866   4.933   0.864 -2.0568  2.2643  0.6607
  777MOL0     H 4833   3.990   4.861   0.981  2.5059  1.9999  4.7715
  777MOL0     H 4834   4.068   5.100   1.021 -0.0146  2.4782 -0.6719
  777MOL0     H 4835   3.989   5.141   0.876 -0.4882 -1.1893 -0.3009
  777MOL0     H 4836   4.189   4.912   0.883  0.1893 -0.3549 -0.1862
  777MOL0     H 4837   4.106   4.994   0.742 -1.9245  0.5052  1.1649
  777MOL0     H 4838   4.232   5.195   0.786 -0.5310  0.9022  2.1579
  777MOL0     H 4839   4.307   5.140   0.938  2.3958  2.2961 -0.8216
  777MOL0     H 4840   4.431   4.964   0.797  0.5965  0.2027 -0.3023
  777MOL0     H 4841   4.344   5.030   0.653  1.5715  1.3106 -0.7088
  777MOL0     H 4842   4.461   5.239   0.667  0.0984 -0.7671 -0.8546
  777MOL0     H 4843   4.571   5.104   0.653  2.4082  0.1878  0.4630
  777MOL0     H 4844   4.505   5.268   0.896 -0.3829  0.2763 -0.9577
  777MOL0     H 4845   4.564   5.107   0.932  0.2113  2.2162  2.7149
  777MOL0     H 4846   4.797   5.233   1.025  4.8085 -3.4762 -0.7664
  777MOL0     H 4847   5.054   5.479   0.878 -0.1512 -0.6297  0.9041
  777MOL0     H 4848   4.982   5.409   1.028 -1.3407  0.1802 -1.1713
  777MOL0     H 4849   5.094   5.188   0.992 -1.6108 -1.1205 -2.0415
  777MOL0     H 4850   5.125   5.214   0.824 -1.2983 -3.4857  1.4469
  777MOL0     H 4851   5.264   5.417   0.943 -3.8941 -0.0603  0.0344
  777MOL0     H 4852   5.340   5.263   0.917  2.3405  3.5998 -0.6660
  777MOL0     H 4853   5.282   5.180   1.150  0.3461  0.0761 -0.1959
  777MOL0     H 4854   5.181   5.318   1.165 -0.9068 -3.4220  0.7956
  777MOL0     H 4855   5.568   5.511   1.235  3.8722  1.2911  0.2136
  777MOL0     H 4856   5.808   5.467   1.217  1.0559 -0.9193 -1.2152
  777MOL0     H 4857   6.077   5.172   0.803 -0.4760 -0.5118  0.0954
  777MOL0     H 4858   6.319   5.155   0.773 -1.6421 -0.0180  0.9622
  777MOL0     H 4859   6.583   4.975   1.074  0.3806 -3.1016 -0.0720
  777MOL0     H 4860   6.523   4.876   0.939 -1.9170 -0.0942  0.6392
  777MOL0     H 4861   6.754   5.063   0.930  0.3677 -0.2331 -0.2528
  777MOL0     H 4862   6.757   4.884   0.932  2.4048 -0.4408 -1.7269
  777MOL0     H 4863   6.618   4.912   0.716 -0.7940  0.8436  0.5057
  777MOL0     H 4864   6.694   5.065   0.711 -0.2457  0.5637  1.6002
  777MOL0     H 4865   6.884   4.831   0.758 -1.3380 -1.0593 -2.3171
  777MOL0     H 4866   6.911   4.989   0.693  1.0129 -1.5438 -1.8556
  777MOL0     H 4867   6.740   4.921   0.512  0.3919  1.7244 -0.5749
  777MOL0     H 4868   6.751   4.759   0.579 -1.3918  0.8306 -1.4335
  777MOL0     H 4869   6.912   4.798   0.387  0.7207  0.3916 -0.2464
  777MOL0     H 4870   6.978   4.918   0.480  0.1800 -0.1310 -0.5888
  777MOL0     H 4871   6.969   4.634   0.615  0.1104  0.8053  1.0149
  777MOL0     H 4872   7.070   4.774   0.638  0.9428 -0.8481 -0.2770
  777MOL0     H 4873   7.063   4.638   0.365 -1.5114 -1.9250  1.3654
  777MOL0     H 4874   7.170   4.759   0.436 -1.5518  0.8839  0.4287
  777MOL0     H 4875   6.384   5.011   1.156  2.4470  1.6979 -0.8827
  777MOL0     H 4876   6.136   5.038   1.205 -1.4390  0.2009 -1.3679
  777MOL0     H 4877   5.715   5.068   1.069 -1.0649  0.1804 -0.0633
  777MOL0     H 4878   5.489   5.115   1.086  0.8771 -2.7621  2.1476
  777MOL0     H 4879   3.591   4.954   1.203 -0.9771 -0.6694 -2.8956
  777MOL0     H 4880   3.395   5.031   1.293  1.8021 -0.4649  1.4249
  777MOL0     H 4881   3.097   5.467   1.222  0.2168 -0.4617  1.3653
  777MOL0     H 4882   2.898   5.579   1.239  1.1932  0.1553  2.1421
  777MOL0     H 4883   2.497   5.342   1.216 -0.1402 -0.6578 -0.0685
  777MOL0     H 4884   2.516   5.422   1.068  2.7360  0.0250  0.5757
  777MOL0     H 4885   2.428   5.630   1.161 -1.5538  0.5173  2.0232
  777MOL0     H 4886   2.422   5.565   1.320  0.6429  2.7898 -0.3393
  777MOL0     H 4887   2.190   5.555   1.258 -0.4767 -0.2678  0.2720
  777MOL0     H 4888   2.243   5.405   1.200  0.0520  0.2794  1.5164
  777MOL0     H 4889   2.222   5.686   1.056 -0.7640 -0.7737  0.4452
  777MOL0     H 4890   2.288   5.553   0.971  1.7721 -0.7568  1.6008
  777MOL0     H 4891   1.895   5.422   0.959 -3.0223  3.6494 -0.7562
  777MOL0     H 4892   2.673   5.226   1.135 -1.2247  1.6490  2.2219
  777MOL0     H 4893   2.908   5.017   1.045 -1.1310  2.3672 -1.7227
  777MOL0     H 4894   2.943   5.025   1.226 -2.1383  0.8085  1.1507
  777MOL0     H 4895   2.780   5.008   1.173 -1.3487  0.9953 -0.7888
  778MOL0     O 4896   3.815   3.704   5.723  0.3342  0.5546 -0.6010
  778MOL0     C 4897   3.775   3.599   5.786 -0.9154 -0.0766  0.6843
  778MOL0     O 4898   3.836   3.478   5.767  0.9328  0.0261  0.0302
  778MOL0     C 4899   3.966   3.471   5.724  0.5411  0.3683  0.4976
  778MOL0     C 4900   4.064   3.544   5.791 -0.6305  0.0707  0.4910
  778MOL0     C 4901   4.200   3.539   5.752  0.2312  0.3129  0.7512
  778MOL0     C 4902   4.238   3.451   5.656 -0.1557  0.8523 -0.5789
  778MOL0     O 4903   4.373   3.437   5.642  0.2089 -0.9488 -0.0808
  778MOL0     C 4904   4.419   3.423   5.511 -0.1267 -0.4837 -0.4606
  778MOL0     C 4905   4.550   3.497   5.503 -0.0987 -0.8618 -0.3105
  778MOL0     C 4906   4.619   3.478   5.366 -0.4842 -0.4224  0.1278
  778MOL0     C 4907   4.741   3.571   5.365 -0.0781  0.6337 -0.4753
  778MOL0     C 4908   4.837   3.526   5.253 -0.7277 -0.4158  0.2060
  778MOL0     C 4909   4.969   3.594   5.243 -0.5049 -0.6277  0.6363
  778MOL0     C 4910   5.073   3.592   5.359 -0.4213  1.0389 -0.3404
  778MOL0     C 4911   5.194   3.672   5.309 -0.8907  0.1277  0.2915
  778MOL0     N 4912   5.269   3.598   5.199 -0.0026 -0.2038 -0.1630
  778MOL0     C 4913   5.386   3.523   5.220 -0.4027 -0.3548 -0.7003
  778MOL0     C 4914   5.438   3.506   5.096 -0.8672  0.1195 -0.0452
  778MOL0     C 4915   5.575   3.450   5.068 -0.2152  0.0856  0.2271
  778MOL0     C 4916   5.674   3.525   5.144 -0.3566  0.2779  0.1391
  778MOL0     C 4917   5.690   3.678   5.121 -0.1665 -0.4502  0.1030
  778MOL0     C 4918   5.678   3.725   4.976  0.2563  0.1710 -0.6506
  778MOL0     O 4919   5.762   3.649   4.883 -0.3054 -0.2524 -0.2383
  778MOL0     C 4920   5.891   3.678   4.857 -0.1518  0.0624  0.3476
  778MOL0     C 4921   5.963   3.776   4.919 -0.0036 -1.0771  0.6395
  778MOL0     C 4922   6.102   3.800   4.893 -0.2540 -0.4842  0.5988
  778MOL0     C 4923   6.172   3.717   4.795  0.0843  0.6580 -0.8252
  778MOL0     C 4924   6.313   3.735   4.772  0.8346 -0.2729 -0.5832
  778MOL0     O 4925   6.368   3.643   4.691 -0.5470  0.3826  0.3595
  778MOL0     C 4926   6.505   3.669   4.655  0.4528  0.7590  0.1762
  778MOL0     C 4927   6.621   3.650   4.738  0.2265  0.8361 -0.1996
  778MOL0     C 4928   6.749   3.675   4.690 -0.6430  0.0732  0.1035
  778MOL0     C 4929   6.766   3.734   4.561 -0.1749 -0.1604 -0.2851
  778MOL0     O 4930   6.894   3.775   4.525  0.2328 -0.2282 -0.1085
  778MOL0     C 4931   6.913   3.833   4.396 -0.4285 -0.2092  0.5167
  778MOL0     C 4932   7.047   3.904   4.390 -0.2310  0.2724 -0.4845
  778MOL0     C 4933   7.082   3.976   4.252  0.3726 -0.1415  0.7569
  778MOL0     C 4934   7.077   3.880   4.129 -0.1937  0.3713  0.6345
  778MOL0     C 4935   7.162   3.911   4.006  0.8606 -0.1353  0.1830
  778MOL0     C 4936   7.314   3.931   4.028  0.2737  0.4864 -0.2404
  778MOL0     C 4937   7.393   3.927   3.900 -0.6612  0.9017  0.0060
  778MOL0     C 4938   7.528   3.870   3.935 -0.5258 -0.6479  0.0509
  778MOL0    Cl 4939   7.539   3.696   3.942  0.2961 -0.0967 -0.4544
  778MOL0     C 4940   6.650   3.749   4.477 -0.6788  0.2751 -0.5447
  778MOL0     C 4941   6.520   3.709   4.521 -0.5181 -0.1682 -0.2971
  778MOL0     O 4942   6.366   3.829   4.829  0.0074 -0.0466 -0.3034
  778MOL0     C 4943   6.099   3.612   4.740  0.0748  1.0682 -0.2596
  778MOL0     C 4944   5.966   3.591   4.773  0.0685 -0.2206  0.1755
  778MOL0     N 4945   5.364   3.571   5.001 -0.2766  0.2525  0.7346
  778MOL0     N 4946   5.259   3.623   5.061  0.9131 -0.0747 -0.2345
  778MOL0     C 4947   4.143   3.377   5.589 -0.2977 -0.4512  0.0469
  778MOL0     C 4948   4.006   3.382   5.624  0.0328 -1.2721 -0.3780
  778MOL0     C 4949   3.637   3.590   5.847  0.3268  0.6536  0.0134
  778MOL0     C 4950   3.579   3.467   5.869  0.7600 -0.3821 -1.0168
  778MOL0     C 4951   3.443   3.457   5.913  0.0048  0.4000 -0.0599
  778MOL0     C 4952   3.367   3.571   5.940  0.1908 -0.2243 -0.3140
  778MOL0     O 4953   3.228   3.582   5.954  0.8662  0.0547 -0.4887
  778MOL0     C 4954   3.143   3.468   5.934 -0.0841 -0.1580  0.1790
  778MOL0     C 4955   3.102   3.468   5.790  0.5164  0.3381  0.3674
  778MOL0     C 4956   3.052   3.609   5.744 -0.2402 -0.1406  0.0520
  778MOL0     C 4957   2.948   3.600   5.635  0.0585 -0.1667 -0.6099
  778MOL0     C 4958   2.935   3.723   5.558  0.1125 -0.0723  1.2210
  778MOL0     C 4959   2.916   3.834   5.515  0.2525 -0.1425  0.6959
  778MOL0     C 4960   3.433   3.691   5.939 -0.1396  0.0806  0.8496
  778MOL0     C 4961   3.567   3.704   5.898 -0.5568 -0.8197  0.0134
  778MOL0     C 4962   3.629   3.836   5.919 -0.3637  0.3613  0.6974
  778MOL0     H 4963   4.038   3.608   5.875 -2.8330  0.5685 -0.5077
  778MOL0     H 4964   4.282   3.594   5.797  0.6828  0.2345  0.0373
  778MOL0     H 4965   4.425   3.319   5.480  1.5470 -0.5303 -0.1047
  778MOL0     H 4966   4.347   3.466   5.440 -0.9317  0.1571  0.7179
  778MOL0     H 4967   4.615   3.468   5.586 -0.3860  1.5001  0.8201
  778MOL0     H 4968   4.543   3.604   5.527  3.5247 -0.8854  1.7036
  778MOL0     H 4969   4.559   3.511   5.281  0.6070 -0.4649 -0.6706
  778MOL0     H 4970   4.658   3.376   5.359 -0.0574 -0.2525 -0.0025
  778MOL0     H 4971   4.698   3.672   5.362  3.5766  2.3769 -0.4970
  778MOL0     H 4972   4.794   3.549   5.458 -0.2068 -2.4087 -1.0121
  778MOL0     H 4973   4.875   3.425   5.270  0.2499 -0.7872 -3.2680
  778MOL0     H 4974   4.771   3.535   5.166  2.9279 -1.7763 -3.0092
  778MOL0     H 4975   5.018   3.536   5.165  0.5311  0.1678  0.6710
  778MOL0     H 4976   4.949   3.698   5.214 -1.1219 -0.6347  1.0167
  778MOL0     H 4977   5.095   3.489   5.387 -2.6736  0.9942  1.5965
  778MOL0     H 4978   5.036   3.646   5.446  1.7999  0.5229  0.9969
  778MOL0     H 4979   5.157   3.768   5.271  2.0189  1.6544  0.9873
  778MOL0     H 4980   5.268   3.695   5.387 -0.1318  1.1500 -0.7092
  778MOL0     H 4981   5.434   3.491   5.311  4.3017  0.2283 -2.7125
  778MOL0     H 4982   5.576   3.344   5.094  0.4505  0.3151  1.2202
  778MOL0     H 4983   5.599   3.451   4.961  1.5628 -4.2300  0.3746
  778MOL0     H 4984   5.644   3.512   5.249 -2.4254  1.4927 -0.2403
  778MOL0     H 4985   5.772   3.478   5.134 -0.2406  0.1869  1.4653
  778MOL0     H 4986   5.779   3.723   5.164 -1.1369  0.8459  0.8235
  778MOL0     H 4987   5.613   3.729   5.179 -0.0457 -1.4983  1.2152
  778MOL0     H 4988   5.705   3.831   4.970  0.1172  0.2763  0.3916
  778MOL0     H 4989   5.576   3.712   4.937 -0.6903  0.9034  1.4800
  778MOL0     H 4990   5.902   3.853   4.964  2.2141  0.7265  0.7484
  778MOL0     H 4991   6.150   3.885   4.939 -3.5039  0.3876  2.7232
  778MOL0     H 4992   6.608   3.611   4.838  1.1778 -1.4138 -0.8878
  778MOL0     H 4993   6.846   3.659   4.738  0.2969  0.4528 -1.5925
  778MOL0     H 4994   6.913   3.755   4.320 -1.0858 -1.9455  2.2301
  778MOL0     H 4995   6.835   3.909   4.382 -1.9365 -2.0782 -2.1531
  778MOL0     H 4996   7.069   3.970   4.475  1.0254 -2.5797  1.5616
  778MOL0     H 4997   7.123   3.826   4.396  0.5814  0.9157 -1.8648
  778MOL0     H 4998   7.016   4.060   4.227  0.6934  0.7229  2.6254
  778MOL0     H 4999   7.176   4.030   4.266  0.0475  0.7106 -0.2232
  778MOL0     H 5000   6.975   3.875   4.088  0.7672 -1.5043 -1.8181
  778MOL0     H 5001   7.098   3.783   4.174 -1.7896  1.7818  4.9269
  778MOL0     H 5002   7.129   4.001   3.953  0.5387  1.1475  2.4150
  778MOL0     H 5003   7.148   3.818   3.951 -2.7249 -0.4703  1.4156
  778MOL0     H 5004   7.345   4.022   4.081  3.2660 -0.1979 -0.6193
  778MOL0     H 5005   7.351   3.850   4.092  1.8332  0.7846 -0.7165
  778MOL0     H 5006   7.405   4.023   3.850 -1.2607  1.4077  0.8182
  778MOL0     H 5007   7.343   3.867   3.824  2.9372 -2.5963  0.0568
  778MOL0     H 5008   7.603   3.902   3.862 -0.8335  0.1284  0.0685
  778MOL0     H 5009   7.555   3.905   4.035  1.2267 -0.2816 -0.5141
  778MOL0     H 5010   6.654   3.802   4.382  0.2815  1.9120  0.3666
  778MOL0     H 5011   6.434   3.734   4.459 -0.9929  1.3284  0.9062
  778MOL0     H 5012   6.153   3.537   4.682 -1.1628 -1.8398  2.0672
  778MOL0     H 5013   5.911   3.506   4.733 -2.4660 -0.5674  3.9529
  778MOL0     H 5014   4.175   3.298   5.521 -0.6393 -2.8929  2.5580
  778MOL0     H 5015   3.932   3.329   5.565  0.8455 -1.9583 -0.7996
  778MOL0     H 5016   3.634   3.378   5.840 -0.0874 -0.5959 -2.0544
  778MOL0     H 5017   3.387   3.364   5.912  0.3859  0.1696 -0.3705
  778MOL0     H 5018   3.055   3.478   5.998  0.0337 -1.5536  0.6066
  778MOL0     H 5019   3.186   3.372   5.967 -2.0235 -1.0081  0.3510
  778MOL0     H 5020   3.017   3.400   5.777 -0.4495  1.4109  0.8551
  778MOL0     H 5021   3.181   3.428   5.727  2.1233  0.4662  2.1904
  778MOL0     H 5022   3.136   3.675   5.720 -0.5674  1.5497  2.9734
  778MOL0     H 5023   2.995   3.660   5.823 -0.1581 -1.2289  0.8454
  778MOL0     H 5024   2.977   3.516   5.570  0.6292 -0.4142 -0.0483
  778MOL0     H 5025   2.846   3.589   5.672  0.4637 -1.3797  0.2099
  778MOL0     H 5026   2.935   3.933   5.479 -0.6382  0.3990  1.6574
  778MOL0     H 5027   3.376   3.778   5.968 -2.3452 -0.7171 -0.7484
  778MOL0     H 5028   3.731   3.816   5.951 -0.5735 -1.4453  0.3187
  778MOL0     H 5029   3.618   3.883   5.820  4.7164  0.8125  0.0965
  778MOL0     H 5030   3.576   3.893   5.996  0.7283 -0.1292  1.8282
  779MOL0     O 5031   2.010   6.718   5.531  0.7518 -0.2931  0.2048
  779MOL0     C 5032   1.954   6.709   5.420  0.2357  0.1833 -0.4984
  779MOL0     O 5033   2.009   6.663   5.303 -0.1277 -0.1019 -0.2003
  779MOL0     C 5034   2.147   6.632   5.303  0.1353 -0.1945  0.0255
  779MOL0     C 5035   2.192   6.533   5.216 -0.7287  0.6490 -1.3524
  779MOL0     C 5036   2.329   6.490   5.222 -0.0119 -0.3296  0.4442
  779MOL0     C 5037   2.422   6.553   5.300  0.5139  0.1933 -0.5903
  779MOL0     O 5038   2.555   6.544   5.284  0.4773  0.3563 -0.4297
  779MOL0     C 5039   2.610   6.420   5.236 -0.1019 -0.3245  0.5912
  779MOL0     C 5040   2.759   6.423   5.264 -0.9555  0.1391  0.3058
  779MOL0     C 5041   2.795   6.445   5.407  0.4767  0.5008  0.6605
  779MOL0     C 5042   2.951   6.453   5.450  0.3944 -0.0994 -0.5995
  779MOL0     C 5043   2.949   6.449   5.604 -0.4821  0.2171  0.9665
  779MOL0     C 5044   2.906   6.575   5.678 -0.6655 -0.0474  0.6844
  779MOL0     C 5045   2.881   6.538   5.824 -0.4480  0.4143 -0.1299
  779MOL0     C 5046   2.992   6.471   5.906 -0.2476  0.2297 -0.3030
  779MOL0     N 5047   3.108   6.563   5.929  0.1639 -0.4302  0.0401
  779MOL0     C 5048   3.132   6.644   6.040  0.3086  0.1030 -0.1895
  779MOL0     C 5049   3.235   6.721   6.012 -0.1565 -0.4379 -0.2389
  779MOL0     C 5050   3.297   6.820   6.106 -0.5245  0.1578 -0.3088
  779MOL0     C 5051   3.360   6.765   6.235 -0.4083 -0.1563  0.9097
  779MOL0     C 5052   3.453   6.639   6.212  0.3846 -0.0011  0.5391
  779MOL0     C 5053   3.523   6.594   6.336  0.1504  0.3644 -0.5241
  779MOL0     O 5054   3.607   6.484   6.310  0.3200 -0.5475  0.4935
  779MOL0     C 5055   3.728   6.516   6.257 -0.1119  0.4527  1.0340
  779MOL0     C 5056   3.745   6.492   6.116 -0.0232  0.2675 -0.5085
  779MOL0     C 5057   3.875   6.505   6.062 -0.4062  0.6720  0.1492
  779MOL0     C 5058   3.981   6.544   6.143 -0.6451  0.2205  0.1148
  779MOL0     C 5059   4.116   6.544   6.084  0.0688 -0.0909  0.4154
  779MOL0     O 5060   4.212   6.602   6.162  0.3358  0.1444 -0.5072
  779MOL0     C 5061   4.345   6.582   6.139 -0.1100  0.2453  0.2806
  779MOL0     C 5062   4.421   6.504   6.223  0.1298  0.4521  0.5026
  779MOL0     C 5063   4.560   6.498   6.225 -1.1267 -0.8016 -0.4133
  779MOL0     C 5064   4.627   6.570   6.135 -0.8332 -0.1519 -0.1336
  779MOL0     O 5065   4.765   6.593   6.142  0.1525  0.3379 -0.0125
  779MOL0     C 5066   4.811   6.701   6.219  0.4755 -0.7272  0.0570
  779MOL0     C 5067   4.890   6.797   6.132  0.0094  0.5211 -0.3234
  779MOL0     C 5068   5.001   6.716   6.054 -0.3292 -0.5082 -0.7720
  779MOL0     C 5069   5.128   6.677   6.141  0.5076  0.3497 -0.0736
  779MOL0     C 5070   5.241   6.639   6.044 -0.4853 -0.2180 -0.1188
  779MOL0     C 5071   5.382   6.636   6.121  0.3735 -0.3098 -0.0149
  779MOL0     C 5072   5.497   6.610   6.024 -0.4766  0.1099 -0.1112
  779MOL0     C 5073   5.620   6.560   6.100 -0.2637 -0.1791 -0.8497
  779MOL0    Cl 5074   5.748   6.523   5.989 -0.1423  0.0899  0.0059
  779MOL0     C 5075   4.559   6.638   6.032  0.4873  0.1388  1.1049
  779MOL0     C 5076   4.414   6.638   6.030 -0.2708  0.0473  0.1502
  779MOL0     O 5077   4.131   6.482   5.978  0.5767  1.2270  0.0882
  779MOL0     C 5078   3.961   6.567   6.281  0.0349 -0.1261 -0.3506
  779MOL0     C 5079   3.832   6.553   6.342 -0.9325  0.0168  0.0913
  779MOL0     N 5080   3.276   6.688   5.887  0.3471 -0.1906  0.5036
  779MOL0     N 5081   3.204   6.593   5.836 -0.0173  0.0368  0.1472
  779MOL0     C 5082   2.377   6.658   5.375  1.3953  0.1738 -0.2873
  779MOL0     C 5083   2.239   6.696   5.379 -0.8961  0.2674  0.2903
  779MOL0     C 5084   1.817   6.764   5.420  0.4617 -0.4614  0.8271
  779MOL0     C 5085   1.733   6.721   5.318  0.4415 -1.0315  0.1855
  779MOL0     C 5086   1.597   6.751   5.313  0.5959  0.1257 -0.1973
  779MOL0     C 5087   1.541   6.840   5.411  0.3602  0.4629  0.2823
  779MOL0     O 5088   1.406   6.877   5.421 -0.5442  0.8920 -0.0022
  779MOL0     C 5089   1.327   6.822   5.313 -0.0886  0.5914 -0.7318
  779MOL0     C 5090   1.184   6.865   5.322  0.1907  0.2061  1.1587
  779MOL0     C 5091   1.131   6.895   5.180  0.8902 -0.4297  0.3010
  779MOL0     C 5092   0.997   6.977   5.181 -0.4710  0.2750  0.4279
  779MOL0     C 5093   0.891   6.880   5.209 -0.2161 -0.1814  0.0491
  779MOL0     C 5094   0.804   6.804   5.243  0.2314 -0.2944  0.6673
  779MOL0     C 5095   1.628   6.891   5.507 -0.5850  0.0103  0.9590
  779MOL0     C 5096   1.761   6.856   5.520  0.7635  0.0673  0.6519
  779MOL0     C 5097   1.841   6.917   5.632  0.7118 -0.1343 -0.0026
  779MOL0     H 5098   2.118   6.481   5.156 -2.5403 -0.2763  1.4374
  779MOL0     H 5099   2.349   6.414   5.147 -0.0261  0.2212 -0.1272
  779MOL0     H 5100   2.567   6.328   5.276 -1.2060  0.6048  1.6035
  779MOL0     H 5101   2.585   6.420   5.129  2.7050  0.3884 -0.1633
  779MOL0     H 5102   2.817   6.501   5.213  1.5747 -1.4086  0.6429
  779MOL0     H 5103   2.799   6.328   5.228 -0.3351  0.1847  0.8608
  779MOL0     H 5104   2.751   6.355   5.452 -1.5495  1.1120  0.0308
  779MOL0     H 5105   2.741   6.537   5.432 -2.1241 -0.2236 -1.7000
  779MOL0     H 5106   3.004   6.364   5.415  0.2069  0.2964 -1.9284
  779MOL0     H 5107   2.993   6.548   5.416  0.0360  0.4231  0.3669
  779MOL0     H 5108   2.888   6.364   5.636  2.0196 -2.4005 -0.6823
  779MOL0     H 5109   3.049   6.424   5.642 -0.7752 -1.3720  0.7772
  779MOL0     H 5110   2.982   6.653   5.674  0.0895 -0.7850  0.4727
  779MOL0     H 5111   2.811   6.613   5.640 -0.9221 -1.4486 -0.1520
  779MOL0     H 5112   2.801   6.465   5.837  0.4299 -0.1020  3.0577
  779MOL0     H 5113   2.847   6.625   5.881 -3.4886  0.1720 -1.4054
  779MOL0     H 5114   2.950   6.456   6.006  1.5194  0.5067  0.5196
  779MOL0     H 5115   3.029   6.380   5.857  2.5458  1.6304 -1.0479
  779MOL0     H 5116   3.081   6.655   6.135  3.8383 -1.0648  2.0308
  779MOL0     H 5117   3.377   6.865   6.046 -0.4503 -0.3809 -0.6128
  779MOL0     H 5118   3.209   6.882   6.126 -0.4301  0.3414 -0.4633
  779MOL0     H 5119   3.417   6.850   6.273  0.4857  1.9930 -4.3771
  779MOL0     H 5120   3.276   6.739   6.300 -4.3273 -1.2414 -3.9454
  779MOL0     H 5121   3.523   6.676   6.136  0.7592 -0.7306  0.5246
  779MOL0     H 5122   3.388   6.556   6.183 -0.8722  0.0226  3.0203
  779MOL0     H 5123   3.445   6.551   6.401 -0.9637  0.6640 -1.6236
  779MOL0     H 5124   3.578   6.683   6.367  2.5413 -1.0009 -0.5783
  779MOL0     H 5125   3.657   6.465   6.057 -0.4700 -0.1325  0.3151
  779MOL0     H 5126   3.897   6.498   5.956  1.7916  1.1936  0.5203
  779MOL0     H 5127   4.363   6.460   6.303  1.4966 -0.0214  1.2684
  779MOL0     H 5128   4.613   6.442   6.302  0.1062  0.0275 -0.6127
  779MOL0     H 5129   4.729   6.748   6.273  1.3920 -0.4829  1.2661
  779MOL0     H 5130   4.878   6.661   6.295 -0.0045  3.3267  2.9008
  779MOL0     H 5131   4.826   6.846   6.058 -3.7550 -1.5889  1.2318
  779MOL0     H 5132   4.932   6.879   6.192  2.7325 -0.3822 -0.8761
  779MOL0     H 5133   4.950   6.629   6.012 -3.4285  0.4551  0.6821
  779MOL0     H 5134   5.028   6.795   5.983 -2.0255  0.3577 -0.4930
  779MOL0     H 5135   5.119   6.611   6.228  2.5704 -1.3890 -1.0833
  779MOL0     H 5136   5.153   6.771   6.190 -0.6344 -0.4448  2.2106
  779MOL0     H 5137   5.251   6.716   5.968  2.0100  0.5571  0.9092
  779MOL0     H 5138   5.224   6.543   5.993 -0.0515 -0.0325 -0.6120
  779MOL0     H 5139   5.401   6.730   6.174 -1.7071  0.5968 -0.7608
  779MOL0     H 5140   5.371   6.555   6.194 -0.6576  0.3692  0.6051
  779MOL0     H 5141   5.525   6.697   5.965 -1.2446 -0.0751 -0.7539
  779MOL0     H 5142   5.462   6.530   5.959  1.1938  0.4218 -1.4543
  779MOL0     H 5143   5.639   6.639   6.173 -2.0374 -0.4661 -0.0097
  779MOL0     H 5144   5.586   6.469   6.152 -0.9051  0.9753  0.8649
  779MOL0     H 5145   4.610   6.671   5.942 -1.0958 -3.0800 -1.1767
  779MOL0     H 5146   4.363   6.682   5.946  2.2992 -1.1476 -2.1858
  779MOL0     H 5147   4.044   6.583   6.348 -1.7583 -0.7859  2.1770
  779MOL0     H 5148   3.814   6.556   6.449 -4.0704 -1.3823 -0.2875
  779MOL0     H 5149   2.438   6.727   5.433  0.2001  2.1031 -1.2288
  779MOL0     H 5150   2.221   6.782   5.442 -0.9074 -1.3923  2.6688
  779MOL0     H 5151   1.762   6.657   5.235 -0.2501  1.0078 -1.7494
  779MOL0     H 5152   1.538   6.702   5.236 -1.3898 -0.4295  1.5832
  779MOL0     H 5153   1.327   6.713   5.315 -0.6584  0.5965 -0.1503
  779MOL0     H 5154   1.377   6.865   5.226  0.2186  0.7269 -0.4935
  779MOL0     H 5155   1.169   6.957   5.380  1.6440  0.9849  0.3546
  779MOL0     H 5156   1.123   6.784   5.363  0.9982 -1.9051 -1.4859
  779MOL0     H 5157   1.121   6.802   5.123 -1.9276 -0.8632  1.3033
  779MOL0     H 5158   1.189   6.969   5.126 -1.7323  1.6294  0.0948
  779MOL0     H 5159   0.992   7.051   5.262  0.1725  0.9135 -0.1064
  779MOL0     H 5160   0.986   7.036   5.089  0.6580  3.3028  2.1017
  779MOL0     H 5161   0.724   6.737   5.268  1.5140 -2.2518 -0.2603
  779MOL0     H 5162   1.602   6.951   5.594  0.0399  0.3310  0.9282
  779MOL0     H 5163   1.883   6.829   5.681  0.6051 -0.5813 -0.6936
  779MOL0     H 5164   1.916   6.984   5.589  0.1670  1.8903  2.0074
  779MOL0     H 5165   1.773   6.970   5.700  1.3943  2.4791 -1.2033
  780MOL0     O 5166   2.134   3.620  11.054 -0.0806 -0.1317  0.3327
  780MOL0     C 5167   2.083   3.680  10.959  0.0061 -0.5659 -0.0249
  780MOL0     O 5168   2.113   3.808  10.910 -0.5350 -0.7037  0.8113
  780MOL0     C 5169   2.227   3.880  10.936  0.1647  1.0083  0.0505
  780MOL0     C 5170   2.222   4.019  10.917  0.0036  0.7231  0.0558
  780MOL0     C 5171   2.320   4.105  10.966  0.1268 -0.1189 -0.2308
  780MOL0     C 5172   2.438   4.047  11.019 -0.3067  0.0475 -0.0878
  780MOL0     O 5173   2.557   4.113  11.060  0.2483  0.3200  0.2813
  780MOL0     C 5174   2.555   4.205  11.174 -0.2940 -0.3646  0.6919
  780MOL0     C 5175   2.596   4.132  11.301  0.5546  0.8526  0.2816
  780MOL0     C 5176   2.733   4.063  11.304 -0.0387  0.4039  0.1363
  780MOL0     C 5177   2.779   4.056  11.447 -0.4155 -0.2623  0.1071
  780MOL0     C 5178   2.934   4.032  11.467  0.4419  0.8724 -0.1676
  780MOL0     C 5179   2.994   3.892  11.415  0.6970 -0.6762 -0.2649
  780MOL0     C 5180   3.142   3.894  11.442 -1.2973  0.5424  0.0552
  780MOL0     C 5181   3.208   3.821  11.333 -1.1145 -0.4998  0.2500
  780MOL0     N 5182   3.345   3.767  11.361  1.0002 -0.8594  0.4810
  780MOL0     C 5183   3.403   3.730  11.482 -0.1075 -0.1418  0.5503
  780MOL0     C 5184   3.530   3.695  11.448 -0.6933  0.5012 -0.4630
  780MOL0     C 5185   3.648   3.642  11.528 -0.0112 -0.0560  0.4611
  780MOL0     C 5186   3.639   3.492  11.535  0.6089 -0.1937 -0.6269
  780MOL0     C 5187   3.644   3.410  11.405  0.2945  0.8968  0.6170
  780MOL0     C 5188   3.758   3.451  11.304  0.0412 -0.4351 -0.9046
  780MOL0     O 5189   3.782   3.357  11.203 -0.2723 -0.5449 -0.0868
  780MOL0     C 5190   3.696   3.344  11.094  0.8313 -0.1685 -0.6282
  780MOL0     C 5191   3.579   3.425  11.076 -0.5618  0.2358 -1.4759
  780MOL0     C 5192   3.491   3.401  10.975 -0.2282  0.0499  0.3142
  780MOL0     C 5193   3.525   3.293  10.883 -0.6176  0.7201  0.0669
  780MOL0     C 5194   3.442   3.264  10.762  0.7018  0.2018 -0.3666
  780MOL0     O 5195   3.358   3.360  10.708 -0.6417 -0.3116 -0.3368
  780MOL0     C 5196   3.304   3.339  10.581  0.3956  0.4125  0.5360
  780MOL0     C 5197   3.393   3.366  10.476 -0.3590  0.5010  0.4470
  780MOL0     C 5198   3.346   3.346  10.345 -0.1156 -1.0826  0.2185
  780MOL0     C 5199   3.220   3.289  10.317  0.0145  0.4067 -0.2078
  780MOL0     O 5200   3.190   3.258  10.185 -0.7366 -0.1433 -0.9931
  780MOL0     C 5201   3.114   3.138  10.165 -0.2783 -0.9289 -0.3774
  780MOL0     C 5202   3.094   3.152  10.008 -0.7130  0.2124 -0.2477
  780MOL0     C 5203   2.978   3.055   9.957  0.0678  0.3933 -0.6445
  780MOL0     C 5204   3.023   2.905   9.936 -0.2981 -0.5981 -0.3245
  780MOL0     C 5205   2.915   2.822   9.866  0.8911  0.5973  0.1331
  780MOL0     C 5206   2.776   2.813   9.938 -0.1366 -0.0582 -0.7058
  780MOL0     C 5207   2.696   2.698   9.865 -0.3367 -0.2638 -0.2122
  780MOL0     C 5208   2.566   2.657   9.937 -0.1200 -0.6920 -0.1731
  780MOL0    Cl 5209   2.455   2.789   9.952  0.6970 -0.3276  0.1953
  780MOL0     C 5210   3.136   3.266  10.421 -0.2463  1.1345 -0.0683
  780MOL0     C 5211   3.169   3.290  10.550 -0.5186 -0.4357 -0.2710
  780MOL0     O 5212   3.458   3.152  10.717 -0.5765 -0.0443 -0.4089
  780MOL0     C 5213   3.639   3.211  10.898 -0.3518 -0.5624 -0.2064
  780MOL0     C 5214   3.718   3.238  11.010  0.1089  0.4825  0.1269
  780MOL0     N 5215   3.549   3.725  11.315 -0.8823  0.5039  0.5207
  780MOL0     N 5216   3.440   3.760  11.262  0.5312  0.2212 -0.3494
  780MOL0     C 5217   2.444   3.913  11.032 -0.3009  1.1047  0.7184
  780MOL0     C 5218   2.340   3.829  10.994  0.2584  0.2466 -0.6337
  780MOL0     C 5219   1.959   3.624  10.898 -0.5572 -0.7699  0.2591
  780MOL0     C 5220   1.862   3.578  10.980 -0.5081  0.3620  0.3508
  780MOL0     C 5221   1.749   3.518  10.936  0.7337 -0.6126 -0.2755
  780MOL0     C 5222   1.733   3.503  10.804 -0.4748  0.3206 -0.0097
  780MOL0     O 5223   1.613   3.449  10.765 -0.7556  0.7529  0.5007
  780MOL0     C 5224   1.548   3.497  10.649  0.0042 -0.0074  0.4946
  780MOL0     C 5225   1.400   3.478  10.651  0.0381  0.2160 -0.5363
  780MOL0     C 5226   1.336   3.469  10.509  0.3465  1.2544  0.1141
  780MOL0     C 5227   1.184   3.498  10.522 -0.0767 -0.9125  0.9391
  780MOL0     C 5228   1.116   3.472  10.397  0.4460  0.2098 -0.0976
  780MOL0     C 5229   1.072   3.450  10.289 -0.6366  0.5115  0.1606
  780MOL0     C 5230   1.828   3.555  10.715 -0.1000  0.2335  0.1259
  780MOL0     C 5231   1.941   3.624  10.756 -0.4419  0.0662 -0.6062
  780MOL0     C 5232   2.043   3.679  10.657 -0.2700  0.9946 -0.7858
  780MOL0     H 5233   2.131   4.062  10.876 -0.0083  1.2982  0.6707
  780MOL0     H 5234   2.324   4.213  10.970  2.3585 -0.1655  1.0952
  780MOL0     H 5235   2.621   4.290  11.160  1.0817 -1.5758 -0.5209
  780MOL0     H 5236   2.455   4.249  11.184 -0.3941 -0.2726 -0.4855
  780MOL0     H 5237   2.521   4.053  11.311 -1.3350  2.2172 -1.9750
  780MOL0     H 5238   2.587   4.204  11.383 -0.9771 -0.1195  1.0295
  780MOL0     H 5239   2.809   4.118  11.246 -0.1850  0.7055  0.2291
  780MOL0     H 5240   2.723   3.965  11.257  0.5517  1.1143 -1.5440
  780MOL0     H 5241   2.759   4.156  11.485 -2.1312 -0.6561  0.3106
  780MOL0     H 5242   2.719   4.000  11.519 -0.9454  3.3363  2.7471
  780MOL0     H 5243   2.990   4.106  11.409  0.5573  0.6110 -0.3899
  780MOL0     H 5244   2.960   4.040  11.574  1.0849 -3.1563  0.1174
  780MOL0     H 5245   2.947   3.809  11.469  0.4009  0.4955  1.3753
  780MOL0     H 5246   2.965   3.879  11.310  0.2327 -1.3625 -0.0624
  780MOL0     H 5247   3.171   3.855  11.540  1.3494 -1.4055 -1.3970
  780MOL0     H 5248   3.186   3.995  11.440  0.1361 -0.0581 -0.0937
  780MOL0     H 5249   3.165   3.725  11.302  1.4871 -1.8072  0.3736
  780MOL0     H 5250   3.219   3.884  11.244  2.0600 -2.0127 -0.5681
  780MOL0     H 5251   3.365   3.729  11.583  2.0159 -1.8119  1.3996
  780MOL0     H 5252   3.740   3.671  11.476 -0.3405  0.9304  0.3989
  780MOL0     H 5253   3.636   3.690  11.626 -2.2506  0.8221 -0.1819
  780MOL0     H 5254   3.719   3.456  11.600 -0.5890 -0.8826  0.5152
  780MOL0     H 5255   3.550   3.465  11.592  1.9306  0.4571  1.8854
  780MOL0     H 5256   3.545   3.423  11.360  1.6515  1.9780 -2.2447
  780MOL0     H 5257   3.663   3.304  11.425 -2.9734  0.0719  0.0310
  780MOL0     H 5258   3.848   3.475  11.361 -1.7205  1.0940  1.4286
  780MOL0     H 5259   3.741   3.543  11.248  1.8615  0.2217 -0.4332
  780MOL0     H 5260   3.557   3.510  11.140  2.3495  0.6249 -0.8448
  780MOL0     H 5261   3.400   3.458  10.965  0.6003  1.3371 -0.1200
  780MOL0     H 5262   3.496   3.388  10.502  0.1572  2.0050 -2.3807
  780MOL0     H 5263   3.404   3.366  10.255 -0.8767 -1.5430 -0.3918
  780MOL0     H 5264   3.172   3.051  10.196 -2.0080 -1.4145  1.7662
  780MOL0     H 5265   3.015   3.136  10.212 -1.2131  3.1707 -1.7353
  780MOL0     H 5266   3.075   3.257   9.980  0.9380 -0.1059 -2.8494
  780MOL0     H 5267   3.189   3.120   9.966 -0.4832 -0.0037  0.4316
  780MOL0     H 5268   2.900   3.064  10.034  0.6355 -0.5255  0.0653
  780MOL0     H 5269   2.952   3.097   9.860  0.4142 -0.5966 -1.1734
  780MOL0     H 5270   3.046   2.859  10.033  0.3203 -1.6860 -0.9636
  780MOL0     H 5271   3.115   2.899   9.877 -2.1059  0.0492 -3.4104
  780MOL0     H 5272   2.956   2.722   9.851 -0.6708 -0.2578  1.2634
  780MOL0     H 5273   2.890   2.866   9.769 -3.9148  1.3968  1.4702
  780MOL0     H 5274   2.800   2.776  10.038  0.8090  2.4190  0.0699
  780MOL0     H 5275   2.719   2.906   9.932 -3.9562 -2.1921 -0.2511
  780MOL0     H 5276   2.765   2.613   9.864 -0.0230 -0.0373  1.2355
  780MOL0     H 5277   2.670   2.733   9.764 -0.3939  2.5622  0.6927
  780MOL0     H 5278   2.509   2.573   9.897 -1.7664  0.8505 -1.2010
  780MOL0     H 5279   2.593   2.624  10.038  3.6094 -3.1241 -1.7370
  780MOL0     H 5280   3.036   3.227  10.404  0.3610 -0.5342  0.0495
  780MOL0     H 5281   3.094   3.277  10.627 -0.0819 -2.1153 -0.0823
  780MOL0     H 5282   3.665   3.126  10.836 -1.1992 -0.6555 -0.4490
  780MOL0     H 5283   3.803   3.173  11.027 -2.8601 -3.5139  1.0851
  780MOL0     H 5284   2.530   3.864  11.077  0.9862  1.6368 -1.0450
  780MOL0     H 5285   2.359   3.723  11.003  0.2264  0.1848 -1.2611
  780MOL0     H 5286   1.882   3.585  11.086 -0.5769 -0.5723  0.4308
  780MOL0     H 5287   1.675   3.476  11.004 -0.0989  0.9031 -0.1817
  780MOL0     H 5288   1.589   3.446  10.561 -2.4063 -0.2002 -0.6006
  780MOL0     H 5289   1.564   3.604  10.633  0.3414  0.2349  2.3145
  780MOL0     H 5290   1.355   3.565  10.700 -1.9605  0.8064 -3.2069
  780MOL0     H 5291   1.377   3.388  10.709  2.8802  1.1833  2.3951
  780MOL0     H 5292   1.341   3.366  10.472  1.6119  1.5498 -0.5888
  780MOL0     H 5293   1.380   3.539  10.437 -2.3925  2.2024 -0.7442
  780MOL0     H 5294   1.134   3.445  10.604 -0.7144 -3.9760 -1.2388
  780MOL0     H 5295   1.182   3.607  10.533  1.2836 -0.7065 -0.5002
  780MOL0     H 5296   1.030   3.422  10.195 -0.8917 -0.9414  0.6861
  780MOL0     H 5297   1.800   3.556  10.610  0.7890 -0.1292 -0.1205
  780MOL0     H 5298   2.033   3.785  10.631 -3.0984  0.9871 -0.0383
  780MOL0     H 5299   2.145   3.661  10.691 -0.4416  0.5771 -0.4836
  780MOL0     H 5300   2.045   3.622  10.564  1.4325  1.6373 -1.1808
  781MOL0     O 5301   6.374   4.353   9.825  0.1859 -0.4309  0.3411
  781MOL0     C 5302   6.291   4.442   9.822 -0.2199 -0.2602  0.0537
  781MOL0     O 5303   6.185   4.453   9.908 -0.1641  0.3460  0.3561
  781MOL0     C 5304   6.189   4.363  10.014  0.5126  0.4113 -0.5381
  781MOL0     C 5305   6.254   4.398  10.138  0.2924  0.0963  1.1007
  781MOL0     C 5306   6.254   4.307  10.242 -0.3158 -0.0478 -0.1968
  781MOL0     C 5307   6.218   4.172  10.224  0.3745 -0.6122  0.5238
  781MOL0     O 5308   6.227   4.082  10.325  0.1483  0.4023 -0.2101
  781MOL0     C 5309   6.169   3.950  10.318 -0.2522 -0.2591 -0.4179
  781MOL0     C 5310   6.245   3.862  10.427 -1.0632 -0.5940  0.5857
  781MOL0     C 5311   6.383   3.837  10.364 -0.5232 -0.2357  0.3482
  781MOL0     C 5312   6.467   3.749  10.465 -0.3649 -0.1475  0.3780
  781MOL0     C 5313   6.601   3.718  10.398  0.3707 -0.3771  0.3015
  781MOL0     C 5314   6.706   3.676  10.507 -0.3801 -0.6996  1.0926
  781MOL0     C 5315   6.827   3.603  10.447 -0.0569 -0.0096 -0.4759
  781MOL0     C 5316   6.926   3.568  10.565 -1.6569  0.5293  0.2450
  781MOL0     N 5317   7.036   3.486  10.503  0.6312  0.0196  0.2723
  781MOL0     C 5318   7.134   3.526  10.419 -0.4607  0.5270  0.4047
  781MOL0     C 5319   7.169   3.414  10.346  0.2098 -1.2110  0.4226
  781MOL0     C 5320   7.268   3.404  10.232  0.7581 -0.2110  0.2508
  781MOL0     C 5321   7.401   3.348  10.275 -0.9832  0.6412 -1.1359
  781MOL0     C 5322   7.494   3.463  10.342 -0.1774  0.2945 -0.4530
  781MOL0     C 5323   7.630   3.408  10.387 -0.4735 -0.4682  0.0313
  781MOL0     O 5324   7.689   3.493  10.483  0.0039  0.0979  0.0626
  781MOL0     C 5325   7.815   3.471  10.521 -0.5608  0.4879  0.1709
  781MOL0     C 5326   7.890   3.359  10.499 -0.2155  0.7736  0.8033
  781MOL0     C 5327   8.038   3.363  10.523  0.7007  1.1641  0.5160
  781MOL0     C 5328   8.090   3.480  10.569  0.6913  0.2286  0.0216
  781MOL0     C 5329   8.234   3.497  10.581  0.0952 -0.3614  0.1561
  781MOL0     O 5330   8.275   3.578  10.686  0.0213 -0.1168 -0.3191
  781MOL0     C 5331   8.407   3.573  10.708 -0.0085  1.1570  0.0258
  781MOL0     C 5332   8.507   3.609  10.615 -1.0707 -0.3552  0.8524
  781MOL0     C 5333   8.642   3.600  10.652  0.0365 -0.4896 -0.0444
  781MOL0     C 5334   8.686   3.552  10.774 -1.0733 -0.3845 -0.1729
  781MOL0     O 5335   8.818   3.561  10.809  0.6140 -0.5204 -0.0888
  781MOL0     C 5336   8.856   3.461  10.900  0.3853  0.5516 -0.2678
  781MOL0     C 5337   9.003   3.475  10.903 -0.2202 -0.0767 -0.1138
  781MOL0     C 5338   9.058   3.351  10.980  0.1383  0.4892  0.0175
  781MOL0     C 5339   9.211   3.341  10.946 -0.0482 -0.1293  0.1018
  781MOL0     C 5340   9.281   3.245  11.039  1.0600 -0.4158 -0.9615
  781MOL0     C 5341   9.437   3.275  11.056  0.4873 -0.4548 -0.2419
  781MOL0     C 5342   9.487   3.214  11.182  0.1251  0.3529 -0.1882
  781MOL0     C 5343   9.637   3.239  11.202  0.1366  0.8725 -0.1211
  781MOL0    Cl 5344   9.690   3.413  11.211  0.0071  0.1024  0.0705
  781MOL0     C 5345   8.582   3.516  10.867 -0.4861  0.7398 -0.0282
  781MOL0     C 5346   8.446   3.523  10.834 -0.0761  0.2235  0.4032
  781MOL0     O 5347   8.303   3.417  10.512 -0.0388 -0.6526 -0.2563
  781MOL0     C 5348   8.012   3.586  10.603  0.0815  0.6673 -0.0542
  781MOL0     C 5349   7.872   3.578  10.594 -0.6643  0.5303 -0.2217
  781MOL0     N 5350   7.109   3.307  10.407  0.3128 -0.3060 -0.1098
  781MOL0     N 5351   7.025   3.352  10.493  0.0807  0.0002  0.4067
  781MOL0     C 5352   6.161   4.134  10.100 -0.4065  0.4963 -0.1765
  781MOL0     C 5353   6.133   4.228  10.003 -0.4698  0.3646  0.7367
  781MOL0     C 5354   6.272   4.530   9.705  0.0077  0.5615 -0.1721
  781MOL0     C 5355   6.157   4.612   9.699 -0.0424  0.5138 -0.3642
  781MOL0     C 5356   6.142   4.705   9.597 -0.0103 -0.0404 -0.4587
  781MOL0     C 5357   6.235   4.710   9.491  0.4175  0.3314  0.2543
  781MOL0     O 5358   6.234   4.808   9.398  0.1034  0.0654 -0.3181
  781MOL0     C 5359   6.144   4.926   9.410  0.0865  0.1135 -0.8068
  781MOL0     C 5360   6.186   5.036   9.508  0.6123 -0.8147  0.6892
  781MOL0     C 5361   6.321   5.094   9.464  0.1363 -0.5926  0.0964
  781MOL0     C 5362   6.310   5.174   9.331  0.6460  0.5980  0.6124
  781MOL0     C 5363   6.228   5.294   9.361 -0.7351 -0.4583  0.5454
  781MOL0     C 5364   6.157   5.382   9.393  0.4464 -0.4778 -0.1449
  781MOL0     C 5365   6.342   4.635   9.495 -0.6848 -0.2301  0.2698
  781MOL0     C 5366   6.356   4.533   9.595  0.5057 -0.7231  0.4252
  781MOL0     C 5367   6.473   4.441   9.571 -0.2236  0.0985  0.4756
  781MOL0     H 5368   6.300   4.494  10.158  0.7142 -0.4475  2.9498
  781MOL0     H 5369   6.308   4.331  10.333  2.2066 -0.7812 -1.4136
  781MOL0     H 5370   6.061   3.956  10.336  0.0064  0.9991  0.9319
  781MOL0     H 5371   6.188   3.895  10.225  1.3922 -1.0463  0.3394
  781MOL0     H 5372   6.191   3.767  10.440 -0.7388 -1.5757 -3.6883
  781MOL0     H 5373   6.258   3.914  10.523  3.7074 -0.0849 -0.1174
  781MOL0     H 5374   6.436   3.929  10.339  0.2577 -0.2202  1.9206
  781MOL0     H 5375   6.362   3.781  10.273 -2.5575  0.1683  0.5369
  781MOL0     H 5376   6.480   3.816  10.551 -3.9365 -0.9196  1.7009
  781MOL0     H 5377   6.411   3.661  10.497 -1.9923  1.8827  3.6316
  781MOL0     H 5378   6.599   3.647  10.315 -0.2186  1.1352 -1.0429
  781MOL0     H 5379   6.640   3.811  10.353  1.9910  1.2482  4.5826
  781MOL0     H 5380   6.734   3.762  10.569 -0.1378  1.6418 -2.0041
  781MOL0     H 5381   6.651   3.605  10.570 -0.0701 -1.9877 -0.0445
  781MOL0     H 5382   6.872   3.677  10.381  2.0326  0.0459  0.9312
  781MOL0     H 5383   6.811   3.513  10.387 -2.0924  1.0094 -1.5544
  781MOL0     H 5384   6.962   3.658  10.617  1.7783 -1.1243  1.0477
  781MOL0     H 5385   6.882   3.495  10.633  1.6634 -2.6846 -0.7082
  781MOL0     H 5386   7.179   3.625  10.417 -0.4028  0.6429 -3.8948
  781MOL0     H 5387   7.219   3.338  10.160  0.5479 -2.7407  2.5673
  781MOL0     H 5388   7.278   3.502  10.185  2.9863 -0.4098  0.2108
  781MOL0     H 5389   7.389   3.263  10.343  1.3657  0.9517 -0.2484
  781MOL0     H 5390   7.451   3.303  10.188 -0.1473 -1.4095  0.3426
  781MOL0     H 5391   7.445   3.499  10.433  1.5204 -0.8172  0.9516
  781MOL0     H 5392   7.504   3.554  10.282 -2.2632  0.7442 -0.2209
  781MOL0     H 5393   7.688   3.410  10.294 -0.0455  0.5838  0.3047
  781MOL0     H 5394   7.627   3.309  10.433  0.3064 -0.7439 -0.4831
  781MOL0     H 5395   7.857   3.266  10.455  1.0572  0.3394  0.7165
  781MOL0     H 5396   8.101   3.281  10.493  1.5904  1.7053  0.8623
  781MOL0     H 5397   8.484   3.658  10.521 -0.0557  0.9911  1.2665
  781MOL0     H 5398   8.717   3.611  10.575  1.9928 -1.3131  1.6740
  781MOL0     H 5399   8.827   3.496  11.000  3.0343  2.9777 -0.2188
  781MOL0     H 5400   8.830   3.361  10.865  1.8553  0.5270 -1.4010
  781MOL0     H 5401   9.028   3.468  10.797 -2.1979  0.1206 -0.6444
  781MOL0     H 5402   9.024   3.571  10.950  1.4213 -0.8288  0.7623
  781MOL0     H 5403   9.041   3.350  11.088  0.5476  1.5335  0.1068
  781MOL0     H 5404   9.017   3.261  10.934  0.0396 -0.5099  1.9402
  781MOL0     H 5405   9.256   3.440  10.958  1.4496 -0.1526 -3.9609
  781MOL0     H 5406   9.236   3.311  10.844  1.0306 -0.1587  0.3667
  781MOL0     H 5407   9.260   3.144  11.002 -1.8263  0.7464 -2.8783
  781MOL0     H 5408   9.243   3.261  11.141 -0.9566  1.6313 -1.9525
  781MOL0     H 5409   9.494   3.236  10.971 -2.2912 -1.6687 -1.6748
  781MOL0     H 5410   9.439   3.384  11.065  0.2915 -0.5819  1.6030
  781MOL0     H 5411   9.459   3.108  11.174 -3.9279  1.4129 -3.0079
  781MOL0     H 5412   9.447   3.252  11.276 -0.5050 -3.6847  1.3915
  781MOL0     H 5413   9.664   3.186  11.294 -0.7233 -1.6534 -1.2190
  781MOL0     H 5414   9.679   3.203  11.108 -1.4595  1.0088 -0.9188
  781MOL0     H 5415   8.610   3.494  10.970 -0.3130 -0.4959 -0.3291
  781MOL0     H 5416   8.373   3.491  10.908  1.5035  0.0592  1.9788
  781MOL0     H 5417   8.052   3.677  10.648 -1.2405  0.2133  2.1789
  781MOL0     H 5418   7.817   3.668  10.621  0.9153  1.2507  0.7718
  781MOL0     H 5419   6.122   4.033  10.090  2.5168 -0.8026  0.5136
  781MOL0     H 5420   6.075   4.207   9.913  2.1362  0.5429 -1.1062
  781MOL0     H 5421   6.089   4.626   9.783 -2.1145 -0.3930 -1.7977
  781MOL0     H 5422   6.050   4.762   9.601 -0.3645 -0.6985  1.6403
  781MOL0     H 5423   6.042   4.894   9.433  0.0346  1.0418  0.3491
  781MOL0     H 5424   6.146   4.972   9.310  0.2091  0.7580 -0.5108
  781MOL0     H 5425   6.194   4.985   9.604 -1.8820  0.8085  1.8673
  781MOL0     H 5426   6.107   5.108   9.532 -0.5135 -1.7839  0.0425
  781MOL0     H 5427   6.397   5.016   9.457 -1.9905 -2.6427 -1.6366
  781MOL0     H 5428   6.354   5.162   9.543 -0.9734 -0.9864  0.9224
  781MOL0     H 5429   6.413   5.207   9.315  0.7840  0.5257  1.2950
  781MOL0     H 5430   6.274   5.119   9.244 -0.6835 -2.0535  2.6533
  781MOL0     H 5431   6.106   5.472   9.420  2.1513  0.2641  0.7337
  781MOL0     H 5432   6.407   4.645   9.408 -1.4829 -0.5790 -0.3847
  781MOL0     H 5433   6.452   4.336   9.594 -0.3600 -0.1644 -0.8054
  781MOL0     H 5434   6.492   4.448   9.464  1.7044  0.8818  0.8274
  781MOL0     H 5435   6.558   4.483   9.626 -0.3909  0.0946  0.7366
  782MOL0     O 5436   8.041   1.977   5.707  1.2355 -0.6863 -0.3417
  782MOL0     C 5437   7.972   2.079   5.746 -0.8598 -0.0815 -0.4442
  782MOL0     O 5438   8.026   2.196   5.798  0.5987  0.3622 -0.1606
  782MOL0     C 5439   8.162   2.195   5.823 -1.3022 -0.5992  0.0194
  782MOL0     C 5440   8.219   2.119   5.914 -0.8400  0.2065  0.0260
  782MOL0     C 5441   8.353   2.118   5.926 -0.0007 -0.3486  0.4960
  782MOL0     C 5442   8.435   2.192   5.838  0.3386 -0.0939  0.1440
  782MOL0     O 5443   8.572   2.174   5.845 -0.4432  0.0785 -0.3635
  782MOL0     C 5444   8.655   2.268   5.781 -0.2004  0.1157 -0.1331
  782MOL0     C 5445   8.801   2.235   5.810  0.1517 -0.6370 -0.0863
  782MOL0     C 5446   8.894   2.303   5.710 -0.4978 -0.2415 -0.6757
  782MOL0     C 5447   9.044   2.272   5.758 -1.3750  0.6541  1.0159
  782MOL0     C 5448   9.129   2.338   5.649 -0.0124  0.3453 -0.5422
  782MOL0     C 5449   9.270   2.293   5.680 -0.9396 -0.6426  0.0129
  782MOL0     C 5450   9.355   2.369   5.579 -0.1580 -0.0073  0.4375
  782MOL0     C 5451   9.500   2.349   5.594 -0.4920 -0.2949 -0.4235
  782MOL0     N 5452   9.579   2.437   5.501  0.0280 -0.0557 -0.1016
  782MOL0     C 5453   9.645   2.553   5.519  0.1216  0.2866 -0.1022
  782MOL0     C 5454   9.694   2.587   5.398 -0.8826  0.0604 -0.1144
  782MOL0     C 5455   9.777   2.705   5.354  0.1802  0.8282 -0.4238
  782MOL0     C 5456   9.714   2.832   5.419  0.5775 -0.2970 -0.5809
  782MOL0     C 5457   9.797   2.952   5.363 -0.4875 -0.1325  0.3275
  782MOL0     C 5458   9.746   3.077   5.435 -0.1985  0.4723  0.5544
  782MOL0     O 5459   9.812   3.198   5.396 -0.1071  0.0351 -0.3851
  782MOL0     C 5460   9.934   3.236   5.447 -0.3876  0.8823  0.5529
  782MOL0     C 5461   9.986   3.371   5.426 -0.5403 -0.0868 -0.1462
  782MOL0     C 5462  10.091   3.416   5.491 -0.3794  0.4059  0.1804
  782MOL0     C 5463  10.172   3.330   5.570  0.0644 -0.6961  0.2110
  782MOL0     C 5464  10.299   3.376   5.636 -0.2197 -0.1850 -0.3049
  782MOL0     O 5465  10.343   3.494   5.600 -0.6885 -0.1977 -0.3715
  782MOL0     C 5466  10.464   3.530   5.649  0.4179 -0.5358 -0.1792
  782MOL0     C 5467  10.464   3.580   5.777  0.1606 -1.1995  0.7943
  782MOL0     C 5468  10.587   3.597   5.840  0.4733  0.4715 -0.3525
  782MOL0     C 5469  10.707   3.583   5.771 -0.5331 -0.1194 -0.0100
  782MOL0     O 5470  10.835   3.614   5.822  0.2478 -0.2034 -0.0681
  782MOL0     C 5471  10.853   3.704   5.932  0.6766  0.2162  0.3367
  782MOL0     C 5472  10.994   3.738   5.961  0.5739  0.0073 -0.5456
  782MOL0     C 5473  11.006   3.783   6.106 -0.5004  0.0008 -0.3664
  782MOL0     C 5474  11.147   3.781   6.156  0.2190 -0.5839  0.2042
  782MOL0     C 5475  11.159   3.843   6.295  0.1931 -0.3931  0.4318
  782MOL0     C 5476  11.294   3.826   6.364  1.1723  0.1907 -0.3867
  782MOL0     C 5477  11.413   3.869   6.285 -0.6244  0.0538  0.2392
  782MOL0     C 5478  11.542   3.880   6.365  0.4455  0.5425 -0.0943
  782MOL0    Cl 5479  11.690   3.940   6.273 -0.0616 -0.1350 -0.3816
  782MOL0     C 5480  10.705   3.528   5.648  0.0649 -0.5150 -0.7601
  782MOL0     C 5481  10.582   3.491   5.589  0.1897 -0.3389  0.7091
  782MOL0     O 5482  10.364   3.295   5.696  0.4389  0.0699  0.3640
  782MOL0     C 5483  10.131   3.195   5.585  0.1139 -0.3038 -0.6751
  782MOL0     C 5484  10.012   3.144   5.526 -0.5584 -0.1873  0.5097
  782MOL0     N 5485   9.673   2.483   5.312  0.2861 -0.2956 -0.1466
  782MOL0     N 5486   9.593   2.395   5.371  0.2710 -0.4433  0.7093
  782MOL0     C 5487   8.369   2.261   5.731  0.7159  0.2021  0.1057
  782MOL0     C 5488   8.235   2.267   5.731  1.3043 -0.1164 -0.4914
  782MOL0     C 5489   7.826   2.057   5.719  0.3987 -0.1303  0.0833
  782MOL0     C 5490   7.781   1.990   5.596  1.1042  0.8253  0.1112
  782MOL0     C 5491   7.643   1.961   5.570  0.1296  0.1879 -0.1612
  782MOL0     C 5492   7.544   2.013   5.653 -0.0448  0.0619 -0.9251
  782MOL0     O 5493   7.409   1.999   5.616 -0.2398 -0.1901 -0.8259
  782MOL0     C 5494   7.312   2.105   5.649  0.6020  0.0050 -0.8193
  782MOL0     C 5495   7.228   2.034   5.749 -0.5387  0.4825  0.0665
  782MOL0     C 5496   7.124   1.932   5.696 -0.4090 -0.2469 -0.2084
  782MOL0     C 5497   7.062   1.842   5.803 -1.0888 -0.6546 -0.6761
  782MOL0     C 5498   7.166   1.755   5.861  0.4439 -0.8748  0.3071
  782MOL0     C 5499   7.241   1.674   5.913  0.2584 -0.7349 -0.9253
  782MOL0     C 5500   7.585   2.084   5.769 -0.4728  1.3958  0.0346
  782MOL0     C 5501   7.721   2.098   5.808 -0.0965 -0.4849  0.5684
  782MOL0     C 5502   7.746   2.165   5.936  0.1403  0.2131 -1.1776
  782MOL0     H 5503   8.156   2.061   5.980  0.2291 -0.9525  0.0662
  782MOL0     H 5504   8.413   2.060   5.995 -1.4087  0.8547  2.8342
  782MOL0     H 5505   8.641   2.277   5.672 -0.4455  2.7694  0.0361
  782MOL0     H 5506   8.620   2.365   5.820  0.9985  1.3881 -2.0376
  782MOL0     H 5507   8.818   2.130   5.835 -0.3047 -0.2428  2.0410
  782MOL0     H 5508   8.817   2.284   5.907 -2.2156 -2.0472  1.0945
  782MOL0     H 5509   8.871   2.410   5.705 -1.4684 -0.4766 -1.6306
  782MOL0     H 5510   8.886   2.264   5.608 -0.0178  1.7023 -1.4879
  782MOL0     H 5511   9.069   2.322   5.852 -0.0772 -1.4573  1.8704
  782MOL0     H 5512   9.072   2.166   5.759  2.3121  1.4560 -0.4409
  782MOL0     H 5513   9.095   2.288   5.558  3.3477 -1.2717 -1.0827
  782MOL0     H 5514   9.118   2.446   5.656 -1.7548  0.1145  1.0455
  782MOL0     H 5515   9.297   2.326   5.781  0.1989 -2.2775  0.2972
  782MOL0     H 5516   9.277   2.186   5.660 -1.7059 -0.3510 -2.0998
  782MOL0     H 5517   9.341   2.477   5.582  4.5293  0.9248 -1.6895
  782MOL0     H 5518   9.338   2.331   5.478  0.2088  0.5435  0.1590
  782MOL0     H 5519   9.519   2.376   5.699 -1.4294 -1.1741 -0.0092
  782MOL0     H 5520   9.533   2.247   5.574  1.5452  0.5455 -1.7308
  782MOL0     H 5521   9.659   2.601   5.616  0.4814 -3.5332  1.9399
  782MOL0     H 5522   9.882   2.679   5.374 -0.3968 -1.1693  0.1897
  782MOL0     H 5523   9.776   2.712   5.245  1.3626  2.5468 -0.3661
  782MOL0     H 5524   9.610   2.817   5.390  1.2600 -2.9363 -2.0412
  782MOL0     H 5525   9.724   2.821   5.528  0.3448  0.5273 -0.4736
  782MOL0     H 5526   9.788   2.982   5.258  0.0869 -1.6178 -0.1704
  782MOL0     H 5527   9.900   2.936   5.397  0.5741  0.8804 -2.1988
  782MOL0     H 5528   9.765   3.071   5.542  0.5006  1.0313  0.4705
  782MOL0     H 5529   9.640   3.085   5.411 -0.4934  0.0720  1.6762
  782MOL0     H 5530   9.929   3.451   5.380 -1.8895 -0.7335  0.3332
  782MOL0     H 5531  10.113   3.519   5.465 -1.1762  0.3857 -0.5944
  782MOL0     H 5532  10.371   3.600   5.828  0.1385  1.6280 -0.1828
  782MOL0     H 5533  10.581   3.639   5.940 -0.5223  1.9355 -0.9979
  782MOL0     H 5534  10.806   3.803   5.924  3.3783  1.5677  0.0675
  782MOL0     H 5535  10.812   3.643   6.013  0.0517 -2.0757 -1.5729
  782MOL0     H 5536  11.051   3.645   5.949 -1.7154 -1.5385 -0.1112
  782MOL0     H 5537  11.034   3.809   5.888  0.2026 -1.3592 -2.1500
  782MOL0     H 5538  10.982   3.890   6.099  3.6721  1.1264 -0.0357
  782MOL0     H 5539  10.940   3.726   6.172 -2.7916  1.4370 -1.2753
  782MOL0     H 5540  11.211   3.824   6.078  2.5420 -4.4748 -0.3055
  782MOL0     H 5541  11.194   3.682   6.159  1.2065 -0.1775 -0.8674
  782MOL0     H 5542  11.083   3.799   6.361 -1.6938 -0.1543 -1.4956
  782MOL0     H 5543  11.150   3.950   6.277  2.8322 -0.1816 -0.0630
  782MOL0     H 5544  11.289   3.872   6.463  0.2201 -0.2656 -0.2064
  782MOL0     H 5545  11.299   3.721   6.394  1.3736  0.7490  1.6740
  782MOL0     H 5546  11.402   3.970   6.245  2.3981 -0.0045 -1.0500
  782MOL0     H 5547  11.420   3.795   6.205  0.1631 -2.3140  2.3760
  782MOL0     H 5548  11.525   3.951   6.446  0.4148 -0.3157  0.6600
  782MOL0     H 5549  11.563   3.787   6.418 -0.7473  0.0395 -0.4598
  782MOL0     H 5550  10.794   3.540   5.587  0.2462  3.2727 -0.0212
  782MOL0     H 5551  10.581   3.430   5.499  1.7637 -0.1057  0.5158
  782MOL0     H 5552  10.194   3.125   5.641  2.3356  2.9540  1.2176
  782MOL0     H 5553   9.986   3.044   5.558  0.0091  0.2883  2.5843
  782MOL0     H 5554   8.429   2.287   5.644  0.2052 -2.6266 -1.2138
  782MOL0     H 5555   8.183   2.324   5.655 -0.6131  0.8368  1.4339
  782MOL0     H 5556   7.852   1.959   5.519  0.4447 -0.1794 -0.1101
  782MOL0     H 5557   7.611   1.915   5.477 -1.9826  0.8100  0.2019
  782MOL0     H 5558   7.255   2.133   5.560  0.2033 -0.0032 -0.5708
  782MOL0     H 5559   7.367   2.195   5.675 -1.0205  0.9080 -0.3838
  782MOL0     H 5560   7.175   2.119   5.793  2.0745  2.1176  0.2649
  782MOL0     H 5561   7.293   1.989   5.824 -0.6370 -0.6297 -0.5037
  782MOL0     H 5562   7.181   1.870   5.627  1.3759  2.0202 -0.8654
  782MOL0     H 5563   7.043   1.980   5.640 -1.1685 -0.7436  0.4292
  782MOL0     H 5564   7.035   1.903   5.890  0.7632  2.8429 -2.3584
  782MOL0     H 5565   6.975   1.791   5.761 -0.4696 -1.6794 -0.7469
  782MOL0     H 5566   7.296   1.597   5.962  0.8165  1.7189  2.6575
  782MOL0     H 5567   7.513   2.137   5.829 -0.5941  2.5945 -1.1178
  782MOL0     H 5568   7.664   2.149   6.007  0.3721  1.6002 -0.5543
  782MOL0     H 5569   7.833   2.120   5.985 -1.6329 -0.1546  1.9349
  782MOL0     H 5570   7.747   2.275   5.928  0.3188  0.7302  3.1857
  783MOL0     O 5571  11.134   2.666   1.004  0.1559  0.4455  0.0621
  783MOL0     C 5572  11.134   2.551   0.956 -1.0587  0.0409  0.3498
  783MOL0     O 5573  11.246   2.481   0.936  0.0186 -0.1110  0.5161
  783MOL0     C 5574  11.353   2.500   1.015 -0.2596  0.5048  0.1309
  783MOL0     C 5575  11.342   2.509   1.152  0.7203 -0.4323  0.3129
  783MOL0     C 5576  11.450   2.548   1.229  0.4610 -0.6655  0.1565
  783MOL0     C 5577  11.570   2.584   1.167 -0.6233 -0.1211 -0.1207
  783MOL0     O 5578  11.667   2.638   1.248  0.6815  1.1754 -0.4040
  783MOL0     C 5579  11.774   2.719   1.205  0.4439 -0.3147 -0.1737
  783MOL0     C 5580  11.881   2.695   1.309 -0.2745 -0.9480 -0.3007
  783MOL0     C 5581  12.007   2.784   1.274 -0.6659  0.4076  0.8333
  783MOL0     C 5582  12.131   2.789   1.377  0.2786 -0.6200 -0.9111
  783MOL0     C 5583  12.228   2.899   1.345 -0.0729  0.5357  0.6747
  783MOL0     C 5584  12.288   2.872   1.202  0.2678  0.6478 -0.0187
  783MOL0     C 5585  12.411   2.952   1.183 -0.4701 -1.1737 -0.2159
  783MOL0     C 5586  12.380   3.104   1.161 -0.1299 -0.6049  0.1732
  783MOL0     N 5587  12.492   3.176   1.125 -0.6926  0.0021 -0.5407
  783MOL0     C 5588  12.605   3.185   1.200  0.2601 -0.0969 -0.4115
  783MOL0     C 5589  12.692   3.246   1.120 -0.2629  0.1837  0.1965
  783MOL0     C 5590  12.836   3.273   1.148  1.1312  0.2714  0.5730
  783MOL0     C 5591  12.907   3.354   1.033 -0.0195 -0.1412 -0.9411
  783MOL0     C 5592  12.869   3.501   1.042 -1.1239  0.0790 -0.1526
  783MOL0     C 5593  12.854   3.573   0.906  0.5861  0.2718  0.1977
  783MOL0     O 5594  12.801   3.705   0.926 -0.3165  0.4088 -0.2207
  783MOL0     C 5595  12.876   3.799   0.988 -0.2851  0.1087  1.1137
  783MOL0     C 5596  13.014   3.795   1.012 -0.1443  0.0294 -0.2296
  783MOL0     C 5597  13.078   3.886   1.089 -0.4780  0.4433  0.2606
  783MOL0     C 5598  13.009   3.990   1.154  0.4883 -0.6118 -0.5593
  783MOL0     C 5599  13.088   4.083   1.249  0.1722 -0.0347  0.3733
  783MOL0     O 5600  13.223   4.068   1.248 -0.2333 -0.1857  0.3485
  783MOL0     C 5601  13.299   4.140   1.331 -0.8739 -0.0207 -0.6648
  783MOL0     C 5602  13.314   4.280   1.315  0.2846 -0.5923  0.1501
  783MOL0     C 5603  13.379   4.354   1.410  0.8323 -0.7768 -0.3246
  783MOL0     C 5604  13.442   4.295   1.516  0.3152  0.7219  1.0503
  783MOL0     O 5605  13.525   4.382   1.594 -0.5106  0.3529 -0.7734
  783MOL0     C 5606  13.633   4.320   1.676  0.5369  0.1024 -0.1670
  783MOL0     C 5607  13.690   4.407   1.789  0.4503  0.4290 -0.0330
  783MOL0     C 5608  13.788   4.315   1.861 -0.5570 -0.1200  0.4283
  783MOL0     C 5609  13.908   4.264   1.778 -0.7125 -1.1518 -0.4488
  783MOL0     C 5610  14.015   4.215   1.880  0.1332  0.4190 -0.5572
  783MOL0     C 5611  14.150   4.184   1.827  0.0588 -0.1117  0.3933
  783MOL0     C 5612  14.256   4.170   1.935 -0.2539  0.0435  0.6170
  783MOL0     C 5613  14.404   4.163   1.887  0.7592  0.2322 -0.1696
  783MOL0    Cl 5614  14.460   4.324   1.817 -0.5534 -0.1460  0.2298
  783MOL0     C 5615  13.438   4.154   1.528  0.0707  0.0242 -0.4230
  783MOL0     C 5616  13.366   4.076   1.439 -0.4190  0.2417  0.2157
  783MOL0     O 5617  13.016   4.153   1.326 -0.2856 -0.5553 -0.4499
  783MOL0     C 5618  12.874   4.008   1.121 -1.0648  0.6796 -0.4725
  783MOL0     C 5619  12.807   3.905   1.047 -0.4497  0.2867 -0.2485
  783MOL0     N 5620  12.628   3.289   1.007  0.2326 -0.5330 -0.5198
  783MOL0     N 5621  12.518   3.236   1.011  0.3865  0.3324  0.1445
  783MOL0     C 5622  11.588   2.569   1.029  1.3825  1.3893 -0.5017
  783MOL0     C 5623  11.477   2.527   0.951 -0.2844 -0.5617 -0.2614
  783MOL0     C 5624  11.003   2.494   0.911 -0.4732 -0.3045  0.3967
  783MOL0     C 5625  10.883   2.524   0.985 -0.0063  0.4136 -0.4172
  783MOL0     C 5626  10.754   2.468   0.960  0.0171 -0.2616 -0.6364
  783MOL0     C 5627  10.741   2.384   0.848  0.6897 -0.2793 -0.5592
  783MOL0     O 5628  10.624   2.325   0.796  0.2079 -0.6037  0.0479
  783MOL0     C 5629  10.504   2.346   0.882 -1.0777  0.5682  0.3124
  783MOL0     C 5630  10.393   2.271   0.816  0.3376 -0.8179 -0.0839
  783MOL0     C 5631  10.297   2.243   0.917  1.0393  0.2964  0.1927
  783MOL0     C 5632  10.179   2.169   0.863  0.5642 -0.7238 -0.5384
  783MOL0     C 5633  10.064   2.189   0.957 -0.4990 -0.7560  0.8721
  783MOL0     C 5634   9.968   2.177   1.028  0.5659 -0.0928  0.1624
  783MOL0     C 5635  10.856   2.347   0.777 -1.2312  0.1834 -0.4861
  783MOL0     C 5636  10.985   2.409   0.798  0.7670  0.1031 -0.2109
  783MOL0     C 5637  11.089   2.383   0.692 -0.2123 -0.2477  0.1722
  783MOL0     H 5638  11.252   2.489   1.210 -0.7066  3.4287 -0.2330
  783MOL0     H 5639  11.438   2.566   1.335  0.1993  3.1728 -0.3739
  783MOL0     H 5640  11.824   2.686   1.113 -1.8604  0.9290 -1.9786
  783MOL0     H 5641  11.752   2.825   1.191  1.5146 -0.0232  0.2456
  783MOL0     H 5642  11.905   2.591   1.335  0.0688 -0.6530  0.6087
  783MOL0     H 5643  11.837   2.735   1.401 -0.3570  1.4732 -1.3274
  783MOL0     H 5644  11.978   2.886   1.246  0.4466 -0.0500 -2.4787
  783MOL0     H 5645  12.040   2.742   1.178  0.5103  0.7229  1.0810
  783MOL0     H 5646  12.092   2.800   1.478  2.1963  2.8675 -0.3966
  783MOL0     H 5647  12.186   2.694   1.366  2.4667  0.3321  0.9726
  783MOL0     H 5648  12.178   2.996   1.353  0.3370  1.0009 -1.5501
  783MOL0     H 5649  12.315   2.894   1.412  0.9122  3.8566 -0.1643
  783MOL0     H 5650  12.307   2.764   1.197  0.9941  0.8133 -3.7962
  783MOL0     H 5651  12.217   2.908   1.128 -0.6927  1.0414  1.0511
  783MOL0     H 5652  12.463   2.917   1.093 -0.2358  0.0823 -0.5898
  783MOL0     H 5653  12.479   2.957   1.269  0.0518 -0.3607 -0.6620
  783MOL0     H 5654  12.310   3.118   1.078  1.3789 -1.4605 -1.3124
  783MOL0     H 5655  12.341   3.147   1.254  1.2526  0.7905  0.1495
  783MOL0     H 5656  12.625   3.142   1.297 -2.9160 -0.8336  0.0474
  783MOL0     H 5657  12.826   3.335   1.238 -0.1516  0.7941  0.0943
  783MOL0     H 5658  12.882   3.178   1.176  1.4814  0.8627  2.1693
  783MOL0     H 5659  13.016   3.360   1.036  0.3150 -3.3029 -2.4933
  783MOL0     H 5660  12.871   3.313   0.938  0.2703 -2.4454 -0.1155
  783MOL0     H 5661  12.938   3.559   1.105 -3.0241  1.5750  0.6729
  783MOL0     H 5662  12.774   3.510   1.096 -2.6068  0.4316 -2.6767
  783MOL0     H 5663  12.788   3.504   0.854 -0.7121  0.6141  1.3324
  783MOL0     H 5664  12.946   3.585   0.847  1.8788  0.8817  2.2046
  783MOL0     H 5665  13.071   3.712   0.972  1.0286 -0.0346  1.4712
  783MOL0     H 5666  13.182   3.874   1.119 -0.3759  2.4236  0.8246
  783MOL0     H 5667  13.257   4.319   1.231  1.6045 -1.5647 -1.2604
  783MOL0     H 5668  13.361   4.460   1.404 -0.3207 -1.0147 -1.6784
  783MOL0     H 5669  13.596   4.233   1.730  4.0552 -0.6335  1.3418
  783MOL0     H 5670  13.700   4.280   1.599 -0.6430 -2.7715  0.1709
  783MOL0     H 5671  13.744   4.497   1.760  0.9416  0.8411  2.0619
  783MOL0     H 5672  13.603   4.428   1.852 -0.0691 -0.9329 -0.2576
  783MOL0     H 5673  13.831   4.370   1.946 -1.1206  0.1880  0.5164
  783MOL0     H 5674  13.739   4.229   1.907 -1.8478  0.4711  0.1811
  783MOL0     H 5675  13.947   4.346   1.717 -0.5098 -1.8627 -1.3124
  783MOL0     H 5676  13.875   4.181   1.714 -3.3655 -1.1250  0.7395
  783MOL0     H 5677  13.977   4.132   1.941  1.6046 -0.1669 -0.3973
  783MOL0     H 5678  14.033   4.300   1.947  1.8536  0.6855 -1.3193
  783MOL0     H 5679  14.150   4.093   1.767 -1.1115 -0.6426  1.1631
  783MOL0     H 5680  14.186   4.262   1.759  0.2122 -1.1038 -0.6958
  783MOL0     H 5681  14.243   4.073   1.983 -0.5630 -1.4762 -2.3113
  783MOL0     H 5682  14.249   4.257   2.002  1.5618  1.9052 -1.4444
  783MOL0     H 5683  14.465   4.144   1.976  1.6244  1.2401 -0.5177
  783MOL0     H 5684  14.430   4.089   1.811  2.1672  1.3667 -0.8334
  783MOL0     H 5685  13.495   4.112   1.610 -0.6369  0.9692  0.5786
  783MOL0     H 5686  13.357   3.970   1.457 -1.6890 -0.2899 -2.9060
  783MOL0     H 5687  12.838   4.103   1.160 -2.3177  1.8679 -4.0811
  783MOL0     H 5688  12.700   3.921   1.035 -0.2586  2.2139  0.2449
  783MOL0     H 5689  11.683   2.590   0.981  1.6090  1.7099  0.0697
  783MOL0     H 5690  11.484   2.526   0.843 -2.1382  0.3442 -0.4431
  783MOL0     H 5691  10.887   2.598   1.064  0.1960 -0.6275  0.5697
  783MOL0     H 5692  10.670   2.515   1.009  1.4963  2.2191 -0.3006
  783MOL0     H 5693  10.475   2.449   0.903 -2.0384 -0.1319  2.6987
  783MOL0     H 5694  10.527   2.293   0.975 -0.9174 -0.9384 -0.5523
  783MOL0     H 5695  10.427   2.181   0.765 -2.8687 -0.7638 -2.6561
  783MOL0     H 5696  10.351   2.342   0.744  2.5691  1.6252  0.8894
  783MOL0     H 5697  10.270   2.340   0.959  0.1762  1.1902 -2.2678
  783MOL0     H 5698  10.336   2.189   1.004  1.0610  1.6508  1.0414
  783MOL0     H 5699  10.155   2.201   0.761  0.7605 -2.9401 -1.3469
  783MOL0     H 5700  10.187   2.063   0.839 -0.3319 -0.3842 -2.5756
  783MOL0     H 5701   9.891   2.168   1.102 -0.6665  1.2446 -0.8784
  783MOL0     H 5702  10.844   2.292   0.684  0.4220  3.5071 -2.8438
  783MOL0     H 5703  11.148   2.474   0.675 -0.1450 -0.7241 -2.5804
  783MOL0     H 5704  11.164   2.308   0.717  1.3839  1.2322  0.0022
  783MOL0     H 5705  11.037   2.349   0.601 -0.8557 -3.5912  1.6605
  784MOL0     O 5706   1.997   1.504  10.245 -0.3864 -0.1118 -0.4393
  784MOL0     C 5707   2.001   1.446  10.350  0.8443 -0.0405 -0.5581
  784MOL0     O 5708   2.111   1.383  10.401  0.4535 -0.5215  0.1919
  784MOL0     C 5709   2.239   1.406  10.360 -0.9248 -0.5832 -0.1476
  784MOL0     C 5710   2.290   1.525  10.310 -0.5254  0.0126  0.3750
  784MOL0     C 5711   2.424   1.537  10.276  0.4051 -0.0308  0.0537
  784MOL0     C 5712   2.515   1.432  10.307 -0.0243 -0.3217 -0.0846
  784MOL0     O 5713   2.655   1.441  10.294  1.0370 -0.1434  0.7300
  784MOL0     C 5714   2.693   1.521  10.176 -0.1966 -0.4311  0.4491
  784MOL0     C 5715   2.830   1.473  10.132 -1.0529 -0.0939  0.5090
  784MOL0     C 5716   2.942   1.506  10.227  0.5670 -0.4549  0.4007
  784MOL0     C 5717   3.066   1.428  10.181 -0.3119 -0.1318 -0.0725
  784MOL0     C 5718   3.182   1.467  10.269  1.2623  0.1911  0.1258
  784MOL0     C 5719   3.312   1.420  10.203 -0.2137  1.1119  0.3045
  784MOL0     C 5720   3.436   1.443  10.296 -0.0920 -0.3646  0.3615
  784MOL0     C 5721   3.478   1.603  10.297  0.4449 -0.0730 -0.1634
  784MOL0     N 5722   3.580   1.630  10.398 -0.6496 -0.2354 -0.6967
  784MOL0     C 5723   3.565   1.647  10.533  0.4266 -0.1830  0.1540
  784MOL0     C 5724   3.693   1.670  10.587  0.2398  0.2005 -0.6946
  784MOL0     C 5725   3.712   1.694  10.738  0.1760  0.0132  0.6127
  784MOL0     C 5726   3.779   1.581  10.816 -0.1249  0.0629  0.1357
  784MOL0     C 5727   3.837   1.627  10.948 -0.3314  0.0731 -0.8286
  784MOL0     C 5728   3.894   1.509  11.031  0.1162 -0.7894 -0.6663
  784MOL0     O 5729   3.973   1.553  11.144  0.2180 -0.1179  0.3527
  784MOL0     C 5730   4.100   1.599  11.115  0.6848 -0.1275  0.8147
  784MOL0     C 5731   4.124   1.730  11.142  0.2576  0.0268 -0.2845
  784MOL0     C 5732   4.253   1.778  11.124 -0.9518  1.2891  0.7275
  784MOL0     C 5733   4.351   1.697  11.069  0.2509 -1.0088  0.1646
  784MOL0     C 5734   4.484   1.745  11.034 -0.6732  0.6718 -0.5095
  784MOL0     O 5735   4.517   1.868  11.086 -1.0561  0.1056  0.3172
  784MOL0     C 5736   4.646   1.917  11.069  0.3849 -0.3689 -0.0320
  784MOL0     C 5737   4.757   1.844  11.104 -0.0307  0.3142 -0.1772
  784MOL0     C 5738   4.887   1.892  11.085  0.3100 -0.0195 -0.7408
  784MOL0     C 5739   4.905   2.014  11.016  0.1647  0.1107 -0.2070
  784MOL0     O 5740   5.030   2.065  10.996 -0.5288  0.0123 -0.1443
  784MOL0     C 5741   5.128   1.981  10.940  0.4443  0.5639 -0.6352
  784MOL0     C 5742   5.280   2.025  10.938  0.5042  0.0255  0.6775
  784MOL0     C 5743   5.321   2.069  10.794 -0.0798  0.2213  0.1646
  784MOL0     C 5744   5.472   2.108  10.797 -0.4700 -0.6856  0.1444
  784MOL0     C 5745   5.525   2.156  10.662 -0.4347 -0.0741 -0.2620
  784MOL0     C 5746   5.661   2.236  10.683 -0.1167  0.5936 -0.2594
  784MOL0     C 5747   5.791   2.157  10.709  0.1707  0.7569  0.7510
  784MOL0     C 5748   5.905   2.241  10.764 -0.9829 -0.9822  0.4603
  784MOL0    Cl 5749   6.049   2.142  10.793  0.4449 -0.5191 -1.0022
  784MOL0     C 5750   4.794   2.091  10.969  0.4290 -0.5678 -0.3702
  784MOL0     C 5751   4.662   2.048  11.005 -0.3736  0.0282  0.0411
  784MOL0     O 5752   4.560   1.668  10.980  0.7016 -0.1300  0.0953
  784MOL0     C 5753   4.308   1.572  11.018 -0.0753  0.5664  0.5751
  784MOL0     C 5754   4.183   1.521  11.053 -0.2878  0.4140  0.3583
  784MOL0     N 5755   3.785   1.647  10.483  0.6665 -0.3034  0.3205
  784MOL0     N 5756   3.710   1.638  10.375  0.9847 -0.0532 -0.1514
  784MOL0     C 5757   2.464   1.310  10.356  0.3163  0.2464 -0.3212
  784MOL0     C 5758   2.321   1.297  10.383  0.3481 -0.3861 -1.2883
  784MOL0     C 5759   1.877   1.451  10.438  0.3095 -0.0021  0.0624
  784MOL0     C 5760   1.868   1.355  10.533 -0.1082  0.0704 -0.4496
  784MOL0     C 5761   1.754   1.343  10.611  1.1765 -0.6726  0.2875
  784MOL0     C 5762   1.648   1.437  10.604 -0.1663 -0.8715  0.5416
  784MOL0     O 5763   1.538   1.419  10.684 -0.5816  0.4123  0.4523
  784MOL0     C 5764   1.424   1.507  10.693 -0.1747  0.0692  0.3029
  784MOL0     C 5765   1.323   1.483  10.577 -0.6166  0.4209 -1.0487
  784MOL0     C 5766   1.203   1.567  10.608  0.9694 -0.4845  0.1583
  784MOL0     C 5767   1.088   1.524  10.504  0.0707 -0.7481  0.2511
  784MOL0     C 5768   0.967   1.604  10.518 -0.3374 -0.7636 -0.4778
  784MOL0     C 5769   0.872   1.678  10.543 -0.5118  0.5938 -0.7942
  784MOL0     C 5770   1.658   1.535  10.500 -0.3642 -0.2420  0.9882
  784MOL0     C 5771   1.766   1.544  10.414 -0.1790 -0.3743 -0.1964
  784MOL0     C 5772   1.760   1.653  10.311 -0.2069 -0.6317  0.0375
  784MOL0     H 5773   2.222   1.607  10.289 -0.8209 -0.8090 -2.2413
  784MOL0     H 5774   2.454   1.636  10.243  0.3301  0.7316  2.1192
  784MOL0     H 5775   2.620   1.509  10.095  1.5638  2.4111 -1.7415
  784MOL0     H 5776   2.711   1.626  10.198 -0.8887 -0.1997 -0.0480
  784MOL0     H 5777   2.858   1.522  10.038 -6.0730  2.3998  0.0093
  784MOL0     H 5778   2.829   1.366  10.110  0.0121  0.0914 -0.5231
  784MOL0     H 5779   2.916   1.478  10.330 -0.8641 -1.3913 -0.1900
  784MOL0     H 5780   2.947   1.615  10.229  2.3487 -0.4605 -0.8681
  784MOL0     H 5781   3.057   1.320  10.196  0.2040  0.1342  2.6421
  784MOL0     H 5782   3.086   1.450  10.076  0.9819  1.5629  0.4930
  784MOL0     H 5783   3.178   1.575  10.280  1.4335 -0.0294  3.1931
  784MOL0     H 5784   3.177   1.424  10.369  2.5132 -1.1724 -0.3581
  784MOL0     H 5785   3.298   1.313  10.185  2.1091  1.1487 -2.5543
  784MOL0     H 5786   3.317   1.467  10.104  0.0733  4.1188  1.6335
  784MOL0     H 5787   3.514   1.380  10.252 -1.3892 -1.6336 -0.1958
  784MOL0     H 5788   3.413   1.416  10.399  1.2151  3.4323  1.8356
  784MOL0     H 5789   3.513   1.635  10.199  0.6846  0.2849  0.0360
  784MOL0     H 5790   3.396   1.667  10.329  1.5344  0.2114  2.2736
  784MOL0     H 5791   3.475   1.651  10.594 -0.4944  1.0292 -1.2354
  784MOL0     H 5792   3.768   1.787  10.750 -2.8075  2.5137 -2.6568
  784MOL0     H 5793   3.614   1.703  10.786  0.3561 -2.1377  1.5049
  784MOL0     H 5794   3.704   1.502  10.829 -1.2037  1.0041 -0.2301
  784MOL0     H 5795   3.868   1.549  10.761 -0.7495  0.7218 -1.3314
  784MOL0     H 5796   3.761   1.690  10.997  0.4555  2.0753 -2.0531
  784MOL0     H 5797   3.918   1.700  10.938 -1.0413  0.9066 -0.6497
  784MOL0     H 5798   3.957   1.451  10.963  2.6559  1.2379 -0.1689
  784MOL0     H 5799   3.806   1.448  11.054 -0.3145  0.7244  2.1048
  784MOL0     H 5800   4.063   1.794  11.205 -1.4677  1.1659 -2.9238
  784MOL0     H 5801   4.276   1.879  11.155 -0.8888  2.1400 -1.8847
  784MOL0     H 5802   4.741   1.754  11.163  0.9620 -1.2418 -2.1477
  784MOL0     H 5803   4.969   1.832  11.123 -0.8422 -0.8189  0.5740
  784MOL0     H 5804   5.118   1.879  10.979  0.4991  0.4924 -0.8052
  784MOL0     H 5805   5.090   1.981  10.837 -2.6252  1.2934  0.3913
  784MOL0     H 5806   5.310   2.091  11.021  1.0872 -1.6364  1.8435
  784MOL0     H 5807   5.339   1.938  10.966  0.6556 -0.2659 -0.5071
  784MOL0     H 5808   5.303   2.006  10.706 -0.8671  1.3451 -0.4930
  784MOL0     H 5809   5.251   2.147  10.763 -2.5943 -1.6857  0.6890
  784MOL0     H 5810   5.531   2.019  10.822 -0.8171 -0.6214  1.2522
  784MOL0     H 5811   5.478   2.187  10.873 -1.6992  0.2000 -0.6495
  784MOL0     H 5812   5.446   2.222  10.622 -0.9384 -1.8180 -2.3279
  784MOL0     H 5813   5.551   2.071  10.598 -0.7511  2.0395 -3.4459
  784MOL0     H 5814   5.683   2.298  10.596  4.0147  0.3682  0.4296
  784MOL0     H 5815   5.660   2.300  10.772  2.8053  0.0104  0.2658
  784MOL0     H 5816   5.823   2.104  10.618 -2.4468  0.3850 -0.0273
  784MOL0     H 5817   5.779   2.074  10.779  1.7709 -0.5821 -0.4580
  784MOL0     H 5818   5.921   2.326  10.697  1.5520 -1.8212 -0.1044
  784MOL0     H 5819   5.884   2.288  10.860  0.1412 -1.0443  0.7540
  784MOL0     H 5820   4.804   2.187  10.920 -0.8412 -0.0594  0.3332
  784MOL0     H 5821   4.573   2.108  10.986 -0.2932 -0.0654 -0.6556
  784MOL0     H 5822   4.382   1.502  10.980  0.8128 -0.8099  4.4260
  784MOL0     H 5823   4.173   1.414  11.038  2.1698  0.4188 -2.1431
  784MOL0     H 5824   2.535   1.229  10.371  0.1021 -0.5366 -3.0185
  784MOL0     H 5825   2.285   1.207  10.431  1.6224 -0.9915 -1.4357
  784MOL0     H 5826   1.943   1.279  10.553 -1.2872 -1.0421 -0.0926
  784MOL0     H 5827   1.761   1.258  10.679 -0.4379  0.9244  2.6242
  784MOL0     H 5828   1.453   1.610  10.715  0.3678 -0.1413  0.5804
  784MOL0     H 5829   1.371   1.483  10.786 -1.5942  1.5950 -0.0755
  784MOL0     H 5830   1.289   1.379  10.577  0.9667 -0.1254 -1.1161
  784MOL0     H 5831   1.364   1.505  10.478 -2.0924 -1.9006 -2.2513
  784MOL0     H 5832   1.230   1.672  10.600  2.5815 -0.9222 -0.6007
  784MOL0     H 5833   1.163   1.554  10.709 -0.5150  0.3063 -0.2939
  784MOL0     H 5834   1.131   1.552  10.407  2.6453 -0.9175  1.2548
  784MOL0     H 5835   1.072   1.416  10.512  0.3912 -0.6661  2.7530
  784MOL0     H 5836   0.786   1.741  10.559  0.2893  1.1667  1.6748
  784MOL0     H 5837   1.571   1.597  10.482  0.0582 -0.6812 -3.9681
  784MOL0     H 5838   1.675   1.720  10.326  0.2809  0.2512 -1.0042
  784MOL0     H 5839   1.848   1.716  10.315 -0.6879 -0.0178  2.1725
  784MOL0     H 5840   1.749   1.603  10.214  0.4488  1.2862 -1.0619
  785MOL0     O 5841   6.449   1.521   2.101  0.0413 -0.0437 -0.3271
  785MOL0     C 5842   6.476   1.643   2.127  0.7301  0.9174  0.1599
  785MOL0     O 5843   6.593   1.694   2.184  1.1091  0.2259  0.5021
  785MOL0     C 5844   6.697   1.600   2.190 -0.2190 -0.2465  0.1001
  785MOL0     C 5845   6.761   1.569   2.314 -0.0384  0.7782 -0.2373
  785MOL0     C 5846   6.870   1.472   2.312  1.5016 -0.5120 -0.3866
  785MOL0     C 5847   6.920   1.414   2.195  0.3259  1.1744 -0.8782
  785MOL0     O 5848   7.022   1.324   2.194  0.2526  0.2221 -0.1670
  785MOL0     C 5849   6.992   1.186   2.240  0.1277  0.3671  0.2472
  785MOL0     C 5850   7.106   1.086   2.221 -0.1629  0.4520  0.0080
  785MOL0     C 5851   7.158   1.058   2.072  0.6779  0.7993 -0.5517
  785MOL0     C 5852   7.232   0.922   2.076 -0.2760 -0.1688 -1.0197
  785MOL0     C 5853   7.367   0.940   2.145 -0.1760  0.2410  0.6265
  785MOL0     C 5854   7.465   0.828   2.117  0.5521 -0.3191 -0.4078
  785MOL0     C 5855   7.587   0.861   2.211  0.2314  0.3015  0.0398
  785MOL0     C 5856   7.695   0.773   2.168 -0.0792  0.7897  0.4362
  785MOL0     N 5857   7.818   0.825   2.231 -0.0945 -0.5580  0.7278
  785MOL0     C 5858   7.893   0.766   2.331 -0.7560  0.0739  0.3502
  785MOL0     C 5859   8.016   0.834   2.326  0.5271  0.5120  0.6680
  785MOL0     C 5860   8.133   0.795   2.413 -0.8599 -0.2115  0.1482
  785MOL0     C 5861   8.207   0.678   2.332  0.2061  0.0618 -0.0910
  785MOL0     C 5862   8.354   0.654   2.380  0.0892  0.3670 -0.3205
  785MOL0     C 5863   8.403   0.540   2.300  0.1149  0.3806  0.2644
  785MOL0     O 5864   8.547   0.532   2.317  0.3309 -0.0070  0.4396
  785MOL0     C 5865   8.585   0.413   2.349 -0.3555  1.4640  0.4953
  785MOL0     C 5866   8.568   0.376   2.480  0.6554 -0.9619  0.0424
  785MOL0     C 5867   8.579   0.249   2.532  0.0586 -0.5619  0.7383
  785MOL0     C 5868   8.628   0.149   2.443  0.6763  1.0179  0.7308
  785MOL0     C 5869   8.657   0.013   2.492  0.2466  0.6939 -0.4128
  785MOL0     O 5870   8.580  -0.036   2.586  0.1103  0.1251  0.4212
  785MOL0     C 5871   8.614  -0.148   2.645  0.0260  0.0540  0.4305
  785MOL0     C 5872   8.514  -0.247   2.664 -0.2301  0.2132  0.5546
  785MOL0     C 5873   8.549  -0.358   2.747 -0.6827  0.1636  0.5605
  785MOL0     C 5874   8.678  -0.386   2.800  0.6409  0.0296 -0.1085
  785MOL0     O 5875   8.697  -0.506   2.872  0.5222 -0.1101 -0.1952
  785MOL0     C 5876   8.827  -0.548   2.922  0.4016 -0.5000  0.2951
  785MOL0     C 5877   8.825  -0.681   2.996 -0.2439 -0.8151  0.0793
  785MOL0     C 5878   8.945  -0.702   3.082 -0.7101 -0.1783 -0.2896
  785MOL0     C 5879   8.950  -0.847   3.144  0.3337 -0.3022 -0.5881
  785MOL0     C 5880   9.059  -0.870   3.244  0.5644 -0.3934  0.5515
  785MOL0     C 5881   9.197  -0.870   3.190 -0.6141 -0.4876  0.2977
  785MOL0     C 5882   9.304  -0.928   3.286  0.8693 -0.2561 -0.0132
  785MOL0     C 5883   9.426  -0.837   3.313 -0.4378  0.0109  0.1956
  785MOL0    Cl 5884   9.555  -0.896   3.424 -0.3791 -0.2922 -0.0368
  785MOL0     C 5885   8.775  -0.284   2.774 -1.4423  0.5504  0.3091
  785MOL0     C 5886   8.741  -0.163   2.706  0.3863 -0.7671 -0.1098
  785MOL0     O 5887   8.761  -0.037   2.451 -0.6778  0.2459 -0.1273
  785MOL0     C 5888   8.644   0.176   2.309 -0.7157 -0.5859  1.0748
  785MOL0     C 5889   8.628   0.306   2.255 -0.0998  0.5904  0.5116
  785MOL0     N 5890   8.010   0.929   2.223  0.1496 -0.6515  0.9572
  785MOL0     N 5891   7.891   0.926   2.168 -0.2817 -0.1343  0.1641
  785MOL0     C 5892   6.865   1.454   2.079 -0.4517  0.0254 -0.0006
  785MOL0     C 5893   6.751   1.539   2.074  0.1727  0.6894 -0.3562
  785MOL0     C 5894   6.374   1.739   2.095 -1.0431 -0.6903  0.8718
  785MOL0     C 5895   6.407   1.873   2.124 -0.1803 -0.8691 -0.3322
  785MOL0     C 5896   6.322   1.987   2.101 -0.8728 -0.2535  0.3804
  785MOL0     C 5897   6.197   1.957   2.057  0.8192  0.6708 -0.9403
  785MOL0     O 5898   6.109   2.068   2.057 -0.6061 -0.2869  0.5612
  785MOL0     C 5899   5.978   2.059   2.007  0.7671 -0.1788  0.4621
  785MOL0     C 5900   5.966   2.085   1.862 -0.3034 -0.1341 -0.6351
  785MOL0     C 5901   5.820   2.076   1.814 -0.6146 -0.1916 -0.7267
  785MOL0     C 5902   5.764   1.933   1.834 -0.6157 -0.2498 -0.3334
  785MOL0     C 5903   5.620   1.916   1.807  0.6454 -0.0740  0.0491
  785MOL0     C 5904   5.497   1.905   1.795 -0.0786  0.1446 -0.8711
  785MOL0     C 5905   6.162   1.824   2.039 -0.2792 -0.0863  0.2296
  785MOL0     C 5906   6.250   1.718   2.047 -0.1678 -0.5006  0.0917
  785MOL0     C 5907   6.193   1.581   1.995  0.8063  0.4076  0.3801
  785MOL0     H 5908   6.720   1.599   2.410  0.6689  2.2313 -0.3568
  785MOL0     H 5909   6.903   1.448   2.412 -1.2809  0.8117  0.9525
  785MOL0     H 5910   6.968   1.193   2.346 -1.4632 -1.7866  0.0823
  785MOL0     H 5911   6.907   1.150   2.182  1.6494 -2.6864 -0.2695
  785MOL0     H 5912   7.080   0.988   2.260  0.4270 -0.2072 -1.2259
  785MOL0     H 5913   7.193   1.124   2.277  1.5244 -1.1416 -1.4212
  785MOL0     H 5914   7.227   1.141   2.052  1.3203  0.6707  0.9819
  785MOL0     H 5915   7.074   1.057   2.003  0.7789 -0.6404 -0.6841
  785MOL0     H 5916   7.172   0.852   2.135  2.3996 -2.1660 -0.4881
  785MOL0     H 5917   7.234   0.886   1.973 -0.6498 -0.6870 -0.8486
  785MOL0     H 5918   7.410   1.033   2.107 -2.3578  1.8027  1.7698
  785MOL0     H 5919   7.348   0.947   2.253 -1.4616  2.1793  0.3401
  785MOL0     H 5920   7.415   0.731   2.126 -0.2074  0.0610 -0.5000
  785MOL0     H 5921   7.500   0.830   2.013 -0.8698  1.7338 -0.9182
  785MOL0     H 5922   7.567   0.855   2.318  0.9358  2.5361  0.3449
  785MOL0     H 5923   7.612   0.963   2.183  0.7975  1.1092  3.1635
  785MOL0     H 5924   7.669   0.675   2.209  0.8044  0.4310  0.1770
  785MOL0     H 5925   7.703   0.765   2.059 -1.2959  0.5643  0.3456
  785MOL0     H 5926   7.866   0.680   2.392  0.4531 -0.2395  0.4644
  785MOL0     H 5927   8.206   0.874   2.429  0.0958 -0.7591 -1.3112
  785MOL0     H 5928   8.105   0.762   2.513 -0.6099  0.5611  0.4779
  785MOL0     H 5929   8.155   0.582   2.341  1.3843 -0.6492 -0.6672
  785MOL0     H 5930   8.214   0.710   2.227 -0.3932 -0.4146 -0.2827
  785MOL0     H 5931   8.364   0.642   2.489  0.9118  2.1496 -0.1580
  785MOL0     H 5932   8.417   0.739   2.353 -0.6466  1.3271  0.8978
  785MOL0     H 5933   8.380   0.557   2.194  1.1359  0.3467  0.0278
  785MOL0     H 5934   8.350   0.451   2.335 -1.4731  2.1395  2.6391
  785MOL0     H 5935   8.516   0.451   2.539 -0.3457  0.0980 -2.0875
  785MOL0     H 5936   8.557   0.246   2.638 -0.3874  0.7179  0.6965
  785MOL0     H 5937   8.416  -0.241   2.619  0.5099  1.7880 -0.9556
  785MOL0     H 5938   8.481  -0.442   2.756  0.8345 -1.2888 -0.9716
  785MOL0     H 5939   8.905  -0.564   2.846  1.6288 -1.5122  1.6882
  785MOL0     H 5940   8.855  -0.464   2.987  0.5518  0.3905 -0.8946
  785MOL0     H 5941   8.731  -0.688   3.052 -1.4142 -0.3452 -1.7468
  785MOL0     H 5942   8.816  -0.762   2.923 -1.3539 -0.0485 -0.6772
  785MOL0     H 5943   9.043  -0.683   3.038  0.7309  0.0158  2.7286
  785MOL0     H 5944   8.949  -0.620   3.155 -1.6717  0.1774 -0.6192
  785MOL0     H 5945   8.962  -0.903   3.050  0.5551  1.0041 -1.3622
  785MOL0     H 5946   8.853  -0.872   3.190  0.3750  0.6843  0.0415
  785MOL0     H 5947   9.040  -0.970   3.284 -0.5068 -0.3058  0.2921
  785MOL0     H 5948   9.053  -0.803   3.330 -3.1393 -0.4682  0.5245
  785MOL0     H 5949   9.204  -0.919   3.092  1.3925  1.9133 -0.8663
  785MOL0     H 5950   9.231  -0.769   3.170 -1.6172 -0.3420 -0.8297
  785MOL0     H 5951   9.332  -1.024   3.241 -0.9231 -2.2395  2.7188
  785MOL0     H 5952   9.266  -0.960   3.384 -1.2372 -1.1180 -1.0649
  785MOL0     H 5953   9.472  -0.811   3.217 -0.7834 -0.5792 -0.1339
  785MOL0     H 5954   9.398  -0.739   3.352  0.9219  0.8743 -0.8924
  785MOL0     H 5955   8.877  -0.307   2.805 -0.5434 -0.7435 -3.1945
  785MOL0     H 5956   8.814  -0.083   2.697 -2.2320  2.0323  1.7342
  785MOL0     H 5957   8.683   0.091   2.255  3.0133  1.0104  0.9870
  785MOL0     H 5958   8.643   0.335   2.151  0.8517  0.9426  0.7309
  785MOL0     H 5959   6.910   1.411   1.990  0.8391  2.3431 -0.5540
  785MOL0     H 5960   6.709   1.559   1.976 -0.1353 -0.6300 -0.5199
  785MOL0     H 5961   6.497   1.915   2.167 -1.2296  2.1055 -0.7912
  785MOL0     H 5962   6.357   2.082   2.139 -1.0004 -0.3995  0.8753
  785MOL0     H 5963   5.930   2.147   2.051  3.7427  1.3304  0.9357
  785MOL0     H 5964   5.932   1.965   2.040  0.0514  0.1884  0.5190
  785MOL0     H 5965   6.024   2.010   1.806  2.1704  0.4336  1.0046
  785MOL0     H 5966   6.006   2.183   1.835  0.7715 -0.7835 -1.4758
  785MOL0     H 5967   5.804   2.087   1.707 -2.5437  1.2724 -0.3542
  785MOL0     H 5968   5.759   2.152   1.866 -0.7184 -0.0298 -1.0798
  785MOL0     H 5969   5.817   1.872   1.759 -0.3190  0.8934 -1.0717
  785MOL0     H 5970   5.788   1.887   1.930 -0.6833  0.9404  0.2619
  785MOL0     H 5971   5.392   1.902   1.775  0.2898  1.8631 -3.6723
  785MOL0     H 5972   6.056   1.810   2.020 -0.9058  1.6559  2.0789
  785MOL0     H 5973   6.129   1.528   2.065 -0.3509 -0.6952 -1.4508
  785MOL0     H 5974   6.147   1.591   1.897  0.9116 -4.2396 -0.3667
  785MOL0     H 5975   6.271   1.508   1.971 -0.2420 -0.2925 -0.9950
  786MOL0     O 5976   7.780   4.072   6.158 -0.4307 -0.7002 -0.7313
  786MOL0     C 5977   7.726   3.973   6.208  0.1525 -0.1414 -0.0161
  786MOL0     O 5978   7.794   3.871   6.273 -1.0345  0.1700 -0.1577
  786MOL0     C 5979   7.933   3.861   6.277 -0.2236  0.4528  0.6127
  786MOL0     C 5980   8.023   3.920   6.187  0.3322 -1.2569 -0.3217
  786MOL0     C 5981   8.160   3.904   6.207  0.6878 -0.4484  0.1170
  786MOL0     C 5982   8.208   3.809   6.294  0.2464 -0.3394  0.3143
  786MOL0     O 5983   8.345   3.797   6.295 -0.3279 -0.0461  0.0101
  786MOL0     C 5984   8.393   3.665   6.332  0.1355  0.6822 -0.0139
  786MOL0     C 5985   8.523   3.637   6.267  0.6917 -0.9152  0.8004
  786MOL0     C 5986   8.631   3.728   6.329 -0.5142 -1.1422 -0.6294
  786MOL0     C 5987   8.676   3.695   6.477  0.4618  0.3271 -0.1740
  786MOL0     C 5988   8.814   3.757   6.492  0.6713  0.6877 -0.7523
  786MOL0     C 5989   8.877   3.701   6.620  0.9761 -0.6540  0.4278
  786MOL0     C 5990   9.021   3.747   6.640  0.5970  0.3365  0.3967
  786MOL0     C 5991   9.064   3.729   6.783 -0.3720 -0.5428  0.0841
  786MOL0     N 5992   9.205   3.765   6.800  0.3303 -0.2166  0.0013
  786MOL0     C 5993   9.254   3.895   6.827  0.5543 -0.0178  0.1906
  786MOL0     C 5994   9.376   3.878   6.874  0.7843  0.8395  0.1540
  786MOL0     C 5995   9.466   3.996   6.891 -0.3978  0.8415 -1.0672
  786MOL0     C 5996   9.589   3.941   6.968  0.9031  0.0268 -0.1758
  786MOL0     C 5997   9.629   4.064   7.051 -0.4698  0.2167 -0.4413
  786MOL0     C 5998   9.766   4.044   7.112 -0.3999 -0.1021 -0.3041
  786MOL0     O 5999   9.800   4.147   7.210 -0.6108 -0.3005 -0.6816
  786MOL0     C 6000   9.751   4.124   7.334 -0.4062 -0.5588 -0.1863
  786MOL0     C 6001   9.803   4.031   7.415 -0.5642  0.6324 -1.3176
  786MOL0     C 6002   9.751   4.008   7.546  0.6502 -0.7905  0.5599
  786MOL0     C 6003   9.643   4.082   7.591  0.9917  0.6427  0.1131
  786MOL0     C 6004   9.570   4.055   7.715 -0.2161  0.3298  0.1152
  786MOL0     O 6005   9.488   4.154   7.755 -1.1300  0.5214 -0.3329
  786MOL0     C 6006   9.420   4.129   7.865 -0.1600 -0.7308 -0.8796
  786MOL0     C 6007   9.292   4.071   7.848  0.0547 -0.1951 -0.0749
  786MOL0     C 6008   9.212   4.047   7.961  0.7877 -0.3313 -0.1844
  786MOL0     C 6009   9.267   4.082   8.091 -0.4785  0.4030  0.4140
  786MOL0     O 6010   9.196   4.063   8.210 -0.4450 -0.0817  0.3586
  786MOL0     C 6011   9.053   4.043   8.221  0.0990 -0.1199 -0.4460
  786MOL0     C 6012   8.980   4.173   8.188  0.2778  0.0443  0.3723
  786MOL0     C 6013   9.011   4.296   8.271 -0.5106  0.2657 -0.6392
  786MOL0     C 6014   8.909   4.397   8.283 -0.5448  0.8999  0.3492
  786MOL0     C 6015   8.947   4.520   8.364 -0.7337 -0.0459  0.7402
  786MOL0     C 6016   8.829   4.615   8.376 -0.3502 -0.4890  0.9753
  786MOL0     C 6017   8.703   4.567   8.454 -0.0734 -0.0349 -0.9729
  786MOL0     C 6018   8.605   4.684   8.465  0.7545  0.3541 -1.0762
  786MOL0    Cl 6019   8.672   4.838   8.549 -0.0485 -0.4129  0.0221
  786MOL0     C 6020   9.385   4.150   8.110  0.9394  1.1439 -0.5293
  786MOL0     C 6021   9.466   4.167   7.994  0.0301 -0.1011  0.1853
  786MOL0     O 6022   9.582   3.949   7.771  0.5846 -0.2015 -0.2990
  786MOL0     C 6023   9.597   4.186   7.508 -0.0247  0.0671 -0.2261
  786MOL0     C 6024   9.650   4.200   7.380  0.5324  0.3236  0.1864
  786MOL0     N 6025   9.413   3.750   6.840 -0.5424  0.2015 -0.2018
  786MOL0     N 6026   9.312   3.677   6.802  0.6275 -0.2493  0.3210
  786MOL0     C 6027   8.125   3.743   6.382  0.6442  0.1113 -0.0651
  786MOL0     C 6028   7.987   3.766   6.374  0.3616  0.1913  0.1199
  786MOL0     C 6029   7.578   3.981   6.210  0.1897  0.5392  0.4285
  786MOL0     C 6030   7.512   3.910   6.311 -0.5528  0.3442 -0.0339
  786MOL0     C 6031   7.375   3.915   6.328 -0.3502  1.0167  0.0871
  786MOL0     C 6032   7.300   3.998   6.244 -0.0067  0.1712  0.5061
  786MOL0     O 6033   7.160   4.000   6.280 -0.7868 -0.4647 -0.3213
  786MOL0     C 6034   7.075   4.061   6.180  0.4475 -0.1796 -0.9822
  786MOL0     C 6035   6.938   4.044   6.233 -0.3120  0.3536 -0.3800
  786MOL0     C 6036   6.890   3.903   6.234  0.4512 -0.4809 -0.5983
  786MOL0     C 6037   6.735   3.875   6.266  0.1582  0.2256  0.1620
  786MOL0     C 6038   6.677   3.957   6.377 -0.0399  0.2035  0.9273
  786MOL0     C 6039   6.646   4.031   6.468 -0.0341  0.2772  0.2553
  786MOL0     C 6040   7.366   4.059   6.137  0.1329  0.5013 -0.1023
  786MOL0     C 6041   7.499   4.045   6.119 -0.3153 -0.1961 -0.3217
  786MOL0     C 6042   7.548   4.111   5.988  0.6637 -0.8503 -0.5360
  786MOL0     H 6043   8.002   3.989   6.105  0.3585 -1.7472 -0.7435
  786MOL0     H 6044   8.233   3.961   6.149 -0.6383  0.9266 -0.2669
  786MOL0     H 6045   8.400   3.657   6.441  1.3399  4.2802  0.2959
  786MOL0     H 6046   8.319   3.590   6.300 -1.9354  3.0598 -1.1309
  786MOL0     H 6047   8.508   3.666   6.163 -0.7148 -0.6792  1.0511
  786MOL0     H 6048   8.551   3.531   6.267 -0.0325 -1.1120  1.2793
  786MOL0     H 6049   8.591   3.829   6.319  1.8537 -0.2826 -2.4882
  786MOL0     H 6050   8.718   3.718   6.263 -1.1629  0.5529 -1.8286
  786MOL0     H 6051   8.606   3.734   6.552  1.5680  3.0670 -0.4490
  786MOL0     H 6052   8.691   3.588   6.497 -2.6669 -0.0654  0.5841
  786MOL0     H 6053   8.885   3.744   6.411 -0.8430  0.3785 -2.0853
  786MOL0     H 6054   8.794   3.862   6.512 -0.2909 -0.0466  3.0543
  786MOL0     H 6055   8.813   3.725   6.705 -0.0692 -1.4519 -0.1057
  786MOL0     H 6056   8.868   3.592   6.614  0.8572 -0.5663 -2.7541
  786MOL0     H 6057   9.021   3.856   6.625  0.0711  0.1051 -1.4966
  786MOL0     H 6058   9.080   3.688   6.570 -0.2386  1.0680 -0.9803
  786MOL0     H 6059   9.010   3.806   6.839 -1.5721  0.9268 -2.8879
  786MOL0     H 6060   9.040   3.628   6.819 -2.4678  0.4177  1.5890
  786MOL0     H 6061   9.204   3.991   6.816  3.5748  1.7218  0.4898
  786MOL0     H 6062   9.495   4.047   6.798 -1.2664  0.1111 -1.7613
  786MOL0     H 6063   9.413   4.071   6.950 -0.0356  0.7802 -0.6618
  786MOL0     H 6064   9.571   3.848   7.023 -0.0777 -0.4770 -1.2960
  786MOL0     H 6065   9.661   3.930   6.887  1.0703  1.5933 -0.2803
  786MOL0     H 6066   9.560   4.077   7.135 -1.8108 -1.5046 -1.2195
  786MOL0     H 6067   9.632   4.155   6.990  2.6954 -0.1568 -1.0211
  786MOL0     H 6068   9.854   4.046   7.047 -0.4127  3.2737 -0.4408
  786MOL0     H 6069   9.766   3.945   7.158  4.2273  0.9200  2.5387
  786MOL0     H 6070   9.886   3.972   7.376  1.0337  1.2145  1.0029
  786MOL0     H 6071   9.798   3.926   7.600 -1.1093 -1.1941  1.5741
  786MOL0     H 6072   9.260   4.038   7.750  0.4008  0.6643 -0.4871
  786MOL0     H 6073   9.119   3.998   7.935 -0.2608  1.2694  0.3483
  786MOL0     H 6074   9.025   3.960   8.155  1.0944  1.1732 -2.6080
  786MOL0     H 6075   9.030   4.027   8.327  0.4125  3.0138  0.2157
  786MOL0     H 6076   9.006   4.198   8.085  2.7236  1.9150  1.3302
  786MOL0     H 6077   8.871   4.164   8.192  0.0241  2.3113  0.2402
  786MOL0     H 6078   9.025   4.253   8.370 -1.6961  2.6978  0.6979
  786MOL0     H 6079   9.104   4.339   8.233  0.1948 -1.1824 -0.6173
  786MOL0     H 6080   8.818   4.351   8.322 -1.1404 -0.3768 -2.2737
  786MOL0     H 6081   8.876   4.435   8.186 -0.4764  0.4197  0.1312
  786MOL0     H 6082   9.019   4.576   8.304 -0.2832 -2.2093 -0.8424
  786MOL0     H 6083   8.989   4.494   8.461 -0.2855 -0.9129  0.3174
  786MOL0     H 6084   8.869   4.701   8.431  1.3516  1.1332 -2.4527
  786MOL0     H 6085   8.806   4.651   8.275  2.4695 -1.1205 -0.0086
  786MOL0     H 6086   8.737   4.541   8.554  0.6771  1.7089 -0.7410
  786MOL0     H 6087   8.651   4.485   8.403 -1.1480 -0.5781  0.9276
  786MOL0     H 6088   8.576   4.701   8.361 -1.6255  0.9526 -0.3785
  786MOL0     H 6089   8.514   4.664   8.522  0.4538  3.8144 -0.1214
  786MOL0     H 6090   9.414   4.176   8.211  0.9995  1.1257 -0.5411
  786MOL0     H 6091   9.570   4.199   7.991  0.4024 -1.2712 -3.0088
  786MOL0     H 6092   9.512   4.249   7.534  0.4694  1.2288 -1.3092
  786MOL0     H 6093   9.609   4.279   7.318  0.4700  1.8028  2.0279
  786MOL0     H 6094   8.152   3.664   6.452 -3.5776  1.7871  3.9849
  786MOL0     H 6095   7.917   3.706   6.433  3.8864 -2.2019  2.2882
  786MOL0     H 6096   7.564   3.857   6.390 -0.4903  0.4868  0.0208
  786MOL0     H 6097   7.314   3.872   6.407 -0.2295  1.7852  0.6096
  786MOL0     H 6098   7.083   4.021   6.079  1.1047  2.6854 -2.1711
  786MOL0     H 6099   7.087   4.169   6.166 -2.3442  0.3480  0.0820
  786MOL0     H 6100   6.878   4.087   6.152  0.6550 -0.3243 -1.4738
  786MOL0     H 6101   6.915   4.096   6.326 -0.3818 -1.2198  0.5194
  786MOL0     H 6102   6.942   3.850   6.315  2.2777 -0.8959 -1.9687
  786MOL0     H 6103   6.928   3.861   6.141  1.2788 -0.9664 -0.0544
  786MOL0     H 6104   6.680   3.904   6.176  1.7461  2.5745 -0.1462
  786MOL0     H 6105   6.712   3.773   6.297  3.9390 -1.4497 -1.8271
  786MOL0     H 6106   6.613   4.102   6.541 -1.0924 -0.0390  0.0954
  786MOL0     H 6107   7.313   4.113   6.059 -0.8951 -0.5783 -0.1683
  786MOL0     H 6108   7.640   4.073   5.944 -0.0607 -1.0746 -1.9053
  786MOL0     H 6109   7.478   4.095   5.906 -2.1099  3.8448  0.5533
  786MOL0     H 6110   7.562   4.218   6.001  0.7107 -1.1201  2.5239
  787MOL0     O 6111  11.100   0.409   1.686 -0.5909 -0.2630  0.3730
  787MOL0     C 6112  11.130   0.322   1.762  0.0510 -0.8558  0.5218
  787MOL0     O 6113  11.260   0.284   1.784  0.0075  0.2852  0.0181
  787MOL0     C 6114  11.360   0.364   1.738 -1.1963 -0.4917  0.5417
  787MOL0     C 6115  11.379   0.397   1.599 -0.4928  0.3259 -0.7840
  787MOL0     C 6116  11.490   0.486   1.567  0.8538  0.2667  0.0041
  787MOL0     C 6117  11.579   0.531   1.664 -0.0750 -0.4550  0.2666
  787MOL0     O 6118  11.695   0.607   1.636  0.5717 -0.1296  0.2458
  787MOL0     C 6119  11.768   0.577   1.516  0.9711 -0.0231 -0.0022
  787MOL0     C 6120  11.909   0.644   1.506 -0.3186 -0.1639  0.5787
  787MOL0     C 6121  11.987   0.596   1.633  0.1616  0.2373  0.0662
  787MOL0     C 6122  12.132   0.649   1.626 -0.0523  0.3663 -0.2879
  787MOL0     C 6123  12.209   0.599   1.752  1.0458  0.7515  0.4744
  787MOL0     C 6124  12.170   0.674   1.883  0.4469  0.4854 -0.3426
  787MOL0     C 6125  12.259   0.628   1.995 -0.8420 -0.1697  0.0816
  787MOL0     C 6126  12.336   0.758   2.031  0.1794 -0.0852  0.3356
  787MOL0     N 6127  12.438   0.776   1.923 -0.2285  0.5063 -0.6871
  787MOL0     C 6128  12.431   0.860   1.816 -0.2416  0.3188 -0.2710
  787MOL0     C 6129  12.537   0.827   1.743 -0.0090  0.4988 -0.0176
  787MOL0     C 6130  12.564   0.884   1.612 -0.3519  0.6374  0.2225
  787MOL0     C 6131  12.468   0.828   1.509 -0.1397  0.4643  1.2899
  787MOL0     C 6132  12.426   0.931   1.400  0.7383  0.2538 -1.3192
  787MOL0     C 6133  12.288   0.981   1.439  0.3023  0.0325  0.6250
  787MOL0     O 6134  12.233   1.046   1.321 -0.2229  0.0129 -0.1369
  787MOL0     C 6135  12.271   1.170   1.315 -0.5157 -0.6788  0.3809
  787MOL0     C 6136  12.348   1.219   1.211  0.0913  0.2268  0.2665
  787MOL0     C 6137  12.402   1.347   1.200  0.2724  0.3371  0.1223
  787MOL0     C 6138  12.365   1.443   1.299 -0.2024 -0.0399 -0.1396
  787MOL0     C 6139  12.434   1.575   1.294  0.7308 -0.4646 -0.5067
  787MOL0     O 6140  12.490   1.605   1.180 -0.1998 -0.2029  0.0145
  787MOL0     C 6141  12.538   1.727   1.156  0.6591  0.0842  0.0286
  787MOL0     C 6142  12.444   1.837   1.152 -0.8407  1.5003  0.7790
  787MOL0     C 6143  12.489   1.966   1.113 -0.3953 -0.7149 -1.0940
  787MOL0     C 6144  12.629   1.977   1.080 -0.4241  0.4389  0.2185
  787MOL0     O 6145  12.695   2.088   1.029 -0.4077 -0.4290  0.1457
  787MOL0     C 6146  12.633   2.218   1.015  0.2125  0.6650 -0.0270
  787MOL0     C 6147  12.720   2.317   0.947 -0.0507  0.0800  0.7522
  787MOL0     C 6148  12.855   2.347   1.026 -0.3027 -0.4225  0.2366
  787MOL0     C 6149  12.949   2.443   0.950  0.5156 -0.0411  0.9118
  787MOL0     C 6150  13.078   2.465   1.028  0.9856  0.2448 -0.1137
  787MOL0     C 6151  13.172   2.569   0.956 -0.8036  0.1261 -0.3873
  787MOL0     C 6152  13.206   2.524   0.815 -0.2708 -0.0343  0.4602
  787MOL0     C 6153  13.331   2.602   0.757  0.4657  0.1986  0.5116
  787MOL0    Cl 6154  13.282   2.766   0.711 -0.2948  0.2039 -0.3528
  787MOL0     C 6155  12.719   1.868   1.094 -0.6994 -0.2665  0.5073
  787MOL0     C 6156  12.671   1.743   1.136 -0.8049  1.0247  0.2379
  787MOL0     O 6157  12.436   1.649   1.398  0.4019 -0.2861  0.2089
  787MOL0     C 6158  12.281   1.404   1.403  0.3490 -0.8928 -0.7185
  787MOL0     C 6159  12.226   1.274   1.407 -0.0412  0.5903  0.2180
  787MOL0     N 6160  12.603   0.730   1.804  0.0693  0.6286 -0.1997
  787MOL0     N 6161  12.543   0.696   1.913 -0.3528 -0.0515 -0.0476
  787MOL0     C 6162  11.553   0.495   1.791 -0.0248 -1.2320  0.0307
  787MOL0     C 6163  11.458   0.414   1.834  0.3443 -0.2516 -0.2182
  787MOL0     C 6164  11.027   0.252   1.833  1.5122  0.0952  1.0442
  787MOL0     C 6165  11.064   0.187   1.947 -0.7017 -0.5350 -0.0757
  787MOL0     C 6166  10.966   0.126   2.031  0.0648 -0.7149 -0.0973
  787MOL0     C 6167  10.825   0.122   1.994 -0.0841  0.1036 -0.7641
  787MOL0     O 6168  10.735   0.058   2.069  0.4198  0.5007 -0.3212
  787MOL0     C 6169  10.771  -0.010   2.194  0.5287 -0.5438 -0.3869
  787MOL0     C 6170  10.643  -0.080   2.242  0.3865  0.0199 -0.5675
  787MOL0     C 6171  10.656  -0.107   2.396 -0.1762 -1.4533  0.4171
  787MOL0     C 6172  10.526  -0.071   2.466 -0.4418 -0.2593  0.5932
  787MOL0     C 6173  10.545  -0.064   2.609  0.4569  0.1260  0.0347
  787MOL0     C 6174  10.516  -0.059   2.730 -0.7884 -0.3630  0.5132
  787MOL0     C 6175  10.790   0.175   1.868  0.3880  0.1493 -0.4973
  787MOL0     C 6176  10.887   0.253   1.795  0.4650  0.7875 -0.0330
  787MOL0     C 6177  10.821   0.339   1.685  0.8926  1.1355  0.3796
  787MOL0     H 6178  11.306   0.357   1.528 -1.6436 -1.5911  1.3146
  787MOL0     H 6179  11.520   0.500   1.464  3.4059 -1.4676  0.4275
  787MOL0     H 6180  11.777   0.469   1.505  0.1761 -0.0801 -0.1381
  787MOL0     H 6181  11.718   0.621   1.429  0.2529  0.2622  0.5437
  787MOL0     H 6182  11.888   0.751   1.514 -1.0732 -0.4763  4.6578
  787MOL0     H 6183  11.957   0.621   1.410 -2.2453  2.4303 -1.1357
  787MOL0     H 6184  11.990   0.486   1.631 -0.8094  0.2054 -0.5878
  787MOL0     H 6185  11.927   0.633   1.716 -0.2369 -0.6957  0.2160
  787MOL0     H 6186  12.163   0.599   1.534 -3.5268 -2.7050 -0.0565
  787MOL0     H 6187  12.124   0.758   1.629 -1.0460  0.2830  0.9639
  787MOL0     H 6188  12.201   0.491   1.766  1.2324  0.1705 -3.0310
  787MOL0     H 6189  12.310   0.622   1.719  0.4627  1.7132 -0.7292
  787MOL0     H 6190  12.139   0.779   1.875 -1.7996 -0.2813 -2.6055
  787MOL0     H 6191  12.072   0.634   1.910  0.1301  0.8589 -0.9121
  787MOL0     H 6192  12.321   0.545   1.961 -1.1874  0.2857 -1.8106
  787MOL0     H 6193  12.201   0.595   2.081 -0.7860  0.4769  0.3720
  787MOL0     H 6194  12.278   0.846   2.058  1.5114  0.2929  2.2049
  787MOL0     H 6195  12.394   0.745   2.123 -0.3959  0.5477  0.7876
  787MOL0     H 6196  12.353   0.934   1.797 -2.5006 -0.7276  3.8479
  787MOL0     H 6197  12.540   0.991   1.613 -1.9628  0.3024 -0.2613
  787MOL0     H 6198  12.669   0.863   1.587 -1.0125 -2.4189 -0.3270
  787MOL0     H 6199  12.531   0.751   1.462 -0.0453 -0.1941  2.4519
  787MOL0     H 6200  12.377   0.787   1.554 -1.0794  0.5093 -0.4925
  787MOL0     H 6201  12.412   0.876   1.307 -2.2193 -1.7585  0.1833
  787MOL0     H 6202  12.500   1.010   1.385 -1.1867  2.7650  1.2413
  787MOL0     H 6203  12.290   1.041   1.530  0.8790 -1.3956  1.5909
  787MOL0     H 6204  12.236   0.888   1.463  2.4988 -1.9867 -1.8403
  787MOL0     H 6205  12.391   1.149   1.140  1.0438  0.8275  0.2233
  787MOL0     H 6206  12.463   1.367   1.112  1.1309  2.1468  1.0559
  787MOL0     H 6207  12.339   1.816   1.171 -1.5081 -0.3301 -3.6672
  787MOL0     H 6208  12.424   2.053   1.107 -0.2934 -0.7263 -2.7076
  787MOL0     H 6209  12.548   2.193   0.951  0.1950 -3.1513  1.2220
  787MOL0     H 6210  12.593   2.252   1.111 -1.8189  1.1563 -0.9860
  787MOL0     H 6211  12.750   2.267   0.854 -0.4973 -0.0758  0.6881
  787MOL0     H 6212  12.671   2.411   0.920 -1.5728  0.2716  3.8358
  787MOL0     H 6213  12.838   2.378   1.130  1.0421  2.6991 -0.3556
  787MOL0     H 6214  12.901   2.248   1.035  2.2379  0.6355 -0.1877
  787MOL0     H 6215  12.899   2.540   0.943 -0.1930 -0.4679 -0.2250
  787MOL0     H 6216  12.968   2.400   0.851  1.2001  4.1209 -0.9508
  787MOL0     H 6217  13.113   2.362   1.029 -0.7694 -0.3908 -0.0998
  787MOL0     H 6218  13.045   2.493   1.129 -0.9101 -3.4089  0.4366
  787MOL0     H 6219  13.128   2.668   0.967 -2.2329 -0.5799  0.6347
  787MOL0     H 6220  13.264   2.579   1.014 -0.5718  2.7357 -1.1090
  787MOL0     H 6221  13.125   2.531   0.742 -0.5018  0.7824  0.7790
  787MOL0     H 6222  13.240   2.420   0.813 -0.2190 -0.0143 -0.6838
  787MOL0     H 6223  13.412   2.611   0.829 -0.0998 -1.4350  1.3911
  787MOL0     H 6224  13.354   2.555   0.661 -0.7708  1.4537 -0.4560
  787MOL0     H 6225  12.824   1.886   1.071 -1.1814  0.4816 -1.2838
  787MOL0     H 6226  12.719   1.646   1.143 -1.2850  0.7611 -0.0039
  787MOL0     H 6227  12.247   1.480   1.473  1.2452 -1.4885  0.3959
  787MOL0     H 6228  12.147   1.265   1.480  0.5173  1.4696  0.9669
  787MOL0     H 6229  11.619   0.511   1.875 -0.0146 -1.3650  0.0477
  787MOL0     H 6230  11.442   0.382   1.937 -1.4270 -2.3306 -1.0552
  787MOL0     H 6231  11.161   0.189   1.996 -0.1634 -2.0137 -1.0158
  787MOL0     H 6232  10.998   0.083   2.126 -0.9468 -0.6922  0.2690
  787MOL0     H 6233  10.806   0.065   2.265 -1.9793  1.5248 -1.1485
  787MOL0     H 6234  10.854  -0.076   2.168  1.1522 -0.1576  0.5604
  787MOL0     H 6235  10.633  -0.181   2.201 -2.2955  0.2909 -0.7384
  787MOL0     H 6236  10.557  -0.016   2.223  0.5116  0.0649 -1.0048
  787MOL0     H 6237  10.729  -0.040   2.442 -2.2834  0.5650  0.9582
  787MOL0     H 6238  10.694  -0.208   2.418  0.6497 -1.1593  0.3923
  787MOL0     H 6239  10.493   0.030   2.439  5.3222  1.6964 -0.3882
  787MOL0     H 6240  10.451  -0.150   2.459 -0.9589  0.3122 -0.7070
  787MOL0     H 6241  10.475  -0.052   2.829 -0.2522 -2.4058  0.9355
  787MOL0     H 6242  10.691   0.173   1.822  0.2791  0.6060 -0.2855
  787MOL0     H 6243  10.714   0.350   1.703  0.9234  3.2988 -0.5252
  787MOL0     H 6244  10.852   0.443   1.698  1.6475  0.9608  0.0457
  787MOL0     H 6245  10.839   0.319   1.579  0.1177  0.6010  0.3387
  788MOL0     O 6246   6.542   6.070   5.329  0.9507 -0.2638 -0.2859
  788MOL0     C 6247   6.546   6.096   5.209  0.1867  0.1349 -0.5884
  788MOL0     O 6248   6.659   6.118   5.143 -0.0183  0.6523 -0.0048
  788MOL0     C 6249   6.779   6.079   5.196 -0.5704  0.0115 -0.6672
  788MOL0     C 6250   6.802   5.973   5.285 -0.4928  0.4636  0.0315
  788MOL0     C 6251   6.932   5.942   5.322 -0.3508  0.3070  0.0068
  788MOL0     C 6252   7.039   6.013   5.262 -0.4854  0.7491  0.7120
  788MOL0     O 6253   7.160   5.968   5.307  0.3641  0.1262 -0.6765
  788MOL0     C 6254   7.274   6.014   5.228 -0.0786  1.0246  0.1417
  788MOL0     C 6255   7.406   5.951   5.276  0.0608  0.4899  0.3638
  788MOL0     C 6256   7.433   5.945   5.433  0.3963  0.1807 -0.2427
  788MOL0     C 6257   7.399   6.066   5.519  0.4569 -0.6187 -0.0346
  788MOL0     C 6258   7.467   6.058   5.659 -0.0545 -0.2310 -0.8611
  788MOL0     C 6259   7.419   6.161   5.765  0.1297  0.3212 -0.8096
  788MOL0     C 6260   7.265   6.151   5.792 -0.0908  0.4969  0.1610
  788MOL0     C 6261   7.220   6.010   5.836 -0.1296  0.1914 -0.5982
  788MOL0     N 6262   7.086   6.021   5.880 -0.1794 -0.3068 -0.5938
  788MOL0     C 6263   6.980   6.025   5.789 -0.0423 -0.3564 -0.5722
  788MOL0     C 6264   6.869   6.037   5.866 -0.4914  0.1349 -0.4372
  788MOL0     C 6265   6.719   6.050   5.826  0.8145  0.3646 -0.8320
  788MOL0     C 6266   6.702   6.177   5.751  0.0068 -0.3830  0.3767
  788MOL0     C 6267   6.741   6.156   5.603 -0.3836 -0.1696 -0.0942
  788MOL0     C 6268   6.705   6.283   5.514 -0.3549  0.1485 -0.9546
  788MOL0     O 6269   6.751   6.410   5.563 -0.7395 -0.1894 -0.8003
  788MOL0     C 6270   6.886   6.434   5.570 -0.2603 -0.6069  0.3366
  788MOL0     C 6271   6.985   6.358   5.513  0.6357  1.1186 -0.3215
  788MOL0     C 6272   7.118   6.383   5.528  0.5332 -0.0867 -0.4798
  788MOL0     C 6273   7.167   6.508   5.575 -0.4992 -0.2546  0.4198
  788MOL0     C 6274   7.307   6.541   5.566 -0.1492  0.4648 -0.5222
  788MOL0     O 6275   7.346   6.670   5.552  0.2138  0.4597 -0.1205
  788MOL0     C 6276   7.479   6.703   5.548 -0.2574  0.6513  0.4567
  788MOL0     C 6277   7.509   6.791   5.652 -0.5148 -0.0913 -0.7507
  788MOL0     C 6278   7.651   6.832   5.664 -0.1609 -0.2305 -0.6857
  788MOL0     C 6279   7.750   6.793   5.575 -0.1530 -0.3943 -0.3573
  788MOL0     O 6280   7.881   6.844   5.564 -0.1597 -0.2644  0.2863
  788MOL0     C 6281   7.930   6.932   5.666 -0.0744  0.2786 -0.1396
  788MOL0     C 6282   8.044   7.026   5.621 -0.0771  0.6774  0.3399
  788MOL0     C 6283   8.103   7.110   5.743 -0.5031 -0.7246  0.8200
  788MOL0     C 6284   8.198   7.043   5.848  0.1159 -0.0241  0.7018
  788MOL0     C 6285   8.312   6.972   5.777 -0.5825  0.4673 -0.3760
  788MOL0     C 6286   8.391   6.887   5.870  0.4013  0.0741  1.2502
  788MOL0     C 6287   8.507   6.814   5.803 -0.3022 -0.2000 -0.1427
  788MOL0     C 6288   8.618   6.902   5.739  0.0126 -0.7322  0.4073
  788MOL0    Cl 6289   8.747   6.803   5.696  0.2941 -0.4247  0.0471
  788MOL0     C 6290   7.716   6.694   5.481  0.2781  0.4473  0.2801
  788MOL0     C 6291   7.578   6.657   5.465  0.3158  0.1482  1.6609
  788MOL0     O 6292   7.386   6.444   5.569  0.5292  0.3427 -0.2612
  788MOL0     C 6293   7.076   6.591   5.628  0.8659 -0.0403 -0.9495
  788MOL0     C 6294   6.937   6.555   5.633 -0.1424 -0.1513 -0.1809
  788MOL0     N 6295   6.905   6.062   5.995 -0.2272  0.6193  0.0484
  788MOL0     N 6296   7.039   6.060   6.004  0.1202  0.4854  0.3663
  788MOL0     C 6297   7.019   6.112   5.170 -0.4459  0.0429  0.6848
  788MOL0     C 6298   6.888   6.148   5.139 -0.3691  0.2431  0.0088
  788MOL0     C 6299   6.414   6.132   5.147 -0.6983  0.0397  0.2480
  788MOL0     C 6300   6.302   6.117   5.224 -0.8876 -0.6328 -0.0184
  788MOL0     C 6301   6.176   6.156   5.174 -0.6147  0.1129 -0.8819
  788MOL0     C 6302   6.165   6.219   5.056 -0.2671  0.4653  0.0729
  788MOL0     O 6303   6.046   6.270   5.016  0.1275  0.1570 -0.5332
  788MOL0     C 6304   6.030   6.300   4.877  0.0643  0.0765  0.5099
  788MOL0     C 6305   5.881   6.348   4.850 -0.5047  0.1551  0.2604
  788MOL0     C 6306   5.784   6.227   4.856  0.3311 -0.1047 -0.3484
  788MOL0     C 6307   5.641   6.279   4.824  0.1834 -0.3683 -0.1150
  788MOL0     C 6308   5.588   6.359   4.931  0.5142  0.2350 -1.0570
  788MOL0     C 6309   5.563   6.430   5.026  0.1238  0.6827  0.2832
  788MOL0     C 6310   6.281   6.234   4.976  0.8998 -0.7039  0.7692
  788MOL0     C 6311   6.406   6.202   5.027  0.7448  0.2128 -0.4773
  788MOL0     C 6312   6.520   6.213   4.924  0.7067  0.0517  0.4258
  788MOL0     H 6313   6.728   5.909   5.331  0.9877 -2.1578 -1.0454
  788MOL0     H 6314   6.956   5.875   5.404  2.5743  2.1770  0.8147
  788MOL0     H 6315   7.267   5.992   5.121  1.9943 -2.0764  0.5055
  788MOL0     H 6316   7.285   6.123   5.228 -1.1563  1.1505 -0.0380
  788MOL0     H 6317   7.494   5.994   5.229 -0.1137 -1.3560 -1.7851
  788MOL0     H 6318   7.408   5.845   5.249  1.4909  0.9769 -1.6231
  788MOL0     H 6319   7.537   5.923   5.460  1.0122  0.5702 -2.1514
  788MOL0     H 6320   7.373   5.863   5.475  0.4618  1.1109  1.8002
  788MOL0     H 6321   7.432   6.156   5.466 -2.1326 -0.5367 -1.7007
  788MOL0     H 6322   7.291   6.078   5.531  0.4863 -1.3653  1.1285
  788MOL0     H 6323   7.458   5.959   5.705  2.7827  0.1696  0.8031
  788MOL0     H 6324   7.573   6.081   5.654 -0.0070 -0.0278  0.5831
  788MOL0     H 6325   7.467   6.147   5.862 -1.7245  0.3949  0.1802
  788MOL0     H 6326   7.434   6.262   5.726 -1.0876  0.4189 -1.0823
  788MOL0     H 6327   7.210   6.191   5.707  0.2465 -0.4135 -0.4945
  788MOL0     H 6328   7.235   6.212   5.878 -2.2099 -1.0378  0.5969
  788MOL0     H 6329   7.230   5.945   5.749  0.8144 -1.6169  0.7876
  788MOL0     H 6330   7.286   5.975   5.916  0.3506  1.6178 -0.3386
  788MOL0     H 6331   6.988   6.006   5.682  0.6777  0.1909 -0.6255
  788MOL0     H 6332   6.691   5.967   5.761 -5.3092  2.3689 -1.3307
  788MOL0     H 6333   6.657   6.053   5.916  2.2409  1.7274  0.1605
  788MOL0     H 6334   6.595   6.196   5.760 -0.3034 -1.1225 -1.3149
  788MOL0     H 6335   6.771   6.255   5.786  3.0137 -1.8245 -1.8635
  788MOL0     H 6336   6.686   6.065   5.575  0.7102 -1.0508  0.5471
  788MOL0     H 6337   6.848   6.136   5.607 -0.2131  0.5604 -0.9009
  788MOL0     H 6338   6.598   6.277   5.491 -0.2629  0.7301 -1.5906
  788MOL0     H 6339   6.755   6.280   5.416 -1.3121  1.7820 -1.5399
  788MOL0     H 6340   6.950   6.268   5.464  0.5381  0.7351  0.4496
  788MOL0     H 6341   7.177   6.314   5.468 -2.9113 -1.8821 -2.1381
  788MOL0     H 6342   7.438   6.835   5.721  0.7224 -1.3737  1.4539
  788MOL0     H 6343   7.672   6.900   5.746 -2.4086 -0.6797  0.3322
  788MOL0     H 6344   7.859   7.008   5.697  1.5144  0.5985  3.1266
  788MOL0     H 6345   7.969   6.875   5.750  0.5397 -0.9837 -1.2357
  788MOL0     H 6346   8.134   6.977   5.582  0.0977 -0.1429  1.6976
  788MOL0     H 6347   8.001   7.095   5.549 -2.5376  1.0332  2.0334
  788MOL0     H 6348   8.142   7.207   5.711 -2.3260  0.2988  1.5497
  788MOL0     H 6349   8.017   7.146   5.800 -1.6910 -0.7537 -0.8860
  788MOL0     H 6350   8.141   6.968   5.904 -0.0825 -1.1698 -0.9530
  788MOL0     H 6351   8.235   7.118   5.918  0.0080 -1.6969  2.6584
  788MOL0     H 6352   8.375   7.052   5.737 -0.6480 -0.9369 -3.5893
  788MOL0     H 6353   8.286   6.913   5.689 -0.0758  2.1229 -1.7171
  788MOL0     H 6354   8.424   6.956   5.948 -1.4379  1.9650  0.4316
  788MOL0     H 6355   8.325   6.810   5.910 -2.1809  0.1356 -2.4434
  788MOL0     H 6356   8.465   6.776   5.709 -0.2279  2.7545 -1.4819
  788MOL0     H 6357   8.560   6.743   5.867 -0.3379 -0.9625 -0.9336
  788MOL0     H 6358   8.569   6.954   5.657 -0.2898 -1.0898  0.3611
  788MOL0     H 6359   8.650   6.978   5.812 -0.7516  0.9272 -0.9025
  788MOL0     H 6360   7.786   6.636   5.422  3.3349  2.0308  2.0893
  788MOL0     H 6361   7.553   6.593   5.380  0.1458  1.2700  0.8425
  788MOL0     H 6362   7.109   6.687   5.667  0.5201 -0.3016  0.0214
  788MOL0     H 6363   6.866   6.612   5.691  1.4509 -1.0298  2.8236
  788MOL0     H 6364   7.101   6.169   5.128 -0.3471 -0.1257  0.6507
  788MOL0     H 6365   6.866   6.229   5.070  2.7946  0.9522 -0.3219
  788MOL0     H 6366   6.300   6.070   5.322 -0.7857 -0.6821 -0.0394
  788MOL0     H 6367   6.084   6.156   5.233 -0.8364  1.8226 -1.1753
  788MOL0     H 6368   6.060   6.211   4.821  1.8338 -1.2933  3.4333
  788MOL0     H 6369   6.084   6.386   4.835 -2.6762  1.2683 -0.8313
  788MOL0     H 6370   5.878   6.386   4.748  3.0800 -1.6008 -0.6370
  788MOL0     H 6371   5.847   6.423   4.921 -0.8781  1.8039 -1.5853
  788MOL0     H 6372   5.789   6.178   4.954 -0.3014  0.3539 -0.0758
  788MOL0     H 6373   5.811   6.158   4.776 -3.6077 -1.8163 -0.4536
  788MOL0     H 6374   5.653   6.342   4.735 -1.2524 -2.3018 -1.7781
  788MOL0     H 6375   5.564   6.204   4.804 -1.8247  1.3776  0.7878
  788MOL0     H 6376   5.545   6.473   5.123 -1.0153 -0.0055  0.3959
  788MOL0     H 6377   6.282   6.296   4.886 -0.0046  0.8944  1.8135
  788MOL0     H 6378   6.479   6.249   4.829 -4.3357  2.3382  3.0935
  788MOL0     H 6379   6.574   6.299   4.964  0.0584  0.4814  0.3906
  788MOL0     H 6380   6.581   6.123   4.912 -1.4076 -1.1637 -2.0350
  789MOL0     O 6381   2.292   0.960  10.188  0.6991 -0.5301  0.2191
  789MOL0     C 6382   2.312   0.960  10.309  0.0690 -0.3261  0.1299
  789MOL0     O 6383   2.215   0.954  10.403  0.9207  0.6575  0.2184
  789MOL0     C 6384   2.083   0.979  10.378 -0.6263  0.7521 -0.4645
  789MOL0     C 6385   2.027   1.061  10.275 -0.0215 -0.0527 -0.2250
  789MOL0     C 6386   1.888   1.077  10.273  0.2885  0.2332  0.2175
  789MOL0     C 6387   1.803   1.033  10.377  0.1572 -0.0692 -0.8797
  789MOL0     O 6388   1.668   1.056  10.361 -0.5384  0.4677  0.5716
  789MOL0     C 6389   1.576   1.030  10.466 -0.1990  0.3284 -0.0825
  789MOL0     C 6390   1.438   1.099  10.449  0.5374  0.4660  0.7455
  789MOL0     C 6391   1.392   1.088  10.295  0.0334 -0.2571  0.2099
  789MOL0     C 6392   1.266   1.158  10.273  0.6258 -1.3301 -0.7378
  789MOL0     C 6393   1.190   1.124  10.148 -0.8578  0.0836  1.2506
  789MOL0     C 6394   1.064   1.209  10.115 -0.9647  1.1205 -0.1246
  789MOL0     C 6395   0.954   1.190  10.231  0.4707  0.5931 -0.3597
  789MOL0     C 6396   0.812   1.241  10.195 -1.0527 -0.0627  0.0047
  789MOL0     N 6397   0.790   1.388  10.205  0.8496  0.0632 -0.3657
  789MOL0     C 6398   0.670   1.436  10.260 -0.1329  0.3922 -0.1012
  789MOL0     C 6399   0.684   1.568  10.251  0.5246 -0.0062 -0.3794
  789MOL0     C 6400   0.577   1.658  10.314 -0.5260  0.1168 -0.1668
  789MOL0     C 6401   0.590   1.806  10.278  0.6150 -0.1415 -0.9510
  789MOL0     C 6402   0.500   1.904  10.348  0.3713 -0.3583 -0.3312
  789MOL0     C 6403   0.354   1.902  10.300 -0.1488  0.5001  0.3220
  789MOL0     O 6404   0.278   1.790  10.352 -0.6966  0.1667 -0.0100
  789MOL0     C 6405   0.144   1.769  10.321  0.3715 -0.6250 -1.2628
  789MOL0     C 6406   0.074   1.677  10.395  0.5066  0.2746  0.3167
  789MOL0     C 6407  -0.060   1.681  10.385  0.9695 -0.0121  0.4969
  789MOL0     C 6408  -0.137   1.748  10.292 -0.7006 -0.2868 -0.5003
  789MOL0     C 6409  -0.285   1.763  10.286  0.2943 -0.7306 -0.0475
  789MOL0     O 6410  -0.354   1.709  10.385 -0.1296  0.6187 -0.3324
  789MOL0     C 6411  -0.488   1.702  10.388  0.5338  0.9167 -0.5215
  789MOL0     C 6412  -0.532   1.588  10.469  0.6550 -0.6467 -0.0202
  789MOL0     C 6413  -0.671   1.570  10.505 -0.7611 -0.2849 -0.2759
  789MOL0     C 6414  -0.765   1.667  10.463 -0.3379  0.0518  0.0950
  789MOL0     O 6415  -0.893   1.681  10.491  0.2562  0.2137 -0.0904
  789MOL0     C 6416  -0.950   1.591  10.579  0.1911 -0.3973 -0.3501
  789MOL0     C 6417  -1.098   1.577  10.553 -0.2715 -0.9764 -0.3491
  789MOL0     C 6418  -1.159   1.484  10.660  0.4409 -0.1416 -0.2175
  789MOL0     C 6419  -1.317   1.460  10.641  0.5549 -0.0907 -0.1024
  789MOL0     C 6420  -1.385   1.372  10.743 -0.2287  0.5033  0.1551
  789MOL0     C 6421  -1.322   1.226  10.751 -0.1048  0.3116  0.1310
  789MOL0     C 6422  -1.318   1.166  10.617 -0.1672 -0.4047  0.0609
  789MOL0     C 6423  -1.275   1.020  10.615  0.0227 -0.3161 -0.4659
  789MOL0    Cl 6424  -1.105   1.008  10.664  0.1845 -0.1172 -0.0296
  789MOL0     C 6425  -0.721   1.772  10.380  0.0580 -0.2250 -0.0359
  789MOL0     C 6426  -0.592   1.792  10.353 -0.4336 -0.6494 -0.3213
  789MOL0     O 6427  -0.333   1.836  10.193 -0.0047 -0.2191  0.0074
  789MOL0     C 6428  -0.062   1.832  10.205 -1.1261  0.4833  0.8930
  789MOL0     C 6429   0.075   1.842  10.225  0.8673  0.4779  0.6879
  789MOL0     N 6430   0.801   1.600  10.187 -0.3696  0.9571 -1.8060
  789MOL0     N 6431   0.861   1.494  10.155 -0.1924 -0.6582 -0.0368
  789MOL0     C 6432   1.853   0.958  10.484 -0.3661 -0.0017  0.3785
  789MOL0     C 6433   1.992   0.936  10.485 -0.1602  0.6523  0.0199
  789MOL0     C 6434   2.453   0.967  10.368 -0.4146  0.1090 -0.1821
  789MOL0     C 6435   2.556   0.951  10.277 -0.4100 -1.5976 -0.0544
  789MOL0     C 6436   2.694   0.966  10.305 -0.6918  0.0130 -0.3759
  789MOL0     C 6437   2.726   0.997  10.435  0.3723 -0.3456 -0.3651
  789MOL0     O 6438   2.860   1.018  10.457 -0.6124  0.2916 -0.1309
  789MOL0     C 6439   2.916   1.123  10.544  0.0491  1.0187 -0.3830
  789MOL0     C 6440   3.073   1.142  10.545 -0.2031 -0.7217 -0.7682
  789MOL0     C 6441   3.151   1.004  10.533  0.1135  0.3401  0.6725
  789MOL0     C 6442   3.299   1.054  10.494 -0.5772  0.5533 -0.0890
  789MOL0     C 6443   3.375   0.933  10.465  0.8590  1.0679  0.2472
  789MOL0     C 6444   3.439   0.834  10.453 -0.1130  0.0466 -0.2594
  789MOL0     C 6445   2.623   1.014  10.524 -0.3386  0.0742 -0.8674
  789MOL0     C 6446   2.489   0.996  10.499  1.3059  0.0154 -0.4694
  789MOL0     C 6447   2.387   1.010  10.607  0.7755 -0.8643 -0.6765
  789MOL0     H 6448   2.094   1.093  10.196  0.0037 -0.0285 -0.1942
  789MOL0     H 6449   1.842   1.132  10.192 -2.0015 -1.5986  0.1741
  789MOL0     H 6450   1.579   0.922  10.486  0.6734  0.7014  2.0370
  789MOL0     H 6451   1.613   1.082  10.555 -1.5665  1.1324  0.0305
  789MOL0     H 6452   1.438   1.202  10.484 -2.6499  1.8576 -2.6768
  789MOL0     H 6453   1.371   1.048  10.520  1.6140 -0.7950  0.8988
  789MOL0     H 6454   1.395   0.985  10.257 -1.5227  0.7142 -2.8867
  789MOL0     H 6455   1.470   1.135  10.235  2.1910 -0.8857  2.4083
  789MOL0     H 6456   1.194   1.139  10.352 -0.9783  2.2491 -1.1506
  789MOL0     H 6457   1.297   1.262  10.260  1.0099 -0.6357  4.0012
  789MOL0     H 6458   1.261   1.137  10.067 -0.2004 -3.7388  1.0478
  789MOL0     H 6459   1.158   1.020  10.139  0.8814 -0.3540 -0.3670
  789MOL0     H 6460   1.101   1.311  10.132 -1.6490  1.5499 -1.1315
  789MOL0     H 6461   1.031   1.192  10.012  2.1091  0.0653 -1.0492
  789MOL0     H 6462   0.989   1.234  10.325  1.1496 -3.4519  1.4864
  789MOL0     H 6463   0.929   1.085  10.250 -1.0175  0.8298 -0.8463
  789MOL0     H 6464   0.804   1.221  10.087  2.0733  1.0817 -0.5337
  789MOL0     H 6465   0.735   1.185  10.249  0.8172  0.0855  3.0862
  789MOL0     H 6466   0.581   1.384  10.294  0.5427 -1.2703 -0.7368
  789MOL0     H 6467   0.479   1.617  10.286 -0.2321 -2.7920  2.5453
  789MOL0     H 6468   0.578   1.635  10.421 -0.3057  0.6541 -0.0496
  789MOL0     H 6469   0.691   1.835  10.307  1.6108 -4.0335  0.0634
  789MOL0     H 6470   0.591   1.808  10.169 -0.5717 -1.3870 -1.0138
  789MOL0     H 6471   0.523   2.007  10.320  0.1842  0.1228  1.1969
  789MOL0     H 6472   0.510   1.897  10.457 -1.2833  1.7210  0.0194
  789MOL0     H 6473   0.356   1.900  10.191 -0.4271  5.1128  0.0411
  789MOL0     H 6474   0.312   1.995  10.340  1.3681  1.9278 -1.2711
  789MOL0     H 6475   0.129   1.625  10.472  0.6065  1.1782  0.8639
  789MOL0     H 6476  -0.107   1.624  10.464  2.4579 -0.5048  1.0533
  789MOL0     H 6477  -0.463   1.514  10.508  2.8091 -0.2603 -2.7452
  789MOL0     H 6478  -0.692   1.479  10.561 -0.6901  0.6654  1.3797
  789MOL0     H 6479  -0.905   1.491  10.572  0.2025 -0.4820  0.7236
  789MOL0     H 6480  -0.943   1.626  10.682 -2.2722 -0.0168 -0.2560
  789MOL0     H 6481  -1.151   1.673  10.555  1.6056  0.1060 -0.1920
  789MOL0     H 6482  -1.105   1.538  10.451  0.1577 -1.3584 -0.2356
  789MOL0     H 6483  -1.102   1.391  10.652  1.2940  0.1685  1.7292
  789MOL0     H 6484  -1.133   1.514  10.762  2.0254 -2.9432  0.3003
  789MOL0     H 6485  -1.334   1.421  10.540 -2.5442  0.4143  0.1272
  789MOL0     H 6486  -1.368   1.556  10.644 -3.6858 -2.0023 -2.2530
  789MOL0     H 6487  -1.490   1.377  10.713 -0.9084  0.8601  2.3949
  789MOL0     H 6488  -1.368   1.424  10.838 -2.5211  1.3379  0.1601
  789MOL0     H 6489  -1.220   1.233  10.791  0.4282 -1.3454 -0.8707
  789MOL0     H 6490  -1.383   1.179  10.828 -0.0122  0.6201  0.3979
  789MOL0     H 6491  -1.242   1.227  10.567 -2.1457  1.0073 -1.4029
  789MOL0     H 6492  -1.415   1.173  10.566 -0.0837 -0.9842 -0.1904
  789MOL0     H 6493  -1.328   0.954  10.684 -0.8964 -0.7205 -1.5255
  789MOL0     H 6494  -1.287   0.968  10.519 -1.2316  0.6595 -0.8563
  789MOL0     H 6495  -0.800   1.839  10.347 -0.5453 -1.4418 -1.1690
  789MOL0     H 6496  -0.573   1.888  10.305 -1.1115  0.3909  1.3881
  789MOL0     H 6497  -0.116   1.899  10.138 -2.7233 -0.8388  0.7943
  789MOL0     H 6498   0.126   1.912  10.160  0.1397 -0.4532 -0.9442
  789MOL0     H 6499   1.784   0.911  10.554  1.8086  0.5021  3.0525
  789MOL0     H 6500   2.038   0.874  10.561  0.3058  0.0384 -0.7454
  789MOL0     H 6501   2.531   0.939  10.172 -1.4270 -1.5885  0.1798
  789MOL0     H 6502   2.778   0.975  10.236 -2.9536 -0.5123 -3.4181
  789MOL0     H 6503   2.886   1.102  10.647 -3.6254  0.1780 -1.5093
  789MOL0     H 6504   2.862   1.217  10.533 -0.7911  0.6380  0.4264
  789MOL0     H 6505   3.093   1.202  10.635  3.2384  0.7753 -2.3284
  789MOL0     H 6506   3.100   1.198  10.455  1.3180  4.1834  2.3484
  789MOL0     H 6507   3.099   0.952  10.451  0.0189  0.7501  0.4690
  789MOL0     H 6508   3.147   0.951  10.628  1.3239 -2.0505 -0.5200
  789MOL0     H 6509   3.299   1.131  10.417 -1.7137  1.3678  0.6885
  789MOL0     H 6510   3.337   1.099  10.586 -0.8019 -0.1289  0.3487
  789MOL0     H 6511   3.498   0.745  10.443  1.3384  0.7372  1.5775
  789MOL0     H 6512   2.665   1.041  10.620  2.5694  0.2563 -2.1155
  789MOL0     H 6513   2.316   1.091  10.589  1.4093 -0.0834  0.1991
  789MOL0     H 6514   2.328   0.920  10.619 -0.5102  0.0249 -0.0930
  789MOL0     H 6515   2.450   1.032  10.694 -0.5249  2.3940 -0.4059
  790MOL0     O 6516   4.092   7.698   2.503 -0.7675  0.2142 -0.0456
  790MOL0     C 6517   3.992   7.632   2.528  0.0808  0.1990 -0.8937
  790MOL0     O 6518   3.906   7.659   2.627  0.2712 -0.4178 -0.3507
  790MOL0     C 6519   3.942   7.751   2.727  0.2154  0.4640  0.5267
  790MOL0     C 6520   3.911   7.882   2.711  0.7017 -1.4060  0.0077
  790MOL0     C 6521   3.941   7.969   2.813  0.5393  0.0344  0.5671
  790MOL0     C 6522   4.005   7.923   2.926 -0.1641 -0.1527 -0.1241
  790MOL0     O 6523   4.031   8.023   3.019  0.0930  0.2619  0.2218
  790MOL0     C 6524   4.143   7.998   3.107  0.1045 -0.1523  0.8460
  790MOL0     C 6525   4.283   7.997   3.041  0.1152 -0.2589  0.8815
  790MOL0     C 6526   4.330   8.133   2.976  0.0176 -0.5239  0.5140
  790MOL0     C 6527   4.431   8.118   2.869  0.2927  0.1210  0.5361
  790MOL0     C 6528   4.374   8.074   2.737  0.4323  0.3429  0.2402
  790MOL0     C 6529   4.305   8.182   2.658 -0.1745  0.0152  0.3108
  790MOL0     C 6530   4.276   8.136   2.508  0.2410  0.2681  0.4074
  790MOL0     C 6531   4.245   7.991   2.483 -0.3604  0.6567 -0.1900
  790MOL0     N 6532   4.160   7.977   2.365 -0.6030  0.1860  0.4276
  790MOL0     C 6533   4.027   8.009   2.359  0.5911 -0.5246  0.3203
  790MOL0     C 6534   3.977   7.967   2.235 -0.0516 -0.6517 -0.1234
  790MOL0     C 6535   3.824   7.980   2.223 -0.7409 -0.2174  0.0917
  790MOL0     C 6536   3.785   7.869   2.115 -0.1718 -0.8266 -0.1245
  790MOL0     C 6537   3.644   7.809   2.128  0.0705  0.1359 -0.2915
  790MOL0     C 6538   3.625   7.713   2.248 -0.7886  0.0136 -0.6980
  790MOL0     O 6539   3.507   7.638   2.224  0.1904 -0.4297 -0.0512
  790MOL0     C 6540   3.447   7.593   2.342 -0.2658  1.2999 -0.0071
  790MOL0     C 6541   3.508   7.485   2.411 -0.1609 -0.0569  1.0383
  790MOL0     C 6542   3.453   7.436   2.523  0.8588 -0.8273  0.6013
  790MOL0     C 6543   3.341   7.499   2.583  0.0449 -0.0025 -0.2792
  790MOL0     C 6544   3.287   7.452   2.714  0.0397  0.0165  0.1948
  790MOL0     O 6545   3.217   7.535   2.787  0.0998  0.0810 -0.5357
  790MOL0     C 6546   3.168   7.503   2.910  0.6719  0.3360  0.5170
  790MOL0     C 6547   3.130   7.605   2.998  0.3758  0.3095 -0.1356
  790MOL0     C 6548   3.077   7.568   3.126 -0.3753 -0.3540 -0.6219
  790MOL0     C 6549   3.061   7.438   3.168 -0.9386 -0.0908 -0.7723
  790MOL0     O 6550   3.009   7.403   3.292  0.1719 -0.0523  0.0136
  790MOL0     C 6551   3.004   7.505   3.393  0.8292  0.4394  0.1714
  790MOL0     C 6552   2.862   7.558   3.409 -0.0079 -0.7888 -0.1880
  790MOL0     C 6553   2.856   7.680   3.505 -0.1474  0.3702  0.6975
  790MOL0     C 6554   2.714   7.714   3.540 -0.3359 -0.3601  0.6268
  790MOL0     C 6555   2.706   7.853   3.603 -0.4680  0.0929 -1.4496
  790MOL0     C 6556   2.564   7.905   3.635 -0.1707 -0.5969 -1.2776
  790MOL0     C 6557   2.456   7.809   3.691 -0.0093  0.2172  0.2839
  790MOL0     C 6558   2.314   7.871   3.680  0.6379  0.2375 -0.0977
  790MOL0    Cl 6559   2.247   7.860   3.508 -0.1661 -0.1221  0.6226
  790MOL0     C 6560   3.110   7.336   3.082  0.0214  0.7197 -0.3796
  790MOL0     C 6561   3.156   7.370   2.955  0.3521 -0.5575 -0.0829
  790MOL0     O 6562   3.336   7.347   2.750  0.4197 -0.2516 -0.1018
  790MOL0     C 6563   3.276   7.602   2.517 -0.3370 -0.3741  0.9278
  790MOL0     C 6564   3.329   7.643   2.393  0.6455  0.5532  0.2941
  790MOL0     N 6565   4.084   7.928   2.163 -0.0845  0.0243 -0.2723
  790MOL0     N 6566   4.191   7.936   2.236  0.6898 -0.7527 -0.2861
  790MOL0     C 6567   4.032   7.786   2.942 -0.6019 -0.3218 -0.8204
  790MOL0     C 6568   3.993   7.695   2.848  0.3639  0.2313  0.4629
  790MOL0     C 6569   3.952   7.532   2.419 -0.3545 -0.8838  0.4392
  790MOL0     C 6570   3.979   7.562   2.280 -0.8572  0.4014 -0.0923
  790MOL0     C 6571   3.954   7.465   2.170 -0.3726  0.1250 -0.3878
  790MOL0     C 6572   3.908   7.338   2.208 -0.3993  0.0219  0.3781
  790MOL0     O 6573   3.885   7.239   2.112 -0.3216  0.4799 -0.2267
  790MOL0     C 6574   3.747   7.171   2.138 -0.8321 -1.1733  0.4782
  790MOL0     C 6575   3.711   7.077   2.016 -0.0136 -0.9301 -0.1741
  790MOL0     C 6576   3.566   7.042   2.022 -0.1002 -0.0507  0.2621
  790MOL0     C 6577   3.522   6.958   2.145 -0.7204 -0.5922  0.4422
  790MOL0     C 6578   3.477   7.037   2.268 -0.3072  0.0794 -0.7096
  790MOL0     C 6579   3.436   7.091   2.373  0.5140 -0.5374  0.3276
  790MOL0     C 6580   3.878   7.315   2.339 -0.7649  0.1697 -0.9703
  790MOL0     C 6581   3.896   7.407   2.449 -0.3309 -0.0789 -0.0494
  790MOL0     C 6582   3.856   7.372   2.591  0.7428 -0.2156 -0.2698
  790MOL0     H 6583   3.862   7.916   2.621  2.7100 -0.1017 -0.6664
  790MOL0     H 6584   3.923   8.076   2.811  0.4640  0.0750  1.9983
  790MOL0     H 6585   4.137   8.077   3.183 -0.5641 -0.3347  0.9899
  790MOL0     H 6586   4.133   7.904   3.163  1.2945  1.0535  3.2599
  790MOL0     H 6587   4.278   7.912   2.971 -2.4601 -0.5266  1.3033
  790MOL0     H 6588   4.359   7.963   3.112  0.4306 -2.6806 -0.4727
  790MOL0     H 6589   4.371   8.187   3.062  0.1880  0.2677 -0.0482
  790MOL0     H 6590   4.248   8.200   2.948  0.2333 -0.7902 -0.8176
  790MOL0     H 6591   4.491   8.210   2.860 -2.7120  2.1625 -0.0432
  790MOL0     H 6592   4.507   8.049   2.907  0.5257  0.5504  0.8579
  790MOL0     H 6593   4.458   8.041   2.675  1.1850  2.4852  0.0178
  790MOL0     H 6594   4.299   7.999   2.760 -0.6496  1.3438  0.0705
  790MOL0     H 6595   4.212   8.215   2.705  1.5085  1.6293  2.7193
  790MOL0     H 6596   4.375   8.266   2.653  2.1805 -1.8466  0.0976
  790MOL0     H 6597   4.365   8.155   2.449 -0.6821  0.2720 -1.0405
  790MOL0     H 6598   4.203   8.200   2.458  1.4485 -1.1463 -3.5342
  790MOL0     H 6599   4.343   7.943   2.478 -0.7011 -0.2020  1.0306
  790MOL0     H 6600   4.187   7.948   2.565 -1.3606  3.0026  0.4204
  790MOL0     H 6601   3.964   8.044   2.440  0.4066 -0.1336  0.0118
  790MOL0     H 6602   3.775   7.965   2.319  1.4265  1.0292  1.4573
  790MOL0     H 6603   3.795   8.081   2.194 -0.4649  0.7529  2.9070
  790MOL0     H 6604   3.790   7.915   2.016  0.3198 -1.8888 -0.6148
  790MOL0     H 6605   3.854   7.784   2.120 -0.5801 -1.2876 -1.9108
  790MOL0     H 6606   3.627   7.758   2.033  0.7654  0.8629 -0.8231
  790MOL0     H 6607   3.569   7.888   2.136 -0.6563 -0.3983 -1.4182
  790MOL0     H 6608   3.630   7.758   2.347 -0.6546 -0.6852 -0.3784
  790MOL0     H 6609   3.713   7.648   2.249 -0.1402  0.8913 -0.3236
  790MOL0     H 6610   3.598   7.451   2.360  1.3345  4.1894  0.4597
  790MOL0     H 6611   3.500   7.347   2.563  0.0764 -1.8071 -0.5823
  790MOL0     H 6612   3.130   7.711   2.974  0.3839  0.8506  2.0434
  790MOL0     H 6613   3.042   7.646   3.192  0.7528 -0.1035 -0.2901
  790MOL0     H 6614   3.026   7.475   3.496  0.9797 -1.2325 -0.3283
  790MOL0     H 6615   3.075   7.583   3.365 -1.3190  2.2174 -0.6344
  790MOL0     H 6616   2.824   7.598   3.314 -1.0695 -2.9646 -0.7457
  790MOL0     H 6617   2.787   7.483   3.436 -1.4383 -0.4016 -2.6871
  790MOL0     H 6618   2.910   7.646   3.594 -0.4846  0.1570  0.8187
  790MOL0     H 6619   2.913   7.762   3.460  2.2767 -1.6097 -0.0428
  790MOL0     H 6620   2.680   7.643   3.615  0.7213  0.0881  1.5549
  790MOL0     H 6621   2.654   7.697   3.450  1.2648  0.9971 -0.7787
  790MOL0     H 6622   2.761   7.916   3.533  0.8767 -2.5987 -3.0094
  790MOL0     H 6623   2.761   7.849   3.698  0.5505  2.2155 -1.9031
  790MOL0     H 6624   2.573   7.999   3.689  3.8427 -1.5186 -0.0137
  790MOL0     H 6625   2.524   7.932   3.537 -1.6138 -1.2658 -0.9080
  790MOL0     H 6626   2.475   7.786   3.796  1.6661  1.7683  0.3786
  790MOL0     H 6627   2.451   7.716   3.635  1.2046  0.6156 -0.5135
  790MOL0     H 6628   2.243   7.816   3.743  0.9522  1.2622  1.1964
  790MOL0     H 6629   2.318   7.974   3.717  0.9720  1.0041 -2.1236
  790MOL0     H 6630   3.102   7.235   3.120  1.8903 -0.1301 -2.1099
  790MOL0     H 6631   3.185   7.277   2.908 -1.4093 -1.8826  1.3224
  790MOL0     H 6632   3.187   7.643   2.563 -0.5354  0.4007 -0.1220
  790MOL0     H 6633   3.272   7.707   2.326  2.8636  2.4926  0.0981
  790MOL0     H 6634   4.089   7.750   3.027  0.1423  0.5674 -0.9237
  790MOL0     H 6635   4.017   7.589   2.844  0.5991  0.2379 -4.5811
  790MOL0     H 6636   4.010   7.660   2.245 -2.7551  0.4451 -1.8517
  790MOL0     H 6637   3.970   7.490   2.065 -1.1914  0.6751 -0.3907
  790MOL0     H 6638   3.674   7.251   2.154 -0.4919 -0.8773  0.5812
  790MOL0     H 6639   3.751   7.116   2.232 -1.7423  0.9588  1.8405
  790MOL0     H 6640   3.769   6.984   2.012 -0.6912 -1.3727  0.2415
  790MOL0     H 6641   3.730   7.132   1.923 -1.6445  0.9441  0.5466
  790MOL0     H 6642   3.544   7.001   1.923 -1.2743 -0.7750  0.7957
  790MOL0     H 6643   3.511   7.136   2.018 -0.1753 -0.1137 -0.2543
  790MOL0     H 6644   3.433   6.900   2.117  0.5871 -2.1336 -0.7154
  790MOL0     H 6645   3.598   6.882   2.167  2.5428  1.9556 -1.1413
  790MOL0     H 6646   3.412   7.139   2.466 -0.9216 -2.8988  1.2521
  790MOL0     H 6647   3.840   7.218   2.369  1.2330 -1.0394 -2.1809
  790MOL0     H 6648   3.770   7.428   2.629  1.2709 -0.3380  1.1513
  790MOL0     H 6649   3.819   7.269   2.600 -0.0525  0.2022  1.6552
  790MOL0     H 6650   3.935   7.376   2.666 -1.6839 -3.5354  2.8351
  791MOL0     O 6651   8.815   1.484   6.883 -0.4116 -0.4314 -0.0020
  791MOL0     C 6652   8.753   1.542   6.789 -0.0142 -0.2610  0.2296
  791MOL0     O 6653   8.801   1.650   6.714 -0.4460 -0.5032 -0.5756
  791MOL0     C 6654   8.940   1.662   6.701  0.8663 -0.6041 -0.0820
  791MOL0     C 6655   9.000   1.648   6.577 -0.1179  0.6653 -0.3356
  791MOL0     C 6656   9.140   1.643   6.567  0.5373 -0.1664  0.1336
  791MOL0     C 6657   9.222   1.666   6.681 -0.4006  0.4745  0.9296
  791MOL0     O 6658   9.357   1.667   6.647  0.2289  0.2825  0.6424
  791MOL0     C 6659   9.447   1.739   6.734  0.1791  0.3101 -0.3473
  791MOL0     C 6660   9.588   1.683   6.703  0.0807  0.0614  0.6781
  791MOL0     C 6661   9.697   1.795   6.732  0.4488  0.1897  0.0507
  791MOL0     C 6662   9.838   1.780   6.670 -0.1863 -1.3470 -0.5903
  791MOL0     C 6663   9.950   1.883   6.724 -0.1368 -0.6586 -0.4965
  791MOL0     C 6664  10.090   1.804   6.727 -0.0923 -0.0312 -0.6157
  791MOL0     C 6665  10.203   1.897   6.783 -0.2820  0.7299 -0.6966
  791MOL0     C 6666  10.238   2.015   6.698 -0.5654  0.1495  0.6830
  791MOL0     N 6667  10.329   2.114   6.765  0.2629  0.1864 -0.7119
  791MOL0     C 6668  10.463   2.112   6.776 -0.4811 -0.2054 -0.0644
  791MOL0     C 6669  10.496   2.196   6.880 -0.0206 -0.2991  0.3979
  791MOL0     C 6670  10.637   2.220   6.943  0.1208  0.2017  0.8397
  791MOL0     C 6671  10.649   2.349   7.026  0.5327 -0.2197 -0.2472
  791MOL0     C 6672  10.643   2.476   6.941  0.5178 -0.8579  0.0484
  791MOL0     C 6673  10.681   2.593   7.020  0.7561 -0.3379  0.4674
  791MOL0     O 6674  10.678   2.710   6.932 -0.0175  0.7476 -0.3875
  791MOL0     C 6675  10.749   2.822   6.969 -1.1968 -0.9958 -0.7768
  791MOL0     C 6676  10.818   2.846   7.090 -1.0246  0.2332  0.5005
  791MOL0     C 6677  10.886   2.964   7.125 -0.0391  0.5609 -0.2137
  791MOL0     C 6678  10.872   3.079   7.045  0.0111  0.5783 -0.2589
  791MOL0     C 6679  10.947   3.202   7.067  0.7708 -0.4854  0.3712
  791MOL0     O 6680  11.043   3.205   7.166 -0.3942  0.0584 -0.2478
  791MOL0     C 6681  11.138   3.304   7.167 -0.2323 -0.7384 -0.8429
  791MOL0     C 6682  11.094   3.438   7.183 -0.5108  0.0947 -0.0238
  791MOL0     C 6683  11.187   3.540   7.192  0.4549  0.1696  0.4645
  791MOL0     C 6684  11.331   3.517   7.183  0.0104 -0.5324 -0.6217
  791MOL0     O 6685  11.418   3.624   7.187  0.9137 -0.7520  0.5412
  791MOL0     C 6686  11.560   3.608   7.190 -1.1190 -0.0009  0.0724
  791MOL0     C 6687  11.610   3.755   7.219 -0.6107 -0.0725  0.4470
  791MOL0     C 6688  11.580   3.854   7.096  0.6838 -0.4485 -0.0476
  791MOL0     C 6689  11.686   3.965   7.104 -0.4134 -0.7532 -0.3909
  791MOL0     C 6690  11.621   4.098   7.041 -0.4673 -0.0858 -0.2533
  791MOL0     C 6691  11.690   4.218   7.087 -0.1251 -0.9564 -0.6050
  791MOL0     C 6692  11.636   4.349   7.030 -0.2219 -0.7839 -0.3546
  791MOL0     C 6693  11.621   4.350   6.873  0.3774 -0.1227  0.0520
  791MOL0    Cl 6694  11.788   4.383   6.790 -0.2464  0.4395  0.3251
  791MOL0     C 6695  11.372   3.380   7.164 -0.4334 -0.5985  0.5627
  791MOL0     C 6696  11.276   3.270   7.154  0.3785 -0.3057  0.4722
  791MOL0     O 6697  10.925   3.293   6.988 -0.2964 -0.4165  0.0352
  791MOL0     C 6698  10.793   3.065   6.936  0.1740  0.0519  0.2139
  791MOL0     C 6699  10.738   2.942   6.900 -0.0621  0.2237  0.3243
  791MOL0     N 6700  10.374   2.254   6.925  0.1854  0.6309 -0.3838
  791MOL0     N 6701  10.281   2.197   6.854  0.9402 -0.0777 -1.0687
  791MOL0     C 6702   9.160   1.701   6.808  0.5395 -0.3021  0.7385
  791MOL0     C 6703   9.019   1.703   6.815  0.2177  0.1035 -0.5091
  791MOL0     C 6704   8.605   1.516   6.772 -0.1537 -0.1693 -0.5092
  791MOL0     C 6705   8.541   1.606   6.686  0.1045  0.8874 -0.3902
  791MOL0     C 6706   8.402   1.610   6.662 -0.2382  0.0817 -1.3888
  791MOL0     C 6707   8.325   1.514   6.733 -0.2708 -0.2490 -0.7791
  791MOL0     O 6708   8.189   1.494   6.719 -0.2785 -0.4344 -0.6688
  791MOL0     C 6709   8.126   1.607   6.656 -0.1047  0.2130 -0.7187
  791MOL0     C 6710   7.977   1.610   6.672  0.4098 -0.3578 -0.1288
  791MOL0     C 6711   7.909   1.711   6.584  0.6219 -0.0883  0.0794
  791MOL0     C 6712   7.752   1.721   6.604  0.4659 -0.3646  0.0932
  791MOL0     C 6713   7.682   1.601   6.559 -0.3340  0.5342 -0.2069
  791MOL0     C 6714   7.624   1.505   6.520  0.5749  0.4234 -0.0963
  791MOL0     C 6715   8.393   1.414   6.811  0.4760  0.7012  0.1334
  791MOL0     C 6716   8.529   1.413   6.831 -0.3490 -1.1571 -0.0599
  791MOL0     C 6717   8.600   1.299   6.909 -0.4069 -0.4960 -0.1036
  791MOL0     H 6718   8.941   1.628   6.487  0.9313  0.1617 -0.9315
  791MOL0     H 6719   9.189   1.627   6.472 -0.4530  0.0411 -0.4272
  791MOL0     H 6720   9.434   1.843   6.704 -0.4775  0.6090  0.9093
  791MOL0     H 6721   9.426   1.739   6.841  0.7943 -2.1505 -0.1669
  791MOL0     H 6722   9.583   1.652   6.598  1.5641 -1.1880  0.9359
  791MOL0     H 6723   9.607   1.591   6.759 -1.7268  0.5776  2.2637
  791MOL0     H 6724   9.704   1.801   6.841 -3.8895 -0.0294  0.4909
  791MOL0     H 6725   9.658   1.889   6.690 -2.1784 -1.2384 -0.9057
  791MOL0     H 6726   9.867   1.676   6.690 -1.9924 -2.5403 -3.5390
  791MOL0     H 6727   9.830   1.785   6.561  0.1438  2.6464 -0.5983
  791MOL0     H 6728   9.940   1.962   6.649 -0.1442  1.5237  1.6574
  791MOL0     H 6729   9.928   1.925   6.822  0.5281 -2.3008  0.4011
  791MOL0     H 6730  10.085   1.720   6.797  1.6304 -0.3895 -0.8753
  791MOL0     H 6731  10.106   1.757   6.629 -1.6393 -2.5346  0.2309
  791MOL0     H 6732  10.286   1.830   6.810  1.3041  2.6788 -0.4622
  791MOL0     H 6733  10.165   1.937   6.878  1.2469 -2.4637  1.4305
  791MOL0     H 6734  10.285   1.986   6.604  0.5595 -2.0469  1.8501
  791MOL0     H 6735  10.143   2.057   6.663 -0.0160  0.7163 -0.1596
  791MOL0     H 6736  10.529   2.057   6.711  0.7145  0.9829  0.0949
  791MOL0     H 6737  10.648   2.136   7.012 -5.1040 -0.9127  0.7532
  791MOL0     H 6738  10.712   2.216   6.864 -0.4429  2.5238  0.0934
  791MOL0     H 6739  10.561   2.345   7.089  0.1847  1.7792 -0.5309
  791MOL0     H 6740  10.744   2.340   7.081  0.5575  1.3859  0.0259
  791MOL0     H 6741  10.548   2.491   6.888  1.6525  0.8403 -1.6372
  791MOL0     H 6742  10.711   2.483   6.855  0.1051  2.1329 -0.1755
  791MOL0     H 6743  10.783   2.573   7.055  1.4695  0.5435 -1.0077
  791MOL0     H 6744  10.620   2.591   7.111  1.8643 -3.2128  1.2745
  791MOL0     H 6745  10.833   2.764   7.160  1.7386 -0.9881 -1.3387
  791MOL0     H 6746  10.952   2.981   7.210 -1.4115  1.6574  0.6835
  791MOL0     H 6747  10.987   3.455   7.191 -1.4316 -4.6860  0.6747
  791MOL0     H 6748  11.164   3.646   7.193  2.4405  0.9360 -4.4079
  791MOL0     H 6749  11.604   3.542   7.266 -2.8380  0.8711  1.9114
  791MOL0     H 6750  11.597   3.587   7.089 -1.8893 -1.2768  0.0307
  791MOL0     H 6751  11.564   3.778   7.316  0.2337 -1.4274  1.1958
  791MOL0     H 6752  11.718   3.761   7.236 -0.8586  3.1964  1.5086
  791MOL0     H 6753  11.594   3.803   7.000 -0.8879  2.4647 -1.9666
  791MOL0     H 6754  11.479   3.894   7.103  1.4343  1.5961 -0.2226
  791MOL0     H 6755  11.779   3.936   7.055 -0.0926 -0.0246 -0.2263
  791MOL0     H 6756  11.714   3.976   7.209 -1.0278  2.0386 -0.4346
  791MOL0     H 6757  11.513   4.102   7.058 -0.2575 -1.4155  1.6441
  791MOL0     H 6758  11.624   4.084   6.932  0.4749 -0.7564 -0.1552
  791MOL0     H 6759  11.671   4.224   7.195 -1.4219 -2.0607 -0.7502
  791MOL0     H 6760  11.794   4.199   7.057  0.0563 -2.8270  0.9779
  791MOL0     H 6761  11.705   4.428   7.061  0.2804 -1.3359 -0.0214
  791MOL0     H 6762  11.535   4.361   7.069  0.1100 -2.6334  1.2295
  791MOL0     H 6763  11.574   4.260   6.832  0.2482 -0.9408  1.9034
  791MOL0     H 6764  11.552   4.432   6.854  0.3226 -0.1168  0.2787
  791MOL0     H 6765  11.477   3.352   7.166 -0.1579  0.4008  0.5356
  791MOL0     H 6766  11.316   3.170   7.144 -0.3288 -0.6523  1.0526
  791MOL0     H 6767  10.786   3.152   6.872  3.0989  1.3858  1.5087
  791MOL0     H 6768  10.684   2.941   6.806  1.3213 -2.5606 -0.5732
  791MOL0     H 6769   9.221   1.724   6.895 -0.4780 -2.8980  2.2605
  791MOL0     H 6770   8.980   1.751   6.905  0.5022 -1.2003  0.3450
  791MOL0     H 6771   8.589   1.685   6.629 -1.8151  1.1856 -1.6760
  791MOL0     H 6772   8.363   1.682   6.590 -1.1959  1.4344  0.4010
  791MOL0     H 6773   8.150   1.606   6.550  2.4400  0.2574 -0.2085
  791MOL0     H 6774   8.164   1.696   6.706  0.2103  1.3869 -2.9308
  791MOL0     H 6775   7.953   1.643   6.773 -0.0305  1.2761 -0.7397
  791MOL0     H 6776   7.936   1.510   6.658 -0.1477  0.0703 -1.8104
  791MOL0     H 6777   7.927   1.683   6.480 -2.8565 -0.2846 -0.6083
  791MOL0     H 6778   7.954   1.810   6.596 -1.9716  1.0043  1.7037
  791MOL0     H 6779   7.729   1.739   6.710 -1.0949 -1.6281  0.0163
  791MOL0     H 6780   7.707   1.800   6.544 -0.4210 -0.3788  0.7127
  791MOL0     H 6781   7.582   1.407   6.508  3.4084 -0.8833 -0.1501
  791MOL0     H 6782   8.331   1.333   6.845  0.4462  0.7648  0.2319
  791MOL0     H 6783   8.535   1.211   6.914  1.2572 -1.7024  2.5153
  791MOL0     H 6784   8.686   1.267   6.850  0.3096  2.2219 -0.6690
  791MOL0     H 6785   8.638   1.326   7.008  4.6155  2.4070 -2.4581
  792MOL0     O 6786   4.883   6.230   5.205  0.2550  0.3242  0.2944
  792MOL0     C 6787   4.976   6.287   5.151 -0.2177  0.6385  0.0768
  792MOL0     O 6788   5.107   6.236   5.142  0.2056  0.4334 -0.2762
  792MOL0     C 6789   5.151   6.127   5.216 -0.1660 -0.5794  0.5454
  792MOL0     C 6790   5.211   6.021   5.144  0.2969  0.8024 -0.9711
  792MOL0     C 6791   5.241   5.901   5.208 -0.3481 -0.1210 -0.2036
  792MOL0     C 6792   5.211   5.884   5.342 -0.0808  0.0781  0.6583
  792MOL0     O 6793   5.260   5.765   5.395  0.1953 -0.0123 -0.0734
  792MOL0     C 6794   5.211   5.737   5.534 -0.1488 -0.7820 -0.0173
  792MOL0     C 6795   5.255   5.598   5.578 -0.1917 -0.0267  0.0824
  792MOL0     C 6796   5.401   5.556   5.531  0.8255  0.0165  0.7173
  792MOL0     C 6797   5.500   5.607   5.629 -0.3138 -0.4449 -0.5016
  792MOL0     C 6798   5.649   5.607   5.584 -0.3307 -0.3192 -0.3885
  792MOL0     C 6799   5.704   5.465   5.607  0.0783  0.0421 -0.1433
  792MOL0     C 6800   5.852   5.454   5.560  0.6660 -0.6848  1.0812
  792MOL0     C 6801   5.882   5.311   5.529  0.2225  0.6338 -0.2714
  792MOL0     N 6802   6.024   5.317   5.490  0.9065  0.1421  0.3346
  792MOL0     C 6803   6.119   5.302   5.579  0.0275  0.2537  0.8060
  792MOL0     C 6804   6.231   5.346   5.525  0.5495  0.0392  0.5408
  792MOL0     C 6805   6.367   5.366   5.591  1.1838  0.0064  0.4825
  792MOL0     C 6806   6.417   5.238   5.666 -0.2115  0.9048 -0.3913
  792MOL0     C 6807   6.506   5.262   5.783  0.2502  0.1690 -0.0029
  792MOL0     C 6808   6.647   5.292   5.740  0.7094  0.1793  0.3872
  792MOL0     O 6809   6.701   5.166   5.699 -0.6809 -0.2185  0.1871
  792MOL0     C 6810   6.824   5.168   5.644  0.1651  1.0356 -1.0475
  792MOL0     C 6811   6.907   5.062   5.678  0.2381 -0.0028 -0.1738
  792MOL0     C 6812   7.035   5.043   5.622 -0.1084  0.4189 -0.5336
  792MOL0     C 6813   7.083   5.146   5.542  0.1600  1.1816 -0.9575
  792MOL0     C 6814   7.227   5.154   5.503  0.0763  0.7108 -0.1904
  792MOL0     O 6815   7.312   5.050   5.540 -0.0041  0.4589 -0.5674
  792MOL0     C 6816   7.434   5.043   5.481  0.4279  0.3315  0.4325
  792MOL0     C 6817   7.444   4.967   5.363  0.8977 -0.7952 -0.0649
  792MOL0     C 6818   7.561   4.940   5.300  0.1054 -0.8093  0.6926
  792MOL0     C 6819   7.685   4.996   5.350 -0.2657  0.7106  0.8886
  792MOL0     O 6820   7.795   4.987   5.267 -0.6286  0.5588 -0.1445
  792MOL0     C 6821   7.921   5.052   5.308  0.6303  0.7888  0.1269
  792MOL0     C 6822   8.002   4.952   5.390 -0.3030 -0.4444 -0.4923
  792MOL0     C 6823   8.131   5.008   5.445  0.0677 -0.3505 -0.1784
  792MOL0     C 6824   8.216   4.893   5.515 -0.0472 -0.0778 -0.4121
  792MOL0     C 6825   8.356   4.938   5.574  0.7295  0.3213  0.3831
  792MOL0     C 6826   8.377   5.079   5.640 -0.1629  1.2131  0.0458
  792MOL0     C 6827   8.517   5.103   5.691  0.6599  0.9904 -0.4461
  792MOL0     C 6828   8.520   5.186   5.819 -0.5818  0.3901  0.3603
  792MOL0    Cl 6829   8.437   5.348   5.782  0.3294 -0.4766 -0.2469
  792MOL0     C 6830   7.674   5.070   5.471 -0.2779  0.2378  0.3454
  792MOL0     C 6831   7.555   5.096   5.538  0.4867  0.8567  0.7704
  792MOL0     O 6832   7.252   5.245   5.431 -0.7512 -0.0953 -0.1583
  792MOL0     C 6833   7.000   5.253   5.506 -0.0039 -0.6427 -0.3687
  792MOL0     C 6834   6.872   5.258   5.560 -0.0510 -0.9470 -0.5425
  792MOL0     N 6835   6.206   5.377   5.395  0.7796  0.1879  0.2281
  792MOL0     N 6836   6.078   5.371   5.379 -0.5469 -0.6856  0.0537
  792MOL0     C 6837   5.158   5.995   5.407  0.2262  0.7660 -1.1971
  792MOL0     C 6838   5.136   6.118   5.351  0.0415 -0.7567 -0.1242
  792MOL0     C 6839   4.944   6.413   5.074  0.8295  0.1724 -1.0097
  792MOL0     C 6840   4.811   6.451   5.057  0.3384  0.1260 -0.6697
  792MOL0     C 6841   4.778   6.583   4.999  1.1762  1.3082  0.4912
  792MOL0     C 6842   4.881   6.666   4.952 -1.0824  0.2416 -0.2776
  792MOL0     O 6843   4.868   6.793   4.910 -0.0188  0.7948  0.3632
  792MOL0     C 6844   4.743   6.826   4.853  0.3163  0.5588 -0.8073
  792MOL0     C 6845   4.661   6.923   4.939 -0.1980  0.0989  1.1241
  792MOL0     C 6846   4.743   7.046   4.971 -0.2522 -0.8575 -0.1797
  792MOL0     C 6847   4.667   7.138   5.069  0.7056  0.0601 -0.0518
  792MOL0     C 6848   4.758   7.247   5.107 -1.0221  0.6698 -0.1021
  792MOL0     C 6849   4.825   7.339   5.132  0.2840  0.0583 -0.4704
  792MOL0     C 6850   5.007   6.622   4.964 -0.3915 -0.2031 -0.3816
  792MOL0     C 6851   5.044   6.499   5.028  0.1767  0.3237 -0.3331
  792MOL0     C 6852   5.198   6.475   5.043  0.1151 -0.4135 -0.2367
  792MOL0     H 6853   5.235   6.033   5.038 -0.3464 -1.0302 -1.3551
  792MOL0     H 6854   5.299   5.828   5.151  1.9100  1.5362 -0.1746
  792MOL0     H 6855   5.246   5.808   5.610 -1.3350  1.1246 -1.1650
  792MOL0     H 6856   5.102   5.747   5.535 -0.0638  0.3231  0.3798
  792MOL0     H 6857   5.183   5.529   5.532 -0.9996  0.0358  1.2156
  792MOL0     H 6858   5.240   5.595   5.686 -1.6574  0.9247 -0.0715
  792MOL0     H 6859   5.429   5.585   5.429  1.8406  0.8137  1.2053
  792MOL0     H 6860   5.384   5.448   5.537 -3.9981  0.6191  1.3292
  792MOL0     H 6861   5.467   5.708   5.655  0.2421 -0.3168 -0.2842
  792MOL0     H 6862   5.498   5.556   5.726  0.4270  2.5339  1.2101
  792MOL0     H 6863   5.646   5.631   5.477 -0.4660  1.5675  0.0031
  792MOL0     H 6864   5.711   5.672   5.646 -0.3283  1.9256 -2.5878
  792MOL0     H 6865   5.713   5.434   5.712  0.4384  1.3197  0.2130
  792MOL0     H 6866   5.646   5.384   5.560  1.2568 -1.3368  0.6784
  792MOL0     H 6867   5.925   5.490   5.634  1.2468 -0.0206  0.1996
  792MOL0     H 6868   5.869   5.504   5.464  1.2556 -0.2052  1.4265
  792MOL0     H 6869   5.870   5.250   5.619  0.9053 -2.0946 -1.9306
  792MOL0     H 6870   5.823   5.267   5.448  2.0193 -1.4740 -0.5532
  792MOL0     H 6871   6.107   5.260   5.678 -0.3069 -1.1922  0.1741
  792MOL0     H 6872   6.448   5.401   5.525  2.1560 -1.5567  0.8067
  792MOL0     H 6873   6.346   5.444   5.665  0.2164 -0.0254  0.2541
  792MOL0     H 6874   6.327   5.182   5.693 -1.5011  1.9515 -2.2603
  792MOL0     H 6875   6.472   5.176   5.595  2.9355  1.8761  1.0296
  792MOL0     H 6876   6.500   5.176   5.851 -1.7713  1.1855  1.1698
  792MOL0     H 6877   6.464   5.348   5.836 -0.1834 -0.7032  1.1079
  792MOL0     H 6878   6.708   5.335   5.820  0.1594  0.1674  0.8164
  792MOL0     H 6879   6.648   5.368   5.661  3.6291  0.6284  0.7614
  792MOL0     H 6880   6.861   4.990   5.745 -1.1172  1.6902  0.8027
  792MOL0     H 6881   7.090   4.951   5.644  1.7405  1.8502  1.2860
  792MOL0     H 6882   7.348   4.928   5.332 -0.5755  1.2113  1.6559
  792MOL0     H 6883   7.549   4.895   5.202  0.6960  1.0578 -0.2699
  792MOL0     H 6884   7.973   5.061   5.212  1.8191  1.5310  0.8212
  792MOL0     H 6885   7.911   5.153   5.349 -0.0936  1.2878 -1.2111
  792MOL0     H 6886   7.939   4.922   5.474 -1.1689  1.3535 -0.4665
  792MOL0     H 6887   8.042   4.874   5.324 -0.0673 -0.5364 -0.2437
  792MOL0     H 6888   8.181   5.063   5.365 -1.6129 -1.9816 -2.4904
  792MOL0     H 6889   8.099   5.080   5.521 -0.7521 -0.3191 -0.5450
  792MOL0     H 6890   8.235   4.810   5.446  0.8172  1.9288 -2.7303
  792MOL0     H 6891   8.154   4.872   5.603  0.9136  2.0821  0.8557
  792MOL0     H 6892   8.432   4.934   5.495  1.5901 -0.6407  1.2228
  792MOL0     H 6893   8.383   4.858   5.644 -2.8541 -0.8684  0.6053
  792MOL0     H 6894   8.358   5.160   5.569 -1.7782  2.6912  2.0425
  792MOL0     H 6895   8.296   5.093   5.712 -3.2655  1.0910 -3.1237
  792MOL0     H 6896   8.568   5.145   5.604 -2.4355  0.1564 -2.8465
  792MOL0     H 6897   8.564   5.007   5.715  3.7001  1.9764 -1.9766
  792MOL0     H 6898   8.480   5.133   5.905  0.2802  0.4588  0.8082
  792MOL0     H 6899   8.625   5.211   5.838  0.5296 -2.2765 -1.6999
  792MOL0     H 6900   7.761   5.122   5.510 -0.8915  2.3856 -0.9862
  792MOL0     H 6901   7.550   5.156   5.628 -0.1229  1.1864  0.5162
  792MOL0     H 6902   7.030   5.335   5.441  3.0349 -2.2546 -1.1853
  792MOL0     H 6903   6.801   5.333   5.528 -2.0570 -3.1174 -1.4895
  792MOL0     H 6904   5.134   5.989   5.513 -0.4703 -1.0076 -1.4187
  792MOL0     H 6905   5.092   6.201   5.405  0.2677 -0.3339 -0.5801
  792MOL0     H 6906   4.731   6.393   5.101  1.0614 -0.8476 -0.6056
  792MOL0     H 6907   4.671   6.602   4.996 -0.6749 -5.8335  1.9225
  792MOL0     H 6908   4.689   6.734   4.827  0.9327  0.1815 -0.7846
  792MOL0     H 6909   4.754   6.876   4.756  1.3606 -1.5266 -1.8254
  792MOL0     H 6910   4.635   6.874   5.033  2.2600 -0.6389  1.4753
  792MOL0     H 6911   4.566   6.947   4.889 -0.6693 -4.5654 -0.7545
  792MOL0     H 6912   4.765   7.103   4.881  0.1475 -0.7803 -0.0350
  792MOL0     H 6913   4.838   7.030   5.022  0.3648  0.2000 -0.9626
  792MOL0     H 6914   4.583   7.190   5.024 -0.5780  1.0732  3.2564
  792MOL0     H 6915   4.630   7.079   5.154  0.3241 -0.9639 -0.8977
  792MOL0     H 6916   4.887   7.424   5.150  0.8774 -0.6366  0.9444
  792MOL0     H 6917   5.077   6.700   4.933  0.1626 -0.1968  0.8325
  792MOL0     H 6918   5.218   6.376   5.000 -2.0263 -0.3291 -1.6325
  792MOL0     H 6919   5.252   6.541   4.974  0.8332 -0.8323 -0.0873
  792MOL0     H 6920   5.230   6.478   5.147 -1.1844  0.9787  0.1575
  793MOL0     O 6921   5.442   2.916   1.720  0.0578  0.4511  0.1302
  793MOL0     C 6922   5.437   2.796   1.722  0.4860  0.7449 -0.2014
  793MOL0     O 6923   5.519   2.707   1.662 -0.8055  0.6766 -0.3132
  793MOL0     C 6924   5.617   2.765   1.580 -0.5930 -0.3669  0.0706
  793MOL0     C 6925   5.617   2.724   1.443  0.3815 -0.3675  0.4299
  793MOL0     C 6926   5.714   2.769   1.352  1.1050  0.2490 -0.0284
  793MOL0     C 6927   5.805   2.874   1.389  0.6766  0.6485  0.8724
  793MOL0     O 6928   5.901   2.924   1.306 -0.0842  0.1505  0.3574
  793MOL0     C 6929   5.916   2.876   1.173  0.4214 -0.2808  0.4706
  793MOL0     C 6930   5.988   2.982   1.107  0.5901  0.0404  0.1482
  793MOL0     C 6931   6.130   2.965   1.160  1.2019  0.1933  1.1940
  793MOL0     C 6932   6.213   3.080   1.103  0.1970 -0.4086  0.1932
  793MOL0     C 6933   6.356   3.089   1.163  0.1450  0.0258  0.0285
  793MOL0     C 6934   6.432   3.214   1.115  0.1462  0.3388  0.4544
  793MOL0     C 6935   6.560   3.242   1.194 -0.2451  0.2325  0.4278
  793MOL0     C 6936   6.629   3.369   1.132  1.4353 -0.2976 -0.3883
  793MOL0     N 6937   6.726   3.422   1.232  0.4086  0.2351 -0.1358
  793MOL0     C 6938   6.860   3.388   1.221 -0.0010 -0.5135  0.1188
  793MOL0     C 6939   6.916   3.473   1.311  0.6185  0.8656 -0.7623
  793MOL0     C 6940   7.063   3.469   1.333  0.2347 -0.2915  0.0689
  793MOL0     C 6941   7.104   3.537   1.463 -0.5400 -0.7697 -0.3626
  793MOL0     C 6942   7.260   3.531   1.480  0.0370 -0.7163  0.3921
  793MOL0     C 6943   7.346   3.577   1.359  0.2295 -0.2712  0.0003
  793MOL0     O 6944   7.486   3.566   1.402 -0.2647 -0.1297  0.8778
  793MOL0     C 6945   7.596   3.593   1.330 -0.4755  0.2577  0.2565
  793MOL0     C 6946   7.600   3.615   1.191  0.2925  0.1708  0.3722
  793MOL0     C 6947   7.724   3.641   1.134 -0.8156 -0.5447  0.4418
  793MOL0     C 6948   7.843   3.643   1.208  0.2369 -0.2371 -0.7357
  793MOL0     C 6949   7.973   3.672   1.137  0.0203 -0.1637 -0.0146
  793MOL0     O 6950   7.970   3.732   1.018  0.5168 -0.5590  0.5996
  793MOL0     C 6951   8.078   3.742   0.934  0.4371  0.5578 -0.3912
  793MOL0     C 6952   8.108   3.616   0.866  0.1434 -0.6976 -0.5166
  793MOL0     C 6953   8.218   3.618   0.779  0.3956 -0.3534 -0.4414
  793MOL0     C 6954   8.293   3.732   0.761 -0.9867 -0.0376 -0.3113
  793MOL0     O 6955   8.410   3.714   0.684 -0.5148  0.1709  0.3167
  793MOL0     C 6956   8.403   3.780   0.557  0.5012 -0.6285  0.3019
  793MOL0     C 6957   8.480   3.691   0.465 -0.5649 -0.8527  0.0915
  793MOL0     C 6958   8.513   3.764   0.330 -0.4662  0.2977 -0.5530
  793MOL0     C 6959   8.395   3.831   0.263  1.0043  0.5649  0.8235
  793MOL0     C 6960   8.281   3.741   0.221 -0.1596  0.2809 -0.3562
  793MOL0     C 6961   8.154   3.817   0.177  0.2575 -0.4920  0.1942
  793MOL0     C 6962   8.040   3.710   0.146  0.1375 -0.2786 -0.0441
  793MOL0     C 6963   7.898   3.772   0.117  1.0283 -0.9190 -0.5529
  793MOL0    Cl 6964   7.758   3.664   0.134  0.1164  0.1912 -0.5463
  793MOL0     C 6965   8.272   3.856   0.836 -0.9464  0.6524 -0.2233
  793MOL0     C 6966   8.153   3.862   0.911 -0.2614  0.1320  0.3015
  793MOL0     O 6967   8.072   3.628   1.198  0.3256  0.3198  0.5381
  793MOL0     C 6968   7.839   3.618   1.348 -0.0768  0.0218 -0.6141
  793MOL0     C 6969   7.713   3.591   1.405 -0.6621 -0.6553 -0.1706
  793MOL0     N 6970   6.813   3.543   1.373  0.9069 -0.2937  0.5196
  793MOL0     N 6971   6.698   3.520   1.319 -0.6349 -0.0700 -0.0915
  793MOL0     C 6972   5.797   2.917   1.530 -0.2556  0.0792  0.3695
  793MOL0     C 6973   5.700   2.867   1.625 -0.5559  0.2742  0.0764
  793MOL0     C 6974   5.329   2.729   1.811 -0.3516 -0.4035  0.4221
  793MOL0     C 6975   5.332   2.598   1.828 -0.2075  0.3536 -0.2481
  793MOL0     C 6976   5.234   2.529   1.901  0.2547  1.1314  0.1190
  793MOL0     C 6977   5.122   2.594   1.953 -0.6957  0.7154  0.7652
  793MOL0     O 6978   5.021   2.547   2.025  0.2916 -0.4201  0.5417
  793MOL0     C 6979   5.025   2.413   2.075  0.7218 -0.1030  0.1261
  793MOL0     C 6980   4.878   2.379   2.113 -0.7933 -0.1032  0.5483
  793MOL0     C 6981   4.835   2.460   2.238  0.1720 -0.3852  0.1418
  793MOL0     C 6982   4.724   2.384   2.316  0.4756  0.4732 -1.2339
  793MOL0     C 6983   4.608   2.371   2.229 -0.2034  0.9993  0.6306
  793MOL0     C 6984   4.512   2.389   2.163 -1.3950 -0.3769 -0.1195
  793MOL0     C 6985   5.115   2.731   1.922 -0.2342  0.5323 -0.3884
  793MOL0     C 6986   5.217   2.801   1.856  0.5376  0.4855 -0.0976
  793MOL0     C 6987   5.185   2.949   1.835  0.1858  0.3556 -0.6021
  793MOL0     H 6988   5.556   2.649   1.396  1.8496 -1.1095 -0.3636
  793MOL0     H 6989   5.720   2.726   1.253 -1.4115  2.5632 -1.3447
  793MOL0     H 6990   5.980   2.787   1.170 -0.7737 -1.1364 -0.4800
  793MOL0     H 6991   5.822   2.858   1.120 -0.5586  2.6223  1.0908
  793MOL0     H 6992   5.945   3.082   1.120  1.1999  0.2298  0.7235
  793MOL0     H 6993   5.998   2.963   1.000  0.9057  0.9793  0.0015
  793MOL0     H 6994   6.167   2.866   1.132 -1.3312 -0.6828  0.7743
  793MOL0     H 6995   6.140   2.976   1.269  0.9617 -2.2353  1.5191
  793MOL0     H 6996   6.217   3.065   0.995  1.3425  2.1154 -0.1911
  793MOL0     H 6997   6.159   3.173   1.127  0.0364 -0.2598 -0.6840
  793MOL0     H 6998   6.337   3.092   1.271 -1.6282  0.9867 -0.2592
  793MOL0     H 6999   6.419   3.005   1.135  0.0357  0.0010 -0.1435
  793MOL0     H 7000   6.457   3.204   1.009 -2.5281 -2.3605 -0.0763
  793MOL0     H 7001   6.374   3.305   1.133  1.6400  1.1165  1.6483
  793MOL0     H 7002   6.621   3.153   1.178  1.4953  1.3131  0.8161
  793MOL0     H 7003   6.549   3.248   1.303  0.7303 -2.0015  0.7102
  793MOL0     H 7004   6.693   3.337   1.050  1.0856 -4.6765  0.7906
  793MOL0     H 7005   6.560   3.440   1.084  0.0214 -1.1858  0.2363
  793MOL0     H 7006   6.911   3.316   1.158  0.5059  0.7168 -0.9269
  793MOL0     H 7007   7.085   3.362   1.342  2.3940  0.2016  1.3310
  793MOL0     H 7008   7.115   3.521   1.252  2.5323  3.9464  3.7744
  793MOL0     H 7009   7.076   3.643   1.459 -0.5788 -0.5153  3.1549
  793MOL0     H 7010   7.061   3.501   1.557 -0.9473 -1.0993 -0.6720
  793MOL0     H 7011   7.287   3.426   1.491 -2.0945 -1.3031  0.5852
  793MOL0     H 7012   7.280   3.591   1.569  1.2565 -2.4469  1.3418
  793MOL0     H 7013   7.323   3.680   1.330  0.4529  0.0340  0.8940
  793MOL0     H 7014   7.333   3.505   1.278 -0.6099 -3.4316  2.7357
  793MOL0     H 7015   7.510   3.611   1.130  0.9075 -1.0386 -0.4947
  793MOL0     H 7016   7.728   3.656   1.027 -1.5640  1.1120  0.6097
  793MOL0     H 7017   8.047   3.530   0.892 -0.2655  0.1140  1.4041
  793MOL0     H 7018   8.251   3.538   0.714 -1.9464 -0.5562 -1.4606
  793MOL0     H 7019   8.303   3.794   0.515  0.6737  0.5475  0.2474
  793MOL0     H 7020   8.443   3.880   0.574 -1.2376  0.2663 -0.6839
  793MOL0     H 7021   8.576   3.666   0.513  0.1786 -1.4139 -1.6044
  793MOL0     H 7022   8.426   3.598   0.445 -4.2894  1.5525 -2.0901
  793MOL0     H 7023   8.592   3.835   0.354  2.6104 -1.9871 -3.1879
  793MOL0     H 7024   8.550   3.691   0.258  1.4395  1.5209 -0.8550
  793MOL0     H 7025   8.427   3.882   0.172  0.5758 -0.2390  0.2067
  793MOL0     H 7026   8.370   3.909   0.336  0.1293  2.1186 -1.0373
  793MOL0     H 7027   8.241   3.685   0.306 -2.3740  0.7377 -1.0459
  793MOL0     H 7028   8.308   3.669   0.143  0.2499  0.5746 -0.4892
  793MOL0     H 7029   8.114   3.874   0.261  1.3498  0.9470 -0.2349
  793MOL0     H 7030   8.174   3.884   0.093 -1.4655  0.2767  0.3525
  793MOL0     H 7031   8.031   3.638   0.228 -0.6625  1.9178  1.8903
  793MOL0     H 7032   8.074   3.643   0.066  2.7053  0.4720  0.3237
  793MOL0     H 7033   7.886   3.858   0.184  1.8109 -1.7620  0.7220
  793MOL0     H 7034   7.901   3.810   0.014 -1.8668 -0.9111 -0.7173
  793MOL0     H 7035   8.337   3.943   0.841  2.5269 -1.7436 -0.2818
  793MOL0     H 7036   8.113   3.946   0.968 -0.5644 -0.6176  1.2408
  793MOL0     H 7037   7.931   3.615   1.406  2.0156 -0.4131 -3.7130
  793MOL0     H 7038   7.708   3.568   1.511 -1.2581 -3.0008 -0.6439
  793MOL0     H 7039   5.868   2.991   1.566  1.2150 -1.2895  0.3900
  793MOL0     H 7040   5.702   2.908   1.725 -0.4818  0.0037  0.1876
  793MOL0     H 7041   5.410   2.534   1.788 -0.9962 -0.4038 -0.6145
  793MOL0     H 7042   5.248   2.422   1.901  0.4804  1.1408 -1.3758
  793MOL0     H 7043   5.095   2.414   2.159  1.2434  0.6910 -0.2963
  793MOL0     H 7044   5.054   2.343   1.996 -0.6541 -0.6507  0.0799
  793MOL0     H 7045   4.876   2.272   2.135 -2.1379  0.2833  2.5836
  793MOL0     H 7046   4.811   2.389   2.027  2.4532  1.4969 -2.0344
  793MOL0     H 7047   4.801   2.558   2.204  0.7921 -0.4759 -0.7842
  793MOL0     H 7048   4.919   2.476   2.306 -1.0598  3.3879  1.0071
  793MOL0     H 7049   4.763   2.286   2.347  0.7041  0.1890 -2.3780
  793MOL0     H 7050   4.696   2.444   2.403  0.7581  0.4011 -1.0933
  793MOL0     H 7051   4.430   2.424   2.103  0.0024  1.5380 -1.0181
  793MOL0     H 7052   5.028   2.783   1.959 -0.2441 -0.8534  1.6964
  793MOL0     H 7053   5.245   3.007   1.905  0.6852 -1.0235  0.1301
  793MOL0     H 7054   5.199   2.976   1.730 -0.6717  2.4784 -0.2195
  793MOL0     H 7055   5.083   2.982   1.857  0.2362  0.5669 -0.6858
  794MOL0     O 7056   3.016   6.559   0.846 -0.1728  0.3699  0.6507
  794MOL0     C 7057   3.049   6.532   0.963 -0.0437 -0.0395  0.3028
  794MOL0     O 7058   3.176   6.542   1.005 -0.8032  0.1017 -1.0969
  794MOL0     C 7059   3.285   6.532   0.920 -0.2669  0.5321  0.0676
  794MOL0     C 7060   3.334   6.651   0.869 -0.6531  0.9759 -0.6577
  794MOL0     C 7061   3.440   6.651   0.780  1.0859 -0.1742 -0.2700
  794MOL0     C 7062   3.511   6.536   0.751  0.6371 -0.5165  0.9155
  794MOL0     O 7063   3.609   6.521   0.650 -0.2320 -0.4158 -0.0565
  794MOL0     C 7064   3.683   6.634   0.618  0.0438  0.1905 -0.7155
  794MOL0     C 7065   3.817   6.583   0.562  0.9390  0.1161 -1.1681
  794MOL0     C 7066   3.906   6.697   0.524  0.4941 -0.2817  0.1180
  794MOL0     C 7067   4.054   6.653   0.501  0.4889 -0.2639  0.4734
  794MOL0     C 7068   4.154   6.765   0.471  0.5772  0.1121 -0.2585
  794MOL0     C 7069   4.126   6.855   0.363  0.8961 -0.0819  0.2804
  794MOL0     C 7070   4.235   6.956   0.328 -0.5044  0.0325 -0.3380
  794MOL0     C 7071   4.358   6.897   0.261  0.4401 -1.0930  0.3335
  794MOL0     N 7072   4.455   7.001   0.240 -0.8804  0.6734  0.3422
  794MOL0     C 7073   4.447   7.114   0.165  0.5964  0.5394 -0.4848
  794MOL0     C 7074   4.557   7.184   0.184 -0.2593 -0.4409  1.0596
  794MOL0     C 7075   4.586   7.320   0.118  0.3119  0.2777 -0.1994
  794MOL0     C 7076   4.730   7.348   0.071  0.1520  0.6363 -0.2411
  794MOL0     C 7077   4.766   7.263  -0.045 -0.0591  0.2301 -0.1084
  794MOL0     C 7078   4.908   7.203  -0.035  0.5289 -1.0630  0.7766
  794MOL0     O 7079   5.012   7.302  -0.056 -0.2739  0.7884 -0.3182
  794MOL0     C 7080   5.143   7.269  -0.011  1.1967  0.7827  0.2662
  794MOL0     C 7081   5.180   7.141   0.027 -0.2031 -0.3528 -0.1539
  794MOL0     C 7082   5.313   7.110   0.078 -0.1339 -0.4731  0.3482
  794MOL0     C 7083   5.414   7.208   0.087 -0.0074 -1.5557 -0.0461
  794MOL0     C 7084   5.550   7.174   0.144  0.0850  0.2238 -0.3816
  794MOL0     O 7085   5.641   7.279   0.137  0.7905 -0.0323 -0.7810
  794MOL0     C 7086   5.773   7.255   0.162  0.1384  0.8280  0.1989
  794MOL0     C 7087   5.831   7.165   0.255 -0.8514 -0.3848 -0.2459
  794MOL0     C 7088   5.971   7.158   0.272  0.4666  0.4422  0.3329
  794MOL0     C 7089   6.057   7.236   0.199 -0.3645 -1.0898  0.2375
  794MOL0     O 7090   6.191   7.215   0.207  0.2572 -0.5714 -0.3253
  794MOL0     C 7091   6.282   7.328   0.193  0.4543  0.2393  0.4029
  794MOL0     C 7092   6.335   7.325   0.047  0.2313 -0.9740  0.6036
  794MOL0     C 7093   6.478   7.387   0.050 -0.8537 -0.1240  0.2835
  794MOL0     C 7094   6.530   7.429  -0.085  0.2860 -0.3092  0.1618
  794MOL0     C 7095   6.659   7.509  -0.076 -0.0280  0.0457 -0.1325
  794MOL0     C 7096   6.785   7.431  -0.020  0.2578 -0.1371  0.3169
  794MOL0     C 7097   6.921   7.503  -0.045  0.2579  0.2293 -0.7731
  794MOL0     C 7098   7.043   7.429   0.015  0.5797  0.3429  0.7886
  794MOL0    Cl 7099   7.192   7.523   0.024  0.4058  0.3083  0.1420
  794MOL0     C 7100   6.000   7.324   0.091 -0.1470 -0.5292 -0.7487
  794MOL0     C 7101   5.863   7.328   0.077  1.1092 -0.7721 -0.1447
  794MOL0     O 7102   5.583   7.062   0.171  0.3704 -0.4669  0.6483
  794MOL0     C 7103   5.381   7.334   0.031  0.5365 -1.2376 -0.7591
  794MOL0     C 7104   5.250   7.360  -0.012  0.6504  0.1401  0.6419
  794MOL0     N 7105   4.645   7.104   0.267  0.4190 -0.6240  0.4091
  794MOL0     N 7106   4.575   7.009   0.308  0.2896  0.0097  0.5060
  794MOL0     C 7107   3.471   6.417   0.810 -0.2332 -0.7816 -0.9044
  794MOL0     C 7108   3.365   6.415   0.901 -0.3382  0.3499 -0.1607
  794MOL0     C 7109   2.942   6.526   1.062  0.1095 -0.3071 -0.6389
  794MOL0     C 7110   2.989   6.533   1.198 -0.2715  0.2101 -0.2640
  794MOL0     C 7111   2.888   6.542   1.303 -0.0267  0.3274  0.2722
  794MOL0     C 7112   2.757   6.529   1.281  0.7765  0.4996 -0.7673
  794MOL0     O 7113   2.663   6.531   1.381  0.7755  0.0667  0.5312
  794MOL0     C 7114   2.665   6.650   1.460 -0.4118 -0.6159  0.0171
  794MOL0     C 7115   2.544   6.661   1.541  0.0766 -0.5187  0.7167
  794MOL0     C 7116   2.417   6.682   1.455 -0.5103 -0.1614  0.1013
  794MOL0     C 7117   2.286   6.675   1.538 -0.0869  0.6120 -0.1927
  794MOL0     C 7118   2.281   6.774   1.641  0.2362 -0.0766 -0.9959
  794MOL0     C 7119   2.253   6.822   1.753  0.1555 -0.0935  0.4055
  794MOL0     C 7120   2.721   6.502   1.154  0.0052  0.4349  0.6530
  794MOL0     C 7121   2.809   6.493   1.042  0.0080  0.0340 -0.5809
  794MOL0     C 7122   2.739   6.445   0.915 -0.2319 -0.1136 -0.1328
  794MOL0     H 7123   3.284   6.745   0.891 -2.1783  0.6084 -2.3050
  794MOL0     H 7124   3.474   6.745   0.738  1.1797  0.4485  1.1482
  794MOL0     H 7125   3.634   6.702   0.548 -1.4093  0.3078  0.3903
  794MOL0     H 7126   3.713   6.691   0.706 -1.7982  0.2083 -0.0646
  794MOL0     H 7127   3.792   6.513   0.482 -1.9083  0.6942 -0.8696
  794MOL0     H 7128   3.874   6.528   0.638  1.3681 -0.9585 -2.2382
  794MOL0     H 7129   3.886   6.778   0.594  1.2433 -0.4247  0.5057
  794MOL0     H 7130   3.874   6.742   0.430 -0.0885  2.3729  1.4824
  794MOL0     H 7131   4.080   6.609   0.598 -3.0957 -0.3082  1.5671
  794MOL0     H 7132   4.053   6.575   0.425 -1.2207  0.1364  0.0397
  794MOL0     H 7133   4.152   6.830   0.559 -1.1874 -1.2711  0.7738
  794MOL0     H 7134   4.253   6.718   0.462  0.4704 -0.1110 -0.2649
  794MOL0     H 7135   4.102   6.795   0.274  3.3771  0.2506 -0.6798
  794MOL0     H 7136   4.034   6.910   0.386  2.0417  1.2455  1.9374
  794MOL0     H 7137   4.273   6.990   0.425  0.9429 -1.3995 -0.3602
  794MOL0     H 7138   4.196   7.042   0.273 -0.6766 -0.5236 -1.1011
  794MOL0     H 7139   4.398   6.830   0.338 -0.6188 -1.9643  0.1459
  794MOL0     H 7140   4.333   6.837   0.173 -0.8033  1.1100 -0.9007
  794MOL0     H 7141   4.356   7.150   0.118  1.0319  0.1286 -1.6841
  794MOL0     H 7142   4.516   7.330   0.034 -1.0574  2.8314  1.1097
  794MOL0     H 7143   4.555   7.406   0.178  0.9666 -0.3229  1.0286
  794MOL0     H 7144   4.732   7.455   0.049  0.1295  0.6819 -0.0281
  794MOL0     H 7145   4.804   7.340   0.151  1.1490 -1.1643 -1.2821
  794MOL0     H 7146   4.768   7.328  -0.134  0.9460  0.4218  0.0357
  794MOL0     H 7147   4.694   7.181  -0.052  1.9681 -1.7440  0.8647
  794MOL0     H 7148   4.921   7.119  -0.104  0.4471 -3.1801  3.2165
  794MOL0     H 7149   4.910   7.155   0.063 -2.0634  0.6925  1.7954
  794MOL0     H 7150   5.117   7.056   0.053 -2.6171  1.6194  0.9170
  794MOL0     H 7151   5.338   7.010   0.113  1.2999  0.4909  2.2957
  794MOL0     H 7152   5.780   7.105   0.329 -0.1217 -2.9338 -1.7000
  794MOL0     H 7153   5.997   7.089   0.350 -1.6170  0.1726  0.8499
  794MOL0     H 7154   6.243   7.421   0.235  1.9537  0.7945  0.6457
  794MOL0     H 7155   6.363   7.321   0.266  0.1803 -1.6293  0.5599
  794MOL0     H 7156   6.337   7.218   0.020 -0.7637 -1.1447  1.1532
  794MOL0     H 7157   6.273   7.381  -0.024  2.9665 -0.3256 -1.4349
  794MOL0     H 7158   6.487   7.478   0.110  0.3714 -1.2402  1.8814
  794MOL0     H 7159   6.542   7.304   0.083 -0.3559 -0.6977 -1.9262
  794MOL0     H 7160   6.465   7.499  -0.138  0.9344 -0.4997 -0.9390
  794MOL0     H 7161   6.549   7.345  -0.153  1.3022  0.1821 -0.1764
  794MOL0     H 7162   6.650   7.597  -0.011  2.1533 -0.0543  0.3873
  794MOL0     H 7163   6.667   7.536  -0.182 -4.9170 -1.3465 -1.1058
  794MOL0     H 7164   6.758   7.421   0.085 -0.8892 -0.7135 -0.0182
  794MOL0     H 7165   6.790   7.326  -0.053 -1.2516 -0.5550  1.3079
  794MOL0     H 7166   6.909   7.602  -0.000  0.2615  1.0162 -2.4340
  794MOL0     H 7167   6.932   7.515  -0.153 -0.5495 -0.6470 -0.9654
  794MOL0     H 7168   7.023   7.378   0.110 -0.1070  0.2008  0.5704
  794MOL0     H 7169   7.064   7.349  -0.057 -1.9850  0.6293 -0.3552
  794MOL0     H 7170   6.055   7.384   0.019 -1.0531  2.3870  0.8605
  794MOL0     H 7171   5.826   7.393  -0.002 -0.0746 -2.1654 -0.7858
  794MOL0     H 7172   5.461   7.407   0.038  1.1003 -1.7895 -1.3298
  794MOL0     H 7173   5.221   7.463  -0.033  1.2923  0.1789 -0.0633
  794MOL0     H 7174   3.541   6.334   0.809  0.6809 -0.0544  0.1991
  794MOL0     H 7175   3.334   6.322   0.948  2.9929 -0.0179  1.6101
  794MOL0     H 7176   3.097   6.535   1.206 -0.0192  1.1000 -2.9611
  794MOL0     H 7177   2.915   6.551   1.408 -1.4689 -0.5345  0.7439
  794MOL0     H 7178   2.662   6.735   1.390  3.1539 -1.0409 -0.8938
  794MOL0     H 7179   2.753   6.657   1.524 -0.3946 -0.0774 -0.0578
  794MOL0     H 7180   2.552   6.752   1.601 -0.0014  0.3948 -0.6192
  794MOL0     H 7181   2.529   6.572   1.602  1.4244 -1.8133 -0.7318
  794MOL0     H 7182   2.406   6.602   1.381  2.5781 -0.1061 -0.5590
  794MOL0     H 7183   2.434   6.776   1.401  0.4359 -0.1327  0.4348
  794MOL0     H 7184   2.196   6.681   1.476 -1.0876 -0.9572  1.0145
  794MOL0     H 7185   2.285   6.579   1.590 -0.1085  0.5610 -0.2886
  794MOL0     H 7186   2.235   6.861   1.851  1.0326  0.6727  0.2843
  794MOL0     H 7187   2.617   6.478   1.132  0.7206 -1.7299 -0.6157
  794MOL0     H 7188   2.644   6.398   0.942 -0.8209  1.3969  0.5462
  794MOL0     H 7189   2.713   6.527   0.847 -0.0413  0.9037  0.9950
  794MOL0     H 7190   2.802   6.369   0.868 -1.1284 -1.6123  0.9595
  795MOL0     O 7191   0.287   5.704   9.857  0.1531 -0.0416 -0.5691
  795MOL0     C 7192   0.209   5.790   9.810 -1.1636  0.3138 -0.6599
  795MOL0     O 7193   0.214   5.923   9.824  0.5830  0.0183  0.1556
  795MOL0     C 7194   0.315   5.961   9.915 -0.2339 -0.2909  0.0889
  795MOL0     C 7195   0.289   6.017  10.040 -0.7979 -0.1865  0.5034
  795MOL0     C 7196   0.400   6.058  10.118  0.4780  0.4270  0.2628
  795MOL0     C 7197   0.529   6.061  10.067  0.1421 -0.3950 -0.0968
  795MOL0     O 7198   0.627   6.100  10.156 -0.2599  0.4966  0.8892
  795MOL0     C 7199   0.771   6.084  10.119 -0.3974  1.6152  0.1008
  795MOL0     C 7200   0.873   6.128  10.223  0.4415 -0.1558  0.3418
  795MOL0     C 7201   0.905   6.279  10.235  0.1372  0.4026 -0.1903
  795MOL0     C 7202   1.018   6.298  10.328 -0.0848  0.7377  0.2902
  795MOL0     C 7203   1.101   6.415  10.297 -0.4031  1.1736  0.7953
  795MOL0     C 7204   1.206   6.399  10.172  0.2487 -0.6362 -1.0369
  795MOL0     C 7205   1.294   6.527  10.136 -0.5266 -0.1268 -0.7478
  795MOL0     C 7206   1.389   6.562  10.249  0.2996  0.4054  0.3943
  795MOL0     N 7207   1.518   6.618  10.202  0.3091  0.0259  0.1442
  795MOL0     C 7208   1.618   6.551  10.132 -0.6270  0.3174 -0.1374
  795MOL0     C 7209   1.689   6.650  10.072 -0.2736 -0.5181  0.5386
  795MOL0     C 7210   1.809   6.640   9.979  0.0687 -0.5341 -0.4219
  795MOL0     C 7211   1.949   6.618  10.049  0.8293 -0.1139 -0.2491
  795MOL0     C 7212   2.006   6.738  10.118  0.3519  0.1395 -0.7877
  795MOL0     C 7213   2.146   6.704  10.167 -0.9717 -0.2106 -0.1220
  795MOL0     O 7214   2.237   6.685  10.058  0.5687  0.4932  0.3341
  795MOL0     C 7215   2.374   6.680  10.083 -0.7527 -0.2727  0.6858
  795MOL0     C 7216   2.455   6.792  10.032 -0.2436 -0.1841  0.4016
  795MOL0     C 7217   2.590   6.797  10.046  0.4876  0.1381 -0.1903
  795MOL0     C 7218   2.656   6.703  10.125  0.1483  0.6971  0.4275
  795MOL0     C 7219   2.800   6.711  10.164  0.7561 -0.8657 -0.2527
  795MOL0     O 7220   2.860   6.833  10.150  1.0795 -0.4264 -0.0923
  795MOL0     C 7221   2.977   6.858  10.213 -1.2760  0.3011 -0.8945
  795MOL0     C 7222   3.099   6.825  10.157 -0.0881 -0.7856 -0.0976
  795MOL0     C 7223   3.218   6.885  10.197 -1.3311  0.0845 -0.7592
  795MOL0     C 7224   3.217   6.953  10.316  0.0586  0.0859 -0.2383
  795MOL0     O 7225   3.329   6.998  10.380 -0.3039 -0.2445  0.2819
  795MOL0     C 7226   3.449   7.028  10.308  0.2211  1.0146  0.8606
  795MOL0     C 7227   3.558   7.104  10.386  0.9531  1.1344  0.5289
  795MOL0     C 7228   3.590   7.036  10.525  0.9034 -0.9127  0.8996
  795MOL0     C 7229   3.658   6.902  10.511 -0.8118  0.0034  0.3843
  795MOL0     C 7230   3.657   6.837  10.650  0.0000 -0.2893 -0.6347
  795MOL0     C 7231   3.714   6.697  10.650 -0.0236 -0.0060 -0.1084
  795MOL0     C 7232   3.725   6.646  10.798  0.3497 -1.3262  0.7010
  795MOL0     C 7233   3.725   6.493  10.819  0.5237  1.0357 -0.6355
  795MOL0    Cl 7234   3.573   6.423  10.763 -0.6278 -0.3265  0.2155
  795MOL0     C 7235   3.091   6.986  10.374 -0.2184  0.1570  0.4281
  795MOL0     C 7236   2.972   6.946  10.322  0.4396  0.6710 -0.5455
  795MOL0     O 7237   2.851   6.617  10.223  0.1244  0.0929  0.3519
  795MOL0     C 7238   2.579   6.588  10.156 -0.0549  0.1790 -0.3344
  795MOL0     C 7239   2.439   6.574  10.143  0.1195  0.6391 -0.1511
  795MOL0     N 7240   1.635   6.771  10.119 -0.1817 -1.0485 -0.2313
  795MOL0     N 7241   1.531   6.755  10.199  0.4586 -0.7302 -0.7284
  795MOL0     C 7242   0.554   6.004   9.943 -0.2566 -0.2793 -0.2333
  795MOL0     C 7243   0.448   5.956   9.860 -0.2414  0.2798  0.1329
  795MOL0     C 7244   0.098   5.754   9.717 -0.3126 -0.8105 -0.6005
  795MOL0     C 7245   0.013   5.850   9.665 -0.6537 -0.3004  0.2394
  795MOL0     C 7246  -0.101   5.813   9.593 -0.2530 -0.2741 -0.5860
  795MOL0     C 7247  -0.130   5.683   9.571 -0.8301 -0.1692 -0.2599
  795MOL0     O 7248  -0.242   5.642   9.508 -0.0360 -0.2379  0.4911
  795MOL0     C 7249  -0.367   5.677   9.571 -1.3401  0.2486 -0.3582
  795MOL0     C 7250  -0.496   5.605   9.520 -0.3715 -0.6662 -0.4858
  795MOL0     C 7251  -0.609   5.613   9.617 -0.4330 -0.0861 -0.1823
  795MOL0     C 7252  -0.649   5.763   9.650 -0.1637  0.0533 -0.3292
  795MOL0     C 7253  -0.790   5.773   9.697  0.0972 -0.1609  0.4790
  795MOL0     C 7254  -0.902   5.765   9.752  0.6392 -0.4705  0.1587
  795MOL0     C 7255  -0.035   5.591   9.607 -0.5875  0.6802 -0.5631
  795MOL0     C 7256   0.077   5.618   9.681 -0.4985  0.1708  0.1693
  795MOL0     C 7257   0.159   5.496   9.732  0.1299 -0.1044  0.3307
  795MOL0     H 7258   0.187   6.024  10.077 -1.1071 -0.0491 -0.3642
  795MOL0     H 7259   0.381   6.081  10.223 -0.3893 -0.8787  0.4094
  795MOL0     H 7260   0.776   5.975  10.113 -1.1318  1.5462  0.5525
  795MOL0     H 7261   0.798   6.132  10.025  1.7853  1.1666  0.4613
  795MOL0     H 7262   0.964   6.075  10.194  3.6226  3.2339  3.2095
  795MOL0     H 7263   0.835   6.091  10.319 -1.4003 -0.6362 -0.5178
  795MOL0     H 7264   0.820   6.339  10.267 -1.1635 -1.7328  0.5305
  795MOL0     H 7265   0.925   6.310  10.132 -1.2395 -1.4159 -1.0563
  795MOL0     H 7266   0.976   6.315  10.427 -0.4462 -0.0393  0.2795
  795MOL0     H 7267   1.074   6.204  10.327 -0.4721  0.4591 -2.0160
  795MOL0     H 7268   1.036   6.502  10.290 -0.6800  0.9627  0.7051
  795MOL0     H 7269   1.168   6.415  10.383 -1.0345  0.4360  1.3012
  795MOL0     H 7270   1.270   6.314  10.195  0.1191 -0.8070 -1.3022
  795MOL0     H 7271   1.149   6.387  10.079 -1.0661  1.5267 -0.5834
  795MOL0     H 7272   1.213   6.601  10.128  0.7143  1.2288 -1.2327
  795MOL0     H 7273   1.344   6.511  10.041  1.4122  0.2924  0.1552
  795MOL0     H 7274   1.351   6.628  10.328 -0.9171  0.3614 -0.1411
  795MOL0     H 7275   1.406   6.467  10.301  0.6049  0.4007  0.2865
  795MOL0     H 7276   1.639   6.446  10.112 -0.5835  0.3958 -0.5065
  795MOL0     H 7277   1.792   6.559   9.908 -0.6647 -1.0949  0.3716
  795MOL0     H 7278   1.818   6.735   9.925  1.6373 -0.4666 -0.0648
  795MOL0     H 7279   1.926   6.542  10.124  2.5951 -3.0653 -2.4417
  795MOL0     H 7280   2.023   6.571   9.984  1.8640  1.3776 -0.1904
  795MOL0     H 7281   1.944   6.759  10.206  0.2523  0.7837 -1.0075
  795MOL0     H 7282   2.004   6.820  10.045 -2.1470  0.8099 -0.0742
  795MOL0     H 7283   2.136   6.621  10.238  0.2679  1.9424  2.7583
  795MOL0     H 7284   2.188   6.785  10.227 -0.2098 -0.2959 -0.5406
  795MOL0     H 7285   2.404   6.868   9.974  1.4360  0.4422 -0.3104
  795MOL0     H 7286   2.641   6.883  10.004  0.9239 -1.0636 -2.2182
  795MOL0     H 7287   3.106   6.757  10.073  1.0889 -0.1640 -0.5393
  795MOL0     H 7288   3.312   6.856  10.151 -2.4879 -0.8245 -2.6782
  795MOL0     H 7289   3.490   6.933  10.272 -1.3205  0.7557 -0.3438
  795MOL0     H 7290   3.416   7.085  10.220 -2.5313  0.7184  1.6126
  795MOL0     H 7291   3.650   7.102  10.327 -0.0066  0.6496 -1.0373
  795MOL0     H 7292   3.519   7.205  10.400 -2.1649  0.1891 -0.5671
  795MOL0     H 7293   3.662   7.103  10.573 -0.0996  3.1550 -2.6636
  795MOL0     H 7294   3.500   7.021  10.585  1.4560  1.5997  2.4780
  795MOL0     H 7295   3.762   6.916  10.479 -0.8510  2.2347  1.0666
  795MOL0     H 7296   3.599   6.831  10.453  0.2965 -0.1551 -0.5890
  795MOL0     H 7297   3.554   6.827  10.686  0.2203  1.8195  0.7942
  795MOL0     H 7298   3.709   6.908  10.716  0.6452 -1.2066 -0.1413
  795MOL0     H 7299   3.656   6.630  10.585 -0.9519 -0.3968  1.0970
  795MOL0     H 7300   3.821   6.698  10.627  0.5431  1.2947  2.3458
  795MOL0     H 7301   3.636   6.688  10.845 -1.8759 -2.1101 -2.4723
  795MOL0     H 7302   3.819   6.681  10.842 -0.3813 -0.3246  1.5023
  795MOL0     H 7303   3.805   6.443  10.762  4.0393  3.2403  1.9336
  795MOL0     H 7304   3.751   6.470  10.923  1.3877  0.9345 -0.8636
  795MOL0     H 7305   3.088   7.052  10.461  1.2452 -0.6829  1.1468
  795MOL0     H 7306   2.872   6.965  10.359 -0.3193  0.6791 -2.4700
  795MOL0     H 7307   2.632   6.509  10.208  0.4552 -0.2377 -1.4804
  795MOL0     H 7308   2.378   6.495  10.186  0.3976  1.6612  2.2740
  795MOL0     H 7309   0.656   5.987   9.909 -0.4857 -5.6451  0.9306
  795MOL0     H 7310   0.458   5.916   9.760  0.2832  0.9477 -0.0912
  795MOL0     H 7311   0.028   5.953   9.694  0.0228 -0.6701  1.2871
  795MOL0     H 7312  -0.177   5.887   9.573 -0.3934 -0.4733 -0.8053
  795MOL0     H 7313  -0.385   5.785   9.565  0.0671  0.4596 -1.1448
  795MOL0     H 7314  -0.350   5.649   9.676  0.6472 -1.3814 -1.0405
  795MOL0     H 7315  -0.465   5.501   9.505  0.7354 -0.3300 -0.5938
  795MOL0     H 7316  -0.536   5.645   9.426 -2.3557 -2.4332 -0.4870
  795MOL0     H 7317  -0.561   5.562   9.701 -0.2709  1.3073  0.6037
  795MOL0     H 7318  -0.703   5.562   9.594 -2.9125  1.9496  4.1565
  795MOL0     H 7319  -0.575   5.804   9.719 -0.2659  0.7456 -0.6101
  795MOL0     H 7320  -0.631   5.811   9.553 -0.3841 -1.2148 -1.0053
  795MOL0     H 7321  -0.999   5.764   9.799 -0.3293  2.1566 -1.5370
  795MOL0     H 7322  -0.071   5.491   9.587  0.6731  0.0439  0.2349
  795MOL0     H 7323   0.262   5.509   9.698 -0.3427  1.6671 -0.5963
  795MOL0     H 7324   0.156   5.493   9.841  1.5116  0.4533  0.3951
  795MOL0     H 7325   0.107   5.404   9.702 -1.1005  0.8254 -0.5504
  796MOL0     O 7326   3.422   0.265   1.516 -0.5003  0.1096  0.7148
  796MOL0     C 7327   3.343   0.225   1.603 -0.6929 -0.5898 -0.4818
  796MOL0     O 7328   3.350   0.096   1.661  0.2501  1.0156  0.1036
  796MOL0     C 7329   3.467   0.029   1.644 -0.3748 -0.1322 -0.5950
  796MOL0     C 7330   3.496  -0.033   1.521 -0.9070  0.1036  0.6901
  796MOL0     C 7331   3.621  -0.099   1.499  0.0798 -0.5154 -0.6544
  796MOL0     C 7332   3.709  -0.109   1.605  1.2630  0.5106 -0.5364
  796MOL0     O 7333   3.820  -0.188   1.605  0.3056  0.3803 -0.9883
  796MOL0     C 7334   3.938  -0.111   1.580  0.3090  0.0319  0.9999
  796MOL0     C 7335   4.062  -0.197   1.600  0.1987 -0.4962 -0.0106
  796MOL0     C 7336   4.193  -0.117   1.618  1.0438 -0.7494 -0.0536
  796MOL0     C 7337   4.310  -0.181   1.700  0.0239  0.0789  0.3113
  796MOL0     C 7338   4.433  -0.094   1.707 -0.6856  0.3439 -0.4755
  796MOL0     C 7339   4.529  -0.141   1.812 -0.2923 -0.4787 -0.4684
  796MOL0     C 7340   4.676  -0.122   1.769  0.0361 -0.1265  0.5025
  796MOL0     C 7341   4.778  -0.145   1.878  0.0641  0.7646 -0.3282
  796MOL0     N 7342   4.911  -0.085   1.840  1.0082 -0.6280  0.0264
  796MOL0     C 7343   4.992  -0.127   1.739  0.5172 -0.4513 -0.3882
  796MOL0     C 7344   5.093  -0.043   1.731  0.2596  0.0501 -0.1374
  796MOL0     C 7345   5.207  -0.060   1.636 -0.5445  0.1049  0.1905
  796MOL0     C 7346   5.244   0.076   1.566  0.3207  1.1373  1.0026
  796MOL0     C 7347   5.349   0.144   1.647  0.2069  0.4001  0.1210
  796MOL0     C 7348   5.395   0.277   1.589  1.1871 -0.6996  0.6680
  796MOL0     O 7349   5.487   0.268   1.479 -0.0898 -0.5639  0.6240
  796MOL0     C 7350   5.604   0.331   1.489 -0.0419 -0.1755  0.8004
  796MOL0     C 7351   5.603   0.465   1.527  0.3915 -0.0639 -0.6190
  796MOL0     C 7352   5.721   0.535   1.546 -0.4741  0.5656  0.3225
  796MOL0     C 7353   5.847   0.467   1.531 -0.5409  0.4958  0.1251
  796MOL0     C 7354   5.976   0.528   1.575  0.1654  0.5378  0.1002
  796MOL0     O 7355   6.091   0.448   1.564 -0.1806  0.4005 -0.1288
  796MOL0     C 7356   6.214   0.507   1.564 -0.2674  0.5114 -0.0832
  796MOL0     C 7357   6.290   0.471   1.450 -0.0180  0.5850 -0.0549
  796MOL0     C 7358   6.423   0.513   1.428  0.0282 -0.0899  0.1090
  796MOL0     C 7359   6.479   0.606   1.515  0.4328  0.1749 -0.0915
  796MOL0     O 7360   6.605   0.662   1.504  0.2976  0.5545  0.1807
  796MOL0     C 7361   6.665   0.673   1.378 -0.2722 -0.8918  0.0915
  796MOL0     C 7362   6.818   0.698   1.397 -0.5970  0.8047 -0.1941
  796MOL0     C 7363   6.838   0.834   1.462  0.2962 -0.1901 -0.3899
  796MOL0     C 7364   6.984   0.871   1.460 -0.5507  0.0392  0.6447
  796MOL0     C 7365   7.070   0.833   1.581  0.7273 -0.1223  0.9039
  796MOL0     C 7366   7.211   0.900   1.594  0.5864  0.4672 -0.0427
  796MOL0     C 7367   7.308   0.814   1.513 -0.2594  1.0940  0.2420
  796MOL0     C 7368   7.451   0.853   1.530  0.1032  0.1732  0.2011
  796MOL0    Cl 7369   7.514   0.835   1.698 -0.2543 -0.0758 -0.0956
  796MOL0     C 7370   6.407   0.641   1.629  0.2295  0.3744  0.0446
  796MOL0     C 7371   6.275   0.596   1.658 -0.0957  1.0631 -0.0076
  796MOL0     O 7372   5.973   0.648   1.609  0.2960  0.4632  0.1618
  796MOL0     C 7373   5.843   0.328   1.498 -0.1919 -0.2754 -0.1164
  796MOL0     C 7374   5.719   0.261   1.486  0.8790  0.3020 -0.5324
  796MOL0     N 7375   5.064   0.064   1.819  0.8326 -0.1207  0.5659
  796MOL0     N 7376   4.953   0.034   1.881  0.1823  0.1556  1.2302
  796MOL0     C 7377   3.679  -0.059   1.726 -0.1976 -0.1758 -0.6547
  796MOL0     C 7378   3.551  -0.001   1.748 -0.6989 -0.0393  0.0025
  796MOL0     C 7379   3.239   0.316   1.660 -0.8884  0.5588  0.3550
  796MOL0     C 7380   3.278   0.455   1.683  0.0065  0.6750  0.0734
  796MOL0     C 7381   3.184   0.553   1.697  0.7681  0.0523  0.0418
  796MOL0     C 7382   3.045   0.522   1.720 -0.0429 -0.1744 -0.2684
  796MOL0     O 7383   2.961   0.621   1.766  0.5225 -0.0391  0.0109
  796MOL0     C 7384   2.873   0.581   1.871  0.4147  0.5660  0.6488
  796MOL0     C 7385   2.793   0.692   1.944 -0.2063 -0.2638 -0.2204
  796MOL0     C 7386   2.654   0.633   1.980  0.0518  0.0559  0.1373
  796MOL0     C 7387   2.590   0.736   2.076  0.5951  0.2446 -0.7062
  796MOL0     C 7388   2.467   0.686   2.145  1.5283 -0.1561  0.8285
  796MOL0     C 7389   2.355   0.662   2.189  0.3328 -0.6086 -0.2692
  796MOL0     C 7390   3.010   0.389   1.703 -0.0193  0.0884  0.4031
  796MOL0     C 7391   3.103   0.283   1.673 -0.3448  0.8945  0.0344
  796MOL0     C 7392   3.042   0.147   1.635  0.0308 -0.6965 -0.1156
  796MOL0     H 7393   3.418  -0.035   1.445 -0.5580  2.6793  0.1835
  796MOL0     H 7394   3.648  -0.145   1.404  0.4714  1.1243 -1.3700
  796MOL0     H 7395   3.923  -0.078   1.476 -0.0624  0.2824  1.1291
  796MOL0     H 7396   3.949  -0.025   1.647  2.0075  0.4837  0.1934
  796MOL0     H 7397   4.068  -0.280   1.529 -1.0070 -1.1135  0.5849
  796MOL0     H 7398   4.050  -0.246   1.697  1.5322 -1.9104 -0.5089
  796MOL0     H 7399   4.163  -0.023   1.667 -0.0865  2.2001 -5.5137
  796MOL0     H 7400   4.227  -0.069   1.526 -2.9878  0.4074 -1.1870
  796MOL0     H 7401   4.271  -0.186   1.802 -0.9034  1.8248  0.0955
  796MOL0     H 7402   4.353  -0.273   1.661  2.8608  0.5326  2.1341
  796MOL0     H 7403   4.472  -0.093   1.604 -1.3409  1.6327 -0.7352
  796MOL0     H 7404   4.403   0.008   1.730  0.1607  1.2117 -2.8564
  796MOL0     H 7405   4.519  -0.071   1.896  0.8755  1.2627 -1.7397
  796MOL0     H 7406   4.524  -0.244   1.848  2.4526 -1.4543 -2.5911
  796MOL0     H 7407   4.691  -0.019   1.736  2.4744 -0.4394  0.3924
  796MOL0     H 7408   4.702  -0.187   1.684 -2.3017 -0.8568  0.2899
  796MOL0     H 7409   4.744  -0.101   1.973  1.2269 -0.8495  0.9068
  796MOL0     H 7410   4.785  -0.253   1.893 -2.4561  0.6456  0.5053
  796MOL0     H 7411   4.972  -0.219   1.686 -0.1376 -0.6991  0.2713
  796MOL0     H 7412   5.296  -0.103   1.683 -0.1580 -0.7727 -1.2579
  796MOL0     H 7413   5.170  -0.127   1.558  2.4203  1.5048 -2.6769
  796MOL0     H 7414   5.292   0.046   1.472  1.0444  3.5157  0.5466
  796MOL0     H 7415   5.160   0.143   1.547  0.0291  1.4948  3.2350
  796MOL0     H 7416   5.437   0.080   1.655 -2.2039 -3.2201  0.0063
  796MOL0     H 7417   5.305   0.169   1.744  0.4916  1.3144  0.0205
  796MOL0     H 7418   5.427   0.335   1.676  0.7913  0.0099  0.3479
  796MOL0     H 7419   5.311   0.331   1.544  0.9111  0.8923  2.9461
  796MOL0     H 7420   5.511   0.522   1.542  0.4872 -0.0090 -0.2340
  796MOL0     H 7421   5.722   0.638   1.578  0.4322  1.0684 -1.2058
  796MOL0     H 7422   6.244   0.412   1.372 -0.3889 -1.2233  1.4648
  796MOL0     H 7423   6.482   0.473   1.346  0.7439 -1.3340  1.1960
  796MOL0     H 7424   6.656   0.578   1.323  1.4347 -2.1697  1.8580
  796MOL0     H 7425   6.622   0.758   1.324  0.9305 -0.4334 -0.1690
  796MOL0     H 7426   6.870   0.618   1.451  2.5752  0.8297 -2.8615
  796MOL0     H 7427   6.867   0.704   1.300 -0.2290 -1.3695 -0.1783
  796MOL0     H 7428   6.783   0.916   1.414  0.1048 -0.2452 -0.2697
  796MOL0     H 7429   6.806   0.816   1.565  0.3539  0.7931 -0.1824
  796MOL0     H 7430   6.983   0.981   1.464  2.3374  0.1252  1.4907
  796MOL0     H 7431   7.040   0.841   1.371  2.0213 -0.3822  2.2837
  796MOL0     H 7432   7.080   0.726   1.597  1.1809 -0.2674 -0.2620
  796MOL0     H 7433   7.018   0.892   1.657  2.5006  5.9372 -1.9557
  796MOL0     H 7434   7.193   1.002   1.558 -3.4760 -0.0322  0.0847
  796MOL0     H 7435   7.245   0.903   1.698 -0.3328 -0.2258  0.2899
  796MOL0     H 7436   7.292   0.814   1.405  3.0530  0.5656 -0.3477
  796MOL0     H 7437   7.308   0.709   1.544  0.2882  0.7929 -0.7212
  796MOL0     H 7438   7.516   0.791   1.466  2.6318  0.1930  2.5599
  796MOL0     H 7439   7.469   0.955   1.494 -2.6921  0.7616  0.2786
  796MOL0     H 7440   6.457   0.695   1.709  0.7329 -2.5868  1.8717
  796MOL0     H 7441   6.210   0.642   1.733 -0.7206  0.3325 -0.0880
  796MOL0     H 7442   5.940   0.280   1.489  1.1941  2.4809 -0.9552
  796MOL0     H 7443   5.728   0.153   1.474  0.4382  0.0464  1.1863
  796MOL0     H 7444   3.749  -0.072   1.808 -2.5022 -1.2821  1.2380
  796MOL0     H 7445   3.530   0.041   1.846 -0.0343  0.4067 -0.0425
  796MOL0     H 7446   3.386   0.461   1.675  0.4584 -0.3493  3.5454
  796MOL0     H 7447   3.221   0.655   1.706  0.7601  0.5156 -3.6273
  796MOL0     H 7448   2.919   0.513   1.944 -2.3660 -0.8315  1.2281
  796MOL0     H 7449   2.799   0.529   1.810  0.4107  1.3104  0.0014
  796MOL0     H 7450   2.800   0.792   1.899 -0.6551  1.1922  2.6659
  796MOL0     H 7451   2.859   0.694   2.032  0.2342  2.1037 -0.5349
  796MOL0     H 7452   2.666   0.544   2.042 -0.4814  0.9052  1.5199
  796MOL0     H 7453   2.588   0.607   1.897  0.6719 -2.0825  0.2725
  796MOL0     H 7454   2.661   0.758   2.156  0.4427 -2.8743  0.4278
  796MOL0     H 7455   2.564   0.823   2.013 -0.3465 -1.6260 -3.0647
  796MOL0     H 7456   2.269   0.597   2.192  1.0721 -1.7929 -2.6121
  796MOL0     H 7457   2.904   0.366   1.712 -0.2902  0.6788 -1.0062
  796MOL0     H 7458   2.972   0.113   1.711  0.4167 -0.6006  0.2835
  796MOL0     H 7459   2.986   0.172   1.544  1.0801  0.4866 -0.4636
  796MOL0     H 7460   3.121   0.074   1.616 -1.0177 -1.0056 -4.5575
  797MOL0     O 7461   9.609   3.869   3.414  0.1464  0.6244  0.0644
  797MOL0     C 7462   9.600   3.864   3.292  1.1079 -0.6770  0.2812
  797MOL0     O 7463   9.480   3.869   3.219 -0.4861  0.1544 -0.4974
  797MOL0     C 7464   9.373   3.900   3.298  0.1378  0.6587  0.3694
  797MOL0     C 7465   9.262   3.804   3.308 -0.6292  0.7370 -0.1931
  797MOL0     C 7466   9.164   3.833   3.395  0.2081 -0.5308  0.4175
  797MOL0     C 7467   9.164   3.952   3.464  1.5790  0.1090  0.0606
  797MOL0     O 7468   9.060   3.962   3.553 -0.2505 -0.0774 -0.2285
  797MOL0     C 7469   8.941   4.010   3.499 -0.7588 -0.0234  0.4335
  797MOL0     C 7470   8.859   4.061   3.621 -0.4389 -0.5322 -0.1546
  797MOL0     C 7471   8.796   3.958   3.716 -0.0064 -0.2145  0.4851
  797MOL0     C 7472   8.706   4.040   3.822 -0.1085 -0.4319  0.0103
  797MOL0     C 7473   8.658   3.955   3.942 -0.5085  0.2425 -0.4719
  797MOL0     C 7474   8.558   3.845   3.901  0.4795  0.1091  0.3150
  797MOL0     C 7475   8.504   3.767   4.017  0.3975  0.5247  0.3856
  797MOL0     C 7476   8.410   3.669   3.962 -0.1299 -1.0703  0.1210
  797MOL0     N 7477   8.309   3.633   4.055  0.7463 -1.0805  0.0425
  797MOL0     C 7478   8.188   3.703   4.070  0.1601  0.4541 -0.3168
  797MOL0     C 7479   8.116   3.629   4.154  0.2558  0.1335  0.8482
  797MOL0     C 7480   7.987   3.664   4.216 -1.3157 -0.4111  0.7153
  797MOL0     C 7481   8.010   3.782   4.305 -0.2552  0.0961 -0.2967
  797MOL0     C 7482   8.108   3.741   4.423  0.5380 -0.6828  0.1880
  797MOL0     C 7483   8.127   3.867   4.506 -0.6646 -0.4194  1.4202
  797MOL0     O 7484   8.185   3.976   4.432 -1.2378  0.0723  0.0811
  797MOL0     C 7485   8.319   3.965   4.381  0.6711  1.3959 -0.1241
  797MOL0     C 7486   8.399   3.858   4.417 -0.3347  0.2819 -0.5513
  797MOL0     C 7487   8.536   3.866   4.382 -0.3247 -0.0286  0.3215
  797MOL0     C 7488   8.585   3.971   4.316 -0.2179 -0.0191  0.1365
  797MOL0     C 7489   8.733   3.973   4.284 -0.1282 -0.1398 -0.0156
  797MOL0     O 7490   8.792   4.097   4.292 -0.4495 -0.2439  0.0165
  797MOL0     C 7491   8.925   4.107   4.246  0.6383 -0.2075 -1.2353
  797MOL0     C 7492   9.016   4.161   4.333  0.0171 -0.2202 -0.1885
  797MOL0     C 7493   9.147   4.189   4.291 -0.5069 -0.1464 -0.6980
  797MOL0     C 7494   9.180   4.171   4.160  0.1120 -0.2626  0.7783
  797MOL0     O 7495   9.306   4.191   4.113  0.5873 -0.1455  0.0380
  797MOL0     C 7496   9.406   4.096   4.158  0.1220 -0.1688 -0.6875
  797MOL0     C 7497   9.539   4.164   4.153 -0.0224 -0.0265  0.1510
  797MOL0     C 7498   9.650   4.070   4.188 -0.3075  0.4837 -0.4294
  797MOL0     C 7499   9.782   4.140   4.182 -0.9642  0.4841  0.4070
  797MOL0     C 7500   9.897   4.052   4.232 -0.5906 -0.0548 -0.2452
  797MOL0     C 7501  10.020   4.123   4.276  0.1590 -0.1872 -0.5421
  797MOL0     C 7502  10.086   4.192   4.159  0.5427 -0.2736 -0.2064
  797MOL0     C 7503  10.216   4.258   4.215 -0.9653  0.1171 -0.1161
  797MOL0    Cl 7504  10.341   4.129   4.253  0.6479 -0.4184  0.1277
  797MOL0     C 7505   9.085   4.116   4.070 -0.4984 -0.8397  0.5447
  797MOL0     C 7506   8.954   4.090   4.113  0.7649 -0.5205 -0.6242
  797MOL0     O 7507   8.791   3.868   4.255 -0.1598 -0.3067  0.0614
  797MOL0     C 7508   8.506   4.076   4.278  0.2196 -0.3781  0.0596
  797MOL0     C 7509   8.372   4.074   4.316 -0.1267  0.7116  0.1642
  797MOL0     N 7510   8.191   3.528   4.199  1.0427 -0.6672  0.2962
  797MOL0     N 7511   8.306   3.532   4.144  0.5379 -0.1961  0.1187
  797MOL0     C 7512   9.262   4.046   3.449 -0.9817 -0.1428  1.2319
  797MOL0     C 7513   9.370   4.024   3.362  0.7210 -0.2609  1.0405
  797MOL0     C 7514   9.728   3.866   3.218  1.3055 -0.1465 -0.4271
  797MOL0     C 7515   9.737   3.787   3.099  1.0392  0.6794 -0.3064
  797MOL0     C 7516   9.858   3.775   3.032  0.1491 -0.3532  0.1136
  797MOL0     C 7517   9.965   3.850   3.071 -0.1215  0.0602  0.3020
  797MOL0     O 7518  10.087   3.867   3.012 -0.3903 -0.3959  0.0258
  797MOL0     C 7519  10.117   3.772   2.909 -0.0827  0.0212  0.6771
  797MOL0     C 7520  10.149   3.631   2.959 -0.2999  0.1659  0.0809
  797MOL0     C 7521  10.267   3.557   2.883 -0.6967 -0.5553 -0.0562
  797MOL0     C 7522  10.240   3.549   2.739  0.2321  0.3904  0.3541
  797MOL0     C 7523  10.320   3.444   2.677  0.0380  0.2030  0.1580
  797MOL0     C 7524  10.387   3.364   2.617  0.5151 -0.5549  0.1846
  797MOL0     C 7525   9.957   3.932   3.179 -0.3332 -0.7928 -0.2749
  797MOL0     C 7526   9.839   3.945   3.255  0.0625 -0.7698  0.2556
  797MOL0     C 7527   9.819   4.057   3.357  0.2097 -0.5405  0.3574
  797MOL0     H 7528   9.282   3.710   3.257  0.0499 -1.3034  3.5039
  797MOL0     H 7529   9.081   3.763   3.402  0.6602 -1.4297 -2.1888
  797MOL0     H 7530   8.964   4.084   3.421 -1.0645 -1.4878 -1.1106
  797MOL0     H 7531   8.887   3.933   3.443 -0.7030  0.3594 -0.1612
  797MOL0     H 7532   8.771   4.105   3.572  0.3083 -0.1417 -1.1883
  797MOL0     H 7533   8.925   4.132   3.671 -0.9220 -0.9870  1.1594
  797MOL0     H 7534   8.885   3.911   3.761  1.8159  0.5648 -2.1058
  797MOL0     H 7535   8.745   3.871   3.674  1.8423 -1.0787 -0.0837
  797MOL0     H 7536   8.764   4.121   3.866 -3.1643  1.1958  1.3891
  797MOL0     H 7537   8.616   4.080   3.775  1.1909  0.4220 -1.8537
  797MOL0     H 7538   8.747   3.919   3.994 -0.4052  0.9457 -0.1429
  797MOL0     H 7539   8.614   4.010   4.026 -0.6983 -0.3237 -0.1929
  797MOL0     H 7540   8.471   3.888   3.851 -1.0068 -2.2287  0.7741
  797MOL0     H 7541   8.601   3.774   3.829  0.6132 -1.6310  2.0316
  797MOL0     H 7542   8.448   3.827   4.088 -0.1848  0.5727 -0.1057
  797MOL0     H 7543   8.584   3.720   4.075 -1.1200 -0.1044  2.0416
  797MOL0     H 7544   8.370   3.695   3.864 -0.5033 -0.2267  0.4772
  797MOL0     H 7545   8.470   3.582   3.935  1.0198  0.0913 -1.2047
  797MOL0     H 7546   8.152   3.793   4.021 -3.2381 -0.1201  0.8815
  797MOL0     H 7547   7.921   3.700   4.137 -0.4426  2.2421  1.0915
  797MOL0     H 7548   7.945   3.580   4.272 -0.5513 -1.0096  0.4247
  797MOL0     H 7549   8.049   3.866   4.247  0.7532  0.4448  0.8523
  797MOL0     H 7550   7.916   3.812   4.353 -0.3691 -0.0536 -0.4213
  797MOL0     H 7551   8.197   3.694   4.381 -1.8167 -4.2811 -1.3068
  797MOL0     H 7552   8.065   3.662   4.486  1.3507  0.3910  2.1606
  797MOL0     H 7553   8.182   3.834   4.595 -3.3535 -3.2889  2.2104
  797MOL0     H 7554   8.033   3.913   4.538 -0.2290  2.3016 -0.8044
  797MOL0     H 7555   8.377   3.772   4.478  3.8337  0.6744  1.9274
  797MOL0     H 7556   8.609   3.790   4.409  0.9180 -0.2552 -3.1017
  797MOL0     H 7557   8.986   4.170   4.437  2.1259 -0.3901  0.4716
  797MOL0     H 7558   9.225   4.222   4.359 -0.8521 -2.1566  0.7975
  797MOL0     H 7559   9.393   4.057   4.259  1.0684 -1.6864 -1.1188
  797MOL0     H 7560   9.409   4.011   4.089 -1.9826 -1.6629  0.9184
  797MOL0     H 7561   9.548   4.185   4.046  1.6365 -0.5829  0.1445
  797MOL0     H 7562   9.542   4.263   4.197 -3.2951  1.0123 -1.6875
  797MOL0     H 7563   9.643   4.039   4.293  0.0221 -0.2016 -0.6012
  797MOL0     H 7564   9.651   3.985   4.119 -0.7542  0.5243 -0.4849
  797MOL0     H 7565   9.772   4.234   4.238 -2.5039  0.0747  0.8604
  797MOL0     H 7566   9.814   4.165   4.080  0.7288  0.0810  0.8032
  797MOL0     H 7567   9.919   3.984   4.149 -1.8562 -1.2902  0.3730
  797MOL0     H 7568   9.858   3.995   4.317  1.0144 -1.8044 -0.6278
  797MOL0     H 7569   9.994   4.184   4.364 -0.4910 -1.6278  0.2957
  797MOL0     H 7570  10.086   4.043   4.308  1.4082  1.5734  1.6034
  797MOL0     H 7571  10.012   4.266   4.125 -0.2704 -1.7188 -1.7145
  797MOL0     H 7572  10.104   4.127   4.073  2.2229  0.9003 -0.8134
  797MOL0     H 7573  10.250   4.337   4.147 -0.2713  0.0065  0.0940
  797MOL0     H 7574  10.204   4.313   4.308  0.4022  1.5363 -0.7253
  797MOL0     H 7575   9.116   4.104   3.967 -3.0880  1.1196 -0.5643
  797MOL0     H 7576   8.867   4.071   4.051 -1.0604 -1.0782  1.9174
  797MOL0     H 7577   8.529   4.164   4.218 -3.3275  0.1670 -0.7418
  797MOL0     H 7578   8.309   4.159   4.292 -1.8409 -0.1707  1.2685
  797MOL0     H 7579   9.254   4.136   3.509  0.7027  0.9269 -0.0416
  797MOL0     H 7580   9.446   4.101   3.354 -1.4729  1.9017 -1.2134
  797MOL0     H 7581   9.657   3.714   3.093  1.3879  0.1762  0.8232
  797MOL0     H 7582   9.871   3.706   2.949  1.2685 -0.7761  0.6258
  797MOL0     H 7583  10.209   3.803   2.859 -0.4898 -0.9716 -0.7364
  797MOL0     H 7584  10.049   3.773   2.824  0.6561  1.9316  0.0372
  797MOL0     H 7585  10.054   3.580   2.944 -1.8075  1.7614  3.2205
  797MOL0     H 7586  10.171   3.624   3.066 -1.4889 -2.7437  0.2161
  797MOL0     H 7587  10.271   3.455   2.922 -0.1165  0.3335  2.3860
  797MOL0     H 7588  10.361   3.605   2.911 -1.7284  1.0497  0.7850
  797MOL0     H 7589  10.136   3.517   2.726  0.4442 -1.2058  2.1057
  797MOL0     H 7590  10.279   3.637   2.687  0.8671 -0.2173 -0.2240
  797MOL0     H 7591  10.441   3.293   2.558  0.0111 -2.2211  1.6432
  797MOL0     H 7592  10.048   3.986   3.203 -0.4837 -0.9518  0.7236
  797MOL0     H 7593   9.842   4.018   3.457 -1.2785  0.3221  1.0686
  797MOL0     H 7594   9.881   4.145   3.337  1.2865 -1.4023 -0.2373
  797MOL0     H 7595   9.718   4.099   3.357 -0.0483 -0.7102 -4.0003
  798MOL0     O 7596  11.295   1.951   4.975  0.6636  0.5855  0.0928
  798MOL0     C 7597  11.286   1.854   5.049  0.4793  0.1276 -0.7834
  798MOL0     O 7598  11.310   1.857   5.184  0.6164 -0.6338  0.7262
  798MOL0     C 7599  11.404   1.950   5.241 -0.8434 -0.1577 -0.0888
  798MOL0     C 7600  11.510   2.011   5.167 -0.2347 -0.2714 -0.4295
  798MOL0     C 7601  11.613   2.086   5.233 -0.1697 -0.4162  0.4164
  798MOL0     C 7602  11.612   2.096   5.372 -0.7211 -0.0777 -0.2773
  798MOL0     O 7603  11.705   2.161   5.448 -0.0287  0.7415  0.3778
  798MOL0     C 7604  11.819   2.229   5.393 -0.1544  0.1977  0.1846
  798MOL0     C 7605  11.941   2.136   5.359 -0.1463 -0.4233 -0.8395
  798MOL0     C 7606  12.048   2.210   5.288 -0.2101  0.0862 -1.0636
  798MOL0     C 7607  12.175   2.127   5.285  0.3844  0.0463  0.1118
  798MOL0     C 7608  12.306   2.205   5.319 -0.8617  0.0024 -0.3951
  798MOL0     C 7609  12.325   2.281   5.452 -0.6572 -0.4789 -1.0595
  798MOL0     C 7610  12.448   2.377   5.446  0.1496  1.1454 -0.2408
  798MOL0     C 7611  12.455   2.460   5.567 -0.2620 -0.5590 -0.3772
  798MOL0     N 7612  12.476   2.383   5.696 -0.4236  0.1797  0.1141
  798MOL0     C 7613  12.566   2.277   5.714 -0.2866 -0.0141 -0.4413
  798MOL0     C 7614  12.540   2.235   5.840 -0.4178  1.1301 -1.2887
  798MOL0     C 7615  12.609   2.118   5.920 -0.2417 -0.3702  0.3867
  798MOL0     C 7616  12.740   2.162   5.972 -0.2925  0.2971 -0.5520
  798MOL0     C 7617  12.808   2.042   6.025  1.0301  0.0930 -0.6172
  798MOL0     C 7618  12.915   2.088   6.120 -0.5206  1.0985 -0.4492
  798MOL0     O 7619  12.993   1.971   6.163 -0.1591 -0.4391 -0.3334
  798MOL0     C 7620  13.087   1.996   6.260  0.7139  0.0351  0.1365
  798MOL0     C 7621  13.153   2.114   6.263  0.3718 -0.6587 -0.3366
  798MOL0     C 7622  13.255   2.139   6.360  0.8778 -0.1233  0.7753
  798MOL0     C 7623  13.281   2.045   6.459  0.2925  0.0647  1.2529
  798MOL0     C 7624  13.369   2.075   6.569 -1.1844 -0.2984  0.0272
  798MOL0     O 7625  13.470   2.167   6.542  0.2385  0.6732 -0.2575
  798MOL0     C 7626  13.567   2.180   6.635  0.1520 -0.4609 -0.3372
  798MOL0     C 7627  13.691   2.129   6.621  0.3813 -0.0011 -0.0398
  798MOL0     C 7628  13.792   2.155   6.716 -1.1336 -0.7550  0.0084
  798MOL0     C 7629  13.770   2.253   6.818  0.1923  0.6391  0.2693
  798MOL0     O 7630  13.860   2.296   6.911 -0.5135  0.3622  0.4978
  798MOL0     C 7631  13.910   2.202   7.012  0.0263  0.5911 -0.7321
  798MOL0     C 7632  14.057   2.233   7.054 -0.0761  0.5386 -0.0967
  798MOL0     C 7633  14.152   2.202   6.942 -0.3164 -0.6773 -0.2587
  798MOL0     C 7634  14.299   2.251   6.956  0.0515  0.0367 -0.8186
  798MOL0     C 7635  14.390   2.196   6.845 -0.2227 -0.6363 -0.4290
  798MOL0     C 7636  14.540   2.216   6.881  0.0376 -0.2483  0.1355
  798MOL0     C 7637  14.626   2.180   6.764  0.2106 -0.1066  0.3943
  798MOL0     C 7638  14.770   2.203   6.806  0.2394  0.7282  0.3070
  798MOL0    Cl 7639  14.869   2.150   6.672  0.7901  0.0575 -0.2351
  798MOL0     C 7640  13.647   2.311   6.817  0.4929 -0.0279  0.1716
  798MOL0     C 7641  13.544   2.272   6.732  0.0264 -0.6701 -0.3465
  798MOL0     O 7642  13.360   2.010   6.669 -0.2193  0.8628 -0.6046
  798MOL0     C 7643  13.209   1.919   6.458 -0.2804  0.1186 -0.7454
  798MOL0     C 7644  13.115   1.903   6.355 -0.4746  0.3081  0.3679
  798MOL0     N 7645  12.435   2.303   5.891  1.0540 -0.2389 -0.8293
  798MOL0     N 7646  12.401   2.396   5.803  0.2786  0.0018 -0.7651
  798MOL0     C 7647  11.508   2.041   5.442 -1.1335  0.0226  0.4435
  798MOL0     C 7648  11.410   1.964   5.377  0.4588  1.1351  0.4942
  798MOL0     C 7649  11.238   1.726   4.996 -0.6039 -0.3586  0.0898
  798MOL0     C 7650  11.166   1.641   5.076 -0.6294  1.0357 -0.3714
  798MOL0     C 7651  11.132   1.514   5.041  0.2883 -0.3272  0.1176
  798MOL0     C 7652  11.143   1.477   4.911 -0.0593  0.1785 -0.0025
  798MOL0     O 7653  11.109   1.344   4.883 -0.2440  0.2951 -0.5216
  798MOL0     C 7654  11.148   1.283   4.756 -0.4614 -0.3167 -0.3618
  798MOL0     C 7655  11.061   1.160   4.733  0.0386  0.2392  0.1222
  798MOL0     C 7656  11.058   1.053   4.852  0.4311 -0.2287  0.7432
  798MOL0     C 7657  10.951   0.941   4.810 -0.8115  0.6531 -0.2057
  798MOL0     C 7658  10.958   0.823   4.895 -0.0070 -0.9066  0.1455
  798MOL0     C 7659  10.954   0.733   4.974  0.0293  0.2848  0.0987
  798MOL0     C 7660  11.182   1.569   4.815  0.3160  0.2830 -0.9691
  798MOL0     C 7661  11.246   1.687   4.858 -0.1490  0.5843  0.1130
  798MOL0     C 7662  11.292   1.783   4.746 -0.7913 -0.6973  0.0994
  798MOL0     H 7663  11.506   2.017   5.059 -0.3695  0.9143 -0.3741
  798MOL0     H 7664  11.701   2.126   5.185 -0.9423  1.5994  0.5590
  798MOL0     H 7665  11.798   2.303   5.315  0.5423  0.5791  0.3528
  798MOL0     H 7666  11.865   2.289   5.471  3.3653  0.0622 -1.6096
  798MOL0     H 7667  11.904   2.043   5.314 -0.2339 -0.3210 -0.9777
  798MOL0     H 7668  11.975   2.111   5.460 -1.8833 -1.2570 -0.4152
  798MOL0     H 7669  12.069   2.312   5.323 -1.3334 -0.2448  0.7336
  798MOL0     H 7670  12.012   2.227   5.186 -0.5650 -0.2166 -0.9887
  798MOL0     H 7671  12.173   2.044   5.356  0.1834  1.1964  1.4851
  798MOL0     H 7672  12.187   2.088   5.183 -1.5683 -0.3408 -0.0084
  798MOL0     H 7673  12.382   2.126   5.319 -0.4998  0.1678  3.4290
  798MOL0     H 7674  12.320   2.271   5.232  2.1178 -0.1849 -0.1570
  798MOL0     H 7675  12.232   2.338   5.465 -0.1022  0.3828 -0.7714
  798MOL0     H 7676  12.336   2.214   5.537  0.0679 -0.0554 -0.8127
  798MOL0     H 7677  12.438   2.443   5.359 -0.7972  2.1923  0.6353
  798MOL0     H 7678  12.546   2.330   5.447  0.8137  2.1842  4.0686
  798MOL0     H 7679  12.540   2.526   5.546 -0.1064 -0.7930 -0.4819
  798MOL0     H 7680  12.367   2.526   5.572 -1.4360 -2.0960  0.0112
  798MOL0     H 7681  12.618   2.222   5.636  0.9826 -1.1819  1.1569
  798MOL0     H 7682  12.549   2.096   6.009 -0.7439 -3.3132 -0.5852
  798MOL0     H 7683  12.614   2.026   5.860 -0.4910 -1.0222  1.3468
  798MOL0     H 7684  12.806   2.210   5.899 -0.1342  0.0049 -0.6044
  798MOL0     H 7685  12.722   2.236   6.050 -1.9296 -0.8613  0.2132
  798MOL0     H 7686  12.842   1.974   5.947 -0.0251 -0.9918 -0.1808
  798MOL0     H 7687  12.744   1.992   6.099 -0.0075  4.5045  1.7942
  798MOL0     H 7688  12.869   2.142   6.203  0.1713  0.7099  0.1987
  798MOL0     H 7689  12.987   2.147   6.064  0.7082 -0.2530 -0.3527
  798MOL0     H 7690  13.134   2.196   6.193 -2.6526 -0.4456  0.6016
  798MOL0     H 7691  13.309   2.233   6.350 -0.3898  0.8344  2.3819
  798MOL0     H 7692  13.712   2.064   6.537 -2.3481 -0.0857 -0.7477
  798MOL0     H 7693  13.893   2.119   6.703  0.9798  4.5512 -0.7524
  798MOL0     H 7694  13.845   2.200   7.100  1.0252  0.9320  0.0324
  798MOL0     H 7695  13.915   2.100   6.973  1.0897 -0.2205  1.3894
  798MOL0     H 7696  14.060   2.336   7.090  1.0001  0.1014  1.1366
  798MOL0     H 7697  14.080   2.166   7.138  0.9639  2.3026  1.0927
  798MOL0     H 7698  14.158   2.095   6.924 -0.4005 -0.5857 -0.8460
  798MOL0     H 7699  14.118   2.247   6.848  0.8957 -0.6252 -0.6887
  798MOL0     H 7700  14.346   2.217   7.049 -1.2621 -0.8672 -0.4559
  798MOL0     H 7701  14.303   2.361   6.960 -0.2589  0.0401  2.4176
  798MOL0     H 7702  14.371   2.250   6.752 -1.8975 -0.6637 -0.1243
  798MOL0     H 7703  14.362   2.094   6.821  0.8816 -1.0539 -0.0102
  798MOL0     H 7704  14.561   2.321   6.902  2.0336 -0.3649 -1.0130
  798MOL0     H 7705  14.562   2.159   6.972  1.3262  2.0647  1.3488
  798MOL0     H 7706  14.591   2.252   6.690 -1.0245  0.7883  1.8128
  798MOL0     H 7707  14.607   2.082   6.719 -0.1275  0.0969  0.0904
  798MOL0     H 7708  14.787   2.310   6.814  1.2536  0.6560 -0.6557
  798MOL0     H 7709  14.802   2.157   6.900 -1.0124  1.8971  1.3375
  798MOL0     H 7710  13.616   2.388   6.886 -2.1477 -0.6268 -0.2288
  798MOL0     H 7711  13.443   2.311   6.730  0.0885 -0.4463  0.5468
  798MOL0     H 7712  13.233   1.857   6.544  0.1460  2.7879  1.2087
  798MOL0     H 7713  13.076   1.802   6.343  1.7724 -0.3952 -2.3104
  798MOL0     H 7714  11.511   2.054   5.549  1.2573  2.5331  0.1998
  798MOL0     H 7715  11.330   1.906   5.424 -0.2856 -0.8131 -2.8672
  798MOL0     H 7716  11.155   1.665   5.181  0.2828  0.6478 -0.1749
  798MOL0     H 7717  11.096   1.436   5.108 -0.3435  0.9629  1.3256
  798MOL0     H 7718  11.254   1.259   4.762  0.7956  4.4514  1.9927
  798MOL0     H 7719  11.139   1.352   4.672 -2.8403 -1.0667 -0.7963
  798MOL0     H 7720  11.092   1.099   4.648 -1.3835 -0.7674  0.2882
  798MOL0     H 7721  10.960   1.191   4.705 -0.7079 -1.1037  1.2226
  798MOL0     H 7722  11.021   1.099   4.944  0.6513  3.0935 -0.7073
  798MOL0     H 7723  11.156   1.009   4.872  1.2895  1.1431 -0.2325
  798MOL0     H 7724  10.850   0.982   4.823 -1.2338 -0.7900  1.2431
  798MOL0     H 7725  10.966   0.905   4.707  1.8137  2.0288 -0.3929
  798MOL0     H 7726  10.964   0.656   5.047  0.6437  0.3234  0.0548
  798MOL0     H 7727  11.173   1.543   4.711 -1.5078 -1.2176 -0.4924
  798MOL0     H 7728  11.212   1.850   4.715 -1.0739 -1.6465 -1.3300
  798MOL0     H 7729  11.378   1.842   4.780  0.9416 -3.4117  0.8056
  798MOL0     H 7730  11.333   1.727   4.661 -1.4481 -0.7224 -0.2088
  799MOL0     O 7731   9.318   3.828  10.545  1.0690  1.0013  0.0905
  799MOL0     C 7732   9.249   3.808  10.641 -0.5230 -0.4610 -0.1545
  799MOL0     O 7733   9.267   3.710  10.725  0.2336 -0.0243  0.0974
  799MOL0     C 7734   9.368   3.615  10.703 -0.6757 -0.6217 -1.7708
  799MOL0     C 7735   9.330   3.494  10.658  0.4744 -0.3722 -0.5915
  799MOL0     C 7736   9.425   3.392  10.648 -1.2472  0.6431  0.2442
  799MOL0     C 7737   9.559   3.413  10.698 -0.2422 -0.1007 -0.8714
  799MOL0     O 7738   9.651   3.316  10.709 -0.2662 -0.0621 -0.1740
  799MOL0     C 7739   9.611   3.188  10.656  0.5427 -0.4112 -0.8754
  799MOL0     C 7740   9.718   3.082  10.645 -0.8851 -0.5841 -0.0968
  799MOL0     C 7741   9.787   3.057  10.783 -0.4347 -0.3135  0.3095
  799MOL0     C 7742   9.908   2.969  10.768 -0.3694  0.6468 -0.1666
  799MOL0     C 7743   9.960   2.931  10.913  0.7278 -0.3753  0.6117
  799MOL0     C 7744  10.053   2.817  10.900 -0.4708  0.0759 -0.5419
  799MOL0     C 7745  10.197   2.854  10.851 -0.1662  0.1128 -0.2400
  799MOL0     C 7746  10.271   2.716  10.837  0.8902 -0.4958  0.0190
  799MOL0     N 7747  10.407   2.746  10.798  0.2732  0.5029  0.3555
  799MOL0     C 7748  10.474   2.658  10.708 -0.2872 -0.7481  0.4891
  799MOL0     C 7749  10.594   2.719  10.701  0.4772  0.0108 -0.2764
  799MOL0     C 7750  10.704   2.677  10.606  0.8062  0.5105  0.6657
  799MOL0     C 7751  10.828   2.626  10.676 -0.3233  0.4169  0.2494
  799MOL0     C 7752  10.913   2.725  10.761  0.1188  0.0498  0.0424
  799MOL0     C 7753  11.067   2.692  10.755  0.2840  0.2946  0.0309
  799MOL0     O 7754  11.116   2.789  10.847 -0.3159 -0.0132 -0.0310
  799MOL0     C 7755  11.242   2.781  10.888  0.3623  0.2327  0.3373
  799MOL0     C 7756  11.337   2.697  10.827 -0.2973  0.0796  0.4449
  799MOL0     C 7757  11.471   2.701  10.880 -0.2994 -0.2767  0.9986
  799MOL0     C 7758  11.510   2.788  10.981 -0.4180 -0.3756 -0.5330
  799MOL0     C 7759  11.649   2.800  11.020  0.4417 -0.0629  0.0446
  799MOL0     O 7760  11.741   2.769  10.921  0.0942  0.4748  0.2275
  799MOL0     C 7761  11.873   2.793  10.961  0.6791 -0.4882  0.5602
  799MOL0     C 7762  11.920   2.921  11.013 -0.0369 -0.7277 -0.3238
  799MOL0     C 7763  12.046   2.934  11.074  0.0352  1.0343  0.2498
  799MOL0     C 7764  12.137   2.823  11.065  0.3275  0.9927  0.2433
  799MOL0     O 7765  12.265   2.816  11.116  0.6147  0.1465  0.2500
  799MOL0     C 7766  12.312   2.945  11.164 -1.5306  0.4060  0.4072
  799MOL0     C 7767  12.465   2.950  11.194  0.5127  0.6901 -0.0015
  799MOL0     C 7768  12.532   2.833  11.263 -0.0312 -0.2589 -0.8205
  799MOL0     C 7769  12.678   2.851  11.292 -0.4729 -0.2182  0.5601
  799MOL0     C 7770  12.751   2.734  11.369 -0.0100 -0.3406 -0.0025
  799MOL0     C 7771  12.782   2.620  11.281  0.2034 -0.2409 -0.0814
  799MOL0     C 7772  12.889   2.530  11.357  0.7666  0.0371  0.5896
  799MOL0     C 7773  12.855   2.384  11.318 -0.2472  0.5490 -1.1070
  799MOL0    Cl 7774  12.952   2.287  11.428  0.4053 -0.0617  0.3626
  799MOL0     C 7775  12.084   2.702  11.023 -0.5826  0.5869  0.8104
  799MOL0     C 7776  11.958   2.686  10.967  0.8722  0.3903  0.3779
  799MOL0     O 7777  11.676   2.840  11.131 -0.4040  0.6698 -0.6081
  799MOL0     C 7778  11.410   2.876  11.034  0.7314 -0.0344 -0.2176
  799MOL0     C 7779  11.272   2.868  10.989  0.0449  0.4604  0.3339
  799MOL0     N 7780  10.600   2.829  10.785 -0.1421  0.0953  0.6338
  799MOL0     N 7781  10.487   2.836  10.841 -0.0414  0.3078 -0.1080
  799MOL0     C 7782   9.600   3.537  10.748  0.1223 -0.3384  0.6606
  799MOL0     C 7783   9.505   3.643  10.746 -0.0861 -0.0160 -0.3894
  799MOL0     C 7784   9.125   3.884  10.650  0.2142  0.1482  0.1035
  799MOL0     C 7785   9.006   3.812  10.689  0.2667 -0.6282  0.0574
  799MOL0     C 7786   8.893   3.885  10.700  0.5733 -0.3918  0.0716
  799MOL0     C 7787   8.876   4.022  10.672 -0.3322 -0.0434 -0.0698
  799MOL0     O 7788   8.751   4.079  10.690 -1.3721 -0.8562 -0.0678
  799MOL0     C 7789   8.691   4.180  10.596  0.7551 -0.7213 -0.3635
  799MOL0     C 7790   8.561   4.222  10.655  1.0895 -0.4959 -0.7470
  799MOL0     C 7791   8.453   4.114  10.680  0.1456  0.4960  0.7503
  799MOL0     C 7792   8.399   4.069  10.551  0.0676  0.3438  0.7187
  799MOL0     C 7793   8.281   3.987  10.565  0.3039  0.7826  0.6044
  799MOL0     C 7794   8.179   3.919  10.564 -0.2923  0.2218 -0.4429
  799MOL0     C 7795   8.994   4.081  10.618  1.0446 -0.1844  0.4420
  799MOL0     C 7796   9.116   4.017  10.618  0.7769 -0.7675 -0.0307
  799MOL0     C 7797   9.233   4.093  10.557 -0.4979  0.3596  0.3469
  799MOL0     H 7798   9.234   3.463  10.618  0.8070 -0.3540 -1.4219
  799MOL0     H 7799   9.389   3.301  10.600  1.4132 -0.0927 -0.5077
  799MOL0     H 7800   9.529   3.159  10.723  0.6271 -0.0027 -0.5951
  799MOL0     H 7801   9.572   3.198  10.554 -0.8800  0.5112 -0.2760
  799MOL0     H 7802   9.792   3.112  10.571  0.8916 -3.0212  0.5711
  799MOL0     H 7803   9.667   2.993  10.606 -2.3484  1.1703 -2.4733
  799MOL0     H 7804   9.708   3.012  10.844 -1.2465  0.2204 -0.3336
  799MOL0     H 7805   9.817   3.155  10.821  0.9714  0.5848 -2.7605
  799MOL0     H 7806   9.881   2.885  10.703  0.6579  2.3449 -2.9637
  799MOL0     H 7807   9.991   3.021  10.719 -0.2890  1.3751  0.7084
  799MOL0     H 7808  10.005   3.017  10.963  1.0149 -0.7905  1.0800
  799MOL0     H 7809   9.871   2.894  10.964  1.5735 -0.1679  2.3004
  799MOL0     H 7810  10.060   2.778  11.002 -0.8824 -0.1887 -0.6137
  799MOL0     H 7811  10.010   2.747  10.829  1.2561  0.4387 -2.0381
  799MOL0     H 7812  10.257   2.910  10.923 -0.8866  0.7139 -0.0912
  799MOL0     H 7813  10.205   2.903  10.753  3.0145  4.3459  1.8196
  799MOL0     H 7814  10.276   2.673  10.938  1.8385 -0.5110 -0.0240
  799MOL0     H 7815  10.211   2.648  10.775 -1.1518 -0.3647  1.7358
  799MOL0     H 7816  10.440   2.577  10.644 -0.1608  0.1148 -0.7007
  799MOL0     H 7817  10.654   2.606  10.540  0.3128  0.9554  0.5601
  799MOL0     H 7818  10.729   2.763  10.543 -3.5430  0.3591 -1.6086
  799MOL0     H 7819  10.793   2.540  10.732  1.0804 -1.7678 -2.0037
  799MOL0     H 7820  10.892   2.599  10.591  1.3039  1.8607  0.9538
  799MOL0     H 7821  10.874   2.720  10.864 -0.6345 -1.0320 -0.2740
  799MOL0     H 7822  10.884   2.825  10.729  0.2423  0.4569  1.1308
  799MOL0     H 7823  11.098   2.699  10.651 -0.5250 -2.3357 -0.4536
  799MOL0     H 7824  11.089   2.588  10.780 -3.6097 -1.6109 -3.3259
  799MOL0     H 7825  11.317   2.621  10.752  1.3471 -2.7244  2.6269
  799MOL0     H 7826  11.540   2.629  10.838  1.3094  0.7710  1.7644
  799MOL0     H 7827  11.853   3.005  11.021 -1.3427 -1.4200 -2.8620
  799MOL0     H 7828  12.069   3.031  11.117 -1.1721  2.2143 -1.6127
  799MOL0     H 7829  12.295   3.023  11.090  0.8754 -0.8387 -1.6140
  799MOL0     H 7830  12.262   2.957  11.261 -0.6343  2.6384  0.6422
  799MOL0     H 7831  12.514   2.960  11.096 -1.5642  0.7998 -1.0746
  799MOL0     H 7832  12.487   3.034  11.260  2.2011 -0.7343  1.3594
  799MOL0     H 7833  12.483   2.827  11.360 -0.4144  3.0165 -0.6954
  799MOL0     H 7834  12.514   2.744  11.203 -2.7600  0.3748 -1.0497
  799MOL0     H 7835  12.685   2.932  11.365 -1.8794 -0.0627  0.5417
  799MOL0     H 7836  12.737   2.878  11.205  0.3915  2.7734  1.9588
  799MOL0     H 7837  12.684   2.707  11.451  1.3130  2.4434  2.1708
  799MOL0     H 7838  12.845   2.774  11.407 -0.3704  2.4036 -1.6749
  799MOL0     H 7839  12.690   2.568  11.256 -0.2391  0.8309 -0.7650
  799MOL0     H 7840  12.830   2.644  11.186 -2.0224 -2.7208 -1.9787
  799MOL0     H 7841  12.883   2.554  11.463  1.8607 -0.0754  0.6835
  799MOL0     H 7842  12.990   2.565  11.332 -0.1446  3.7761  1.5039
  799MOL0     H 7843  12.754   2.349  11.344  0.3264 -0.9123 -0.7503
  799MOL0     H 7844  12.869   2.364  11.211 -2.4098  0.7332 -1.4731
  799MOL0     H 7845  12.143   2.612  11.040  2.5788  1.9482 -1.9035
  799MOL0     H 7846  11.923   2.585  10.944 -2.7791  1.7373 -0.7556
  799MOL0     H 7847  11.436   2.946  11.113 -3.3891  1.8843 -0.3358
  799MOL0     H 7848  11.199   2.925  11.046  0.3644 -0.2093  1.4634
  799MOL0     H 7849   9.695   3.557  10.795 -0.2792  3.3024  0.2755
  799MOL0     H 7850   9.540   3.740  10.780  2.8952 -0.6223 -1.3787
  799MOL0     H 7851   8.998   3.707  10.715 -1.2551 -0.4076  0.6166
  799MOL0     H 7852   8.803   3.833  10.732  2.4817 -2.6391  2.2481
  799MOL0     H 7853   8.685   4.140  10.495  0.4916 -0.6744 -0.3652
  799MOL0     H 7854   8.753   4.270  10.591  0.1554 -0.3612 -4.0709
  799MOL0     H 7855   8.514   4.297  10.591  0.9662  0.5715  0.5559
  799MOL0     H 7856   8.587   4.268  10.751  0.0488  0.2162 -0.7903
  799MOL0     H 7857   8.369   4.148  10.741 -0.3148 -0.2760  0.5581
  799MOL0     H 7858   8.485   4.024  10.733 -2.1616 -1.3130 -0.7398
  799MOL0     H 7859   8.379   4.147  10.478 -0.9801 -1.6270 -1.2304
  799MOL0     H 7860   8.478   4.011  10.504  0.7541  0.8950  1.1803
  799MOL0     H 7861   8.093   3.856  10.574 -0.0786  0.0495  0.3183
  799MOL0     H 7862   8.984   4.183  10.583 -0.6674 -0.7271 -0.8082
  799MOL0     H 7863   9.202   4.192  10.523 -0.3368 -0.8077 -3.6917
  799MOL0     H 7864   9.308   4.110  10.634 -1.5740  2.2933  1.0268
  799MOL0     H 7865   9.272   4.040  10.470 -1.1737  0.6800 -0.1623
  800MOL0     O 7866   8.029   3.254   4.832 -0.2237 -0.2616  0.5783
  800MOL0     C 7867   8.027   3.339   4.741 -0.3367 -0.6157  0.0226
  800MOL0     O 7868   8.074   3.467   4.750 -0.2832 -0.4989 -1.1185
  800MOL0     C 7869   8.177   3.493   4.840 -0.3872 -0.7860  0.5902
  800MOL0     C 7870   8.203   3.628   4.868  0.8018  0.6373 -0.4951
  800MOL0     C 7871   8.303   3.665   4.963  0.3741 -0.2183  0.0818
  800MOL0     C 7872   8.383   3.567   5.025  0.9603  0.5941 -0.2137
  800MOL0     O 7873   8.486   3.592   5.106  0.0584 -0.1028 -0.6471
  800MOL0     C 7874   8.555   3.713   5.076 -0.4651  0.0307 -0.2589
  800MOL0     C 7875   8.691   3.699   5.136  0.3443  0.1410  0.2418
  800MOL0     C 7876   8.763   3.587   5.064 -1.0240  0.9143  1.4145
  800MOL0     C 7877   8.892   3.536   5.132  0.6477 -0.0736 -0.5045
  800MOL0     C 7878   8.946   3.420   5.052  0.1250  0.1082  0.3763
  800MOL0     C 7879   9.050   3.332   5.122  1.0292 -0.4999 -0.9432
  800MOL0     C 7880   8.974   3.256   5.234 -0.8882 -0.2074 -0.7097
  800MOL0     C 7881   9.059   3.147   5.304 -0.2693  0.4425  0.6067
  800MOL0     N 7882   9.163   3.202   5.382  0.8706 -0.3412  0.5866
  800MOL0     C 7883   9.152   3.300   5.475 -0.5647  0.5588  0.4027
  800MOL0     C 7884   9.276   3.305   5.522  0.6643  0.4876  0.4579
  800MOL0     C 7885   9.315   3.385   5.632 -0.3505  0.7693 -0.3956
  800MOL0     C 7886   9.463   3.455   5.634  0.4317  0.1368 -0.1766
  800MOL0     C 7887   9.567   3.367   5.587 -0.3626  1.0267  0.1517
  800MOL0     C 7888   9.701   3.421   5.640  0.0545  0.5515  0.1227
  800MOL0     O 7889   9.704   3.417   5.783  0.0234 -0.7651 -0.1438
  800MOL0     C 7890   9.815   3.461   5.844 -0.0931 -0.2457 -0.2341
  800MOL0     C 7891   9.925   3.510   5.777  0.4264 -0.5860 -0.1097
  800MOL0     C 7892  10.034   3.551   5.848  0.5784 -0.7481 -0.1998
  800MOL0     C 7893  10.044   3.536   5.988  0.6707 -0.5623  0.4277
  800MOL0     C 7894  10.157   3.587   6.060  0.3808  0.6793  0.0924
  800MOL0     O 7895  10.175   3.539   6.183  0.6610  0.4204  0.4184
  800MOL0     C 7896  10.278   3.588   6.259 -0.9662 -0.4031 -0.0397
  800MOL0     C 7897  10.259   3.614   6.390  0.2833 -0.8026 -0.1354
  800MOL0     C 7898  10.356   3.667   6.480  0.3546  0.1349 -0.1917
  800MOL0     C 7899  10.487   3.686   6.434  0.5799  0.6842 -0.2214
  800MOL0     O 7900  10.593   3.736   6.502  0.3107 -0.2972 -0.3799
  800MOL0     C 7901  10.570   3.769   6.635 -0.2252  0.0807  0.2196
  800MOL0     C 7902  10.695   3.822   6.690  0.1108  0.6713  0.3621
  800MOL0     C 7903  10.803   3.706   6.697 -0.6034 -0.7944 -0.1611
  800MOL0     C 7904  10.922   3.738   6.792  1.0412  0.6444  0.4559
  800MOL0     C 7905  11.026   3.619   6.798  0.5578 -0.0669  0.3766
  800MOL0     C 7906  11.163   3.667   6.749  0.5715  0.1253  0.0745
  800MOL0     C 7907  11.285   3.589   6.781 -0.0011 -0.1515  0.0727
  800MOL0     C 7908  11.408   3.685   6.746 -0.9718  0.2192  0.1420
  800MOL0    Cl 7909  11.561   3.613   6.779  0.3409 -0.0164  0.0514
  800MOL0     C 7910  10.518   3.650   6.303 -0.3372 -0.4115  0.5071
  800MOL0     C 7911  10.413   3.606   6.213  0.3920 -0.0901 -0.2446
  800MOL0     O 7912  10.208   3.689   6.022 -0.0382  0.2581 -0.1715
  800MOL0     C 7913   9.940   3.471   6.051 -0.1143 -0.7917  0.3015
  800MOL0     C 7914   9.825   3.441   5.980 -0.1151 -0.2860 -0.1319
  800MOL0     N 7915   9.355   3.194   5.468 -0.1524 -0.8759 -0.3717
  800MOL0     N 7916   9.280   3.128   5.395  0.2715  0.5160  0.1031
  800MOL0     C 7917   8.363   3.431   4.999 -0.1024 -0.4569  0.4982
  800MOL0     C 7918   8.261   3.399   4.906  0.0931 -0.3931  0.0810
  800MOL0     C 7919   7.956   3.299   4.618 -0.5628 -0.4689  0.0570
  800MOL0     C 7920   8.015   3.348   4.501  0.6182  0.1340  0.3754
  800MOL0     C 7921   7.951   3.334   4.376 -0.3054  0.0354 -0.0765
  800MOL0     C 7922   7.819   3.267   4.373 -0.0184  0.3361  0.5079
  800MOL0     O 7923   7.754   3.234   4.250 -0.0499 -0.5048 -0.2123
  800MOL0     C 7924   7.750   3.319   4.132 -0.4377  0.6215 -0.0825
  800MOL0     C 7925   7.855   3.276   4.026  0.4687 -0.0414  0.0690
  800MOL0     C 7926   7.839   3.330   3.883 -0.1990 -0.0699 -0.0057
  800MOL0     C 7927   7.813   3.483   3.888  0.1241 -0.0265 -0.3227
  800MOL0     C 7928   7.835   3.533   3.751  0.0950 -0.4176 -0.2283
  800MOL0     C 7929   7.857   3.587   3.639  0.1533 -0.0065 -0.9821
  800MOL0     C 7930   7.766   3.218   4.491  0.5087 -0.5672  0.3722
  800MOL0     C 7931   7.828   3.232   4.611  0.6185  0.2228 -0.1782
  800MOL0     C 7932   7.748   3.204   4.735 -0.4599  0.3624  0.1571
  800MOL0     H 7933   8.142   3.706   4.824  0.5997  2.4807  2.7364
  800MOL0     H 7934   8.315   3.773   4.975  1.1468 -0.4456  1.5461
  800MOL0     H 7935   8.562   3.725   4.967  1.2683 -1.4696 -0.3707
  800MOL0     H 7936   8.501   3.793   5.127 -2.0589 -0.8007 -0.5750
  800MOL0     H 7937   8.700   3.674   5.242  1.6279 -1.1922 -0.1397
  800MOL0     H 7938   8.741   3.794   5.114 -1.9420  0.9861 -1.6757
  800MOL0     H 7939   8.798   3.634   4.971  1.9801 -2.7322  0.4546
  800MOL0     H 7940   8.698   3.500   5.055 -1.5387  1.4330 -0.0794
  800MOL0     H 7941   8.960   3.619   5.149  1.3625 -1.0119  1.5725
  800MOL0     H 7942   8.864   3.505   5.234  1.1445  2.6614  0.5341
  800MOL0     H 7943   8.870   3.354   5.010 -0.9625  2.1221 -0.9679
  800MOL0     H 7944   8.999   3.464   4.967 -2.3979 -0.3417 -1.5348
  800MOL0     H 7945   9.111   3.273   5.053  1.5061  2.0465 -2.8540
  800MOL0     H 7946   9.123   3.398   5.170  3.0155 -1.7019 -2.1833
  800MOL0     H 7947   8.888   3.201   5.194 -1.4219  0.5616 -0.6343
  800MOL0     H 7948   8.937   3.320   5.314 -0.7922 -1.5284  0.4390
  800MOL0     H 7949   8.990   3.085   5.363 -0.1148 -0.4093 -0.0984
  800MOL0     H 7950   9.105   3.083   5.229  1.4117 -1.1601  2.8789
  800MOL0     H 7951   9.074   3.363   5.517  1.8325  2.7442  1.8783
  800MOL0     H 7952   9.248   3.471   5.634  1.1254  2.0761 -2.9643
  800MOL0     H 7953   9.314   3.328   5.726 -0.5453 -0.3749 -1.0712
  800MOL0     H 7954   9.473   3.551   5.583 -2.3953 -0.2143 -1.6023
  800MOL0     H 7955   9.478   3.475   5.740  2.2741  0.4103 -0.4616
  800MOL0     H 7956   9.566   3.398   5.482 -0.0406  2.4524  0.5443
  800MOL0     H 7957   9.558   3.259   5.604 -0.5175  0.9996 -0.0936
  800MOL0     H 7958   9.715   3.520   5.596  0.4930 -0.7630 -2.9446
  800MOL0     H 7959   9.784   3.361   5.604 -0.2785  0.0260  0.2267
  800MOL0     H 7960   9.920   3.526   5.670 -2.0255  1.2125  0.1725
  800MOL0     H 7961  10.112   3.607   5.797 -1.1643  1.2403 -0.8467
  800MOL0     H 7962  10.160   3.597   6.432  1.3532 -2.9599  1.7364
  800MOL0     H 7963  10.335   3.712   6.577  0.0708  2.6980 -1.3602
  800MOL0     H 7964  10.499   3.851   6.648 -2.1914 -1.5801  0.5411
  800MOL0     H 7965  10.537   3.683   6.695 -0.6406  1.9778  2.8769
  800MOL0     H 7966  10.737   3.905   6.632  0.3724 -0.9073 -1.8830
  800MOL0     H 7967  10.682   3.864   6.790  0.7959 -1.6017  1.4795
  800MOL0     H 7968  10.756   3.614   6.732  2.3937 -2.6183 -0.5986
  800MOL0     H 7969  10.849   3.688   6.600  2.1032 -0.5267  0.9795
  800MOL0     H 7970  10.877   3.750   6.891 -2.1205  0.0566 -0.7711
  800MOL0     H 7971  10.967   3.830   6.755  2.3119 -0.0819  0.1402
  800MOL0     H 7972  11.005   3.530   6.738 -2.5296  0.8844 -0.1124
  800MOL0     H 7973  11.028   3.592   6.904 -0.7811 -0.7304  0.2440
  800MOL0     H 7974  11.156   3.673   6.640 -1.8464 -1.5775  0.0578
  800MOL0     H 7975  11.179   3.770   6.784 -2.5359  0.2955  1.2896
  800MOL0     H 7976  11.295   3.491   6.731 -1.2240 -1.0115  1.4458
  800MOL0     H 7977  11.273   3.571   6.888 -0.9384  1.0875  0.1870
  800MOL0     H 7978  11.411   3.693   6.637  1.5667 -0.2374  0.1305
  800MOL0     H 7979  11.398   3.779   6.801 -0.0359  1.4915 -1.7819
  800MOL0     H 7980  10.619   3.672   6.270  0.0899 -1.7310  0.8451
  800MOL0     H 7981  10.428   3.587   6.107 -3.5175 -1.9660 -0.6345
  800MOL0     H 7982   9.945   3.456   6.158 -0.5833 -3.8515  0.0069
  800MOL0     H 7983   9.744   3.392   6.032 -1.2710  2.2244  0.5993
  800MOL0     H 7984   8.435   3.356   5.029  1.3102  0.6859  0.0976
  800MOL0     H 7985   8.273   3.294   4.883  0.1927 -0.9369  2.4442
  800MOL0     H 7986   8.112   3.396   4.501  1.5276 -1.5534 -1.6976
  800MOL0     H 7987   7.997   3.375   4.286 -0.6983 -0.2570 -0.4181
  800MOL0     H 7988   7.774   3.422   4.161 -2.0143  0.6801  1.1675
  800MOL0     H 7989   7.650   3.313   4.088 -0.1992 -5.0814 -0.6479
  800MOL0     H 7990   7.851   3.167   4.016 -0.6913 -0.1512  1.4416
  800MOL0     H 7991   7.955   3.304   4.060  0.8708  2.4087 -2.7121
  800MOL0     H 7992   7.756   3.277   3.835 -0.7882  0.7147  0.1109
  800MOL0     H 7993   7.926   3.308   3.822 -0.1183  0.9978 -0.3017
  800MOL0     H 7994   7.712   3.499   3.926  0.7455  0.6237  1.1270
  800MOL0     H 7995   7.892   3.537   3.941  0.9845 -2.0921  0.5900
  800MOL0     H 7996   7.882   3.635   3.546 -1.0059 -0.6560 -1.6599
  800MOL0     H 7997   7.663   3.184   4.487 -1.3178  4.2299 -2.8079
  800MOL0     H 7998   7.789   3.121   4.793 -2.4456 -0.4350  0.4782
  800MOL0     H 7999   7.755   3.295   4.796  1.5424  0.5839 -0.3369
  800MOL0     H 8000   7.645   3.177   4.711 -0.2696 -0.2852  0.0551
  801MOL0     O 8001   5.180   6.114   0.515 -0.1981  0.1256 -0.2380
  801MOL0     C 8002   5.236   6.154   0.413  0.0204  0.3648 -0.1721
  801MOL0     O 8003   5.173   6.202   0.298  0.2307 -0.7839 -0.7529
  801MOL0     C 8004   5.039   6.205   0.282  0.7427 -0.7224  0.5965
  801MOL0     C 8005   4.982   6.100   0.208 -0.2371 -0.3010  0.1736
  801MOL0     C 8006   4.837   6.092   0.207  0.3679 -0.3255 -0.2979
  801MOL0     C 8007   4.757   6.192   0.268 -0.4603  1.0502 -0.0042
  801MOL0     O 8008   4.620   6.188   0.275 -0.0906  0.4714 -0.1650
  801MOL0     C 8009   4.554   6.103   0.174 -0.4529 -0.2897  0.3595
  801MOL0     C 8010   4.406   6.124   0.186  0.8205 -0.0961 -0.4967
  801MOL0     C 8011   4.355   6.140   0.326 -0.8777  0.2041 -0.3547
  801MOL0     C 8012   4.199   6.157   0.343 -0.3522 -0.3670 -0.1841
  801MOL0     C 8013   4.140   6.223   0.473 -0.0921  0.1034 -0.3861
  801MOL0     C 8014   3.992   6.192   0.479 -0.1041  0.4370 -0.4970
  801MOL0     C 8015   3.916   6.224   0.607  0.1272 -0.5581 -0.3405
  801MOL0     C 8016   3.908   6.106   0.710 -0.1299  0.7822  0.8005
  801MOL0     N 8017   3.787   6.087   0.790  0.2830  0.1175 -0.5002
  801MOL0     C 8018   3.768   6.133   0.917  0.2180  0.2306  0.4969
  801MOL0     C 8019   3.642   6.093   0.947  0.1911 -0.0682 -0.0382
  801MOL0     C 8020   3.575   6.101   1.087 -0.5927 -0.0798  0.6672
  801MOL0     C 8021   3.606   6.238   1.154  0.0419  0.7788  0.0545
  801MOL0     C 8022   3.520   6.232   1.282  0.1144 -0.3675 -0.1821
  801MOL0     C 8023   3.536   6.360   1.366 -0.6205 -0.6711  1.2626
  801MOL0     O 8024   3.678   6.384   1.368  0.1266 -0.3157 -0.1741
  801MOL0     C 8025   3.714   6.496   1.441 -0.5039 -0.0578  0.3974
  801MOL0     C 8026   3.633   6.597   1.497  0.5236 -0.0607 -0.5138
  801MOL0     C 8027   3.696   6.695   1.574  0.7748  0.4568 -0.0565
  801MOL0     C 8028   3.830   6.711   1.582 -0.2494  0.3083 -0.7589
  801MOL0     C 8029   3.889   6.825   1.652  0.4185 -0.6243  0.1220
  801MOL0     O 8030   4.032   6.831   1.675 -0.1242  0.4058  0.8119
  801MOL0     C 8031   4.070   6.955   1.715  0.3174 -0.3916 -0.3296
  801MOL0     C 8032   4.139   7.037   1.624  0.0163  0.1659 -0.2039
  801MOL0     C 8033   4.208   7.148   1.674  0.1413 -1.0041  1.1604
  801MOL0     C 8034   4.213   7.186   1.806  0.0093 -0.3142 -0.0301
  801MOL0     O 8035   4.269   7.311   1.839 -0.1885 -0.2401  0.8034
  801MOL0     C 8036   4.288   7.334   1.980  0.1623 -0.3550  0.6129
  801MOL0     C 8037   4.368   7.463   2.008  0.7238 -0.2924  0.0665
  801MOL0     C 8038   4.293   7.597   1.992 -0.3306  0.3003 -0.2636
  801MOL0     C 8039   4.229   7.632   1.857  0.1998 -0.4542 -0.2314
  801MOL0     C 8040   4.106   7.729   1.887 -0.7586  0.7742  0.0072
  801MOL0     C 8041   4.006   7.728   1.761 -0.1054  0.2080 -0.1962
  801MOL0     C 8042   4.066   7.808   1.644 -0.1479 -0.6659 -0.5614
  801MOL0     C 8043   3.957   7.835   1.539  0.6613 -0.6870 -0.4446
  801MOL0    Cl 8044   3.919   7.695   1.440 -0.1686  0.1642 -0.1484
  801MOL0     C 8045   4.142   7.097   1.899 -0.1444 -0.4516  0.5798
  801MOL0     C 8046   4.067   6.990   1.848  0.1484 -0.3249 -0.2444
  801MOL0     O 8047   3.811   6.906   1.692  0.1485 -0.6897 -0.2587
  801MOL0     C 8048   3.911   6.608   1.530 -0.0914 -0.1506  0.1531
  801MOL0     C 8049   3.852   6.505   1.456 -0.0944 -0.2830 -0.6486
  801MOL0     N 8050   3.586   6.027   0.840 -0.4403  0.1386  0.2384
  801MOL0     N 8051   3.676   6.026   0.744  0.3525  0.4911 -0.2983
  801MOL0     C 8052   4.814   6.291   0.351 -0.0822  0.1417 -0.5612
  801MOL0     C 8053   4.958   6.294   0.346  0.0341 -0.3555  0.3510
  801MOL0     C 8054   5.386   6.176   0.423  1.0637 -0.6273 -0.3561
  801MOL0     C 8055   5.448   6.202   0.294 -0.0989  0.1109 -0.5594
  801MOL0     C 8056   5.583   6.231   0.288 -0.6280  0.1311 -0.6669
  801MOL0     C 8057   5.664   6.234   0.404  0.0135 -0.1372 -0.2675
  801MOL0     O 8058   5.800   6.258   0.405  0.1514  0.3619  0.2539
  801MOL0     C 8059   5.870   6.297   0.285 -0.4874 -0.8632  1.0810
  801MOL0     C 8060   6.018   6.287   0.313 -0.2809  0.3870 -0.4312
  801MOL0     C 8061   6.093   6.339   0.190 -0.3281 -0.1127  0.3253
  801MOL0     C 8062   6.244   6.327   0.207 -0.2478 -0.1354 -0.3196
  801MOL0     C 8063   6.303   6.333   0.071 -0.0545 -0.4548 -0.4580
  801MOL0     C 8064   6.377   6.325  -0.027 -0.0131  0.2339 -0.8536
  801MOL0     C 8065   5.611   6.205   0.525 -0.6832  1.1140 -0.2394
  801MOL0     C 8066   5.469   6.176   0.537  0.4085  0.0792 -0.2419
  801MOL0     C 8067   5.424   6.135   0.673 -0.0958  0.6505 -0.9666
  801MOL0     H 8068   5.040   6.026   0.154 -0.8847 -1.1926  0.6870
  801MOL0     H 8069   4.791   6.012   0.150 -0.1231  1.1034 -2.0068
  801MOL0     H 8070   4.596   6.123   0.075 -0.1848 -2.0655  0.0755
  801MOL0     H 8071   4.571   5.998   0.202 -1.1810 -1.0564 -1.8503
  801MOL0     H 8072   4.354   6.033   0.153  0.6595 -0.9737  1.9755
  801MOL0     H 8073   4.377   6.213   0.129  0.0337  0.5739  0.8966
  801MOL0     H 8074   4.406   6.225   0.373 -0.0536  1.3614 -3.1307
  801MOL0     H 8075   4.379   6.057   0.393 -3.8296  0.5488  1.2614
  801MOL0     H 8076   4.173   6.240   0.275  0.4382  0.0914  0.0596
  801MOL0     H 8077   4.138   6.070   0.317 -1.7407  0.3197  0.6443
  801MOL0     H 8078   4.192   6.184   0.561  0.3598  4.2925  1.4283
  801MOL0     H 8079   4.147   6.331   0.488 -0.6207 -0.3137  4.0651
  801MOL0     H 8080   3.939   6.247   0.401  0.5109  0.6608 -0.7632
  801MOL0     H 8081   3.970   6.085   0.469 -3.1281  0.9822 -0.3391
  801MOL0     H 8082   3.814   6.246   0.577 -0.3959  0.1584  1.7982
  801MOL0     H 8083   3.957   6.313   0.655  0.1233  0.3879 -2.0091
  801MOL0     H 8084   3.916   6.010   0.658 -0.3048  0.5872  1.1267
  801MOL0     H 8085   3.996   6.108   0.775 -0.9252  1.7820  1.8780
  801MOL0     H 8086   3.835   6.180   0.988  0.4969  1.1889 -0.3633
  801MOL0     H 8087   3.468   6.085   1.075 -0.8943  0.8116  2.0037
  801MOL0     H 8088   3.616   6.017   1.146  0.9429  1.8057  2.4388
  801MOL0     H 8089   3.713   6.256   1.171  0.1354  1.5683 -1.2265
  801MOL0     H 8090   3.571   6.322   1.093 -0.5489  1.0318  0.7378
  801MOL0     H 8091   3.546   6.144   1.342  0.5257 -0.1692 -0.0693
  801MOL0     H 8092   3.414   6.214   1.260  0.2182  0.5405 -1.5259
  801MOL0     H 8093   3.496   6.367   1.468 -1.1545 -0.0585  1.0213
  801MOL0     H 8094   3.481   6.439   1.313 -0.4248 -0.6923  1.0271
  801MOL0     H 8095   3.525   6.587   1.496  0.3067  1.7711  0.2603
  801MOL0     H 8096   3.625   6.764   1.619 -1.5452 -0.4382 -2.1042
  801MOL0     H 8097   4.145   6.998   1.523  3.0247  0.3787 -0.1873
  801MOL0     H 8098   4.263   7.207   1.602 -1.3073  0.8399  1.4804
  801MOL0     H 8099   4.194   7.353   2.034  0.3658  2.1789  0.2042
  801MOL0     H 8100   4.338   7.248   2.023  1.5981 -0.8641 -1.8737
  801MOL0     H 8101   4.416   7.459   2.106 -1.0388  1.0062  1.0409
  801MOL0     H 8102   4.445   7.460   1.930  1.8074 -1.5719  1.1437
  801MOL0     H 8103   4.218   7.610   2.070 -1.0366 -1.5379 -0.5731
  801MOL0     H 8104   4.358   7.680   2.020 -0.4869  0.8382 -1.4533
  801MOL0     H 8105   4.193   7.544   1.802  0.3837 -0.2243 -0.7265
  801MOL0     H 8106   4.294   7.688   1.789  2.2272 -0.1986  1.7581
  801MOL0     H 8107   4.150   7.826   1.910 -0.6142  0.3840  1.4680
  801MOL0     H 8108   4.042   7.702   1.971 -0.8020 -2.2237 -0.8718
  801MOL0     H 8109   3.988   7.626   1.726  1.2424 -0.1172 -0.0184
  801MOL0     H 8110   3.916   7.780   1.795  0.4618  0.3443  1.1692
  801MOL0     H 8111   4.148   7.752   1.598  0.0153 -0.3713 -0.6297
  801MOL0     H 8112   4.120   7.895   1.682  0.3513 -1.1015 -0.2665
  801MOL0     H 8113   3.864   7.869   1.587  1.1343 -2.4203  1.8830
  801MOL0     H 8114   3.992   7.918   1.478 -2.8350  0.4586 -1.1264
  801MOL0     H 8115   4.137   7.108   2.007 -0.3882  0.0308  0.5203
  801MOL0     H 8116   4.024   6.923   1.922 -1.9814  0.7650 -0.4194
  801MOL0     H 8117   4.017   6.605   1.553 -0.4250  0.2807  1.8449
  801MOL0     H 8118   3.924   6.436   1.414  1.0771  1.9505 -2.5564
  801MOL0     H 8119   4.750   6.353   0.412 -2.4567 -2.2603 -0.4054
  801MOL0     H 8120   5.009   6.370   0.404  0.1735 -0.5128  0.4360
  801MOL0     H 8121   5.393   6.204   0.201 -0.3640 -0.8892 -0.4315
  801MOL0     H 8122   5.629   6.254   0.192 -2.3203 -0.0522 -1.5592
  801MOL0     H 8123   5.854   6.400   0.251  0.9421 -1.4646 -1.6859
  801MOL0     H 8124   5.839   6.238   0.199 -0.0541  0.7566 -0.2370
  801MOL0     H 8125   6.042   6.184   0.339  1.5041  0.8295 -0.1951
  801MOL0     H 8126   6.045   6.336   0.407  0.0892  1.0395 -0.8658
  801MOL0     H 8127   6.058   6.442   0.191 -2.3614 -0.7530 -0.1553
  801MOL0     H 8128   6.054   6.282   0.105 -0.6249 -1.4848  1.3399
  801MOL0     H 8129   6.281   6.410   0.268  0.6206 -0.1011 -0.8697
  801MOL0     H 8130   6.273   6.232   0.251 -4.0141 -1.3565 -0.1071
  801MOL0     H 8131   6.431   6.319  -0.120  1.4495 -0.6366  0.0197
  801MOL0     H 8132   5.677   6.213   0.611 -0.5028  3.1624 -0.5098
  801MOL0     H 8133   5.423   6.027   0.691 -1.1824  0.9359  0.9693
  801MOL0     H 8134   5.505   6.162   0.741  0.2017 -2.3191 -0.0245
  801MOL0     H 8135   5.328   6.181   0.699 -0.5558  0.3570 -2.0883
  802MOL0     O 8136   6.819   7.993   9.756 -0.1666 -0.5901 -0.2758
  802MOL0     C 8137   6.755   8.095   9.794 -0.7549  0.0830 -0.9674
  802MOL0     O 8138   6.801   8.181   9.890  1.0014 -0.3304 -0.4319
  802MOL0     C 8139   6.926   8.145   9.939  0.3754 -0.3998  0.1531
  802MOL0     C 8140   6.929   8.111  10.076 -0.1123  0.9216 -0.0400
  802MOL0     C 8141   7.050   8.087  10.134  0.6662 -0.2079 -1.0347
  802MOL0     C 8142   7.170   8.085  10.055 -0.7311  0.2638 -0.4117
  802MOL0     O 8143   7.287   8.036  10.108  0.5367 -0.6025 -0.0133
  802MOL0     C 8144   7.323   8.044  10.246 -0.0159 -0.1892  0.3642
  802MOL0     C 8145   7.425   7.933  10.276  0.3659  0.2731 -0.4669
  802MOL0     C 8146   7.560   7.980  10.238  0.5888 -0.4605  0.7492
  802MOL0     C 8147   7.660   7.873  10.272  0.3072 -0.1494 -0.6120
  802MOL0     C 8148   7.804   7.919  10.243  0.2586 -0.0909  0.0059
  802MOL0     C 8149   7.849   8.022  10.350 -0.0005 -0.2947  0.4294
  802MOL0     C 8150   7.991   8.066  10.307  0.3458  0.0577 -0.7028
  802MOL0     C 8151   8.105   7.958  10.321  0.8442  1.1547 -0.8193
  802MOL0     N 8152   8.235   8.026  10.338  0.2663  0.0045 -0.6828
  802MOL0     C 8153   8.295   8.108  10.253 -0.2686  0.9241  0.2088
  802MOL0     C 8154   8.409   8.134  10.313 -0.2013 -0.4074 -0.2202
  802MOL0     C 8155   8.498   8.242  10.255  0.4973  0.7594  0.5027
  802MOL0     C 8156   8.546   8.212  10.113 -0.4433  0.4530  0.5952
  802MOL0     C 8157   8.683   8.263  10.074  0.3089  0.2849  0.1667
  802MOL0     C 8158   8.796   8.173  10.125  0.1208 -0.1083  0.1955
  802MOL0     O 8159   8.909   8.229  10.064 -0.1420  0.0351  0.4572
  802MOL0     C 8160   9.019   8.155  10.075 -0.0403  0.0519 -0.0633
  802MOL0     C 8161   9.030   8.020  10.101 -0.5215  1.1780 -0.7181
  802MOL0     C 8162   9.156   7.960  10.118 -0.3879  0.6734 -0.4298
  802MOL0     C 8163   9.279   8.027  10.107  0.0778 -0.0056 -0.4562
  802MOL0     C 8164   9.412   7.950  10.097  0.2430 -0.5858  0.7542
  802MOL0     O 8165   9.517   8.037  10.075  0.2948  0.1747 -0.0853
  802MOL0     C 8166   9.637   7.990  10.041 -0.2852 -0.2508 -0.4232
  802MOL0     C 8167   9.741   8.065  10.082 -0.4676  0.1534 -0.1019
  802MOL0     C 8168   9.873   8.017  10.075  0.1068  0.8950  0.0168
  802MOL0     C 8169   9.904   7.897  10.004 -0.7393 -0.5917  0.3387
  802MOL0     O 8170  10.035   7.858   9.998 -0.2370 -0.4500 -0.2505
  802MOL0     C 8171  10.062   7.757   9.901  0.1651 -0.0229 -0.5525
  802MOL0     C 8172  10.215   7.724   9.898  0.3470 -0.4307 -0.4751
  802MOL0     C 8173  10.256   7.667  10.028 -0.7613  0.1916 -0.0872
  802MOL0     C 8174  10.406   7.645  10.047  0.7243  0.1086  0.2564
  802MOL0     C 8175  10.469   7.507   9.997  0.2415 -0.3903 -0.0277
  802MOL0     C 8176  10.598   7.468  10.065  0.8381 -0.0279  0.2219
  802MOL0     C 8177  10.650   7.330  10.025  0.7639  0.4167  0.2829
  802MOL0     C 8178  10.769   7.291  10.103  0.0355 -0.2366  1.1161
  802MOL0    Cl 8179  10.726   7.281  10.281  0.2082  0.0442  0.1952
  802MOL0     C 8180   9.793   7.843   9.928 -0.2640 -0.0262 -0.3000
  802MOL0     C 8181   9.662   7.884   9.952 -0.2766  0.6864 -0.0855
  802MOL0     O 8182   9.420   7.828  10.114 -0.1815 -0.1393  0.4456
  802MOL0     C 8183   9.273   8.159  10.069  0.2354 -0.2756 -0.1440
  802MOL0     C 8184   9.145   8.222  10.068  0.1339  0.5330 -0.0331
  802MOL0     N 8185   8.421   8.076  10.434  0.6657  0.8862 -0.4457
  802MOL0     N 8186   8.318   8.000  10.446  0.3271  0.4280  0.3904
  802MOL0     C 8187   7.162   8.116   9.919  0.2761 -0.8311 -0.2041
  802MOL0     C 8188   7.040   8.146   9.860 -0.0914 -0.1849 -0.7264
  802MOL0     C 8189   6.616   8.117   9.740 -0.2625  0.0066 -0.8368
  802MOL0     C 8190   6.541   8.217   9.811 -0.5009 -0.5392 -0.6599
  802MOL0     C 8191   6.420   8.260   9.763 -0.2119  0.7208 -0.6201
  802MOL0     C 8192   6.358   8.193   9.654 -0.8939  0.1958 -0.1465
  802MOL0     O 8193   6.235   8.219   9.599 -0.3758  0.0040  0.2533
  802MOL0     C 8194   6.153   8.311   9.669  0.7191  0.8782 -0.8323
  802MOL0     C 8195   6.071   8.234   9.778 -0.4769 -0.0152 -0.3580
  802MOL0     C 8196   5.949   8.323   9.821  0.7454  0.7924  0.6876
  802MOL0     C 8197   5.822   8.240   9.780  0.6467  0.0786  0.4757
  802MOL0     C 8198   5.702   8.325   9.788 -0.3510 -0.7648 -0.4729
  802MOL0     C 8199   5.606   8.400   9.804  0.0110  0.8138  0.6047
  802MOL0     C 8200   6.430   8.084   9.594  0.1258  0.1402  0.5468
  802MOL0     C 8201   6.560   8.049   9.630  0.0425 -0.4149  1.1423
  802MOL0     C 8202   6.629   7.933   9.569  0.1548 -0.0968  0.4061
  802MOL0     H 8203   6.840   8.104  10.138  0.2568  4.3549  1.0882
  802MOL0     H 8204   7.053   8.061  10.239  0.5441 -2.3049 -1.5203
  802MOL0     H 8205   7.362   8.143  10.271  1.2079 -0.9053  1.3500
  802MOL0     H 8206   7.236   8.025  10.310  0.2111  0.0930  0.7569
  802MOL0     H 8207   7.402   7.832  10.243  2.3266 -0.4902  0.3490
  802MOL0     H 8208   7.423   7.944  10.385  0.6634  0.9466 -0.5207
  802MOL0     H 8209   7.587   8.075  10.286  1.9046  2.5428 -5.1064
  802MOL0     H 8210   7.556   7.999  10.131 -1.1937  0.9694  1.0116
  802MOL0     H 8211   7.653   7.840  10.376  0.9287  0.3513 -0.4096
  802MOL0     H 8212   7.624   7.789  10.212 -1.2902  1.0388 -1.3977
  802MOL0     H 8213   7.867   7.830  10.239  0.4902  0.0350  0.8165
  802MOL0     H 8214   7.802   7.952  10.138  1.9810 -2.7818 -0.9694
  802MOL0     H 8215   7.784   8.110  10.361  0.2964  0.3702 -2.3609
  802MOL0     H 8216   7.860   7.970  10.445 -0.0793 -0.0165  0.5925
  802MOL0     H 8217   8.017   8.145  10.378 -1.9021 -0.0043  0.2746
  802MOL0     H 8218   7.997   8.115  10.209 -0.5425  2.7041  0.4503
  802MOL0     H 8219   8.087   7.889  10.403  0.2383  0.6274 -1.3827
  802MOL0     H 8220   8.099   7.894  10.232 -2.9275 -1.9821  1.3835
  802MOL0     H 8221   8.258   8.138  10.155  0.1832 -1.9190 -0.9455
  802MOL0     H 8222   8.438   8.333  10.251  2.4437  2.0650 -1.8387
  802MOL0     H 8223   8.585   8.254  10.321  0.4290  0.6756  0.6086
  802MOL0     H 8224   8.553   8.103  10.115  0.7326  0.4711 -1.0975
  802MOL0     H 8225   8.469   8.238  10.040 -0.2159 -1.1174 -0.2582
  802MOL0     H 8226   8.693   8.369  10.102 -2.3373 -0.0103  2.6981
  802MOL0     H 8227   8.688   8.257   9.965  0.9203  3.6967 -0.1255
  802MOL0     H 8228   8.777   8.069  10.098 -0.8699 -0.0417  0.5579
  802MOL0     H 8229   8.798   8.186  10.234 -3.4619  1.6905  0.2085
  802MOL0     H 8230   8.944   7.955  10.106  0.7396 -0.5448 -0.6302
  802MOL0     H 8231   9.169   7.854  10.139 -0.7195  0.6580 -0.2920
  802MOL0     H 8232   9.711   8.158  10.130 -0.4186  0.3956 -0.5388
  802MOL0     H 8233   9.948   8.075  10.127 -0.7471  0.2253  2.1176
  802MOL0     H 8234  10.008   7.666   9.929  1.8066 -1.0898 -0.7092
  802MOL0     H 8235  10.032   7.788   9.800  0.0322  2.3241  0.1428
  802MOL0     H 8236  10.232   7.649   9.820 -3.9396 -1.7905 -0.3908
  802MOL0     H 8237  10.279   7.811   9.881 -1.8838  1.4935  0.4862
  802MOL0     H 8238  10.225   7.732  10.110 -0.1655  0.3021  0.0532
  802MOL0     H 8239  10.206   7.570  10.042 -0.4083 -0.2907 -1.8965
  802MOL0     H 8240  10.435   7.655  10.152  2.2445  0.6703 -0.1818
  802MOL0     H 8241  10.456   7.725   9.992  1.1892  0.1666  0.7559
  802MOL0     H 8242  10.483   7.518   9.889  3.9251 -2.0187  0.1277
  802MOL0     H 8243  10.402   7.425  10.022  1.1372 -0.6704  1.5546
  802MOL0     H 8244  10.679   7.537  10.040  1.1883  0.0739  1.5487
  802MOL0     H 8245  10.576   7.474  10.172  0.5438  0.3438  0.1441
  802MOL0     H 8246  10.671   7.331   9.918  2.5916  0.5487  0.6112
  802MOL0     H 8247  10.573   7.256  10.051  2.7018 -1.2945  1.4009
  802MOL0     H 8248  10.804   7.192  10.072  1.4394  0.0839  1.6198
  802MOL0     H 8249  10.846   7.367  10.092  1.6706 -2.1467 -1.8455
  802MOL0     H 8250   9.807   7.761   9.858 -0.3597 -0.0908 -0.2430
  802MOL0     H 8251   9.585   7.825   9.903  0.7636 -0.1958 -0.7034
  802MOL0     H 8252   9.366   8.215  10.059 -0.0537 -0.2064 -3.6577
  802MOL0     H 8253   9.127   8.329  10.057  1.0656  0.5125 -2.1379
  802MOL0     H 8254   7.248   8.106   9.853 -0.0777  2.2738 -1.2919
  802MOL0     H 8255   7.027   8.169   9.754  0.5991 -2.7606 -1.4391
  802MOL0     H 8256   6.579   8.266   9.899 -3.4016 -0.2040  0.5375
  802MOL0     H 8257   6.366   8.346   9.802  2.5334  1.5219  1.7599
  802MOL0     H 8258   6.079   8.355   9.601 -2.2429  1.6637  2.5867
  802MOL0     H 8259   6.211   8.397   9.700  2.1780 -0.2016 -0.4543
  802MOL0     H 8260   6.129   8.231   9.870 -1.3992  1.6488  0.3272
  802MOL0     H 8261   6.045   8.137   9.734  1.1112 -0.1354 -1.1086
  802MOL0     H 8262   5.961   8.412   9.760  3.0648 -0.4138 -0.7666
  802MOL0     H 8263   5.957   8.347   9.927  1.1378 -1.6103  1.2767
  802MOL0     H 8264   5.834   8.199   9.679 -1.4914  1.9101 -0.5917
  802MOL0     H 8265   5.814   8.152   9.844  2.5634 -1.7586 -1.6093
  802MOL0     H 8266   5.536   8.481   9.812 -1.6058 -0.0521 -2.6819
  802MOL0     H 8267   6.378   8.026   9.519 -0.2930  1.3387 -0.1201
  802MOL0     H 8268   6.554   7.894   9.500 -1.8501  2.5151  0.9406
  802MOL0     H 8269   6.721   7.962   9.518 -2.0837  0.9366 -3.5031
  802MOL0     H 8270   6.647   7.866   9.654 -1.2559 -0.8657  0.1264
  803MOL0     O 8271  11.028   1.534   1.868  0.8383 -0.0288 -0.0859
  803MOL0     C 8272  10.915   1.581   1.888 -0.2761  0.1568  0.2990
  803MOL0     O 8273  10.871   1.703   1.841 -0.6006 -0.1573  0.1067
  803MOL0     C 8274  10.954   1.776   1.762  0.7177  0.2679  0.3511
  803MOL0     C 8275  10.908   1.836   1.650  0.4519 -0.1762  0.3620
  803MOL0     C 8276  10.991   1.908   1.562  0.1864  0.3581  0.8365
  803MOL0     C 8277  11.124   1.937   1.592 -0.9014  0.4544 -0.2468
  803MOL0     O 8278  11.196   2.034   1.518 -0.3880 -0.1132  0.2255
  803MOL0     C 8279  11.171   2.034   1.369  0.7194  0.3457  0.0074
  803MOL0     C 8280  11.257   2.154   1.319 -0.3453  0.2436  0.1789
  803MOL0     C 8281  11.411   2.138   1.359  0.1474 -0.3587  0.0031
  803MOL0     C 8282  11.450   2.220   1.490 -0.1750  0.6500  0.2842
  803MOL0     C 8283  11.602   2.211   1.501 -0.9128  0.6648 -0.4612
  803MOL0     C 8284  11.644   2.240   1.639  0.4027  0.2424 -0.2610
  803MOL0     C 8285  11.789   2.233   1.660 -0.2083 -1.0598 -0.1840
  803MOL0     C 8286  11.867   2.353   1.604  0.1088  0.8088  0.3395
  803MOL0     N 8287  11.842   2.474   1.674 -0.2410 -0.3624 -0.3244
  803MOL0     C 8288  11.761   2.575   1.620 -0.6362 -0.5577 -0.0484
  803MOL0     C 8289  11.782   2.680   1.706  0.0291 -0.3227  0.9159
  803MOL0     C 8290  11.739   2.825   1.679  0.2992  0.5761  0.4344
  803MOL0     C 8291  11.694   2.896   1.799  0.5121 -0.0090 -0.6339
  803MOL0     C 8292  11.586   3.013   1.789 -0.3109 -1.1869  0.0249
  803MOL0     C 8293  11.517   3.039   1.928 -0.5586  0.8271 -0.3942
  803MOL0     O 8294  11.440   2.928   1.980  0.3126 -0.3299 -0.5073
  803MOL0     C 8295  11.305   2.926   1.934 -0.3377  0.4284 -0.1822
  803MOL0     C 8296  11.243   3.013   1.844  0.1833 -0.5159 -0.1004
  803MOL0     C 8297  11.102   2.993   1.824 -0.3996 -1.1036 -1.2511
  803MOL0     C 8298  11.028   2.891   1.892  0.3017  0.8586  0.0864
  803MOL0     C 8299  10.890   2.869   1.850 -0.0697  0.8094 -0.3886
  803MOL0     O 8300  10.804   2.811   1.941  0.1190  0.5268  0.2059
  803MOL0     C 8301  10.692   2.747   1.899 -0.3254  0.4768 -0.2765
  803MOL0     C 8302  10.678   2.650   1.802  0.6394  0.5444  0.4785
  803MOL0     C 8303  10.564   2.571   1.783  1.0733  0.7311 -0.7802
  803MOL0     C 8304  10.453   2.585   1.869 -0.3262 -0.6558 -0.2961
  803MOL0     O 8305  10.350   2.505   1.855  0.3822  0.2782  0.0491
  803MOL0     C 8306  10.350   2.403   1.951  0.1127 -0.2509 -0.3216
  803MOL0     C 8307  10.275   2.275   1.901 -0.2028 -0.2965 -0.1127
  803MOL0     C 8308  10.121   2.286   1.919 -0.0631 -0.0530  0.0971
  803MOL0     C 8309  10.059   2.165   1.853  0.2925  0.3366  0.2255
  803MOL0     C 8310   9.909   2.161   1.842 -0.2844 -0.1761 -0.1763
  803MOL0     C 8311   9.857   2.029   1.792 -0.2602 -0.5887  0.4498
  803MOL0     C 8312   9.701   2.040   1.798 -0.1837  0.2974 -0.0323
  803MOL0     C 8313   9.624   1.916   1.747 -0.2029  0.5928 -0.4634
  803MOL0    Cl 8314   9.689   1.762   1.804 -0.1339 -0.5780 -0.2209
  803MOL0     C 8315  10.468   2.682   1.973 -0.4121 -0.2021  0.0232
  803MOL0     C 8316  10.592   2.758   1.990  0.4870 -0.5949  0.2764
  803MOL0     O 8317  10.865   2.906   1.740 -0.1817  0.0667  0.1381
  803MOL0     C 8318  11.095   2.813   1.985  1.1313 -0.2795  0.3508
  803MOL0     C 8319  11.233   2.831   2.002 -0.2244  0.1443  0.7920
  803MOL0     N 8320  11.879   2.643   1.799  0.6287 -0.1973 -0.7688
  803MOL0     N 8321  11.911   2.521   1.784  0.0302 -0.3505  0.5983
  803MOL0     C 8322  11.174   1.891   1.711  0.6734  0.4058  0.8812
  803MOL0     C 8323  11.092   1.798   1.785  0.5786  0.1894 -1.0862
  803MOL0     C 8324  10.824   1.485   1.958 -1.2284 -0.5542  0.3954
  803MOL0     C 8325  10.878   1.401   2.051  0.1333 -0.3485  0.1518
  803MOL0     C 8326  10.804   1.307   2.116  0.6936 -0.3922 -0.6707
  803MOL0     C 8327  10.668   1.295   2.088 -0.2052 -0.6783  0.9411
  803MOL0     O 8328  10.607   1.192   2.155 -0.3771 -0.0393 -0.0155
  803MOL0     C 8329  10.485   1.123   2.109 -0.5756  1.3760  0.3272
  803MOL0     C 8330  10.363   1.189   2.178 -1.1189 -0.1734  0.9150
  803MOL0     C 8331  10.238   1.095   2.182  0.2362  0.5482 -0.3411
  803MOL0     C 8332  10.213   1.019   2.047 -0.3448  0.6014 -0.6472
  803MOL0     C 8333  10.206   1.105   1.930 -0.8051  0.8391 -0.5724
  803MOL0     C 8334  10.222   1.172   1.832  0.2188 -0.0169  0.6525
  803MOL0     C 8335  10.610   1.382   1.991  0.0535  0.0585 -0.3994
  803MOL0     C 8336  10.687   1.482   1.928  1.0050 -0.2646 -0.9253
  803MOL0     C 8337  10.607   1.563   1.838 -0.5154  0.6761  0.8458
  803MOL0     H 8338  10.803   1.827   1.625 -0.8282  0.1004  4.7953
  803MOL0     H 8339  10.952   1.948   1.469  2.0035  0.8447  0.2437
  803MOL0     H 8340  11.195   1.936   1.327 -0.1828  0.7873 -1.5915
  803MOL0     H 8341  11.067   2.053   1.343  1.0800  0.3241 -1.5100
  803MOL0     H 8342  11.213   2.242   1.365 -0.1089 -0.2276  1.3427
  803MOL0     H 8343  11.262   2.147   1.210  1.9290 -1.0144  0.2809
  803MOL0     H 8344  11.473   2.170   1.275 -1.3043 -0.5601 -1.1913
  803MOL0     H 8345  11.438   2.035   1.382  2.2785  0.1224 -0.1586
  803MOL0     H 8346  11.422   2.325   1.483 -1.6781  0.4078  2.0054
  803MOL0     H 8347  11.405   2.176   1.579  0.7228  2.1914  1.5584
  803MOL0     H 8348  11.631   2.109   1.476 -1.1637  0.3818  0.3544
  803MOL0     H 8349  11.644   2.282   1.430 -0.8428  3.0355  1.7948
  803MOL0     H 8350  11.616   2.341   1.669  1.1219  0.1500  0.7720
  803MOL0     H 8351  11.594   2.174   1.711  0.0156  0.7601 -0.0543
  803MOL0     H 8352  11.834   2.140   1.623  0.0038 -0.7825 -0.6364
  803MOL0     H 8353  11.811   2.236   1.767 -1.2494  1.3739  0.0292
  803MOL0     H 8354  11.973   2.336   1.623  0.0225 -0.0148  0.1379
  803MOL0     H 8355  11.854   2.361   1.496 -1.7153  0.8546  0.5376
  803MOL0     H 8356  11.699   2.574   1.530 -0.7008 -0.1556 -0.0115
  803MOL0     H 8357  11.826   2.884   1.649 -0.7500  1.2975 -1.3805
  803MOL0     H 8358  11.657   2.817   1.606  1.1115 -1.7521 -0.3151
  803MOL0     H 8359  11.647   2.817   1.857  0.5727 -1.4015 -2.3908
  803MOL0     H 8360  11.782   2.919   1.860 -0.7620 -1.2437  1.8208
  803MOL0     H 8361  11.520   3.002   1.702  1.2808 -2.7322 -1.0670
  803MOL0     H 8362  11.648   3.100   1.767 -0.2360 -1.8757 -3.0021
  803MOL0     H 8363  11.448   3.124   1.925 -1.8920 -0.2646 -2.7867
  803MOL0     H 8364  11.588   3.049   2.011 -1.8202 -1.0908  0.9957
  803MOL0     H 8365  11.300   3.097   1.804  0.0143 -0.7798 -0.9234
  803MOL0     H 8366  11.062   3.070   1.759  2.1390  2.8550  1.3490
  803MOL0     H 8367  10.757   2.629   1.731  2.0175 -1.7913  2.5581
  803MOL0     H 8368  10.566   2.489   1.712 -0.5731  0.5577 -0.6657
  803MOL0     H 8369  10.457   2.382   1.963 -0.5734 -5.2199 -0.7179
  803MOL0     H 8370  10.299   2.438   2.041  0.7918  0.2778 -0.1374
  803MOL0     H 8371  10.307   2.253   1.799 -2.1970 -1.8773 -0.4545
  803MOL0     H 8372  10.309   2.192   1.964 -1.3554  0.2981  1.3668
  803MOL0     H 8373  10.088   2.297   2.022 -1.0979 -2.2589  0.0701
  803MOL0     H 8374  10.086   2.372   1.862  0.5331 -0.4974 -0.9767
  803MOL0     H 8375  10.083   2.070   1.902 -2.6451  0.0690  1.3547
  803MOL0     H 8376  10.103   2.154   1.753  2.6699 -0.1115  1.2515
  803MOL0     H 8377   9.881   2.244   1.777 -1.4795 -1.4397 -1.3557
  803MOL0     H 8378   9.881   2.177   1.947  1.4591 -2.1003  0.6616
  803MOL0     H 8379   9.889   2.016   1.688 -2.5437  1.1842 -0.5632
  803MOL0     H 8380   9.893   1.941   1.845  2.1317  0.6311  1.0127
  803MOL0     H 8381   9.668   2.126   1.739 -1.6235 -0.7204 -0.7999
  803MOL0     H 8382   9.676   2.053   1.904  0.1949  1.8684 -0.1225
  803MOL0     H 8383   9.517   1.920   1.769 -0.1246  0.4543 -0.0611
  803MOL0     H 8384   9.633   1.920   1.638  1.4838 -1.1757 -0.4519
  803MOL0     H 8385  10.389   2.697   2.045 -0.5734 -1.2942  0.0899
  803MOL0     H 8386  10.596   2.832   2.070 -1.7845 -0.3747  0.2529
  803MOL0     H 8387  11.056   2.735   2.049  0.7273  0.5865  1.1858
  803MOL0     H 8388  11.292   2.784   2.080  0.2300  2.3980  1.8740
  803MOL0     H 8389  11.272   1.924   1.743  0.7799  1.1431 -0.1811
  803MOL0     H 8390  11.143   1.775   1.878 -1.8380  1.0789  0.5591
  803MOL0     H 8391  10.984   1.406   2.071  0.7869 -1.3993 -2.6043
  803MOL0     H 8392  10.842   1.233   2.186 -3.6391 -1.0450  1.3043
  803MOL0     H 8393  10.489   1.016   2.130 -2.7698  0.9248 -1.2364
  803MOL0     H 8394  10.476   1.137   2.001 -1.5505 -0.9160  0.0604
  803MOL0     H 8395  10.339   1.283   2.128 -0.4337 -0.3598  0.2114
  803MOL0     H 8396  10.395   1.197   2.283  1.3568 -1.7308  0.3850
  803MOL0     H 8397  10.145   1.151   2.195 -0.3123 -0.7791  2.1294
  803MOL0     H 8398  10.227   1.017   2.259 -3.4089  0.1179 -1.1161
  803MOL0     H 8399  10.296   0.949   2.035  0.1135  0.9747  0.2632
  803MOL0     H 8400  10.127   0.953   2.064  0.3125  0.1374  1.1029
  803MOL0     H 8401  10.228   1.241   1.750 -0.9340  1.9696  2.1574
  803MOL0     H 8402  10.502   1.372   1.980 -0.1516 -0.9265  1.8839
  803MOL0     H 8403  10.645   1.550   1.736  2.6112 -0.1965  2.0020
  803MOL0     H 8404  10.506   1.522   1.831 -0.4496  0.7374 -0.7316
  803MOL0     H 8405  10.616   1.669   1.866  5.9704  0.7089  0.1933
  804MOL0     O 8406   0.513   5.252   6.423  0.4889 -0.2959 -0.5158
  804MOL0     C 8407   0.495   5.239   6.543  1.6531  0.3054  0.3278
  804MOL0     O 8408   0.582   5.275   6.641 -0.4095  0.2445  0.3642
  804MOL0     C 8409   0.708   5.327   6.615 -0.0554  0.4985  0.0710
  804MOL0     C 8410   0.761   5.400   6.721  0.5854  0.9863  0.2782
  804MOL0     C 8411   0.879   5.468   6.719  0.2186 -0.2480  0.0536
  804MOL0     C 8412   0.960   5.460   6.607 -0.2154 -0.5815 -0.4163
  804MOL0     O 8413   1.086   5.517   6.606 -0.4659 -0.5341  0.0043
  804MOL0     C 8414   1.103   5.619   6.503 -1.0518 -0.8602  1.9608
  804MOL0     C 8415   1.227   5.587   6.415  0.5423  0.0241 -0.6708
  804MOL0     C 8416   1.355   5.615   6.503 -0.6590  0.2208  0.7426
  804MOL0     C 8417   1.484   5.592   6.422  0.7743 -0.8572 -0.1034
  804MOL0     C 8418   1.601   5.584   6.515 -0.4046  1.0238 -0.7572
  804MOL0     C 8419   1.733   5.532   6.444 -0.6026 -0.0087 -0.8588
  804MOL0     C 8420   1.853   5.540   6.541 -0.2679  0.8135  1.1897
  804MOL0     C 8421   1.980   5.499   6.460 -0.0507 -0.6483 -1.0713
  804MOL0     N 8422   2.001   5.356   6.447 -0.7623  0.4692 -0.6214
  804MOL0     C 8423   2.012   5.262   6.552  0.0142 -0.3182 -0.2616
  804MOL0     C 8424   2.047   5.145   6.498  0.1290 -0.0721 -0.8766
  804MOL0     C 8425   2.068   5.010   6.568  0.0921 -0.7682  0.2469
  804MOL0     C 8426   2.222   4.984   6.595  0.6065  1.0714  0.5223
  804MOL0     C 8427   2.286   5.080   6.691 -0.6206 -0.6186 -0.3279
  804MOL0     C 8428   2.426   5.042   6.734 -0.8145  0.1725 -0.3191
  804MOL0     O 8429   2.439   4.900   6.757  0.4286  0.6836  0.6011
  804MOL0     C 8430   2.566   4.850   6.777 -0.6292 -0.4756 -0.3580
  804MOL0     C 8431   2.686   4.927   6.783 -0.6187 -0.4583  1.1014
  804MOL0     C 8432   2.817   4.881   6.793  0.1009  0.3936  0.1539
  804MOL0     C 8433   2.838   4.741   6.804  0.1512  0.1723 -0.1257
  804MOL0     C 8434   2.972   4.679   6.828 -0.2164 -1.2323  0.1480
  804MOL0     O 8435   2.982   4.558   6.887  0.2031  0.3132 -0.2824
  804MOL0     C 8436   3.104   4.481   6.899 -0.4658 -1.6772 -0.2497
  804MOL0     C 8437   3.100   4.390   7.004  0.2968  0.3435  0.0022
  804MOL0     C 8438   3.216   4.298   7.023  0.3455  0.3225  0.0315
  804MOL0     C 8439   3.332   4.319   6.946 -0.5972 -0.1377  0.1584
  804MOL0     O 8440   3.442   4.239   6.972  0.4802  1.0085 -0.2391
  804MOL0     C 8441   3.574   4.255   6.923  0.3559  0.0533  0.1172
  804MOL0     C 8442   3.656   4.171   7.011 -0.8155  0.2005  0.2884
  804MOL0     C 8443   3.790   4.168   6.936 -0.0921 -0.4540  0.5038
  804MOL0     C 8444   3.898   4.103   7.029 -0.4588  0.0037 -0.7441
  804MOL0     C 8445   4.025   4.072   6.948  0.1386  0.8883 -0.0476
  804MOL0     C 8446   4.124   4.005   7.046 -0.8417 -0.6443  0.2984
  804MOL0     C 8447   4.255   3.968   6.972 -0.4676  0.1744 -0.0834
  804MOL0     C 8448   4.376   3.938   7.065 -0.2936  1.0004  0.6632
  804MOL0    Cl 8449   4.526   3.927   6.965 -0.8653  0.2192 -0.1617
  804MOL0     C 8450   3.329   4.410   6.846 -0.1747  0.6597 -0.4960
  804MOL0     C 8451   3.214   4.492   6.819 -0.8362 -0.3849 -0.2117
  804MOL0     O 8452   3.068   4.761   6.814  0.0719  0.6204 -0.0274
  804MOL0     C 8453   2.717   4.666   6.812 -0.1426  0.6098 -0.3572
  804MOL0     C 8454   2.588   4.717   6.800 -0.2431 -0.7741  0.0358
  804MOL0     N 8455   2.048   5.158   6.360  0.4918 -0.6611 -0.2535
  804MOL0     N 8456   2.019   5.279   6.330 -0.4366  0.8839  0.4009
  804MOL0     C 8457   0.919   5.376   6.500  0.6141  0.0795 -0.1656
  804MOL0     C 8458   0.795   5.310   6.503 -0.5373 -0.1732  0.4117
  804MOL0     C 8459   0.359   5.194   6.597  0.4212  0.0124 -0.6111
  804MOL0     C 8460   0.344   5.187   6.740 -0.2418  0.0332 -0.3825
  804MOL0     C 8461   0.217   5.180   6.800 -0.0633  0.2280  0.3169
  804MOL0     C 8462   0.103   5.153   6.727  0.4239  0.5636  0.4706
  804MOL0     O 8463  -0.024   5.125   6.788 -0.2170  0.3246  0.2480
  804MOL0     C 8464  -0.057   5.168   6.917  0.0233 -0.4076 -0.0519
  804MOL0     C 8465  -0.208   5.169   6.951 -0.0624  0.3844 -0.1278
  804MOL0     C 8466  -0.269   5.030   6.967  0.2045 -0.0880 -0.0265
  804MOL0     C 8467  -0.410   5.033   7.020 -0.2931 -0.1789  0.8023
  804MOL0     C 8468  -0.491   5.088   6.909  0.8280  0.6120 -0.2576
  804MOL0     C 8469  -0.561   5.123   6.818 -1.0886 -0.1376  0.2848
  804MOL0     C 8470   0.112   5.150   6.592  0.0416  0.1044 -0.0324
  804MOL0     C 8471   0.233   5.168   6.526  0.1341  0.1792 -0.6433
  804MOL0     C 8472   0.238   5.145   6.379  0.3986 -0.0369  0.1143
  804MOL0     H 8473   0.696   5.402   6.808 -0.6752  0.5514 -0.6272
  804MOL0     H 8474   0.913   5.531   6.801 -0.5664 -0.0324  0.2185
  804MOL0     H 8475   1.017   5.625   6.437  0.5323 -2.4419 -0.3993
  804MOL0     H 8476   1.112   5.711   6.562 -3.0616 -0.9503  2.4781
  804MOL0     H 8477   1.226   5.638   6.318  0.9586  0.3870 -0.4902
  804MOL0     H 8478   1.243   5.480   6.399  2.3255  0.0808  0.4472
  804MOL0     H 8479   1.362   5.538   6.581  3.1731 -0.9067 -0.5174
  804MOL0     H 8480   1.360   5.713   6.553 -0.6006  0.0229  1.1278
  804MOL0     H 8481   1.469   5.504   6.358  2.5389 -1.4954  0.2933
  804MOL0     H 8482   1.499   5.678   6.356 -3.2346 -1.4781 -2.1190
  804MOL0     H 8483   1.625   5.682   6.557  3.2653  0.7354 -1.7926
  804MOL0     H 8484   1.568   5.516   6.594  0.9056  0.4090 -0.7052
  804MOL0     H 8485   1.718   5.430   6.406 -0.0940  0.3573 -2.0805
  804MOL0     H 8486   1.753   5.600   6.360  2.3107  0.7467  0.3342
  804MOL0     H 8487   1.832   5.466   6.619  0.7669  0.7891  1.4608
  804MOL0     H 8488   1.859   5.643   6.578 -0.1800  1.0809  0.4378
  804MOL0     H 8489   1.990   5.548   6.362  4.6944 -2.0319 -1.5105
  804MOL0     H 8490   2.071   5.533   6.511  0.8993 -2.3561 -1.5611
  804MOL0     H 8491   2.007   5.294   6.656  3.8305 -1.1729  0.3126
  804MOL0     H 8492   2.027   5.022   6.669 -1.2391 -2.1095 -0.1055
  804MOL0     H 8493   2.019   4.931   6.511 -1.8566 -0.6766  1.6871
  804MOL0     H 8494   2.221   4.885   6.641 -1.0983  1.6480  1.7941
  804MOL0     H 8495   2.271   4.978   6.497 -1.3092 -0.5992 -0.4061
  804MOL0     H 8496   2.221   5.090   6.779 -1.9053 -2.8538 -0.9697
  804MOL0     H 8497   2.303   5.180   6.649  0.4412 -0.8806 -0.5609
  804MOL0     H 8498   2.453   5.099   6.823  0.2728  2.1227 -1.8174
  804MOL0     H 8499   2.492   5.084   6.657 -0.9336  0.0485 -0.4906
  804MOL0     H 8500   2.660   5.032   6.777 -2.6255 -1.0010 -1.6643
  804MOL0     H 8501   2.902   4.949   6.792 -0.7111  1.4223  0.4668
  804MOL0     H 8502   3.013   4.399   7.069 -0.8775  0.7027 -1.5530
  804MOL0     H 8503   3.223   4.225   7.103 -0.5348 -0.4385 -0.5593
  804MOL0     H 8504   3.574   4.203   6.827 -0.1318  0.0054  0.1361
  804MOL0     H 8505   3.621   4.353   6.910  2.5323 -0.8189  1.0920
  804MOL0     H 8506   3.664   4.221   7.108  0.4600  1.8541 -0.6227
  804MOL0     H 8507   3.613   4.071   7.019 -0.2797 -0.2620 -1.8805
  804MOL0     H 8508   3.786   4.103   6.848  0.3310  0.4670 -0.2082
  804MOL0     H 8509   3.818   4.272   6.921  1.0663 -0.4623  2.2906
  804MOL0     H 8510   3.857   4.010   7.069 -1.2404  1.8863  3.3855
  804MOL0     H 8511   3.920   4.161   7.119 -3.6008 -0.7827  0.6841
  804MOL0     H 8512   4.068   4.166   6.913  2.0481 -0.4962 -1.6137
  804MOL0     H 8513   4.014   4.006   6.862 -0.0975 -1.4929  1.6892
  804MOL0     H 8514   4.146   4.072   7.130  1.3678  0.6924 -1.2206
  804MOL0     H 8515   4.087   3.908   7.079 -2.3031 -0.6000 -1.0834
  804MOL0     H 8516   4.276   4.055   6.909 -0.5967  0.6200  0.4782
  804MOL0     H 8517   4.240   3.886   6.902  0.7988  0.1746 -0.3836
  804MOL0     H 8518   4.386   4.023   7.132  0.5968  2.3743 -1.1100
  804MOL0     H 8519   4.360   3.853   7.131  1.4746  0.6040  0.6361
  804MOL0     H 8520   3.408   4.421   6.773 -1.0735  2.0397 -1.3030
  804MOL0     H 8521   3.206   4.555   6.731  0.3953 -2.4461 -1.9030
  804MOL0     H 8522   2.732   4.564   6.846  0.7713  1.7667  3.1601
  804MOL0     H 8523   2.506   4.646   6.804 -1.5788  0.7535  1.1569
  804MOL0     H 8524   0.986   5.362   6.415  0.1889  0.7798 -0.6276
  804MOL0     H 8525   0.773   5.245   6.419  4.0730 -0.9995 -0.4446
  804MOL0     H 8526   0.418   5.195   6.819 -2.8669 -0.4049  2.3310
  804MOL0     H 8527   0.215   5.177   6.908  2.1896  1.1455  0.4453
  804MOL0     H 8528  -0.023   5.268   6.947 -1.3654 -0.3431  1.4889
  804MOL0     H 8529  -0.014   5.093   6.984 -0.6445  1.4722  2.6674
  804MOL0     H 8530  -0.259   5.238   6.883 -1.7022 -0.6378 -0.0126
  804MOL0     H 8531  -0.228   5.216   7.048 -1.0867 -0.3627  0.0521
  804MOL0     H 8532  -0.205   4.970   7.033  0.8877 -0.0739 -0.6679
  804MOL0     H 8533  -0.259   4.975   6.873  1.8357 -1.4097  0.8610
  804MOL0     H 8534  -0.450   4.938   7.058  1.2698 -0.7520  1.0947
  804MOL0     H 8535  -0.406   5.102   7.104  2.6643  1.5688 -0.6194
  804MOL0     H 8536  -0.619   5.154   6.734 -0.2646  2.9748  0.7206
  804MOL0     H 8537   0.027   5.131   6.527 -1.4051  3.2000  0.7146
  804MOL0     H 8538   0.310   5.064   6.361  2.1682  1.5653 -0.3648
  804MOL0     H 8539   0.136   5.117   6.351  0.0988  1.1917 -0.0600
  804MOL0     H 8540   0.267   5.238   6.330  0.0102  0.2592  0.4534
  805MOL0     O 8541  10.278   3.309   3.353 -0.5880  0.6762 -0.0968
  805MOL0     C 8542  10.340   3.255   3.268  0.0772 -0.2925  0.3397
  805MOL0     O 8543  10.313   3.127   3.213  0.2178  0.4623 -0.1938
  805MOL0     C 8544  10.174   3.084   3.221 -0.3180  0.3361  0.7696
  805MOL0     C 8545  10.119   3.028   3.104  0.5583  0.9746 -1.2226
  805MOL0     C 8546   9.992   2.971   3.106  0.0919 -0.0795  0.0547
  805MOL0     C 8547   9.904   2.981   3.216 -0.5738  0.1841 -0.2586
  805MOL0     O 8548   9.779   2.928   3.204 -0.4373  0.5780  0.5727
  805MOL0     C 8549   9.666   3.007   3.244  0.1242  0.2115  0.0871
  805MOL0     C 8550   9.552   3.015   3.149 -0.3003  0.4651  0.7947
  805MOL0     C 8551   9.435   3.080   3.222 -0.1634 -0.1178  0.4885
  805MOL0     C 8552   9.297   3.005   3.184 -0.6415 -0.5757  0.2661
  805MOL0     C 8553   9.249   3.031   3.041 -0.1548  0.6495 -0.2693
  805MOL0     C 8554   9.198   3.176   3.023  0.7634 -0.2226 -0.1764
  805MOL0     C 8555   9.123   3.213   2.885  0.0231 -0.0996  0.5865
  805MOL0     C 8556   9.227   3.260   2.781 -0.4349  0.1169 -0.6401
  805MOL0     N 8557   9.335   3.172   2.734  0.3021 -0.1193 -0.3259
  805MOL0     C 8558   9.315   3.046   2.689 -0.7468 -0.1127  0.2992
  805MOL0     C 8559   9.440   3.009   2.644  0.3392 -0.5801 -0.5598
  805MOL0     C 8560   9.482   2.875   2.586  0.1366 -0.0766  0.5076
  805MOL0     C 8561   9.493   2.759   2.689 -0.1049  0.3671  0.5743
  805MOL0     C 8562   9.555   2.795   2.821 -0.4411 -0.6687 -0.3325
  805MOL0     C 8563   9.699   2.840   2.812 -0.0370  0.6751 -0.1316
  805MOL0     O 8564   9.772   2.736   2.737  0.0685 -0.1401 -0.1137
  805MOL0     C 8565   9.910   2.733   2.753 -0.1281  0.1652 -0.0834
  805MOL0     C 8566   9.969   2.672   2.867 -0.0961 -0.5969  0.0306
  805MOL0     C 8567  10.107   2.693   2.898  0.0563 -0.2345  0.2789
  805MOL0     C 8568  10.190   2.749   2.799  0.8473 -0.8816  0.1596
  805MOL0     C 8569  10.336   2.756   2.805  0.3034 -0.2006  1.0260
  805MOL0     O 8570  10.390   2.750   2.932 -0.5246  0.2420 -0.6900
  805MOL0     C 8571  10.520   2.770   2.962  0.0395 -0.0315 -1.2037
  805MOL0     C 8572  10.620   2.837   2.884  0.1544  0.4648 -0.9872
  805MOL0     C 8573  10.757   2.837   2.920  0.3594  0.6478 -0.2181
  805MOL0     C 8574  10.799   2.758   3.031  0.0847 -0.2558  0.5413
  805MOL0     O 8575  10.937   2.774   3.048  0.6175 -0.4947  0.6509
  805MOL0     C 8576  10.986   2.751   3.181 -0.4284 -0.4147  0.8763
  805MOL0     C 8577  11.140   2.791   3.177 -0.1609 -0.1675  0.2802
  805MOL0     C 8578  11.150   2.912   3.272  0.4028  0.2515  0.2235
  805MOL0     C 8579  11.282   2.973   3.266  0.3877 -0.2391 -1.0624
  805MOL0     C 8580  11.401   2.886   3.302 -0.3005  0.3735  1.1771
  805MOL0     C 8581  11.507   2.977   3.368  0.7432 -0.7249  0.5148
  805MOL0     C 8582  11.644   2.910   3.380 -1.4045 -0.6201 -0.5541
  805MOL0     C 8583  11.742   2.978   3.482 -0.1560  0.3544 -1.0656
  805MOL0    Cl 8584  11.810   3.142   3.449  0.1836  0.2341 -0.1618
  805MOL0     C 8585  10.706   2.680   3.107  0.4114  0.5135 -0.1313
  805MOL0     C 8586  10.565   2.699   3.077 -0.1392 -0.0157 -0.0282
  805MOL0     O 8587  10.397   2.767   2.698 -0.2121 -0.5588 -0.1027
  805MOL0     C 8588  10.127   2.797   2.685 -0.5451 -0.1515  0.4666
  805MOL0     C 8589   9.990   2.804   2.670 -0.0201  1.1162  0.4423
  805MOL0     N 8590   9.531   3.118   2.666 -0.4031  1.1299  0.0440
  805MOL0     N 8591   9.460   3.213   2.718 -0.1655 -0.3720 -0.5613
  805MOL0     C 8592   9.958   3.039   3.336  0.8315 -0.0389 -0.1543
  805MOL0     C 8593  10.087   3.079   3.335 -0.2330  0.2763 -0.0287
  805MOL0     C 8594  10.447   3.343   3.204 -0.5330 -0.0337  0.5438
  805MOL0     C 8595  10.506   3.444   3.285 -0.3486 -0.4010  0.0024
  805MOL0     C 8596  10.586   3.540   3.227 -0.1350  0.3780 -0.5910
  805MOL0     C 8597  10.620   3.533   3.094 -0.3331  0.4675 -0.1548
  805MOL0     O 8598  10.702   3.631   3.055  0.2900 -0.0793 -0.3025
  805MOL0     C 8599  10.727   3.642   2.920  0.3102 -0.7386  0.3380
  805MOL0     C 8600  10.863   3.575   2.895 -0.6429  0.6811  0.7515
  805MOL0     C 8601  10.972   3.639   2.980  0.3461 -0.2300  0.1440
  805MOL0     C 8602  11.110   3.605   2.948  0.0459  0.2306  0.0281
  805MOL0     C 8603  11.204   3.659   3.054  0.5209 -1.1093  0.1256
  805MOL0     C 8604  11.280   3.720   3.127 -0.1892  0.0263 -0.1432
  805MOL0     C 8605  10.590   3.419   3.026  0.0272 -0.2162 -0.0687
  805MOL0     C 8606  10.501   3.332   3.072  0.0774  0.0132 -0.2103
  805MOL0     C 8607  10.425   3.236   2.980  0.3658 -0.8046 -0.6749
  805MOL0     H 8608  10.169   3.022   3.008 -0.9586  3.4269 -2.2724
  805MOL0     H 8609   9.960   2.933   3.010  1.6293  2.1217 -1.4262
  805MOL0     H 8610   9.639   2.966   3.341  0.2969 -1.3470 -0.4999
  805MOL0     H 8611   9.691   3.111   3.271 -0.3256  0.1171  0.8940
  805MOL0     H 8612   9.525   2.911   3.129  3.3635 -0.6171  0.7247
  805MOL0     H 8613   9.585   3.070   3.060  0.6050  0.3892  1.0668
  805MOL0     H 8614   9.429   3.179   3.176 -0.9446 -0.8801 -1.1250
  805MOL0     H 8615   9.446   3.092   3.330  0.9653 -1.1367  0.5003
  805MOL0     H 8616   9.315   2.897   3.181 -1.1851 -0.6726 -2.7918
  805MOL0     H 8617   9.219   3.033   3.256 -0.6069  1.0988 -0.3039
  805MOL0     H 8618   9.325   3.009   2.966 -0.5528  1.7553 -1.0130
  805MOL0     H 8619   9.164   2.965   3.018  0.3825  0.0940 -0.6964
  805MOL0     H 8620   9.126   3.186   3.105 -0.4880 -3.3313 -0.7765
  805MOL0     H 8621   9.275   3.253   3.035  0.9154 -0.3667 -0.2286
  805MOL0     H 8622   9.054   3.296   2.908  1.4299  2.3911 -3.2486
  805MOL0     H 8623   9.060   3.128   2.858 -1.1509  0.9883 -0.2772
  805MOL0     H 8624   9.170   3.297   2.695 -3.5455  0.5851  1.4503
  805MOL0     H 8625   9.281   3.349   2.817  0.9685 -0.3259 -1.5869
  805MOL0     H 8626   9.217   3.001   2.692 -0.6140 -0.4687 -0.2844
  805MOL0     H 8627   9.432   2.841   2.495  2.7593 -0.6141 -0.8435
  805MOL0     H 8628   9.584   2.886   2.546 -0.1006  1.7216  0.3169
  805MOL0     H 8629   9.391   2.722   2.703 -0.6649  1.8503  0.6930
  805MOL0     H 8630   9.552   2.683   2.638 -2.0622 -2.9422  2.8630
  805MOL0     H 8631   9.560   2.711   2.890 -2.1694 -1.5545 -1.2212
  805MOL0     H 8632   9.499   2.880   2.859 -1.2941 -0.9921 -0.8451
  805MOL0     H 8633   9.736   2.863   2.912  0.5747  2.5708 -0.7450
  805MOL0     H 8634   9.709   2.933   2.755  0.6757  0.6427 -0.0683
  805MOL0     H 8635   9.915   2.633   2.952  1.4034 -1.1321  0.7698
  805MOL0     H 8636  10.145   2.643   2.986  1.2170  1.1335  0.5988
  805MOL0     H 8637  10.568   2.899   2.812 -2.4196  1.0927  1.2512
  805MOL0     H 8638  10.826   2.902   2.868  2.5201 -1.1435  0.2584
  805MOL0     H 8639  10.931   2.803   3.260  1.6826 -0.6624  2.5969
  805MOL0     H 8640  10.981   2.643   3.199  0.6794 -0.7594 -0.6960
  805MOL0     H 8641  11.194   2.704   3.215  2.3546  0.1448 -2.2479
  805MOL0     H 8642  11.163   2.811   3.071 -0.2150  0.7423  0.4327
  805MOL0     H 8643  11.085   2.995   3.243  0.9422  0.9216  0.8831
  805MOL0     H 8644  11.123   2.884   3.374 -3.0570 -0.0979 -0.6711
  805MOL0     H 8645  11.267   3.058   3.333 -1.6109 -2.1953  1.1583
  805MOL0     H 8646  11.303   3.023   3.171  0.4030 -0.3162 -1.0996
  805MOL0     H 8647  11.430   2.834   3.210 -1.9496 -1.4463  1.6081
  805MOL0     H 8648  11.379   2.798   3.362 -0.3310 -0.7771 -0.4662
  805MOL0     H 8649  11.504   3.073   3.316 -2.6169 -0.0584  1.7368
  805MOL0     H 8650  11.473   2.996   3.470  1.4966  1.0638  0.4840
  805MOL0     H 8651  11.686   2.917   3.279 -1.1983 -0.9668 -0.4921
  805MOL0     H 8652  11.628   2.809   3.419  0.8380 -1.4756 -1.6845
  805MOL0     H 8653  11.683   2.981   3.574  2.5483  1.5128  0.7707
  805MOL0     H 8654  11.821   2.902   3.488  0.1546  0.7443 -0.0202
  805MOL0     H 8655  10.732   2.620   3.193  0.9053 -0.2196 -0.7727
  805MOL0     H 8656  10.501   2.642   3.144 -0.1681 -0.4559 -0.4197
  805MOL0     H 8657  10.185   2.844   2.605 -0.5744  1.7575  1.5118
  805MOL0     H 8658   9.949   2.852   2.581  0.5419 -0.8044 -0.9087
  805MOL0     H 8659   9.901   3.038   3.428  0.0686  1.4604 -0.5666
  805MOL0     H 8660  10.135   3.109   3.428 -3.8285 -0.7860  2.3885
  805MOL0     H 8661  10.470   3.453   3.387 -2.1274 -0.3567 -0.5910
  805MOL0     H 8662  10.635   3.624   3.276 -0.2369  1.2758 -1.9752
  805MOL0     H 8663  10.730   3.750   2.900  2.4511 -0.6026  1.0426
  805MOL0     H 8664  10.650   3.600   2.856  1.2540  1.3487 -2.3725
  805MOL0     H 8665  10.883   3.588   2.788 -0.4988 -0.1599  0.6715
  805MOL0     H 8666  10.853   3.466   2.905  0.1159  0.5228 -0.0162
  805MOL0     H 8667  10.956   3.606   3.083 -2.2551 -0.0641 -0.1408
  805MOL0     H 8668  10.955   3.747   2.978  1.5742  0.0009  0.8605
  805MOL0     H 8669  11.125   3.497   2.953 -0.0871  0.1997 -0.2244
  805MOL0     H 8670  11.145   3.618   2.845 -1.2312 -1.5564 -0.6853
  805MOL0     H 8671  11.357   3.775   3.177 -1.2867  2.5830 -1.0475
  805MOL0     H 8672  10.614   3.402   2.922  0.8336  2.5188 -0.4053
  805MOL0     H 8673  10.450   3.134   3.012  1.7948 -0.7448 -1.5128
  805MOL0     H 8674  10.316   3.241   2.985  0.3488 -2.1293  3.4030
  805MOL0     H 8675  10.458   3.252   2.876  1.1988  0.6295 -0.2091
  806MOL0     O 8676   3.414  10.543   8.409  0.0581 -0.4353 -0.3148
  806MOL0     C 8677   3.354  10.644   8.446  1.0312 -0.5684  0.3698
  806MOL0     O 8678   3.393  10.730   8.540  0.2495  0.5843 -0.0318
  806MOL0     C 8679   3.517  10.704   8.589  0.6378 -0.0026 -0.4232
  806MOL0     C 8680   3.539  10.666   8.722 -0.0427 -0.6392  0.1421
  806MOL0     C 8681   3.668  10.633   8.772  0.2818 -0.0727  0.0640
  806MOL0     C 8682   3.777  10.642   8.690  0.0988 -0.3596 -0.1067
  806MOL0     O 8683   3.900  10.623   8.749 -0.3142 -0.8815  0.1127
  806MOL0     C 8684   4.026  10.657   8.680  0.3192  0.0256  0.1719
  806MOL0     C 8685   4.067  10.807   8.666  0.0987 -0.0771 -0.0582
  806MOL0     C 8686   4.086  10.873   8.805  0.0204 -0.2794 -0.2986
  806MOL0     C 8687   4.064  11.029   8.804 -0.5271 -0.6116  0.4796
  806MOL0     C 8688   4.059  11.087   8.943  0.7276 -0.4711  0.1810
  806MOL0     C 8689   4.053  11.236   8.913 -0.2617 -0.0365  0.1989
  806MOL0     C 8690   3.915  11.280   8.948 -0.0704 -0.1526  0.0194
  806MOL0     C 8691   3.894  11.430   8.927 -0.4838 -0.4032  0.1376
  806MOL0     N 8692   3.978  11.507   9.018 -0.1163 -0.1842  0.5504
  806MOL0     C 8693   3.948  11.529   9.151 -1.3153 -0.1414  0.0919
  806MOL0     C 8694   4.056  11.599   9.200  0.4367  0.2564  0.8362
  806MOL0     C 8695   4.069  11.650   9.343  0.4884 -0.3174  0.6443
  806MOL0     C 8696   3.949  11.671   9.432  0.3854 -0.0884  0.5017
  806MOL0     C 8697   3.834  11.754   9.363  0.1032  0.1113 -0.7906
  806MOL0     C 8698   3.705  11.763   9.454  1.0716 -0.3494  0.7537
  806MOL0     O 8699   3.625  11.859   9.382 -0.0798  0.7466  0.0808
  806MOL0     C 8700   3.497  11.870   9.418  0.5505  0.7100 -0.4245
  806MOL0     C 8701   3.429  11.804   9.526  0.4636  0.7072 -0.5764
  806MOL0     C 8702   3.287  11.822   9.544 -0.0711 -0.2580  0.0751
  806MOL0     C 8703   3.214  11.900   9.460 -0.0784 -0.6449 -0.0785
  806MOL0     C 8704   3.066  11.909   9.473  0.7885  0.1499 -0.2304
  806MOL0     O 8705   2.998  11.810   9.533  0.0578 -0.5303 -0.3866
  806MOL0     C 8706   2.865  11.814   9.552  0.8513 -0.1464  0.0010
  806MOL0     C 8707   2.818  11.724   9.654  0.3109 -0.1178 -0.3091
  806MOL0     C 8708   2.680  11.704   9.677 -0.5070 -0.3794  0.0930
  806MOL0     C 8709   2.583  11.771   9.597 -0.2905 -0.5369  0.7919
  806MOL0     O 8710   2.454  11.763   9.633 -0.4236 -0.0665 -0.0222
  806MOL0     C 8711   2.351  11.817   9.540 -0.0021  0.1467 -0.3455
  806MOL0     C 8712   2.213  11.782   9.596  0.3359  0.8022 -0.0433
  806MOL0     C 8713   2.179  11.626   9.603  0.2045  0.6310  0.6349
  806MOL0     C 8714   2.047  11.596   9.669  0.9514  0.3523  0.6269
  806MOL0     C 8715   2.015  11.454   9.687 -0.4527 -0.0971 -0.4203
  806MOL0     C 8716   1.881  11.441   9.755 -0.2135 -0.7313 -0.4457
  806MOL0     C 8717   1.797  11.316   9.728 -0.9014 -0.0393  0.0968
  806MOL0     C 8718   1.694  11.300   9.848 -0.0537 -0.0185 -0.0036
  806MOL0    Cl 8719   1.771  11.277  10.009  0.3499  0.0713 -0.1793
  806MOL0     C 8720   2.628  11.868   9.507  0.5921 -1.2706 -0.3227
  806MOL0     C 8721   2.761  11.891   9.484  0.1069 -0.7640  0.3261
  806MOL0     O 8722   3.018  12.013   9.430  0.4410 -0.6124 -0.2053
  806MOL0     C 8723   3.276  11.971   9.367  0.4514 -0.4547 -0.0468
  806MOL0     C 8724   3.411  11.949   9.339 -0.1906 -0.3925  0.2358
  806MOL0     N 8725   4.151  11.613   9.098  0.2044  0.8463 -0.0461
  806MOL0     N 8726   4.100  11.559   8.994  0.2621  0.2100  0.9113
  806MOL0     C 8727   3.761  10.687   8.557  0.2400  0.1769  0.8258
  806MOL0     C 8728   3.633  10.722   8.512 -1.0829 -0.4793 -0.4850
  806MOL0     C 8729   3.234  10.680   8.363  0.0750 -0.7832  0.2184
  806MOL0     C 8730   3.225  10.817   8.323  0.1837 -0.1151  0.2346
  806MOL0     C 8731   3.113  10.864   8.261 -0.2797 -0.4417 -0.0890
  806MOL0     C 8732   3.005  10.779   8.228  0.3631  0.9707 -0.2264
  806MOL0     O 8733   2.885  10.820   8.178  0.3851 -0.0331 -0.0857
  806MOL0     C 8734   2.855  10.960   8.170  0.2733 -0.0791  0.2062
  806MOL0     C 8735   2.712  10.973   8.128  0.4939  0.1608 -0.3776
  806MOL0     C 8736   2.646  10.850   8.054 -0.4932 -0.0281  0.1760
  806MOL0     C 8737   2.512  10.888   7.992 -0.7724 -0.5659 -1.1195
  806MOL0     C 8738   2.522  10.964   7.866 -0.1808  0.9916 -0.0869
  806MOL0     C 8739   2.524  11.042   7.776  0.3172 -0.8161  0.2789
  806MOL0     C 8740   3.026  10.639   8.245 -0.3649 -0.3000 -0.2597
  806MOL0     C 8741   3.131  10.594   8.320 -0.1081  0.1524  0.7164
  806MOL0     C 8742   3.125  10.442   8.356  0.4583 -0.7750  0.0100
  806MOL0     H 8743   3.454  10.650   8.789 -0.8115  2.3133  0.0127
  806MOL0     H 8744   3.686  10.606   8.875  1.4106 -1.2969 -0.4292
  806MOL0     H 8745   4.105  10.604   8.735 -0.7445 -1.5432  0.2513
  806MOL0     H 8746   4.024  10.594   8.590  3.1345 -0.8299  0.6023
  806MOL0     H 8747   3.989  10.863   8.614  1.1909  1.8823  0.3119
  806MOL0     H 8748   4.154  10.816   8.601 -0.6183 -0.5249 -1.1076
  806MOL0     H 8749   4.179  10.846   8.855  1.3626 -0.4974 -2.7678
  806MOL0     H 8750   4.005  10.837   8.870  0.4908 -1.8914 -0.5432
  806MOL0     H 8751   4.144  11.072   8.743  0.5059  0.7843  2.7139
  806MOL0     H 8752   3.969  11.056   8.756  0.5081  2.2665 -0.1203
  806MOL0     H 8753   3.971  11.043   8.991 -0.0077 -3.1968 -3.2595
  806MOL0     H 8754   4.153  11.066   8.993  0.6088  0.8008  0.9694
  806MOL0     H 8755   4.130  11.298   8.961  0.9848 -1.0012 -0.4954
  806MOL0     H 8756   4.077  11.262   8.810 -0.0137  2.4114  0.8075
  806MOL0     H 8757   3.886  11.257   9.051  3.0423 -2.1924  0.5698
  806MOL0     H 8758   3.849  11.226   8.880 -1.5696  1.2802  0.2751
  806MOL0     H 8759   3.927  11.448   8.824 -0.6112  3.3554  0.6318
  806MOL0     H 8760   3.789  11.461   8.931 -0.2122  1.2035 -2.6194
  806MOL0     H 8761   3.858  11.493   9.201  0.5955 -2.5792  2.0276
  806MOL0     H 8762   4.129  11.573   9.391  3.2955 -0.1359 -2.2705
  806MOL0     H 8763   4.133  11.738   9.333  2.6146 -1.9951 -1.8290
  806MOL0     H 8764   3.909  11.573   9.460  2.2599 -1.5887 -1.6621
  806MOL0     H 8765   3.982  11.719   9.525  0.6293 -1.5087  1.1834
  806MOL0     H 8766   3.809  11.715   9.264  2.5563  1.5271 -2.0429
  806MOL0     H 8767   3.871  11.856   9.358  1.1347  0.0159  2.3698
  806MOL0     H 8768   3.730  11.804   9.552  1.1066 -0.3855  0.7588
  806MOL0     H 8769   3.645  11.672   9.452 -1.3650  1.1665 -0.4568
  806MOL0     H 8770   3.468  11.742   9.606 -1.2179  0.1817 -0.1067
  806MOL0     H 8771   3.228  11.786   9.628  0.5865  0.3248  0.7916
  806MOL0     H 8772   2.893  11.674   9.714 -0.0293 -2.0990 -1.4155
  806MOL0     H 8773   2.643  11.639   9.756 -2.2570 -0.7978 -1.0070
  806MOL0     H 8774   2.354  11.925   9.525  1.0143  0.0747 -0.7849
  806MOL0     H 8775   2.370  11.766   9.445  0.7537 -1.2476  0.5134
  806MOL0     H 8776   2.206  11.817   9.699  3.1862 -0.0992  0.5435
  806MOL0     H 8777   2.141  11.839   9.536  1.0950  0.3685 -1.4021
  806MOL0     H 8778   2.174  11.592   9.499 -1.3790  0.8058  0.6330
  806MOL0     H 8779   2.255  11.571   9.659  1.4921  0.4694 -1.1792
  806MOL0     H 8780   1.967  11.629   9.602 -1.0763 -1.3222  2.0581
  806MOL0     H 8781   2.039  11.651   9.763 -0.3412 -0.5468  1.0759
  806MOL0     H 8782   2.095  11.405   9.745  0.0665  0.3323 -0.7671
  806MOL0     H 8783   2.013  11.408   9.588 -1.2371  0.5307 -0.7022
  806MOL0     H 8784   1.892  11.452   9.864  0.6369 -1.3409 -0.4645
  806MOL0     H 8785   1.814  11.520   9.720 -2.0133 -2.1218 -0.2944
  806MOL0     H 8786   1.862  11.228   9.724 -0.5010  0.2900 -3.6447
  806MOL0     H 8787   1.739  11.323   9.636 -0.4932 -0.7849 -0.2217
  806MOL0     H 8788   1.640  11.395   9.850  0.6728  0.4010  0.1930
  806MOL0     H 8789   1.626  11.217   9.825 -1.0983 -0.0160  2.7165
  806MOL0     H 8790   2.568  11.942   9.455  0.6471  1.3498  2.9583
  806MOL0     H 8791   2.790  11.965   9.410  0.7190  0.4963  1.7621
  806MOL0     H 8792   3.227  12.045   9.304  1.1800  0.7748  0.7888
  806MOL0     H 8793   3.453  12.008   9.258 -1.5142 -2.0320 -1.7285
  806MOL0     H 8794   3.845  10.705   8.491  0.3922 -1.0971  0.6424
  806MOL0     H 8795   3.620  10.738   8.406 -0.2038  0.1092 -0.5118
  806MOL0     H 8796   3.309  10.884   8.338  0.5694 -0.3319 -0.8893
  806MOL0     H 8797   3.108  10.971   8.245  1.3517 -0.4156 -0.5824
  806MOL0     H 8798   2.921  11.016   8.103 -1.7606  1.6027 -0.5071
  806MOL0     H 8799   2.868  11.012   8.265  2.8986  2.2697 -1.2877
  806MOL0     H 8800   2.697  11.057   8.059 -1.1643  0.8197  0.7290
  806MOL0     H 8801   2.650  10.993   8.215 -0.1219 -1.0730 -0.5024
  806MOL0     H 8802   2.632  10.769   8.125 -2.1147  0.2001  0.1566
  806MOL0     H 8803   2.710  10.794   7.985  0.9152 -0.3734  1.7229
  806MOL0     H 8804   2.444  10.803   7.976 -1.9753  0.0753  0.2847
  806MOL0     H 8805   2.461  10.956   8.060  1.8002  0.1261  0.2414
  806MOL0     H 8806   2.530  11.125   7.709  2.6806  1.4635  2.9905
  806MOL0     H 8807   2.958  10.559   8.217  0.8997 -1.7594  0.7041
  806MOL0     H 8808   3.191  10.414   8.439  1.3722  1.0563 -0.0470
  806MOL0     H 8809   3.023  10.420   8.388 -0.4648  4.7354  1.9102
  806MOL0     H 8810   3.146  10.382   8.267  3.5887  1.1472 -0.6939
  807MOL0     O 8811   6.937  10.937   4.701 -0.4528  0.0636  0.4189
  807MOL0     C 8812   6.973  10.821   4.719 -0.3797  0.0801  0.5988
  807MOL0     O 8813   6.923  10.711   4.657 -0.1595 -0.1489 -0.0602
  807MOL0     C 8814   6.824  10.738   4.567  0.0536 -0.3112  0.6839
  807MOL0     C 8815   6.830  10.708   4.437 -0.5626 -0.5301 -0.0001
  807MOL0     C 8816   6.726  10.707   4.355  1.0517 -0.3782  0.8226
  807MOL0     C 8817   6.600  10.757   4.402  1.1355  0.0410 -0.0930
  807MOL0     O 8818   6.483  10.774   4.327  0.4937  0.0645  0.4355
  807MOL0     C 8819   6.465  10.684   4.213 -0.6575 -0.7215 -0.3690
  807MOL0     C 8820   6.317  10.659   4.177 -0.4924 -0.0129 -0.2942
  807MOL0     C 8821   6.224  10.667   4.301 -0.9588  0.3295 -0.4876
  807MOL0     C 8822   6.073  10.684   4.276  0.9697 -0.1274  0.0671
  807MOL0     C 8823   5.982  10.668   4.398  0.0797 -0.0141  0.2316
  807MOL0     C 8824   5.978  10.793   4.486  0.3751  0.5450 -0.0195
  807MOL0     C 8825   5.901  10.779   4.615  0.2884  0.5797  0.3510
  807MOL0     C 8826   5.929  10.900   4.708  0.7019  0.2527 -0.1607
  807MOL0     N 8827   5.884  10.874   4.842 -0.5085  0.3878  0.1639
  807MOL0     C 8828   5.755  10.905   4.887 -0.4140 -0.5220  0.3525
  807MOL0     C 8829   5.756  10.874   5.023 -0.8269  0.0579  0.3076
  807MOL0     C 8830   5.634  10.868   5.114 -0.6259  0.0975  0.9450
  807MOL0     C 8831   5.547  10.751   5.073  0.7493  0.4788 -0.5044
  807MOL0     C 8832   5.573  10.622   5.161  1.1693 -0.2358  0.2958
  807MOL0     C 8833   5.710  10.562   5.142 -0.4816  0.3624 -0.6981
  807MOL0     O 8834   5.715  10.435   5.216 -0.2268 -0.8279  0.6155
  807MOL0     C 8835   5.832  10.369   5.229 -0.6518 -0.0989 -0.5379
  807MOL0     C 8836   5.953  10.414   5.174 -0.2835  0.6193 -0.4783
  807MOL0     C 8837   6.069  10.342   5.220  0.1649  0.2611 -0.5772
  807MOL0     C 8838   6.059  10.224   5.298  0.3869 -0.1301  0.0591
  807MOL0     C 8839   6.177  10.149   5.350  0.5812 -0.1774 -0.5197
  807MOL0     O 8840   6.152  10.036   5.414  0.8380  0.1883  0.2286
  807MOL0     C 8841   6.266   9.970   5.473  0.0122 -0.0996  0.8917
  807MOL0     C 8842   6.279   9.830   5.459 -0.0144  0.4648  0.1562
  807MOL0     C 8843   6.373   9.752   5.523 -0.4160  0.1139 -0.9080
  807MOL0     C 8844   6.464   9.817   5.610  0.3487  0.1317 -0.3897
  807MOL0     O 8845   6.562   9.745   5.680 -0.0140 -0.0591  0.2043
  807MOL0     C 8846   6.584   9.610   5.656  0.0569 -0.0364 -0.1315
  807MOL0     C 8847   6.716   9.565   5.725  0.0332  0.7649  0.2134
  807MOL0     C 8848   6.754   9.418   5.717  0.5754 -0.1791  1.2513
  807MOL0     C 8849   6.706   9.336   5.835 -0.1927 -0.0886 -0.0052
  807MOL0     C 8850   6.755   9.192   5.830  0.7073  0.8089  0.6039
  807MOL0     C 8851   6.699   9.098   5.929  1.3590 -0.2044  0.2482
  807MOL0     C 8852   6.767   8.971   5.944 -0.3252  0.0663 -0.4878
  807MOL0     C 8853   6.773   8.876   5.822 -0.6471 -0.4553 -0.5484
  807MOL0    Cl 8854   6.626   8.812   5.773 -0.0442 -0.3834  0.4594
  807MOL0     C 8855   6.469   9.961   5.610  0.0296  0.3139 -0.0738
  807MOL0     C 8856   6.368  10.034   5.540 -0.6531 -0.5122 -0.4113
  807MOL0     O 8857   6.283  10.188   5.318 -0.4412  0.3042  0.7935
  807MOL0     C 8858   5.935  10.175   5.332  0.3424 -0.1518 -0.0342
  807MOL0     C 8859   5.825  10.254   5.306  0.1612 -0.0041 -0.3825
  807MOL0     N 8860   5.882  10.815   5.048 -0.3312  0.1960 -0.1930
  807MOL0     N 8861   5.953  10.811   4.942 -0.0928 -0.0260 -0.6151
  807MOL0     C 8862   6.589  10.783   4.535 -0.3122 -0.0408 -0.7132
  807MOL0     C 8863   6.702  10.776   4.616 -0.2347  0.5097 -0.2863
  807MOL0     C 8864   7.053  10.793   4.840  0.2760  0.3996  0.4075
  807MOL0     C 8865   7.121  10.667   4.847  0.1225 -1.4731  0.0613
  807MOL0     C 8866   7.194  10.625   4.957 -0.5971 -0.5081  0.9094
  807MOL0     C 8867   7.201  10.710   5.062  0.1900  0.5846  0.4203
  807MOL0     O 8868   7.265  10.654   5.166  0.7560  0.1434 -0.4161
  807MOL0     C 8869   7.238  10.715   5.291 -0.2581  0.6527 -0.7004
  807MOL0     C 8870   7.262  10.619   5.409  0.1768 -0.3175  0.3355
  807MOL0     C 8871   7.164  10.503   5.425  0.2644  1.0803 -0.3152
  807MOL0     C 8872   7.231  10.373   5.449 -0.5022  0.1068  0.7391
  807MOL0     C 8873   7.285  10.370   5.583  0.9259  0.2358 -0.1006
  807MOL0     C 8874   7.335  10.350   5.684  0.1050  0.1546 -0.5144
  807MOL0     C 8875   7.151  10.840   5.056  0.2808  0.1299  0.4521
  807MOL0     C 8876   7.073  10.881   4.951 -0.0608 -0.1061  0.8080
  807MOL0     C 8877   7.021  11.021   4.959 -0.7092 -0.4079 -0.5278
  807MOL0     H 8878   6.930  10.681   4.404  0.6718  1.8733  1.4994
  807MOL0     H 8879   6.731  10.678   4.250  1.4621 -0.2413  0.8012
  807MOL0     H 8880   6.515  10.722   4.124  1.7529 -2.8876 -0.0381
  807MOL0     H 8881   6.520  10.590   4.224 -0.6316 -0.5278  1.6038
  807MOL0     H 8882   6.305  10.558   4.137 -0.3493 -0.2071  0.1402
  807MOL0     H 8883   6.291  10.733   4.101 -2.1721  1.1365  1.3108
  807MOL0     H 8884   6.258  10.747   4.367  1.2276 -1.3329  0.5150
  807MOL0     H 8885   6.231  10.575   4.360 -1.6156  2.0380  2.4397
  807MOL0     H 8886   6.066  10.776   4.217  1.2675  2.0816  3.2257
  807MOL0     H 8887   6.040  10.605   4.208 -0.1879 -0.8552  1.4467
  807MOL0     H 8888   5.882  10.649   4.357 -0.6789  1.2648  1.3892
  807MOL0     H 8889   6.007  10.577   4.452 -2.5076 -1.4219 -0.7388
  807MOL0     H 8890   6.081  10.795   4.522  0.2065  1.2360  0.4521
  807MOL0     H 8891   5.959  10.881   4.424 -1.7648  0.8693  1.0237
  807MOL0     H 8892   5.931  10.687   4.667  0.0578  0.5330  0.4033
  807MOL0     H 8893   5.796  10.762   4.589 -0.1025  1.7120  1.1490
  807MOL0     H 8894   6.035  10.925   4.699  0.0253  2.9654 -2.1443
  807MOL0     H 8895   5.873  10.981   4.660  0.2721 -0.6457 -1.2123
  807MOL0     H 8896   5.676  10.947   4.826 -1.0428 -2.1014  0.0295
  807MOL0     H 8897   5.666  10.853   5.218  1.0210 -0.4203  0.3982
  807MOL0     H 8898   5.571  10.956   5.102  0.0023  0.4317  0.0474
  807MOL0     H 8899   5.441  10.775   5.085  0.7642 -0.1497  1.1791
  807MOL0     H 8900   5.561  10.726   4.967  0.0318 -0.9433 -0.2850
  807MOL0     H 8901   5.507  10.544   5.123  0.8712  0.4127 -0.5376
  807MOL0     H 8902   5.552  10.637   5.267  1.5110 -2.9311  0.8194
  807MOL0     H 8903   5.789  10.627   5.181 -1.6152 -0.8525  4.3113
  807MOL0     H 8904   5.711  10.532   5.036 -1.9034 -0.2708 -0.5572
  807MOL0     H 8905   5.964  10.499   5.107  0.7126  1.5443  0.8020
  807MOL0     H 8906   6.165  10.382   5.190  0.1233  0.9857  0.2036
  807MOL0     H 8907   6.202   9.771   5.410 -1.3546 -1.1528  3.8744
  807MOL0     H 8908   6.373   9.644   5.514  2.0244  0.1462 -2.0815
  807MOL0     H 8909   6.498   9.556   5.697 -0.6948  2.5189  1.9033
  807MOL0     H 8910   6.586   9.589   5.549  0.0629  0.4295 -0.2249
  807MOL0     H 8911   6.801   9.622   5.688  0.6530 -0.5057 -0.4026
  807MOL0     H 8912   6.714   9.596   5.830 -3.2471  0.6612  0.2945
  807MOL0     H 8913   6.710   9.370   5.630  1.5649 -0.4361  0.8855
  807MOL0     H 8914   6.862   9.403   5.727  0.6734  1.1617  2.7755
  807MOL0     H 8915   6.597   9.343   5.834 -0.2023 -0.2331 -1.3800
  807MOL0     H 8916   6.752   9.386   5.920  1.7784  0.5797 -1.4173
  807MOL0     H 8917   6.864   9.192   5.831  0.7844 -0.4827 -1.5383
  807MOL0     H 8918   6.729   9.146   5.734  0.2708 -1.4663  1.7494
  807MOL0     H 8919   6.691   9.139   6.030 -0.4174 -0.1851  0.1315
  807MOL0     H 8920   6.596   9.072   5.902  1.8111 -0.9783 -0.8207
  807MOL0     H 8921   6.722   8.914   6.026 -1.0484  2.6255  1.0094
  807MOL0     H 8922   6.869   8.991   5.977 -0.6415  1.6334 -0.3981
  807MOL0     H 8923   6.814   8.938   5.742 -0.4382 -0.4537 -0.4415
  807MOL0     H 8924   6.843   8.793   5.836 -0.1778  0.0217 -0.0008
  807MOL0     H 8925   6.540  10.025   5.660  0.5531 -0.2877 -0.0218
  807MOL0     H 8926   6.363  10.143   5.535 -5.8779 -0.5086 -0.5718
  807MOL0     H 8927   5.928  10.074   5.373  1.7769 -0.1385  0.2750
  807MOL0     H 8928   5.730  10.214   5.338  2.1561 -5.0751  0.0601
  807MOL0     H 8929   6.498  10.822   4.581 -1.0750 -1.7364 -0.7225
  807MOL0     H 8930   6.695  10.805   4.721  0.8067  1.3668 -0.4421
  807MOL0     H 8931   7.122  10.597   4.764  2.0043 -1.8182  0.3272
  807MOL0     H 8932   7.245  10.529   4.950  0.5596  0.1367 -0.1275
  807MOL0     H 8933   7.131  10.739   5.293 -0.2736  0.8687 -2.5332
  807MOL0     H 8934   7.298  10.802   5.315 -0.3664  0.3379  0.7914
  807MOL0     H 8935   7.250  10.670   5.505 -0.7243 -3.7435  2.2466
  807MOL0     H 8936   7.370  10.605   5.405  0.7225  3.1881 -3.1954
  807MOL0     H 8937   7.096  10.500   5.339 -1.2188  1.2853  0.8190
  807MOL0     H 8938   7.104  10.525   5.514  2.0683 -1.5465  1.7013
  807MOL0     H 8939   7.161  10.289   5.442  0.0738 -0.3089 -0.1390
  807MOL0     H 8940   7.312  10.345   5.380  0.7311  0.9962  1.7808
  807MOL0     H 8941   7.382  10.344   5.780  0.8695  0.5725 -0.8521
  807MOL0     H 8942   7.175  10.917   5.129 -0.3511  1.0610 -0.2940
  807MOL0     H 8943   6.913  11.033   4.948 -0.3677  3.4296 -0.8102
  807MOL0     H 8944   7.051  11.070   5.052 -3.3048 -1.2042  0.8385
  807MOL0     H 8945   7.065  11.081   4.879 -0.6807 -1.6086 -1.4493
  808MOL0     O 8946   7.000  10.014   4.965 -0.5686 -0.0336  0.5663
  808MOL0     C 8947   7.100  10.000   4.893  0.8624 -0.3933 -1.1756
  808MOL0     O 8948   7.110   9.920   4.788  0.2223 -0.0137  0.7508
  808MOL0     C 8949   6.998   9.873   4.720 -0.8909 -0.4328  0.0520
  808MOL0     C 8950   6.939   9.951   4.625 -0.3058  0.4399  0.8199
  808MOL0     C 8951   6.818   9.905   4.567  0.6306  0.1579  0.6155
  808MOL0     C 8952   6.757   9.783   4.602  0.0265 -0.3599 -0.6246
  808MOL0     O 8953   6.641   9.739   4.540 -1.1722 -0.0013  0.5395
  808MOL0     C 8954   6.534   9.732   4.628 -0.1262 -0.2350 -0.6561
  808MOL0     C 8955   6.493   9.585   4.637  0.0100 -0.1216  0.1518
  808MOL0     C 8956   6.388   9.551   4.744  0.1315  0.2628 -0.3553
  808MOL0     C 8957   6.426   9.598   4.875 -0.0054 -0.6134  0.4808
  808MOL0     C 8958   6.356   9.522   4.985  0.1205  0.3067 -0.0064
  808MOL0     C 8959   6.371   9.574   5.130  0.2865  0.4283  0.0074
  808MOL0     C 8960   6.517   9.581   5.189  0.5995 -0.1581 -0.3278
  808MOL0     C 8961   6.579   9.709   5.163  0.7961  0.0967  0.6179
  808MOL0     N 8962   6.696   9.739   5.244 -0.4249  0.0447  0.5389
  808MOL0     C 8963   6.784   9.832   5.216 -0.1687  0.5225 -0.1966
  808MOL0     C 8964   6.888   9.809   5.296  0.5533 -0.0560 -0.0623
  808MOL0     C 8965   7.004   9.904   5.326  0.1031 -0.8095 -0.3546
  808MOL0     C 8966   6.963  10.039   5.383  0.0860  0.0736  0.4349
  808MOL0     C 8967   6.927  10.026   5.536  0.4138 -0.3750 -0.2693
  808MOL0     C 8968   6.882  10.154   5.602 -0.1261 -0.5510 -0.0954
  808MOL0     O 8969   6.765  10.196   5.525  0.2416  0.5746  0.9231
  808MOL0     C 8970   6.712  10.320   5.549  0.3335  0.3203 -0.6566
  808MOL0     C 8971   6.586  10.356   5.494  0.0988  0.1865  0.1957
  808MOL0     C 8972   6.519  10.480   5.524  0.7397 -0.6166 -0.1531
  808MOL0     C 8973   6.579  10.568   5.616 -0.0486  0.5040  1.2187
  808MOL0     C 8974   6.529  10.701   5.650  0.6845 -0.6402 -0.1111
  808MOL0     O 8975   6.398  10.728   5.617  0.1505 -0.0187 -0.1196
  808MOL0     C 8976   6.347  10.855   5.634 -0.8837  0.7438  0.2701
  808MOL0     C 8977   6.340  10.948   5.536  0.6116  0.2931 -0.1599
  808MOL0     C 8978   6.271  11.073   5.552 -0.1319 -0.1502  0.0358
  808MOL0     C 8979   6.242  11.109   5.685 -0.9460  0.4442 -0.8761
  808MOL0     O 8980   6.184  11.228   5.718 -0.0847  0.0279 -0.0670
  808MOL0     C 8981   6.115  11.294   5.618  0.0780  0.3544  0.1586
  808MOL0     C 8982   6.044  11.407   5.689 -0.6494 -0.6904  0.6999
  808MOL0     C 8983   6.149  11.509   5.756  0.8089 -0.6876  0.1045
  808MOL0     C 8984   6.093  11.650   5.758  0.6007 -0.4096 -0.6562
  808MOL0     C 8985   6.185  11.756   5.813  0.3018 -1.3410  0.2788
  808MOL0     C 8986   6.188  11.755   5.965  0.5957 -0.3141  0.3175
  808MOL0     C 8987   6.271  11.880   6.015 -1.2713 -0.1867 -0.5670
  808MOL0     C 8988   6.314  11.856   6.160 -1.1448 -0.2505 -0.9105
  808MOL0    Cl 8989   6.191  11.844   6.285 -0.1276  0.0282  0.2106
  808MOL0     C 8990   6.264  11.023   5.783  0.5244  1.6556 -0.6305
  808MOL0     C 8991   6.306  10.893   5.757 -0.7235 -0.2831  0.1688
  808MOL0     O 8992   6.592  10.777   5.718 -0.4531 -0.3019  0.3170
  808MOL0     C 8993   6.696  10.526   5.681 -0.6414 -0.1077 -0.2682
  808MOL0     C 8994   6.764  10.410   5.648  0.0151  0.6975 -0.4494
  808MOL0     N 8995   6.863   9.701   5.375  0.8122  0.0316  0.7494
  808MOL0     N 8996   6.739   9.657   5.345 -0.4500 -0.2308  0.0204
  808MOL0     C 8997   6.830   9.699   4.693  0.2368  0.7184  0.5905
  808MOL0     C 8998   6.949   9.743   4.753  0.9182 -0.8501  0.8479
  808MOL0     C 8999   7.225  10.066   4.928  0.8204  0.4412  0.3583
  808MOL0     C 9000   7.344   9.988   4.911 -0.1161  0.2823  0.3060
  808MOL0     C 9001   7.476  10.041   4.936  0.0681  0.9819 -0.5324
  808MOL0     C 9002   7.488  10.166   4.997  0.1534 -0.9690  0.1941
  808MOL0     O 9003   7.612  10.224   5.017 -0.5903 -0.1737 -0.1368
  808MOL0     C 9004   7.725  10.200   4.929  0.0458  0.2892  0.0331
  808MOL0     C 9005   7.844  10.297   4.962 -0.9154 -0.1300 -0.3036
  808MOL0     C 9006   7.968  10.211   5.008 -0.2736  0.0892 -0.0996
  808MOL0     C 9007   8.086  10.314   5.026 -0.1451  0.9583  0.3801
  808MOL0     C 9008   8.207  10.237   5.068  0.1077 -0.3061 -0.5571
  808MOL0     C 9009   8.303  10.174   5.111  0.4959  0.1976  1.0504
  808MOL0     C 9010   7.371  10.234   5.033 -0.1329 -0.4813 -0.2042
  808MOL0     C 9011   7.237  10.188   5.000  1.0615  0.1081 -0.3493
  808MOL0     C 9012   7.122  10.264   5.052  0.1858 -0.1025 -0.0790
  808MOL0     H 9013   6.980  10.046   4.592  0.0428 -0.3250 -1.0997
  808MOL0     H 9014   6.775   9.979   4.499  0.5333  0.9514  1.5268
  808MOL0     H 9015   6.564   9.776   4.724 -0.5073 -2.3019  0.4513
  808MOL0     H 9016   6.443   9.785   4.598  0.5037  2.1228  1.3013
  808MOL0     H 9017   6.583   9.532   4.669 -1.1457 -1.0917  1.9648
  808MOL0     H 9018   6.453   9.539   4.547 -0.4552 -1.0552  0.8165
  808MOL0     H 9019   6.375   9.443   4.735  2.9087 -0.0300 -1.8439
  808MOL0     H 9020   6.288   9.593   4.730  0.2751  2.1536  3.1960
  808MOL0     H 9021   6.532   9.575   4.891 -0.7161 -1.7635  4.7970
  808MOL0     H 9022   6.395   9.703   4.868  0.8230 -0.4011 -0.1705
  808MOL0     H 9023   6.248   9.534   4.975  0.0350 -0.6751 -0.3479
  808MOL0     H 9024   6.391   9.419   4.979  1.8747  0.9223 -1.0772
  808MOL0     H 9025   6.327   9.674   5.135  2.4088  1.4955 -1.1926
  808MOL0     H 9026   6.312   9.498   5.182  1.4904 -1.8534 -1.7791
  808MOL0     H 9027   6.568   9.487   5.165  0.5239 -1.3772  3.5586
  808MOL0     H 9028   6.510   9.573   5.298 -0.2368 -2.5273 -0.4967
  808MOL0     H 9029   6.601   9.724   5.057  2.5858 -1.4119  0.7257
  808MOL0     H 9030   6.502   9.783   5.185 -1.1715 -1.8138  0.4698
  808MOL0     H 9031   6.775   9.916   5.148  1.1991  0.9132  0.0594
  808MOL0     H 9032   7.079   9.873   5.398 -1.5657 -1.8578  1.0012
  808MOL0     H 9033   7.064   9.929   5.237 -0.0822  4.7795  0.7327
  808MOL0     H 9034   7.050  10.105   5.383  1.0853 -1.0883  2.8095
  808MOL0     H 9035   6.877  10.074   5.326  1.5378  0.9839 -1.2414
  808MOL0     H 9036   7.011   9.982   5.592  1.5385  0.8062 -0.9713
  808MOL0     H 9037   6.841   9.959   5.544  0.2498  0.0781  3.1728
  808MOL0     H 9038   6.960  10.230   5.592 -0.9883  0.2445 -1.0126
  808MOL0     H 9039   6.857  10.135   5.707 -2.3287 -1.8290 -0.7913
  808MOL0     H 9040   6.534  10.296   5.420  0.9638  1.1832 -1.2636
  808MOL0     H 9041   6.424  10.494   5.474  0.3534 -2.5385 -0.0462
  808MOL0     H 9042   6.387  10.935   5.439  2.7784  3.1052  0.3933
  808MOL0     H 9043   6.247  11.130   5.463  0.4711 -0.6507 -0.4583
  808MOL0     H 9044   6.187  11.338   5.549  0.7920  1.6413  1.6804
  808MOL0     H 9045   6.045  11.231   5.561 -0.3087  0.1422  0.8534
  808MOL0     H 9046   5.978  11.463   5.622  1.4885 -1.1022 -1.9085
  808MOL0     H 9047   5.975  11.359   5.759 -3.9744 -1.9096 -3.0364
  808MOL0     H 9048   6.161  11.471   5.858 -2.0472  1.1569  1.2833
  808MOL0     H 9049   6.239  11.517   5.695  1.9255  1.1036  1.8692
  808MOL0     H 9050   5.994  11.643   5.804  0.3710  1.4480 -0.7552
  808MOL0     H 9051   6.059  11.689   5.661 -1.4306 -1.5514 -0.4677
  808MOL0     H 9052   6.138  11.850   5.781  1.8130  0.1044  2.0284
  808MOL0     H 9053   6.286  11.756   5.772 -0.2759 -0.0545 -1.2615
  808MOL0     H 9054   6.084  11.766   5.995  0.0053 -1.6367 -1.1313
  808MOL0     H 9055   6.230  11.665   6.011  1.9048  0.6885  1.1840
  808MOL0     H 9056   6.211  11.971   6.001 -0.2349  0.2557 -2.3902
  808MOL0     H 9057   6.365  11.889   5.960 -0.6258 -2.7598  0.0059
  808MOL0     H 9058   6.379  11.770   6.177 -1.5872 -0.5564 -0.7601
  808MOL0     H 9059   6.367  11.947   6.190 -0.5385 -1.1975  0.9770
  808MOL0     H 9060   6.218  11.048   5.878 -0.4914 -1.1851 -0.2733
  808MOL0     H 9061   6.289  10.822   5.837 -1.0130  0.0360  0.3966
  808MOL0     H 9062   6.754  10.601   5.733 -1.4189  0.5805 -0.3819
  808MOL0     H 9063   6.852  10.394   5.709 -0.8837  0.7413  0.9027
  808MOL0     H 9064   6.780   9.607   4.722  0.1899  0.6015  0.1567
  808MOL0     H 9065   6.998   9.694   4.836 -0.5261  1.5471  3.2665
  808MOL0     H 9066   7.332   9.884   4.880 -0.2396  0.3016  0.2888
  808MOL0     H 9067   7.560   9.975   4.919 -1.2710 -1.2014  0.8944
  808MOL0     H 9068   7.695  10.205   4.824  1.6647  0.9671 -0.4403
  808MOL0     H 9069   7.749  10.097   4.958 -1.2905  0.4158  1.7598
  808MOL0     H 9070   7.823  10.358   5.050  3.8463  3.2606 -1.1544
  808MOL0     H 9071   7.865  10.360   4.876  2.7488 -3.5476 -2.2598
  808MOL0     H 9072   8.002  10.140   4.932 -0.8140  1.8122 -2.0391
  808MOL0     H 9073   7.948  10.164   5.104 -1.6468  1.0991  0.1468
  808MOL0     H 9074   8.108  10.359   4.928  0.3685  2.0211  0.9693
  808MOL0     H 9075   8.048  10.386   5.098 -1.9876 -1.4999  2.0302
  808MOL0     H 9076   8.386  10.112   5.139  0.2194 -0.3964  0.5779
  808MOL0     H 9077   7.385  10.338   5.060  3.7976 -0.7396 -0.7939
  808MOL0     H 9078   7.078  10.219   5.141 -0.6125 -2.5251 -1.5733
  808MOL0     H 9079   7.148  10.369   5.064  0.7167 -0.1980 -0.3744
  808MOL0     H 9080   7.041  10.268   4.978 -0.8901  0.9446  1.1137
  809MOL0     O 9081   9.828   1.173   5.522  0.1247 -0.4218  0.3401
  809MOL0     C 9082   9.840   1.080   5.444  0.5996  0.3175  0.2510
  809MOL0     O 9083   9.732   0.996   5.408 -0.9455  0.0716 -1.2469
  809MOL0     C 9084   9.600   1.018   5.451  0.0207 -0.2338  0.4320
  809MOL0     C 9085   9.542   1.145   5.434  0.3318 -0.0956  0.7432
  809MOL0     C 9086   9.407   1.159   5.461  0.4566 -0.0448  0.4638
  809MOL0     C 9087   9.321   1.053   5.502  0.0731  0.0366  0.6271
  809MOL0     O 9088   9.184   1.084   5.513 -0.3602  0.1806 -1.3301
  809MOL0     C 9089   9.107   1.011   5.608 -0.2826 -0.7718 -0.0776
  809MOL0     C 9090   8.961   1.024   5.561  0.3375 -0.0570  0.6832
  809MOL0     C 9091   8.894   1.162   5.568 -0.3906  0.4974 -0.5345
  809MOL0     C 9092   8.745   1.151   5.527 -0.4581  0.2450  0.0619
  809MOL0     C 9093   8.732   1.108   5.384  0.0749  0.3354  0.5434
  809MOL0     C 9094   8.588   1.114   5.341  0.4837 -0.8044 -0.1510
  809MOL0     C 9095   8.551   1.070   5.192  0.5053  1.0017  0.0062
  809MOL0     C 9096   8.401   1.083   5.164 -0.7527  0.0769 -0.7490
  809MOL0     N 9097   8.368   1.227   5.167  0.4216 -0.0833  0.0042
  809MOL0     C 9098   8.334   1.294   5.282 -0.5070 -0.6102 -0.5956
  809MOL0     C 9099   8.334   1.422   5.241 -0.9592 -0.1295  1.2039
  809MOL0     C 9100   8.287   1.547   5.317 -0.7911  0.6835 -0.1127
  809MOL0     C 9101   8.403   1.635   5.364 -0.0270 -0.2379  1.1391
  809MOL0     C 9102   8.345   1.754   5.437 -0.6190 -0.3054  0.4097
  809MOL0     C 9103   8.448   1.842   5.488 -0.6081 -0.3969  0.3482
  809MOL0     O 9104   8.497   1.912   5.371  0.1988  0.0260  0.4365
  809MOL0     C 9105   8.631   1.928   5.368 -0.1103 -0.3942 -0.2172
  809MOL0     C 9106   8.712   1.950   5.480  0.0341  0.2338 -0.5415
  809MOL0     C 9107   8.850   1.948   5.477  0.3667 -0.1239  1.1678
  809MOL0     C 9108   8.913   1.931   5.355 -0.5236 -0.7420 -0.1050
  809MOL0     C 9109   9.058   1.931   5.346 -1.4434  0.8520 -0.2461
  809MOL0     O 9110   9.134   1.990   5.445  0.5970  0.0983 -0.0525
  809MOL0     C 9111   9.265   1.970   5.453 -0.2818  0.1322  0.5008
  809MOL0     C 9112   9.349   2.039   5.358 -0.3300  0.5292 -0.7237
  809MOL0     C 9113   9.490   2.027   5.363  0.4089  1.0129  0.2616
  809MOL0     C 9114   9.551   1.967   5.483  0.2556 -0.3828  0.3710
  809MOL0     O 9115   9.684   1.958   5.512  0.2758  0.0184  0.3711
  809MOL0     C 9116   9.777   2.001   5.412  0.5210  0.6084  0.8032
  809MOL0     C 9117   9.929   1.965   5.453  0.3424  0.6696 -0.5063
  809MOL0     C 9118   9.964   2.032   5.585  0.3679  0.3648 -0.2823
  809MOL0     C 9119   9.991   2.186   5.566 -0.3055 -0.3726  0.1215
  809MOL0     C 9120  10.128   2.216   5.490 -0.4345 -0.2426 -0.0350
  809MOL0     C 9121  10.247   2.213   5.581 -0.5311 -1.0484 -0.2060
  809MOL0     C 9122  10.382   2.250   5.512  0.1219 -1.1019  0.1488
  809MOL0     C 9123  10.377   2.399   5.466 -0.5055 -0.7620  0.5820
  809MOL0    Cl 9124  10.547   2.436   5.415 -0.4598  0.3372 -0.0023
  809MOL0     C 9125   9.461   1.917   5.586 -0.1404 -0.6897  0.1057
  809MOL0     C 9126   9.324   1.919   5.568 -0.9593  0.0975  0.1265
  809MOL0     O 9127   9.104   1.888   5.243 -0.0264  0.0517  0.5471
  809MOL0     C 9128   8.839   1.948   5.238  0.4959  0.1762  0.4011
  809MOL0     C 9129   8.697   1.931   5.243 -0.3038  0.8792 -0.3022
  809MOL0     N 9130   8.370   1.434   5.110  0.6244  0.6338 -0.3523
  809MOL0     N 9131   8.389   1.309   5.066 -0.2341  0.0724 -0.7492
  809MOL0     C 9132   9.382   0.928   5.513  0.0133 -0.5419 -0.2880
  809MOL0     C 9133   9.519   0.912   5.501 -0.0330 -0.4088 -0.3164
  809MOL0     C 9134   9.974   1.059   5.392  0.3506  0.5517  0.2661
  809MOL0     C 9135   9.987   0.969   5.289  0.7727 -0.6604  0.7524
  809MOL0     C 9136  10.104   0.929   5.234 -0.7797 -0.0967  0.4388
  809MOL0     C 9137  10.225   0.980   5.282  0.7905  0.6927  0.7641
  809MOL0     O 9138  10.340   0.928   5.215 -0.7211 -1.0226  0.3550
  809MOL0     C 9139  10.466   0.984   5.255  0.5429  0.1408 -0.2097
  809MOL0     C 9140  10.576   0.916   5.169 -0.3349  0.9562 -0.1234
  809MOL0     C 9141  10.577   0.962   5.020 -0.3403  0.0162  1.0832
  809MOL0     C 9142  10.498   0.866   4.928 -0.2660  0.3210 -0.0023
  809MOL0     C 9143  10.463   0.924   4.801  0.2757 -0.1590  0.0588
  809MOL0     C 9144  10.448   0.979   4.693 -0.5294  0.3745 -0.9216
  809MOL0     C 9145  10.227   1.077   5.389  0.9616 -0.2842 -0.2114
  809MOL0     C 9146  10.101   1.120   5.445 -0.1592  0.2522 -0.0641
  809MOL0     C 9147  10.106   1.210   5.569  0.3102  1.1419 -0.4219
  809MOL0     H 9148   9.591   1.230   5.388 -0.9559 -0.2131 -0.9540
  809MOL0     H 9149   9.357   1.254   5.450 -0.9898 -0.5843  2.0023
  809MOL0     H 9150   9.135   0.906   5.601  1.1672 -0.3047 -2.4176
  809MOL0     H 9151   9.128   1.058   5.704 -1.1101  2.5732 -1.3895
  809MOL0     H 9152   8.896   0.948   5.605  2.2257 -1.6328  0.8485
  809MOL0     H 9153   8.968   0.989   5.458  0.1368 -2.3247  1.4008
  809MOL0     H 9154   8.942   1.230   5.497 -1.9663  2.7974  0.4939
  809MOL0     H 9155   8.899   1.210   5.666 -1.3998  0.6276 -0.5371
  809MOL0     H 9156   8.697   1.075   5.588 -1.2486  0.4864 -0.2483
  809MOL0     H 9157   8.690   1.245   5.538 -0.2599  0.7634 -2.6425
  809MOL0     H 9158   8.777   1.177   5.312 -0.1248  0.6775  0.7427
  809MOL0     H 9159   8.778   1.010   5.370  2.4463  1.3358  0.8537
  809MOL0     H 9160   8.540   1.043   5.409  0.9729 -0.9669  0.0263
  809MOL0     H 9161   8.557   1.219   5.348  1.3453 -0.4827 -0.8593
  809MOL0     H 9162   8.591   0.970   5.170 -0.1699  0.3755  1.4990
  809MOL0     H 9163   8.606   1.136   5.124  0.5604  0.8762 -0.0700
  809MOL0     H 9164   8.370   1.036   5.071 -0.9653 -2.6764  0.6082
  809MOL0     H 9165   8.360   1.028   5.249 -0.4567  2.7590  1.2624
  809MOL0     H 9166   8.293   1.258   5.376 -2.6410 -0.8520 -1.5673
  809MOL0     H 9167   8.226   1.606   5.248  1.6259  0.0106 -3.0616
  809MOL0     H 9168   8.236   1.525   5.411  1.1080  1.3427  1.1233
  809MOL0     H 9169   8.464   1.577   5.434 -0.0065 -2.2057 -0.4268
  809MOL0     H 9170   8.476   1.658   5.285  1.9804 -1.2167  2.5948
  809MOL0     H 9171   8.301   1.715   5.530 -2.4315 -1.1713 -0.7588
  809MOL0     H 9172   8.272   1.807   5.376 -1.5757 -1.5872  0.4058
  809MOL0     H 9173   8.525   1.778   5.532 -0.4434 -2.0979 -2.1525
  809MOL0     H 9174   8.406   1.905   5.566  0.8494  0.8082  0.2005
  809MOL0     H 9175   8.678   1.978   5.579 -0.3446  0.4850 -0.7381
  809MOL0     H 9176   8.898   1.956   5.574  0.0623  1.4783  1.2192
  809MOL0     H 9177   9.303   2.099   5.280 -0.7997 -1.0120 -1.6870
  809MOL0     H 9178   9.557   2.071   5.290  0.1814 -1.3462 -1.4758
  809MOL0     H 9179   9.758   1.955   5.314 -1.0093  0.9403  0.9198
  809MOL0     H 9180   9.764   2.109   5.402  5.4185  1.5246  1.5784
  809MOL0     H 9181   9.922   1.856   5.466 -0.9538  0.8117  0.1701
  809MOL0     H 9182  10.001   1.978   5.372  1.7878 -1.0984  0.4083
  809MOL0     H 9183   9.880   2.021   5.654  0.9768  1.3338  0.6598
  809MOL0     H 9184  10.057   1.984   5.617  0.4916 -1.0695 -2.5821
  809MOL0     H 9185   9.990   2.233   5.665 -1.5358 -1.0902  0.4667
  809MOL0     H 9186   9.902   2.225   5.516 -0.4836 -2.3116 -1.1841
  809MOL0     H 9187  10.127   2.313   5.439  0.2350  0.4498  1.2257
  809MOL0     H 9188  10.140   2.137   5.415  0.0379 -0.0458 -0.1706
  809MOL0     H 9189  10.225   2.280   5.665  0.3525  0.2971 -1.0172
  809MOL0     H 9190  10.250   2.112   5.623  0.4722 -0.9641 -0.0668
  809MOL0     H 9191  10.403   2.200   5.417  2.6294  0.2598 -0.0827
  809MOL0     H 9192  10.466   2.232   5.580  1.2685  2.5819 -0.1062
  809MOL0     H 9193  10.323   2.423   5.373  0.9183  3.8286  0.7033
  809MOL0     H 9194  10.346   2.472   5.541 -0.5428 -0.1663 -0.0007
  809MOL0     H 9195   9.508   1.872   5.673  4.3568  1.3709 -0.9231
  809MOL0     H 9196   9.261   1.876   5.646 -0.1260 -0.5279  0.4735
  809MOL0     H 9197   8.889   1.952   5.141 -0.9727  0.8726 -0.3756
  809MOL0     H 9198   8.629   1.934   5.158 -2.9641  4.2592  1.7209
  809MOL0     H 9199   9.319   0.840   5.519  1.1664 -1.5585 -2.0103
  809MOL0     H 9200   9.554   0.809   5.512 -0.6205 -0.7607 -1.6253
  809MOL0     H 9201   9.897   0.923   5.249  1.9601 -2.0077 -0.4672
  809MOL0     H 9202  10.103   0.852   5.158  0.2477  0.0741  0.2368
  809MOL0     H 9203  10.491   0.948   5.356 -0.0516 -1.1574 -0.4963
  809MOL0     H 9204  10.477   1.091   5.237  0.4280  0.6334  2.3007
  809MOL0     H 9205  10.571   0.808   5.180  0.5794  0.8171 -0.9188
  809MOL0     H 9206  10.669   0.943   5.220 -0.0883 -3.8761  2.5363
  809MOL0     H 9207  10.680   0.951   4.985 -0.7902 -0.2101 -0.2198
  809MOL0     H 9208  10.547   1.065   4.998  1.0660  0.1205 -0.5291
  809MOL0     H 9209  10.549   0.772   4.906 -1.1476  0.1309 -1.2726
  809MOL0     H 9210  10.401   0.848   4.976 -0.6130 -0.8266 -1.0890
  809MOL0     H 9211  10.437   1.033   4.601  1.3006  1.1826 -0.7087
  809MOL0     H 9212  10.320   1.113   5.432  1.3302  0.1291 -1.3154
  809MOL0     H 9213  10.207   1.233   5.603 -0.1699  3.2402 -0.2894
  809MOL0     H 9214  10.068   1.309   5.541  1.6675  1.3671 -1.5877
  809MOL0     H 9215  10.041   1.179   5.651  0.3395  0.9111 -0.4847
  810MOL0     O 9216   6.989   9.748   9.132 -0.1035  0.6607  0.0965
  810MOL0     C 9217   6.952   9.857   9.098 -0.1259 -0.1949 -0.6198
  810MOL0     O 9218   7.034   9.947   9.046  0.0225 -0.4519 -0.3030
  810MOL0     C 9219   7.140   9.903   8.979  0.3373 -0.7980  0.3102
  810MOL0     C 9220   7.133   9.872   8.838  0.0853 -0.2321 -0.8692
  810MOL0     C 9221   7.254   9.840   8.764 -0.2464  0.2908 -0.1466
  810MOL0     C 9222   7.380   9.832   8.832  0.5151  0.6052  0.0014
  810MOL0     O 9223   7.503   9.799   8.779  0.8351  0.2336  0.5783
  810MOL0     C 9224   7.513   9.797   8.635  0.2931 -0.0447 -0.0863
  810MOL0     C 9225   7.488   9.923   8.561 -0.3839  0.2547  0.3177
  810MOL0     C 9226   7.566  10.048   8.596 -0.4184  0.6476 -0.7136
  810MOL0     C 9227   7.727  10.041   8.602 -0.6406  0.1536  0.1075
  810MOL0     C 9228   7.791  10.186   8.594 -0.5985  0.1342 -0.6428
  810MOL0     C 9229   7.930  10.187   8.656  0.4954 -0.5703  0.0289
  810MOL0     C 9230   7.973  10.337   8.646 -0.7258  0.5763  0.1299
  810MOL0     C 9231   8.119  10.353   8.690 -0.9479 -0.1963  0.4155
  810MOL0     N 9232   8.172  10.483   8.682 -0.3971 -0.1980 -0.6828
  810MOL0     C 9233   8.152  10.586   8.776  1.5505  0.1872  0.7250
  810MOL0     C 9234   8.211  10.691   8.721 -1.0155  0.5730 -0.0936
  810MOL0     C 9235   8.241  10.825   8.776  0.2058  0.3741 -0.3342
  810MOL0     C 9236   8.121  10.877   8.864 -0.1811 -0.6079 -0.0818
  810MOL0     C 9237   8.164  11.016   8.922 -0.2354 -0.5964 -0.5629
  810MOL0     C 9238   8.059  11.098   8.999  0.9055 -0.1304 -0.1107
  810MOL0     O 9239   8.005  11.031   9.110 -0.3670  0.2868 -0.5465
  810MOL0     C 9240   7.874  11.065   9.133  0.2930 -0.8696 -0.2883
  810MOL0     C 9241   7.774  10.982   9.099 -0.3308  0.1430  0.3434
  810MOL0     C 9242   7.640  11.015   9.115 -0.0580 -0.1910 -0.5686
  810MOL0     C 9243   7.601  11.131   9.177  0.0580  0.6489  1.1881
  810MOL0     C 9244   7.460  11.166   9.195  0.2093  1.1018  0.0366
  810MOL0     O 9245   7.429  11.299   9.215 -0.2792 -0.0138 -0.1940
  810MOL0     C 9246   7.292  11.335   9.226  0.0476  0.5850 -0.6362
  810MOL0     C 9247   7.259  11.405   9.347 -0.1204 -0.4344  0.6116
  810MOL0     C 9248   7.124  11.448   9.375 -0.4345  0.6081  0.9843
  810MOL0     C 9249   7.021  11.420   9.289 -0.5033  0.1302 -0.4482
  810MOL0     O 9250   6.893  11.463   9.318  0.4737 -0.1756 -0.6462
  810MOL0     C 9251   6.781  11.393   9.259  0.5796  0.0693  0.2409
  810MOL0     C 9252   6.650  11.448   9.313 -0.1442  0.7717 -0.2445
  810MOL0     C 9253   6.636  11.404   9.467  0.2338 -0.0622  0.0774
  810MOL0     C 9254   6.486  11.445   9.497  0.7888  0.5194  0.0505
  810MOL0     C 9255   6.434  11.384   9.631  0.0575 -0.4022 -0.6409
  810MOL0     C 9256   6.299  11.434   9.689 -0.0324 -0.2955 -0.1760
  810MOL0     C 9257   6.266  11.362   9.817 -0.0468  0.9892 -0.5452
  810MOL0     C 9258   6.125  11.370   9.867 -0.7211  0.7721 -0.1359
  810MOL0    Cl 9259   6.108  11.316  10.041 -0.1814 -0.6751  0.1067
  810MOL0     C 9260   7.053  11.348   9.169 -0.0792  0.1888 -0.2106
  810MOL0     C 9261   7.183  11.305   9.144 -0.0400  0.3882 -0.1937
  810MOL0     O 9262   7.376  11.078   9.177  0.7158  0.0422  0.4509
  810MOL0     C 9263   7.701  11.226   9.211  0.4942  0.3321  0.1680
  810MOL0     C 9264   7.837  11.191   9.187 -0.6183 -0.0096 -0.2908
  810MOL0     N 9265   8.284  10.636   8.608  0.7504 -0.2980  0.2574
  810MOL0     N 9266   8.256  10.513   8.591 -0.3870 -0.5575  0.4921
  810MOL0     C 9267   7.382   9.846   8.972 -0.1329 -0.0806  0.4080
  810MOL0     C 9268   7.268   9.893   9.039  0.1151 -0.5103  0.5115
  810MOL0     C 9269   6.817   9.900   9.122 -1.2976  0.3008 -0.5693
  810MOL0     C 9270   6.792  10.009   9.206 -0.0521  0.0199  0.1505
  810MOL0     C 9271   6.657  10.050   9.231  0.1117  0.4700 -0.1542
  810MOL0     C 9272   6.552   9.970   9.180 -0.2917 -0.8986  0.5383
  810MOL0     O 9273   6.434  10.027   9.220  0.7390  0.2162 -0.3635
  810MOL0     C 9274   6.321   9.944   9.183 -0.5391 -0.6109  0.8195
  810MOL0     C 9275   6.260   9.988   9.050 -0.2254  0.0684  0.2730
  810MOL0     C 9276   6.250  10.144   9.033  0.1145  0.7152  0.7611
  810MOL0     C 9277   6.156  10.214   9.125  0.1497  0.6300 -0.0910
  810MOL0     C 9278   6.023  10.154   9.125  0.2276  0.0735 -0.2624
  810MOL0     C 9279   5.916  10.102   9.116 -0.5225  1.0580 -1.1328
  810MOL0     C 9280   6.583   9.866   9.095  0.1369 -0.5246 -0.0133
  810MOL0     C 9281   6.707   9.830   9.061  0.2067 -0.4359 -0.2785
  810MOL0     C 9282   6.711   9.703   8.972  0.2446 -0.4460  0.6661
  810MOL0     H 9283   7.034   9.882   8.796  0.5620 -1.9481 -2.5479
  810MOL0     H 9284   7.245   9.834   8.656  0.3187 -3.4443 -0.1109
  810MOL0     H 9285   7.604   9.742   8.611 -1.2056 -2.8005  0.1862
  810MOL0     H 9286   7.436   9.729   8.598  0.1559 -2.1625  3.5990
  810MOL0     H 9287   7.383   9.953   8.558 -0.3222  0.5866  1.1081
  810MOL0     H 9288   7.502   9.908   8.454 -0.7463  0.2623  0.2708
  810MOL0     H 9289   7.538  10.082   8.696  1.8774  1.1859 -0.2031
  810MOL0     H 9290   7.539  10.113   8.511  1.2999  1.6772 -0.5220
  810MOL0     H 9291   7.755  10.000   8.699 -1.1179 -0.4606 -0.0110
  810MOL0     H 9292   7.764   9.972   8.527  1.0189 -0.1217  1.1341
  810MOL0     H 9293   7.788  10.206   8.486 -1.3464 -1.9047 -1.0356
  810MOL0     H 9294   7.723  10.244   8.658 -2.9752 -1.7199 -1.3423
  810MOL0     H 9295   7.927  10.152   8.760  2.0276  4.3111  2.0280
  810MOL0     H 9296   7.994  10.121   8.597  0.7059  1.1657 -1.7599
  810MOL0     H 9297   7.915  10.407   8.706  2.4142  0.9959  2.9059
  810MOL0     H 9298   7.968  10.361   8.539 -1.0343  0.6479  0.1600
  810MOL0     H 9299   8.112  10.326   8.795  0.9907 -0.6022  0.4672
  810MOL0     H 9300   8.183  10.284   8.634  0.2518  0.5972  0.7661
  810MOL0     H 9301   8.097  10.591   8.870 -0.1330 -0.2645 -0.1817
  810MOL0     H 9302   8.326  10.826   8.845 -1.0442  2.2853  1.3041
  810MOL0     H 9303   8.271  10.882   8.687  0.0519  0.3911 -0.3756
  810MOL0     H 9304   8.029  10.878   8.805 -0.4356 -2.1814  0.2630
  810MOL0     H 9305   8.089  10.811   8.945  0.4429 -0.6083  0.1760
  810MOL0     H 9306   8.204  11.088   8.850 -0.0427  0.1102  0.2347
  810MOL0     H 9307   8.248  10.980   8.981  0.3142 -3.4597 -2.8522
  810MOL0     H 9308   7.974  11.124   8.935  1.2275  1.0334 -0.0948
  810MOL0     H 9309   8.090  11.200   9.026 -1.8716  0.3579  1.6635
  810MOL0     H 9310   7.804  10.884   9.065  2.1008  1.3491 -1.2743
  810MOL0     H 9311   7.567  10.958   9.059  1.4116 -1.2578 -1.4780
  810MOL0     H 9312   7.326  11.443   9.424 -3.1921  4.1293  1.4390
  810MOL0     H 9313   7.094  11.489   9.471 -2.2750 -2.4782  1.8795
  810MOL0     H 9314   6.797  11.394   9.151  1.6230  0.4888  0.3891
  810MOL0     H 9315   6.795  11.288   9.284  0.9585 -0.5750 -2.3479
  810MOL0     H 9316   6.664  11.556   9.305  1.3175  0.4690 -2.5807
  810MOL0     H 9317   6.567  11.418   9.248 -2.7381  0.5242  2.8770
  810MOL0     H 9318   6.638  11.297   9.489  0.4556  0.2996  1.9604
  810MOL0     H 9319   6.696  11.462   9.537  1.5884  2.7066 -3.0807
  810MOL0     H 9320   6.423  11.401   9.419  2.3661 -2.4049  0.2661
  810MOL0     H 9321   6.482  11.554   9.501  1.2366  0.5353  0.1274
  810MOL0     H 9322   6.510  11.403   9.708  2.0756  0.9717 -2.8253
  810MOL0     H 9323   6.426  11.277   9.611  1.1834 -1.1872  2.5630
  810MOL0     H 9324   6.316  11.539   9.716 -3.8084  0.3526  0.2416
  810MOL0     H 9325   6.218  11.437   9.616  0.4106  0.0193 -0.6589
  810MOL0     H 9326   6.320  11.408   9.901 -3.8036  0.5274  2.3641
  810MOL0     H 9327   6.285  11.255   9.806 -2.0108  0.4411  0.8208
  810MOL0     H 9328   6.080  11.469   9.850 -1.3520  0.2249 -1.8318
  810MOL0     H 9329   6.082  11.303   9.792  2.9098 -0.7781 -1.0600
  810MOL0     H 9330   6.976  11.331   9.093 -0.0277  0.0467 -0.2307
  810MOL0     H 9331   7.195  11.243   9.056  2.3805  0.2910  0.1107
  810MOL0     H 9332   7.678  11.320   9.261 -1.0240  0.2401 -0.2968
  810MOL0     H 9333   7.915  11.261   9.215 -0.4151  0.3555 -1.7101
  810MOL0     H 9334   7.478   9.843   9.023  1.7955  2.8483 -2.6255
  810MOL0     H 9335   7.272   9.913   9.146  2.0014  0.1988  0.3440
  810MOL0     H 9336   6.865  10.071   9.257  1.7418  0.4053 -2.6627
  810MOL0     H 9337   6.639  10.136   9.293  0.9914  0.2282  0.4534
  810MOL0     H 9338   6.253   9.962   9.267 -0.3025  2.9186  0.4300
  810MOL0     H 9339   6.342   9.837   9.179 -0.9725 -0.6583 -0.9522
  810MOL0     H 9340   6.161   9.942   9.047 -0.2585  0.0698  1.1646
  810MOL0     H 9341   6.332   9.957   8.973  0.2854 -1.3790  1.2911
  810MOL0     H 9342   6.230  10.156   8.926  2.3125  2.7120  0.4844
  810MOL0     H 9343   6.339  10.206   9.049  0.0806  1.1637 -0.6568
  810MOL0     H 9344   6.200  10.224   9.225  1.8407 -2.3909 -0.4187
  810MOL0     H 9345   6.145  10.315   9.085  0.3973  0.7707  0.1908
  810MOL0     H 9346   5.818  10.059   9.116 -1.6796  3.3045  1.7484
  810MOL0     H 9347   6.495   9.823   9.048 -0.9860  0.3160  1.2304
  810MOL0     H 9348   6.813   9.690   8.937 -0.1849  0.3901 -1.0529
  810MOL0     H 9349   6.683   9.608   9.019 -1.6399 -1.1204 -1.5690
  810MOL0     H 9350   6.645   9.711   8.885  2.1767 -0.5814 -0.8717
  811MOL0     O 9351   1.136   9.160  10.174 -0.4371  0.0818  0.1144
  811MOL0     C 9352   1.090   9.102  10.274  0.2380 -0.3028  0.4722
  811MOL0     O 9353   1.169   9.043  10.366  0.0132 -0.1975  0.4266
  811MOL0     C 9354   1.302   9.057  10.364 -0.2949 -0.2948 -0.2146
  811MOL0     C 9355   1.355   9.137  10.467 -0.3010  0.8276 -0.6996
  811MOL0     C 9356   1.491   9.168  10.475  0.4340 -0.2732  0.4576
  811MOL0     C 9357   1.582   9.118  10.377  0.0771 -0.5070 -0.6096
  811MOL0     O 9358   1.719   9.138  10.378 -0.3050  0.7471  0.1546
  811MOL0     C 9359   1.768   9.197  10.257 -0.6257 -0.2901 -0.2875
  811MOL0     C 9360   1.836   9.329  10.294  0.1835 -1.1008  0.0909
  811MOL0     C 9361   1.919   9.400  10.182  0.2120  0.0169 -0.6759
  811MOL0     C 9362   1.925   9.545  10.209  0.0276  0.1757 -0.1485
  811MOL0     C 9363   2.036   9.616  10.142 -0.1482 -0.4780  0.3236
  811MOL0     C 9364   2.177   9.570  10.184 -0.4393  0.4817  0.4275
  811MOL0     C 9365   2.234   9.593  10.325  1.1318 -0.1147 -0.3134
  811MOL0     C 9366   2.197   9.737  10.367 -0.0434 -0.6537  0.7860
  811MOL0     N 9367   2.258   9.835  10.285 -0.2093 -0.3346 -0.5171
  811MOL0     C 9368   2.394   9.852  10.249  0.7815  0.1391 -0.2363
  811MOL0     C 9369   2.401   9.969  10.194 -0.8957 -1.2416  0.8398
  811MOL0     C 9370   2.531  10.022  10.135  0.5904  0.6061  0.4870
  811MOL0     C 9371   2.629  10.067  10.246  0.2048 -0.2282  0.6412
  811MOL0     C 9372   2.759  10.099  10.184 -0.0274 -0.0816  1.0463
  811MOL0     C 9373   2.847  10.157  10.289 -0.0855 -0.1353 -0.8050
  811MOL0     O 9374   2.978  10.175  10.223  0.1695 -0.1286 -0.8241
  811MOL0     C 9375   3.082  10.234  10.294  0.0930  0.9866  0.4787
  811MOL0     C 9376   3.207  10.235  10.235 -0.3747 -0.5711 -0.1205
  811MOL0     C 9377   3.321  10.297  10.284 -0.0570 -0.0833  0.6018
  811MOL0     C 9378   3.317  10.377  10.402  1.2315  0.3685 -0.3949
  811MOL0     C 9379   3.427  10.451  10.457  0.1420 -0.7282 -0.8849
  811MOL0     O 9380   3.539  10.461  10.376  0.2672 -0.1984 -0.3158
  811MOL0     C 9381   3.662  10.502  10.418  0.2116  0.2195  0.3702
  811MOL0     C 9382   3.772  10.442  10.354 -0.1318  0.6031  0.3016
  811MOL0     C 9383   3.902  10.484  10.366  0.2333  0.4247 -0.5507
  811MOL0     C 9384   3.929  10.600  10.440 -0.1517  0.6521 -0.5479
  811MOL0     O 9385   4.049  10.663  10.450  0.2907  0.2840 -1.1303
  811MOL0     C 9386   4.171  10.596  10.400  0.1209  0.2609  0.1467
  811MOL0     C 9387   4.205  10.651  10.260  0.2533 -0.1135  0.3078
  811MOL0     C 9388   4.332  10.593  10.193 -0.9622  0.4418  0.8536
  811MOL0     C 9389   4.343  10.442  10.168  0.3812  0.5447  0.4488
  811MOL0     C 9390   4.461  10.403  10.077 -0.1757 -0.8977 -0.1669
  811MOL0     C 9391   4.477  10.256  10.069  0.7687 -0.5412  0.1536
  811MOL0     C 9392   4.598  10.230   9.974  0.2897 -0.6116  0.9208
  811MOL0     C 9393   4.671  10.100   9.984 -0.0645 -0.5056 -0.0494
  811MOL0    Cl 9394   4.552   9.968  10.015  0.0688 -0.3607 -0.0437
  811MOL0     C 9395   3.822  10.659  10.508 -0.5287  0.0440  0.2699
  811MOL0     C 9396   3.693  10.617  10.495  1.1807 -0.3211 -0.4838
  811MOL0     O 9397   3.414  10.500  10.572  0.0754 -0.3508  0.1020
  811MOL0     C 9398   3.187  10.378  10.465  0.8638 -0.1425  1.3045
  811MOL0     C 9399   3.069  10.308  10.404 -0.2784  0.3461  0.2964
  811MOL0     N 9400   2.272  10.026  10.172 -0.8832  0.2327 -0.3431
  811MOL0     N 9401   2.190   9.943  10.224  0.6852  0.5052 -0.6611
  811MOL0     C 9402   1.527   9.017  10.289 -0.5258 -0.0615  0.3258
  811MOL0     C 9403   1.389   8.980  10.286  0.0368  0.8082 -0.3404
  811MOL0     C 9404   0.947   9.102  10.313  0.0654  0.3757 -0.3144
  811MOL0     C 9405   0.885   8.995  10.385 -0.5264  0.0211  0.3342
  811MOL0     C 9406   0.748   8.989  10.419 -0.7906  0.6307  0.1194
  811MOL0     C 9407   0.675   9.094  10.361  0.4275 -0.4480  0.1222
  811MOL0     O 9408   0.537   9.103  10.370 -0.2430 -0.1743 -0.0567
  811MOL0     C 9409   0.458   8.981  10.352 -0.5510 -0.2671 -0.3679
  811MOL0     C 9410   0.333   9.004  10.263 -0.5866 -0.4220  0.5072
  811MOL0     C 9411   0.233   9.112  10.315  0.5316  0.6073  0.0779
  811MOL0     C 9412   0.102   9.097  10.239  0.0970  0.1689  0.5200
  811MOL0     C 9413  -0.008   9.186  10.280  0.2708  0.5383  0.1789
  811MOL0     C 9414  -0.092   9.264  10.312  0.0017  0.1700 -0.5535
  811MOL0     C 9415   0.728   9.202  10.298  0.5044 -0.2370 -0.4031
  811MOL0     C 9416   0.864   9.210  10.272 -0.6998  0.4327 -0.6945
  811MOL0     C 9417   0.926   9.341  10.224  0.2504  1.1737 -0.4919
  811MOL0     H 9418   1.282   9.175  10.537 -1.0992  1.6040 -1.9180
  811MOL0     H 9419   1.538   9.232  10.550  2.0352  2.9441 -2.9617
  811MOL0     H 9420   1.851   9.139  10.215 -0.2130 -0.1963  0.3826
  811MOL0     H 9421   1.689   9.215  10.184 -1.1792  4.8325  1.1623
  811MOL0     H 9422   1.894   9.317  10.387 -0.0580 -1.9229  0.1462
  811MOL0     H 9423   1.754   9.399  10.308 -0.2250 -0.6858 -3.5924
  811MOL0     H 9424   1.864   9.391  10.088  1.2976  0.4604 -1.3765
  811MOL0     H 9425   2.018   9.352  10.180  0.2585  0.0527  0.2031
  811MOL0     H 9426   1.830   9.597  10.193 -0.3011  1.1422  3.7861
  811MOL0     H 9427   1.932   9.549  10.318 -1.5884  0.1112 -0.0114
  811MOL0     H 9428   2.029   9.595  10.035  1.4800  1.3775 -0.2192
  811MOL0     H 9429   2.026   9.725  10.152 -0.9009 -0.2189 -2.4032
  811MOL0     H 9430   2.183   9.462  10.168 -1.3258  0.4738  0.0703
  811MOL0     H 9431   2.249   9.596  10.107  1.1891 -1.0676  1.3564
  811MOL0     H 9432   2.341   9.575  10.335  1.3886  1.7481  0.9047
  811MOL0     H 9433   2.179   9.531  10.396  0.4560 -0.0364 -0.7547
  811MOL0     H 9434   2.092   9.758  10.388  0.1178  0.1114  0.8376
  811MOL0     H 9435   2.241   9.760  10.464  1.9090  1.8755 -0.5884
  811MOL0     H 9436   2.474   9.781  10.264  0.2469 -0.4211  0.0158
  811MOL0     H 9437   2.585   9.948  10.076  1.1937 -0.7951  2.7000
  811MOL0     H 9438   2.510  10.103  10.064 -0.1633 -0.0010  0.0128
  811MOL0     H 9439   2.594  10.159  10.293  1.9012  0.8099 -0.0251
  811MOL0     H 9440   2.654   9.984  10.312  2.8689 -0.1386 -0.1483
  811MOL0     H 9441   2.745  10.174  10.105  2.1940  0.0391  0.6927
  811MOL0     H 9442   2.813  10.013  10.143  5.0130  1.8416  2.7929
  811MOL0     H 9443   2.859  10.089  10.373  1.4270  0.0417 -0.8576
  811MOL0     H 9444   2.796  10.247  10.323  0.2946 -0.4759  0.7150
  811MOL0     H 9445   3.216  10.183  10.140 -0.6076 -1.6350  0.4129
  811MOL0     H 9446   3.403  10.288  10.213  1.4948 -0.1549  2.3253
  811MOL0     H 9447   3.765  10.364  10.279 -1.8970  0.3097  0.7282
  811MOL0     H 9448   3.975  10.440  10.298 -2.2404  1.1491 -3.9664
  811MOL0     H 9449   4.245  10.638  10.469  1.2660 -0.4343 -0.6086
  811MOL0     H 9450   4.167  10.487  10.398 -3.1424  0.2348  2.1249
  811MOL0     H 9451   4.116  10.647  10.196 -1.5040 -0.6546  2.6091
  811MOL0     H 9452   4.231  10.757  10.272 -0.2823  0.3464 -2.1280
  811MOL0     H 9453   4.356  10.649  10.102 -1.5706  3.0991  2.2286
  811MOL0     H 9454   4.410  10.617  10.266 -3.0530  4.2004  2.1084
  811MOL0     H 9455   4.256  10.406  10.113 -0.7082  0.9592  1.8232
  811MOL0     H 9456   4.353  10.385  10.262  1.3882 -1.6208 -0.8844
  811MOL0     H 9457   4.549  10.456  10.115 -1.8058  3.5753 -1.9026
  811MOL0     H 9458   4.441  10.445   9.978 -3.4766  1.4108  1.2846
  811MOL0     H 9459   4.495  10.213  10.168 -3.6667 -1.8201  0.6006
  811MOL0     H 9460   4.385  10.209  10.034 -0.5895 -0.8208  3.6829
  811MOL0     H 9461   4.668  10.314   9.969  0.9967 -1.1525 -3.9869
  811MOL0     H 9462   4.548  10.249   9.878  0.2221  1.0050  1.2505
  811MOL0     H 9463   4.718  10.078   9.888 -0.2213  0.0084 -0.2453
  811MOL0     H 9464   4.743  10.106  10.067 -1.0847 -2.1342  0.9987
  811MOL0     H 9465   3.834  10.753  10.561  1.9471 -0.4649  0.7322
  811MOL0     H 9466   3.610  10.673  10.538  2.1895  2.8709 -2.3212
  811MOL0     H 9467   3.174  10.434  10.557  1.0431 -0.5915  1.6054
  811MOL0     H 9468   2.980  10.321  10.465 -0.5430 -1.2422  0.2974
  811MOL0     H 9469   1.590   8.966  10.217 -1.6255 -0.3037 -0.4982
  811MOL0     H 9470   1.362   8.916  10.202  0.4920  0.5010 -0.2548
  811MOL0     H 9471   0.952   8.916  10.416  0.8531 -0.1975 -2.8291
  811MOL0     H 9472   0.712   8.898  10.465 -0.4357 -0.6460 -2.0402
  811MOL0     H 9473   0.426   8.946  10.451  1.4587 -2.6923 -0.4860
  811MOL0     H 9474   0.508   8.898  10.303  1.3507 -0.3795  1.6244
  811MOL0     H 9475   0.292   8.905  10.241  0.5444 -0.5029 -1.5575
  811MOL0     H 9476   0.364   9.048  10.167 -0.9213 -2.2785 -0.4939
  811MOL0     H 9477   0.270   9.209  10.281 -0.9393  1.2852  0.3548
  811MOL0     H 9478   0.217   9.111  10.423 -1.0147  0.5416 -0.1240
  811MOL0     H 9479   0.115   9.098  10.131 -1.0341  2.8625  0.3378
  811MOL0     H 9480   0.064   8.997  10.264 -0.0683 -0.1963 -1.0832
  811MOL0     H 9481  -0.151   9.350  10.338 -0.5047 -0.0991 -0.8098
  811MOL0     H 9482   0.651   9.272  10.269 -0.8929 -1.2527  0.7130
  811MOL0     H 9483   1.012   9.355  10.290  0.7225 -0.9819 -0.5818
  811MOL0     H 9484   0.953   9.338  10.118  1.3071  1.0749 -0.2305
  811MOL0     H 9485   0.857   9.423  10.245  0.0682  0.9009 -0.0140
  812MOL0     O 9486  10.352   5.245   6.953  0.0475 -0.1543 -0.2398
  812MOL0     C 9487  10.319   5.317   6.862 -0.2179 -0.2999 -1.0399
  812MOL0     O 9488  10.395   5.415   6.809 -0.1649  1.3207  0.0656
  812MOL0     C 9489  10.523   5.447   6.838  0.6338 -1.6367  0.8603
  812MOL0     C 9490  10.585   5.467   6.963  0.2443  0.4059 -0.3873
  812MOL0     C 9491  10.717   5.504   6.974 -0.0836 -0.4799  0.6002
  812MOL0     C 9492  10.790   5.544   6.864 -0.6532  0.1108  0.1664
  812MOL0     O 9493  10.918   5.585   6.883  0.3846  0.3745  0.0918
  812MOL0     C 9494  10.978   5.675   6.786 -0.2858 -0.4741 -0.3880
  812MOL0     C 9495  11.132   5.686   6.818 -0.3280 -0.5454  0.7943
  812MOL0     C 9496  11.190   5.553   6.773  0.2616 -0.1338  0.2192
  812MOL0     C 9497  11.339   5.556   6.819  0.1190 -0.1698  0.2994
  812MOL0     C 9498  11.425   5.672   6.761 -0.1512  1.4842 -0.0038
  812MOL0     C 9499  11.576   5.642   6.757 -0.4883  0.4732  0.4683
  812MOL0     C 9500  11.638   5.620   6.900 -0.4051  0.1177 -0.0892
  812MOL0     C 9501  11.784   5.575   6.884 -0.6527  0.4659  0.6032
  812MOL0     N 9502  11.881   5.672   6.823 -0.7223 -0.2779  0.6305
  812MOL0     C 9503  11.889   5.687   6.686  0.1539 -0.2207  0.2310
  812MOL0     C 9504  12.009   5.746   6.671 -0.4551  0.0211  0.2265
  812MOL0     C 9505  12.064   5.774   6.541  0.3943 -0.6222  0.5993
  812MOL0     C 9506  12.073   5.934   6.506  0.9284  0.5231 -0.1717
  812MOL0     C 9507  12.090   5.955   6.362 -0.5716 -0.2721 -1.0211
  812MOL0     C 9508  12.237   5.951   6.320 -0.6068  0.6488  0.1447
  812MOL0     O 9509  12.321   6.035   6.402 -0.4395  0.0862  0.1082
  812MOL0     C 9510  12.457   5.996   6.409  0.0039 -0.9776  0.2461
  812MOL0     C 9511  12.532   5.940   6.312 -0.0666 -0.7254 -0.1911
  812MOL0     C 9512  12.670   5.932   6.326 -1.2248  0.0162  0.5587
  812MOL0     C 9513  12.734   5.961   6.449  0.7522  0.9119 -0.6275
  812MOL0     C 9514  12.873   5.962   6.464  0.4599 -0.0259 -0.1207
  812MOL0     O 9515  12.921   6.006   6.585 -0.6237  0.7286  0.0927
  812MOL0     C 9516  13.046   5.977   6.628 -0.3460 -0.4932 -0.0378
  812MOL0     C 9517  13.073   5.970   6.765 -0.2939  1.4172  0.1938
  812MOL0     C 9518  13.207   5.943   6.800  0.1290 -1.2011  0.4280
  812MOL0     C 9519  13.313   5.950   6.707  1.3524  0.5268 -0.2702
  812MOL0     O 9520  13.436   5.925   6.762 -0.1954  0.7559  0.1422
  812MOL0     C 9521  13.542   5.978   6.683 -0.5658 -0.6793 -0.1935
  812MOL0     C 9522  13.668   5.960   6.778 -0.6563 -0.4435  0.2127
  812MOL0     C 9523  13.801   5.975   6.714  0.3920  0.8939  0.4287
  812MOL0     C 9524  13.916   5.970   6.818 -0.2731 -0.4213 -0.4387
  812MOL0     C 9525  14.052   6.007   6.755  0.8539  0.6817 -0.5436
  812MOL0     C 9526  14.159   5.980   6.866  0.3491 -0.1941  0.2556
  812MOL0     C 9527  14.281   6.063   6.835  0.4626 -0.2350 -0.0772
  812MOL0     C 9528  14.402   5.998   6.900  0.2734 -0.4384 -1.0823
  812MOL0    Cl 9529  14.555   6.083   6.858 -0.1766  0.2951 -0.2862
  812MOL0     C 9530  13.279   5.956   6.570 -0.3691 -0.3167 -0.3655
  812MOL0     C 9531  13.151   5.984   6.535 -0.2750  0.5981 -0.9921
  812MOL0     O 9532  12.937   5.904   6.373  0.6746  0.3426 -0.4597
  812MOL0     C 9533  12.656   6.001   6.554  0.5544 -0.6033  0.6034
  812MOL0     C 9534  12.521   6.019   6.535  0.3066  0.2823 -0.8124
  812MOL0     N 9535  12.065   5.778   6.797 -0.4176 -0.4368 -0.6643
  812MOL0     N 9536  11.987   5.729   6.881  0.5638  0.5612 -0.0631
  812MOL0     C 9537  10.730   5.535   6.738  0.0878 -0.0417  0.8960
  812MOL0     C 9538  10.596   5.484   6.725  0.6166  0.2158 -0.4397
  812MOL0     C 9539  10.177   5.303   6.810  0.2088  0.1985  0.7491
  812MOL0     C 9540  10.062   5.315   6.898  0.1367  0.2984 -0.3048
  812MOL0     C 9541   9.932   5.292   6.859  0.2798 -0.8341 -0.1618
  812MOL0     C 9542   9.906   5.266   6.726  0.5055  0.2405 -0.3910
  812MOL0     O 9543   9.775   5.260   6.678  0.0538  0.7276  0.7018
  812MOL0     C 9544   9.693   5.377   6.711 -0.2956  0.4880 -0.3533
  812MOL0     C 9545   9.569   5.336   6.804 -0.3350  0.3475  0.1740
  812MOL0     C 9546   9.465   5.448   6.817 -1.0077  0.4815  0.0582
  812MOL0     C 9547   9.382   5.464   6.681  0.2405 -0.0724  0.2574
  812MOL0     C 9548   9.289   5.572   6.699 -0.0920 -0.2401  0.9702
  812MOL0     C 9549   9.222   5.670   6.723 -0.1865 -0.1037 -0.0314
  812MOL0     C 9550  10.013   5.266   6.637 -0.4558 -0.1292 -0.3105
  812MOL0     C 9551  10.149   5.290   6.676  0.8839 -0.0714 -0.6554
  812MOL0     C 9552  10.256   5.296   6.570 -0.2728 -0.8253 -0.0732
  812MOL0     H 9553  10.529   5.435   7.050 -1.2005 -2.2747 -2.1674
  812MOL0     H 9554  10.774   5.499   7.067 -1.0503 -1.5780  1.1654
  812MOL0     H 9555  10.962   5.636   6.685 -0.9699  1.6988 -1.1749
  812MOL0     H 9556  10.950   5.780   6.793  0.1632 -0.3446 -0.5230
  812MOL0     H 9557  11.148   5.692   6.926  0.9053 -1.7894  0.7045
  812MOL0     H 9558  11.176   5.766   6.758  0.7330 -2.1308 -0.6090
  812MOL0     H 9559  11.184   5.530   6.667 -0.4328  0.7988  0.0476
  812MOL0     H 9560  11.130   5.478   6.825 -2.8725  0.5673 -2.1083
  812MOL0     H 9561  11.347   5.546   6.928  2.1303 -0.1683  0.1830
  812MOL0     H 9562  11.374   5.462   6.777 -1.8800 -0.1286 -1.6104
  812MOL0     H 9563  11.407   5.683   6.654  1.7748 -2.1580 -0.8726
  812MOL0     H 9564  11.395   5.761   6.817 -1.4338  0.0099  1.7939
  812MOL0     H 9565  11.605   5.549   6.707 -1.1563  0.1012  0.7665
  812MOL0     H 9566  11.617   5.730   6.706  0.1168  0.8183  1.5120
  812MOL0     H 9567  11.582   5.534   6.938  1.2214 -2.4596 -3.0694
  812MOL0     H 9568  11.634   5.707   6.966 -1.0342 -1.0824  1.5303
  812MOL0     H 9569  11.813   5.558   6.988 -1.4918  0.4710  0.8438
  812MOL0     H 9570  11.790   5.479   6.833 -2.0213  0.9702 -0.5898
  812MOL0     H 9571  11.821   5.651   6.609 -1.0854  1.0067  0.7151
  812MOL0     H 9572  12.160   5.722   6.542 -0.2351 -1.8195  0.1745
  812MOL0     H 9573  11.993   5.723   6.475 -0.7029 -1.0399  2.0597
  812MOL0     H 9574  11.981   5.988   6.529 -0.3690 -1.0974 -1.2758
  812MOL0     H 9575  12.158   5.971   6.563  0.2546 -1.8059  2.5906
  812MOL0     H 9576  12.056   6.054   6.331  1.6188  0.9454  0.2430
  812MOL0     H 9577  12.038   5.883   6.298 -1.0788  1.3920 -2.5446
  812MOL0     H 9578  12.244   5.984   6.216  1.5388  0.4694  0.1945
  812MOL0     H 9579  12.284   5.852   6.316  0.4537  1.1529 -3.4451
  812MOL0     H 9580  12.486   5.906   6.219 -0.8392 -1.8237  0.5668
  812MOL0     H 9581  12.711   5.883   6.238  1.4384 -0.7261  2.1269
  812MOL0     H 9582  12.996   5.969   6.841 -1.2915  0.4588 -0.8046
  812MOL0     H 9583  13.229   5.939   6.906 -1.8471  0.5742  0.9828
  812MOL0     H 9584  13.560   5.930   6.587  2.2324  3.1218 -1.8447
  812MOL0     H 9585  13.536   6.086   6.663 -0.1416 -0.3466  1.3243
  812MOL0     H 9586  13.663   6.020   6.869 -1.1454 -2.2117  1.3721
  812MOL0     H 9587  13.670   5.857   6.814  2.0693 -0.2586  0.8020
  812MOL0     H 9588  13.804   5.896   6.639 -1.1307 -0.6738  1.9297
  812MOL0     H 9589  13.806   6.063   6.649  2.4078  2.3480  2.3979
  812MOL0     H 9590  13.913   5.865   6.850 -1.9410 -0.0841  0.6610
  812MOL0     H 9591  13.904   6.033   6.907 -1.2421  1.7786 -2.0206
  812MOL0     H 9592  14.055   6.107   6.711 -1.4113  0.1442 -2.0743
  812MOL0     H 9593  14.075   5.943   6.669 -1.0464 -2.3155  0.9849
  812MOL0     H 9594  14.129   5.993   6.971 -2.6232  2.1900 -0.7313
  812MOL0     H 9595  14.174   5.872   6.860  0.7126 -0.0500 -2.6359
  812MOL0     H 9596  14.262   6.164   6.873 -1.1695 -0.3255 -0.5903
  812MOL0     H 9597  14.300   6.063   6.727 -1.5856 -0.9999 -0.4696
  812MOL0     H 9598  14.402   5.999   7.009  1.0075 -1.7432 -1.0527
  812MOL0     H 9599  14.404   5.891   6.880  3.3245 -1.4106  3.1743
  812MOL0     H 9600  13.358   5.946   6.496 -3.3478 -1.7584 -3.5718
  812MOL0     H 9601  13.124   6.020   6.437  0.1138 -0.6269 -1.5738
  812MOL0     H 9602  12.693   6.016   6.655  4.7761 -1.9749 -0.5449
  812MOL0     H 9603  12.476   6.061   6.624 -1.8620 -1.4177 -1.0303
  812MOL0     H 9604  10.790   5.558   6.651  2.8165  0.2236  2.7401
  812MOL0     H 9605  10.543   5.493   6.631  1.8256 -1.6318 -1.3718
  812MOL0     H 9606  10.087   5.337   7.002 -1.8094  5.7969 -0.6783
  812MOL0     H 9607   9.857   5.299   6.937  0.1236 -0.5516 -0.3340
  812MOL0     H 9608   9.650   5.425   6.623  0.2175 -0.5427 -1.1911
  812MOL0     H 9609   9.750   5.452   6.766 -0.5989 -0.9149  2.0240
  812MOL0     H 9610   9.600   5.296   6.901  1.9653 -0.8172 -0.9627
  812MOL0     H 9611   9.526   5.245   6.761 -0.3278 -0.1490  1.1776
  812MOL0     H 9612   9.518   5.539   6.846 -3.4191  1.7966  0.6279
  812MOL0     H 9613   9.391   5.431   6.896 -3.4278 -1.9377 -2.4956
  812MOL0     H 9614   9.449   5.489   6.598 -1.8554 -1.0540 -1.8564
  812MOL0     H 9615   9.335   5.369   6.656  0.8353 -0.0473 -1.0143
  812MOL0     H 9616   9.153   5.748   6.746 -2.2655 -1.7787 -0.2845
  812MOL0     H 9617   9.994   5.248   6.532 -0.7845  5.3374 -1.4908
  812MOL0     H 9618  10.231   5.278   6.465 -0.2395  0.6846 -0.3655
  812MOL0     H 9619  10.296   5.398   6.576 -3.2806  0.3557  1.5727
  812MOL0     H 9620  10.335   5.230   6.608 -0.0144  0.0883  1.0559
  813MOL0     O 9621   9.094   9.421  10.785 -0.2170  0.2463 -0.0210
  813MOL0     C 9622   9.064   9.306  10.752 -0.1334 -0.1115  0.2722
  813MOL0     O 9623   9.112   9.247  10.642  0.1337  0.2498 -0.2688
  813MOL0     C 9624   9.214   9.296  10.572 -0.2336 -0.6726 -0.6453
  813MOL0     C 9625   9.190   9.326  10.435 -0.6199 -0.0779 -0.1535
  813MOL0     C 9626   9.301   9.371  10.364 -0.5450 -0.9541  0.3195
  813MOL0     C 9627   9.430   9.384  10.415 -0.0487 -0.1526 -0.2009
  813MOL0     O 9628   9.532   9.438  10.327 -0.0078  0.2281 -0.2946
  813MOL0     C 9629   9.672   9.396  10.345  0.2197  0.8749 -0.3616
  813MOL0     C 9630   9.695   9.251  10.278  0.1295 -0.9315  0.6467
  813MOL0     C 9631   9.693   9.249  10.130  0.1558  0.0566 -0.4452
  813MOL0     C 9632   9.655   9.113  10.067  0.5742 -0.2553 -0.7768
  813MOL0     C 9633   9.767   9.006  10.099  0.2260  0.1780  0.3214
  813MOL0     C 9634   9.753   8.884  10.005  0.1168  0.7029 -0.7313
  813MOL0     C 9635   9.883   8.806   9.993 -0.4769  0.7704  0.1689
  813MOL0     C 9636   9.875   8.690   9.892 -0.7446  0.2108  0.6433
  813MOL0     N 9637  10.013   8.657   9.843  0.8920  0.7667 -0.0517
  813MOL0     C 9638  10.049   8.655   9.713 -1.0330  0.1536 -0.6007
  813MOL0     C 9639  10.187   8.652   9.721  0.6409  0.3933 -0.3518
  813MOL0     C 9640  10.286   8.673   9.615  0.1585  0.5675 -0.6601
  813MOL0     C 9641  10.303   8.544   9.540 -0.8420 -0.1680  0.6086
  813MOL0     C 9642  10.451   8.506   9.512 -0.0931 -0.7726  0.2382
  813MOL0     C 9643  10.545   8.611   9.446  0.6501 -0.2230 -0.0662
  813MOL0     O 9644  10.669   8.542   9.419 -0.2052 -0.2676  0.3200
  813MOL0     C 9645  10.782   8.613   9.402  0.2505 -0.1105 -0.8112
  813MOL0     C 9646  10.779   8.755   9.408 -0.0566  0.0700  0.8732
  813MOL0     C 9647  10.895   8.826   9.409  0.2049 -0.1118 -0.2606
  813MOL0     C 9648  11.021   8.761   9.405  0.1069 -0.4171 -0.3885
  813MOL0     C 9649  11.142   8.837   9.419 -0.7657 -0.9023 -0.2862
  813MOL0     O 9650  11.242   8.806   9.336 -0.4575  0.5174  0.5268
  813MOL0     C 9651  11.364   8.857   9.356 -0.8128 -0.8186  0.3136
  813MOL0     C 9652  11.408   8.971   9.296  0.2960 -1.0211  0.0119
  813MOL0     C 9653  11.527   9.034   9.340 -0.0804  0.2641  0.1985
  813MOL0     C 9654  11.610   8.977   9.433  0.0819  0.0983 -0.6029
  813MOL0     O 9655  11.734   9.014   9.475 -0.7020 -0.2350  0.7343
  813MOL0     C 9656  11.759   9.156   9.482  0.6569 -0.1736 -0.1195
  813MOL0     C 9657  11.898   9.198   9.537 -0.2289 -0.4090  0.0748
  813MOL0     C 9658  12.002   9.175   9.413 -0.1422 -0.4202 -0.1121
  813MOL0     C 9659  12.140   9.223   9.463  0.1268  0.1593  0.0528
  813MOL0     C 9660  12.242   9.210   9.350  0.2585  0.8775 -0.2945
  813MOL0     C 9661  12.367   9.271   9.404 -0.3963 -0.2344  0.3778
  813MOL0     C 9662  12.494   9.207   9.339 -0.1355 -0.3659 -0.5856
  813MOL0     C 9663  12.628   9.262   9.407  0.2150 -0.2562  0.2281
  813MOL0    Cl 9664  12.664   9.432   9.383  0.1433 -0.0798 -0.2943
  813MOL0     C 9665  11.575   8.849   9.476  0.0699 -0.4548  0.4902
  813MOL0     C 9666  11.442   8.795   9.446  0.4442  1.0194 -0.8338
  813MOL0     O 9667  11.147   8.925   9.510 -0.9596  0.6968 -0.5488
  813MOL0     C 9668  11.026   8.622   9.375 -0.5755 -0.4623 -0.5303
  813MOL0     C 9669  10.908   8.550   9.385  0.6373  0.3966 -0.0630
  813MOL0     N 9670  10.227   8.633   9.858 -0.6337 -0.6246  0.5356
  813MOL0     N 9671  10.119   8.635   9.930 -0.6368 -0.0545 -0.9342
  813MOL0     C 9672   9.453   9.346  10.546  0.6417  0.5480 -0.6593
  813MOL0     C 9673   9.346   9.306  10.623  0.2882  0.6123 -0.0686
  813MOL0     C 9674   8.980   9.223  10.841  0.5755 -0.7529  0.2847
  813MOL0     C 9675   8.876   9.289  10.907  0.9462 -0.3119 -0.8844
  813MOL0     C 9676   8.776   9.236  10.981 -0.1286 -0.4158 -0.6550
  813MOL0     C 9677   8.767   9.095  10.996 -0.2853 -0.7963 -0.5460
  813MOL0     O 9678   8.672   9.019  11.055 -0.0718  0.5242 -0.8094
  813MOL0     C 9679   8.537   9.053  11.006 -0.2808 -0.6062 -0.5141
  813MOL0     C 9680   8.428   8.964  11.065 -0.1331  0.1942  0.2708
  813MOL0     C 9681   8.302   8.960  10.986 -0.9457  0.2201 -0.5517
  813MOL0     C 9682   8.208   9.080  10.973 -0.9077 -0.4187 -0.0919
  813MOL0     C 9683   8.172   9.132  11.105 -0.2671  0.4856 -0.1554
  813MOL0     C 9684   8.146   9.174  11.214  0.8378 -0.0702 -0.0951
  813MOL0     C 9685   8.868   9.027  10.924  0.2086  0.1530  0.1097
  813MOL0     C 9686   8.977   9.082  10.860  0.3562 -0.3286  0.2284
  813MOL0     C 9687   9.072   8.985  10.791 -1.1875  0.5311  0.2042
  813MOL0     H 9688   9.091   9.301  10.399 -0.8667 -1.0769  1.1339
  813MOL0     H 9689   9.296   9.393  10.258  0.6051 -2.7665 -0.1492
  813MOL0     H 9690   9.736   9.463  10.286  1.0621 -0.4092 -0.9393
  813MOL0     H 9691   9.709   9.395  10.448 -1.3587  1.5348  0.2338
  813MOL0     H 9692   9.622   9.177  10.312  0.4164 -1.2127  0.6596
  813MOL0     H 9693   9.789   9.213  10.318  1.1772 -0.6900 -1.4302
  813MOL0     H 9694   9.788   9.290  10.094 -0.4180  2.6832  0.7702
  813MOL0     H 9695   9.621   9.318  10.085 -2.2801 -2.6392 -1.0104
  813MOL0     H 9696   9.559   9.085  10.112  1.6242 -2.8243  0.0722
  813MOL0     H 9697   9.626   9.109   9.961 -0.3139 -3.8264 -0.5326
  813MOL0     H 9698   9.866   9.046  10.075 -0.4849  1.4960 -0.5456
  813MOL0     H 9699   9.773   8.980  10.205  0.6401 -1.4181 -0.0578
  813MOL0     H 9700   9.673   8.815  10.035  1.2231 -0.1640  0.3064
  813MOL0     H 9701   9.729   8.925   9.907 -0.0448  1.0847 -0.5358
  813MOL0     H 9702   9.912   8.778  10.094  3.0860  0.5901 -0.7688
  813MOL0     H 9703   9.958   8.874   9.951 -0.0924  0.4007  0.2495
  813MOL0     H 9704   9.842   8.604   9.952 -0.2604 -0.4168  0.0242
  813MOL0     H 9705   9.809   8.714   9.808 -0.8090 -0.9446  0.3419
  813MOL0     H 9706   9.991   8.670   9.622 -0.5126 -1.2242 -1.1972
  813MOL0     H 9707  10.257   8.751   9.544 -2.1730 -0.7749 -1.2816
  813MOL0     H 9708  10.376   8.699   9.671 -0.0245 -1.6169  0.7896
  813MOL0     H 9709  10.252   8.464   9.596  1.3381 -1.6369  0.6380
  813MOL0     H 9710  10.251   8.552   9.445  1.7602 -2.1414 -1.1324
  813MOL0     H 9711  10.457   8.409   9.461  1.5522  0.3677 -1.9160
  813MOL0     H 9712  10.486   8.488   9.614  0.1802  0.9670  0.4849
  813MOL0     H 9713  10.562   8.686   9.523  1.9852  3.0553 -3.2312
  813MOL0     H 9714  10.499   8.666   9.363 -0.6579  1.9108  1.9301
  813MOL0     H 9715  10.685   8.809   9.414 -1.1332 -1.5556 -0.5034
  813MOL0     H 9716  10.894   8.933   9.427 -1.4041 -0.1768  0.1414
  813MOL0     H 9717  11.343   9.016   9.221 -0.9521 -1.9373  0.5210
  813MOL0     H 9718  11.566   9.121   9.287  2.4160 -0.7555  0.2563
  813MOL0     H 9719  11.740   9.199   9.383 -2.0873 -1.2500 -0.1363
  813MOL0     H 9720  11.688   9.204   9.549  0.2158 -2.1789  0.9162
  813MOL0     H 9721  11.908   9.298   9.580  1.0630 -0.0946 -0.8998
  813MOL0     H 9722  11.929   9.130   9.618  4.3057  0.0312 -1.0160
  813MOL0     H 9723  11.998   9.069   9.386 -1.5051 -0.3802 -0.1516
  813MOL0     H 9724  11.975   9.244   9.332  0.5857  0.2228  0.1795
  813MOL0     H 9725  12.180   9.170   9.550 -0.6902 -2.1370 -0.9071
  813MOL0     H 9726  12.120   9.328   9.485 -1.4615 -0.1361  0.0890
  813MOL0     H 9727  12.201   9.257   9.260  0.2649 -0.0940 -0.8168
  813MOL0     H 9728  12.255   9.104   9.326  1.2109  0.9564 -0.1582
  813MOL0     H 9729  12.375   9.380   9.400  1.1300 -0.3633 -1.9637
  813MOL0     H 9730  12.367   9.246   9.510 -2.1918  3.1142  1.3115
  813MOL0     H 9731  12.505   9.223   9.231  2.4631 -0.1904 -0.3518
  813MOL0     H 9732  12.489   9.099   9.357  1.8732 -0.4256 -0.2268
  813MOL0     H 9733  12.633   9.238   9.513  0.7562 -0.4231  0.1708
  813MOL0     H 9734  12.712   9.218   9.353 -0.1482 -1.1307  0.3529
  813MOL0     H 9735  11.638   8.789   9.541  1.5247  1.4187  0.8922
  813MOL0     H 9736  11.414   8.700   9.490  3.6660  0.1672 -0.3606
  813MOL0     H 9737  11.120   8.567   9.373  0.5687  1.3269  0.8478
  813MOL0     H 9738  10.917   8.442   9.378  0.6367  0.4994 -2.3924
  813MOL0     H 9739   9.549   9.355  10.595 -0.2370  1.7495  0.9259
  813MOL0     H 9740   9.367   9.258  10.718  0.1891  0.2381 -0.2300
  813MOL0     H 9741   8.875   9.397  10.899  0.9425 -0.2051  0.3542
  813MOL0     H 9742   8.705   9.305  11.025 -1.2261 -1.6794 -0.3628
  813MOL0     H 9743   8.543   9.045  10.897  0.4132  0.5675 -0.5771
  813MOL0     H 9744   8.501   9.156  11.017  0.1858 -0.1931 -2.5049
  813MOL0     H 9745   8.409   9.001  11.167  1.4900 -2.4864  1.6521
  813MOL0     H 9746   8.468   8.866  11.090 -1.4034  0.1481  2.3918
  813MOL0     H 9747   8.248   8.872  11.023 -2.1060  0.8883 -0.6053
  813MOL0     H 9748   8.340   8.930  10.888  1.3142 -1.6312  0.7628
  813MOL0     H 9749   8.265   9.160  10.923 -0.0781 -2.0260 -1.8221
  813MOL0     H 9750   8.129   9.047  10.906  0.7425 -0.1305 -2.3165
  813MOL0     H 9751   8.131   9.217  11.311  1.3375 -1.2823  0.5460
  813MOL0     H 9752   8.843   8.921  10.923 -0.9980  0.4246 -1.4642
  813MOL0     H 9753   9.051   8.979  10.684  2.7154  1.8468 -0.8272
  813MOL0     H 9754   9.172   9.030  10.793 -0.6212 -0.6561 -0.6625
  813MOL0     H 9755   9.069   8.885  10.834 -0.1647  0.6030  0.4918
  814MOL0     O 9756   2.292   6.283   3.473  0.0246 -0.4551 -0.8116
  814MOL0     C 9757   2.354   6.214   3.392  0.1217 -0.1928 -0.0599
  814MOL0     O 9758   2.494   6.215   3.376 -0.1457 -0.3263 -0.1083
  814MOL0     C 9759   2.577   6.283   3.462 -0.0260 -0.0911  0.0364
  814MOL0     C 9760   2.588   6.423   3.464  0.0762  0.2969 -0.4105
  814MOL0     C 9761   2.668   6.497   3.547 -0.1410  0.3853 -0.5333
  814MOL0     C 9762   2.762   6.434   3.629 -0.9213  0.0190  0.1628
  814MOL0     O 9763   2.851   6.512   3.700  0.5595  0.2592 -0.3063
  814MOL0     C 9764   2.988   6.458   3.691  0.2596 -0.3309 -0.3147
  814MOL0     C 9765   3.107   6.554   3.672 -0.4457 -0.8079 -0.5089
  814MOL0     C 9766   3.084   6.647   3.557 -0.1408  0.4282 -0.5272
  814MOL0     C 9767   3.099   6.587   3.415  0.7580  0.1524 -0.4019
  814MOL0     C 9768   2.965   6.541   3.362 -0.5756 -0.1210  0.6519
  814MOL0     C 9769   2.955   6.503   3.219 -0.6810 -0.1388  0.1145
  814MOL0     C 9770   2.937   6.619   3.130 -0.6033 -0.6893  0.1084
  814MOL0     C 9771   2.884   6.588   2.993 -0.1601  0.8618  0.8239
  814MOL0     N 9772   2.988   6.509   2.931 -0.0863 -0.2811  0.3443
  814MOL0     C 9773   2.976   6.376   2.903 -0.6666 -0.1842 -0.7029
  814MOL0     C 9774   3.095   6.341   2.858  0.2963  0.8634 -0.1324
  814MOL0     C 9775   3.129   6.198   2.820 -0.5081 -0.5599  0.4560
  814MOL0     C 9776   3.283   6.164   2.794  0.1910  0.4934 -0.0835
  814MOL0     C 9777   3.310   6.013   2.786  0.9301  0.6181 -0.3775
  814MOL0     C 9778   3.450   5.989   2.723 -0.3798 -0.0856 -0.2088
  814MOL0     O 9779   3.561   5.999   2.819  0.1474  0.3735  0.7068
  814MOL0     C 9780   3.689   5.963   2.779 -0.2491 -1.1485  0.2455
  814MOL0     C 9781   3.794   5.995   2.864 -0.1372 -0.5591  0.5556
  814MOL0     C 9782   3.933   5.983   2.827 -0.1004  0.7262 -1.1345
  814MOL0     C 9783   3.957   5.929   2.704 -0.3405  0.9436 -1.3967
  814MOL0     C 9784   4.093   5.896   2.663 -0.2488 -0.1153 -0.5801
  814MOL0     O 9785   4.130   5.881   2.533 -0.1854 -0.1304  0.3558
  814MOL0     C 9786   4.256   5.839   2.501 -0.2466  0.5983  0.3040
  814MOL0     C 9787   4.374   5.899   2.554  0.1802  0.1782 -0.3600
  814MOL0     C 9788   4.493   5.857   2.511 -0.9739  0.0502  0.2961
  814MOL0     C 9789   4.505   5.757   2.424 -0.0159 -0.0850  0.4108
  814MOL0     O 9790   4.633   5.722   2.383  0.4597 -0.5480  0.1450
  814MOL0     C 9791   4.653   5.778   2.249 -0.1746  0.0888 -0.2459
  814MOL0     C 9792   4.800   5.804   2.216 -0.9658  0.3714  0.1942
  814MOL0     C 9793   4.859   5.909   2.314 -0.1068  0.3249  0.8691
  814MOL0     C 9794   5.011   5.933   2.287  0.1059 -0.1735 -0.6909
  814MOL0     C 9795   5.044   6.065   2.367  0.1126  0.3667 -0.1684
  814MOL0     C 9796   5.184   6.113   2.336  0.5254 -0.2949 -0.3662
  814MOL0     C 9797   5.285   6.020   2.404  0.4920  0.5361  0.6249
  814MOL0     C 9798   5.430   6.072   2.385 -1.3284  0.4550 -0.3048
  814MOL0    Cl 9799   5.460   6.243   2.433  0.0166 -0.1840  0.1963
  814MOL0     C 9800   4.389   5.694   2.363  0.2224 -0.1371 -1.0921
  814MOL0     C 9801   4.264   5.739   2.408 -0.8990 -0.3749 -0.3559
  814MOL0     O 9802   4.160   5.851   2.755  0.4089 -0.7163 -0.4238
  814MOL0     C 9803   3.854   5.890   2.612  0.1495 -0.4559 -0.6936
  814MOL0     C 9804   3.729   5.913   2.653  0.8748 -0.8927 -0.3845
  814MOL0     N 9805   3.165   6.461   2.847 -0.2435 -1.2891  0.7166
  814MOL0     N 9806   3.103   6.565   2.886 -0.4991  0.2053 -0.2051
  814MOL0     C 9807   2.753   6.290   3.637  1.2420 -0.2042  0.0757
  814MOL0     C 9808   2.658   6.217   3.554  0.3810 -0.4114 -0.1866
  814MOL0     C 9809   2.283   6.099   3.331  0.5458 -1.0126  0.4999
  814MOL0     C 9810   2.138   6.098   3.346  0.0689  0.9918  0.1624
  814MOL0     C 9811   2.061   5.992   3.293  0.5360  0.0136 -0.6092
  814MOL0     C 9812   2.116   5.888   3.221  0.3174 -0.4333 -0.3847
  814MOL0     O 9813   2.029   5.804   3.176  0.1374 -0.9766 -0.1519
  814MOL0     C 9814   2.066   5.679   3.115 -0.3166  0.7488  0.1459
  814MOL0     C 9815   1.956   5.624   3.019  0.0342 -0.5647  0.8722
  814MOL0     C 9816   1.980   5.485   2.955 -0.4980 -0.8470 -0.5991
  814MOL0     C 9817   1.857   5.442   2.874  0.1150 -0.9827 -0.4459
  814MOL0     C 9818   1.830   5.530   2.760  0.5284 -0.5290 -0.3460
  814MOL0     C 9819   1.808   5.591   2.663  0.0351 -0.0895 -0.1103
  814MOL0     C 9820   2.258   5.886   3.208 -0.5200 -0.4181 -0.1404
  814MOL0     C 9821   2.340   5.983   3.268  0.7820 -0.1297 -1.0782
  814MOL0     C 9822   2.482   5.955   3.258 -0.5504 -0.4560  0.2800
  814MOL0     H 9823   2.530   6.485   3.397  1.5108 -0.9092 -2.9347
  814MOL0     H 9824   2.664   6.605   3.552 -2.1085  0.3910  5.1110
  814MOL0     H 9825   3.000   6.406   3.786 -2.9554  2.2522  1.7408
  814MOL0     H 9826   2.994   6.374   3.621  0.9122 -0.7782  0.2659
  814MOL0     H 9827   3.207   6.510   3.667  0.1671  0.6626 -3.5892
  814MOL0     H 9828   3.122   6.625   3.753  1.6260  1.9690 -3.1241
  814MOL0     H 9829   3.151   6.729   3.583 -1.5211  0.8200  2.1567
  814MOL0     H 9830   2.983   6.690   3.557  0.5611  2.4088 -4.0511
  814MOL0     H 9831   3.133   6.671   3.354 -1.0271  0.7782 -0.6191
  814MOL0     H 9832   3.173   6.508   3.425  1.8954  1.3756  1.7630
  814MOL0     H 9833   2.946   6.451   3.421  0.7312 -0.3817  0.6969
  814MOL0     H 9834   2.884   6.610   3.390  0.8161  1.6276  0.5568
  814MOL0     H 9835   3.039   6.440   3.188 -0.2970  0.8630 -0.9341
  814MOL0     H 9836   2.867   6.441   3.201 -0.8385  0.3383 -0.7933
  814MOL0     H 9837   3.027   6.678   3.114 -0.7008 -0.3397  0.8195
  814MOL0     H 9838   2.870   6.687   3.184  1.0666  0.4767  0.7763
  814MOL0     H 9839   2.786   6.539   2.996  0.0677 -0.0033 -2.4244
  814MOL0     H 9840   2.876   6.676   2.928  1.9792  0.6728  0.2456
  814MOL0     H 9841   2.889   6.316   2.928 -2.8173  2.6458 -0.8525
  814MOL0     H 9842   3.077   6.149   2.903  0.0622 -0.0035  1.1584
  814MOL0     H 9843   3.078   6.170   2.727 -0.4818  1.7132 -0.3075
  814MOL0     H 9844   3.305   6.213   2.699  0.5510  2.2300  0.8538
  814MOL0     H 9845   3.337   6.214   2.875 -1.4649  2.2664  0.0026
  814MOL0     H 9846   3.234   5.957   2.731 -0.6414  0.4957  1.7824
  814MOL0     H 9847   3.308   5.982   2.891  0.5292  1.6647 -0.0604
  814MOL0     H 9848   3.470   6.065   2.646  2.3491  0.9518  1.3913
  814MOL0     H 9849   3.457   5.891   2.676  1.5730 -0.3352  0.5140
  814MOL0     H 9850   3.767   6.044   2.957 -1.0075 -1.1647  0.6337
  814MOL0     H 9851   4.012   6.006   2.898  2.5843 -1.0169 -3.3258
  814MOL0     H 9852   4.362   5.985   2.620 -1.8787 -0.0312 -0.3871
  814MOL0     H 9853   4.576   5.902   2.565 -1.8064 -0.7141  2.3357
  814MOL0     H 9854   4.614   5.708   2.176 -2.9293  0.4464  0.7462
  814MOL0     H 9855   4.597   5.870   2.233 -1.2409 -0.3516  0.7796
  814MOL0     H 9856   4.850   5.709   2.237 -1.9572 -0.0885  0.5465
  814MOL0     H 9857   4.820   5.839   2.114  0.1125  0.8467  0.5557
  814MOL0     H 9858   4.808   6.006   2.303  1.3531  1.0047 -0.2363
  814MOL0     H 9859   4.834   5.874   2.415 -4.5006 -2.0352 -0.7752
  814MOL0     H 9860   5.021   5.942   2.178 -1.7938  1.1868 -0.7982
  814MOL0     H 9861   5.073   5.848   2.317  1.3142  1.0135  0.2837
  814MOL0     H 9862   5.027   6.052   2.475 -3.1155  1.6468 -0.4137
  814MOL0     H 9863   4.969   6.140   2.338  1.5199  3.1872  2.7147
  814MOL0     H 9864   5.204   6.113   2.228  2.0597  2.2384 -0.1670
  814MOL0     H 9865   5.186   6.219   2.361  1.5601 -0.0992 -1.2043
  814MOL0     H 9866   5.284   5.919   2.364 -0.0407  0.6155  0.4284
  814MOL0     H 9867   5.268   6.010   2.512  0.6667  0.5034  0.6502
  814MOL0     H 9868   5.503   6.008   2.435 -2.2068  0.4510  1.0258
  814MOL0     H 9869   5.465   6.065   2.282 -0.3617 -1.0057  0.0921
  814MOL0     H 9870   4.395   5.618   2.286 -0.6639 -0.0752 -1.2245
  814MOL0     H 9871   4.170   5.703   2.368 -2.2875  1.9992  0.5327
  814MOL0     H 9872   3.881   5.845   2.517 -0.1952  0.2067 -1.1096
  814MOL0     H 9873   3.653   5.880   2.583  0.2528 -1.5475  0.5678
  814MOL0     H 9874   2.822   6.220   3.681  1.7985  0.5874  0.4897
  814MOL0     H 9875   2.639   6.110   3.553 -1.6113 -0.1069  0.7266
  814MOL0     H 9876   2.088   6.169   3.411 -0.6120  0.0859  0.6384
  814MOL0     H 9877   1.954   5.980   3.308  0.2950 -1.2208 -2.8721
  814MOL0     H 9878   2.077   5.607   3.196  2.9785  1.7899  0.7714
  814MOL0     H 9879   2.160   5.687   3.061 -0.7243 -0.1122 -0.7296
  814MOL0     H 9880   1.948   5.701   2.942 -0.5419  0.0130  1.4958
  814MOL0     H 9881   1.861   5.632   3.072 -0.3769  3.0252 -0.1174
  814MOL0     H 9882   2.004   5.414   3.035 -1.1515 -0.3630  0.0389
  814MOL0     H 9883   2.065   5.488   2.886  0.6496 -1.3128  0.7305
  814MOL0     H 9884   1.870   5.342   2.831 -3.0550 -1.5394 -0.3490
  814MOL0     H 9885   1.766   5.435   2.934  0.4165  1.4184  0.3629
  814MOL0     H 9886   1.782   5.642   2.573  2.6439  1.3017 -0.1712
  814MOL0     H 9887   2.307   5.817   3.140  1.5407  2.1648 -1.4642
  814MOL0     H 9888   2.526   5.956   3.358  1.4450  2.0138 -0.5232
  814MOL0     H 9889   2.515   5.868   3.200 -0.8097 -0.6015  0.3462
  814MOL0     H 9890   2.524   6.039   3.202 -1.6364 -1.3098 -1.9162
  815MOL0     O 9891   6.506   8.585   6.058 -0.1962 -0.7194 -0.3091
  815MOL0     C 9892   6.542   8.700   6.085 -0.1359  0.0287  0.0239
  815MOL0     O 9893   6.659   8.730   6.151 -0.3552  0.4697 -0.0038
  815MOL0     C 9894   6.759   8.636   6.174  0.6077  0.0058 -0.1267
  815MOL0     C 9895   6.796   8.535   6.086  0.6057 -0.3482  0.4316
  815MOL0     C 9896   6.903   8.451   6.105  0.5981 -0.2012  0.4276
  815MOL0     C 9897   6.987   8.465   6.212 -0.5914 -0.1011 -0.7949
  815MOL0     O 9898   7.086   8.366   6.219  0.3144  0.1960 -0.2203
  815MOL0     C 9899   7.193   8.389   6.305 -0.0098 -0.3833  0.0992
  815MOL0     C 9900   7.307   8.295   6.253  0.5495  0.1471  0.1501
  815MOL0     C 9901   7.437   8.336   6.325  0.5917 -0.4478 -0.3925
  815MOL0     C 9902   7.464   8.276   6.458  0.5373  0.7470 -0.5160
  815MOL0     C 9903   7.586   8.348   6.520 -0.6536  1.3823 -1.1393
  815MOL0     C 9904   7.652   8.271   6.637  0.1786  1.0051 -0.0266
  815MOL0     C 9905   7.788   8.334   6.662 -0.1209 -0.3656 -0.1573
  815MOL0     C 9906   7.877   8.250   6.752  0.2159  0.3702 -0.7258
  815MOL0     N 9907   7.987   8.322   6.795 -0.3452 -0.4092  0.7044
  815MOL0     C 9908   7.985   8.429   6.886 -0.0158 -0.2898 -0.0566
  815MOL0     C 9909   8.120   8.462   6.891  0.3357  0.1604 -0.1446
  815MOL0     C 9910   8.180   8.563   6.971  0.7081  0.0096 -0.2461
  815MOL0     C 9911   8.320   8.583   6.949 -0.6293  0.2701 -0.5569
  815MOL0     C 9912   8.365   8.698   7.038 -0.2005 -0.3967 -0.8327
  815MOL0     C 9913   8.514   8.690   7.068 -0.7096 -0.2165  0.2954
  815MOL0     O 9914   8.597   8.710   6.946  0.2829  0.4823 -0.1679
  815MOL0     C 9915   8.740   8.706   6.941  0.6510  0.2078 -0.5554
  815MOL0     C 9916   8.815   8.701   7.058 -0.6810 -0.6283 -0.4718
  815MOL0     C 9917   8.959   8.693   7.058  0.2666 -0.5774  0.8076
  815MOL0     C 9918   9.031   8.717   6.940 -0.1226 -0.2093 -0.4369
  815MOL0     C 9919   9.179   8.741   6.951 -0.1697  0.5703  0.8321
  815MOL0     O 9920   9.246   8.803   6.847  0.2379 -0.3787  0.1737
  815MOL0     C 9921   9.379   8.800   6.822  0.8179  0.0256 -0.1330
  815MOL0     C 9922   9.417   8.850   6.703 -0.4148  0.1236 -0.1920
  815MOL0     C 9923   9.553   8.859   6.664  0.4209 -0.5578 -0.5595
  815MOL0     C 9924   9.648   8.815   6.754 -0.4187 -0.1292  0.0441
  815MOL0     O 9925   9.784   8.819   6.725 -0.6599  0.0162 -0.1905
  815MOL0     C 9926   9.826   8.902   6.615  0.4325  0.0151  0.2279
  815MOL0     C 9927   9.974   8.928   6.622 -0.0660 -0.2047 -0.5127
  815MOL0     C 9928  10.012   9.040   6.521 -0.6333  0.0311 -1.0447
  815MOL0     C 9929  10.147   9.080   6.557 -0.1838 -0.8124 -0.1625
  815MOL0     C 9930  10.253   8.984   6.516  0.3689  0.2027 -0.9767
  815MOL0     C 9931  10.388   9.038   6.551 -0.0561  0.0413 -0.7938
  815MOL0     C 9932  10.488   8.916   6.534 -0.4261 -0.4252  0.4075
  815MOL0     C 9933  10.480   8.815   6.645  0.2472 -0.3982  0.2082
  815MOL0    Cl 9934  10.511   8.894   6.805  0.0343 -0.1635 -0.1240
  815MOL0     C 9935   9.609   8.761   6.879  0.3492  0.0964  0.2886
  815MOL0     C 9936   9.473   8.749   6.911  0.4009  0.0816 -0.0510
  815MOL0     O 9937   9.236   8.699   7.049  0.4708 -0.0197  0.0947
  815MOL0     C 9938   8.960   8.727   6.822 -0.0482  0.6572  0.2827
  815MOL0     C 9939   8.817   8.713   6.823  0.0338 -0.1105 -0.2283
  815MOL0     N 9940   8.187   8.362   6.820 -0.1502 -0.1622 -0.0659
  815MOL0     N 9941   8.107   8.277   6.769  0.2875  0.7684  0.0790
  815MOL0     C 9942   6.938   8.558   6.310  0.0635  0.4843  0.0949
  815MOL0     C 9943   6.826   8.639   6.295  0.4122 -0.8369 -0.5316
  815MOL0     C 9944   6.444   8.812   6.077 -0.0998 -0.5570  0.0710
  815MOL0     C 9945   6.470   8.922   6.160  0.3372 -0.1656 -0.3921
  815MOL0     C 9946   6.375   9.029   6.160  0.4280  0.2537  0.5129
  815MOL0     C 9947   6.269   9.035   6.075  0.3397 -0.2812  0.3288
  815MOL0     O 9948   6.185   9.146   6.093 -0.4289 -0.3197  0.8945
  815MOL0     C 9949   6.164   9.233   5.981 -0.5173 -0.3442  0.0062
  815MOL0     C 9950   6.018   9.267   5.987 -0.5019  0.3538 -0.1573
  815MOL0     C 9951   5.959   9.278   6.129  0.1887 -0.9715 -0.2716
  815MOL0     C 9952   5.866   9.162   6.167 -0.4315  0.1018  0.3199
  815MOL0     C 9953   5.750   9.167   6.083  0.2892 -0.2660  0.7091
  815MOL0     C 9954   5.651   9.172   6.006 -0.0193  0.2914 -0.7851
  815MOL0     C 9955   6.249   8.931   5.986  0.4872 -1.3997  0.2995
  815MOL0     C 9956   6.335   8.819   5.993 -0.2454 -0.4302 -0.6573
  815MOL0     C 9957   6.309   8.697   5.897 -0.1130 -0.3945  0.7510
  815MOL0     H 9958   6.745   8.515   5.992  2.3802 -1.0893 -0.4098
  815MOL0     H 9959   6.921   8.372   6.033  0.7617  0.4698 -0.2857
  815MOL0     H 9960   7.229   8.490   6.286  2.1579 -1.3255 -1.1983
  815MOL0     H 9961   7.163   8.376   6.409 -0.3705 -4.6133 -0.3374
  815MOL0     H 9962   7.310   8.285   6.144 -2.9895 -3.2277  0.1362
  815MOL0     H 9963   7.290   8.196   6.297  1.1030  0.5980  1.4255
  815MOL0     H 9964   7.438   8.445   6.325 -0.0142 -0.4314  0.5432
  815MOL0     H 9965   7.519   8.312   6.256 -1.2539 -1.0512 -2.5068
  815MOL0     H 9966   7.375   8.275   6.521  0.8394  0.0034 -0.0773
  815MOL0     H 9967   7.480   8.171   6.431  2.0870  1.5120 -2.8708
  815MOL0     H 9968   7.659   8.373   6.442  0.6592  1.9506  0.2147
  815MOL0     H 9969   7.556   8.446   6.557 -0.9495  0.2256  1.9845
  815MOL0     H 9970   7.590   8.271   6.727  1.1137  0.3832  0.6429
  815MOL0     H 9971   7.658   8.166   6.609 -1.1733  0.6584  0.8861
  815MOL0     H 9972   7.769   8.428   6.713  2.8102  0.3205 -0.1710
  815MOL0     H 9973   7.839   8.354   6.567 -0.3245  1.8847  0.1602
  815MOL0     H 9974   7.816   8.229   6.841 -0.3587 -0.2683 -1.2560
  815MOL0     H 9975   7.912   8.156   6.707  1.0368  0.4864 -0.3477
  815MOL0     H 9976   7.893   8.464   6.931  0.5393 -1.8388  2.5085
  815MOL0     H 9977   8.133   8.660   6.951  0.5272  0.1047  0.5910
  815MOL0     H 9978   8.170   8.539   7.078 -1.9329  1.2725 -0.1166
  815MOL0     H 9979   8.383   8.495   6.963 -0.3578 -0.0519 -3.2559
  815MOL0     H 9980   8.320   8.610   6.843 -3.6479 -1.5891 -1.1645
  815MOL0     H 9981   8.308   8.682   7.130  1.3441 -0.4419  0.1406
  815MOL0     H 9982   8.339   8.800   7.009 -0.8616  0.2899  1.9184
  815MOL0     H 9983   8.545   8.594   7.110 -0.6240 -0.5161 -0.4338
  815MOL0     H 9984   8.528   8.771   7.140  0.1441 -1.3023  1.3678
  815MOL0     H 9985   8.765   8.691   7.153  0.8899 -3.1778  0.1784
  815MOL0     H 9986   9.002   8.690   7.158  0.0527 -0.0704  0.9149
  815MOL0     H 9987   9.336   8.887   6.641  0.9222  1.0763 -1.4289
  815MOL0     H 9988   9.579   8.898   6.566  4.3411  2.2098  1.3030
  815MOL0     H 9989   9.789   8.859   6.522 -3.5469 -1.2918  2.1816
  815MOL0     H 9990   9.779   9.000   6.613 -0.1851 -0.2841 -0.6012
  815MOL0     H 9991  10.000   8.962   6.723  0.7727 -2.3754  0.0649
  815MOL0     H 9992  10.026   8.833   6.608 -1.2327 -1.4348  2.6584
  815MOL0     H 9993  10.015   8.998   6.421 -2.4070 -3.8383  0.3213
  815MOL0     H 9994   9.944   9.126   6.518 -1.2112 -0.2994  1.0464
  815MOL0     H 9995  10.166   9.102   6.662  0.6343  2.4592 -0.8592
  815MOL0     H 9996  10.172   9.173   6.505  3.3445 -1.8338 -0.5191
  815MOL0     H 9997  10.251   8.976   6.407 -1.8299 -0.7822 -0.9026
  815MOL0     H 9998  10.239   8.891   6.570  3.3783 -1.2152 -2.3752
  815MOL0     H 9999  10.406   9.126   6.488  0.8859  1.7414  1.6822
  815MOL0     H10000  10.384   9.063   6.658 -1.2633  0.6414 -0.9626
  815MOL0     H10001  10.589   8.958   6.537 -0.7015  0.2101  1.4156
  815MOL0     H10002  10.472   8.864   6.440  0.1721 -1.5421  0.8968
  815MOL0     H10003  10.379   8.775   6.652 -0.6190  1.9623  2.6962
  815MOL0     H10004  10.550   8.732   6.632 -1.9984 -2.9754  3.1942
  815MOL0     H10005   9.678   8.729   6.956  3.2892  1.2352 -1.7273
  815MOL0     H10006   9.454   8.699   7.006  1.8960  1.0931  0.8096
  815MOL0     H10007   9.018   8.731   6.730  0.5930 -0.8828  0.5867
  815MOL0     H10008   8.777   8.710   6.722  1.2456 -1.8370 -0.7026
  815MOL0     H10009   6.998   8.579   6.397 -1.7273 -0.0768  1.5434
  815MOL0     H10010   6.812   8.711   6.375 -0.2728 -1.6006  0.0578
  815MOL0     H10011   6.548   8.907   6.234  0.3778  0.2448 -0.3456
  815MOL0     H10012   6.381   9.106   6.236 -1.3590  1.0619 -0.0974
  815MOL0     H10013   6.193   9.197   5.882 -0.5065 -1.5816  0.4397
  815MOL0     H10014   6.225   9.321   6.004 -0.1165 -0.3238 -1.0556
  815MOL0     H10015   5.958   9.191   5.936 -0.2231 -0.6218  0.9316
  815MOL0     H10016   5.993   9.360   5.936 -1.1651  1.7605  2.5339
  815MOL0     H10017   5.905   9.372   6.139  2.0931  0.2313 -0.6949
  815MOL0     H10018   6.043   9.282   6.200 -0.1537 -0.0957  0.0906
  815MOL0     H10019   5.910   9.065   6.140 -0.1226  0.5480 -0.8568
  815MOL0     H10020   5.848   9.164   6.275  1.2477 -1.7009  0.6928
  815MOL0     H10021   5.563   9.178   5.945 -2.2787  0.4486  2.2144
  815MOL0     H10022   6.176   8.934   5.906  0.2680 -1.6596  0.4862
  815MOL0     H10023   6.228   8.715   5.825  1.5835 -0.6099 -1.3155
  815MOL0     H10024   6.396   8.667   5.839 -1.3881 -2.5211 -0.1680
  815MOL0     H10025   6.288   8.612   5.961  3.8491 -4.1308 -2.2961
  816MOL0     O10026   8.261   2.020  10.810  0.3589  0.3858 -0.5327
  816MOL0     C10027   8.230   1.913  10.865 -0.5852  0.1034  0.4286
  816MOL0     O10028   8.313   1.815  10.901 -0.4048 -0.2765 -0.1356
  816MOL0     C10029   8.449   1.820  10.884 -0.5706  0.3417  0.1149
  816MOL0     C10030   8.540   1.756  10.974  0.3287  0.5418  0.2101
  816MOL0     C10031   8.680   1.763  10.956 -0.5838  0.2877 -0.7586
  816MOL0     C10032   8.737   1.824  10.841 -0.1148 -0.3645 -0.0693
  816MOL0     O10033   8.866   1.841  10.800 -0.2598 -0.3565 -0.5372
  816MOL0     C10034   8.962   1.758  10.874 -0.2329  0.3350  0.1684
  816MOL0     C10035   9.095   1.790  10.806 -0.2924 -0.2080  0.3903
  816MOL0     C10036   9.199   1.693  10.867  0.1884  0.3673 -0.0136
  816MOL0     C10037   9.233   1.572  10.780  1.0372 -0.4553  0.6276
  816MOL0     C10038   9.379   1.516  10.799  0.1379 -0.2153  0.3800
  816MOL0     C10039   9.410   1.382  10.720  1.1391  0.1717  0.2090
  816MOL0     C10040   9.310   1.272  10.756 -0.0168 -0.0643  0.6859
  816MOL0     C10041   9.354   1.133  10.707  0.0526  0.2714 -0.2680
  816MOL0     N10042   9.502   1.103  10.741  0.2728 -0.0340 -0.2885
  816MOL0     C10043   9.545   1.059  10.859  0.3840  0.2983 -0.4610
  816MOL0     C10044   9.675   1.037  10.851  0.1109 -0.5736 -0.5434
  816MOL0     C10045   9.771   0.987  10.961  0.5081 -0.0260  0.1658
  816MOL0     C10046   9.781   1.096  11.071 -0.5460  0.0644  1.2683
  816MOL0     C10047   9.902   1.068  11.160 -0.1548  0.3980  0.1455
  816MOL0     C10048   9.960   1.198  11.228 -0.4101  0.2752 -0.0879
  816MOL0     O10049   9.982   1.294  11.125 -0.6765 -0.1129 -0.0774
  816MOL0     C10050  10.059   1.403  11.160 -0.8658  0.1707 -0.4359
  816MOL0     C10051  10.074   1.447  11.292  0.1126  0.2030 -0.5119
  816MOL0     C10052  10.162   1.552  11.319  0.6218  0.3529  0.0074
  816MOL0     C10053  10.246   1.612  11.216  1.1626  0.1522  0.0155
  816MOL0     C10054  10.341   1.721  11.240  0.2625 -0.1306 -1.0011
  816MOL0     O10055  10.391   1.774  11.128 -0.1560  0.6178  0.0802
  816MOL0     C10056  10.522   1.828  11.137  0.3722  0.0445 -0.3824
  816MOL0     C10057  10.549   1.957  11.185 -0.1390  0.4206 -0.2557
  816MOL0     C10058  10.676   2.010  11.203  0.2092 -0.4688 -0.4544
  816MOL0     C10059  10.790   1.927  11.175 -0.8375  0.0145  0.4837
  816MOL0     O10060  10.907   1.984  11.210 -0.2345 -0.4172  0.0361
  816MOL0     C10061  11.013   1.888  11.220 -0.2685 -0.0413  0.0744
  816MOL0     C10062  11.134   1.956  11.278 -0.8882  0.0621  0.1357
  816MOL0     C10063  11.257   1.859  11.287 -0.6162 -0.1122  0.4293
  816MOL0     C10064  11.385   1.937  11.336  0.4258 -0.5290 -1.2576
  816MOL0     C10065  11.502   1.845  11.318 -0.5220  0.8065 -0.1979
  816MOL0     C10066  11.632   1.914  11.371  0.0681  0.7356  0.2855
  816MOL0     C10067  11.746   1.816  11.364 -0.9484 -0.2748  0.4212
  816MOL0     C10068  11.869   1.892  11.399  0.3191  0.4772  0.0765
  816MOL0    Cl10069  12.013   1.784  11.370  0.3661  0.0155 -0.1713
  816MOL0     C10070  10.773   1.801  11.114 -0.8377  0.0951 -0.0565
  816MOL0     C10071  10.643   1.747  11.113  0.4903 -1.2217  0.5254
  816MOL0     O10072  10.386   1.740  11.349  0.4840 -0.1436 -0.4355
  816MOL0     C10073  10.232   1.559  11.086  0.3218 -0.4995 -0.1825
  816MOL0     C10074  10.137   1.463  11.059  0.3716  0.1553  0.3810
  816MOL0     N10075   9.708   1.064  10.716 -0.5401  0.0304 -0.6405
  816MOL0     N10076   9.598   1.087  10.649 -0.5522 -1.5099 -0.4152
  816MOL0     C10077   8.646   1.882  10.759 -0.2162 -0.4820  0.1996
  816MOL0     C10078   8.511   1.877  10.775  0.7399  0.1930  0.2856
  816MOL0     C10079   8.093   1.905  10.917 -0.1312 -0.0800  0.0251
  816MOL0     C10080   8.068   1.828  11.027 -0.8239  0.2856 -0.0613
  816MOL0     C10081   7.947   1.819  11.085 -0.0566 -0.3708  0.2835
  816MOL0     C10082   7.834   1.885  11.038 -0.4415 -0.2460 -0.3445
  816MOL0     O10083   7.710   1.879  11.092 -0.6115  0.0988 -0.0517
  816MOL0     C10084   7.720   1.876  11.236 -0.0944 -0.4819 -0.6663
  816MOL0     C10085   7.591   1.905  11.304  0.8421  0.2090  0.2827
  816MOL0     C10086   7.489   1.786  11.284 -0.0750 -0.0752  0.5180
  816MOL0     C10087   7.407   1.799  11.157  0.6824  0.0000 -1.1781
  816MOL0     C10088   7.306   1.897  11.168  1.1668 -0.4231 -0.5389
  816MOL0     C10089   7.226   1.985  11.172  0.6341  0.3976 -0.1746
  816MOL0     C10090   7.855   1.958  10.917  0.5644 -0.0012 -0.3927
  816MOL0     C10091   7.981   1.976  10.858  0.0692 -0.1578 -0.0911
  816MOL0     C10092   8.001   2.066  10.737  0.8147  0.4252  0.0171
  816MOL0     H10093   8.492   1.725  11.066 -0.9950 -0.2489 -0.7255
  816MOL0     H10094   8.744   1.700  11.017 -0.8831 -2.2519 -2.8464
  816MOL0     H10095   8.975   1.783  10.979  2.6134 -1.2718  0.3147
  816MOL0     H10096   8.935   1.655  10.849  2.0865 -0.1023 -0.8477
  816MOL0     H10097   9.117   1.893  10.837 -0.9621 -0.0126  0.2245
  816MOL0     H10098   9.092   1.789  10.697 -0.9832 -0.1554  0.4038
  816MOL0     H10099   9.169   1.658  10.967  1.4200 -1.5453 -0.2730
  816MOL0     H10100   9.284   1.757  10.890 -0.0436 -0.1443  2.6917
  816MOL0     H10101   9.159   1.494  10.799  0.8883 -0.7117 -0.8493
  816MOL0     H10102   9.229   1.598  10.674 -1.1797 -2.9991 -0.0181
  816MOL0     H10103   9.459   1.580  10.761  0.0887 -0.5743 -0.3570
  816MOL0     H10104   9.397   1.498  10.905 -0.9072  0.4403  0.6803
  816MOL0     H10105   9.395   1.403  10.614  0.5443  0.5657  0.3711
  816MOL0     H10106   9.515   1.352  10.733  0.9033 -1.0790 -0.6401
  816MOL0     H10107   9.216   1.299  10.706  1.1852 -0.9624 -2.3387
  816MOL0     H10108   9.290   1.263  10.863 -0.2419 -2.3375  0.5104
  816MOL0     H10109   9.293   1.059  10.760  1.3935 -0.2846  0.5410
  816MOL0     H10110   9.336   1.124  10.600 -0.1809  0.7725 -0.2749
  816MOL0     H10111   9.485   1.042  10.947  0.9552  2.6778  0.4805
  816MOL0     H10112   9.740   0.891  11.002  0.8546 -0.0383  0.3947
  816MOL0     H10113   9.871   0.986  10.918  0.6872  3.1906  0.2174
  816MOL0     H10114   9.793   1.189  11.015 -0.5956 -0.8657 -0.3393
  816MOL0     H10115   9.685   1.115  11.119 -0.1877  3.0727  0.9891
  816MOL0     H10116   9.975   1.035  11.086  0.9712  2.2552  0.3672
  816MOL0     H10117   9.880   0.998  11.242  1.2450  0.7096  0.8178
  816MOL0     H10118  10.055   1.170  11.275 -0.5962 -0.7376 -0.2957
  816MOL0     H10119   9.882   1.238  11.294 -2.3556 -1.7332 -1.0389
  816MOL0     H10120  10.023   1.389  11.368  0.6051 -0.6693 -0.8270
  816MOL0     H10121  10.193   1.587  11.417  0.3233  0.8183 -0.0580
  816MOL0     H10122  10.460   2.011  11.216  1.8067  2.5038  2.0849
  816MOL0     H10123  10.692   2.108  11.247  1.6119 -1.9044  2.5380
  816MOL0     H10124  10.969   1.813  11.286  0.4669  1.1567  2.0013
  816MOL0     H10125  11.039   1.844  11.123  2.0244 -0.6771  0.9169
  816MOL0     H10126  11.152   2.038  11.208 -0.6502 -1.3328 -1.5119
  816MOL0     H10127  11.106   1.998  11.375 -1.4176 -0.5202  0.2370
  816MOL0     H10128  11.229   1.773  11.348  1.1341 -1.5668 -0.7201
  816MOL0     H10129  11.269   1.813  11.188 -1.7346 -1.0996  0.7297
  816MOL0     H10130  11.384   1.967  11.441  3.3024  2.6116 -1.9589
  816MOL0     H10131  11.402   2.026  11.275 -0.0966  0.3692 -0.1178
  816MOL0     H10132  11.509   1.815  11.213  0.5235  0.5358 -0.0640
  816MOL0     H10133  11.488   1.749  11.369 -1.4069 -0.0561 -1.9673
  816MOL0     H10134  11.651   2.007  11.316 -4.4010  0.9960 -1.2126
  816MOL0     H10135  11.610   1.942  11.475 -1.0558 -0.2421  0.3279
  816MOL0     H10136  11.766   1.770  11.267 -0.5221  1.5361 -0.3918
  816MOL0     H10137  11.734   1.738  11.440  1.2491 -1.6702 -0.5717
  816MOL0     H10138  11.877   1.976  11.330 -0.6589  0.5807  0.0711
  816MOL0     H10139  11.881   1.915  11.505  1.6812 -0.6714  0.2033
  816MOL0     H10140  10.860   1.746  11.078 -0.6132 -0.1782  0.8866
  816MOL0     H10141  10.626   1.650  11.069  0.3061 -0.8945 -0.1282
  816MOL0     H10142  10.297   1.600  11.010 -0.8725  0.9318 -0.4978
  816MOL0     H10143  10.111   1.438  10.957 -3.2919 -1.9634  1.6238
  816MOL0     H10144   8.681   1.949  10.681 -2.7345  1.4863  0.6452
  816MOL0     H10145   8.456   1.941  10.707  1.7853 -0.3263 -1.0795
  816MOL0     H10146   8.150   1.769  11.068 -1.8563 -1.1149  0.0579
  816MOL0     H10147   7.946   1.735  11.155  1.2413 -1.0686 -0.5002
  816MOL0     H10148   7.789   1.955  11.267  0.4130 -0.7148 -1.1696
  816MOL0     H10149   7.762   1.780  11.267  1.6443  0.1135 -1.0488
  816MOL0     H10150   7.554   2.003  11.270  1.0754  0.9302  2.0001
  816MOL0     H10151   7.592   1.924  11.412  1.3048  3.9684 -0.2235
  816MOL0     H10152   7.425   1.777  11.372 -1.4288  0.1695 -0.4099
  816MOL0     H10153   7.555   1.699  11.272  1.4121  1.0185  0.5519
  816MOL0     H10154   7.464   1.828  11.068  1.2594  1.4896 -0.3611
  816MOL0     H10155   7.367   1.700  11.133  0.7513 -0.2941 -0.1127
  816MOL0     H10156   7.153   2.061  11.192  0.4237  0.6095 -1.6949
  816MOL0     H10157   7.772   2.016  10.879  0.9694  0.1099 -1.1393
  816MOL0     H10158   7.901   2.092  10.701  0.5524 -0.8584 -0.2516
  816MOL0     H10159   8.053   2.159  10.761  0.2211  0.5099  1.0492
  816MOL0     H10160   8.046   2.007  10.657 -0.7705 -2.3523  1.0068
  817MOL0     O10161   6.549   1.013   3.272 -0.3206 -0.2005  0.1795
  817MOL0     C10162   6.497   0.913   3.232  0.7018  0.4101 -0.9716
  817MOL0     O10163   6.560   0.802   3.176  0.5574 -0.0179  0.0438
  817MOL0     C10164   6.699   0.804   3.175 -0.3117  0.4925  0.0097
  817MOL0     C10165   6.768   0.784   3.053 -0.0470  0.0206 -0.5587
  817MOL0     C10166   6.910   0.786   3.051 -0.4117  0.6988 -0.1688
  817MOL0     C10167   6.980   0.796   3.169  0.4922  0.8580 -0.2781
  817MOL0     O10168   7.121   0.786   3.167  0.2453  0.4621 -0.4092
  817MOL0     C10169   7.185   0.795   3.301 -0.3082  0.9865  0.1777
  817MOL0     C10170   7.340   0.796   3.289 -0.2064  0.9748 -0.1225
  817MOL0     C10171   7.401   0.785   3.429 -1.6127 -0.6666  1.0475
  817MOL0     C10172   7.545   0.854   3.421 -0.4372 -0.3035  0.0991
  817MOL0     C10173   7.643   0.776   3.500  0.3791  1.1396  0.6459
  817MOL0     C10174   7.686   0.646   3.433 -0.0298 -0.7132 -0.7190
  817MOL0     C10175   7.811   0.581   3.468 -0.6530  0.0680  0.1522
  817MOL0     C10176   7.799   0.544   3.619 -0.0579 -1.1407 -0.4965
  817MOL0     N10177   7.939   0.502   3.667  0.4208  0.8598 -0.0251
  817MOL0     C10178   8.050   0.580   3.704 -0.5263  0.2869 -0.8676
  817MOL0     C10179   8.159   0.502   3.720 -0.7869 -0.3978 -1.1233
  817MOL0     C10180   8.304   0.536   3.772 -0.3629  0.1859 -0.2461
  817MOL0     C10181   8.393   0.530   3.646  0.4731 -0.2059 -0.0050
  817MOL0     C10182   8.535   0.530   3.708  0.5437 -0.7252 -0.4880
  817MOL0     C10183   8.649   0.529   3.611 -0.4034 -0.2618  0.3296
  817MOL0     O10184   8.771   0.518   3.699  0.6405 -0.4725 -0.2902
  817MOL0     C10185   8.887   0.548   3.640 -0.0590  0.4940 -0.2813
  817MOL0     C10186   8.910   0.529   3.501 -0.1684 -0.4328 -0.0293
  817MOL0     C10187   9.036   0.541   3.441  0.4175 -0.1422 -0.1994
  817MOL0     C10188   9.150   0.579   3.516 -0.1061  0.4218  0.7894
  817MOL0     C10189   9.283   0.613   3.458  0.0223  0.2869 -0.1908
  817MOL0     O10190   9.381   0.640   3.546 -0.8668  0.2359 -0.0963
  817MOL0     C10191   9.502   0.697   3.510 -0.6535  0.1136  0.2514
  817MOL0     C10192   9.526   0.782   3.404 -0.5043 -0.7477  0.2091
  817MOL0     C10193   9.651   0.860   3.394  0.6153  0.9565  0.3699
  817MOL0     C10194   9.756   0.839   3.481  0.5809  1.0122 -0.5182
  817MOL0     O10195   9.867   0.914   3.482  0.2941 -0.7370 -0.7214
  817MOL0     C10196   9.989   0.843   3.457  0.1410 -0.4782 -0.9933
  817MOL0     C10197  10.106   0.942   3.499 -0.3455  0.7298 -0.5411
  817MOL0     C10198  10.110   0.958   3.654 -0.3543  0.1385 -0.6844
  817MOL0     C10199  10.187   0.858   3.739 -0.4992  0.2372  0.2469
  817MOL0     C10200  10.170   0.886   3.883  0.2014 -1.0438  0.4272
  817MOL0     C10201  10.257   0.786   3.954 -0.4154 -0.2938 -0.5191
  817MOL0     C10202  10.235   0.820   4.106  0.2500  1.0250 -0.5099
  817MOL0     C10203  10.341   0.907   4.165  0.2529  0.1551  0.0201
  817MOL0    Cl10204  10.335   0.912   4.344  0.1029 -0.0681 -0.0642
  817MOL0     C10205   9.740   0.736   3.578 -0.3420  0.6525  0.0456
  817MOL0     C10206   9.616   0.677   3.598 -0.0560  0.8251  0.5156
  817MOL0     O10207   9.302   0.593   3.336 -0.3896  0.9843  0.3461
  817MOL0     C10208   9.125   0.614   3.651 -0.5758 -0.5602 -0.1559
  817MOL0     C10209   8.992   0.598   3.708 -0.2978 -0.1193  0.0374
  817MOL0     N10210   8.115   0.372   3.692 -0.6015 -0.0251 -0.8474
  817MOL0     N10211   7.994   0.374   3.661  0.6588 -0.6415 -0.4494
  817MOL0     C10212   6.909   0.815   3.291  0.3512  0.5222  0.1053
  817MOL0     C10213   6.769   0.828   3.294  0.3245  1.0264 -0.0481
  817MOL0     C10214   6.345   0.910   3.231 -0.3982 -1.0099 -0.4872
  817MOL0     C10215   6.272   0.833   3.139  0.2129  1.0044  0.2470
  817MOL0     C10216   6.133   0.836   3.131  0.3474 -0.1282 -0.6623
  817MOL0     C10217   6.056   0.926   3.195 -0.0134 -0.5946  0.5006
  817MOL0     O10218   5.917   0.956   3.195  0.0136  0.2912  0.2108
  817MOL0     C10219   5.863   0.964   3.065 -0.1214  0.6881 -0.0352
  817MOL0     C10220   5.784   1.095   3.052  0.0113  0.0136  0.3684
  817MOL0     C10221   5.660   1.097   3.139  0.1980 -0.8445 -0.6954
  817MOL0     C10222   5.579   1.228   3.120 -0.3952  0.4056  0.7363
  817MOL0     C10223   5.468   1.229   3.207 -0.3828 -0.5022 -0.6214
  817MOL0     C10224   5.377   1.222   3.286 -0.9237  0.3023 -0.8483
  817MOL0     C10225   6.122   0.998   3.298  0.1504 -0.6920  0.6814
  817MOL0     C10226   6.262   0.988   3.313 -0.4503  0.4270  0.0673
  817MOL0     C10227   6.313   1.066   3.430 -0.5038 -0.1881 -1.0310
  817MOL0     H10228   6.720   0.777   2.956  1.4062 -1.7117 -1.1992
  817MOL0     H10229   6.973   0.790   2.964  1.9309  0.5628  1.4342
  817MOL0     H10230   7.162   0.889   3.353  4.1782  0.9324  2.7426
  817MOL0     H10231   7.150   0.711   3.361  1.0741 -0.5525 -1.1055
  817MOL0     H10232   7.369   0.888   3.237 -0.6811  0.2681 -1.7072
  817MOL0     H10233   7.363   0.713   3.222 -1.5018  1.7046 -1.5324
  817MOL0     H10234   7.411   0.677   3.446  2.0036 -0.4550  1.1296
  817MOL0     H10235   7.353   0.837   3.512  1.8981  2.0413  1.6376
  817MOL0     H10236   7.580   0.862   3.317 -0.0919 -2.0267  0.0539
  817MOL0     H10237   7.550   0.959   3.450 -1.1458  0.4890 -2.3818
  817MOL0     H10238   7.734   0.836   3.507  1.5346 -0.4953  0.3884
  817MOL0     H10239   7.601   0.754   3.598  1.5635 -2.3960  0.5175
  817MOL0     H10240   7.610   0.569   3.448 -2.0859  1.1748 -0.9504
  817MOL0     H10241   7.694   0.665   3.325  0.5738 -0.8561 -0.7045
  817MOL0     H10242   7.900   0.641   3.449  0.7746 -1.6401  1.2067
  817MOL0     H10243   7.815   0.485   3.415 -0.4225 -0.8337  1.7496
  817MOL0     H10244   7.778   0.643   3.662 -0.3035 -0.6151 -1.7817
  817MOL0     H10245   7.730   0.465   3.648  0.7779 -1.7530 -0.1120
  817MOL0     H10246   8.059   0.688   3.717 -1.5953  0.4088 -1.0157
  817MOL0     H10247   8.296   0.637   3.812  0.6589  0.1605  0.0523
  817MOL0     H10248   8.352   0.464   3.839  1.3435  1.2428 -0.2770
  817MOL0     H10249   8.375   0.446   3.578 -1.9696 -0.2713  0.6359
  817MOL0     H10250   8.383   0.620   3.585 -1.3784  0.4859  1.2561
  817MOL0     H10251   8.557   0.442   3.769  3.8701  0.9300  0.9679
  817MOL0     H10252   8.547   0.619   3.771 -1.9668  0.8335 -1.9967
  817MOL0     H10253   8.655   0.620   3.551  2.4878  0.3756  1.4309
  817MOL0     H10254   8.643   0.438   3.551  1.1448 -0.4326  0.3787
  817MOL0     H10255   8.829   0.491   3.440 -1.6891 -1.6823  2.6025
  817MOL0     H10256   9.041   0.510   3.337 -1.1957 -0.6085 -0.1707
  817MOL0     H10257   9.438   0.804   3.344 -0.7239  0.3660  0.9104
  817MOL0     H10258   9.649   0.944   3.325 -0.6194  1.5143  1.0642
  817MOL0     H10259   9.995   0.741   3.497  2.0355 -0.3385 -0.8656
  817MOL0     H10260  10.015   0.827   3.351  1.0072  3.1988 -1.4564
  817MOL0     H10261  10.204   0.907   3.465  0.2083  1.2392  0.4740
  817MOL0     H10262  10.089   1.040   3.453  0.2627  2.0079  1.7752
  817MOL0     H10263  10.170   1.049   3.667  0.0929 -0.5174  2.7807
  817MOL0     H10264  10.013   0.982   3.699 -0.7963  0.3117 -1.6960
  817MOL0     H10265  10.288   0.868   3.699 -0.7482 -0.0120 -0.4715
  817MOL0     H10266  10.160   0.755   3.713  0.3085  0.1824 -0.4188
  817MOL0     H10267  10.067   0.875   3.918 -0.5170  3.1412  0.0982
  817MOL0     H10268  10.208   0.985   3.909 -2.0547 -0.4444  1.7164
  817MOL0     H10269  10.216   0.685   3.944  0.5416 -0.8827  1.1450
  817MOL0     H10270  10.362   0.796   3.927  0.7373 -1.2270  3.1572
  817MOL0     H10271  10.235   0.731   4.170 -0.2882 -0.0600 -1.9708
  817MOL0     H10272  10.135   0.863   4.117 -0.2212 -0.1859  0.2007
  817MOL0     H10273  10.429   0.855   4.128 -0.1903  0.1416 -1.0311
  817MOL0     H10274  10.347   1.008   4.125  1.4310  0.1981  0.2746
  817MOL0     H10275   9.819   0.708   3.648 -0.6701 -0.5622 -0.0541
  817MOL0     H10276   9.594   0.599   3.670  0.0185  0.0468 -0.2862
  817MOL0     H10277   9.199   0.655   3.720 -3.5209  0.5023  2.6174
  817MOL0     H10278   8.969   0.628   3.810  0.7326  1.3728 -0.1308
  817MOL0     H10279   6.953   0.827   3.389 -0.5217 -0.3991  0.6191
  817MOL0     H10280   6.707   0.849   3.380 -1.3924 -2.1755 -0.3324
  817MOL0     H10281   6.315   0.756   3.076 -1.0633  1.4092 -1.1744
  817MOL0     H10282   6.082   0.763   3.070  2.8380  0.2731 -3.4275
  817MOL0     H10283   5.792   0.882   3.051 -1.5993  1.7740  0.9040
  817MOL0     H10284   5.945   0.952   2.993  1.0915  1.3489  1.1764
  817MOL0     H10285   5.757   1.105   2.947  2.2695  1.9077 -0.1329
  817MOL0     H10286   5.854   1.172   3.088  0.9617 -0.7204  0.1212
  817MOL0     H10287   5.695   1.101   3.243 -0.7366  1.2200 -0.4069
  817MOL0     H10288   5.588   1.017   3.121  0.0785 -0.6311 -1.1693
  817MOL0     H10289   5.653   1.304   3.149 -0.4239 -0.9940  5.2458
  817MOL0     H10290   5.544   1.229   3.017  0.1962  1.8350  0.5165
  817MOL0     H10291   5.311   1.208   3.369 -0.9157  0.1437 -0.8677
  817MOL0     H10292   6.061   1.058   3.365  0.3818 -0.8370  1.0234
  817MOL0     H10293   6.353   1.157   3.386  0.1590 -1.0848 -2.3322
  817MOL0     H10294   6.236   1.102   3.499 -0.8390  0.1917 -1.5987
  817MOL0     H10295   6.389   1.015   3.490 -1.3449  0.5492  0.7361
  818MOL0     O10296   7.855   2.770   8.829  0.3738  0.4244  0.2816
  818MOL0     C10297   7.837   2.693   8.731  0.6060 -0.7019  0.2913
  818MOL0     O10298   7.724   2.670   8.668 -0.2658 -0.0156  0.1047
  818MOL0     C10299   7.619   2.742   8.713 -0.2983 -0.4454 -0.3228
  818MOL0     C10300   7.596   2.867   8.664  0.1362  0.0874  0.2600
  818MOL0     C10301   7.486   2.939   8.721  0.6783 -0.0950  0.8236
  818MOL0     C10302   7.399   2.883   8.816  0.9073  0.6627 -0.7038
  818MOL0     O10303   7.301   2.964   8.869 -0.5529  0.3318 -0.4276
  818MOL0     C10304   7.251   2.928   9.004 -0.0562 -0.1422 -0.4545
  818MOL0     C10305   7.156   3.037   9.065 -0.1865  0.2235  0.0160
  818MOL0     C10306   7.051   3.093   8.974 -0.1685  0.9875  1.2586
  818MOL0     C10307   6.933   3.163   9.038 -0.9703  0.3861  0.6710
  818MOL0     C10308   6.846   3.241   8.936 -0.7035 -0.4275 -0.1332
  818MOL0     C10309   6.730   3.160   8.873 -0.0209 -0.0582 -0.1368
  818MOL0     C10310   6.632   3.252   8.793  0.2139  0.4798 -0.1925
  818MOL0     C10311   6.675   3.278   8.653  0.4442 -0.8309  0.0064
  818MOL0     N10312   6.582   3.373   8.590  0.1518 -0.4214 -0.9485
  818MOL0     C10313   6.503   3.350   8.489 -0.1122 -1.0836 -0.1873
  818MOL0     C10314   6.465   3.472   8.448 -0.5032  0.7310  0.2040
  818MOL0     C10315   6.367   3.499   8.337 -0.0065  0.0016  0.4142
  818MOL0     C10316   6.230   3.539   8.383  0.5799 -0.8877  1.0383
  818MOL0     C10317   6.131   3.581   8.281 -0.7856  0.2972  1.1114
  818MOL0     C10318   6.167   3.701   8.200 -0.0105 -0.1313  0.9040
  818MOL0     O10319   6.188   3.811   8.281  0.0542 -0.8245 -0.2862
  818MOL0     C10320   6.080   3.857   8.344  0.2068  0.1351  0.3172
  818MOL0     C10321   5.966   3.898   8.279  0.6506 -0.2022  0.1307
  818MOL0     C10322   5.869   3.972   8.349 -0.0046 -1.0422 -0.6785
  818MOL0     C10323   5.886   4.002   8.490 -0.3360 -0.1041  0.4491
  818MOL0     C10324   5.768   4.077   8.562 -0.5793  0.0902 -0.1507
  818MOL0     O10325   5.794   4.097   8.698  0.6191 -0.0844  0.2136
  818MOL0     C10326   5.673   4.117   8.760 -0.0086  0.0548  0.0061
  818MOL0     C10327   5.584   4.010   8.769  0.4393  0.9446 -0.3712
  818MOL0     C10328   5.468   4.019   8.843 -0.4193  0.2101  0.3416
  818MOL0     C10329   5.432   4.137   8.899  0.3369 -0.9204 -0.4186
  818MOL0     O10330   5.319   4.163   8.975 -0.2469 -0.5756 -0.2105
  818MOL0     C10331   5.258   4.045   9.035  0.1553 -0.1221  0.1505
  818MOL0     C10332   5.114   4.064   9.095 -0.2198 -0.3437  0.4502
  818MOL0     C10333   5.058   3.927   9.138  0.7119  0.2025 -0.1821
  818MOL0     C10334   4.916   3.927   9.205  1.1525 -0.6348  0.0514
  818MOL0     C10335   4.912   3.967   9.352  0.0652  0.5899  0.2326
  818MOL0     C10336   4.964   3.860   9.440 -0.3927 -0.2296  0.3232
  818MOL0     C10337   4.925   3.891   9.589 -0.5319 -0.2667  0.2335
  818MOL0     C10338   4.905   3.757   9.676 -0.7075 -0.7084  0.1999
  818MOL0    Cl10339   5.033   3.638   9.688 -0.0352 -0.0872  0.0643
  818MOL0     C10340   5.512   4.243   8.895  0.2888 -0.8168  0.6009
  818MOL0     C10341   5.635   4.234   8.824  0.3886 -0.1748  0.1262
  818MOL0     O10342   5.672   4.120   8.498  0.8815 -0.9586  0.2677
  818MOL0     C10343   6.002   3.963   8.554  0.6053 -0.2955 -0.1746
  818MOL0     C10344   6.092   3.893   8.484 -0.2975  0.3502 -0.2057
  818MOL0     N10345   6.522   3.571   8.522 -0.1187  0.4613  0.6983
  818MOL0     N10346   6.591   3.504   8.604  0.5151  0.1132 -0.2018
  818MOL0     C10347   7.423   2.751   8.862 -0.6649 -0.7117 -0.1397
  818MOL0     C10348   7.537   2.686   8.818 -0.6389  0.8186  1.1867
  818MOL0     C10349   7.949   2.607   8.715 -0.1097  1.0662 -0.2367
  818MOL0     C10350   8.039   2.596   8.825  0.0006 -0.2047  0.8928
  818MOL0     C10351   8.153   2.507   8.810  0.3126 -0.7344  0.3319
  818MOL0     C10352   8.176   2.428   8.700  0.5720  0.0196  0.6076
  818MOL0     O10353   8.306   2.369   8.697  0.6815 -0.0645  0.9024
  818MOL0     C10354   8.336   2.281   8.586 -0.7306  0.4816 -0.6852
  818MOL0     C10355   8.480   2.246   8.583 -0.2284 -0.0267 -0.0257
  818MOL0     C10356   8.575   2.361   8.619  0.3141  0.1069 -1.2695
  818MOL0     C10357   8.730   2.332   8.601  0.9205  0.8754  0.3690
  818MOL0     C10358   8.770   2.358   8.464  0.2657  0.4174 -0.2961
  818MOL0     C10359   8.794   2.378   8.342 -0.4815  0.1755  0.2227
  818MOL0     C10360   8.091   2.448   8.591  0.7330  0.6541  0.5177
  818MOL0     C10361   7.974   2.527   8.591 -0.2413  0.5747 -0.1758
  818MOL0     C10362   7.883   2.534   8.466  0.9265  0.3669 -0.3519
  818MOL0     H10363   7.660   2.918   8.592 -0.7914 -1.4222 -1.6939
  818MOL0     H10364   7.474   3.043   8.690  2.4011 -0.2731 -0.6576
  818MOL0     H10365   7.184   2.842   9.004 -0.7397  0.1936  3.3687
  818MOL0     H10366   7.330   2.911   9.078 -1.2294 -0.7935  0.6844
  818MOL0     H10367   7.227   3.115   9.094  1.6481 -1.0417 -0.7897
  818MOL0     H10368   7.104   2.996   9.152 -1.6645 -1.5639 -1.6330
  818MOL0     H10369   7.008   3.007   8.922  0.8428 -0.8430  3.2929
  818MOL0     H10370   7.108   3.159   8.907  0.6869 -1.5857 -0.7104
  818MOL0     H10371   6.860   3.095   9.085 -2.9305  0.8283 -1.5399
  818MOL0     H10372   6.957   3.244   9.107  1.1137 -0.1106  0.5895
  818MOL0     H10373   6.800   3.325   8.989 -0.8278 -1.3889  1.3629
  818MOL0     H10374   6.912   3.270   8.854 -0.3105  1.8894  0.9380
  818MOL0     H10375   6.773   3.081   8.811  1.1990  1.6698 -1.5853
  818MOL0     H10376   6.672   3.101   8.944 -1.5472 -1.0323 -2.1053
  818MOL0     H10377   6.610   3.345   8.847 -0.7466  1.0125 -1.4439
  818MOL0     H10378   6.548   3.182   8.800  2.2799 -1.9961  2.4896
  818MOL0     H10379   6.776   3.318   8.650  0.1235  0.1458  1.3475
  818MOL0     H10380   6.669   3.184   8.596  1.0700 -0.0507 -1.3886
  818MOL0     H10381   6.463   3.258   8.449 -2.0418 -0.3656 -0.0095
  818MOL0     H10382   6.404   3.588   8.285 -2.2575  1.3675  1.0176
  818MOL0     H10383   6.369   3.418   8.262 -0.2292  0.8228 -0.5058
  818MOL0     H10384   6.183   3.462   8.445 -3.2349 -2.1037 -2.8353
  818MOL0     H10385   6.244   3.622   8.453 -1.3944  0.3768  0.0134
  818MOL0     H10386   6.040   3.603   8.338 -2.1256 -0.6864 -0.5698
  818MOL0     H10387   6.125   3.503   8.204 -0.8871  1.4424 -0.0727
  818MOL0     H10388   6.085   3.721   8.131  0.6079  1.6133  0.6214
  818MOL0     H10389   6.261   3.677   8.149 -0.6831  0.8946 -0.9036
  818MOL0     H10390   5.958   3.877   8.173  2.4919  1.4652 -0.4096
  818MOL0     H10391   5.778   3.993   8.295  1.3820 -1.6158 -3.4015
  818MOL0     H10392   5.616   3.918   8.722  2.6429  2.4283 -1.9696
  818MOL0     H10393   5.403   3.932   8.852 -1.8749  1.2360  0.1091
  818MOL0     H10394   5.253   3.963   8.964  0.5644 -1.1326  1.2521
  818MOL0     H10395   5.313   4.007   9.122 -1.2808 -0.2636  1.0265
  818MOL0     H10396   5.113   4.139   9.175 -3.0509  1.3238 -1.0260
  818MOL0     H10397   5.052   4.111   9.019  0.2338 -3.2086 -1.8782
  818MOL0     H10398   5.047   3.877   9.042  2.1192  0.7756 -0.6576
  818MOL0     H10399   5.133   3.879   9.202  2.0609 -0.1253 -1.9519
  818MOL0     H10400   4.874   3.827   9.195  1.3068 -0.8215  1.1582
  818MOL0     H10401   4.852   3.999   9.152  2.2676  0.8496  0.6413
  818MOL0     H10402   4.805   3.974   9.376  0.0769  2.3626 -0.1382
  818MOL0     H10403   4.961   4.060   9.381 -3.0354  2.5889 -0.5190
  818MOL0     H10404   4.917   3.770   9.400 -0.1892 -0.0032 -0.4531
  818MOL0     H10405   5.074   3.858   9.441 -0.3707 -2.6789  2.5916
  818MOL0     H10406   4.830   3.945   9.597 -0.1713  0.1627  1.9260
  818MOL0     H10407   5.004   3.944   9.643 -2.2452  0.2550  2.3854
  818MOL0     H10408   4.873   3.792   9.775  2.2302  1.7206  0.4466
  818MOL0     H10409   4.814   3.709   9.639 -1.2182  0.4436 -0.1126
  818MOL0     H10410   5.477   4.333   8.944  0.0737 -0.7096  0.2541
  818MOL0     H10411   5.712   4.310   8.818  0.7959 -0.4689  1.3672
  818MOL0     H10412   6.022   3.979   8.660 -0.3354  3.0558 -0.3963
  818MOL0     H10413   6.184   3.866   8.534  0.5592 -0.5747 -2.2034
  818MOL0     H10414   7.351   2.698   8.923 -2.0391  4.0196  2.7968
  818MOL0     H10415   7.551   2.584   8.852 -0.3069  0.8354  1.1004
  818MOL0     H10416   8.023   2.635   8.925 -0.6783 -1.4915  1.3115
  818MOL0     H10417   8.221   2.481   8.891  1.5620 -3.0797 -1.3595
  818MOL0     H10418   8.318   2.325   8.487  3.5207  1.1359 -1.3601
  818MOL0     H10419   8.272   2.193   8.599  1.8709 -1.2869  1.0528
  818MOL0     H10420   8.499   2.219   8.479 -2.0474  0.0157 -0.4096
  818MOL0     H10421   8.496   2.158   8.646 -0.1641  0.1179  0.1606
  818MOL0     H10422   8.572   2.386   8.725  3.4012 -0.4459 -0.9841
  818MOL0     H10423   8.542   2.446   8.558 -0.0764  2.6109  2.1852
  818MOL0     H10424   8.794   2.399   8.660  2.6371 -1.2064  0.9851
  818MOL0     H10425   8.750   2.225   8.611  0.8070  0.4626 -2.9250
  818MOL0     H10426   8.827   2.401   8.243 -2.8483  0.0548 -0.6552
  818MOL0     H10427   8.118   2.401   8.497 -0.5642  1.0819 -0.1018
  818MOL0     H10428   7.919   2.477   8.380 -0.0784  0.9197 -1.1533
  818MOL0     H10429   7.780   2.506   8.487  0.8011  2.7582  3.0857
  818MOL0     H10430   7.877   2.639   8.436 -1.7983 -0.1128 -1.7237
  819MOL0     O10431   9.007   2.638   4.097 -0.1608  0.3927 -0.5215
  819MOL0     C10432   8.936   2.634   4.198 -0.3857  0.4242 -0.7578
  819MOL0     O10433   8.982   2.591   4.318  0.1116  0.0984 -0.1905
  819MOL0     C10434   9.066   2.484   4.309  0.3175 -0.4373  0.3168
  819MOL0     C10435   9.203   2.487   4.267  0.6093  0.6521  0.2559
  819MOL0     C10436   9.269   2.361   4.272  0.3746 -0.4768  0.4612
  819MOL0     C10437   9.213   2.248   4.321  0.5926  0.2804 -0.3008
  819MOL0     O10438   9.290   2.133   4.324 -0.0267  0.1290  0.5651
  819MOL0     C10439   9.303   2.080   4.457 -0.0811  0.4945 -0.3558
  819MOL0     C10440   9.454   2.030   4.478  0.4181 -0.0326 -0.0912
  819MOL0     C10441   9.557   2.137   4.530  0.0070  0.0700  0.3415
  819MOL0     C10442   9.693   2.065   4.570  1.0345 -0.7059  0.2890
  819MOL0     C10443   9.811   2.162   4.614  0.2403  0.6634  0.6871
  819MOL0     C10444   9.939   2.081   4.657 -0.5530 -0.5063 -0.3743
  819MOL0     C10445  10.045   2.181   4.711  0.5386  0.0073 -0.1322
  819MOL0     C10446  10.189   2.121   4.705 -0.2519  0.5584 -0.6470
  819MOL0     N10447  10.305   2.204   4.722 -0.2488 -0.2660  0.1921
  819MOL0     C10448  10.351   2.264   4.830  0.0133  0.1078  0.3840
  819MOL0     C10449  10.453   2.344   4.799 -0.5570 -0.1877  0.6650
  819MOL0     C10450  10.516   2.419   4.909 -1.3184 -0.3405  0.4795
  819MOL0     C10451  10.441   2.553   4.938  0.3768 -0.7062 -0.4335
  819MOL0     C10452  10.453   2.602   5.078 -0.2506 -0.0629 -1.1002
  819MOL0     C10453  10.597   2.641   5.124  0.3404 -0.2628  0.9760
  819MOL0     O10454  10.619   2.775   5.086  0.0089  0.1266  0.5201
  819MOL0     C10455  10.744   2.823   5.105 -0.6020  0.0413  0.2645
  819MOL0     C10456  10.772   2.952   5.066 -0.2975 -0.1769 -0.5351
  819MOL0     C10457  10.898   3.007   5.093  0.3890 -0.4689 -0.6270
  819MOL0     C10458  11.002   2.940   5.152  0.5162  0.1806  0.2893
  819MOL0     C10459  11.134   2.997   5.168 -0.5702  0.4258 -1.6263
  819MOL0     O10460  11.165   3.117   5.115  0.5133  0.5585 -0.0897
  819MOL0     C10461  11.288   3.174   5.146 -0.7795 -0.4763 -0.2456
  819MOL0     C10462  11.374   3.204   5.041 -0.4424  0.1250 -0.0418
  819MOL0     C10463  11.500   3.274   5.061 -0.3495 -0.2843 -0.3908
  819MOL0     C10464  11.536   3.307   5.197  0.0873  0.0819 -0.2111
  819MOL0     O10465  11.654   3.366   5.227 -0.7869  0.0309 -0.1942
  819MOL0     C10466  11.744   3.432   5.138  0.2817  0.3479  0.0954
  819MOL0     C10467  11.837   3.544   5.202  0.2448 -0.6374  0.1276
  819MOL0     C10468  11.867   3.535   5.354 -0.9833  0.8754 -0.3952
  819MOL0     C10469  11.948   3.671   5.393 -0.1690  1.2877  0.0402
  819MOL0     C10470  11.976   3.677   5.535 -0.0242  0.4566 -0.5796
  819MOL0     C10471  12.085   3.776   5.580 -0.4342 -0.1589  0.0078
  819MOL0     C10472  12.089   3.918   5.509 -0.8899  0.8005  0.1873
  819MOL0     C10473  12.196   3.996   5.584 -0.0242  0.1206  0.6529
  819MOL0    Cl10474  12.223   4.157   5.518 -0.1414 -0.0920 -0.0526
  819MOL0     C10475  11.447   3.278   5.299  0.0946  0.5037 -0.0891
  819MOL0     C10476  11.327   3.222   5.271  0.6593  0.0563 -0.0239
  819MOL0     O10477  11.218   2.910   5.203  0.0762  0.6929 -0.1279
  819MOL0     C10478  10.978   2.802   5.189  0.2634  0.0412  0.3994
  819MOL0     C10479  10.851   2.747   5.159  0.6232  0.1854 -0.2303
  819MOL0     N10480  10.462   2.334   4.659 -0.1524 -0.1011  0.0711
  819MOL0     N10481  10.366   2.270   4.610  0.0888  0.6317 -0.5844
  819MOL0     C10482   9.075   2.246   4.357 -0.3329 -0.4317  0.2121
  819MOL0     C10483   9.008   2.365   4.348  1.5581 -0.4710  0.1480
  819MOL0     C10484   8.798   2.674   4.188 -0.1494  0.5986  0.3267
  819MOL0     C10485   8.713   2.665   4.305 -0.6051  0.6175  0.4089
  819MOL0     C10486   8.580   2.704   4.311 -0.2773  0.3715 -0.3312
  819MOL0     C10487   8.528   2.759   4.194 -0.1173  0.6347 -0.5442
  819MOL0     O10488   8.385   2.799   4.205 -1.0662  0.5696 -0.1896
  819MOL0     C10489   8.326   2.881   4.101  0.5965 -0.8391  0.0731
  819MOL0     C10490   8.175   2.909   4.115  0.6604  0.0173  0.1339
  819MOL0     C10491   8.144   3.059   4.087  0.2968  0.3960 -0.3567
  819MOL0     C10492   8.176   3.102   3.942  0.4190 -1.1231  1.0607
  819MOL0     C10493   8.070   3.062   3.839 -0.0959 -0.1459 -0.3798
  819MOL0     C10494   7.993   3.031   3.750 -0.5999 -0.4493  0.0073
  819MOL0     C10495   8.601   2.775   4.079  0.3908  0.0896 -0.1553
  819MOL0     C10496   8.733   2.731   4.070  0.5236 -0.2806 -0.2566
  819MOL0     C10497   8.799   2.750   3.938 -0.5379 -0.0111 -0.0135
  819MOL0     H10498   9.247   2.577   4.226  0.5154  0.0810 -1.1900
  819MOL0     H10499   9.374   2.352   4.244  0.2248  0.7218 -0.5679
  819MOL0     H10500   9.272   2.158   4.528 -3.6533  0.9438 -2.1764
  819MOL0     H10501   9.251   1.984   4.465  3.1810 -1.4139 -0.2617
  819MOL0     H10502   9.492   2.001   4.380  3.0569 -0.5044  0.9916
  819MOL0     H10503   9.466   1.945   4.546  1.2878  0.1496 -0.0056
  819MOL0     H10504   9.521   2.184   4.623 -0.4023  1.2459 -0.3832
  819MOL0     H10505   9.568   2.222   4.461  1.1228 -0.9163 -0.7374
  819MOL0     H10506   9.668   1.996   4.651 -2.4937 -0.4123 -0.4256
  819MOL0     H10507   9.732   2.001   4.490  0.6774 -0.0366 -0.4268
  819MOL0     H10508   9.832   2.231   4.531  0.3009 -0.8170 -0.5739
  819MOL0     H10509   9.769   2.226   4.692 -2.5628  0.8005 -0.7889
  819MOL0     H10510   9.903   2.018   4.739  0.8583 -0.0143  0.6534
  819MOL0     H10511   9.971   2.020   4.572 -1.0057  1.7013 -2.2199
  819MOL0     H10512  10.024   2.203   4.816  0.7722  1.2394 -0.3270
  819MOL0     H10513  10.046   2.275   4.656  0.7455 -0.7169 -1.4035
  819MOL0     H10514  10.179   2.039   4.777 -0.0006  1.8002  0.8511
  819MOL0     H10515  10.198   2.086   4.602 -1.7432  0.3249 -0.7287
  819MOL0     H10516  10.315   2.237   4.929  0.0601  0.4108  0.4847
  819MOL0     H10517  10.489   2.358   4.995 -6.0122  1.8469  0.9072
  819MOL0     H10518  10.624   2.435   4.898 -1.5352  1.5894  0.7717
  819MOL0     H10519  10.489   2.631   4.878 -3.5466  0.1774 -2.8050
  819MOL0     H10520  10.334   2.541   4.917 -0.4069  1.0308  2.0283
  819MOL0     H10521  10.412   2.525   5.143 -2.3041  1.3251 -0.6572
  819MOL0     H10522  10.384   2.687   5.086 -2.7525 -2.1019  0.1079
  819MOL0     H10523  10.671   2.574   5.078 -1.9759 -0.9866 -1.9636
  819MOL0     H10524  10.597   2.635   5.234  2.0175  2.3385  1.2049
  819MOL0     H10525  10.698   3.009   5.012  0.0599  2.0645  1.1941
  819MOL0     H10526  10.913   3.111   5.065 -0.5470  1.0238  3.6502
  819MOL0     H10527  11.350   3.174   4.939 -3.5439  0.8246  0.3704
  819MOL0     H10528  11.570   3.295   4.981 -1.3985 -0.1175 -1.2954
  819MOL0     H10529  11.816   3.364   5.090  0.1455 -0.8718  1.5387
  819MOL0     H10530  11.683   3.488   5.067 -0.1252  0.6756  0.6979
  819MOL0     H10531  11.930   3.540   5.144 -0.5302 -0.9038 -1.1411
  819MOL0     H10532  11.772   3.632   5.196 -0.6080 -1.0359  2.4748
  819MOL0     H10533  11.784   3.515   5.422 -0.9276 -2.5822 -1.1550
  819MOL0     H10534  11.922   3.441   5.363  1.0529  1.7334 -2.6083
  819MOL0     H10535  11.885   3.758   5.377  1.4038  3.1500  3.0692
  819MOL0     H10536  12.038   3.691   5.334 -0.6269  1.5742 -0.5704
  819MOL0     H10537  12.010   3.579   5.570  0.4482 -0.2556 -2.8601
  819MOL0     H10538  11.885   3.700   5.591  0.5547  1.1694  0.0888
  819MOL0     H10539  12.095   3.793   5.688 -2.9342  1.0917  0.1139
  819MOL0     H10540  12.181   3.733   5.550  0.3351 -1.1922  3.4662
  819MOL0     H10541  11.988   3.959   5.505 -0.6906  1.3222  0.3546
  819MOL0     H10542  12.118   3.903   5.404 -1.4587 -2.4942  0.4222
  819MOL0     H10543  12.176   3.984   5.691 -0.7542  1.7804  0.7247
  819MOL0     H10544  12.295   3.949   5.583 -1.0902 -2.6281  3.6589
  819MOL0     H10545  11.486   3.310   5.395 -2.0069  0.8238  0.7206
  819MOL0     H10546  11.253   3.204   5.349 -0.0977  1.1844 -0.4564
  819MOL0     H10547  11.046   2.741   5.247 -0.1995  0.7538  1.7617
  819MOL0     H10548  10.837   2.643   5.186  0.2660  0.5251  0.9519
  819MOL0     H10549   9.035   2.151   4.391  1.3201 -1.4283 -0.4915
  819MOL0     H10550   8.901   2.367   4.367  1.2638 -2.5165 -0.9546
  819MOL0     H10551   8.758   2.621   4.393 -2.6278 -0.1474  1.1064
  819MOL0     H10552   8.513   2.690   4.396  0.2446  0.9743  0.1881
  819MOL0     H10553   8.348   2.841   4.002  0.2270 -0.5718 -0.1205
  819MOL0     H10554   8.379   2.975   4.117 -0.7293  0.0235 -0.3952
  819MOL0     H10555   8.140   2.888   4.216 -1.1328 -2.3675 -0.8858
  819MOL0     H10556   8.110   2.851   4.048  0.1630  3.3063 -2.5295
  819MOL0     H10557   8.204   3.115   4.158  0.2251 -0.7540  0.6392
  819MOL0     H10558   8.040   3.071   4.119  0.3563  0.5517 -0.2233
  819MOL0     H10559   8.172   3.212   3.944  2.2255 -1.0370  3.0155
  819MOL0     H10560   8.280   3.078   3.915  0.8239  1.6402 -0.2756
  819MOL0     H10561   7.930   3.001   3.669 -1.6707  0.0316  0.6422
  819MOL0     H10562   8.540   2.821   4.002 -1.2442 -1.3204  0.2451
  819MOL0     H10563   8.883   2.819   3.952  0.1427 -0.5203 -1.4057
  819MOL0     H10564   8.842   2.658   3.897  0.1062  0.5056 -0.5325
  819MOL0     H10565   8.738   2.793   3.858  0.8927 -2.2871 -2.4779
  820MOL0     O10566   5.408  10.613   8.596 -0.3368 -0.9983 -0.5433
  820MOL0     C10567   5.453  10.671   8.694 -0.1527 -0.6967 -0.0544
  820MOL0     O10568   5.380  10.761   8.771  0.0708 -0.4851  0.0032
  820MOL0     C10569   5.257  10.800   8.721 -0.1706 -0.2284  0.7827
  820MOL0     C10570   5.244  10.873   8.606 -0.4428 -0.1626 -0.2676
  820MOL0     C10571   5.116  10.896   8.550  0.4480 -0.5090 -0.2757
  820MOL0     C10572   5.001  10.854   8.613 -0.5240  0.3335 -0.5079
  820MOL0     O10573   4.895  10.903   8.543  0.1654 -0.0936  0.1526
  820MOL0     C10574   4.774  10.940   8.616  0.7359  0.4718 -0.7855
  820MOL0     C10575   4.692  11.036   8.534  0.0118  0.4665  0.0482
  820MOL0     C10576   4.603  11.114   8.628  0.0028 -0.2658  0.5589
  820MOL0     C10577   4.482  11.155   8.553  0.2161  0.0179 -0.5368
  820MOL0     C10578   4.384  11.240   8.627  0.4243 -1.0049  0.1018
  820MOL0     C10579   4.429  11.392   8.626  0.6035  0.9211 -0.0046
  820MOL0     C10580   4.313  11.469   8.688 -0.4422 -0.0525 -0.0150
  820MOL0     C10581   4.325  11.627   8.670  0.4917  0.0452 -0.0496
  820MOL0     N10582   4.438  11.693   8.742  0.1000  0.0627  0.6048
  820MOL0     C10583   4.453  11.684   8.880 -0.0551  0.2292 -0.3924
  820MOL0     C10584   4.573  11.752   8.894 -0.6328  0.3900  0.0881
  820MOL0     C10585   4.648  11.785   9.022  0.3403 -0.2272 -0.4138
  820MOL0     C10586   4.752  11.674   9.052 -0.9518 -0.2364 -1.0420
  820MOL0     C10587   4.880  11.691   8.967 -0.2348 -0.3187  0.7034
  820MOL0     C10588   4.983  11.580   8.992  0.2115  0.7218 -0.1168
  820MOL0     O10589   5.006  11.551   9.131  0.0870  0.4747 -0.0978
  820MOL0     C10590   5.132  11.509   9.177  0.2095  0.1622 -0.1199
  820MOL0     C10591   5.242  11.460   9.098 -0.5094 -0.3245 -0.4331
  820MOL0     C10592   5.367  11.428   9.160 -0.1158  0.0632 -0.1075
  820MOL0     C10593   5.381  11.438   9.296 -0.1636 -0.6788  0.0685
  820MOL0     C10594   5.514  11.413   9.347  0.0166  0.0271 -0.6687
  820MOL0     O10595   5.602  11.345   9.273  0.2419  0.0071 -0.5545
  820MOL0     C10596   5.720  11.296   9.332 -0.0671  0.2736 -0.3139
  820MOL0     C10597   5.845  11.364   9.319  0.5343 -0.5325  0.6986
  820MOL0     C10598   5.966  11.310   9.360 -0.7146  0.8102  0.1291
  820MOL0     C10599   5.962  11.179   9.413 -0.3945 -0.1165  0.0989
  820MOL0     O10600   6.079  11.106   9.443  0.0516 -0.5159 -0.3929
  820MOL0     C10601   6.079  11.036   9.566  0.0141 -0.0794  0.2496
  820MOL0     C10602   6.226  11.031   9.620  0.5437  0.2985 -0.6451
  820MOL0     C10603   6.311  10.956   9.534 -0.1426  1.4134  0.0672
  820MOL0     C10604   6.441  10.932   9.619  0.9117 -0.2745 -0.4107
  820MOL0     C10605   6.557  10.869   9.546 -0.9156 -0.4023 -0.1216
  820MOL0     C10606   6.533  10.725   9.505  0.5126  0.7273  0.0453
  820MOL0     C10607   6.653  10.636   9.484  0.3092 -0.6457 -0.3112
  820MOL0     C10608   6.624  10.492   9.509 -0.3599 -1.5828 -0.2648
  820MOL0    Cl10609   6.470  10.440   9.428  0.0432  0.4439  0.0698
  820MOL0     C10610   5.847  11.108   9.417  0.3911 -0.1071 -0.2086
  820MOL0     C10611   5.727  11.170   9.382 -0.3033 -0.5214  0.9113
  820MOL0     O10612   5.532  11.443   9.462 -0.1505 -0.5218 -0.3632
  820MOL0     C10613   5.266  11.476   9.373 -0.2528  0.0164  0.4563
  820MOL0     C10614   5.143  11.506   9.313 -0.1500  0.0917 -0.1368
  820MOL0     N10615   4.632  11.781   8.772  0.6832 -0.0731  0.1585
  820MOL0     N10616   4.551  11.730   8.679  0.8527  0.2807 -0.1757
  820MOL0     C10617   5.016  10.782   8.735 -0.4883  0.7691  0.2406
  820MOL0     C10618   5.147  10.760   8.790 -0.1348  0.2576 -0.3751
  820MOL0     C10619   5.595  10.648   8.723  0.5509 -0.3480 -0.0699
  820MOL0     C10620   5.677  10.752   8.774  0.2143 -0.1123 -0.1945
  820MOL0     C10621   5.816  10.742   8.803 -0.0073 -0.4444 -0.1852
  820MOL0     C10622   5.869  10.606   8.814  0.4650  0.6666  0.2621
  820MOL0     O10623   5.997  10.562   8.838  0.0780 -0.3906 -0.5843
  820MOL0     C10624   6.085  10.659   8.898  0.7838  0.4088  0.4662
  820MOL0     C10625   6.180  10.609   9.001 -0.0559  0.0522  0.3571
  820MOL0     C10626   6.301  10.530   8.932 -0.0705  0.1277 -0.8536
  820MOL0     C10627   6.421  10.544   9.021  0.4522  0.3168 -0.4497
  820MOL0     C10628   6.542  10.529   8.933  0.1530  0.5722  0.4723
  820MOL0     C10629   6.647  10.528   8.863  0.0285  0.2086 -0.4899
  820MOL0     C10630   5.786  10.500   8.784 -0.1192  0.7210  1.1727
  820MOL0     C10631   5.656  10.522   8.721  0.7761  1.4641 -0.9495
  820MOL0     C10632   5.577  10.392   8.688  0.0702  0.2235  0.2868
  820MOL0     H10633   5.337  10.910   8.562 -0.7356  1.1775  0.1943
  820MOL0     H10634   5.102  10.960   8.463 -2.9604  0.8221  1.0946
  820MOL0     H10635   4.733  10.839   8.618  0.2404  0.6842  0.5260
  820MOL0     H10636   4.797  10.984   8.714 -1.7238  1.4366 -0.5698
  820MOL0     H10637   4.644  10.978   8.455  0.3781  1.5220 -0.9672
  820MOL0     H10638   4.770  11.098   8.489  2.0294 -0.9846  1.3478
  820MOL0     H10639   4.640  11.207   8.673 -0.1049  0.2314 -0.3538
  820MOL0     H10640   4.580  11.048   8.712  1.5474 -0.2586  1.0060
  820MOL0     H10641   4.514  11.213   8.466 -0.3204 -1.9079 -2.0947
  820MOL0     H10642   4.428  11.066   8.520  1.8753 -1.2782  0.1184
  820MOL0     H10643   4.289  11.225   8.575 -0.3455 -0.3351  1.2762
  820MOL0     H10644   4.358  11.209   8.729 -0.7544 -0.9549 -0.1674
  820MOL0     H10645   4.511  11.403   8.696 -0.7620  0.2760  1.7746
  820MOL0     H10646   4.442  11.441   8.529 -1.6562  3.8755  1.0585
  820MOL0     H10647   4.299  11.433   8.791  0.8488 -1.7596 -0.4076
  820MOL0     H10648   4.219  11.433   8.645 -1.7593 -1.5656  3.6884
  820MOL0     H10649   4.332  11.639   8.562 -2.4394 -3.6307 -0.8513
  820MOL0     H10650   4.230  11.675   8.695 -0.0636 -1.0816  0.0838
  820MOL0     H10651   4.381  11.644   8.951 -0.0001  1.7421  0.5552
  820MOL0     H10652   4.696  11.883   9.008 -2.1029  1.2383  0.8247
  820MOL0     H10653   4.565  11.799   9.092 -0.3527  1.6417 -1.5250
  820MOL0     H10654   4.784  11.688   9.155  1.5193 -2.3224 -1.4262
  820MOL0     H10655   4.719  11.570   9.055  2.7546 -1.5409  2.4339
  820MOL0     H10656   4.927  11.783   9.003 -0.7404  0.5390 -0.7356
  820MOL0     H10657   4.847  11.690   8.862 -1.3369 -1.6787  1.0476
  820MOL0     H10658   5.079  11.592   8.941  0.4241 -2.6359 -0.7811
  820MOL0     H10659   4.955  11.486   8.943  0.1942  0.4806  0.3483
  820MOL0     H10660   5.234  11.441   8.992  0.1725  0.1737 -0.5845
  820MOL0     H10661   5.452  11.402   9.097 -1.0744  0.7450 -1.7674
  820MOL0     H10662   5.848  11.454   9.259 -1.0967 -1.8505 -1.4831
  820MOL0     H10663   6.058  11.360   9.332 -0.4993 -0.5601 -1.7915
  820MOL0     H10664   6.012  11.088   9.636  0.8491  0.5337  0.6086
  820MOL0     H10665   6.035  10.936   9.560 -1.1935  0.5195 -1.7173
  820MOL0     H10666   6.268  11.132   9.629 -1.3838  1.1354 -0.5732
  820MOL0     H10667   6.211  10.986   9.718  1.0462  1.1094 -0.1832
  820MOL0     H10668   6.266  10.860   9.506 -1.0507  1.8833 -0.1040
  820MOL0     H10669   6.331  11.013   9.443  2.3678 -1.8916 -1.6914
  820MOL0     H10670   6.418  10.865   9.703 -1.9153  1.5548  0.4362
  820MOL0     H10671   6.468  11.029   9.663  0.1735  0.9651 -2.5682
  820MOL0     H10672   6.638  10.873   9.618 -0.3800 -0.2782 -0.7243
  820MOL0     H10673   6.578  10.937   9.462  0.5180 -0.4460  0.1857
  820MOL0     H10674   6.465  10.684   9.580  0.8024 -0.9916 -0.5755
  820MOL0     H10675   6.468  10.723   9.417  2.9171 -0.6869 -1.8322
  820MOL0     H10676   6.739  10.663   9.547 -0.7855 -0.4908  1.1901
  820MOL0     H10677   6.670  10.649   9.377 -2.6577 -0.6381 -0.8754
  820MOL0     H10678   6.701  10.416   9.493 -0.2591 -2.0561  2.1041
  820MOL0     H10679   6.603  10.485   9.616  0.2013 -0.1268 -0.0351
  820MOL0     H10680   5.840  11.009   9.461  0.7232 -0.4213 -0.8474
  820MOL0     H10681   5.633  11.116   9.369 -0.5213 -0.3114  1.5905
  820MOL0     H10682   5.272  11.487   9.481 -0.2943  1.3371  0.3422
  820MOL0     H10683   5.048  11.526   9.362 -0.9378 -1.3278 -1.0349
  820MOL0     H10684   4.925  10.747   8.782 -2.1216  2.5169 -1.4068
  820MOL0     H10685   5.144  10.703   8.883 -1.7528 -0.1106 -0.6230
  820MOL0     H10686   5.639  10.852   8.789 -0.7307 -0.5420  0.3836
  820MOL0     H10687   5.865  10.837   8.820 -0.0368 -0.7222  1.5452
  820MOL0     H10688   6.025  10.729   8.957  0.1298 -0.2146  0.5491
  820MOL0     H10689   6.146  10.714   8.826  1.1987  0.7279  1.0560
  820MOL0     H10690   6.125  10.542   9.067  1.3247 -1.4715  0.0340
  820MOL0     H10691   6.215  10.697   9.056  0.6085  1.5829 -2.3008
  820MOL0     H10692   6.315  10.569   8.831 -0.6987  1.3823 -0.4803
  820MOL0     H10693   6.267  10.427   8.917  0.5863 -0.1272 -0.6150
  820MOL0     H10694   6.429  10.642   9.070  1.2124  0.2270 -0.3777
  820MOL0     H10695   6.415  10.469   9.101 -1.4167 -0.7806 -1.5419
  820MOL0     H10696   6.740  10.541   8.812  0.1302  2.0534  0.0845
  820MOL0     H10697   5.812  10.396   8.794 -1.0071 -0.0939 -3.0367
  820MOL0     H10698   5.627  10.299   8.716  0.1302 -0.8304 -2.8513
  820MOL0     H10699   5.492  10.401   8.756 -0.9075  1.2011 -1.0125
  820MOL0     H10700   5.550  10.388   8.582  2.3846  1.3345 -0.4180
  821MOL0     O10701   4.391  11.019   8.032 -0.2753  0.6137 -0.2183
  821MOL0     C10702   4.402  10.980   7.918  0.6155  1.0658 -0.1693
  821MOL0     O10703   4.291  10.951   7.839  0.1447 -0.2468 -0.0970
  821MOL0     C10704   4.171  11.019   7.851  0.3115  0.4837 -0.1411
  821MOL0     C10705   4.053  10.961   7.791  0.4220 -0.5410 -0.6561
  821MOL0     C10706   3.920  11.020   7.798  0.0141  0.3737  0.5050
  821MOL0     C10707   3.908  11.144   7.870  0.5538 -0.5024 -0.6018
  821MOL0     O10708   3.787  11.197   7.913 -0.5238 -0.0063 -0.0143
  821MOL0     C10709   3.679  11.168   7.818 -0.2817 -0.4092  0.1635
  821MOL0     C10710   3.586  11.282   7.841 -0.4152 -0.4692 -0.0063
  821MOL0     C10711   3.480  11.276   7.727 -0.7012  0.3011  0.2903
  821MOL0     C10712   3.360  11.367   7.750 -0.8959  0.4174 -0.0816
  821MOL0     C10713   3.290  11.404   7.620 -0.6109 -0.6864  0.3747
  821MOL0     C10714   3.182  11.514   7.637 -0.2654 -0.2424  0.5616
  821MOL0     C10715   3.057  11.473   7.724  0.1876 -0.5650 -0.0240
  821MOL0     C10716   2.960  11.593   7.740  0.6332 -0.0830 -0.2452
  821MOL0     N10717   2.912  11.633   7.613  0.1581 -0.2986  0.1828
  821MOL0     C10718   2.964  11.740   7.550 -0.1006  0.7136 -0.2485
  821MOL0     C10719   2.905  11.733   7.428  0.6052 -0.5989  0.8280
  821MOL0     C10720   2.935  11.823   7.314  0.8688  0.3012 -0.7771
  821MOL0     C10721   3.072  11.789   7.258  0.2474 -0.5317 -0.4491
  821MOL0     C10722   3.116  11.894   7.149 -0.8399 -0.2624 -0.0451
  821MOL0     C10723   3.244  11.856   7.089  0.1319 -0.0313  0.3526
  821MOL0     O10724   3.238  11.730   7.019 -0.1698  0.4498 -0.0324
  821MOL0     C10725   3.354  11.670   6.966  0.4313 -0.3096 -0.0070
  821MOL0     C10726   3.469  11.738   6.946 -0.1866 -0.1600  0.4242
  821MOL0     C10727   3.591  11.677   6.895 -0.0021 -0.3465 -0.0442
  821MOL0     C10728   3.586  11.540   6.868 -0.5307 -0.1175  1.2537
  821MOL0     C10729   3.706  11.481   6.814  0.9088 -0.0660 -0.4930
  821MOL0     O10730   3.810  11.555   6.792 -0.7074 -0.2394  0.4736
  821MOL0     C10731   3.931  11.495   6.766  0.3679 -0.3895  0.5593
  821MOL0     C10732   3.989  11.508   6.641  0.0161 -0.3502  0.1305
  821MOL0     C10733   4.117  11.456   6.604  0.0036 -0.2350 -0.6123
  821MOL0     C10734   4.184  11.392   6.709 -0.0556  0.2956 -0.4894
  821MOL0     O10735   4.318  11.364   6.673  0.5117  0.6212  0.2876
  821MOL0     C10736   4.371  11.248   6.731  0.5870 -0.1855  0.5174
  821MOL0     C10737   4.492  11.180   6.648  0.2340 -0.4617  0.1413
  821MOL0     C10738   4.585  11.092   6.723 -1.3531 -0.7742 -0.4792
  821MOL0     C10739   4.712  11.055   6.641 -0.0015 -0.3760  0.4975
  821MOL0     C10740   4.793  10.967   6.723  0.0724  0.8357 -0.1931
  821MOL0     C10741   4.925  10.926   6.656 -0.4941 -0.1420 -0.2278
  821MOL0     C10742   4.910  10.812   6.542  0.0409  0.2092 -0.5583
  821MOL0     C10743   5.006  10.830   6.418  0.8267 -0.0473 -0.5099
  821MOL0    Cl10744   4.936  10.783   6.266 -0.4471 -0.4210  0.0094
  821MOL0     C10745   4.126  11.364   6.834  0.9953  0.1813 -0.1170
  821MOL0     C10746   3.995  11.412   6.856 -0.1623  0.8896  0.4037
  821MOL0     O10747   3.703  11.364   6.810 -0.0826  0.0680 -0.4600
  821MOL0     C10748   3.465  11.472   6.893 -0.2178  0.3322 -0.2039
  821MOL0     C10749   3.347  11.533   6.940 -0.3818  0.2190  0.7496
  821MOL0     N10750   2.812  11.640   7.430 -0.3860  0.1331 -1.1768
  821MOL0     N10751   2.810  11.577   7.541 -0.8869  0.3175 -0.4437
  821MOL0     C10752   4.020  11.205   7.925  0.0978  0.1081 -0.4736
  821MOL0     C10753   4.147  11.146   7.920 -0.5497 -1.0749 -0.0908
  821MOL0     C10754   4.529  10.925   7.871 -0.0636 -0.5770  0.1323
  821MOL0     C10755   4.538  10.862   7.744  0.1959 -0.4638  0.2100
  821MOL0     C10756   4.648  10.803   7.687  0.4754 -0.4605  0.8792
  821MOL0     C10757   4.766  10.799   7.760  0.7735 -0.0196  0.3728
  821MOL0     O10758   4.864  10.731   7.698 -0.0049 -0.4244  0.3783
  821MOL0     C10759   4.985  10.705   7.769 -0.5564 -0.3049 -0.1524
  821MOL0     C10760   5.082  10.637   7.675 -0.4332 -0.4194 -0.0778
  821MOL0     C10761   5.119  10.711   7.545 -0.4334  0.1820  0.9451
  821MOL0     C10762   5.142  10.631   7.416  0.5292 -0.2706  0.0604
  821MOL0     C10763   5.253  10.530   7.417 -0.1720 -1.0970 -0.1275
  821MOL0     C10764   5.342  10.447   7.409 -0.1077  0.3272 -0.8179
  821MOL0     C10765   4.766  10.861   7.885 -0.6144  0.2682  0.6462
  821MOL0     C10766   4.655  10.927   7.940  0.0363 -0.3232  1.0268
  821MOL0     C10767   4.688  10.998   8.067  0.1646  0.4035  0.1123
  821MOL0     H10768   4.065  10.860   7.754  1.4390 -0.1061 -1.5501
  821MOL0     H10769   3.835  10.974   7.748  0.4728  1.3081 -1.2308
  821MOL0     H10770   3.724  11.164   7.718 -0.4160  0.1722  0.0730
  821MOL0     H10771   3.626  11.073   7.829 -3.1048  0.8977 -0.9794
  821MOL0     H10772   3.653  11.367   7.825  0.9604 -1.5356 -0.1016
  821MOL0     H10773   3.533  11.282   7.936 -2.5777 -0.2456 -1.1482
  821MOL0     H10774   3.449  11.173   7.713  1.7170 -0.7786  2.1869
  821MOL0     H10775   3.537  11.309   7.640  2.2424 -1.3523  1.4437
  821MOL0     H10776   3.302  11.310   7.823  0.1034 -0.8983 -0.2808
  821MOL0     H10777   3.393  11.459   7.800  0.5967 -0.9654  1.5840
  821MOL0     H10778   3.366  11.452   7.557 -0.3384 -0.0006  1.2117
  821MOL0     H10779   3.249  11.319   7.565  1.9489 -1.4217 -0.5764
  821MOL0     H10780   3.228  11.602   7.684 -5.0169  2.3356  1.0279
  821MOL0     H10781   3.157  11.550   7.537 -0.7954  1.9512  1.4261
  821MOL0     H10782   3.098  11.446   7.822  0.1821 -0.9709 -0.1322
  821MOL0     H10783   3.009  11.380   7.691  1.0823 -0.4281 -1.7884
  821MOL0     H10784   2.872  11.566   7.798  1.0118  1.7959  1.2734
  821MOL0     H10785   3.012  11.671   7.796  1.1522 -0.2274 -0.5155
  821MOL0     H10786   3.047  11.803   7.581 -0.7350  1.2225  0.4590
  821MOL0     H10787   2.850  11.812   7.246 -0.3806 -1.1681  0.9083
  821MOL0     H10788   2.924  11.926   7.347  0.6336  0.7716 -2.2408
  821MOL0     H10789   3.141  11.789   7.343 -1.2816 -2.3994  0.8799
  821MOL0     H10790   3.057  11.688   7.219 -1.6927  0.4308 -2.4334
  821MOL0     H10791   3.129  11.991   7.198 -1.9711  0.3528 -0.9202
  821MOL0     H10792   3.038  11.895   7.072  0.1043  0.1721 -1.0225
  821MOL0     H10793   3.327  11.843   7.159  0.1490 -1.2290  0.1334
  821MOL0     H10794   3.273  11.931   7.015 -1.6171  0.1595 -0.1795
  821MOL0     H10795   3.476  11.847   6.951  0.4646 -0.2254  1.0816
  821MOL0     H10796   3.671  11.748   6.875 -0.1622 -0.5451 -1.5204
  821MOL0     H10797   3.938  11.567   6.565  1.9158  1.0533 -0.1298
  821MOL0     H10798   4.155  11.478   6.505  0.8311  2.8707  0.2907
  821MOL0     H10799   4.412  11.262   6.831  1.7694 -0.7396  0.1368
  821MOL0     H10800   4.301  11.164   6.734  1.7648 -1.1925  0.6244
  821MOL0     H10801   4.446  11.123   6.567  2.3931 -2.4203  0.1941
  821MOL0     H10802   4.554  11.257   6.601 -2.9194  1.1707 -1.6613
  821MOL0     H10803   4.614  11.146   6.814 -2.5853 -0.1194 -0.4565
  821MOL0     H10804   4.536  10.998   6.752 -0.0173 -1.5546 -0.6595
  821MOL0     H10805   4.768  11.148   6.629  2.9360 -1.8431  2.0376
  821MOL0     H10806   4.686  11.022   6.539  0.4486 -2.7085  1.0752
  821MOL0     H10807   4.728  10.881   6.740 -0.9184  1.2662 -1.6302
  821MOL0     H10808   4.800  11.020   6.819  0.1061  1.1437 -0.3651
  821MOL0     H10809   4.963  11.015   6.607 -0.4542  0.0006  0.0578
  821MOL0     H10810   5.003  10.905   6.730  0.7780 -0.9996 -1.7504
  821MOL0     H10811   4.809  10.801   6.501  0.1951  1.5741 -1.3675
  821MOL0     H10812   4.918  10.712   6.587 -0.4883  0.3775 -0.0672
  821MOL0     H10813   5.019  10.938   6.416 -0.9800  0.2172  0.2557
  821MOL0     H10814   5.100  10.775   6.427 -1.0965 -3.2949  3.0023
  821MOL0     H10815   4.176  11.315   6.917 -0.3761  0.2638  0.7935
  821MOL0     H10816   3.949  11.391   6.952  0.9104 -1.1254  0.5400
  821MOL0     H10817   3.458  11.365   6.880  2.4267 -0.3235  2.6520
  821MOL0     H10818   3.270  11.459   6.959  0.0385 -1.3177 -2.6556
  821MOL0     H10819   4.004  11.288   7.992 -1.3732  0.4505 -1.2072
  821MOL0     H10820   4.221  11.194   7.983 -1.9907  0.4484  0.5252
  821MOL0     H10821   4.452  10.867   7.678  0.8616  2.4528 -0.5679
  821MOL0     H10822   4.636  10.762   7.587 -0.9421 -0.7759  1.1435
  821MOL0     H10823   4.969  10.634   7.850  0.6115  1.0833  1.3751
  821MOL0     H10824   5.028  10.798   7.809  0.9035 -0.4937 -1.1889
  821MOL0     H10825   5.023  10.550   7.645  1.0857 -1.6989  0.4780
  821MOL0     H10826   5.173  10.603   7.726 -0.4785 -1.4413 -0.6572
  821MOL0     H10827   5.207  10.775   7.561  0.7026 -1.5599  2.0308
  821MOL0     H10828   5.039  10.782   7.524  0.7282  1.9716  2.3156
  821MOL0     H10829   5.049  10.574   7.406 -0.2027 -0.0749  4.0034
  821MOL0     H10830   5.166  10.702   7.337  2.0815  0.4547  1.1239
  821MOL0     H10831   5.418  10.374   7.391  2.0911  1.4829  2.8344
  821MOL0     H10832   4.865  10.865   7.930  0.5240  2.5078 -1.7646
  821MOL0     H10833   4.795  10.994   8.087 -0.1184  0.9577  1.9287
  821MOL0     H10834   4.674  11.107   8.068  3.3293  0.9054  1.0272
  821MOL0     H10835   4.629  10.955   8.149  0.1797 -0.1745 -0.1814
  822MOL0     O10836  11.083   4.759  10.321 -0.2220 -0.3743  0.5705
  822MOL0     C10837  11.072   4.834  10.224 -0.5208  0.4541  0.8285
  822MOL0     O10838  11.179   4.912  10.170 -0.2210 -1.0114 -0.0457
  822MOL0     C10839  11.305   4.896  10.225  0.6388  0.8285  0.4644
  822MOL0     C10840  11.377   4.772  10.250  0.4999 -0.1635  0.1758
  822MOL0     C10841  11.509   4.775  10.296 -0.2776 -0.3156 -1.2534
  822MOL0     C10842  11.574   4.895  10.320 -0.5812 -0.6745 -0.2356
  822MOL0     O10843  11.702   4.894  10.365 -0.4970 -0.0324  0.8655
  822MOL0     C10844  11.785   5.014  10.354  1.0440 -0.4816  0.0618
  822MOL0     C10845  11.934   5.001  10.416  0.3513 -0.1436  0.6058
  822MOL0     C10846  12.008   4.906  10.327 -1.0393  1.1509  0.0269
  822MOL0     C10847  12.128   4.837  10.396  0.1220 -0.5104  0.4084
  822MOL0     C10848  12.218   4.927  10.471 -0.6160 -0.4795 -0.0919
  822MOL0     C10849  12.327   4.838  10.535  0.4365 -0.2062 -0.2540
  822MOL0     C10850  12.434   4.919  10.612  0.1382 -0.3633 -0.2495
  822MOL0     C10851  12.494   4.829  10.731  0.3495 -0.2051 -0.1675
  822MOL0     N10852  12.595   4.898  10.820 -0.0306 -0.2878  0.1852
  822MOL0     C10853  12.668   4.838  10.925  0.3512 -0.0440  0.6944
  822MOL0     C10854  12.767   4.926  10.948  1.8375 -0.0728 -0.3549
  822MOL0     C10855  12.887   4.908  11.033 -0.1293  0.4337  0.6195
  822MOL0     C10856  12.886   4.935  11.179  0.9258  0.7490 -1.2925
  822MOL0     C10857  13.021   4.910  11.237 -0.5960 -0.6179  0.6932
  822MOL0     C10858  13.015   4.955  11.385  0.4932 -1.0833  0.2086
  822MOL0     O10859  13.151   4.993  11.410  0.7218  0.1383  0.1244
  822MOL0     C10860  13.223   4.923  11.505  0.5235  0.2899  1.2414
  822MOL0     C10861  13.351   4.963  11.529 -0.7420  0.1696 -0.1852
  822MOL0     C10862  13.429   4.907  11.633  0.1261  0.8148  0.4659
  822MOL0     C10863  13.381   4.810  11.715  0.2997 -0.6666  0.4695
  822MOL0     C10864  13.459   4.756  11.824  0.0415 -1.1650 -0.8106
  822MOL0     O10865  13.408   4.648  11.893  0.0152 -0.2754 -0.4486
  822MOL0     C10866  13.470   4.605  12.006 -0.4786  0.0193 -0.4776
  822MOL0     C10867  13.595   4.548  11.998 -0.6360  0.1508 -0.2009
  822MOL0     C10868  13.667   4.494  12.109  0.8324 -0.0440  0.3981
  822MOL0     C10869  13.608   4.514  12.235  0.1183 -0.3074 -0.2509
  822MOL0     O10870  13.675   4.463  12.346 -0.0034 -0.3594  0.5380
  822MOL0     C10871  13.720   4.569  12.429 -0.2737 -0.0472  0.2883
  822MOL0     C10872  13.755   4.525  12.568 -0.4163 -0.1764 -0.4611
  822MOL0     C10873  13.799   4.643  12.653 -1.3760 -0.0849 -0.6520
  822MOL0     C10874  13.830   4.593  12.802  0.1855  0.3610 -0.3267
  822MOL0     C10875  13.901   4.705  12.873 -0.1247 -0.0879  0.5641
  822MOL0     C10876  14.040   4.742  12.796  0.3595 -0.4333  0.2398
  822MOL0     C10877  14.126   4.615  12.763 -0.1839  0.2790 -0.2469
  822MOL0     C10878  14.171   4.524  12.874  0.2214 -0.1954 -0.4386
  822MOL0    Cl10879  14.219   4.372  12.799  0.2828 -0.3002  0.2402
  822MOL0     C10880  13.477   4.574  12.249  0.1178  0.1538  1.1826
  822MOL0     C10881  13.411   4.611  12.133  0.0678  0.2316  0.4725
  822MOL0     O10882  13.564   4.817  11.854  0.4548  0.1793  0.4736
  822MOL0     C10883  13.250   4.780  11.694  0.5485 -0.2144  0.2104
  822MOL0     C10884  13.174   4.832  11.597 -0.3995 -0.0678 -0.3390
  822MOL0     N10885  12.744   5.037  10.869 -0.1111 -0.1753 -0.2517
  822MOL0     N10886  12.651   5.016  10.787 -0.5990 -0.0166 -0.3641
  822MOL0     C10887  11.504   5.016  10.302  0.0749  0.3279  0.7169
  822MOL0     C10888  11.382   5.007  10.248  0.4645 -0.6611 -0.7910
  822MOL0     C10889  10.939   4.864  10.167 -0.3026  0.4877  0.0922
  822MOL0     C10890  10.949   4.911  10.035 -0.3890 -0.2365 -0.2602
  822MOL0     C10891  10.841   4.915   9.957 -0.4614  0.6714 -0.4808
  822MOL0     C10892  10.714   4.867   9.999  0.0506  0.1377 -0.3914
  822MOL0     O10893  10.608   4.866   9.909 -0.6816 -0.1048 -0.4682
  822MOL0     C10894  10.472   4.857   9.952 -0.1796 -0.0201 -1.1459
  822MOL0     C10895  10.431   4.994  10.008 -0.3305 -0.4389 -0.3013
  822MOL0     C10896  10.298   4.985  10.091 -0.2124 -0.2478 -1.1794
  822MOL0     C10897  10.178   5.054  10.012 -0.0461  0.7996 -0.4738
  822MOL0     C10898  10.145   4.979   9.893 -0.0463  0.3599 -0.4605
  822MOL0     C10899  10.110   4.912   9.800 -0.0450  0.4444  0.5844
  822MOL0     C10900  10.707   4.821  10.126  0.3857 -0.6081  0.0216
  822MOL0     C10901  10.815   4.808  10.210  0.0042 -0.0613  0.2214
  822MOL0     C10902  10.801   4.750  10.343  0.6968  0.0415 -0.0346
  822MOL0     H10903  11.342   4.671  10.230  1.4803 -0.2013 -1.4891
  822MOL0     H10904  11.566   4.685  10.321  0.2615  0.3600  0.0317
  822MOL0     H10905  11.792   5.048  10.250 -0.7621  0.1456  0.0986
  822MOL0     H10906  11.729   5.090  10.409 -2.0441 -2.1632 -0.5091
  822MOL0     H10907  11.924   4.959  10.517  2.3861 -1.9637  0.1202
  822MOL0     H10908  11.987   5.097  10.420  0.9023 -0.1813 -3.0007
  822MOL0     H10909  12.049   4.967  10.246 -2.2162  0.3694 -1.1918
  822MOL0     H10910  11.943   4.839  10.271  2.0208  0.8319 -3.4823
  822MOL0     H10911  12.088   4.755  10.457 -1.7886  1.4382  1.9068
  822MOL0     H10912  12.185   4.798  10.311  1.0551  3.1935 -0.8156
  822MOL0     H10913  12.256   5.006  10.404 -0.6754 -1.5933 -1.4810
  822MOL0     H10914  12.163   4.984  10.546  1.3608 -0.2134  1.2243
  822MOL0     H10915  12.266   4.776  10.601 -2.2905  1.6553 -0.8501
  822MOL0     H10916  12.370   4.772  10.458 -2.1766 -1.5120 -0.7141
  822MOL0     H10917  12.394   5.010  10.657 -1.3021 -1.7348  1.3993
  822MOL0     H10918  12.514   4.949  10.543 -0.9953  0.1157 -1.3860
  822MOL0     H10919  12.408   4.797  10.791  0.2035  1.3021  0.4731
  822MOL0     H10920  12.527   4.733  10.690 -1.0024  0.7524 -3.9323
  822MOL0     H10921  12.657   4.741  10.972 -3.4614 -0.7484 -1.2964
  822MOL0     H10922  12.908   4.801  11.024  0.3235  0.5426  0.3077
  822MOL0     H10923  12.964   4.970  10.984  0.6540  0.9586  2.4216
  822MOL0     H10924  12.850   5.034  11.207 -1.1847 -0.0290 -1.0053
  822MOL0     H10925  12.820   4.855  11.215  2.4336 -0.0186 -0.1285
  822MOL0     H10926  13.101   4.971  11.194 -2.2083  0.8995 -0.2939
  822MOL0     H10927  13.059   4.807  11.237 -1.2774 -0.8705  0.6632
  822MOL0     H10928  12.965   4.883  11.450  0.3244 -0.1639  1.1276
  822MOL0     H10929  12.959   5.049  11.395  0.5740 -0.9992 -0.1281
  822MOL0     H10930  13.397   5.039  11.467  0.7970 -0.0509  0.6474
  822MOL0     H10931  13.528   4.952  11.638 -0.6278  2.4175  1.9208
  822MOL0     H10932  13.626   4.538  11.895 -1.5079 -1.3233 -0.3490
  822MOL0     H10933  13.757   4.434  12.108  0.4126 -0.7133  1.1509
  822MOL0     H10934  13.807   4.614  12.379 -1.2509 -0.1750 -1.5926
  822MOL0     H10935  13.644   4.646  12.443 -0.5384 -0.0811 -0.9261
  822MOL0     H10936  13.670   4.476  12.616  0.4133 -1.4191 -0.2218
  822MOL0     H10937  13.829   4.445  12.560 -2.0020 -2.1639  2.7910
  822MOL0     H10938  13.882   4.695  12.606 -2.8078  1.8337 -1.1915
  822MOL0     H10939  13.717   4.716  12.658 -0.1495  1.7041 -3.9637
  822MOL0     H10940  13.879   4.497  12.819  0.0602  0.4611  0.6458
  822MOL0     H10941  13.732   4.577  12.847  0.0184 -0.7969 -1.0533
  822MOL0     H10942  13.907   4.674  12.978 -3.3609 -0.6044  0.7024
  822MOL0     H10943  13.840   4.795  12.868 -1.0795 -0.6899  0.9854
  822MOL0     H10944  14.023   4.801  12.706 -1.8661 -2.0464 -0.4784
  822MOL0     H10945  14.108   4.808  12.849 -0.2949  2.5453 -2.3450
  822MOL0     H10946  14.217   4.650  12.712 -0.2823  1.0874  0.1183
  822MOL0     H10947  14.072   4.559  12.686 -1.6421 -0.3581  1.1928
  822MOL0     H10948  14.251   4.572  12.930  0.2763 -3.3324  2.5008
  822MOL0     H10949  14.093   4.496  12.946 -1.3359  0.3112 -1.8495
  822MOL0     H10950  13.437   4.574  12.349  0.4901  0.5677  1.3370
  822MOL0     H10951  13.311   4.649  12.155 -0.4596 -1.8636  1.9629
  822MOL0     H10952  13.207   4.701  11.755  0.6920  0.1720  0.8217
  822MOL0     H10953  13.075   4.788  11.583 -1.2145  1.8844 -1.0502
  822MOL0     H10954  11.534   5.118  10.323  0.3982  0.6062 -0.9998
  822MOL0     H10955  11.330   5.099  10.225 -0.7854 -1.7294 -2.4654
  822MOL0     H10956  11.039   4.927   9.977 -0.5134 -0.6143 -0.5608
  822MOL0     H10957  10.849   4.951   9.854 -1.1757 -0.2757 -0.8856
  822MOL0     H10958  10.465   4.781  10.030  0.7178 -0.5371 -1.5546
  822MOL0     H10959  10.405   4.826   9.871 -1.7037 -2.0705  0.7837
  822MOL0     H10960  10.419   5.067   9.928 -2.0016 -0.5363 -0.1917
  822MOL0     H10961  10.503   5.042  10.075 -0.1705  0.5822 -1.1737
  822MOL0     H10962  10.309   5.038  10.186  0.7587 -0.9815 -0.8651
  822MOL0     H10963  10.259   4.884  10.111  1.5985 -0.9797 -1.1398
  822MOL0     H10964  10.091   5.056  10.078 -0.6893  0.8102 -1.3043
  822MOL0     H10965  10.210   5.154   9.984  1.0848  2.0077  4.3554
  822MOL0     H10966  10.080   4.836   9.731  1.3791 -0.4214  0.8796
  822MOL0     H10967  10.611   4.785  10.162  0.0725  0.6832  0.5414
  822MOL0     H10968  10.828   4.644  10.332 -0.8600 -0.4427  0.5572
  822MOL0     H10969  10.869   4.798  10.414 -0.0919  0.0484  0.7344
  822MOL0     H10970  10.704   4.760  10.392  1.8338  2.4210  1.9080
  823MOL0     O10971  10.131   9.955   9.633 -0.5141  0.7661  0.3452
  823MOL0     C10972  10.213   9.939   9.723  0.8521 -0.4971 -0.5696
  823MOL0     O10973  10.192   9.869   9.840  0.2350 -0.0764  0.0093
  823MOL0     C10974  10.063   9.846   9.880  0.5278  0.8168  0.7848
  823MOL0     C10975   9.999   9.716   9.879 -0.1035  0.6405  0.2727
  823MOL0     C10976   9.876   9.698   9.942 -0.5797 -0.3873  0.0820
  823MOL0     C10977   9.804   9.808   9.998 -0.5603  0.1128 -0.2809
  823MOL0     O10978   9.684   9.797  10.062 -0.4532  0.0072 -0.2558
  823MOL0     C10979   9.606   9.695   9.995  0.5962  0.0941  0.5746
  823MOL0     C10980   9.460   9.690  10.032 -0.2904  0.0563 -1.2243
  823MOL0     C10981   9.384   9.817  10.026  0.3779 -0.7135  0.0500
  823MOL0     C10982   9.263   9.801  10.108 -0.0900  0.0509 -0.5556
  823MOL0     C10983   9.180   9.925  10.115  1.2287 -0.4721 -1.5559
  823MOL0     C10984   9.084   9.917  10.227  0.2743  0.6346  0.5254
  823MOL0     C10985   8.950   9.830  10.183 -1.3344 -0.3387 -0.1395
  823MOL0     C10986   8.837   9.852  10.275  0.1458 -0.2773 -0.8306
  823MOL0     N10987   8.774   9.990  10.264 -0.5980  0.3393  0.0702
  823MOL0     C10988   8.722  10.069  10.368  0.2203 -0.4150 -0.7316
  823MOL0     C10989   8.635  10.157  10.313 -0.0080  0.4986  0.4255
  823MOL0     C10990   8.526  10.240  10.367 -0.2284  0.2152  0.5380
  823MOL0     C10991   8.553  10.389  10.346  0.6353  0.2398 -0.3357
  823MOL0     C10992   8.665  10.437  10.447  0.1248  0.1724 -0.1392
  823MOL0     C10993   8.702  10.581  10.473 -0.2679  0.2781  0.6762
  823MOL0     O10994   8.751  10.593  10.610 -0.0534 -0.4054 -1.3392
  823MOL0     C10995   8.884  10.575  10.641 -0.3045 -0.0604  0.4857
  823MOL0     C10996   8.919  10.576  10.770 -0.1767  0.2689  0.4436
  823MOL0     C10997   9.051  10.557  10.815  0.4484  0.2561 -0.3647
  823MOL0     C10998   9.152  10.526  10.731 -0.3778 -0.1266 -0.0591
  823MOL0     C10999   9.301  10.515  10.760  0.6989 -0.2632 -0.3222
  823MOL0     O11000   9.386  10.488  10.657 -0.5800 -0.4113 -0.2162
  823MOL0     C11001   9.523  10.469  10.662  0.2916 -0.3913 -0.7306
  823MOL0     C11002   9.589  10.492  10.542  0.3322  0.7852  0.2079
  823MOL0     C11003   9.726  10.469  10.533  0.6024  0.8260  0.4324
  823MOL0     C11004   9.794  10.420  10.650 -0.8153  0.3350 -0.0956
  823MOL0     O11005   9.931  10.400  10.658  0.4136 -0.0993 -0.3215
  823MOL0     C11006  10.013  10.433  10.547 -0.4205  0.4236  0.6648
  823MOL0     C11007  10.160  10.380  10.575  0.0321 -0.0775 -0.7856
  823MOL0     C11008  10.268  10.426  10.475 -0.2637  0.2128  0.9683
  823MOL0     C11009  10.397  10.344  10.497  0.2732  0.1956  0.1644
  823MOL0     C11010  10.504  10.396  10.397 -0.2709 -0.0679 -0.1103
  823MOL0     C11011  10.631  10.310  10.412  0.4645 -0.0634  0.6762
  823MOL0     C11012  10.735  10.349  10.318 -0.1916  0.9128  0.4156
  823MOL0     C11013  10.868  10.266  10.331 -0.3994 -1.0526 -0.7125
  823MOL0    Cl11014  10.850  10.109  10.282  0.3604  0.4262  0.2134
  823MOL0     C11015   9.720  10.381  10.765 -0.0451 -0.2966  0.6617
  823MOL0     C11016   9.585  10.415  10.768 -0.7537  0.8747 -0.2598
  823MOL0     O11017   9.334  10.550  10.871  0.7828  0.1478  0.5137
  823MOL0     C11018   9.119  10.524  10.596 -0.0418  0.9458  0.4207
  823MOL0     C11019   8.982  10.550  10.552 -1.0371  0.9467 -0.3803
  823MOL0     N11020   8.664  10.157  10.174  0.5703 -0.4353  0.3316
  823MOL0     N11021   8.742  10.052  10.144 -0.3308  0.1606 -0.9317
  823MOL0     C11022   9.868   9.933   9.994  0.5283 -0.3093  0.2624
  823MOL0     C11023   9.996   9.949   9.938 -0.5108 -1.1594  1.0409
  823MOL0     C11024  10.342  10.002   9.709  0.0895 -0.5437 -0.0449
  823MOL0     C11025  10.409  10.044   9.830  0.1480  0.2924 -0.5075
  823MOL0     C11026  10.528  10.109   9.830 -0.0236 -0.2261  0.1418
  823MOL0     C11027  10.590  10.137   9.709 -0.6865 -1.1885  0.2965
  823MOL0     O11028  10.705  10.216   9.725 -0.4987  0.5717  0.1426
  823MOL0     C11029  10.798  10.250   9.616 -0.1339  0.0550 -0.2565
  823MOL0     C11030  10.787  10.396   9.582 -0.4699 -0.0392  0.7868
  823MOL0     C11031  10.876  10.451   9.471 -0.1177  0.0470 -0.0446
  823MOL0     C11032  11.018  10.423   9.484  0.7103 -0.0250 -0.4498
  823MOL0     C11033  11.091  10.493   9.585 -0.1920  0.2067 -0.3575
  823MOL0     C11034  11.144  10.559   9.678 -0.1640  0.4533  0.2285
  823MOL0     C11035  10.533  10.097   9.593  0.2749  0.0735  0.4613
  823MOL0     C11036  10.407  10.034   9.590  0.9326 -0.6424  0.0331
  823MOL0     C11037  10.355   9.988   9.449 -0.2643 -0.1137  0.0034
  823MOL0     H11038  10.049   9.624   9.851  0.7912  0.9255  0.8779
  823MOL0     H11039   9.848   9.594   9.956  0.2083 -0.3748  2.0822
  823MOL0     H11040   9.615   9.706   9.887 -2.1353  1.0548  0.3850
  823MOL0     H11041   9.639   9.598  10.033  1.5444 -0.0255 -0.4895
  823MOL0     H11042   9.456   9.642  10.130 -0.6162  0.4841 -1.0262
  823MOL0     H11043   9.407   9.622   9.964 -1.1263  0.4167 -0.9363
  823MOL0     H11044   9.374   9.824   9.918  0.7627  3.4775  0.1308
  823MOL0     H11045   9.435   9.912  10.044 -0.4380 -0.1312 -0.6680
  823MOL0     H11046   9.200   9.720  10.070  0.4406 -0.6559  0.0536
  823MOL0     H11047   9.306   9.765  10.202 -0.6624 -2.8214 -1.2868
  823MOL0     H11048   9.240  10.016  10.127 -3.2342  2.5139  1.6754
  823MOL0     H11049   9.119   9.928  10.025 -2.1432 -3.1373  0.3735
  823MOL0     H11050   9.128   9.857  10.306 -3.5780 -0.3988  2.1336
  823MOL0     H11051   9.052  10.007  10.280  1.8213  1.4327  0.1402
  823MOL0     H11052   8.974   9.723  10.177  2.2329  0.2493  0.8133
  823MOL0     H11053   8.920   9.851  10.081 -1.9078 -1.3610 -0.1950
  823MOL0     H11054   8.748   9.789  10.266 -2.2143  2.4228  1.4433
  823MOL0     H11055   8.876   9.831  10.375  3.0720 -2.6129 -2.3107
  823MOL0     H11056   8.741  10.057  10.474  0.8325  1.6620 -0.5599
  823MOL0     H11057   8.430  10.222  10.318 -0.1153  1.1010 -0.0474
  823MOL0     H11058   8.496  10.219  10.470 -1.0720  1.4773  0.5756
  823MOL0     H11059   8.588  10.410  10.244 -1.8189  3.8008 -0.6186
  823MOL0     H11060   8.469  10.457  10.360  0.2788  0.1647 -1.9128
  823MOL0     H11061   8.758  10.385  10.423  0.2034  0.9937 -1.7469
  823MOL0     H11062   8.629  10.400  10.543 -0.9431  0.3794 -0.4461
  823MOL0     H11063   8.616  10.648  10.464 -2.0652 -1.9393  0.5752
  823MOL0     H11064   8.780  10.615  10.403 -0.1647 -0.3066  0.5023
  823MOL0     H11065   8.836  10.582  10.840  1.4430  0.8608  2.4126
  823MOL0     H11066   9.067  10.558  10.923 -0.6163 -0.6447 -0.1881
  823MOL0     H11067   9.531  10.532  10.460  0.7115 -0.5388 -0.7514
  823MOL0     H11068   9.778  10.501  10.443 -1.0043 -1.5945 -1.5018
  823MOL0     H11069   9.973  10.381  10.459  0.1007 -0.1529  0.7589
  823MOL0     H11070  10.015  10.541  10.529  1.8368  0.9831  3.4785
  823MOL0     H11071  10.193  10.420  10.671 -2.9473 -0.7166  0.6238
  823MOL0     H11072  10.155  10.271  10.590  2.2987  0.0977  2.2152
  823MOL0     H11073  10.228  10.420  10.374  0.8703 -1.3139  0.5809
  823MOL0     H11074  10.297  10.530  10.495  1.4857 -0.1865  0.6969
  823MOL0     H11075  10.379  10.237  10.487 -2.0244  0.3399  1.9327
  823MOL0     H11076  10.419  10.362  10.603 -2.4349 -1.0198  1.0007
  823MOL0     H11077  10.520  10.504  10.410 -0.4107  0.0518 -0.9008
  823MOL0     H11078  10.471  10.390  10.293  2.7894  3.5230 -1.5425
  823MOL0     H11079  10.659  10.334  10.515  0.9109 -2.0643  1.0744
  823MOL0     H11080  10.617  10.202  10.400  2.4834 -0.2509 -0.4229
  823MOL0     H11081  10.754  10.455  10.341 -0.8590  0.6641  2.2945
  823MOL0     H11082  10.696  10.342  10.216  1.3118 -1.7843 -0.0646
  823MOL0     H11083  10.949  10.304  10.268  1.2741 -0.1575  1.8662
  823MOL0     H11084  10.922  10.285  10.424 -2.3531  1.8279 -0.0269
  823MOL0     H11085   9.782  10.349  10.848  1.3624 -3.2528 -1.3687
  823MOL0     H11086   9.528  10.376  10.852  0.9248  1.0687  1.0215
  823MOL0     H11087   9.189  10.509  10.515  1.3642 -1.0413  1.9171
  823MOL0     H11088   8.970  10.542  10.444 -0.4714  0.3812 -0.4084
  823MOL0     H11089   9.830  10.024  10.040  0.5708 -1.0853  1.9256
  823MOL0     H11090  10.054  10.040   9.931  0.4764 -1.8696 -4.4595
  823MOL0     H11091  10.365  10.033   9.929 -0.3650 -2.6158 -0.9873
  823MOL0     H11092  10.565  10.154   9.922  2.8580 -0.6567 -0.7201
  823MOL0     H11093  10.789  10.191   9.524  1.6921  3.2574 -2.6587
  823MOL0     H11094  10.901  10.230   9.647 -0.0068 -0.0427 -0.7306
  823MOL0     H11095  10.828  10.451   9.667 -0.2059 -0.5564  1.0022
  823MOL0     H11096  10.683  10.428   9.573 -1.2712 -1.8127  2.8418
  823MOL0     H11097  10.874  10.560   9.469  1.4185  0.0945 -0.4663
  823MOL0     H11098  10.835  10.408   9.379 -0.8234 -1.5896  0.9871
  823MOL0     H11099  11.030  10.315   9.481  3.0103  0.1757 -0.3107
  823MOL0     H11100  11.062  10.459   9.390 -0.2242  6.0626  1.0341
  823MOL0     H11101  11.188  10.623   9.751  1.3991 -1.0728  0.7032
  823MOL0     H11102  10.595  10.115   9.506 -1.3495 -2.7262 -1.4325
  823MOL0     H11103  10.335   9.882   9.433 -0.8593  0.5395 -5.5445
  823MOL0     H11104  10.262  10.045   9.439 -0.2622 -0.0178  0.5239
  823MOL0     H11105  10.420  10.026   9.370  0.3759  2.2750  1.5567
  824MOL0     O11106   1.422   7.544  11.274 -0.5064 -0.7114 -0.7849
  824MOL0     C11107   1.451   7.545  11.159  0.2493  0.5940 -0.1350
  824MOL0     O11108   1.362   7.532  11.051  0.1351 -0.1480 -0.2675
  824MOL0     C11109   1.226   7.548  11.053  0.4012 -0.1381 -0.3908
  824MOL0     C11110   1.168   7.543  10.928  0.1396  0.0939  0.1071
  824MOL0     C11111   1.025   7.558  10.919  0.1309  0.0293  0.6079
  824MOL0     C11112   0.940   7.574  11.024  0.0374  0.0665 -0.7510
  824MOL0     O11113   0.802   7.550  11.018 -0.6122 -0.8877  0.4327
  824MOL0     C11114   0.734   7.533  11.145 -1.1476 -1.0282  0.4182
  824MOL0     C11115   0.590   7.493  11.127 -0.0980  0.2171  0.0072
  824MOL0     C11116   0.574   7.360  11.057 -1.1162  0.3231 -0.1292
  824MOL0     C11117   0.636   7.239  11.126 -0.1440 -0.2733 -0.1492
  824MOL0     C11118   0.614   7.120  11.020 -0.3252  0.9189 -0.5845
  824MOL0     C11119   0.690   6.995  11.068  0.2097 -0.1756 -0.2599
  824MOL0     C11120   0.649   6.872  10.991 -0.2110 -0.4855 -0.4299
  824MOL0     C11121   0.648   6.742  11.076 -0.4735 -1.2010  0.3368
  824MOL0     N11122   0.774   6.720  11.148  0.6193 -0.2104 -0.6064
  824MOL0     C11123   0.881   6.678  11.071  0.5857 -0.2617  0.5507
  824MOL0     C11124   0.990   6.719  11.137 -0.5699  0.2224 -0.9157
  824MOL0     C11125   1.139   6.702  11.085 -0.1349 -0.1744  0.5589
  824MOL0     C11126   1.244   6.718  11.196 -0.4399 -0.1994  0.9130
  824MOL0     C11127   1.384   6.666  11.136  0.5219  0.1799  0.0102
  824MOL0     C11128   1.447   6.779  11.069  0.1328  0.4872  0.1672
  824MOL0     O11129   1.526   6.725  10.968  0.4367  0.2192 -0.6756
  824MOL0     C11130   1.655   6.762  10.988 -0.5711  1.1117  0.2887
  824MOL0     C11131   1.738   6.702  11.083  0.8182 -0.3387 -0.3678
  824MOL0     C11132   1.874   6.736  11.094  1.3225 -0.0960 -0.4983
  824MOL0     C11133   1.933   6.840  11.014 -0.0239  0.3492  0.1663
  824MOL0     C11134   2.069   6.889  11.041 -0.1900  0.0477  0.0732
  824MOL0     O11135   2.135   6.825  11.141  0.0410 -0.5772  0.0980
  824MOL0     C11136   2.271   6.853  11.149  1.0457 -0.5231 -0.8162
  824MOL0     C11137   2.317   6.933  11.254  0.6918  0.4557 -0.3961
  824MOL0     C11138   2.458   6.950  11.279 -0.2303  0.2977 -0.1264
  824MOL0     C11139   2.540   6.904  11.181 -0.5615 -0.3553  0.7792
  824MOL0     O11140   2.674   6.922  11.184  0.1334  0.1735 -0.2485
  824MOL0     C11141   2.739   6.931  11.305  0.5552  0.6735 -0.3556
  824MOL0     C11142   2.891   6.927  11.269 -0.0644  0.4360  0.3498
  824MOL0     C11143   2.972   6.959  11.391  0.5201 -0.3679  1.0311
  824MOL0     C11144   3.121   6.990  11.371 -0.4297 -0.1369 -0.7620
  824MOL0     C11145   3.197   6.999  11.498  0.6814  0.4872 -0.3269
  824MOL0     C11146   3.349   6.999  11.473 -1.1647 -0.3821  0.5916
  824MOL0     C11147   3.423   6.954  11.603 -0.7674  0.6427  0.2905
  824MOL0     C11148   3.558   7.029  11.611  0.2030 -0.8197 -0.7891
  824MOL0    Cl11149   3.657   6.990  11.469  0.4183  0.1667 -0.3402
  824MOL0     C11150   2.501   6.837  11.066  0.0056  0.3429 -0.1541
  824MOL0     C11151   2.364   6.803  11.054  0.9950 -0.5704  0.3865
  824MOL0     O11152   2.117   6.979  10.971  0.9168  0.1935  0.0148
  824MOL0     C11153   1.850   6.897  10.916  0.3709  0.3124  0.1426
  824MOL0     C11154   1.712   6.846  10.900 -1.0081  0.5322 -0.1983
  824MOL0     N11155   0.947   6.772  11.253 -0.0076 -0.5204 -0.6532
  824MOL0     N11156   0.822   6.782  11.262  0.7631  0.6893  0.6994
  824MOL0     C11157   1.011   7.590  11.152  0.9298  0.3678  0.2702
  824MOL0     C11158   1.151   7.567  11.170  0.2621  0.4914  0.3650
  824MOL0     C11159   1.590   7.574  11.119  0.0215  0.2457  0.8094
  824MOL0     C11160   1.704   7.536  11.202 -0.0258 -0.2165  0.1921
  824MOL0     C11161   1.832   7.565  11.164 -0.6465  0.8008  0.0630
  824MOL0     C11162   1.861   7.635  11.051 -0.5363 -0.5232 -0.0500
  824MOL0     O11163   1.986   7.674  11.007 -0.1823 -0.5414 -0.5541
  824MOL0     C11164   2.096   7.637  11.094 -0.0251  0.6527  0.0030
  824MOL0     C11165   2.225   7.654  11.009  0.3625  0.1998 -0.1353
  824MOL0     C11166   2.264   7.795  10.964  0.2546 -0.4017  0.6752
  824MOL0     C11167   2.370   7.796  10.865 -1.0240  0.9855  0.5771
  824MOL0     C11168   2.407   7.933  10.821 -0.5203 -0.6321 -0.2780
  824MOL0     C11169   2.436   8.048  10.802  0.2052 -0.0925  0.0387
  824MOL0     C11170   1.752   7.676  10.977 -0.1790 -0.2289 -0.6652
  824MOL0     C11171   1.621   7.655  11.004  0.4398  0.7125 -0.5837
  824MOL0     C11172   1.520   7.724  10.915  0.1648  0.0553  0.3452
  824MOL0     H11173   1.238   7.533  10.846  0.3299  0.8628  0.1772
  824MOL0     H11174   0.979   7.547  10.821  1.2995  0.3429  0.0076
  824MOL0     H11175   0.779   7.451  11.202 -1.1918 -0.3661  1.4358
  824MOL0     H11176   0.742   7.626  11.202  0.1971  1.4103 -3.3717
  824MOL0     H11177   0.549   7.572  11.063  2.0787  0.3114 -1.3921
  824MOL0     H11178   0.543   7.485  11.225  2.9245 -0.4272  1.5507
  824MOL0     H11179   0.624   7.368  10.960  1.2452 -2.8347  0.6905
  824MOL0     H11180   0.466   7.345  11.052 -1.0826  0.0630 -0.0371
  824MOL0     H11181   0.742   7.255  11.152 -0.1399 -1.8019  0.9088
  824MOL0     H11182   0.585   7.224  11.221  0.2362  0.0039  0.1033
  824MOL0     H11183   0.506   7.116  11.006 -0.4265 -0.0164  0.3834
  824MOL0     H11184   0.652   7.135  10.918  0.6238 -1.3052 -0.6235
  824MOL0     H11185   0.797   7.010  11.056 -0.0413 -0.2348 -3.6483
  824MOL0     H11186   0.665   6.983  11.174 -1.4984 -3.1777 -0.8823
  824MOL0     H11187   0.723   6.861  10.912 -0.0422  2.8100 -0.8523
  824MOL0     H11188   0.549   6.880  10.949 -1.6248  1.3563  2.8989
  824MOL0     H11189   0.580   6.761  11.159  1.0179 -1.5886  1.6768
  824MOL0     H11190   0.624   6.662  11.005 -0.5500 -0.7256 -0.1875
  824MOL0     H11191   0.897   6.633  10.974  0.1855  0.6317  0.0541
  824MOL0     H11192   1.145   6.599  11.049 -0.8303  0.0145 -0.1268
  824MOL0     H11193   1.157   6.773  11.005 -1.1074  1.3763  1.6528
  824MOL0     H11194   1.264   6.820  11.229  1.7368 -0.5228  0.7891
  824MOL0     H11195   1.219   6.658  11.284 -0.2740 -2.9628 -0.8076
  824MOL0     H11196   1.358   6.593  11.059 -1.8017  2.5344 -1.6034
  824MOL0     H11197   1.450   6.617  11.209 -0.5149  0.9438  1.5260
  824MOL0     H11198   1.487   6.843  11.148 -2.4730  1.5674  0.7257
  824MOL0     H11199   1.371   6.844  11.025  1.1996  1.8022  0.2096
  824MOL0     H11200   1.699   6.615  11.135 -0.2040 -0.1431 -0.8022
  824MOL0     H11201   1.934   6.686  11.169 -0.7981 -1.7573  0.1738
  824MOL0     H11202   2.250   6.989  11.318  0.6552 -0.2285  0.1652
  824MOL0     H11203   2.487   7.010  11.365  2.9968  2.0130 -2.1954
  824MOL0     H11204   2.708   7.023  11.354 -0.8125 -0.5228  1.1060
  824MOL0     H11205   2.726   6.843  11.369 -2.9641 -0.2607 -2.0834
  824MOL0     H11206   2.921   6.831  11.226  0.8250 -0.4547  2.7916
  824MOL0     H11207   2.911   6.998  11.189  0.5415  0.2380  0.3206
  824MOL0     H11208   2.924   7.040  11.448 -1.7820 -0.6444 -0.3944
  824MOL0     H11209   2.964   6.864  11.444  1.5256 -0.8798  0.2898
  824MOL0     H11210   3.133   7.085  11.318 -0.0152  0.0844 -0.2776
  824MOL0     H11211   3.166   6.917  11.303 -0.8877 -0.4875 -0.6950
  824MOL0     H11212   3.165   6.913  11.558 -3.0050  0.3573 -2.1884
  824MOL0     H11213   3.164   7.092  11.545  0.8262  1.8844 -2.8261
  824MOL0     H11214   3.381   6.937  11.389  0.3970  0.6905  0.3557
  824MOL0     H11215   3.378   7.103  11.455  1.3426 -1.3165 -1.4417
  824MOL0     H11216   3.451   6.848  11.599  0.1548  0.8907 -0.3782
  824MOL0     H11217   3.363   6.970  11.693 -3.7390 -1.9123 -1.0465
  824MOL0     H11218   3.550   7.138  11.611  4.7135 -0.2876 -1.3898
  824MOL0     H11219   3.601   6.996  11.706 -1.3562  0.3993  0.3864
  824MOL0     H11220   2.562   6.788  10.991 -0.2306 -1.3149  0.6919
  824MOL0     H11221   2.339   6.734  10.974  0.3977  2.0738 -1.8707
  824MOL0     H11222   1.890   6.971  10.847  1.5029 -2.1036 -1.9512
  824MOL0     H11223   1.661   6.873  10.808  0.7916  3.2791 -0.5051
  824MOL0     H11224   0.960   7.608  11.245  0.4038  2.8808 -0.4261
  824MOL0     H11225   1.198   7.569  11.268  0.3745  1.0243  0.3027
  824MOL0     H11226   1.679   7.481  11.292 -1.2125 -0.6998 -0.4134
  824MOL0     H11227   1.904   7.520  11.231 -2.5059 -2.2040  0.1817
  824MOL0     H11228   2.100   7.533  11.130 -1.1202 -0.2364 -2.2596
  824MOL0     H11229   2.098   7.703  11.181 -0.3385 -1.1392  1.4550
  824MOL0     H11230   2.210   7.598  10.917 -0.5832  0.4522 -0.1413
  824MOL0     H11231   2.309   7.613  11.067  0.7121 -2.3176 -2.2633
  824MOL0     H11232   2.293   7.842  11.059 -2.3620 -0.3027  1.5271
  824MOL0     H11233   2.173   7.842  10.926  1.9790  1.0056 -1.9797
  824MOL0     H11234   2.461   7.738  10.885 -2.5654 -1.5170  0.8136
  824MOL0     H11235   2.325   7.739  10.783 -0.2490 -0.4035  1.0788
  824MOL0     H11236   2.468   8.148  10.781 -0.1752 -0.2865 -1.6096
  824MOL0     H11237   1.781   7.741  10.896  2.1740  1.5181  1.4207
  824MOL0     H11238   1.462   7.649  10.861  0.7269  0.1777 -0.4427
  824MOL0     H11239   1.460   7.784  10.985  0.4664 -1.9413  2.4249
  824MOL0     H11240   1.565   7.785  10.835 -0.1514 -1.9290 -1.4294
  825MOL0     O11241   0.983   7.673   0.813  0.8247 -0.4944  0.5057
  825MOL0     C11242   0.908   7.606   0.746  0.2554  0.2487  0.5627
  825MOL0     O11243   0.940   7.494   0.673  0.2562 -0.1332 -0.1930
  825MOL0     C11244   1.066   7.434   0.670  0.4657 -0.6983  0.7895
  825MOL0     C11245   1.068   7.309   0.602 -0.4581 -0.1133 -0.1841
  825MOL0     C11246   1.187   7.239   0.587  0.2924  1.1074 -1.0805
  825MOL0     C11247   1.311   7.282   0.653  0.4487  0.7279  0.6986
  825MOL0     O11248   1.425   7.210   0.636  0.2759  0.0668 -0.1536
  825MOL0     C11249   1.422   7.072   0.597  0.3956 -0.5493 -0.2927
  825MOL0     C11250   1.544   6.991   0.636 -0.9189  0.0572 -0.6163
  825MOL0     C11251   1.666   7.057   0.570  0.5082  0.0952  0.2103
  825MOL0     C11252   1.787   7.033   0.664  0.1062 -0.7500  0.6846
  825MOL0     C11253   1.915   7.087   0.602  0.0118  0.8292 -0.0822
  825MOL0     C11254   1.934   7.237   0.613  0.3432  0.9647 -0.2353
  825MOL0     C11255   2.065   7.291   0.539  0.3396 -1.0315 -0.2884
  825MOL0     C11256   2.054   7.447   0.547 -0.8224  0.7305 -0.1194
  825MOL0     N11257   2.186   7.511   0.520  0.6501 -0.5287  0.5467
  825MOL0     C11258   2.226   7.634   0.558  1.2491  1.3013 -0.2105
  825MOL0     C11259   2.353   7.641   0.510  0.3530  0.2413 -0.1515
  825MOL0     C11260   2.451   7.750   0.534  0.0827 -0.1732  0.6396
  825MOL0     C11261   2.462   7.793   0.681  0.1217 -0.3299 -0.9253
  825MOL0     C11262   2.575   7.877   0.723 -0.8761  0.0849  0.5656
  825MOL0     C11263   2.708   7.808   0.695  0.1597 -0.2766 -0.3161
  825MOL0     O11264   2.738   7.817   0.553 -0.4152 -0.7593 -0.5403
  825MOL0     C11265   2.862   7.849   0.507 -0.9010 -0.7075  0.2702
  825MOL0     C11266   2.872   7.871   0.369 -0.4370  0.0911  0.8769
  825MOL0     C11267   2.997   7.892   0.306  0.4810 -0.6604  0.2958
  825MOL0     C11268   3.113   7.876   0.377 -0.4658  0.3549 -0.2231
  825MOL0     C11269   3.238   7.919   0.317  1.1892  0.1033 -0.7929
  825MOL0     O11270   3.350   7.894   0.393  0.4810  0.0117  0.0423
  825MOL0     C11271   3.468   7.900   0.333 -0.0509 -0.3233 -0.7492
  825MOL0     C11272   3.578   7.953   0.401  0.1695 -0.7633  0.3598
  825MOL0     C11273   3.709   7.940   0.362 -0.0198  0.4050  0.1779
  825MOL0     C11274   3.737   7.865   0.245  0.3923 -0.2148  1.6235
  825MOL0     O11275   3.865   7.857   0.196 -0.1877 -0.0554 -0.3644
  825MOL0     C11276   3.903   7.753   0.103 -0.5333  0.4685 -0.7249
  825MOL0     C11277   4.056   7.737   0.086  0.7695 -0.3919 -0.6197
  825MOL0     C11278   4.112   7.711   0.216 -0.0385  1.2991 -1.3424
  825MOL0     C11279   4.270   7.706   0.218  0.2724 -0.6372  0.0781
  825MOL0     C11280   4.319   7.691   0.368 -0.0528 -0.7403  0.4785
  825MOL0     C11281   4.447   7.757   0.406 -0.4339 -0.3731 -0.6309
  825MOL0     C11282   4.571   7.736   0.321 -1.0463  0.1400 -0.2693
  825MOL0     C11283   4.697   7.795   0.393  0.5313  0.0923  0.2424
  825MOL0    Cl11284   4.788   7.675   0.486 -0.0645  0.3067 -0.5142
  825MOL0     C11285   3.626   7.812   0.180 -0.5942 -0.0387  0.2436
  825MOL0     C11286   3.499   7.830   0.221 -0.0967  0.4810 -1.4750
  825MOL0     O11287   3.233   7.969   0.203 -0.2349  0.0577 -0.1307
  825MOL0     C11288   3.107   7.850   0.507  0.9167  0.2819 -0.1861
  825MOL0     C11289   2.986   7.837   0.574  0.9162  0.1259 -0.3482
  825MOL0     N11290   2.388   7.528   0.443 -0.6848 -0.1657  0.8052
  825MOL0     N11291   2.295   7.451   0.459  0.8304 -0.5646  0.4471
  825MOL0     C11292   1.307   7.404   0.714 -0.0849  0.1541  0.2046
  825MOL0     C11293   1.189   7.482   0.714  0.0632  0.1410  0.0083
  825MOL0     C11294   0.760   7.640   0.732  0.4895 -0.6839  0.2088
  825MOL0     C11295   0.684   7.576   0.630  0.4242  0.0046 -1.0790
  825MOL0     C11296   0.545   7.606   0.631 -0.2786  0.0641  0.1531
  825MOL0     C11297   0.482   7.704   0.714 -0.1172  0.4065  0.4907
  825MOL0     O11298   0.346   7.730   0.709  0.2129  0.7428 -0.0648
  825MOL0     C11299   0.259   7.681   0.603  1.1055  0.4202 -0.2429
  825MOL0     C11300   0.124   7.753   0.604 -0.6251 -0.1560 -0.9923
  825MOL0     C11301   0.029   7.717   0.488  0.2797  0.1439  0.7717
  825MOL0     C11302  -0.114   7.768   0.510  0.4804  0.2252  0.7320
  825MOL0     C11303  -0.204   7.730   0.395 -0.0587 -0.1719  0.0779
  825MOL0     C11304  -0.283   7.694   0.314 -0.5037  0.3026  0.8092
  825MOL0     C11305   0.563   7.770   0.800  0.5245  0.2465  0.0961
  825MOL0     C11306   0.702   7.741   0.814 -0.0548 -0.2548  0.1324
  825MOL0     C11307   0.777   7.808   0.921 -0.4016 -0.4477  0.0108
  825MOL0     H11308   0.968   7.285   0.568  0.1223 -1.4705 -0.9815
  825MOL0     H11309   1.170   7.138   0.553 -2.4947  1.5957 -1.3452
  825MOL0     H11310   1.340   7.024   0.651 -0.4600 -1.1863 -2.0659
  825MOL0     H11311   1.407   7.070   0.489 -0.1874 -4.3582 -0.2849
  825MOL0     H11312   1.537   6.887   0.602 -2.7049 -0.1328  0.1861
  825MOL0     H11313   1.554   6.986   0.745 -1.0287  0.2073 -0.5986
  825MOL0     H11314   1.660   7.162   0.538 -0.5184  0.0473  0.1905
  825MOL0     H11315   1.688   6.996   0.482 -1.7504 -1.8792  0.9081
  825MOL0     H11316   1.782   7.086   0.760  3.1263 -2.1037  1.7081
  825MOL0     H11317   1.807   6.931   0.698  0.0300  0.2507  4.1918
  825MOL0     H11318   2.006   7.037   0.636  0.4035 -0.1744 -2.3994
  825MOL0     H11319   1.914   7.056   0.497 -1.7520 -4.2387  1.1374
  825MOL0     H11320   1.843   7.277   0.568 -0.4245 -0.2574  0.1716
  825MOL0     H11321   1.933   7.267   0.719 -0.8688  0.4495 -0.0782
  825MOL0     H11322   2.066   7.264   0.433 -2.7132  0.4494 -0.8116
  825MOL0     H11323   2.154   7.252   0.589  0.0341 -1.5017 -0.1056
  825MOL0     H11324   1.975   7.490   0.484  1.6507 -1.0708 -4.9339
  825MOL0     H11325   2.036   7.465   0.653  1.5115 -1.9827  0.8474
  825MOL0     H11326   2.180   7.707   0.624  2.8685  0.6408  1.7483
  825MOL0     H11327   2.541   7.718   0.480  1.0577  2.2786  0.6731
  825MOL0     H11328   2.426   7.843   0.482  1.0983  1.2725  2.5872
  825MOL0     H11329   2.376   7.859   0.695  2.4591  3.1435 -1.7869
  825MOL0     H11330   2.453   7.703   0.744 -1.7269  0.4529  0.0026
  825MOL0     H11331   2.562   7.893   0.830 -1.4745 -0.0042  0.5128
  825MOL0     H11332   2.575   7.976   0.676  2.5102  0.5785  1.3804
  825MOL0     H11333   2.707   7.705   0.729  1.6188 -0.3388 -0.4035
  825MOL0     H11334   2.775   7.860   0.765  0.0703 -1.3787  0.6138
  825MOL0     H11335   2.779   7.861   0.313  0.6039 -1.5257 -0.6372
  825MOL0     H11336   3.009   7.913   0.201 -1.0858 -2.0369 -0.2025
  825MOL0     H11337   3.562   8.009   0.493  1.5957 -1.6119  1.1494
  825MOL0     H11338   3.787   7.993   0.417  1.0135  0.0716 -0.9476
  825MOL0     H11339   3.848   7.662   0.124 -1.4208  0.4080 -3.0255
  825MOL0     H11340   3.868   7.789   0.005  0.7694  1.3807 -0.8889
  825MOL0     H11341   4.077   7.666   0.006 -0.0590  0.2298 -1.4177
  825MOL0     H11342   4.108   7.827   0.053  1.9856 -0.5284  0.8328
  825MOL0     H11343   4.071   7.781   0.290  1.1988 -0.8889  1.6203
  825MOL0     H11344   4.081   7.609   0.239  2.2683  1.2406  2.3845
  825MOL0     H11345   4.305   7.797   0.169 -0.2645 -0.3771  0.1715
  825MOL0     H11346   4.305   7.620   0.160  1.3162 -0.4606  0.4179
  825MOL0     H11347   4.324   7.583   0.377 -0.6068 -1.3572 -4.1680
  825MOL0     H11348   4.244   7.734   0.436  1.3149 -0.2101  1.6995
  825MOL0     H11349   4.436   7.865   0.414 -0.7959 -0.4878  0.7118
  825MOL0     H11350   4.477   7.717   0.504 -0.0677 -1.0747 -1.0210
  825MOL0     H11351   4.544   7.785   0.227 -0.8488 -0.8783 -0.8700
  825MOL0     H11352   4.586   7.630   0.296 -1.8944  0.0969 -0.6391
  825MOL0     H11353   4.779   7.824   0.326  1.1816  0.3806  1.1372
  825MOL0     H11354   4.676   7.885   0.451  2.1138  1.1355 -0.7143
  825MOL0     H11355   3.632   7.747   0.093  1.2274  1.1559 -0.5643
  825MOL0     H11356   3.424   7.771   0.170  1.3373 -1.4443 -1.4642
  825MOL0     H11357   3.198   7.846   0.566  1.7334  2.5589 -1.1715
  825MOL0     H11358   2.981   7.802   0.677 -3.5502 -0.0358 -0.4301
  825MOL0     H11359   1.397   7.453   0.751  0.6546 -0.1984 -1.1025
  825MOL0     H11360   1.205   7.586   0.740  0.4862  0.9755 -3.1910
  825MOL0     H11361   0.727   7.505   0.560 -0.1961 -0.9456 -0.5337
  825MOL0     H11362   0.477   7.560   0.560 -0.2059  1.0440 -0.5635
  825MOL0     H11363   0.234   7.576   0.618  1.6684  0.1408 -1.1730
  825MOL0     H11364   0.311   7.688   0.507 -1.8307 -1.3407 -2.1397
  825MOL0     H11365   0.146   7.861   0.603  1.2659 -0.3311  3.0343
  825MOL0     H11366   0.083   7.731   0.703 -0.5940 -1.2882 -1.2285
  825MOL0     H11367   0.039   7.608   0.495  0.5127  0.2258  1.9524
  825MOL0     H11368   0.061   7.756   0.391 -0.6329  1.3657  0.9456
  825MOL0     H11369  -0.158   7.732   0.603  1.8185  1.1640  1.7579
  825MOL0     H11370  -0.119   7.877   0.520  1.8143  0.1373  2.7374
  825MOL0     H11371  -0.356   7.652   0.248 -0.1984  0.7821  0.1602
  825MOL0     H11372   0.514   7.833   0.874 -0.3420 -1.4443  1.0129
  825MOL0     H11373   0.851   7.869   0.868 -2.0670  2.9256  1.2352
  825MOL0     H11374   0.705   7.871   0.975  0.2273 -0.3760  0.7809
  825MOL0     H11375   0.825   7.742   0.993 -1.6132 -0.4758  0.8219
  826MOL0     O11376   4.464   9.838   0.985  0.4383 -0.0319  0.3840
  826MOL0     C11377   4.470   9.723   0.953  0.4773 -0.7885 -0.2329
  826MOL0     O11378   4.571   9.635   0.968 -0.5156 -0.1765  0.3712
  826MOL0     C11379   4.691   9.691   1.013  0.0485  0.6990 -0.1894
  826MOL0     C11380   4.799   9.720   0.938 -0.3472  0.0035  0.1949
  826MOL0     C11381   4.918   9.781   0.993  0.3865  0.6381  0.0586
  826MOL0     C11382   4.926   9.807   1.131 -0.6999 -0.7701  0.2544
  826MOL0     O11383   5.036   9.862   1.201 -0.3905 -0.1359  0.0697
  826MOL0     C11384   5.146   9.912   1.120  0.2973 -0.5080  0.4666
  826MOL0     C11385   5.257   9.990   1.203  0.5426  0.5133 -0.0147
  826MOL0     C11386   5.340   9.907   1.295 -0.2338  0.0762  0.5205
  826MOL0     C11387   5.435   9.816   1.224 -0.4520  0.1296 -0.6232
  826MOL0     C11388   5.506   9.720   1.317 -0.0503  0.3704 -0.0886
  826MOL0     C11389   5.590   9.632   1.227 -0.4994 -0.8496 -0.3600
  826MOL0     C11390   5.674   9.527   1.290  0.9523 -0.9610  0.3973
  826MOL0     C11391   5.792   9.567   1.377 -0.8390 -0.4675  1.1275
  826MOL0     N11392   5.906   9.619   1.298  0.1886 -0.4232 -0.6339
  826MOL0     C11393   5.935   9.568   1.172  0.3595  0.3239  0.2467
  826MOL0     C11394   6.026   9.664   1.126 -0.1087  0.2681 -0.1139
  826MOL0     C11395   6.095   9.678   0.999 -0.0534 -0.3529 -0.7023
  826MOL0     C11396   6.249   9.632   1.010  0.4770  0.3505 -0.0984
  826MOL0     C11397   6.328   9.694   1.129 -0.3287  0.1162  0.6152
  826MOL0     C11398   6.474   9.693   1.107  0.1299 -0.1065 -0.0027
  826MOL0     O11399   6.522   9.557   1.092 -0.1343 -0.2964  0.1478
  826MOL0     C11400   6.661   9.543   1.077  0.3003  0.1457  0.9255
  826MOL0     C11401   6.707   9.420   1.078  0.2487  0.3645  0.8560
  826MOL0     C11402   6.844   9.400   1.088  0.2131  0.4084  0.0687
  826MOL0     C11403   6.931   9.501   1.104  0.5657 -0.1571  0.1142
  826MOL0     C11404   7.080   9.471   1.108  0.2619  0.4289  0.4004
  826MOL0     O11405   7.165   9.581   1.069  0.3405  0.2673 -0.3924
  826MOL0     C11406   7.302   9.573   1.069 -0.2365  0.5911  0.4624
  826MOL0     C11407   7.373   9.463   1.023 -0.1082  0.4517 -0.1934
  826MOL0     C11408   7.515   9.472   1.012  0.6516  0.3766  0.7002
  826MOL0     C11409   7.585   9.586   1.041 -0.0465 -0.0393  0.5706
  826MOL0     O11410   7.717   9.598   1.016  0.0769  0.1610 -0.3780
  826MOL0     C11411   7.779   9.493   0.941 -0.7145 -0.1691  0.0574
  826MOL0     C11412   7.920   9.534   0.909  0.4054 -0.3781 -0.4574
  826MOL0     C11413   7.986   9.559   1.042 -0.2278  0.2808 -0.4120
  826MOL0     C11414   8.120   9.627   1.008  0.2205  0.5304 -0.0470
  826MOL0     C11415   8.214   9.642   1.134 -0.3488 -0.4073  0.3788
  826MOL0     C11416   8.329   9.737   1.094 -0.4703  0.5098 -0.9485
  826MOL0     C11417   8.427   9.748   1.216  0.2748 -0.0672 -0.9685
  826MOL0     C11418   8.560   9.798   1.163 -0.5464  0.7223 -0.2492
  826MOL0    Cl11419   8.537   9.957   1.083  0.1230 -0.7268  0.0393
  826MOL0     C11420   7.514   9.693   1.097  0.2473 -1.0371  0.2055
  826MOL0     C11421   7.379   9.679   1.110  1.6161 -0.3496 -0.1763
  826MOL0     O11422   7.124   9.355   1.131 -0.3959  0.0492  0.2097
  826MOL0     C11423   6.884   9.633   1.090 -0.3370 -0.3174 -0.6314
  826MOL0     C11424   6.748   9.656   1.095  0.4618  1.0969  0.1895
  826MOL0     N11425   6.035   9.770   1.218  0.5514  0.8138  0.0815
  826MOL0     N11426   5.972   9.736   1.319  0.4117  0.3580  0.2594
  826MOL0     C11427   4.817   9.770   1.204  0.4724  0.9053 -0.5226
  826MOL0     C11428   4.711   9.702   1.149  0.2535  0.2539  0.1439
  826MOL0     C11429   4.342   9.670   0.897 -0.3631 -0.4995 -0.6027
  826MOL0     C11430   4.241   9.629   0.988 -0.2669  0.2442 -0.0984
  826MOL0     C11431   4.132   9.559   0.941 -0.0213  0.2809 -0.4820
  826MOL0     C11432   4.112   9.537   0.806  0.4362 -0.5665  0.2750
  826MOL0     O11433   3.998   9.481   0.743  0.1931  0.5282  0.6812
  826MOL0     C11434   3.905   9.412   0.831  0.4087  0.3813  0.7143
  826MOL0     C11435   3.809   9.327   0.748  0.7637  0.6104  0.2172
  826MOL0     C11436   3.662   9.367   0.765 -0.0571 -0.2433  0.5278
  826MOL0     C11437   3.602   9.303   0.890 -0.0731 -0.0455  0.5414
  826MOL0     C11438   3.475   9.366   0.902  0.0398 -0.3897 -0.2376
  826MOL0     C11439   3.379   9.437   0.905 -0.3632 -0.2102 -0.5315
  826MOL0     C11440   4.210   9.581   0.717 -0.5520  0.1635 -0.3853
  826MOL0     C11441   4.330   9.644   0.759 -0.4060  0.1035 -0.3084
  826MOL0     C11442   4.430   9.679   0.657 -0.0505  0.6345  0.6297
  826MOL0     H11443   4.808   9.696   0.832  1.6348 -2.1962  0.7593
  826MOL0     H11444   5.006   9.796   0.931  1.8970 -1.7709  1.4368
  826MOL0     H11445   5.205   9.831   1.076 -1.7370 -1.5188 -0.5103
  826MOL0     H11446   5.106   9.983   1.047  2.1413 -1.9902 -2.1543
  826MOL0     H11447   5.197  10.050   1.271  2.7468  3.2636 -0.3410
  826MOL0     H11448   5.326  10.047   1.140  1.6901 -1.0159 -0.2025
  826MOL0     H11449   5.273   9.851   1.362 -2.2851  0.0333 -1.4337
  826MOL0     H11450   5.400   9.968   1.363  1.3195 -1.4856  0.6358
  826MOL0     H11451   5.384   9.756   1.147  0.2168 -0.8952 -0.2823
  826MOL0     H11452   5.509   9.873   1.167  2.1037 -0.1912  2.1568
  826MOL0     H11453   5.562   9.772   1.397 -0.6505  0.6117  0.1821
  826MOL0     H11454   5.423   9.667   1.365  0.5898 -0.1308  0.4860
  826MOL0     H11455   5.530   9.576   1.155  2.8222 -2.3710 -2.2101
  826MOL0     H11456   5.661   9.697   1.175  1.0484 -0.3820  2.1583
  826MOL0     H11457   5.704   9.455   1.212  0.0880  0.6130 -1.4850
  826MOL0     H11458   5.605   9.470   1.353 -0.7753 -0.7562 -1.2220
  826MOL0     H11459   5.755   9.632   1.457 -1.3452  0.2004  0.3676
  826MOL0     H11460   5.819   9.473   1.427 -2.3765 -1.3948  0.3252
  826MOL0     H11461   5.903   9.471   1.136  0.1457  0.5423 -0.1605
  826MOL0     H11462   6.051   9.611   0.925 -2.1601 -0.2461  0.3765
  826MOL0     H11463   6.091   9.785   0.980 -1.0320  0.7722  4.4171
  826MOL0     H11464   6.259   9.523   1.018  1.4008  0.3033 -1.5125
  826MOL0     H11465   6.296   9.655   0.914  0.4108  2.3797  0.3239
  826MOL0     H11466   6.298   9.634   1.216 -1.6362  0.1760  0.2260
  826MOL0     H11467   6.287   9.795   1.138 -1.0673 -0.2100  1.0603
  826MOL0     H11468   6.517   9.746   1.192 -2.9620  1.3426  0.7841
  826MOL0     H11469   6.507   9.743   1.015  0.0320 -1.5869 -0.8837
  826MOL0     H11470   6.629   9.345   1.064 -1.1369  1.8809  0.1463
  826MOL0     H11471   6.876   9.297   1.099 -1.9095 -0.6055 -2.1438
  826MOL0     H11472   7.322   9.373   0.991  1.6344  0.7371 -4.4461
  826MOL0     H11473   7.556   9.378   0.977 -0.3795  0.2084 -0.1301
  826MOL0     H11474   7.785   9.394   0.987  2.3058 -0.3942 -0.5969
  826MOL0     H11475   7.719   9.482   0.850 -3.0821  2.5997  1.1499
  826MOL0     H11476   7.969   9.453   0.855 -1.3478  0.4759 -3.5906
  826MOL0     H11477   7.922   9.627   0.852  1.2788  0.0768  0.2884
  826MOL0     H11478   7.935   9.615   1.120 -0.9971  0.3729 -0.9650
  826MOL0     H11479   7.998   9.457   1.081 -2.6438  0.1977  0.2869
  826MOL0     H11480   8.090   9.721   0.959 -1.2064 -0.4911 -1.2174
  826MOL0     H11481   8.164   9.571   0.925 -1.2905 -0.2104 -0.3754
  826MOL0     H11482   8.256   9.543   1.151 -2.0889 -1.2898 -0.1961
  826MOL0     H11483   8.167   9.695   1.218  0.4207 -0.1014  0.6214
  826MOL0     H11484   8.386   9.697   1.010  2.2959  0.5444  0.7975
  826MOL0     H11485   8.295   9.839   1.075 -1.1421  1.2093  2.9973
  826MOL0     H11486   8.432   9.651   1.266 -0.2045  0.6146  0.4453
  826MOL0     H11487   8.383   9.817   1.288  1.5601  0.0514 -0.2626
  826MOL0     H11488   8.629   9.814   1.247  1.2086 -0.1964 -1.4507
  826MOL0     H11489   8.608   9.727   1.095 -2.5566 -1.0090  0.0590
  826MOL0     H11490   7.568   9.784   1.123 -1.1691 -0.2788  0.6233
  826MOL0     H11491   7.335   9.773   1.142  2.5391  0.9077 -2.4051
  826MOL0     H11492   6.954   9.715   1.101  0.8862 -1.1272 -2.0817
  826MOL0     H11493   6.709   9.758   1.099 -2.6469  0.0666 -1.0624
  826MOL0     H11494   4.812   9.780   1.312 -1.4477  0.9346 -0.5856
  826MOL0     H11495   4.626   9.665   1.205 -0.1973  2.3013  0.8958
  826MOL0     H11496   4.240   9.646   1.096 -0.4806  0.4552 -0.1305
  826MOL0     H11497   4.055   9.523   1.009 -1.3185  0.4312 -1.8184
  826MOL0     H11498   3.851   9.487   0.890 -0.0128  1.2873 -0.7778
  826MOL0     H11499   3.963   9.350   0.900 -1.8459 -0.0025  2.3704
  826MOL0     H11500   3.813   9.221   0.775  1.0462  0.4901 -0.2704
  826MOL0     H11501   3.846   9.333   0.645 -0.6533  0.7878 -0.2940
  826MOL0     H11502   3.594   9.348   0.682 -0.5315  1.3533  0.5096
  826MOL0     H11503   3.657   9.476   0.767 -3.1343 -0.2834  0.4822
  826MOL0     H11504   3.583   9.196   0.873 -1.4414  0.3572 -0.6684
  826MOL0     H11505   3.656   9.313   0.985  1.1669  2.0806 -0.3371
  826MOL0     H11506   3.295   9.500   0.884 -0.3711  0.1963  0.6962
  826MOL0     H11507   4.189   9.560   0.613  1.3209 -0.3730 -0.7036
  826MOL0     H11508   4.392   9.687   0.555 -2.4316  0.6285  1.4559
  826MOL0     H11509   4.460   9.781   0.683  0.6465  1.0145 -1.4827
  826MOL0     H11510   4.516   9.612   0.659 -1.0562 -0.9065 -2.4144
  827MOL0     O11511   6.302   6.691   9.437 -0.3090  0.3483  1.3645
  827MOL0     C11512   6.235   6.773   9.374  0.2367  0.0611  0.2148
  827MOL0     O11513   6.294   6.863   9.283  0.7949 -0.0930  0.1583
  827MOL0     C11514   6.422   6.897   9.307 -0.6226 -0.2396  0.5807
  827MOL0     C11515   6.494   6.918   9.188  0.4689  1.3807  0.6897
  827MOL0     C11516   6.629   6.951   9.200 -0.6318  0.5299  0.5433
  827MOL0     C11517   6.697   6.966   9.315  0.1286 -0.8043  0.4493
  827MOL0     O11518   6.833   6.997   9.301  0.0674 -0.4288 -0.2135
  827MOL0     C11519   6.898   7.025   9.422  0.1365 -0.5692 -0.6473
  827MOL0     C11520   7.038   7.067   9.398  0.4584  0.7319  0.5862
  827MOL0     C11521   7.108   7.108   9.531  1.2734  0.2953  0.7902
  827MOL0     C11522   7.235   7.188   9.495  0.3595  0.4038 -0.1800
  827MOL0     C11523   7.305   7.219   9.624 -0.4219  0.7963 -0.3421
  827MOL0     C11524   7.429   7.306   9.606  0.0896  0.4692  0.0192
  827MOL0     C11525   7.527   7.256   9.499 -0.2454 -0.7057  0.6830
  827MOL0     C11526   7.650   7.336   9.477 -0.3241  0.0882  0.0245
  827MOL0     N11527   7.732   7.358   9.599  0.0440 -0.3913 -0.0683
  827MOL0     C11528   7.822   7.267   9.651  0.2353  0.0198 -0.2841
  827MOL0     C11529   7.862   7.314   9.769  0.6641  0.1553  0.2799
  827MOL0     C11530   7.972   7.255   9.852 -0.8096 -0.1068 -0.2074
  827MOL0     C11531   8.082   7.182   9.777 -0.2544 -0.2786 -0.2895
  827MOL0     C11532   8.215   7.191   9.850  0.4280  0.0709 -0.1369
  827MOL0     C11533   8.282   7.325   9.825 -0.1121  0.4853  0.2646
  827MOL0     O11534   8.358   7.368   9.945  0.3860 -0.0728  0.6276
  827MOL0     C11535   8.466   7.296   9.993  0.1872 -0.4136 -0.5649
  827MOL0     C11536   8.481   7.313  10.132 -0.6215  0.4305 -0.4119
  827MOL0     C11537   8.598   7.270  10.191  0.8193  0.2036  0.1249
  827MOL0     C11538   8.700   7.212  10.115  0.4680 -0.9776 -0.4798
  827MOL0     C11539   8.833   7.171  10.176 -0.1008  0.4158  0.0984
  827MOL0     O11540   8.892   7.069  10.116  0.2556 -0.1645  0.4145
  827MOL0     C11541   8.977   6.996  10.193  0.1008  0.2679  0.4560
  827MOL0     C11542   9.113   7.012  10.173 -0.3484  0.4713  0.0690
  827MOL0     C11543   9.205   6.944  10.253 -0.0173 -0.1621 -0.2635
  827MOL0     C11544   9.167   6.853  10.346  0.4825  0.3414  0.1939
  827MOL0     O11545   9.262   6.792  10.421 -0.4174  0.6216 -0.2201
  827MOL0     C11546   9.229   6.743  10.550 -0.2200  0.5055  0.4125
  827MOL0     C11547   9.348   6.717  10.645 -0.4727  0.5413 -0.5090
  827MOL0     C11548   9.431   6.601  10.601  0.0926  0.1899 -0.0458
  827MOL0     C11549   9.546   6.566  10.698  0.4194 -0.6314 -0.0241
  827MOL0     C11550   9.629   6.440  10.660 -0.0666  0.0861 -0.3041
  827MOL0     C11551   9.774   6.438  10.735  0.0932 -0.6804 -0.5390
  827MOL0     C11552   9.873   6.361  10.660  1.0593  0.0811 -0.0944
  827MOL0     C11553  10.000   6.339  10.747  0.9659  0.5241 -0.3732
  827MOL0    Cl11554  10.142   6.267  10.652 -0.0205  0.5875  0.6897
  827MOL0     C11555   9.030   6.840  10.369  0.0015 -0.0157 -0.3622
  827MOL0     C11556   8.940   6.904  10.287  0.7786 -0.3169  0.2097
  827MOL0     O11557   8.864   7.217  10.282 -0.4677  0.7573 -0.1567
  827MOL0     C11558   8.673   7.184   9.979 -0.1908 -0.2143 -0.1241
  827MOL0     C11559   8.555   7.220   9.915 -0.0179 -0.3113 -0.5120
  827MOL0     N11560   7.803   7.441   9.779 -0.1867  0.3848 -0.2369
  827MOL0     N11561   7.719   7.466   9.683  0.3766  0.8427  0.4144
  827MOL0     C11562   6.625   6.954   9.438 -0.2313  0.6557  0.3075
  827MOL0     C11563   6.484   6.919   9.434 -0.0518 -0.2761  0.1612
  827MOL0     C11564   6.089   6.776   9.385 -0.5199 -0.6458  0.3437
  827MOL0     C11565   6.025   6.895   9.346  0.5124 -0.6049 -0.7720
  827MOL0     C11566   5.884   6.896   9.348 -0.1820  0.4640  0.0959
  827MOL0     C11567   5.809   6.787   9.403 -0.2893  0.3482 -0.1847
  827MOL0     O11568   5.673   6.777   9.414  0.7237 -0.7778  0.3786
  827MOL0     C11569   5.586   6.887   9.366  0.1662  0.4052 -0.0918
  827MOL0     C11570   5.563   6.992   9.481 -0.1385  0.4027 -0.2553
  827MOL0     C11571   5.488   7.119   9.431 -0.6039 -1.1464 -0.0101
  827MOL0     C11572   5.474   7.232   9.533 -0.0437 -0.0614 -0.7766
  827MOL0     C11573   5.594   7.299   9.585  0.1066  0.1406 -0.3872
  827MOL0     C11574   5.707   7.334   9.618 -0.6218  0.5472 -0.3658
  827MOL0     C11575   5.882   6.672   9.448 -0.1964 -0.3656 -0.1481
  827MOL0     C11576   6.019   6.663   9.436  0.4943 -0.1440 -0.2698
  827MOL0     C11577   6.080   6.530   9.486 -0.1202  0.8702  1.0412
  827MOL0     H11578   6.450   6.903   9.090  0.2574 -1.3862  1.1431
  827MOL0     H11579   6.688   6.953   9.108  0.7843 -0.4230  1.3984
  827MOL0     H11580   6.851   7.108   9.475 -0.5655 -2.3593  1.7170
  827MOL0     H11581   6.906   6.936   9.485  1.9412 -0.1542 -0.2308
  827MOL0     H11582   7.045   7.157   9.336  1.5313 -0.2592 -0.8063
  827MOL0     H11583   7.088   6.988   9.341  1.7824  2.9919 -1.5777
  827MOL0     H11584   7.133   7.013   9.578  1.4744  0.9722  2.0852
  827MOL0     H11585   7.037   7.163   9.594  0.2262  0.3739 -0.4023
  827MOL0     H11586   7.282   7.131   9.414 -0.5574  0.4031 -0.7374
  827MOL0     H11587   7.210   7.279   9.439 -1.4877 -1.1828 -2.1287
  827MOL0     H11588   7.237   7.273   9.690 -0.7064  1.1508 -0.9128
  827MOL0     H11589   7.323   7.122   9.670 -2.0862  0.6486  0.0373
  827MOL0     H11590   7.408   7.407   9.569  2.0883  0.9003 -0.0562
  827MOL0     H11591   7.480   7.301   9.702 -0.2664  2.0106  0.3150
  827MOL0     H11592   7.473   7.275   9.405 -1.1043 -0.1471  1.2788
  827MOL0     H11593   7.561   7.153   9.513  0.8839 -0.9212 -2.6388
  827MOL0     H11594   7.706   7.284   9.399 -1.8700 -0.6060 -0.6578
  827MOL0     H11595   7.614   7.432   9.439  1.7852  0.9588  0.0419
  827MOL0     H11596   7.842   7.164   9.623  1.1605 -0.3373  1.5526
  827MOL0     H11597   8.016   7.345   9.896  1.1039 -1.3652  0.5689
  827MOL0     H11598   7.920   7.193   9.925 -1.1558 -0.7846 -1.0245
  827MOL0     H11599   8.037   7.082   9.775  0.3454 -0.5679  0.1664
  827MOL0     H11600   8.078   7.223   9.676  0.8761  3.5682  1.0589
  827MOL0     H11601   8.286   7.113   9.822 -1.3359 -2.6818  2.4698
  827MOL0     H11602   8.185   7.173   9.954  0.4306  1.5492  0.1454
  827MOL0     H11603   8.206   7.399   9.799 -2.9601 -3.0243 -2.5527
  827MOL0     H11604   8.352   7.311   9.742 -0.7050 -1.6888  0.0677
  827MOL0     H11605   8.414   7.374  10.192 -0.4756 -0.9279  1.2137
  827MOL0     H11606   8.601   7.293  10.297  0.3784  0.2595  0.1264
  827MOL0     H11607   9.148   7.073  10.090  2.2126  0.6138  1.1878
  827MOL0     H11608   9.310   6.948  10.228 -0.1374  0.6536 -0.6604
  827MOL0     H11609   9.162   6.814  10.601  0.4187  2.2141 -1.0102
  827MOL0     H11610   9.166   6.655  10.536  1.3602 -0.3505 -1.7146
  827MOL0     H11611   9.402   6.812  10.639 -1.7360  1.2715 -0.9267
  827MOL0     H11612   9.315   6.699  10.748 -0.7767  0.2897 -0.6461
  827MOL0     H11613   9.367   6.514  10.584 -2.2856  2.1342 -1.7904
  827MOL0     H11614   9.471   6.630  10.503 -0.8162 -1.1594 -0.8530
  827MOL0     H11615   9.525   6.562  10.805  2.7984 -2.6286  0.4695
  827MOL0     H11616   9.621   6.645  10.698  0.6774 -0.5652  5.1744
  827MOL0     H11617   9.658   6.438  10.555  3.0622 -3.0248  0.4348
  827MOL0     H11618   9.572   6.349  10.682  0.0389 -0.6942 -2.9022
  827MOL0     H11619   9.806   6.543  10.734 -2.2529  0.1379  1.5615
  827MOL0     H11620   9.770   6.404  10.839  3.2917 -2.2705 -0.7837
  827MOL0     H11621   9.888   6.412  10.564 -2.5925 -0.4429 -1.1104
  827MOL0     H11622   9.832   6.265  10.627 -0.9255  1.5491 -2.2217
  827MOL0     H11623  10.038   6.434  10.787  1.5383  0.1359  0.0156
  827MOL0     H11624   9.979   6.276  10.833  2.2340 -0.9565 -1.1036
  827MOL0     H11625   8.989   6.762  10.431 -0.5126 -0.3369 -1.0942
  827MOL0     H11626   8.834   6.889  10.305  1.0195 -1.4111  0.7762
  827MOL0     H11627   8.746   7.142   9.911 -0.9823  1.2726 -1.9727
  827MOL0     H11628   8.539   7.226   9.808  0.6707  0.2036 -0.5959
  827MOL0     H11629   6.672   6.972   9.534  0.4991  1.3358 -0.1656
  827MOL0     H11630   6.421   6.894   9.518 -0.7185  0.6765 -0.0274
  827MOL0     H11631   6.068   6.981   9.297  1.1787 -1.3067 -1.4505
  827MOL0     H11632   5.830   6.986   9.318 -0.3961  0.1653 -0.4211
  827MOL0     H11633   5.491   6.833   9.360 -0.2211  0.0980  4.8404
  827MOL0     H11634   5.606   6.934   9.269  0.3835 -1.3510 -0.9240
  827MOL0     H11635   5.663   7.020   9.514  0.0123 -1.8988  1.5270
  827MOL0     H11636   5.520   6.942   9.569  0.3110 -2.6029 -1.6066
  827MOL0     H11637   5.385   7.087   9.407 -1.0358  1.1184 -1.4283
  827MOL0     H11638   5.523   7.161   9.336 -1.5933 -0.3056 -0.0273
  827MOL0     H11639   5.417   7.311   9.482 -1.8183 -0.6558  0.1800
  827MOL0     H11640   5.416   7.203   9.621  1.3158 -1.4680 -0.3155
  827MOL0     H11641   5.803   7.373   9.646  0.9231 -2.3122 -1.2580
  827MOL0     H11642   5.820   6.593   9.492  0.5336 -2.0696 -2.0198
  827MOL0     H11643   6.006   6.452   9.506  1.5285 -0.5688  1.8825
  827MOL0     H11644   6.160   6.493   9.420  0.9897  0.6019  2.4821
  827MOL0     H11645   6.128   6.543   9.584 -0.0686  0.0923  1.1273
  828MOL0     O11646   8.111   7.975   0.915 -0.3067  0.0469 -0.2193
  828MOL0     C11647   8.079   7.902   1.004 -0.0331  0.3755 -0.0673
  828MOL0     O11648   8.134   7.895   1.130  0.5317  0.1518  0.9487
  828MOL0     C11649   8.244   7.969   1.157  0.7751 -0.1079 -0.2655
  828MOL0     C11650   8.367   7.908   1.174 -0.0593  0.8696  0.2133
  828MOL0     C11651   8.486   7.971   1.200 -0.2891  0.7461 -0.3924
  828MOL0     C11652   8.478   8.111   1.229  0.3970  0.9973  0.0986
  828MOL0     O11653   8.576   8.191   1.270 -0.9420 -0.5590 -0.1136
  828MOL0     C11654   8.712   8.137   1.302  0.0711  0.2985 -0.1132
  828MOL0     C11655   8.810   8.244   1.368 -0.1891 -0.4833 -0.3683
  828MOL0     C11656   8.946   8.192   1.370 -1.0483  0.2526  0.7437
  828MOL0     C11657   9.049   8.293   1.424  0.0140 -0.2183 -0.2381
  828MOL0     C11658   9.198   8.239   1.431  0.2800  0.1545 -0.3457
  828MOL0     C11659   9.291   8.357   1.470  0.6184 -0.0612  0.2078
  828MOL0     C11660   9.440   8.326   1.476 -0.0080 -2.2296  0.6198
  828MOL0     C11661   9.514   8.447   1.538 -0.0283  0.1302  0.5632
  828MOL0     N11662   9.661   8.414   1.546  0.8374 -0.5723  0.8377
  828MOL0     C11663   9.754   8.503   1.509 -0.1975 -0.6346  0.4479
  828MOL0     C11664   9.863   8.469   1.580  0.2550  1.3982 -0.1004
  828MOL0     C11665   9.995   8.528   1.598 -0.0368  0.0572  0.2617
  828MOL0     C11666  10.063   8.554   1.465  0.1001 -0.5065 -0.7487
  828MOL0     C11667  10.217   8.584   1.496 -0.7379 -0.1339 -0.1694
  828MOL0     C11668  10.295   8.599   1.376 -0.1289  0.0069 -1.0010
  828MOL0     O11669  10.328   8.471   1.321 -0.1881  0.0563  0.6582
  828MOL0     C11670  10.403   8.480   1.205  0.6372  0.5404 -0.3301
  828MOL0     C11671  10.433   8.356   1.157  0.1561  0.2267  0.6030
  828MOL0     C11672  10.508   8.331   1.044  0.8821  0.6693  0.2770
  828MOL0     C11673  10.583   8.437   0.996 -0.2959  0.2646 -0.4455
  828MOL0     C11674  10.676   8.421   0.881  0.7518  0.3129  0.2864
  828MOL0     O11675  10.778   8.521   0.870 -0.1136  0.1525 -0.9559
  828MOL0     C11676  10.849   8.511   0.746 -0.1383 -0.0057 -0.0281
  828MOL0     C11677  10.950   8.414   0.729  0.4378  0.6770 -0.3754
  828MOL0     C11678  11.027   8.411   0.615  0.2520  0.3987 -0.3955
  828MOL0     C11679  11.005   8.505   0.512 -0.7452  0.7657  0.1289
  828MOL0     O11680  11.078   8.493   0.395 -0.4692  0.6630 -0.1830
  828MOL0     C11681  11.100   8.621   0.327  0.4917 -1.0128  0.6145
  828MOL0     C11682  11.199   8.609   0.212  0.2016 -0.0302 -0.4248
  828MOL0     C11683  11.341   8.643   0.255 -0.6894 -0.0089 -0.5623
  828MOL0     C11684  11.442   8.614   0.142  0.0853 -0.1559 -0.4793
  828MOL0     C11685  11.589   8.623   0.175  0.0604 -0.7483  0.3142
  828MOL0     C11686  11.690   8.599   0.066  0.9165  0.1956 -0.8449
  828MOL0     C11687  11.828   8.604   0.123  0.7859 -0.0349 -0.4767
  828MOL0     C11688  11.870   8.721   0.216  0.4845  0.3979  0.1949
  828MOL0    Cl11689  12.047   8.724   0.224 -0.1199 -0.4798 -0.1569
  828MOL0     C11690  10.905   8.608   0.534  0.5913 -0.9708  0.0545
  828MOL0     C11691  10.831   8.609   0.650 -0.8192 -0.5999  0.3677
  828MOL0     O11692  10.662   8.329   0.808  1.0026  0.3607 -0.0709
  828MOL0     C11693  10.554   8.568   1.043  0.2476 -0.1322 -0.3373
  828MOL0     C11694  10.473   8.591   1.149 -1.0004  0.5285 -1.0345
  828MOL0     N11695   9.829   8.354   1.656 -0.0324 -0.3606  0.3752
  828MOL0     N11696   9.710   8.326   1.644 -0.4796  0.1479 -0.0062
  828MOL0     C11697   8.353   8.176   1.217  0.6766  0.1530 -0.5279
  828MOL0     C11698   8.241   8.104   1.183  0.4997  0.5251  0.5538
  828MOL0     C11699   7.973   7.791   0.979 -0.2144 -0.4488 -0.8863
  828MOL0     C11700   7.913   7.785   0.855 -0.0371 -0.5401  0.3659
  828MOL0     C11701   7.794   7.716   0.831  0.5057 -0.4798  0.0777
  828MOL0     C11702   7.736   7.641   0.928  0.0134  0.0385 -0.0481
  828MOL0     O11703   7.634   7.552   0.908 -0.0861  0.6326  0.2867
  828MOL0     C11704   7.596   7.503   0.784  0.1997  0.2637 -0.0347
  828MOL0     C11705   7.470   7.411   0.782  0.1236  0.3595  0.2637
  828MOL0     C11706   7.493   7.291   0.874  0.0565  0.2483 -0.1271
  828MOL0     C11707   7.358   7.223   0.898 -0.0224  0.9615 -0.0934
  828MOL0     C11708   7.358   7.097   0.986  0.1726  0.1396 -0.1270
  828MOL0     C11709   7.357   6.996   1.057  0.0255  0.2675 -0.0260
  828MOL0     C11710   7.794   7.642   1.053 -0.4919  0.1147 -0.0198
  828MOL0     C11711   7.911   7.715   1.080  0.4791  0.5289  0.1767
  828MOL0     C11712   7.943   7.701   1.235 -0.0240  1.2039  0.8889
  828MOL0     H11713   8.366   7.800   1.183 -1.2989  0.9868  1.8882
  828MOL0     H11714   8.576   7.911   1.212 -0.2998  1.1779  2.5902
  828MOL0     H11715   8.697   8.051   1.368 -3.4956  0.0566 -1.0777
  828MOL0     H11716   8.753   8.097   1.208 -3.8692 -0.0140 -1.8867
  828MOL0     H11717   8.777   8.269   1.470 -0.6086 -4.1693  0.5648
  828MOL0     H11718   8.804   8.334   1.306 -0.5449 -1.5836 -2.0012
  828MOL0     H11719   8.968   8.163   1.267 -0.6799 -3.3320  1.6889
  828MOL0     H11720   8.946   8.097   1.426  1.7788 -1.0042 -1.1126
  828MOL0     H11721   9.032   8.389   1.375 -4.2860 -1.4993 -1.7222
  828MOL0     H11722   9.029   8.302   1.531 -0.9769  0.1653 -0.4512
  828MOL0     H11723   9.212   8.152   1.496  0.7258  0.1789 -0.4002
  828MOL0     H11724   9.225   8.205   1.330 -0.1013  0.1632 -0.4491
  828MOL0     H11725   9.263   8.444   1.410 -1.4867 -1.7091 -1.4066
  828MOL0     H11726   9.264   8.383   1.573  1.4589  2.8298 -0.2256
  828MOL0     H11727   9.476   8.313   1.373  0.7608  1.0250  0.3475
  828MOL0     H11728   9.471   8.229   1.516 -1.8018 -3.3925 -0.6679
  828MOL0     H11729   9.490   8.539   1.483  1.6134  0.2423 -0.0215
  828MOL0     H11730   9.478   8.464   1.640  1.8440 -0.8834  1.4409
  828MOL0     H11731   9.747   8.595   1.451  1.0095 -1.0943 -0.4673
  828MOL0     H11732   9.981   8.613   1.666  4.8907  0.6446  0.8838
  828MOL0     H11733  10.056   8.453   1.648  2.8124 -1.1150 -4.3351
  828MOL0     H11734  10.051   8.467   1.399 -0.5034  1.5958 -3.6403
  828MOL0     H11735  10.012   8.641   1.422 -2.1571 -0.7626  1.1987
  828MOL0     H11736  10.274   8.504   1.544 -1.5873 -1.2658 -0.9830
  828MOL0     H11737  10.221   8.678   1.551  0.7441 -0.1489 -0.2236
  828MOL0     H11738  10.386   8.657   1.392 -0.2414 -0.4318  1.5860
  828MOL0     H11739  10.239   8.663   1.307 -1.0875  0.5277  0.2313
  828MOL0     H11740  10.399   8.267   1.210 -1.3475 -0.2541 -1.0704
  828MOL0     H11741  10.519   8.237   0.991  0.2881  0.3372  0.7303
  828MOL0     H11742  10.967   8.353   0.817  1.2746  0.8570 -0.4021
  828MOL0     H11743  11.103   8.334   0.605 -1.6496 -1.1928 -6.5744
  828MOL0     H11744  11.000   8.647   0.291  0.9922  3.3616  1.7652
  828MOL0     H11745  11.131   8.698   0.399  1.3447  0.1555 -0.9434
  828MOL0     H11746  11.196   8.502   0.186  0.4940 -0.3578  0.8212
  828MOL0     H11747  11.171   8.677   0.131  0.0950 -0.0858 -0.4351
  828MOL0     H11748  11.343   8.749   0.283  0.7596  0.0706 -0.9055
  828MOL0     H11749  11.367   8.574   0.335 -1.2020 -0.3976 -0.7240
  828MOL0     H11750  11.424   8.672   0.051  1.9917  2.1643  0.5249
  828MOL0     H11751  11.422   8.508   0.120 -2.3236  0.7724 -3.5568
  828MOL0     H11752  11.608   8.538   0.241 -0.3577  0.4433  2.0463
  828MOL0     H11753  11.622   8.712   0.229  0.8932  0.6958 -2.3712
  828MOL0     H11754  11.677   8.500   0.022  2.2920 -0.5893  0.4677
  828MOL0     H11755  11.680   8.673  -0.015 -0.7289  2.2585  1.1069
  828MOL0     H11756  11.899   8.584   0.042  0.8225  1.9403 -0.9661
  828MOL0     H11757  11.838   8.522   0.196  1.2321 -1.4926 -2.1026
  828MOL0     H11758  11.839   8.820   0.181  2.2572  2.2218  3.3354
  828MOL0     H11759  11.820   8.701   0.311 -1.1148  0.8138 -0.5150
  828MOL0     H11760  10.891   8.685   0.459 -0.0981  0.6151  1.7549
  828MOL0     H11761  10.747   8.675   0.670 -0.0556  0.7088 -0.6065
  828MOL0     H11762  10.596   8.653   0.991  0.8169 -0.5914 -0.6452
  828MOL0     H11763  10.465   8.696   1.178  0.8350  1.4190 -3.4311
  828MOL0     H11764   8.341   8.282   1.235 -0.0165 -0.1916  1.2266
  828MOL0     H11765   8.145   8.155   1.182 -0.5001 -1.1513 -2.9291
  828MOL0     H11766   7.947   7.844   0.770 -0.4898 -0.4094  0.2730
  828MOL0     H11767   7.755   7.736   0.732  2.2728 -0.1409 -0.5845
  828MOL0     H11768   7.680   7.440   0.755 -1.5024 -2.0035 -0.3608
  828MOL0     H11769   7.586   7.586   0.713  0.9223  0.8273  0.5155
  828MOL0     H11770   7.451   7.385   0.677  1.8765 -1.7102  0.3835
  828MOL0     H11771   7.383   7.466   0.821  0.6431 -0.0580  2.1195
  828MOL0     H11772   7.542   7.327   0.965 -1.5318  1.7501  0.1833
  828MOL0     H11773   7.560   7.219   0.826  0.9741  0.7174  0.4205
  828MOL0     H11774   7.302   7.287   0.966 -0.7106 -0.4668  0.7439
  828MOL0     H11775   7.298   7.202   0.810  0.4739  0.9257 -0.4266
  828MOL0     H11776   7.346   6.914   1.125  1.3544 -1.1366 -1.4419
  828MOL0     H11777   7.733   7.584   1.122  0.5558  0.2130  1.0162
  828MOL0     H11778   7.882   7.631   1.292 -0.2421  0.2510 -0.4777
  828MOL0     H11779   8.046   7.669   1.255 -0.1986  2.0232  3.4305
  828MOL0     H11780   7.935   7.803   1.275 -2.0025  1.9326 -1.1896
  829MOL0     O11781   7.567   6.800  10.431 -0.3029  0.0680 -0.7069
  829MOL0     C11782   7.628   6.875  10.514  0.1123 -0.1982  0.1024
  829MOL0     O11783   7.576   6.994  10.562 -0.4982 -0.2858  0.3159
  829MOL0     C11784   7.448   7.042  10.527 -0.0319  1.0132 -0.3187
  829MOL0     C11785   7.331   6.961  10.514  0.4425  0.4624 -0.9671
  829MOL0     C11786   7.211   7.024  10.483 -0.4869 -0.2410  0.4525
  829MOL0     C11787   7.206   7.157  10.454 -0.4401  0.0279  0.9436
  829MOL0     O11788   7.085   7.199  10.399  0.0619 -0.3600 -0.8566
  829MOL0     C11789   7.070   7.329  10.353  0.3911 -0.0736  0.4306
  829MOL0     C11790   6.933   7.349  10.407  0.1804 -0.3207  0.0002
  829MOL0     C11791   6.822   7.318  10.307  0.4127  0.6731 -0.6545
  829MOL0     C11792   6.680   7.354  10.350  0.1226  1.1931  0.1062
  829MOL0     C11793   6.586   7.373  10.229 -0.1987  0.5436 -0.5809
  829MOL0     C11794   6.440   7.394  10.255 -0.4872  0.1222  1.0288
  829MOL0     C11795   6.355   7.422  10.126  0.5653  0.3037  0.4225
  829MOL0     C11796   6.341   7.292  10.044 -0.1547 -0.7561 -0.2059
  829MOL0     N11797   6.449   7.261   9.944  0.6210 -0.1826  0.0424
  829MOL0     C11798   6.525   7.135   9.932  0.4676 -1.0359 -0.2207
  829MOL0     C11799   6.618   7.166   9.841  0.4976  0.0206  0.6884
  829MOL0     C11800   6.727   7.077   9.780  0.2286 -0.4275 -0.2226
  829MOL0     C11801   6.857   7.078   9.854 -0.5065 -0.2459  0.2019
  829MOL0     C11802   6.852   6.996   9.979 -0.2543  1.0487 -0.4928
  829MOL0     C11803   6.988   6.988  10.043  0.0005  0.4645  0.0548
  829MOL0     O11804   7.092   6.948   9.946 -0.0367  0.5910 -0.2840
  829MOL0     C11805   7.226   6.960   9.982  1.0315 -0.0574  0.7772
  829MOL0     C11806   7.270   6.986  10.114  0.3404 -0.4636 -0.5363
  829MOL0     C11807   7.408   6.999  10.140 -0.4131 -0.0263  0.0210
  829MOL0     C11808   7.503   7.008  10.038 -0.1033 -0.5201 -0.0994
  829MOL0     C11809   7.653   7.022  10.062  0.1539 -0.4786 -0.1074
  829MOL0     O11810   7.694   7.050  10.190 -0.5819 -0.1602  0.2382
  829MOL0     C11811   7.826   7.036  10.238  0.2190 -0.2602 -0.2362
  829MOL0     C11812   7.835   7.099  10.362  0.4623  0.6352  0.3120
  829MOL0     C11813   7.961   7.107  10.433  0.8491  0.4864  0.2278
  829MOL0     C11814   8.073   7.074  10.372 -0.0575  0.0478  0.0790
  829MOL0     O11815   8.194   7.103  10.430 -0.1025 -0.3965  0.5231
  829MOL0     C11816   8.201   7.126  10.573 -0.1604 -0.4061  0.5734
  829MOL0     C11817   8.336   7.089  10.633  1.1469 -0.3099  0.1895
  829MOL0     C11818   8.457   7.156  10.562 -0.3288 -1.3986  1.2234
  829MOL0     C11819   8.581   7.088  10.599  0.3894  0.1190  0.6741
  829MOL0     C11820   8.707   7.161  10.566 -0.2123 -0.6069 -0.8328
  829MOL0     C11821   8.828   7.095  10.625  0.7327  0.4037  0.1185
  829MOL0     C11822   8.955   7.182  10.638  0.8335 -0.7883 -0.4145
  829MOL0     C11823   9.085   7.099  10.654  0.9874  0.5167  0.7754
  829MOL0    Cl11824   9.193   7.191  10.759 -0.7756  0.3573 -0.5459
  829MOL0     C11825   8.065   7.003  10.248 -0.5976 -0.3380  0.6620
  829MOL0     C11826   7.940   6.983  10.186 -0.2964 -0.2165  0.2480
  829MOL0     O11827   7.720   7.006   9.966 -0.2387  0.2895  0.8800
  829MOL0     C11828   7.456   6.972   9.908 -0.2040  0.0640  0.4789
  829MOL0     C11829   7.320   6.940   9.884 -0.5914  0.7765 -0.2310
  829MOL0     N11830   6.594   7.293   9.793 -0.4397  0.1596  0.6278
  829MOL0     N11831   6.496   7.349   9.847  0.2262 -0.3628  0.3847
  829MOL0     C11832   7.320   7.237  10.478  0.0039  0.1615  0.4044
  829MOL0     C11833   7.441   7.180  10.508  0.1584  0.2064  0.4271
  829MOL0     C11834   7.765   6.856  10.557  0.5450 -0.9079  0.0460
  829MOL0     C11835   7.847   6.764  10.472 -0.7993 -0.0584  0.1522
  829MOL0     C11836   7.983   6.737  10.497  0.4138  0.5944 -0.2188
  829MOL0     C11837   8.046   6.785  10.611 -1.2646 -0.3543  0.2163
  829MOL0     O11838   8.174   6.736  10.640  0.2031 -0.5713  1.2069
  829MOL0     C11839   8.230   6.774  10.765 -0.1403 -0.1045  0.1601
  829MOL0     C11840   8.347   6.686  10.798  0.5788 -0.0563  0.2701
  829MOL0     C11841   8.424   6.726  10.930  0.3187  0.7271  0.0418
  829MOL0     C11842   8.509   6.855  10.904  0.1716  0.5361 -1.0662
  829MOL0     C11843   8.612   6.871  11.005 -0.6255 -0.4005 -0.8849
  829MOL0     C11844   8.708   6.896  11.081  0.6286 -0.7131  0.2701
  829MOL0     C11845   7.965   6.857  10.705 -0.1071 -0.1971 -0.1790
  829MOL0     C11846   7.829   6.895  10.670  0.1946  0.5765 -0.5986
  829MOL0     C11847   7.756   6.967  10.773 -0.6452 -0.2629 -0.4716
  829MOL0     H11848   7.326   6.853  10.527  1.7749  0.5261  0.3019
  829MOL0     H11849   7.122   6.968  10.457 -0.6885 -1.5988  3.5367
  829MOL0     H11850   7.141   7.401  10.396 -2.3260  1.9544  1.8903
  829MOL0     H11851   7.071   7.341  10.245 -1.1269 -0.7907  0.3210
  829MOL0     H11852   6.936   7.455  10.431  0.1623 -0.3981  0.3537
  829MOL0     H11853   6.917   7.301  10.505  1.5080  0.6337  0.7063
  829MOL0     H11854   6.814   7.210  10.294 -1.5932  0.8414 -1.2007
  829MOL0     H11855   6.847   7.369  10.214 -4.2652  3.9191 -0.5038
  829MOL0     H11856   6.640   7.273  10.412 -0.6341  0.7099 -0.9874
  829MOL0     H11857   6.679   7.450  10.402  0.0583  1.9592 -1.2665
  829MOL0     H11858   6.614   7.459  10.167 -1.3519 -1.1415 -3.6523
  829MOL0     H11859   6.600   7.286  10.164 -2.1335 -0.1296 -0.1520
  829MOL0     H11860   6.405   7.304  10.306  1.2807 -1.1324  0.1180
  829MOL0     H11861   6.440   7.480  10.323  2.1465  1.9265 -1.0167
  829MOL0     H11862   6.399   7.499  10.062 -1.9132  3.0011  1.7364
  829MOL0     H11863   6.255   7.457  10.153  0.6073 -1.3304  3.0625
  829MOL0     H11864   6.335   7.212  10.118 -0.3266  0.5632  1.2614
  829MOL0     H11865   6.238   7.297  10.009  0.4291  3.0049 -1.8565
  829MOL0     H11866   6.507   7.047   9.994 -0.3978  0.4167  1.6716
  829MOL0     H11867   6.679   6.979   9.770  1.1946 -0.8635 -0.6867
  829MOL0     H11868   6.754   7.112   9.680  0.0250  0.2057 -0.0628
  829MOL0     H11869   6.927   7.032   9.783  0.0581 -0.2152  0.7362
  829MOL0     H11870   6.885   7.177   9.891  2.8185 -2.4634  4.6894
  829MOL0     H11871   6.834   6.892   9.951 -0.5539  0.7725  0.6898
  829MOL0     H11872   6.788   7.043  10.054  1.4440  0.7813  1.2020
  829MOL0     H11873   6.993   6.919  10.128  3.1370  1.3842  0.7599
  829MOL0     H11874   7.016   7.090  10.071  0.6652  0.3425 -0.1544
  829MOL0     H11875   7.209   6.974  10.203  1.5468 -1.2881  0.2047
  829MOL0     H11876   7.448   7.013  10.240  2.0463  1.5689 -1.0800
  829MOL0     H11877   7.740   7.135  10.400 -0.1193  1.7976 -2.0578
  829MOL0     H11878   7.961   7.155  10.530  3.0506  2.7902 -0.8060
  829MOL0     H11879   8.180   7.234  10.578 -1.6759 -0.6611  0.2646
  829MOL0     H11880   8.121   7.086  10.635 -4.0549  3.3188 -1.5100
  829MOL0     H11881   8.328   7.116  10.738  1.1728  1.9681 -0.3522
  829MOL0     H11882   8.360   6.982  10.636  0.9803 -0.3332  0.7898
  829MOL0     H11883   8.449   7.161  10.453 -1.1266  0.5287  1.3226
  829MOL0     H11884   8.463   7.263  10.586  0.6749 -0.8232 -1.3270
  829MOL0     H11885   8.591   6.991  10.549 -0.5205 -1.0136  2.5399
  829MOL0     H11886   8.575   7.081  10.708 -1.9303 -0.5522  0.5700
  829MOL0     H11887   8.694   7.261  10.609  2.2175 -0.3079 -0.6193
  829MOL0     H11888   8.725   7.166  10.458 -0.4612  1.0286 -0.8330
  829MOL0     H11889   8.800   7.050  10.721  1.6083  1.1910  0.7699
  829MOL0     H11890   8.854   7.008  10.565 -0.6855  0.8750 -1.2577
  829MOL0     H11891   8.948   7.238  10.732  2.4707 -1.4711  0.1507
  829MOL0     H11892   8.957   7.260  10.562 -0.7765  0.0070  0.3024
  829MOL0     H11893   9.053   7.006  10.701 -1.4862  1.3589  0.9145
  829MOL0     H11894   9.121   7.065  10.556  1.2521  1.0093  0.6961
  829MOL0     H11895   8.157   6.967  10.203  0.6272 -0.5532  3.1561
  829MOL0     H11896   7.944   6.923  10.096 -2.1463  0.5422 -0.3768
  829MOL0     H11897   7.527   6.952   9.828 -0.0193 -1.4271  0.9814
  829MOL0     H11898   7.298   6.929   9.779  1.2919 -1.0626 -0.5022
  829MOL0     H11899   7.329   7.339  10.444  1.9659 -0.7528 -2.1729
  829MOL0     H11900   7.534   7.234  10.515  0.6627 -0.7926  1.7916
  829MOL0     H11901   7.823   6.711  10.380  0.5648 -3.0744  1.3720
  829MOL0     H11902   8.036   6.666  10.435 -0.9972  0.6027 -1.4874
  829MOL0     H11903   8.157   6.751  10.844 -0.2086 -2.2143 -0.4620
  829MOL0     H11904   8.253   6.881  10.771 -1.2251  0.0864  1.2393
  829MOL0     H11905   8.414   6.679  10.712  0.6874 -0.7756  0.4025
  829MOL0     H11906   8.304   6.586  10.813 -1.4865  0.6194 -0.8566
  829MOL0     H11907   8.485   6.640  10.959 -0.0201  1.2118  2.3764
  829MOL0     H11908   8.359   6.734  11.018 -1.2138  1.4500 -1.0888
  829MOL0     H11909   8.559   6.865  10.808 -2.1841  1.9388 -2.2493
  829MOL0     H11910   8.440   6.940  10.900 -0.9700 -0.2457  0.5796
  829MOL0     H11911   8.786   6.939  11.140  1.6300 -0.9738 -0.8165
  829MOL0     H11912   7.994   6.877  10.808 -1.2656 -3.2630  0.8206
  829MOL0     H11913   7.663   6.916  10.798 -0.1650 -1.1482 -0.4611
  829MOL0     H11914   7.810   6.964  10.868 -1.3407  3.0684  0.1635
  829MOL0     H11915   7.747   7.075  10.757  1.0047  0.7640  4.0308
  830MOL0     O11916   8.102   6.321  10.030  0.1706 -0.0844  0.6854
  830MOL0     C11917   8.014   6.400  10.062  0.0271  0.2459 -0.2052
  830MOL0     O11918   8.035   6.489  10.165  0.1399  0.0861  0.6925
  830MOL0     C11919   8.149   6.494  10.242  0.0035 -0.1550  0.6806
  830MOL0     C11920   8.211   6.613  10.266 -0.6420  0.1153  0.1024
  830MOL0     C11921   8.320   6.621  10.351  0.1218  0.0783 -0.2771
  830MOL0     C11922   8.392   6.508  10.386  0.1215 -0.1059 -0.6357
  830MOL0     O11923   8.509   6.512  10.465  0.4567 -0.1241 -0.4172
  830MOL0     C11924   8.624   6.450  10.410 -0.1021 -0.2919  0.4505
  830MOL0     C11925   8.745   6.518  10.478  0.9046  0.4278 -0.1391
  830MOL0     C11926   8.751   6.487  10.624 -0.0915 -0.3959 -0.3488
  830MOL0     C11927   8.867   6.581  10.678 -0.0943 -0.4563 -0.7912
  830MOL0     C11928   8.930   6.510  10.805 -0.3610 -0.0224 -0.2870
  830MOL0     C11929   9.038   6.598  10.866  0.2332  1.2906 -0.3237
  830MOL0     C11930   8.987   6.732  10.905 -0.5613  0.3431 -0.2589
  830MOL0     C11931   9.056   6.790  11.028  0.0953 -0.0389 -0.3667
  830MOL0     N11932   9.195   6.824  11.000  0.9620 -0.0524 -0.4890
  830MOL0     C11933   9.240   6.951  10.980 -0.6463  0.8136 -0.5403
  830MOL0     C11934   9.376   6.945  10.995 -0.0176  0.1072  0.6217
  830MOL0     C11935   9.467   7.063  11.000 -0.4350 -0.9354 -0.4642
  830MOL0     C11936   9.606   7.028  11.022 -0.6677 -0.1703  0.1229
  830MOL0     C11937   9.691   7.150  11.066  0.6467 -0.2683 -0.2037
  830MOL0     C11938   9.841   7.117  11.101  0.3363 -0.4829  0.7106
  830MOL0     O11939   9.920   7.233  11.129 -0.5429 -0.1173 -0.1650
  830MOL0     C11940  10.051   7.191  11.156 -0.9225  0.4106 -0.3422
  830MOL0     C11941  10.126   7.145  11.043  0.3112 -0.0536 -1.0958
  830MOL0     C11942  10.253   7.103  11.065 -0.1827 -0.3355  0.5552
  830MOL0     C11943  10.316   7.114  11.187  0.0845  0.5726 -0.1662
  830MOL0     C11944  10.460   7.072  11.203 -0.0257  0.3917  0.0804
  830MOL0     O11945  10.521   7.043  11.079 -0.1283  0.5563 -0.1711
  830MOL0     C11946  10.657   7.011  11.093  1.5362 -0.0034 -0.4194
  830MOL0     C11947  10.750   7.097  11.140  0.1265  0.5099 -0.3340
  830MOL0     C11948  10.887   7.063  11.155 -0.5075  0.3690 -0.0378
  830MOL0     C11949  10.919   6.925  11.149  0.0339  1.1253 -0.1505
  830MOL0     O11950  11.047   6.883  11.172  0.4523  0.1725  0.0659
  830MOL0     C11951  11.067   6.852  11.306 -0.0316  0.2841 -1.2059
  830MOL0     C11952  11.199   6.786  11.315  0.8400 -0.0087  0.3453
  830MOL0     C11953  11.302   6.896  11.272  0.4649  0.3154 -0.8124
  830MOL0     C11954  11.446   6.865  11.308 -0.3578  0.0422  0.1464
  830MOL0     C11955  11.533   6.983  11.252  0.8762  0.1270  0.3945
  830MOL0     C11956  11.544   6.991  11.100  0.7434  0.0477  0.4802
  830MOL0     C11957  11.563   6.847  11.044 -0.8335  0.0415 -0.7608
  830MOL0     C11958  11.591   6.867  10.900  0.4261  0.1398  0.0429
  830MOL0    Cl11959  11.662   6.733  10.818  0.6703 -0.1168  0.1398
  830MOL0     C11960  10.821   6.836  11.098  0.2630 -0.1480 -0.1998
  830MOL0     C11961  10.692   6.881  11.062  0.1879  0.6218 -0.9875
  830MOL0     O11962  10.501   7.049  11.315 -0.4856  0.3811  0.5660
  830MOL0     C11963  10.244   7.161  11.297 -0.3140  0.2717  0.2554
  830MOL0     C11964  10.112   7.198  11.286  0.0734 -0.3535  0.2432
  830MOL0     N11965   9.411   6.816  11.018 -1.5463  1.1266  0.0300
  830MOL0     N11966   9.307   6.745  11.025 -0.0471 -0.0874  0.1943
  830MOL0     C11967   8.329   6.387  10.363 -0.6389  0.0869 -0.6299
  830MOL0     C11968   8.209   6.379  10.290  0.3276  0.2919 -0.1362
  830MOL0     C11969   7.872   6.404   9.995  0.0576 -0.5169  0.2433
  830MOL0     C11970   7.836   6.279   9.932  0.7241 -0.3177  0.2242
  830MOL0     C11971   7.709   6.267   9.869  0.4036  0.6610  0.6215
  830MOL0     C11972   7.625   6.378   9.859  0.1972 -0.0379  0.3646
  830MOL0     O11973   7.500   6.379   9.794 -0.3655  0.2888 -0.6840
  830MOL0     C11974   7.433   6.261   9.777  0.4647  0.3853  0.3004
  830MOL0     C11975   7.279   6.288   9.749 -0.7274  0.8235  0.2876
  830MOL0     C11976   7.228   6.400   9.850 -0.5470  0.0403 -0.3953
  830MOL0     C11977   7.082   6.420   9.819 -0.2601 -0.9111 -0.6494
  830MOL0     C11978   7.033   6.525   9.905 -0.2797  0.2749  0.4843
  830MOL0     C11979   6.996   6.615   9.973 -0.8098 -0.7960  0.2821
  830MOL0     C11980   7.662   6.497   9.909 -0.2061 -0.6055 -0.1050
  830MOL0     C11981   7.780   6.513   9.989 -0.2014 -0.3709  0.1643
  830MOL0     C11982   7.812   6.655  10.045 -0.4417 -0.9220  0.5635
  830MOL0     H11983   8.169   6.709  10.241 -0.8273 -0.0483 -0.2217
  830MOL0     H11984   8.354   6.717  10.387 -0.7617 -1.3006  5.2326
  830MOL0     H11985   8.608   6.342  10.412 -1.7871 -0.0750  1.7470
  830MOL0     H11986   8.627   6.475  10.304 -0.0493 -1.0496  0.2671
  830MOL0     H11987   8.749   6.627  10.462 -1.4436  0.3667 -1.6726
  830MOL0     H11988   8.836   6.481  10.431  0.8120  1.4624 -1.1865
  830MOL0     H11989   8.769   6.379  10.635  0.2532 -0.2296  0.9604
  830MOL0     H11990   8.669   6.514  10.691  0.3181 -1.7924  0.7717
  830MOL0     H11991   8.946   6.596  10.605  0.0859  1.1301 -0.3139
  830MOL0     H11992   8.817   6.673  10.710 -1.2117 -2.1120  2.8017
  830MOL0     H11993   8.861   6.494  10.888 -0.0049  4.2669  1.1096
  830MOL0     H11994   8.975   6.415  10.775  1.2279  0.3886  0.6713
  830MOL0     H11995   9.083   6.547  10.951  1.1274 -0.6333 -1.8786
  830MOL0     H11996   9.122   6.614  10.797  2.3467  1.9160  2.2426
  830MOL0     H11997   8.881   6.727  10.930 -0.1153  0.6885  1.8225
  830MOL0     H11998   8.994   6.809  10.827  2.4911 -0.5757 -1.0562
  830MOL0     H11999   9.006   6.885  11.053 -0.9976 -0.5440 -0.5620
  830MOL0     H12000   9.047   6.714  11.105  1.4655  1.3639  1.2449
  830MOL0     H12001   9.184   7.044  10.969 -1.3040  0.5508  0.4661
  830MOL0     H12002   9.451   7.113  10.904 -0.8274  1.6471  0.8492
  830MOL0     H12003   9.436   7.140  11.071  0.5857  1.0858 -2.1194
  830MOL0     H12004   9.619   6.958  11.104  0.0899  0.6848  0.7496
  830MOL0     H12005   9.648   6.990  10.928 -1.1724  0.6488 -0.4475
  830MOL0     H12006   9.654   7.194  11.159 -0.1653 -1.5847  0.1301
  830MOL0     H12007   9.709   7.221  10.986  2.1033 -0.3642  0.0083
  830MOL0     H12008   9.880   7.064  11.013  1.6664  1.2331  0.1986
  830MOL0     H12009   9.847   7.050  11.186 -1.7505  0.4734  1.6739
  830MOL0     H12010  10.093   7.144  10.940 -1.4244  0.9777 -0.5895
  830MOL0     H12011  10.303   7.067  10.976 -1.9208 -1.1620 -0.1202
  830MOL0     H12012  10.713   7.196  11.167  0.2170  0.7716 -1.1562
  830MOL0     H12013  10.953   7.148  11.162 -1.5188  1.4170 -2.2098
  830MOL0     H12014  11.061   6.942  11.367 -1.4241 -1.3590  1.2684
  830MOL0     H12015  10.984   6.788  11.338 -0.1650  0.8246 -0.4498
  830MOL0     H12016  11.218   6.769  11.421  0.3326  4.9207  1.4639
  830MOL0     H12017  11.207   6.691  11.262  1.5233 -1.8158  3.4515
  830MOL0     H12018  11.283   6.902  11.164  0.5567 -0.8139 -0.9050
  830MOL0     H12019  11.274   6.989  11.322 -0.0041 -0.2991  0.1013
  830MOL0     H12020  11.471   6.767  11.266  2.1074  1.1775 -1.2696
  830MOL0     H12021  11.449   6.853  11.417 -0.6632 -0.1437  0.1359
  830MOL0     H12022  11.635   6.955  11.282  0.7549  2.2024  3.1364
  830MOL0     H12023  11.522   7.081  11.301  1.5694  0.1610  0.4965
  830MOL0     H12024  11.452   7.023  11.051  1.8570  0.9024 -1.1720
  830MOL0     H12025  11.617   7.070  11.080 -0.4181  0.7264 -1.3979
  830MOL0     H12026  11.477   6.782  11.060 -0.1572 -0.7568 -0.2929
  830MOL0     H12027  11.653   6.803  11.086 -0.8534 -1.2298 -2.0013
  830MOL0     H12028  11.502   6.884  10.840  2.4873 -2.3997 -4.1838
  830MOL0     H12029  11.663   6.948  10.881 -0.2701  0.0758 -3.6627
  830MOL0     H12030  10.844   6.732  11.078 -2.0721 -0.6274 -0.7085
  830MOL0     H12031  10.621   6.814  11.015 -0.3228  0.7745 -0.4537
  830MOL0     H12032  10.294   7.164  11.393 -1.5817  1.0068  0.9105
  830MOL0     H12033  10.048   7.214  11.372 -1.7334 -1.2236 -0.8642
  830MOL0     H12034   8.366   6.296  10.409 -1.1125 -0.1502 -0.7110
  830MOL0     H12035   8.160   6.284  10.271 -1.0526  0.2755  2.8584
  830MOL0     H12036   7.905   6.196   9.924  2.1305  0.6643  1.5975
  830MOL0     H12037   7.694   6.172   9.818  2.4594  1.3801 -1.5044
  830MOL0     H12038   7.437   6.203   9.869 -2.7745  0.9235  0.8834
  830MOL0     H12039   7.472   6.200   9.695  1.0728  0.0126  0.8628
  830MOL0     H12040   7.217   6.198   9.758 -0.7591  0.8743  0.5831
  830MOL0     H12041   7.259   6.320   9.646  0.5058  0.1062 -0.1900
  830MOL0     H12042   7.287   6.490   9.832  0.7019 -0.6528  0.0615
  830MOL0     H12043   7.247   6.366   9.952  3.3622  1.0081 -0.6393
  830MOL0     H12044   7.081   6.469   9.721  0.8015  2.4891  0.8672
  830MOL0     H12045   7.019   6.332   9.832 -0.1071 -0.6762  2.5987
  830MOL0     H12046   6.974   6.701  10.032  1.3636  0.3103 -0.4143
  830MOL0     H12047   7.594   6.582   9.904 -1.3177 -1.3954  1.0927
  830MOL0     H12048   7.750   6.673  10.134 -2.2302 -3.6692  0.0031
  830MOL0     H12049   7.918   6.667  10.069  0.2354  2.8498 -3.2560
  830MOL0     H12050   7.791   6.739   9.978  0.9537  1.2235  2.6603
  831MOL0     O12051   2.864   9.521   9.506 -0.1729  0.0904  0.3682
  831MOL0     C12052   2.781   9.463   9.437 -0.3935  0.4746 -0.6124
  831MOL0     O12053   2.811   9.382   9.326  0.3894 -0.0057  0.8189
  831MOL0     C12054   2.945   9.363   9.314 -0.1224 -0.8503  0.0795
  831MOL0     C12055   3.019   9.444   9.222  0.3765 -0.0985 -0.0877
  831MOL0     C12056   3.153   9.425   9.215  0.8613 -0.5649  0.6754
  831MOL0     C12057   3.220   9.309   9.258  0.5158  0.0675  0.1874
  831MOL0     O12058   3.345   9.267   9.232 -1.2078 -0.2682 -0.0819
  831MOL0     C12059   3.425   9.342   9.142 -0.6237  0.3413 -0.0080
  831MOL0     C12060   3.545   9.267   9.085 -0.0403  0.1855  0.2963
  831MOL0     C12061   3.506   9.163   8.987  0.3053 -0.2938 -1.0655
  831MOL0     C12062   3.636   9.089   8.952  0.4809 -0.0867  0.8415
  831MOL0     C12063   3.587   8.960   8.875 -0.3161  0.0223 -0.1711
  831MOL0     C12064   3.537   8.852   8.980 -0.5761 -0.0181  0.5205
  831MOL0     C12065   3.455   8.737   8.906 -0.4683 -0.6829 -0.5839
  831MOL0     C12066   3.553   8.635   8.835 -0.9695 -0.5696 -0.1475
  831MOL0     N12067   3.613   8.685   8.709 -0.0280  0.0421 -0.1705
  831MOL0     C12068   3.543   8.734   8.600 -0.6259 -0.6955 -0.0835
  831MOL0     C12069   3.633   8.774   8.508 -0.4393 -0.3922 -0.2555
  831MOL0     C12070   3.602   8.853   8.387 -0.4669  0.5100  0.0179
  831MOL0     C12071   3.662   8.788   8.259 -0.1014  0.4560 -0.1448
  831MOL0     C12072   3.578   8.806   8.136 -0.1223  0.5918  1.0693
  831MOL0     C12073   3.624   8.732   8.017  0.0301 -0.6900 -0.2435
  831MOL0     O12074   3.579   8.600   8.033 -0.5729  0.1471 -0.2766
  831MOL0     C12075   3.453   8.572   7.982  0.4288  0.5377  0.7208
  831MOL0     C12076   3.361   8.668   7.932  0.9182 -0.8270  0.6344
  831MOL0     C12077   3.230   8.637   7.885 -0.2634 -0.9955 -0.2668
  831MOL0     C12078   3.183   8.513   7.906 -0.3793  1.2737  0.3538
  831MOL0     C12079   3.045   8.479   7.859  0.3505  0.2926  0.1893
  831MOL0     O12080   2.949   8.576   7.866 -0.1095 -0.0729  0.0768
  831MOL0     C12081   2.814   8.565   7.819 -0.3476 -0.4327  0.7470
  831MOL0     C12082   2.759   8.680   7.760  0.5816  0.4069  0.4255
  831MOL0     C12083   2.628   8.672   7.700  0.3128 -0.3572 -0.0636
  831MOL0     C12084   2.553   8.561   7.707 -0.2029 -0.3478 -0.1201
  831MOL0     O12085   2.434   8.553   7.643  0.0877 -0.1539  0.4582
  831MOL0     C12086   2.342   8.443   7.665 -0.0380  0.6277  0.7959
  831MOL0     C12087   2.219   8.454   7.570  0.3934 -0.3667  0.4436
  831MOL0     C12088   2.109   8.353   7.604  1.3635 -0.0756  0.8431
  831MOL0     C12089   1.972   8.364   7.528 -0.4670  0.1519 -0.6016
  831MOL0     C12090   1.976   8.316   7.380  0.4881 -0.5997 -0.7479
  831MOL0     C12091   1.845   8.327   7.298 -0.1382  0.1302 -0.1189
  831MOL0     C12092   1.720   8.276   7.359 -0.1533 -0.4185 -0.0341
  831MOL0     C12093   1.610   8.293   7.263 -0.7311  0.2994  0.7887
  831MOL0    Cl12094   1.461   8.248   7.352  0.0882  0.2541  0.1594
  831MOL0     C12095   2.600   8.455   7.785 -0.3566 -0.1020 -0.2312
  831MOL0     C12096   2.728   8.455   7.844 -0.1300  0.4820  0.4253
  831MOL0     O12097   3.025   8.363   7.821  0.6672 -0.4507  0.1400
  831MOL0     C12098   3.269   8.416   7.957  0.2692  0.4456 -0.4306
  831MOL0     C12099   3.398   8.447   7.990 -0.6766 -0.3764  0.2218
  831MOL0     N12100   3.765   8.752   8.566  0.0477  0.1004 -0.0230
  831MOL0     N12101   3.748   8.699   8.685 -0.0396  0.3882 -0.0715
  831MOL0     C12102   3.136   9.218   9.336  0.0850  0.3191 -0.1088
  831MOL0     C12103   3.001   9.244   9.356 -0.1748  0.2684  0.3288
  831MOL0     C12104   2.634   9.491   9.464 -0.5857 -0.3702  0.8003
  831MOL0     C12105   2.551   9.479   9.349 -0.1415 -0.6048  0.3531
  831MOL0     C12106   2.408   9.504   9.362 -0.4247  0.2143 -0.7896
  831MOL0     C12107   2.358   9.546   9.490  0.6417 -0.1037  0.1366
  831MOL0     O12108   2.224   9.562   9.519 -0.7608 -0.1314 -0.8387
  831MOL0     C12109   2.128   9.554   9.409 -0.1568  0.4837  0.6654
  831MOL0     C12110   2.120   9.676   9.308  0.8581  0.3215  0.6067
  831MOL0     C12111   2.112   9.812   9.379  0.8266 -0.9146  0.0913
  831MOL0     C12112   2.059   9.910   9.283  0.1698 -0.0413  0.0149
  831MOL0     C12113   2.081  10.046   9.324 -0.8577  0.1842 -0.8233
  831MOL0     C12114   2.088  10.166   9.351  0.2883 -0.0201 -0.6029
  831MOL0     C12115   2.446   9.562   9.590  0.3975  0.0642 -0.6550
  831MOL0     C12116   2.580   9.538   9.587 -0.6378 -0.3642  0.3608
  831MOL0     C12117   2.652   9.554   9.717  0.3483  0.0343  0.4379
  831MOL0     H12118   2.963   9.522   9.172 -1.1905 -2.7806 -2.8980
  831MOL0     H12119   3.201   9.507   9.162 -1.8158  1.9649  1.8802
  831MOL0     H12120   3.364   9.390   9.065 -0.5328  2.8200  1.3610
  831MOL0     H12121   3.470   9.426   9.197  1.6538 -0.7338 -0.1228
  831MOL0     H12122   3.605   9.227   9.167 -0.1329  1.2492  0.9119
  831MOL0     H12123   3.598   9.340   9.023 -0.7741 -0.3255 -0.9728
  831MOL0     H12124   3.459   9.201   8.896 -0.0257  1.3457 -0.2401
  831MOL0     H12125   3.430   9.099   9.033 -0.4138  0.2940 -1.4216
  831MOL0     H12126   3.677   9.158   8.878 -1.2430  1.3365  1.1365
  831MOL0     H12127   3.703   9.066   9.035 -0.5565 -1.5272  1.3332
  831MOL0     H12128   3.509   8.980   8.801  1.2507 -1.7394 -2.4281
  831MOL0     H12129   3.677   8.920   8.828 -0.9894  1.4740 -2.8672
  831MOL0     H12130   3.616   8.816   9.046  1.1174  0.4765 -1.1319
  831MOL0     H12131   3.465   8.899   9.048 -0.4582  1.7442 -0.4969
  831MOL0     H12132   3.380   8.780   8.840  0.8475 -1.7821 -2.9206
  831MOL0     H12133   3.398   8.676   8.977 -1.2692  1.0967  0.3707
  831MOL0     H12134   3.631   8.611   8.907  2.8280 -1.4957 -4.1211
  831MOL0     H12135   3.498   8.543   8.816 -3.5250  1.1418 -1.6163
  831MOL0     H12136   3.436   8.752   8.589 -0.8009 -2.5791 -2.4652
  831MOL0     H12137   3.494   8.870   8.377 -1.0518 -1.7348  1.8395
  831MOL0     H12138   3.655   8.946   8.410  0.2466  0.2415 -0.5286
  831MOL0     H12139   3.751   8.848   8.236 -1.1851  2.0494 -0.3522
  831MOL0     H12140   3.691   8.683   8.271 -1.5130  0.0338 -0.2551
  831MOL0     H12141   3.568   8.911   8.107 -2.5500  0.4515  1.1954
  831MOL0     H12142   3.477   8.775   8.164  0.4183 -1.0910  1.2816
  831MOL0     H12143   3.733   8.734   8.019  0.1162  1.5301 -2.4952
  831MOL0     H12144   3.594   8.784   7.926 -0.4993 -0.5754 -0.0045
  831MOL0     H12145   3.380   8.771   7.904 -1.9208 -0.2272  0.5790
  831MOL0     H12146   3.166   8.715   7.844 -0.2391 -0.7531  0.1507
  831MOL0     H12147   2.813   8.774   7.755  1.5115 -0.1806 -1.2692
  831MOL0     H12148   2.592   8.757   7.644  0.1348  0.2336  0.9162
  831MOL0     H12149   2.393   8.348   7.645 -3.0408 -0.6189 -1.7354
  831MOL0     H12150   2.308   8.451   7.769 -0.0962 -2.5750  1.1103
  831MOL0     H12151   2.172   8.552   7.558  1.5602  0.1976  0.3544
  831MOL0     H12152   2.263   8.430   7.472 -1.5875 -1.8001 -0.1463
  831MOL0     H12153   2.151   8.253   7.596 -2.4703 -1.7554 -0.4875
  831MOL0     H12154   2.077   8.368   7.707  1.2461  1.3762  0.6200
  831MOL0     H12155   1.938   8.468   7.531 -1.2723 -0.1242  1.1536
  831MOL0     H12156   1.898   8.303   7.581  1.2401 -3.4885 -2.0711
  831MOL0     H12157   2.008   8.212   7.378  0.0723 -0.8587  2.3505
  831MOL0     H12158   2.054   8.371   7.326  0.7125 -0.4864 -0.3071
  831MOL0     H12159   1.843   8.431   7.266  1.6670 -0.7984 -3.7404
  831MOL0     H12160   1.860   8.272   7.205  0.7982  1.3957 -0.7306
  831MOL0     H12161   1.703   8.335   7.450 -0.9088 -0.4606 -0.1396
  831MOL0     H12162   1.723   8.174   7.399 -2.9890 -0.0052  1.5481
  831MOL0     H12163   1.605   8.393   7.220  0.6516  0.2559  0.4876
  831MOL0     H12164   1.624   8.217   7.185  1.6746  0.1332  1.3191
  831MOL0     H12165   2.540   8.365   7.786  2.5066 -2.2713 -3.0681
  831MOL0     H12166   2.763   8.367   7.897 -1.9678 -0.6021 -0.0779
  831MOL0     H12167   3.235   8.315   7.976 -2.6505  0.5755 -3.7431
  831MOL0     H12168   3.457   8.367   8.034  2.0064  1.8872  1.0123
  831MOL0     H12169   3.184   9.125   9.366 -2.0270 -0.8159 -0.0075
  831MOL0     H12170   2.933   9.180   9.410  0.8237 -0.5918  0.6022
  831MOL0     H12171   2.590   9.450   9.252  3.2421  3.2758  0.3090
  831MOL0     H12172   2.347   9.491   9.274  0.9010  2.0170 -2.0447
  831MOL0     H12173   2.032   9.557   9.461  0.3780  1.0287  1.6456
  831MOL0     H12174   2.135   9.467   9.343 -0.9971  0.4838  0.5710
  831MOL0     H12175   2.036   9.659   9.240  1.0654 -3.0167  1.0132
  831MOL0     H12176   2.207   9.682   9.242  1.2490 -0.4801  1.0393
  831MOL0     H12177   2.212   9.844   9.407  0.7933  0.3933 -1.2260
  831MOL0     H12178   2.048   9.815   9.468  2.4455  0.4511  1.2755
  831MOL0     H12179   2.106   9.893   9.186  0.4815 -1.3856  0.3846
  831MOL0     H12180   1.951   9.893   9.273  0.4717 -4.0053  1.7256
  831MOL0     H12181   2.081  10.270   9.379  2.8549  0.0003  0.2047
  831MOL0     H12182   2.404   9.570   9.690  0.2598 -2.1188 -0.4930
  831MOL0     H12183   2.589   9.506   9.792  2.2807 -0.8998  1.5490
  831MOL0     H12184   2.753   9.512   9.719 -0.4499 -2.0107  0.0688
  831MOL0     H12185   2.654   9.659   9.749 -0.6854 -0.2323  1.4124
  832MOL0     O12186   6.595   4.254   2.899  0.5453 -0.9083 -0.8533
  832MOL0     C12187   6.537   4.362   2.912 -0.5157 -0.9046  0.4143
  832MOL0     O12188   6.604   4.482   2.915  0.1124  0.5594  0.6079
  832MOL0     C12189   6.736   4.471   2.877 -0.8845  0.2572  0.1451
  832MOL0     C12190   6.771   4.487   2.742  0.3916  0.1324 -0.4946
  832MOL0     C12191   6.896   4.496   2.699 -0.2758  0.0358 -0.4333
  832MOL0     C12192   7.005   4.496   2.788 -1.2581  0.2698 -0.0348
  832MOL0     O12193   7.140   4.529   2.753 -0.0400 -0.4394 -0.1252
  832MOL0     C12194   7.192   4.455   2.636 -0.1813  0.4007 -0.5713
  832MOL0     C12195   7.314   4.526   2.576  0.9180  0.0777 -0.1063
  832MOL0     C12196   7.375   4.449   2.458 -0.4950 -0.1595  0.1180
  832MOL0     C12197   7.492   4.522   2.392 -0.0485 -0.4311 -0.6609
  832MOL0     C12198   7.619   4.515   2.478  0.1632 -0.4641  0.6032
  832MOL0     C12199   7.747   4.579   2.411 -0.0210  0.0956  0.4430
  832MOL0     C12200   7.781   4.515   2.270 -0.2356  0.2603  0.5102
  832MOL0     C12201   7.937   4.527   2.263 -0.4317  0.4836 -0.1986
  832MOL0     N12202   7.980   4.669   2.229  0.1581  0.4273 -0.7070
  832MOL0     C12203   7.936   4.742   2.124  0.2950  0.4330 -0.6391
  832MOL0     C12204   8.011   4.849   2.122  0.1775  0.8223  0.1617
  832MOL0     C12205   8.014   4.948   2.006 -0.2129 -0.0990  0.1492
  832MOL0     C12206   8.157   4.979   1.949 -1.4850  0.5592 -0.1437
  832MOL0     C12207   8.243   5.062   2.047  0.8888  0.4802 -0.1805
  832MOL0     C12208   8.338   5.152   1.969  1.1283  0.8621  0.5102
  832MOL0     O12209   8.428   5.195   2.067 -0.6589  0.2162 -0.4862
  832MOL0     C12210   8.558   5.228   2.016  0.0100 -0.3318 -0.4233
  832MOL0     C12211   8.666   5.174   2.074 -1.2718  0.8775  0.2183
  832MOL0     C12212   8.798   5.206   2.035  0.0358  0.8872 -0.3346
  832MOL0     C12213   8.819   5.303   1.932 -0.5129 -0.1149  0.4667
  832MOL0     C12214   8.954   5.337   1.888 -0.4732  0.8523 -0.6997
  832MOL0     O12215   8.970   5.454   1.827  0.3048  0.1335 -0.7246
  832MOL0     C12216   9.101   5.499   1.792  0.1533  0.2317 -0.1429
  832MOL0     C12217   9.138   5.542   1.664 -0.1251  0.2115 -0.3049
  832MOL0     C12218   9.259   5.597   1.636 -0.0483  0.0792 -0.5994
  832MOL0     C12219   9.355   5.599   1.736 -0.4718 -0.1678  0.6634
  832MOL0     O12220   9.481   5.630   1.716  0.4368 -0.8276 -0.2582
  832MOL0     C12221   9.509   5.732   1.620  0.3078  0.2814 -0.3409
  832MOL0     C12222   9.655   5.766   1.641 -0.0485 -1.0248 -0.1051
  832MOL0     C12223   9.666   5.894   1.729 -0.6751 -0.0060 -0.0117
  832MOL0     C12224   9.800   5.968   1.703 -0.1266 -0.6233  0.9617
  832MOL0     C12225   9.857   6.003   1.833 -0.4526  0.8549  0.4247
  832MOL0     C12226   9.968   6.103   1.821 -0.6540  0.4087 -0.0417
  832MOL0     C12227  10.089   6.065   1.731  0.3316 -0.0354  0.1267
  832MOL0     C12228  10.228   6.123   1.777 -0.2532 -0.5328  0.5312
  832MOL0    Cl12229  10.352   6.034   1.666 -0.2747 -0.6208 -0.2387
  832MOL0     C12230   9.323   5.555   1.861 -0.3029  0.1588  0.5553
  832MOL0     C12231   9.197   5.511   1.892  0.1955 -0.0481 -0.3916
  832MOL0     O12232   9.044   5.261   1.914 -0.6967 -0.0986  0.5909
  832MOL0     C12233   8.707   5.357   1.868 -0.0504  0.0876 -0.5532
  832MOL0     C12234   8.576   5.323   1.914  0.0025 -0.0552  0.0956
  832MOL0     N12235   8.096   4.854   2.231 -0.1437  0.2456 -0.4205
  832MOL0     N12236   8.074   4.745   2.291  0.3594 -0.7676 -1.0740
  832MOL0     C12237   6.976   4.474   2.928  1.2731 -0.3252  0.2310
  832MOL0     C12238   6.841   4.466   2.973  0.1724  1.0741  0.0038
  832MOL0     C12239   6.383   4.375   2.916  0.2849  0.4661  0.3810
  832MOL0     C12240   6.310   4.266   2.864 -0.8038  0.2407  0.0383
  832MOL0     C12241   6.180   4.264   2.869  0.0958  0.2173  0.7131
  832MOL0     C12242   6.100   4.357   2.931  0.9096  0.5653 -0.4267
  832MOL0     O12243   5.964   4.338   2.935  0.4077 -0.1219 -0.5379
  832MOL0     C12244   5.902   4.359   2.807 -0.1373 -0.2150  0.3771
  832MOL0     C12245   5.921   4.505   2.763  0.6646  0.5786 -0.0691
  832MOL0     C12246   5.849   4.530   2.638  0.5121 -0.4162 -0.4699
  832MOL0     C12247   5.867   4.672   2.598 -0.0300  0.5630 -0.5040
  832MOL0     C12248   5.841   4.707   2.455  0.6031 -0.2689 -0.3401
  832MOL0     C12249   5.817   4.698   2.337 -0.0245  0.0907 -0.2365
  832MOL0     C12250   6.164   4.461   2.995  0.6598 -0.6576 -0.6028
  832MOL0     C12251   6.305   4.478   2.981  0.8728  0.4762 -0.4767
  832MOL0     C12252   6.370   4.583   3.065  0.8033 -0.0315  0.5412
  832MOL0     H12253   6.688   4.506   2.674  1.1960  4.0907 -0.6306
  832MOL0     H12254   6.916   4.519   2.595  1.2937 -0.3350 -0.2343
  832MOL0     H12255   7.215   4.354   2.672 -1.0769  0.2483 -0.4133
  832MOL0     H12256   7.111   4.444   2.564  0.8664 -1.9394 -1.5165
  832MOL0     H12257   7.382   4.549   2.659 -0.6581  3.9108  0.3658
  832MOL0     H12258   7.274   4.621   2.540 -0.4509  0.0228  1.1241
  832MOL0     H12259   7.310   4.432   2.371  1.5225 -1.7881 -1.1642
  832MOL0     H12260   7.407   4.349   2.489  2.0905  0.9354  1.2817
  832MOL0     H12261   7.514   4.487   2.291 -2.2398 -0.4001 -1.2006
  832MOL0     H12262   7.461   4.626   2.380  1.4350  0.1846  0.4819
  832MOL0     H12263   7.606   4.566   2.574 -0.3468 -0.6104  0.6111
  832MOL0     H12264   7.629   4.408   2.496 -0.6424 -0.4029  1.4546
  832MOL0     H12265   7.736   4.688   2.404 -1.1407  0.0804  1.6360
  832MOL0     H12266   7.831   4.557   2.477 -1.3730 -0.7450  1.9856
  832MOL0     H12267   7.728   4.563   2.187 -1.8288 -0.8988  0.8119
  832MOL0     H12268   7.751   4.410   2.273  0.6072  0.0080  0.2468
  832MOL0     H12269   7.982   4.480   2.351 -3.0499 -0.8168  0.5549
  832MOL0     H12270   7.980   4.474   2.178 -0.9982  0.5031 -0.5042
  832MOL0     H12271   7.858   4.710   2.055 -2.1373 -3.1952  3.2899
  832MOL0     H12272   7.949   4.909   1.927  0.7791  0.4678 -0.9850
  832MOL0     H12273   7.973   5.044   2.039  2.7186  1.2690  0.1266
  832MOL0     H12274   8.208   4.887   1.921  0.1376  1.2958  0.2997
  832MOL0     H12275   8.146   5.030   1.853  1.3379  0.3298 -0.6696
  832MOL0     H12276   8.293   4.992   2.114  0.8695  0.0433 -0.6222
  832MOL0     H12277   8.187   5.122   2.120  0.4914 -1.7280  1.4218
  832MOL0     H12278   8.284   5.232   1.916 -2.3317 -3.1104 -2.6895
  832MOL0     H12279   8.382   5.091   1.889 -0.5501 -1.0526  0.9737
  832MOL0     H12280   8.659   5.104   2.157  2.2227 -0.2395 -0.2605
  832MOL0     H12281   8.880   5.159   2.089 -0.2262 -1.2690 -1.6827
  832MOL0     H12282   9.062   5.537   1.587  1.0655 -0.0612 -1.4876
  832MOL0     H12283   9.277   5.639   1.538  2.9267  2.7585  0.9435
  832MOL0     H12284   9.489   5.706   1.516 -1.3646 -2.8379  0.6250
  832MOL0     H12285   9.441   5.814   1.647  1.2576  0.7065  0.8757
  832MOL0     H12286   9.711   5.685   1.689  1.5369  0.8117  1.3434
  832MOL0     H12287   9.701   5.773   1.542 -0.7701 -0.7280 -0.4237
  832MOL0     H12288   9.583   5.957   1.695  0.0197  0.5010 -0.7983
  832MOL0     H12289   9.648   5.867   1.834 -2.5836  2.4807  0.3980
  832MOL0     H12290   9.781   6.057   1.642  3.3116  0.6817  1.5654
  832MOL0     H12291   9.872   5.904   1.650  1.4792  0.6892  1.4534
  832MOL0     H12292   9.894   5.910   1.877 -0.8603 -0.2934 -1.5265
  832MOL0     H12293   9.775   6.035   1.898 -0.6238 -0.0174  0.6481
  832MOL0     H12294   9.931   6.199   1.786  0.2147  0.5779 -0.5514
  832MOL0     H12295  10.008   6.118   1.922  3.6349 -2.8229 -0.9433
  832MOL0     H12296  10.080   6.104   1.630  3.9296  0.6166 -0.0660
  832MOL0     H12297  10.089   5.956   1.720 -3.2972 -0.2841  1.1790
  832MOL0     H12298  10.240   6.230   1.757  0.2953 -1.2129 -3.9505
  832MOL0     H12299  10.242   6.097   1.882 -0.9480 -0.6014  0.6115
  832MOL0     H12300   9.405   5.558   1.932  0.7033 -2.1182 -0.4033
  832MOL0     H12301   9.181   5.464   1.988 -0.8321 -3.6809 -2.1469
  832MOL0     H12302   8.726   5.433   1.793 -0.2768  1.3776  0.6663
  832MOL0     H12303   8.490   5.365   1.863 -0.6810 -0.9373  0.4995
  832MOL0     H12304   7.060   4.469   2.996 -1.1743 -0.2294  3.5280
  832MOL0     H12305   6.820   4.453   3.079 -0.5290 -0.4358 -0.2801
  832MOL0     H12306   6.353   4.181   2.813  1.4873  2.9274 -2.9520
  832MOL0     H12307   6.124   4.188   2.815 -0.8538  1.1691  0.3391
  832MOL0     H12308   5.796   4.341   2.828 -0.2310 -0.4482 -0.2761
  832MOL0     H12309   5.933   4.286   2.732 -2.0108 -0.9907  0.2918
  832MOL0     H12310   6.027   4.515   2.739  0.1332  0.2075 -2.9156
  832MOL0     H12311   5.896   4.578   2.841  3.6808 -2.5575  4.3029
  832MOL0     H12312   5.742   4.518   2.656  0.1207  2.6606 -0.1451
  832MOL0     H12313   5.880   4.466   2.554  1.3904  4.4491 -4.3679
  832MOL0     H12314   5.808   4.736   2.664 -0.4611  0.8464 -1.1516
  832MOL0     H12315   5.975   4.687   2.607  0.6201 -2.9647 -0.8361
  832MOL0     H12316   5.778   4.691   2.237 -2.4599  1.4065  0.5525
  832MOL0     H12317   6.106   4.533   3.051  1.3720  0.3153 -1.0844
  832MOL0     H12318   6.423   4.655   3.003 -1.0606 -1.2064 -2.6982
  832MOL0     H12319   6.302   4.628   3.138  1.0949  1.6860 -0.1996
  832MOL0     H12320   6.436   4.526   3.131  0.6004  0.3124  1.0431
  833MOL0     O12321   8.286   3.123  11.183 -0.2788  0.0591 -0.1316
  833MOL0     C12322   8.254   3.199  11.094 -0.3738  0.0331 -0.6376
  833MOL0     O12323   8.347   3.255  11.017 -0.3444 -0.1577 -0.1633
  833MOL0     C12324   8.478   3.223  11.030 -0.1911  0.5773 -0.8395
  833MOL0     C12325   8.539   3.114  10.958  0.8837  0.6109  0.1139
  833MOL0     C12326   8.679   3.084  10.983 -0.0823  0.2996 -0.0650
  833MOL0     C12327   8.745   3.159  11.084 -0.2658 -0.3109  0.8612
  833MOL0     O12328   8.874   3.125  11.116  0.6190 -0.2913 -0.1269
  833MOL0     C12329   8.871   3.017  11.216 -0.0324 -0.2259  0.1799
  833MOL0     C12330   9.006   3.034  11.294 -0.0493 -0.5872 -0.4180
  833MOL0     C12331   9.025   2.929  11.405 -0.2512 -0.8772  0.4724
  833MOL0     C12332   9.102   2.987  11.529 -0.1860 -0.5380 -0.3065
  833MOL0     C12333   9.251   3.024  11.506  0.4820  0.2314 -0.2110
  833MOL0     C12334   9.302   3.049  11.644 -0.2379 -0.1736 -0.0577
  833MOL0     C12335   9.259   3.180  11.717 -0.0166  0.1174  0.7595
  833MOL0     C12336   9.327   3.216  11.851 -0.3672 -0.1420 -0.1185
  833MOL0     N12337   9.292   3.122  11.961 -0.4027 -0.5382  0.8348
  833MOL0     C12338   9.374   3.009  11.999 -0.1010  0.7029 -0.6212
  833MOL0     C12339   9.320   2.976  12.118 -0.3680 -0.5938  0.0565
  833MOL0     C12340   9.352   2.862  12.215  0.5464 -0.3944  0.0453
  833MOL0     C12341   9.298   2.733  12.159  0.3717  0.3223  0.2737
  833MOL0     C12342   9.314   2.613  12.256  0.0118 -0.3253 -0.5717
  833MOL0     C12343   9.218   2.505  12.214 -1.2928 -0.2892 -0.3162
  833MOL0     O12344   9.220   2.397  12.308  0.1492  0.1272  0.1389
  833MOL0     C12345   9.308   2.294  12.295  0.2296  0.4207 -0.0719
  833MOL0     C12346   9.276   2.175  12.366  0.3520 -0.2145  0.1796
  833MOL0     C12347   9.346   2.060  12.353  0.1302 -0.7546  0.0838
  833MOL0     C12348   9.459   2.052  12.268 -0.1344  0.1059 -0.1873
  833MOL0     C12349   9.534   1.929  12.242  1.3568 -0.5088 -0.1723
  833MOL0     O12350   9.663   1.950  12.198 -0.3365 -0.4291 -0.0086
  833MOL0     C12351   9.759   1.853  12.197 -0.2001  0.2226 -0.6015
  833MOL0     C12352   9.885   1.895  12.150  0.3677 -0.7899 -0.3220
  833MOL0     C12353  10.000   1.820  12.167  0.0713 -0.0230  0.6197
  833MOL0     C12354   9.984   1.699  12.229  0.1880 -0.2709 -0.4397
  833MOL0     O12355  10.095   1.627  12.247  0.9330  0.7895 -0.2563
  833MOL0     C12356  10.130   1.611  12.383 -1.0405  0.7486  0.3899
  833MOL0     C12357  10.194   1.733  12.426 -0.5434  0.6503  0.2782
  833MOL0     C12358  10.348   1.726  12.417  0.1233  0.0734 -0.2173
  833MOL0     C12359  10.409   1.804  12.303 -0.3974  0.0591 -0.1056
  833MOL0     C12360  10.554   1.775  12.278  0.9255  0.3712 -0.4608
  833MOL0     C12361  10.618   1.882  12.193 -0.3797  0.0901 -0.1345
  833MOL0     C12362  10.766   1.844  12.185  0.4586  1.1103  0.2542
  833MOL0     C12363  10.827   1.927  12.075 -0.1833  0.3684  0.4577
  833MOL0    Cl12364  11.006   1.888  12.064 -0.5037  0.3104 -0.6432
  833MOL0     C12365   9.857   1.652  12.270 -0.8143 -0.6703 -0.2265
  833MOL0     C12366   9.751   1.730  12.256 -0.0793 -0.6844  0.3071
  833MOL0     O12367   9.475   1.823  12.263  0.0712  0.1638 -0.0189
  833MOL0     C12368   9.497   2.171  12.206  0.1340 -1.0308 -0.3874
  833MOL0     C12369   9.417   2.289  12.212 -0.7828  0.6023 -0.9142
  833MOL0     N12370   9.232   3.076  12.156 -0.1789  0.6583  0.1141
  833MOL0     N12371   9.203   3.152  12.058  0.3885  0.1221  0.4872
  833MOL0     C12372   8.682   3.264  11.155 -1.0570  0.3483  0.6684
  833MOL0     C12373   8.549   3.294  11.131 -1.1775  0.2808  1.1980
  833MOL0     C12374   8.114   3.237  11.077 -0.7300 -0.1428 -0.5024
  833MOL0     C12375   8.081   3.280  10.947 -0.1905 -0.3133 -1.1527
  833MOL0     C12376   7.952   3.318  10.908  0.3822  0.3351  0.3621
  833MOL0     C12377   7.850   3.302  11.001  1.1718 -0.6280 -0.0813
  833MOL0     O12378   7.710   3.322  10.968 -1.3631  0.3304 -0.3246
  833MOL0     C12379   7.679   3.344  10.831  0.3438  0.1819  0.4603
  833MOL0     C12380   7.538   3.327  10.798 -0.0228  0.0974  0.3042
  833MOL0     C12381   7.454   3.455  10.820  0.2627 -0.3115  0.1981
  833MOL0     C12382   7.317   3.438  10.756 -0.3006  0.5802 -0.0922
  833MOL0     C12383   7.225   3.555  10.783 -0.5595 -0.6515  0.0853
  833MOL0     C12384   7.149   3.646  10.827 -0.5371 -0.3877 -0.5279
  833MOL0     C12385   7.874   3.259  11.134 -0.1264  0.0659 -0.1694
  833MOL0     C12386   8.010   3.229  11.169  0.9108  0.5988  0.0457
  833MOL0     C12387   8.030   3.214  11.318 -0.3114  0.1367  0.1290
  833MOL0     H12388   8.478   3.061  10.886  0.5582  2.4024 -0.9857
  833MOL0     H12389   8.729   2.999  10.938 -0.4966 -1.1400  1.9958
  833MOL0     H12390   8.780   3.015  11.277 -1.9418  0.4213 -2.4909
  833MOL0     H12391   8.876   2.925  11.157  0.4684  0.5847 -1.0655
  833MOL0     H12392   9.009   3.136  11.333 -1.1378 -0.9145  0.5695
  833MOL0     H12393   9.090   3.027  11.224  1.6184  0.3442  1.3915
  833MOL0     H12394   9.074   2.839  11.368 -0.0550 -0.4581 -0.2887
  833MOL0     H12395   8.928   2.879  11.419 -1.4761  0.9877 -0.8680
  833MOL0     H12396   9.051   3.079  11.559  0.9619  1.0069 -2.7669
  833MOL0     H12397   9.099   2.912  11.609  0.2637 -0.5336 -0.2836
  833MOL0     H12398   9.307   2.941  11.461 -1.4790 -0.9050 -0.6886
  833MOL0     H12399   9.260   3.116  11.448  0.4211  0.6978  0.5208
  833MOL0     H12400   9.296   2.962  11.709 -0.0194 -1.1204 -1.2740
  833MOL0     H12401   9.410   3.067  11.631 -0.4739  1.9265  0.4538
  833MOL0     H12402   9.151   3.166  11.726 -0.6418  1.4287 -2.8937
  833MOL0     H12403   9.260   3.260  11.642 -0.1995 -1.2359 -0.7342
  833MOL0     H12404   9.435   3.231  11.836 -0.2847 -0.8184 -0.2463
  833MOL0     H12405   9.285   3.308  11.893  2.1020  0.5690  0.9674
  833MOL0     H12406   9.447   2.950  11.944 -0.0294 -0.3416  0.5534
  833MOL0     H12407   9.458   2.846  12.240 -0.0769 -0.6870  2.8592
  833MOL0     H12408   9.300   2.892  12.306  0.7577  2.4626 -0.6838
  833MOL0     H12409   9.193   2.736  12.129  0.0132 -2.0321  1.0515
  833MOL0     H12410   9.356   2.702  12.072 -0.7447 -3.7390  0.7926
  833MOL0     H12411   9.284   2.635  12.359 -0.8378 -3.0136 -0.1735
  833MOL0     H12412   9.417   2.579  12.268 -0.2637 -1.0520 -0.2512
  833MOL0     H12413   9.234   2.472  12.111 -2.1633 -1.2831 -0.1532
  833MOL0     H12414   9.120   2.552  12.211 -1.0064  0.4623  1.1866
  833MOL0     H12415   9.188   2.177  12.429  1.0283 -1.2742  1.2007
  833MOL0     H12416   9.314   1.970  12.405 -0.3038 -1.3034 -1.1086
  833MOL0     H12417   9.897   1.998  12.116  1.5668 -0.9404 -0.4072
  833MOL0     H12418  10.091   1.853  12.118 -1.3305 -0.3171 -2.4340
  833MOL0     H12419  10.044   1.592  12.449 -1.3368 -0.7125 -0.3572
  833MOL0     H12420  10.190   1.520  12.389 -0.2767  1.1129 -1.3147
  833MOL0     H12421  10.144   1.816  12.375  0.0752 -0.5108 -2.3963
  833MOL0     H12422  10.167   1.754  12.530  1.3339  0.0399  0.9315
  833MOL0     H12423  10.387   1.762  12.513  0.0047  1.5686 -0.6963
  833MOL0     H12424  10.389   1.625  12.407  0.0901  0.2164 -2.3624
  833MOL0     H12425  10.401   1.911  12.328  1.5291  0.0011  0.9921
  833MOL0     H12426  10.349   1.782  12.214 -0.6154  1.3054 -0.2955
  833MOL0     H12427  10.579   1.676  12.237  1.6801 -0.1655  1.2110
  833MOL0     H12428  10.593   1.780  12.380 -2.0472  3.8709  0.7208
  833MOL0     H12429  10.569   1.900  12.098  0.0541  0.1450 -0.3511
  833MOL0     H12430  10.613   1.978  12.244 -0.1576  1.3538 -2.3828
  833MOL0     H12431  10.790   1.739  12.167  0.3911  1.3340 -1.1853
  833MOL0     H12432  10.816   1.865  12.281  0.9734  1.4266 -0.0774
  833MOL0     H12433  10.779   1.920  11.977  1.5731  3.2106 -0.7357
  833MOL0     H12434  10.833   2.035  12.096  0.0283  0.0326  2.3648
  833MOL0     H12435   9.843   1.552  12.309 -3.3475 -1.0726 -1.8942
  833MOL0     H12436   9.665   1.690  12.307  0.0024 -1.5317 -0.1906
  833MOL0     H12437   9.585   2.169  12.143  0.5310 -1.7460  0.1781
  833MOL0     H12438   9.448   2.378  12.159  1.3516  0.0189 -0.7441
  833MOL0     H12439   8.735   3.320  11.231 -0.5793  1.0317 -0.1499
  833MOL0     H12440   8.487   3.358  11.193 -0.1115  0.2038  2.3729
  833MOL0     H12441   8.159   3.296  10.874  2.6924  1.8009  2.0971
  833MOL0     H12442   7.935   3.337  10.803  1.0695  0.9758  0.3521
  833MOL0     H12443   7.729   3.261  10.780 -1.0102  1.3473 -3.1235
  833MOL0     H12444   7.725   3.433  10.789  2.3677 -1.1044 -0.1855
  833MOL0     H12445   7.496   3.247  10.859  1.0474  0.6961  1.8879
  833MOL0     H12446   7.540   3.307  10.690  3.0901  1.4639 -0.0036
  833MOL0     H12447   7.514   3.535  10.776 -0.0029 -0.8920 -1.2982
  833MOL0     H12448   7.435   3.460  10.928  1.8532  0.5119  0.4749
  833MOL0     H12449   7.328   3.411  10.651 -0.1056 -2.8137  0.6935
  833MOL0     H12450   7.267   3.351  10.800  1.1793 -1.3339 -1.9841
  833MOL0     H12451   7.084   3.721  10.868  1.6873  1.8537 -0.8912
  833MOL0     H12452   7.790   3.258  11.203 -0.0114 -1.8972  0.0206
  833MOL0     H12453   8.076   3.299  11.370  1.5718 -1.0344  0.4357
  833MOL0     H12454   7.930   3.205  11.363  0.5263  0.1043  2.0694
  833MOL0     H12455   8.082   3.126  11.355 -1.6897 -1.2209 -1.0213
  834MOL0     O12456   5.797   2.441  10.062  0.1802 -0.4069 -0.0028
  834MOL0     C12457   5.738   2.439  10.169  0.2951 -0.3238 -0.1658
  834MOL0     O12458   5.791   2.434  10.299 -0.3217 -0.1037  0.0550
  834MOL0     C12459   5.930   2.417  10.314 -0.1358 -0.6793  0.0005
  834MOL0     C12460   5.990   2.494  10.410 -0.0704 -0.3166  0.3028
  834MOL0     C12461   6.130   2.496  10.428 -0.5638  0.7730  0.1763
  834MOL0     C12462   6.209   2.409  10.358  0.0662 -0.8367  0.9507
  834MOL0     O12463   6.343   2.411  10.376  0.5253  0.0954 -0.0554
  834MOL0     C12464   6.415   2.535  10.333  0.0938 -0.3856  0.2599
  834MOL0     C12465   6.561   2.524  10.384 -0.0220  0.6346 -0.6063
  834MOL0     C12466   6.664   2.626  10.326  0.2736  0.6031  0.0252
  834MOL0     C12467   6.655   2.638  10.174 -0.4940 -0.4994  0.0904
  834MOL0     C12468   6.782   2.715  10.133  0.3450  0.3764  0.0428
  834MOL0     C12469   6.793   2.719   9.977  0.8790 -0.7455  0.1256
  834MOL0     C12470   6.936   2.768   9.934  0.8227  0.7111  0.3881
  834MOL0     C12471   6.952   2.767   9.789 -0.8029 -0.4154  0.2873
  834MOL0     N12472   7.096   2.771   9.748  0.8672 -0.5162  0.5277
  834MOL0     C12473   7.168   2.684   9.671  0.3841  0.0228  0.6752
  834MOL0     C12474   7.293   2.725   9.660 -0.8558 -0.3370 -0.0012
  834MOL0     C12475   7.407   2.665   9.587  0.5238  0.7648  0.4120
  834MOL0     C12476   7.515   2.609   9.671 -1.1016 -0.0714  0.3333
  834MOL0     C12477   7.590   2.713   9.746 -0.4463 -0.5698  0.2812
  834MOL0     C12478   7.713   2.666   9.823  0.4634  0.8481 -0.0363
  834MOL0     O12479   7.805   2.640   9.713 -0.4933  0.0735  0.0627
  834MOL0     C12480   7.907   2.540   9.709  1.0209 -0.2477  0.1217
  834MOL0     C12481   7.979   2.523   9.592 -0.2649 -0.4853  0.4556
  834MOL0     C12482   8.093   2.444   9.575 -0.0768  0.4093 -0.1433
  834MOL0     C12483   8.120   2.350   9.676 -0.2901 -0.0896 -0.6030
  834MOL0     C12484   8.225   2.249   9.676 -0.3606  0.0773  0.5364
  834MOL0     O12485   8.310   2.267   9.582 -0.0277  0.1631 -0.3187
  834MOL0     C12486   8.408   2.173   9.578  0.2302  0.2104 -0.4460
  834MOL0     C12487   8.513   2.169   9.672 -0.3394  0.1491  0.2285
  834MOL0     C12488   8.609   2.064   9.666 -0.5658 -0.2298  0.2255
  834MOL0     C12489   8.610   1.978   9.552  0.1693 -0.1422  0.8406
  834MOL0     O12490   8.702   1.874   9.547  0.3771  0.3156 -0.0614
  834MOL0     C12491   8.656   1.755   9.481  0.0726  0.2935  0.6004
  834MOL0     C12492   8.753   1.645   9.505 -0.7976  1.1397 -0.1127
  834MOL0     C12493   8.789   1.612   9.653  0.7044 -1.0690 -0.2508
  834MOL0     C12494   8.670   1.535   9.705  0.1830  0.0900  0.1245
  834MOL0     C12495   8.694   1.483   9.853 -0.5868  0.9485 -0.2083
  834MOL0     C12496   8.802   1.373   9.869  0.3774 -0.5201 -0.1302
  834MOL0     C12497   8.804   1.289   9.995  0.5715 -0.3330 -0.2808
  834MOL0     C12498   8.918   1.185   9.990  0.3446 -0.8457 -1.0903
  834MOL0    Cl12499   8.887   1.052   9.871 -0.4003  0.0171 -0.4986
  834MOL0     C12500   8.511   1.998   9.454  0.5521 -0.0309  0.0465
  834MOL0     C12501   8.409   2.089   9.469 -0.0986 -0.0550 -0.4717
  834MOL0     O12502   8.226   2.158   9.762 -0.5135  0.3142  0.1755
  834MOL0     C12503   8.038   2.360   9.793 -0.5266  0.2991 -0.7989
  834MOL0     C12504   7.936   2.449   9.809  0.6260 -0.5754  0.2526
  834MOL0     N12505   7.300   2.850   9.722  0.3390 -0.1405  0.3917
  834MOL0     N12506   7.184   2.872   9.783 -0.2275 -0.2758  0.0008
  834MOL0     C12507   6.152   2.318  10.262  0.9683 -0.2473  0.3370
  834MOL0     C12508   6.010   2.325  10.242  0.0522 -0.0170 -0.5873
  834MOL0     C12509   5.582   2.478  10.165  0.2608  0.1431 -0.6471
  834MOL0     C12510   5.538   2.520  10.043 -0.2381  0.6435 -0.0559
  834MOL0     C12511   5.401   2.560  10.029 -0.1540 -0.4657 -0.9805
  834MOL0     C12512   5.311   2.555  10.133 -1.1120  0.4482  0.2324
  834MOL0     O12513   5.180   2.599  10.108 -0.6807  0.5984  0.4599
  834MOL0     C12514   5.076   2.552  10.199  0.4759 -0.2049 -0.1019
  834MOL0     C12515   4.945   2.631  10.178 -0.3629 -0.5943  0.4593
  834MOL0     C12516   4.946   2.779  10.204  0.8716  0.0632  0.0937
  834MOL0     C12517   4.815   2.845  10.171  1.2804  0.1132  0.3768
  834MOL0     C12518   4.721   2.798  10.275  0.3898 -0.6517 -0.3367
  834MOL0     C12519   4.642   2.776  10.359 -0.6672  0.0374 -0.5912
  834MOL0     C12520   5.352   2.496  10.254 -0.0007  0.2369 -0.5653
  834MOL0     C12521   5.484   2.451  10.272  0.3908 -0.6402  0.3752
  834MOL0     C12522   5.525   2.384  10.398 -0.3804  0.5626 -0.0802
  834MOL0     H12523   5.929   2.571  10.456 -1.3875 -1.9857  1.4862
  834MOL0     H12524   6.181   2.567  10.493 -0.9774  1.0953  0.1530
  834MOL0     H12525   6.399   2.542  10.225 -3.6516 -2.7620  0.4702
  834MOL0     H12526   6.363   2.626  10.363  1.6343  0.4165  0.6180
  834MOL0     H12527   6.598   2.424  10.358  2.4936  0.8769  1.5785
  834MOL0     H12528   6.549   2.554  10.489 -2.6434  0.3148 -0.7602
  834MOL0     H12529   6.766   2.622  10.364  0.0344  1.9146  0.8647
  834MOL0     H12530   6.622   2.719  10.366 -2.2324 -0.4901  0.1527
  834MOL0     H12531   6.662   2.536  10.136 -1.8667 -0.3284 -0.7052
  834MOL0     H12532   6.565   2.693  10.142 -0.4852 -0.8373 -0.5394
  834MOL0     H12533   6.775   2.819  10.167 -0.6296 -0.3413  2.2254
  834MOL0     H12534   6.869   2.676  10.186 -0.9125  1.8593  3.4625
  834MOL0     H12535   6.777   2.622   9.929 -0.0912 -0.5821  0.1030
  834MOL0     H12536   6.720   2.793   9.943  0.5846  0.8407  3.6953
  834MOL0     H12537   7.010   2.702   9.979  1.1140 -2.4011 -4.0167
  834MOL0     H12538   6.945   2.874   9.959  0.8359  1.5640 -2.8445
  834MOL0     H12539   6.911   2.673   9.751 -1.7273  0.3680 -0.7069
  834MOL0     H12540   6.897   2.845   9.736 -0.8929 -1.3615 -1.0579
  834MOL0     H12541   7.138   2.589   9.628  1.5598  0.6569 -1.6880
  834MOL0     H12542   7.363   2.579   9.537 -0.3960  0.9997  0.7978
  834MOL0     H12543   7.442   2.730   9.507 -0.1402  0.4079 -0.1782
  834MOL0     H12544   7.473   2.548   9.751 -2.7811 -1.0523 -1.2433
  834MOL0     H12545   7.576   2.549   9.603 -0.6001  2.0250 -1.1845
  834MOL0     H12546   7.525   2.758   9.821 -1.8116  0.5476 -1.5209
  834MOL0     H12547   7.625   2.793   9.681 -1.7411  0.5943  0.9809
  834MOL0     H12548   7.678   2.579   9.879 -1.7596  0.7530 -1.4193
  834MOL0     H12549   7.754   2.746   9.886  1.4887 -0.6642  1.2745
  834MOL0     H12550   7.945   2.592   9.516  0.5698  0.5943  1.0138
  834MOL0     H12551   8.151   2.430   9.484 -2.1853 -3.9041 -1.0946
  834MOL0     H12552   8.531   2.253   9.738 -0.2616  2.8703 -2.9606
  834MOL0     H12553   8.683   2.060   9.746 -0.8000 -2.8087  0.3897
  834MOL0     H12554   8.552   1.737   9.509  0.4714  1.3517  3.0494
  834MOL0     H12555   8.658   1.765   9.372 -1.0962  1.1484  0.6323
  834MOL0     H12556   8.696   1.562   9.461 -0.1319  0.7814 -0.3226
  834MOL0     H12557   8.840   1.652   9.439  1.3918 -3.3613  1.8633
  834MOL0     H12558   8.871   1.540   9.649  0.9210 -0.7939 -0.9306
  834MOL0     H12559   8.802   1.704   9.710 -1.8976 -0.9496  0.2668
  834MOL0     H12560   8.641   1.449   9.644 -2.6766  1.4357 -0.6011
  834MOL0     H12561   8.583   1.601   9.696 -2.0087 -2.9012 -3.3771
  834MOL0     H12562   8.598   1.452   9.894 -0.1186  1.5829  1.4389
  834MOL0     H12563   8.722   1.567   9.917  0.2329  2.2653 -2.1905
  834MOL0     H12564   8.785   1.306   9.784 -0.8278 -1.1534  0.6028
  834MOL0     H12565   8.897   1.427   9.857  1.2543 -1.8950  0.3692
  834MOL0     H12566   8.707   1.239   9.992  1.4808 -2.1597 -2.4347
  834MOL0     H12567   8.808   1.350  10.086  1.0932 -2.7452  1.4267
  834MOL0     H12568   9.015   1.234   9.975 -0.0603  2.2984  4.0759
  834MOL0     H12569   8.931   1.133  10.085 -2.7828 -3.0001 -1.6849
  834MOL0     H12570   8.503   1.926   9.373  0.2255 -1.3008  1.1682
  834MOL0     H12571   8.329   2.086   9.395 -1.1267 -0.6742  0.6398
  834MOL0     H12572   8.053   2.282   9.867 -1.2136 -2.2557 -3.1807
  834MOL0     H12573   7.881   2.452   9.902  3.8485 -2.0994  2.4001
  834MOL0     H12574   6.206   2.250  10.196  2.0972  1.5247 -0.6380
  834MOL0     H12575   5.959   2.254  10.177  1.7693 -1.5954 -0.3051
  834MOL0     H12576   5.602   2.517   9.955  2.2671 -0.6534  1.6791
  834MOL0     H12577   5.369   2.615   9.941  0.4383  0.6246 -0.5312
  834MOL0     H12578   5.118   2.580  10.296  0.3413  1.8273 -0.5785
  834MOL0     H12579   5.064   2.444  10.192  0.8495 -0.2432 -0.1509
  834MOL0     H12580   4.871   2.589  10.248 -2.6920  0.8787 -0.9832
  834MOL0     H12581   4.914   2.615  10.074  0.9419  0.8790 -0.1901
  834MOL0     H12582   5.026   2.828  10.148  0.8730  0.1313  0.1557
  834MOL0     H12583   4.971   2.804  10.307  1.5592  0.9185 -0.2701
  834MOL0     H12584   4.824   2.953  10.162 -0.5743  0.3488  1.0155
  834MOL0     H12585   4.777   2.810  10.074  0.0800  2.0196  0.1232
  834MOL0     H12586   4.567   2.749  10.430 -0.8736 -2.5004 -1.6896
  834MOL0     H12587   5.271   2.468  10.321  0.4407 -1.2242 -0.6121
  834MOL0     H12588   5.443   2.376  10.470  0.5250 -0.7065  0.8560
  834MOL0     H12589   5.575   2.289  10.376  2.1963  2.0737 -1.1785
  834MOL0     H12590   5.606   2.440  10.444  0.1480 -1.7629  2.0402
  835MOL0     O12591  11.255  10.221   9.593 -0.2842  0.5140 -0.5415
  835MOL0     C12592  11.289  10.155   9.694  0.4063 -0.7157 -0.5347
  835MOL0     O12593  11.413  10.158   9.756 -0.0615 -0.8629 -0.0210
  835MOL0     C12594  11.526  10.223   9.712 -0.8761  0.4942 -0.3890
  835MOL0     C12595  11.608  10.261   9.819 -0.4997  0.0989  0.7033
  835MOL0     C12596  11.715  10.333   9.792 -0.4551 -0.5453  0.4607
  835MOL0     C12597  11.759  10.347   9.660  0.4854  0.7714 -0.2567
  835MOL0     O12598  11.883  10.399   9.645 -0.0180  0.2133 -0.1164
  835MOL0     C12599  11.996  10.319   9.685  0.5719 -0.0635  0.2931
  835MOL0     C12600  12.124  10.325   9.590  0.6059  0.4404 -0.5324
  835MOL0     C12601  12.176  10.469   9.610  0.3474 -0.5415 -0.4257
  835MOL0     C12602  12.226  10.528   9.477  0.1010  0.7421 -0.9640
  835MOL0     C12603  12.286  10.664   9.484 -0.3871 -0.1255 -0.5591
  835MOL0     C12604  12.420  10.676   9.561 -0.1400  0.1761  0.2660
  835MOL0     C12605  12.471  10.819   9.572 -0.5419 -0.9585 -0.4399
  835MOL0     C12606  12.622  10.823   9.601 -0.5714  0.1743 -0.1428
  835MOL0     N12607  12.693  10.943   9.545  0.5796  0.5563 -0.7314
  835MOL0     C12608  12.696  10.978   9.414 -1.0072 -0.2717  1.4294
  835MOL0     C12609  12.725  11.113   9.416 -0.0150  0.1580  0.6046
  835MOL0     C12610  12.767  11.211   9.303  0.2323  0.0234 -0.6616
  835MOL0     C12611  12.906  11.262   9.331 -0.6477 -0.2125 -0.0976
  835MOL0     C12612  13.008  11.150   9.369 -0.2071  0.2283 -0.4294
  835MOL0     C12613  13.159  11.204   9.365 -0.0279  0.6011 -0.3567
  835MOL0     O12614  13.247  11.103   9.429  0.4230 -0.2754  0.1956
  835MOL0     C12615  13.376  11.123   9.447  0.4276  0.3379  0.0039
  835MOL0     C12616  13.448  11.230   9.386  0.4675  0.2957  0.2784
  835MOL0     C12617  13.586  11.232   9.406 -0.5518 -0.8877 -0.3415
  835MOL0     C12618  13.657  11.145   9.490  0.1734  0.0402 -0.6535
  835MOL0     C12619  13.804  11.143   9.498  0.2509 -0.1645 -1.0355
  835MOL0     O12620  13.864  11.025   9.529 -0.2352  0.3786  0.5558
  835MOL0     C12621  14.000  10.997   9.516 -0.0574 -1.3056  0.0800
  835MOL0     C12622  14.108  11.086   9.523 -0.5263  0.1944 -0.6111
  835MOL0     C12623  14.236  11.035   9.517 -0.9751 -1.0961 -0.2010
  835MOL0     C12624  14.258  10.907   9.479  0.8033  0.9250  0.0383
  835MOL0     O12625  14.382  10.860   9.446  0.1780  0.3128  0.1020
  835MOL0     C12626  14.477  10.857   9.549 -0.4419 -0.5886  0.2866
  835MOL0     C12627  14.621  10.867   9.491  0.5060  0.5266 -0.4357
  835MOL0     C12628  14.677  10.736   9.442  0.0041 -0.8348 -0.0151
  835MOL0     C12629  14.817  10.765   9.380 -0.1508  0.4310 -0.1611
  835MOL0     C12630  14.878  10.631   9.344  0.8358  0.4035 -0.4906
  835MOL0     C12631  14.989  10.621   9.238 -0.3021  0.0544 -0.3550
  835MOL0     C12632  15.105  10.710   9.272  0.5328 -0.1080  0.2651
  835MOL0     C12633  15.205  10.705   9.158 -0.2627 -1.0425  0.6205
  835MOL0    Cl12634  15.337  10.830   9.192  0.0949 -0.5645 -0.2397
  835MOL0     C12635  14.149  10.820   9.458 -0.0303 -0.2067  0.8476
  835MOL0     C12636  14.022  10.862   9.481 -0.4364 -0.0404  0.2011
  835MOL0     O12637  13.857  11.254   9.491  0.2920  0.0584  0.7322
  835MOL0     C12638  13.583  11.039   9.548  0.0334  0.1139 -0.1140
  835MOL0     C12639  13.446  11.030   9.524 -0.0078 -0.3152  0.3753
  835MOL0     N12640  12.729  11.151   9.551 -0.7976  0.3156  1.5227
  835MOL0     N12641  12.709  11.050   9.622 -0.5510 -0.6199 -0.3605
  835MOL0     C12642  11.688  10.295   9.554 -0.0835  0.0744  0.4055
  835MOL0     C12643  11.557  10.245   9.573  0.2351 -0.0714 -0.6028
  835MOL0     C12644  11.176  10.072   9.758  0.0861 -0.2624  0.3025
  835MOL0     C12645  11.086  10.000   9.677 -0.2493  0.0521 -0.3083
  835MOL0     C12646  10.998   9.907   9.731 -0.1990  0.0564  0.0233
  835MOL0     C12647  10.988   9.881   9.862 -0.1053  0.0866 -0.5439
  835MOL0     O12648  10.899   9.799   9.933 -0.3992 -0.4755  0.5483
  835MOL0     C12649  10.836   9.690   9.860  0.3456  0.3824  0.0389
  835MOL0     C12650  10.704   9.727   9.799  0.4923 -0.0853  0.6409
  835MOL0     C12651  10.642   9.627   9.702 -0.2443  0.8094  0.2335
  835MOL0     C12652  10.581   9.502   9.767 -0.6186 -0.5953  0.1975
  835MOL0     C12653  10.458   9.546   9.833 -0.1164  0.1931  0.4528
  835MOL0     C12654  10.358   9.588   9.889 -0.1862 -0.0574  0.3575
  835MOL0     C12655  11.072   9.957   9.945  0.2126  0.4762 -0.4403
  835MOL0     C12656  11.165  10.056   9.896  0.0709 -0.2376  0.9759
  835MOL0     C12657  11.248  10.140   9.993  0.1296 -0.5740  0.0730
  835MOL0     H12658  11.576  10.234   9.919 -2.4028  0.7503  0.3181
  835MOL0     H12659  11.786  10.367   9.867 -0.9840  0.6851  0.4154
  835MOL0     H12660  12.037  10.361   9.777  2.6077  2.1314 -1.4738
  835MOL0     H12661  11.968  10.213   9.693 -3.5562  0.6599 -1.6323
  835MOL0     H12662  12.097  10.314   9.484 -0.4345  1.0201 -0.3330
  835MOL0     H12663  12.201  10.250   9.609  1.7496  2.1185  2.0114
  835MOL0     H12664  12.258  10.459   9.681  0.5921  4.2602  0.2408
  835MOL0     H12665  12.107  10.543   9.650  0.4872  0.3177 -1.7066
  835MOL0     H12666  12.304  10.462   9.437  0.5968  0.4325  0.4493
  835MOL0     H12667  12.140  10.517   9.411  0.1660 -0.0944 -0.9302
  835MOL0     H12668  12.305  10.685   9.378  1.4006  1.2861 -0.0305
  835MOL0     H12669  12.200  10.715   9.528  1.5768  0.3840  3.1198
  835MOL0     H12670  12.414  10.643   9.665  0.9417 -0.3306  0.1742
  835MOL0     H12671  12.484  10.608   9.504  0.2000  0.8722 -0.1983
  835MOL0     H12672  12.409  10.875   9.641  1.8068  1.4889 -0.1448
  835MOL0     H12673  12.454  10.866   9.475  3.0800 -1.8811 -1.6871
  835MOL0     H12674  12.645  10.819   9.708  2.2166 -0.7379 -0.6894
  835MOL0     H12675  12.676  10.737   9.560  3.3144  1.3450  1.9984
  835MOL0     H12676  12.682  10.915   9.327  2.3305  1.3802 -0.4920
  835MOL0     H12677  12.762  11.161   9.206 -0.7354  1.6295 -1.4834
  835MOL0     H12678  12.693  11.291   9.304 -1.8185 -1.7536  0.7750
  835MOL0     H12679  12.937  11.314   9.239 -1.4630  0.2720 -0.1047
  835MOL0     H12680  12.904  11.337   9.411 -0.9627  0.7146 -0.9481
  835MOL0     H12681  13.006  11.064   9.301  1.6458 -0.5233  0.4037
  835MOL0     H12682  12.976  11.113   9.466  0.0832 -3.2722 -1.5305
  835MOL0     H12683  13.165  11.304   9.409 -1.0656  1.4147 -1.9566
  835MOL0     H12684  13.183  11.216   9.259 -0.2120 -0.4101 -0.5288
  835MOL0     H12685  13.405  11.301   9.316  1.9850  2.2391  1.2185
  835MOL0     H12686  13.647  11.308   9.357  0.3433 -0.7997  0.8563
  835MOL0     H12687  14.090  11.192   9.541 -3.3990  0.0647 -1.9981
  835MOL0     H12688  14.318  11.105   9.525 -1.2348 -0.1425 -3.8925
  835MOL0     H12689  14.455  10.950   9.602 -0.7709  2.1209 -4.0942
  835MOL0     H12690  14.477  10.770   9.615 -0.5875  0.6098  1.9029
  835MOL0     H12691  14.617  10.946   9.416 -3.2987 -0.4136 -1.4566
  835MOL0     H12692  14.682  10.900   9.575 -0.5504  0.1590  0.5125
  835MOL0     H12693  14.684  10.671   9.529  1.2109 -1.6539 -0.6860
  835MOL0     H12694  14.606  10.692   9.371 -0.4028 -1.4057  0.7410
  835MOL0     H12695  14.879  10.819   9.452  1.1394  0.4340 -1.2310
  835MOL0     H12696  14.806  10.824   9.289 -0.8338  0.0297 -0.3493
  835MOL0     H12697  14.797  10.572   9.302  1.1207  1.1819 -2.2271
  835MOL0     H12698  14.905  10.586   9.439 -1.3246  2.8685  1.4501
  835MOL0     H12699  15.024  10.518   9.234 -0.2015  0.1196 -1.7304
  835MOL0     H12700  14.943  10.654   9.144  0.5089  0.2469 -0.6947
  835MOL0     H12701  15.146  10.669   9.365  1.7903  0.4950  0.0053
  835MOL0     H12702  15.068  10.813   9.279  3.5542  1.0703  0.5810
  835MOL0     H12703  15.239  10.605   9.134 -3.1538 -1.4843 -2.3035
  835MOL0     H12704  15.152  10.726   9.065  1.2940 -1.6948 -0.4394
  835MOL0     H12705  14.171  10.717   9.433 -0.4483  0.2871 -1.9450
  835MOL0     H12706  13.933  10.799   9.480 -0.1957 -0.4737  2.1558
  835MOL0     H12707  13.626  10.960   9.608 -0.9581 -2.1349 -2.2072
  835MOL0     H12708  13.401  10.943   9.570 -0.6471 -0.2423 -0.1043
  835MOL0     H12709  11.736  10.314   9.459 -0.0082  1.9926  0.7837
  835MOL0     H12710  11.486  10.220   9.495 -2.4010 -4.0669  2.6998
  835MOL0     H12711  11.082  10.009   9.569 -1.8119 -1.9470 -0.4740
  835MOL0     H12712  10.921   9.856   9.673 -1.0051 -1.3686  2.2385
  835MOL0     H12713  10.813   9.611   9.931  0.0303  0.0477 -0.4270
  835MOL0     H12714  10.919   9.645   9.804  0.8742 -1.2228  1.9954
  835MOL0     H12715  10.701   9.826   9.753  2.1410 -0.1909  0.2209
  835MOL0     H12716  10.632   9.736   9.880 -0.9750 -1.2170 -0.4759
  835MOL0     H12717  10.719   9.596   9.632  2.1360  1.8324  2.2594
  835MOL0     H12718  10.566   9.675   9.639 -1.4257 -0.5874  0.5379
  835MOL0     H12719  10.550   9.429   9.692 -0.8312  0.7511 -1.0763
  835MOL0     H12720  10.660   9.467   9.833  1.6747  0.3216 -1.9205
  835MOL0     H12721  10.266   9.621   9.934  0.1406  0.5149  0.6290
  835MOL0     H12722  11.063   9.947  10.053  2.0254  1.2273 -0.1905
  835MOL0     H12723  11.194  10.153  10.088 -1.5157  0.4287 -0.9603
  835MOL0     H12724  11.338  10.085  10.024 -1.3365 -2.9573  0.3895
  835MOL0     H12725  11.264  10.240   9.953 -1.0855 -0.4105 -0.0364
  836MOL0     O12726   2.202  10.540   0.076  0.3998  0.6441  0.4789
  836MOL0     C12727   2.158  10.432   0.121 -0.0586 -0.6449  0.2541
  836MOL0     O12728   2.237  10.319   0.140  0.2350  0.1200 -0.3535
  836MOL0     C12729   2.378  10.337   0.133  0.4052 -0.3846 -0.7028
  836MOL0     C12730   2.452  10.242   0.053  0.8952 -0.7133 -0.5997
  836MOL0     C12731   2.585  10.259   0.043  0.4560  0.2898  0.2830
  836MOL0     C12732   2.660  10.366   0.100  0.1825  0.2228  0.6701
  836MOL0     O12733   2.794  10.406   0.073  0.9850  0.0524 -0.1896
  836MOL0     C12734   2.873  10.302   0.014 -0.1363 -0.7134  1.2007
  836MOL0     C12735   3.024  10.331   0.026 -0.2514  0.6993 -0.1350
  836MOL0     C12736   3.108  10.241  -0.060 -0.1040 -0.3959  0.6476
  836MOL0     C12737   3.156  10.105   0.009 -0.0831 -0.1376 -0.0399
  836MOL0     C12738   3.290  10.066  -0.041  0.0581  0.6869  0.0170
  836MOL0     C12739   3.328   9.930   0.024  0.8415  0.5273 -0.2095
  836MOL0     C12740   3.468   9.879   0.008 -0.0189 -0.4864  0.6480
  836MOL0     C12741   3.501   9.838  -0.139  0.0979 -0.5166 -0.6467
  836MOL0     N12742   3.638   9.803  -0.168 -0.7036  0.2515  0.1790
  836MOL0     C12743   3.697   9.849  -0.292 -0.1378  0.1039  0.1882
  836MOL0     C12744   3.820   9.801  -0.288 -0.7404  0.3361 -0.2547
  836MOL0     C12745   3.921   9.828  -0.397  0.2583 -0.2414 -0.1884
  836MOL0     C12746   4.056   9.887  -0.351 -0.4803 -0.1641 -0.4682
  836MOL0     C12747   4.133   9.778  -0.260  0.6606  0.2992 -0.0541
  836MOL0     C12748   4.273   9.815  -0.245  0.8436 -0.3141  0.3703
  836MOL0     O12749   4.353   9.713  -0.202 -0.2631  0.3957 -1.0657
  836MOL0     C12750   4.483   9.740  -0.168  0.9013  1.7567 -0.6486
  836MOL0     C12751   4.548   9.630  -0.124 -0.8226 -0.0660  0.3477
  836MOL0     C12752   4.686   9.628  -0.094 -0.0595 -0.0489 -0.2740
  836MOL0     C12753   4.763   9.746  -0.128 -0.6733 -0.8315  0.3520
  836MOL0     C12754   4.911   9.743  -0.119  0.3307 -0.6218 -0.3988
  836MOL0     O12755   4.968   9.866  -0.114 -0.3636  0.0305 -0.0929
  836MOL0     C12756   5.098   9.850  -0.093 -0.4087 -0.3510 -0.8808
  836MOL0     C12757   5.150   9.873   0.037  0.0488 -0.0157  0.1792
  836MOL0     C12758   5.284   9.863   0.063 -1.2439 -0.6583  0.0233
  836MOL0     C12759   5.373   9.845  -0.043 -0.5210 -0.3892  0.4396
  836MOL0     O12760   5.507   9.842  -0.011 -0.0307 -0.6009 -0.4319
  836MOL0     C12761   5.610   9.843  -0.106 -0.5582 -0.1396  0.6095
  836MOL0     C12762   5.742   9.903  -0.045 -0.2557  0.6576  0.8509
  836MOL0     C12763   5.760  10.059  -0.067  0.7486 -0.6632 -0.1259
  836MOL0     C12764   5.813  10.146   0.054 -0.3127 -0.2122 -0.0955
  836MOL0     C12765   5.886  10.279   0.000 -0.4715  0.1046  0.1389
  836MOL0     C12766   6.027  10.261  -0.044  0.4222  0.2015 -0.0655
  836MOL0     C12767   6.134  10.273   0.064 -0.2014  0.1125  0.5624
  836MOL0     C12768   6.269  10.231   0.004 -0.1874  0.2063  0.3971
  836MOL0    Cl12769   6.334  10.353  -0.119  0.3370 -0.0532 -0.3344
  836MOL0     C12770   5.320   9.831  -0.175 -0.3384  0.3041 -0.5274
  836MOL0     C12771   5.187   9.831  -0.203 -0.2328 -0.0073  0.3282
  836MOL0     O12772   4.968   9.637  -0.104  0.1630 -0.5897 -0.7078
  836MOL0     C12773   4.699   9.856  -0.176  0.5241  0.7683 -0.3048
  836MOL0     C12774   4.558   9.851  -0.202  0.0735  0.5032 -0.2414
  836MOL0     N12775   3.834   9.734  -0.172  0.0053 -0.4964 -0.5406
  836MOL0     N12776   3.724   9.725  -0.100 -0.3948  0.5241 -0.1267
  836MOL0     C12777   2.593  10.455   0.179  0.1167  0.4955  0.2577
  836MOL0     C12778   2.450  10.443   0.198  0.0275  0.4741 -0.6364
  836MOL0     C12779   2.006  10.431   0.141  0.4870 -0.3021 -0.8609
  836MOL0     C12780   1.924  10.523   0.071 -0.8381  0.2191 -0.1382
  836MOL0     C12781   1.790  10.528   0.082 -0.4160 -0.3789  0.1027
  836MOL0     C12782   1.731  10.440   0.169  0.2238  0.9334 -0.0517
  836MOL0     O12783   1.597  10.433   0.200 -0.2605  0.2289  0.3235
  836MOL0     C12784   1.507  10.440   0.086 -0.1395 -0.2885  0.6431
  836MOL0     C12785   1.368  10.380   0.102  0.9530  0.1883 -0.4926
  836MOL0     C12786   1.286  10.460   0.205 -0.2843 -0.5617  0.1096
  836MOL0     C12787   1.150  10.393   0.226 -0.7041 -0.6303  0.5586
  836MOL0     C12788   1.110  10.405   0.368 -0.4743 -0.5560  0.1437
  836MOL0     C12789   1.067  10.414   0.481  0.2273 -0.6108  1.1695
  836MOL0     C12790   1.805  10.351   0.240 -0.4553 -0.3998  0.2366
  836MOL0     C12791   1.937  10.345   0.232  0.2861 -0.3601 -0.0693
  836MOL0     C12792   2.017  10.254   0.309 -0.2630 -0.3688 -0.1456
  836MOL0     H12793   2.417  10.159  -0.007 -0.2318 -0.2412 -0.6185
  836MOL0     H12794   2.638  10.196  -0.028 -1.3289  0.3544 -1.1961
  836MOL0     H12795   2.862  10.204   0.062  2.3840  0.4655  4.5945
  836MOL0     H12796   2.849  10.304  -0.093  0.7419  1.0648  1.0091
  836MOL0     H12797   3.052  10.326   0.131  1.5217  4.6541 -0.2426
  836MOL0     H12798   3.040  10.433  -0.008  1.8129  1.3813  2.6048
  836MOL0     H12799   3.193  10.309  -0.070  0.7333 -0.8476  3.7714
  836MOL0     H12800   3.051  10.218  -0.151  0.7275 -3.5400  0.8103
  836MOL0     H12801   3.164  10.116   0.118 -1.1405 -1.9711  0.2566
  836MOL0     H12802   3.085  10.027  -0.016 -0.7969  0.7124 -0.7296
  836MOL0     H12803   3.291  10.056  -0.150  0.3082 -0.3726  0.1058
  836MOL0     H12804   3.360  10.142  -0.004 -1.0454  2.0610 -0.6068
  836MOL0     H12805   3.300   9.921   0.129 -2.4171 -2.0610 -1.1310
  836MOL0     H12806   3.261   9.853  -0.015 -1.1432  1.7738  0.6027
  836MOL0     H12807   3.483   9.785   0.062  1.0074  0.0618  1.3481
  836MOL0     H12808   3.527   9.958   0.054 -1.7272  1.6648 -0.6656
  836MOL0     H12809   3.432   9.760  -0.172 -1.3563  1.4494 -2.6086
  836MOL0     H12810   3.472   9.926  -0.199  0.6067  0.1115  0.0154
  836MOL0     H12811   3.654   9.926  -0.356  0.0797 -0.2483 -0.3879
  836MOL0     H12812   3.938   9.748  -0.470  2.0755  0.8305 -1.0235
  836MOL0     H12813   3.880   9.907  -0.460 -0.0760 -0.5306 -0.3365
  836MOL0     H12814   4.125   9.906  -0.434  0.6784  0.2755  0.5774
  836MOL0     H12815   4.039   9.981  -0.298 -1.7522 -0.1138 -0.9399
  836MOL0     H12816   4.113   9.676  -0.291 -0.1012  0.5881 -0.5358
  836MOL0     H12817   4.092   9.797  -0.160  1.1647  0.4007  0.1378
  836MOL0     H12818   4.277   9.897  -0.173 -1.0448 -0.8104  1.1031
  836MOL0     H12819   4.301   9.851  -0.345 -1.2789 -1.2522 -0.6328
  836MOL0     H12820   4.498   9.538  -0.095  3.4051 -1.8401  2.9327
  836MOL0     H12821   4.729   9.534  -0.059 -1.4286 -1.3563 -1.9196
  836MOL0     H12822   5.088   9.891   0.125  0.5108  0.7184  0.3637
  836MOL0     H12823   5.332   9.870   0.160  0.1415  1.8266 -0.7552
  836MOL0     H12824   5.617   9.744  -0.153 -1.7947  1.4275 -3.3435
  836MOL0     H12825   5.583   9.910  -0.188  1.9582 -0.7169 -0.7982
  836MOL0     H12826   5.742   9.878   0.061  0.8975  0.1828  0.7487
  836MOL0     H12827   5.828   9.845  -0.080 -0.8613 -0.0042  0.4196
  836MOL0     H12828   5.832  10.079  -0.147  3.7656  2.5048  3.0175
  836MOL0     H12829   5.666  10.101  -0.104  1.9601 -0.7780 -3.8146
  836MOL0     H12830   5.882  10.086   0.114 -1.1961 -2.4844 -1.2235
  836MOL0     H12831   5.731  10.172   0.122 -1.0548 -1.4793 -0.4821
  836MOL0     H12832   5.888  10.355   0.079  0.3137  0.4885 -0.2417
  836MOL0     H12833   5.828  10.306  -0.088  1.2987 -0.1108 -1.1511
  836MOL0     H12834   6.028  10.163  -0.092  0.1941 -0.0797  0.4943
  836MOL0     H12835   6.041  10.340  -0.118 -0.4526  1.3642  0.9602
  836MOL0     H12836   6.120  10.201   0.145  0.0785 -1.0070 -0.3603
  836MOL0     H12837   6.133  10.372   0.111  1.5361 -0.4655  1.9446
  836MOL0     H12838   6.331  10.223   0.093  2.2297 -3.1535 -1.3920
  836MOL0     H12839   6.246  10.131  -0.033 -3.6977  0.5687  1.1823
  836MOL0     H12840   5.378   9.799  -0.261 -0.0313 -0.5044 -0.0280
  836MOL0     H12841   5.158   9.806  -0.305  3.0726  2.0564 -1.2723
  836MOL0     H12842   4.741   9.953  -0.198  0.3598  1.0567  0.6062
  836MOL0     H12843   4.509   9.940  -0.239  0.0226  1.2671  1.5271
  836MOL0     H12844   2.645  10.535   0.231  4.2902 -2.1958  0.7667
  836MOL0     H12845   2.387  10.504   0.262 -1.2324 -1.2726 -0.1434
  836MOL0     H12846   1.974  10.602   0.015  0.7193  0.6085  1.7065
  836MOL0     H12847   1.731  10.605   0.033 -1.9018 -1.7407 -0.3216
  836MOL0     H12848   1.553  10.394  -0.002 -0.8792  0.1188  0.0342
  836MOL0     H12849   1.492  10.544   0.058 -2.0387 -1.1955 -2.0489
  836MOL0     H12850   1.370  10.275   0.133  1.0512  0.7516  1.5743
  836MOL0     H12851   1.325  10.395   0.003  3.8933  0.3054 -1.8432
  836MOL0     H12852   1.278  10.559   0.158  1.2591 -0.5473 -0.1941
  836MOL0     H12853   1.352  10.463   0.292  0.0334 -2.0104 -0.0684
  836MOL0     H12854   1.071  10.440   0.167 -0.0171  2.1046  1.6657
  836MOL0     H12855   1.151  10.287   0.200  1.0273 -0.7044  0.8259
  836MOL0     H12856   1.006  10.412   0.569 -2.8426 -0.0715 -0.7876
  836MOL0     H12857   1.757  10.289   0.315  0.9857  0.0248  1.5484
  836MOL0     H12858   1.963  10.197   0.385 -0.7992  1.9154  1.2854
  836MOL0     H12859   2.058  10.179   0.241  2.6060  0.7815  0.1998
  836MOL0     H12860   2.110  10.292   0.352  1.4054 -3.8452 -0.3306
  837MOL0     O12861   6.617   6.331   9.972 -0.0838 -0.8048 -0.0947
  837MOL0     C12862   6.589   6.427  10.036  0.3629  0.0696 -0.9091
  837MOL0     O12863   6.614   6.438  10.171  0.1490 -0.7849 -0.9427
  837MOL0     C12864   6.712   6.358  10.226 -0.3538 -0.7740 -0.0315
  837MOL0     C12865   6.842   6.356  10.180  0.5954  0.4232  0.7199
  837MOL0     C12866   6.936   6.282  10.254 -0.3499  0.7117  0.2237
  837MOL0     C12867   6.888   6.200  10.361 -0.6325  0.0801  0.9303
  837MOL0     O12868   6.975   6.122  10.426 -0.6841  0.2502  0.1197
  837MOL0     C12869   7.099   6.178  10.477  0.7669  0.0379 -0.0638
  837MOL0     C12870   7.081   6.297  10.573 -0.0439 -0.6419  0.0308
  837MOL0     C12871   7.209   6.315  10.664 -0.2460  0.3227 -0.0728
  837MOL0     C12872   7.193   6.442  10.728 -0.0817  0.6817 -0.7785
  837MOL0     C12873   7.297   6.442  10.838 -0.5756 -0.3268 -0.1814
  837MOL0     C12874   7.439   6.479  10.783 -0.8067  0.4346 -0.6439
  837MOL0     C12875   7.543   6.507  10.896 -0.4392 -0.1205  0.8214
  837MOL0     C12876   7.675   6.572  10.841  1.0135  0.4405 -0.1427
  837MOL0     N12877   7.779   6.596  10.944  0.4802 -0.8743 -0.0770
  837MOL0     C12878   7.867   6.506  10.994 -0.6861  0.2604 -0.6178
  837MOL0     C12879   7.923   6.573  11.096  0.4581 -0.7325 -0.3604
  837MOL0     C12880   8.004   6.517  11.215 -1.4551  0.1467 -0.0274
  837MOL0     C12881   8.151   6.553  11.213 -0.0545 -1.2593  0.3479
  837MOL0     C12882   8.222   6.474  11.322  0.6279 -0.8664 -0.3401
  837MOL0     C12883   8.345   6.532  11.388 -0.3384 -0.1213  0.6637
  837MOL0     O12884   8.456   6.535  11.298 -0.4704  1.0022  0.4665
  837MOL0     C12885   8.578   6.563  11.357 -0.1420 -0.0990 -0.2568
  837MOL0     C12886   8.680   6.582  11.260 -0.1517 -0.7135 -0.2756
  837MOL0     C12887   8.813   6.614  11.297 -0.0572 -0.1259  0.5168
  837MOL0     C12888   8.843   6.631  11.430 -0.8603  0.4219  0.0718
  837MOL0     C12889   8.974   6.686  11.470 -0.3059 -0.5741  0.4909
  837MOL0     O12890   9.074   6.695  11.377 -0.2015  0.3268 -0.2529
  837MOL0     C12891   9.177   6.786  11.378  0.8193 -0.2122 -0.2361
  837MOL0     C12892   9.163   6.921  11.422 -0.4072 -0.8869  0.2244
  837MOL0     C12893   9.277   7.008  11.418 -0.7984  0.1322 -0.4478
  837MOL0     C12894   9.409   6.963  11.387  0.5931  0.5262  0.8411
  837MOL0     O12895   9.516   7.042  11.388  0.5423  0.4436 -0.6889
  837MOL0     C12896   9.522   7.160  11.461  0.0427 -0.1138  0.8276
  837MOL0     C12897   9.673   7.193  11.472 -0.4253 -0.3441 -1.2168
  837MOL0     C12898   9.749   7.092  11.561 -0.1484  0.3743 -0.1598
  837MOL0     C12899   9.871   7.162  11.639  0.8688 -0.4362  0.6420
  837MOL0     C12900   9.942   7.057  11.719 -0.2734 -0.0226 -0.4138
  837MOL0     C12901  10.069   7.121  11.788  0.3324  1.2475 -0.6183
  837MOL0     C12902  10.188   7.137  11.687 -0.4267  0.8187  0.1812
  837MOL0     C12903  10.316   7.175  11.763 -0.3367  0.1322  0.0507
  837MOL0    Cl12904  10.460   7.138  11.672  0.1068 -0.0572 -0.2811
  837MOL0     C12905   9.426   6.832  11.348 -0.2788 -0.0797  0.6170
  837MOL0     C12906   9.308   6.748  11.335  0.3359  0.5425  0.9567
  837MOL0     O12907   8.989   6.708  11.593  0.0025  0.2605 -0.5443
  837MOL0     C12908   8.742   6.603  11.525 -0.1756 -0.1062 -0.9956
  837MOL0     C12909   8.609   6.576  11.492  0.0745  0.6077  0.1324
  837MOL0     N12910   7.874   6.706  11.103 -0.2200  1.0186 -0.1714
  837MOL0     N12911   7.793   6.715  11.001 -1.0303  0.1761  0.1924
  837MOL0     C12912   6.751   6.199  10.391 -0.6397 -0.7100  0.0648
  837MOL0     C12913   6.662   6.277  10.326 -0.3351  1.2361  0.2327
  837MOL0     C12914   6.543   6.548   9.968 -0.3255 -0.0156  0.3283
  837MOL0     C12915   6.470   6.645  10.047  0.2276 -0.0733  0.1073
  837MOL0     C12916   6.418   6.762   9.986 -0.6772 -0.2602  0.3542
  837MOL0     C12917   6.431   6.784   9.849  0.1665 -0.1344  1.0360
  837MOL0     O12918   6.362   6.878   9.780 -0.1595  0.6640 -0.7067
  837MOL0     C12919   6.220   6.837   9.762  0.4076  0.5807  0.3486
  837MOL0     C12920   6.136   6.952   9.695 -0.9749  0.3387  0.2853
  837MOL0     C12921   6.122   7.066   9.794  0.2735  0.0404  0.8246
  837MOL0     C12922   6.022   7.171   9.748  0.2125  0.9458  0.3156
  837MOL0     C12923   6.020   7.294   9.828  0.9911 -0.4544  0.6863
  837MOL0     C12924   6.028   7.404   9.881  0.2418  0.2870  0.3526
  837MOL0     C12925   6.500   6.686   9.777 -0.2694 -0.0459 -0.6857
  837MOL0     C12926   6.553   6.575   9.830  0.6773  0.2671 -0.3643
  837MOL0     C12927   6.628   6.489   9.727  0.2243 -0.1355 -0.8386
  837MOL0     H12928   6.878   6.413  10.094  0.9592 -3.9938 -2.3771
  837MOL0     H12929   7.041   6.278  10.225 -0.6826 -1.6252 -0.8871
  837MOL0     H12930   7.149   6.100  10.534 -1.5202 -1.3210  0.2151
  837MOL0     H12931   7.163   6.195  10.390 -0.9817 -2.0930 -1.8806
  837MOL0     H12932   6.998   6.271  10.640 -0.2140  0.0945  0.1086
  837MOL0     H12933   7.053   6.382  10.510  0.3863 -1.5286 -1.4040
  837MOL0     H12934   7.302   6.316  10.607  0.0121  0.9471  0.3548
  837MOL0     H12935   7.224   6.235  10.737  5.6518  0.0790 -1.1165
  837MOL0     H12936   7.190   6.527  10.658  4.2007  2.0578  0.3954
  837MOL0     H12937   7.093   6.435  10.772 -1.4947  2.0336 -3.4998
  837MOL0     H12938   7.266   6.525  10.902 -0.2165 -0.9640  0.8320
  837MOL0     H12939   7.294   6.356  10.905 -2.8412  1.5580  2.3143
  837MOL0     H12940   7.481   6.405  10.714  0.8533  0.8337 -0.1132
  837MOL0     H12941   7.431   6.571  10.725  2.2485  1.1430 -0.1245
  837MOL0     H12942   7.568   6.413  10.946  0.8764 -0.3102 -0.1373
  837MOL0     H12943   7.499   6.577  10.967  1.3519  2.4575 -0.4370
  837MOL0     H12944   7.714   6.508  10.761 -0.1636 -1.8158  0.9974
  837MOL0     H12945   7.653   6.668  10.793 -0.6416 -0.2665 -0.8934
  837MOL0     H12946   7.873   6.401  10.966 -1.2542  0.5170 -1.7824
  837MOL0     H12947   7.954   6.549  11.307 -0.2699  1.5117  0.1728
  837MOL0     H12948   8.002   6.408  11.212 -0.0438  0.1210 -0.5270
  837MOL0     H12949   8.198   6.544  11.114 -0.1449  1.8771 -0.0716
  837MOL0     H12950   8.170   6.659  11.233 -0.5518 -0.5271 -2.5554
  837MOL0     H12951   8.244   6.377  11.277 -1.5147 -1.5009 -0.1370
  837MOL0     H12952   8.150   6.450  11.401  1.1012  0.9664  0.6814
  837MOL0     H12953   8.381   6.470  11.471 -0.4362 -2.2594 -0.8155
  837MOL0     H12954   8.328   6.636  11.418 -0.7432 -0.4665  1.6846
  837MOL0     H12955   8.645   6.579  11.157  0.5583  2.3308 -0.6963
  837MOL0     H12956   8.887   6.614  11.218 -0.6091 -0.0962 -0.0055
  837MOL0     H12957   9.064   6.956  11.453 -0.2435 -1.0295  0.9385
  837MOL0     H12958   9.264   7.104  11.466 -2.0000  0.6682 -1.8073
  837MOL0     H12959   9.478   7.243  11.405  0.0176 -0.1988  0.7202
  837MOL0     H12960   9.467   7.145  11.554  1.7845 -2.1618  1.6109
  837MOL0     H12961   9.723   7.196  11.375  0.0539 -0.3887 -0.9764
  837MOL0     H12962   9.689   7.295  11.508  2.1528  0.0915 -3.3033
  837MOL0     H12963   9.682   7.036  11.627 -1.4864  1.8273 -0.2074
  837MOL0     H12964   9.791   7.014  11.498 -2.2510  0.3734 -1.6844
  837MOL0     H12965   9.826   7.236  11.707 -0.3618  0.7714 -1.3675
  837MOL0     H12966   9.949   7.202  11.573  1.6300 -3.0875 -0.1759
  837MOL0     H12967   9.975   6.980  11.649 -0.0352 -0.0502 -0.2734
  837MOL0     H12968   9.876   7.020  11.798 -1.1661  1.3405 -0.4823
  837MOL0     H12969  10.040   7.218  11.829 -0.1525 -0.4365  3.4552
  837MOL0     H12970  10.092   7.068  11.881  3.8168  1.7135 -1.0808
  837MOL0     H12971  10.183   7.220  11.616  1.1999  1.7253  1.0664
  837MOL0     H12972  10.206   7.049  11.625  1.5045  2.7277 -2.2118
  837MOL0     H12973  10.327   7.280  11.794  0.1702 -0.1377  0.8207
  837MOL0     H12974  10.308   7.111  11.851 -6.0805  0.5887  0.2479
  837MOL0     H12975   9.528   6.797  11.338  0.3234  1.6171  0.5874
  837MOL0     H12976   9.313   6.652  11.284 -0.1659  1.1448 -0.2481
  837MOL0     H12977   8.770   6.613  11.629  1.1215 -0.5553 -1.2896
  837MOL0     H12978   8.535   6.558  11.569  0.0458 -1.9148 -0.3796
  837MOL0     H12979   6.718   6.131  10.469 -1.1000  0.3155  0.7922
  837MOL0     H12980   6.558   6.259  10.351 -0.3434 -0.3496 -0.8625
  837MOL0     H12981   6.438   6.630  10.150 -3.5496 -1.4169 -1.1020
  837MOL0     H12982   6.340   6.823  10.032 -3.6537 -1.9128 -2.1522
  837MOL0     H12983   6.174   6.818   9.859  1.8378  0.1027  0.9451
  837MOL0     H12984   6.211   6.744   9.704 -0.8911 -0.2924  1.8641
  837MOL0     H12985   6.041   6.912   9.660 -0.2604 -0.4336 -0.8317
  837MOL0     H12986   6.193   6.988   9.609 -1.7328  0.7422 -0.0548
  837MOL0     H12987   6.217   7.120   9.783 -0.3385  0.9007 -0.5223
  837MOL0     H12988   6.099   7.037   9.897  0.8274 -2.1052  0.3777
  837MOL0     H12989   6.047   7.207   9.648 -0.2219  2.0240  0.5858
  837MOL0     H12990   5.922   7.127   9.750  0.1951  0.9798  0.1809
  837MOL0     H12991   6.024   7.491   9.944  0.4377  0.8719 -0.4281
  837MOL0     H12992   6.505   6.697   9.669 -2.1509  2.7241 -0.6107
  837MOL0     H12993   6.715   6.438   9.770 -1.1176 -2.3541 -0.6092
  837MOL0     H12994   6.557   6.414   9.691  0.7641 -0.3792 -1.4216
  837MOL0     H12995   6.659   6.546   9.639 -2.5883  1.8583 -0.6662
  838MOL0     O12996   2.818   0.368   2.967  0.4074 -0.2378  0.1455
  838MOL0     C12997   2.878   0.277   3.023 -0.6880  0.1199 -0.5910
  838MOL0     O12998   3.013   0.277   3.059 -0.0286  0.2515  0.2470
  838MOL0     C12999   3.105   0.329   2.964  0.1938 -0.6191  0.6884
  838MOL0     C13000   3.082   0.402   2.845 -0.0424 -0.0142 -0.6407
  838MOL0     C13001   3.182   0.464   2.774 -0.5694  0.3356 -0.0196
  838MOL0     C13002   3.316   0.447   2.809  0.3386 -0.1759 -0.1291
  838MOL0     O13003   3.415   0.523   2.752 -0.4981  0.0355 -0.1950
  838MOL0     C13004   3.462   0.466   2.637 -0.5771  0.1478 -0.0214
  838MOL0     C13005   3.574   0.364   2.682 -0.4101  1.0451  0.0221
  838MOL0     C13006   3.681   0.445   2.762 -1.5835  0.1212  0.0411
  838MOL0     C13007   3.810   0.357   2.748 -0.2043  0.2198 -0.2632
  838MOL0     C13008   3.926   0.403   2.844 -0.8454 -0.2588  0.5184
  838MOL0     C13009   3.915   0.367   2.986 -0.7503 -0.4492  0.2224
  838MOL0     C13010   4.047   0.383   3.057  0.2334  0.2356  0.5951
  838MOL0     C13011   4.048   0.340   3.199 -0.2339 -0.4194 -0.4587
  838MOL0     N13012   4.085   0.197   3.220 -0.7894  0.5523 -0.3469
  838MOL0     C13013   4.008   0.086   3.194 -0.0549 -0.2512 -0.6913
  838MOL0     C13014   4.081  -0.017   3.248  0.1639 -0.5210  1.1052
  838MOL0     C13015   4.039  -0.158   3.242  0.2952 -0.2362 -0.1409
  838MOL0     C13016   3.992  -0.219   3.108 -0.0074  0.1618  0.2141
  838MOL0     C13017   3.999  -0.378   3.107 -0.3042 -0.1188 -0.8374
  838MOL0     C13018   4.135  -0.434   3.107  0.1729  0.3439  0.4440
  838MOL0     O13019   4.182  -0.446   3.240 -0.0797  0.9528 -0.0275
  838MOL0     C13020   4.307  -0.510   3.246  0.9084 -0.1430  0.4432
  838MOL0     C13021   4.424  -0.444   3.276 -0.4551 -0.3568  0.3407
  838MOL0     C13022   4.543  -0.514   3.296 -0.4355  0.3272  0.0941
  838MOL0     C13023   4.544  -0.659   3.276  0.2572 -0.2270 -0.4138
  838MOL0     C13024   4.668  -0.745   3.293 -0.2923  0.1162 -0.1229
  838MOL0     O13025   4.649  -0.879   3.294 -0.6122  0.3033  0.2000
  838MOL0     C13026   4.761  -0.967   3.294  0.1286  0.0912 -0.3681
  838MOL0     C13027   4.870  -0.954   3.382  0.1543 -0.6192  1.2822
  838MOL0     C13028   4.977  -1.049   3.368  0.1681  0.5277 -1.0755
  838MOL0     C13029   4.971  -1.153   3.281 -0.2965  0.5078  0.8448
  838MOL0     O13030   5.067  -1.256   3.259  0.0831 -0.2495  0.7850
  838MOL0     C13031   5.197  -1.226   3.314 -0.1819 -0.6217 -0.3025
  838MOL0     C13032   5.289  -1.321   3.237  0.2218  0.5931  0.2432
  838MOL0     C13033   5.436  -1.321   3.285 -0.5470  0.1011  0.2785
  838MOL0     C13034   5.526  -1.403   3.198 -0.6001  0.2699  0.6037
  838MOL0     C13035   5.673  -1.390   3.249 -0.0242 -0.3245  0.2850
  838MOL0     C13036   5.773  -1.484   3.172  0.2890 -1.0234 -0.1993
  838MOL0     C13037   5.912  -1.438   3.218 -0.2373 -0.9546 -0.0094
  838MOL0     C13038   6.017  -1.537   3.183  0.1522  0.4328  0.4259
  838MOL0    Cl13039   6.174  -1.464   3.184  0.1063 -0.0540 -0.2423
  838MOL0     C13040   4.866  -1.165   3.196 -0.0187  0.4473 -0.1404
  838MOL0     C13041   4.766  -1.072   3.202 -0.0034  0.3681  0.5297
  838MOL0     O13042   4.775  -0.689   3.305  0.3366  0.3720  0.8814
  838MOL0     C13043   4.428  -0.720   3.246 -0.4723 -0.1574 -0.8417
  838MOL0     C13044   4.309  -0.650   3.235  0.0501 -0.5664 -0.1540
  838MOL0     N13045   4.189   0.029   3.318 -0.4039  0.0980 -0.3160
  838MOL0     N13046   4.189   0.157   3.303  0.3881 -0.0972 -0.0963
  838MOL0     C13047   3.344   0.368   2.916 -0.2437  0.3402 -0.1091
  838MOL0     C13048   3.241   0.313   2.992 -0.1105 -0.2951 -0.7758
  838MOL0     C13049   2.796   0.160   3.062  0.6760  0.0373 -0.3487
  838MOL0     C13050   2.666   0.180   3.112  0.3406 -0.6669 -1.1734
  838MOL0     C13051   2.589   0.078   3.163 -0.7309  1.0100  0.1098
  838MOL0     C13052   2.648  -0.047   3.165 -0.5450  0.3706  0.6110
  838MOL0     O13053   2.574  -0.144   3.227 -0.3494  0.8419 -0.9362
  838MOL0     C13054   2.654  -0.234   3.295  0.7992  0.9132  0.0661
  838MOL0     C13055   2.567  -0.347   3.354  0.1395 -0.0213 -0.6751
  838MOL0     C13056   2.469  -0.397   3.245 -0.0429  0.1621 -0.4971
  838MOL0     C13057   2.391  -0.519   3.274 -0.4297 -0.8454 -0.1035
  838MOL0     C13058   2.344  -0.589   3.153  0.9493 -0.1342 -0.4421
  838MOL0     C13059   2.308  -0.642   3.052 -0.0249  0.3608 -0.0974
  838MOL0     C13060   2.774  -0.071   3.095  0.5230 -0.2943 -0.2530
  838MOL0     C13061   2.849   0.034   3.036  0.0445  0.1431  0.0454
  838MOL0     C13062   2.987   0.015   2.977 -0.1625  0.1283  0.4165
  838MOL0     H13063   2.976   0.410   2.821 -0.7346  2.9608  2.5897
  838MOL0     H13064   3.152   0.526   2.689 -0.2898 -0.5362 -0.7729
  838MOL0     H13065   3.374   0.433   2.581 -0.9632  2.3940 -0.8509
  838MOL0     H13066   3.509   0.540   2.572  2.2243 -1.2059  0.3329
  838MOL0     H13067   3.612   0.308   2.597 -0.8418  1.6247 -0.5653
  838MOL0     H13068   3.532   0.288   2.749  0.8222  0.6299  0.3592
  838MOL0     H13069   3.655   0.458   2.868  2.2114  2.0158  0.9067
  838MOL0     H13070   3.692   0.542   2.713 -0.1841  0.6277  1.2807
  838MOL0     H13071   3.779   0.256   2.778  1.5585  0.2895  2.0968
  838MOL0     H13072   3.836   0.371   2.643  0.8753  1.3853  0.1335
  838MOL0     H13073   4.007   0.346   2.798 -2.4876 -1.2667 -1.2503
  838MOL0     H13074   3.935   0.512   2.837 -2.3387  0.1007  3.0983
  838MOL0     H13075   3.837   0.429   3.031 -0.7465 -0.5154  0.3221
  838MOL0     H13076   3.881   0.263   2.990  0.1134 -0.7169  1.9259
  838MOL0     H13077   4.064   0.491   3.055  1.7371  0.0503  1.5344
  838MOL0     H13078   4.133   0.332   3.012 -2.6900 -4.7865 -0.0297
  838MOL0     H13079   4.112   0.396   3.268 -0.9042 -0.1273 -0.0669
  838MOL0     H13080   3.949   0.350   3.244  0.0455 -2.5389  0.7711
  838MOL0     H13081   3.914   0.081   3.140 -0.2259 -0.5533 -0.3675
  838MOL0     H13082   4.140  -0.195   3.260  1.0175  0.9588 -1.5565
  838MOL0     H13083   3.973  -0.181   3.327 -1.3633  1.8563 -0.7743
  838MOL0     H13084   3.889  -0.184   3.099 -0.1222  0.5697  2.6097
  838MOL0     H13085   4.044  -0.184   3.018 -3.6874 -3.7391 -4.0072
  838MOL0     H13086   3.950  -0.420   3.018 -1.5855 -1.1399  0.3112
  838MOL0     H13087   3.939  -0.422   3.187  1.2477  0.1459  0.5023
  838MOL0     H13088   4.207  -0.370   3.057  0.2971 -0.5760 -0.5978
  838MOL0     H13089   4.132  -0.525   3.047 -0.8840  1.0362 -0.6163
  838MOL0     H13090   4.431  -0.337   3.292 -0.4375 -0.3166  0.0737
  838MOL0     H13091   4.639  -0.477   3.329 -0.4579  0.0616  0.4617
  838MOL0     H13092   4.880  -0.869   3.449  0.0706  1.4436 -1.1769
  838MOL0     H13093   5.074  -1.029   3.412  0.2368 -1.7635 -0.0032
  838MOL0     H13094   5.233  -1.123   3.303  0.8410 -0.7565  1.4734
  838MOL0     H13095   5.197  -1.237   3.423 -0.0560 -0.8305 -0.3221
  838MOL0     H13096   5.250  -1.423   3.248  0.4084  0.4997  0.0459
  838MOL0     H13097   5.283  -1.305   3.129  0.1915  0.8696  0.2864
  838MOL0     H13098   5.483  -1.223   3.298  1.0308 -0.0834 -2.9578
  838MOL0     H13099   5.444  -1.372   3.381  0.0924 -0.0380  0.1589
  838MOL0     H13100   5.513  -1.366   3.096 -1.5514  2.7589  1.5342
  838MOL0     H13101   5.498  -1.508   3.197  0.0205  0.0858 -0.9491
  838MOL0     H13102   5.679  -1.417   3.355 -1.5305 -1.8800  0.0346
  838MOL0     H13103   5.712  -1.289   3.237  2.1901 -1.2219 -0.5666
  838MOL0     H13104   5.749  -1.586   3.204 -1.2507 -0.1259  1.7859
  838MOL0     H13105   5.760  -1.472   3.064 -0.3927  1.2914  0.0726
  838MOL0     H13106   5.912  -1.430   3.328  0.3653  1.3816 -0.1172
  838MOL0     H13107   5.957  -1.346   3.180  0.6667  0.3447  3.7637
  838MOL0     H13108   6.009  -1.623   3.250  2.2031 -1.1195 -1.2083
  838MOL0     H13109   6.000  -1.569   3.080 -0.7593  0.3325  0.5944
  838MOL0     H13110   4.859  -1.257   3.139  0.4313 -0.2630  0.8963
  838MOL0     H13111   4.681  -1.079   3.136  1.1442 -1.8659 -0.8395
  838MOL0     H13112   4.427  -0.824   3.217  0.5410 -0.4713  0.1813
  838MOL0     H13113   4.217  -0.700   3.207 -1.2639  0.7370  1.5434
  838MOL0     H13114   3.445   0.362   2.956 -0.2471 -0.6676 -0.2269
  838MOL0     H13115   3.269   0.248   3.074 -1.8881 -0.7497 -0.4829
  838MOL0     H13116   2.626   0.281   3.115 -1.7889 -1.4590 -0.4639
  838MOL0     H13117   2.486   0.089   3.195 -1.1531 -0.9905 -0.4122
  838MOL0     H13118   2.696  -0.174   3.376 -0.4294  1.5013  0.2897
  838MOL0     H13119   2.719  -0.286   3.224 -0.2879 -0.3169 -0.0799
  838MOL0     H13120   2.506  -0.303   3.433 -2.8030  1.8429 -3.6943
  838MOL0     H13121   2.632  -0.425   3.394  2.1165  1.5655 -0.6614
  838MOL0     H13122   2.520  -0.407   3.149 -2.2285 -3.4843 -1.4681
  838MOL0     H13123   2.393  -0.319   3.230  0.4614  1.0674  1.3511
  838MOL0     H13124   2.447  -0.590   3.335 -0.9080 -1.1975 -0.0760
  838MOL0     H13125   2.305  -0.489   3.335  0.8177  0.9220  0.8849
  838MOL0     H13126   2.280  -0.693   2.962 -1.7498  0.7532  0.1844
  838MOL0     H13127   2.805  -0.175   3.087 -0.6074 -0.7350  0.7972
  838MOL0     H13128   3.066   0.034   3.050 -1.5103  1.4163  1.6215
  838MOL0     H13129   2.996  -0.086   2.936 -1.4033  0.1660  0.0123
  838MOL0     H13130   2.987   0.086   2.894  0.0237  1.4359  1.4976
  839MOL0     O13131  10.849   6.741   5.156 -0.7273  0.4604  0.0577
  839MOL0     C13132  10.762   6.819   5.111 -0.2270  0.0405  0.2145
  839MOL0     O13133  10.782   6.942   5.062  0.0374  0.6241 -0.0838
  839MOL0     C13134  10.910   6.984   5.080  0.7524  0.2286 -0.5864
  839MOL0     C13135  10.942   7.035   5.200 -0.0470 -0.1791  0.0490
  839MOL0     C13136  11.071   7.079   5.230  1.2549  0.6597  0.1454
  839MOL0     C13137  11.174   7.072   5.134 -0.1548  0.2665  0.9784
  839MOL0     O13138  11.298   7.117   5.171  0.9312 -0.0059 -0.2553
  839MOL0     C13139  11.407   7.093   5.081 -0.4625 -0.5286  0.9147
  839MOL0     C13140  11.552   7.095   5.155  0.8398 -0.3616  1.0938
  839MOL0     C13141  11.673   7.126   5.061  0.5308 -0.1906 -0.1736
  839MOL0     C13142  11.808   7.075   5.114 -0.5109 -0.6385  0.6247
  839MOL0     C13143  11.926   7.106   5.023 -0.4039 -0.5057 -0.5956
  839MOL0     C13144  11.995   7.241   5.060 -0.4033  0.0242 -0.0364
  839MOL0     C13145  12.124   7.253   4.981 -0.0840  0.4338  0.0503
  839MOL0     C13146  12.212   7.364   5.025 -0.1824  0.4242 -0.2666
  839MOL0     N13147  12.304   7.337   5.138 -0.4579  0.0779  0.1412
  839MOL0     C13148  12.444   7.324   5.132 -1.0190  0.5178  0.9825
  839MOL0     C13149  12.497   7.351   5.251 -0.6178  0.7720 -1.3162
  839MOL0     C13150  12.644   7.353   5.280 -0.4018 -0.0103  0.1095
  839MOL0     C13151  12.706   7.213   5.311 -1.1311 -0.3561  0.2427
  839MOL0     C13152  12.860   7.212   5.293  0.0157  0.3985 -0.0511
  839MOL0     C13153  12.945   7.282   5.394 -0.0758 -0.6338  0.0797
  839MOL0     O13154  13.058   7.327   5.319  0.0058  0.3328 -0.2975
  839MOL0     C13155  13.167   7.365   5.392 -0.0594  0.3616  0.4266
  839MOL0     C13156  13.286   7.400   5.330 -0.2994  0.9188  0.8637
  839MOL0     C13157  13.411   7.411   5.385 -0.9696  0.6318 -1.0537
  839MOL0     C13158  13.424   7.390   5.521  0.7614 -0.6913  0.2393
  839MOL0     C13159  13.551   7.408   5.581 -0.0926  0.6190 -0.4046
  839MOL0     O13160  13.654   7.448   5.509 -0.9773 -0.4623  0.4913
  839MOL0     C13161  13.777   7.474   5.542 -0.1578  1.3293 -0.3578
  839MOL0     C13162  13.877   7.474   5.445 -0.0991 -0.2224 -0.0523
  839MOL0     C13163  14.009   7.494   5.492  0.1728  0.1025  0.8169
  839MOL0     C13164  14.040   7.514   5.624  0.8995  0.6016 -0.0053
  839MOL0     O13165  14.162   7.543   5.673 -0.3542 -0.5503  0.1372
  839MOL0     C13166  14.275   7.566   5.587 -0.0783  0.7608 -0.1385
  839MOL0     C13167  14.334   7.427   5.538  0.4222  0.3214  0.1837
  839MOL0     C13168  14.469   7.442   5.453  0.2071  0.0740  0.3947
  839MOL0     C13169  14.529   7.309   5.402  0.0065  0.7319 -0.1075
  839MOL0     C13170  14.653   7.318   5.309 -0.3680 -0.2096  0.4495
  839MOL0     C13171  14.773   7.374   5.391  1.0537  0.0371 -0.0180
  839MOL0     C13172  14.805   7.512   5.341  0.0923  0.4266 -0.3648
  839MOL0     C13173  14.909   7.590   5.426  0.2596 -0.0834  0.5405
  839MOL0    Cl13174  15.071   7.517   5.432 -0.1380  0.1997  0.1443
  839MOL0     C13175  13.942   7.535   5.720  0.5752 -0.0058  0.3954
  839MOL0     C13176  13.808   7.515   5.671 -0.4404  0.5869 -0.1283
  839MOL0     O13177  13.550   7.380   5.701 -0.1780  0.0245 -0.8861
  839MOL0     C13178  13.309   7.353   5.593  0.3531 -1.0832  0.4466
  839MOL0     C13179  13.191   7.338   5.525  0.0931 -0.5606  0.1565
  839MOL0     N13180  12.393   7.358   5.338 -0.7527 -0.3793  0.2402
  839MOL0     N13181  12.284   7.332   5.276  0.3458 -0.1697 -0.3118
  839MOL0     C13182  11.132   7.039   5.001  0.7169  0.1564  0.1920
  839MOL0     C13183  11.005   6.989   4.979  0.4920  0.9616  0.0611
  839MOL0     C13184  10.621   6.774   5.118  0.2397  0.5874  1.3381
  839MOL0     C13185  10.568   6.722   5.236 -0.3499  0.3985 -0.5399
  839MOL0     C13186  10.436   6.700   5.258  0.8428 -0.6048  0.5197
  839MOL0     C13187  10.343   6.722   5.155 -0.1844 -0.1107 -0.4448
  839MOL0     O13188  10.207   6.695   5.177 -0.5499 -0.1252 -0.3531
  839MOL0     C13189  10.099   6.750   5.099 -0.0847  0.4948  1.2074
  839MOL0     C13190  10.044   6.880   5.131  0.0075  0.8043  0.8610
  839MOL0     C13191   9.991   6.875   5.279  0.0476 -0.3163 -0.3579
  839MOL0     C13192   9.930   7.010   5.320  0.1162  0.2743  0.2939
  839MOL0     C13193  10.030   7.121   5.330  0.5214 -0.5179  0.4181
  839MOL0     C13194  10.103   7.219   5.340  0.2946  0.1990 -0.3735
  839MOL0     C13195  10.394   6.778   5.035  0.2429  0.3017  0.3895
  839MOL0     C13196  10.527   6.813   5.018  0.9396  0.4816 -0.8424
  839MOL0     C13197  10.559   6.855   4.873  0.0132 -0.0037  0.4235
  839MOL0     H13198  10.859   7.043   5.270 -0.9418 -1.8536 -0.7476
  839MOL0     H13199  11.094   7.109   5.331 -0.2563 -0.8046  0.9700
  839MOL0     H13200  11.395   6.997   5.030  1.9071 -1.1335  1.4082
  839MOL0     H13201  11.403   7.179   5.014 -0.3038  0.5998  2.2915
  839MOL0     H13202  11.557   6.998   5.205 -1.0052  0.3406  2.7793
  839MOL0     H13203  11.548   7.169   5.236  2.8599  2.4099 -1.1404
  839MOL0     H13204  11.669   7.234   5.044  0.9060  0.3007  2.3973
  839MOL0     H13205  11.667   7.081   4.961 -1.8400  1.4276 -0.8367
  839MOL0     H13206  11.828   7.097   5.219 -3.2273 -0.1318  1.1229
  839MOL0     H13207  11.795   6.967   5.101  0.0031 -0.5111 -1.2703
  839MOL0     H13208  11.995   7.023   5.035 -0.8922 -1.1235 -1.8348
  839MOL0     H13209  11.905   7.120   4.916  2.0099 -0.4595 -1.1156
  839MOL0     H13210  11.933   7.328   5.038 -1.1594 -0.9219 -1.8543
  839MOL0     H13211  12.015   7.230   5.167 -1.3286 -3.7897 -0.1106
  839MOL0     H13212  12.100   7.259   4.875  2.5922  0.5052 -0.6124
  839MOL0     H13213  12.178   7.159   4.996  0.8120  0.8672 -0.4003
  839MOL0     H13214  12.275   7.399   4.943  0.6088  0.8042  0.4805
  839MOL0     H13215  12.146   7.448   5.049  2.3409  1.5618  3.5788
  839MOL0     H13216  12.509   7.333   5.045  0.4088 -1.4028  1.7495
  839MOL0     H13217  12.689   7.393   5.189  0.8434  4.7527  2.4876
  839MOL0     H13218  12.674   7.425   5.357 -1.5340  2.5247 -1.6946
  839MOL0     H13219  12.678   7.176   5.410  0.0417 -1.6570  0.1136
  839MOL0     H13220  12.671   7.137   5.241 -0.2536 -0.9397  0.4283
  839MOL0     H13221  12.872   7.259   5.195  2.0307  0.4134  0.1667
  839MOL0     H13222  12.887   7.106   5.283 -2.0351  0.0247 -3.0583
  839MOL0     H13223  12.981   7.214   5.471  5.2732 -0.2461 -1.6672
  839MOL0     H13224  12.895   7.371   5.436  0.0520 -0.1484 -0.7704
  839MOL0     H13225  13.280   7.421   5.223  3.0072 -1.4685  0.0640
  839MOL0     H13226  13.492   7.450   5.324  0.3816  1.3830  1.1020
  839MOL0     H13227  13.850   7.456   5.341  0.0184 -1.2148  0.0789
  839MOL0     H13228  14.076   7.490   5.407  2.3783  0.6127  2.4268
  839MOL0     H13229  14.252   7.618   5.494 -3.1622 -2.4706 -1.4221
  839MOL0     H13230  14.353   7.619   5.642 -0.1855  1.2887 -0.4857
  839MOL0     H13231  14.345   7.365   5.627  0.8492  0.8356  0.4962
  839MOL0     H13232  14.247   7.387   5.485 -0.9323  4.1050 -0.7767
  839MOL0     H13233  14.463   7.517   5.374  2.4766 -1.4271 -1.3567
  839MOL0     H13234  14.550   7.478   5.516  1.9101  0.7530 -2.0449
  839MOL0     H13235  14.457   7.253   5.342  1.3488 -1.3970  0.1758
  839MOL0     H13236  14.556   7.247   5.487  1.6787 -0.1593 -1.2500
  839MOL0     H13237  14.633   7.386   5.226  1.9988  1.6634  1.2488
  839MOL0     H13238  14.676   7.223   5.260  2.2567  1.2614 -1.4104
  839MOL0     H13239  14.750   7.378   5.498 -0.9923 -0.1080 -0.4076
  839MOL0     H13240  14.862   7.312   5.379  0.3925 -0.8218 -0.6428
  839MOL0     H13241  14.717   7.577   5.335  0.6991  1.7183  2.4484
  839MOL0     H13242  14.834   7.493   5.238 -1.2333 -1.6026 -0.4116
  839MOL0     H13243  14.917   7.688   5.379  0.3458 -0.4765 -0.2918
  839MOL0     H13244  14.867   7.594   5.527 -2.1977  0.3724 -0.4217
  839MOL0     H13245  13.963   7.570   5.820  0.4611  3.4025 -0.6664
  839MOL0     H13246  13.727   7.529   5.741 -2.0290 -1.8963 -1.3482
  839MOL0     H13247  13.307   7.335   5.700 -1.0397  3.0882  1.3249
  839MOL0     H13248  13.109   7.309   5.589 -2.1601  0.5780 -2.0570
  839MOL0     H13249  11.203   7.023   4.920 -0.2335 -1.8787 -0.3283
  839MOL0     H13250  10.988   6.945   4.881  0.6006  0.6144  0.1952
  839MOL0     H13251  10.635   6.705   5.320  2.0710 -1.8688 -2.7254
  839MOL0     H13252  10.397   6.661   5.352 -1.8561 -0.7191 -0.5452
  839MOL0     H13253  10.017   6.678   5.106 -0.1050  0.6816  4.4529
  839MOL0     H13254  10.136   6.762   4.996  0.7749  0.4671  1.5052
  839MOL0     H13255   9.962   6.904   5.062 -0.0269 -1.0600  0.2062
  839MOL0     H13256  10.119   6.959   5.122  0.1808  0.4229 -2.3499
  839MOL0     H13257  10.065   6.846   5.354 -1.1502 -2.5906  0.0564
  839MOL0     H13258   9.915   6.797   5.278 -1.5076  1.1501 -0.5252
  839MOL0     H13259   9.838   7.047   5.272 -0.4193 -0.3623  0.8174
  839MOL0     H13260   9.902   7.003   5.425 -0.1756  2.1589  0.3758
  839MOL0     H13261  10.170   7.303   5.336  4.0310 -2.5614 -1.6725
  839MOL0     H13262  10.331   6.780   4.946 -0.5675 -0.6877  0.9254
  839MOL0     H13263  10.664   6.839   4.845 -0.3263  0.8252 -1.4901
  839MOL0     H13264  10.507   6.797   4.797  0.2192  0.7539 -0.3051
  839MOL0     H13265  10.531   6.960   4.867  0.3620  0.0791  0.2043
  840MOL0     O13266   2.305   3.418   2.023 -0.1645  0.6617 -0.0314
  840MOL0     C13267   2.197   3.362   2.004 -0.2205 -1.0747  0.0342
  840MOL0     O13268   2.104   3.343   2.099  0.2936 -0.4403 -0.5713
  840MOL0     C13269   2.118   3.385   2.237 -0.1591 -0.0565 -0.3964
  840MOL0     C13270   2.197   3.488   2.279  0.8450  0.7010  0.3857
  840MOL0     C13271   2.197   3.532   2.413  0.1251  0.0030  0.4282
  840MOL0     C13272   2.126   3.459   2.507 -0.1834  0.5828 -0.4766
  840MOL0     O13273   2.130   3.485   2.642 -0.5135  1.0849  0.2410
  840MOL0     C13274   2.258   3.527   2.683  0.8624  0.4278 -0.4202
  840MOL0     C13275   2.256   3.530   2.829 -0.1367  0.3010  0.1007
  840MOL0     C13276   2.387   3.585   2.879  0.6475 -0.0482  0.4319
  840MOL0     C13277   2.383   3.605   3.032  1.1385 -0.0015  0.4820
  840MOL0     C13278   2.517   3.576   3.090 -0.5931  0.8267  0.3676
  840MOL0     C13279   2.515   3.600   3.238  0.1743  0.9997 -0.1213
  840MOL0     C13280   2.639   3.539   3.301 -0.5331 -0.4874 -0.2665
  840MOL0     C13281   2.649   3.590   3.440 -0.2807 -0.1821  0.2780
  840MOL0     N13282   2.750   3.515   3.512 -1.3019 -0.1754 -0.2804
  840MOL0     C13283   2.719   3.440   3.614  0.1599 -0.3906 -0.5358
  840MOL0     C13284   2.824   3.350   3.635 -0.3225 -0.1221  0.2654
  840MOL0     C13285   2.829   3.258   3.750 -0.2528 -0.5154 -0.1061
  840MOL0     C13286   2.963   3.279   3.822  0.0543 -0.3043  0.8747
  840MOL0     C13287   3.060   3.171   3.776 -0.0700  0.1055  1.1361
  840MOL0     C13288   3.207   3.201   3.812  0.5001 -0.1938  0.0495
  840MOL0     O13289   3.270   3.328   3.775 -0.4099 -0.1028  0.2333
  840MOL0     C13290   3.403   3.348   3.802  0.1344  0.2822  0.3807
  840MOL0     C13291   3.483   3.257   3.872  0.0168 -0.1257 -0.2750
  840MOL0     C13292   3.618   3.285   3.917 -0.6747 -0.1176 -0.7062
  840MOL0     C13293   3.685   3.407   3.879  0.1248 -0.1344  0.1110
  840MOL0     C13294   3.824   3.441   3.914  0.0382 -0.2625 -0.5820
  840MOL0     O13295   3.887   3.344   3.990 -0.0090 -0.1253 -0.0944
  840MOL0     C13296   4.026   3.342   3.964 -0.0721  0.1726  0.3380
  840MOL0     C13297   4.086   3.255   3.879  0.0230  0.1456 -0.6364
  840MOL0     C13298   4.222   3.257   3.850  0.5778  0.1376  0.1176
  840MOL0     C13299   4.306   3.346   3.927 -0.8185 -0.3665  0.0172
  840MOL0     O13300   4.447   3.337   3.906 -0.3522  0.7744  0.2318
  840MOL0     C13301   4.544   3.409   3.984 -0.4861 -0.0158  0.1834
  840MOL0     C13302   4.561   3.552   3.923 -0.3981 -0.4315  0.1800
  840MOL0     C13303   4.665   3.648   3.978 -0.1625 -0.2648 -0.0325
  840MOL0     C13304   4.801   3.588   3.975 -0.0459  0.0814  0.4512
  840MOL0     C13305   4.836   3.547   3.828  0.0292 -0.9652 -0.0013
  840MOL0     C13306   4.978   3.492   3.808  0.6154  0.0687 -0.4020
  840MOL0     C13307   5.014   3.388   3.923 -0.8831  0.0385  0.8263
  840MOL0     C13308   5.149   3.321   3.898 -0.9041 -0.7956  0.3454
  840MOL0    Cl13309   5.161   3.194   3.771 -0.2469  0.5191 -0.2374
  840MOL0     C13310   4.241   3.440   4.010 -0.4583 -0.3553 -0.6628
  840MOL0     C13311   4.109   3.438   4.026  0.3821  0.1994  0.0926
  840MOL0     O13312   3.869   3.546   3.881 -0.0351  0.0385  0.6070
  840MOL0     C13313   3.605   3.496   3.807  0.0555 -0.0253  0.1147
  840MOL0     C13314   3.474   3.465   3.763  0.1223  0.4661  0.3863
  840MOL0     N13315   2.921   3.377   3.538 -0.2120 -0.4959  0.0327
  840MOL0     N13316   2.869   3.465   3.455  0.9049 -0.2514  0.4920
  840MOL0     C13317   2.052   3.350   2.470 -0.5089  0.5396  0.2224
  840MOL0     C13318   2.053   3.319   2.334 -0.1963 -0.0764 -0.3748
  840MOL0     C13319   2.151   3.359   1.859  0.6235  0.3829 -1.1556
  840MOL0     C13320   2.014   3.332   1.832 -0.8798  0.2215 -0.0158
  840MOL0     C13321   1.972   3.339   1.700  0.0196 -0.3651 -0.5414
  840MOL0     C13322   2.053   3.369   1.589  0.7085  0.5254 -0.6168
  840MOL0     O13323   1.993   3.389   1.474  0.2789  0.0147 -0.2570
  840MOL0     C13324   2.062   3.455   1.367 -0.4666  0.6225 -0.4606
  840MOL0     C13325   1.966   3.471   1.246  0.8096 -0.1285 -1.6742
  840MOL0     C13326   2.048   3.546   1.134 -0.3089  0.0367 -0.0543
  840MOL0     C13327   2.094   3.461   1.022  0.6771 -0.0283  0.5013
  840MOL0     C13328   1.984   3.433   0.928 -0.7392 -0.2151  0.8452
  840MOL0     C13329   1.899   3.409   0.841  0.1073 -0.4535  0.5510
  840MOL0     C13330   2.184   3.399   1.613 -0.5010 -0.3173  0.9719
  840MOL0     C13331   2.238   3.393   1.744  0.5759  0.6351  0.2283
  840MOL0     C13332   2.392   3.414   1.760 -0.1869  0.4181 -0.4911
  840MOL0     H13333   2.263   3.552   2.222  0.6461  0.6245  0.0654
  840MOL0     H13334   2.255   3.622   2.436  0.2624  0.1934 -0.6474
  840MOL0     H13335   2.326   3.452   2.642 -2.0328 -2.0090 -1.0651
  840MOL0     H13336   2.282   3.629   2.651 -1.2636  1.8998  2.2129
  840MOL0     H13337   2.250   3.425   2.860 -1.0156  0.2521 -0.2013
  840MOL0     H13338   2.170   3.583   2.871 -0.4621 -0.4760  0.4322
  840MOL0     H13339   2.398   3.685   2.837  0.1125  0.1567  0.7775
  840MOL0     H13340   2.466   3.515   2.849 -0.0511 -0.1095 -1.3971
  840MOL0     H13341   2.359   3.706   3.067 -0.4076 -0.7290  1.6444
  840MOL0     H13342   2.301   3.545   3.074 -0.1720 -0.7000 -2.7500
  840MOL0     H13343   2.541   3.470   3.079 -1.5136  0.6453  0.0568
  840MOL0     H13344   2.600   3.625   3.037  2.4445 -2.0342  2.1003
  840MOL0     H13345   2.510   3.709   3.247  1.4734  1.3643 -2.8042
  840MOL0     H13346   2.425   3.556   3.281  1.5554 -2.2821 -0.2825
  840MOL0     H13347   2.728   3.565   3.243 -0.3005  0.7802  0.6115
  840MOL0     H13348   2.636   3.429   3.306  0.7600 -0.6551 -2.0399
  840MOL0     H13349   2.653   3.697   3.465  0.3964 -0.4765  1.4983
  840MOL0     H13350   2.552   3.560   3.482  0.6483 -0.8454  2.0409
  840MOL0     H13351   2.626   3.443   3.671  0.3823 -3.0452  0.0990
  840MOL0     H13352   2.742   3.275   3.815 -0.3351  0.3773 -0.4327
  840MOL0     H13353   2.821   3.157   3.708  1.9459 -2.1526  3.0193
  840MOL0     H13354   3.010   3.372   3.788  1.0561 -1.6826 -1.8712
  840MOL0     H13355   2.938   3.276   3.928 -2.7858  0.2523  0.2950
  840MOL0     H13356   3.055   3.149   3.669  0.0533  1.3296  0.8567
  840MOL0     H13357   3.034   3.079   3.828  1.5718 -0.8730  0.3123
  840MOL0     H13358   3.261   3.119   3.763  0.9646  1.3156 -2.1187
  840MOL0     H13359   3.216   3.196   3.921 -1.3497  0.6534  0.2811
  840MOL0     H13360   3.429   3.168   3.904  0.6619 -0.6147 -0.5245
  840MOL0     H13361   3.670   3.217   3.984 -2.9280 -0.5518  0.7169
  840MOL0     H13362   4.031   3.183   3.818 -1.3750  1.2747 -0.7499
  840MOL0     H13363   4.272   3.179   3.794  0.4385 -1.3277  1.9443
  840MOL0     H13364   4.502   3.399   4.084  1.4358 -1.5730  0.8900
  840MOL0     H13365   4.642   3.361   3.980 -0.6920 -0.4450  0.2266
  840MOL0     H13366   4.578   3.533   3.816 -0.7558  0.3958 -0.0268
  840MOL0     H13367   4.465   3.603   3.926  0.6943  1.7639 -0.2566
  840MOL0     H13368   4.676   3.740   3.919 -1.6561 -0.2360 -0.3186
  840MOL0     H13369   4.636   3.673   4.080 -0.0922  1.8626 -0.4917
  840MOL0     H13370   4.811   3.504   4.045  3.0551 -1.1980 -1.3076
  840MOL0     H13371   4.868   3.673   3.992  1.7759 -0.5338 -2.7076
  840MOL0     H13372   4.811   3.627   3.758 -1.3071 -2.8592 -1.8174
  840MOL0     H13373   4.769   3.469   3.792 -0.6733 -1.0419  1.3899
  840MOL0     H13374   4.987   3.446   3.709 -5.2852  1.1664 -1.8191
  840MOL0     H13375   5.044   3.579   3.805 -2.5862  2.7026  0.0770
  840MOL0     H13376   4.941   3.307   3.930 -1.0066  0.0830  0.1024
  840MOL0     H13377   5.026   3.448   4.014  0.5804  0.6402  0.2678
  840MOL0     H13378   5.212   3.406   3.871 -0.2444 -1.1074  0.8703
  840MOL0     H13379   5.192   3.286   3.992 -0.9090 -0.3058  0.5349
  840MOL0     H13380   4.301   3.497   4.081 -0.7901 -2.4498  1.4061
  840MOL0     H13381   4.064   3.520   4.082 -1.3230 -0.8862  0.3758
  840MOL0     H13382   3.663   3.584   3.781  0.6150 -0.6027 -0.6640
  840MOL0     H13383   3.423   3.535   3.697 -2.0429 -1.6636 -0.3716
  840MOL0     H13384   2.016   3.289   2.552  1.5945 -3.1547 -1.3156
  840MOL0     H13385   2.010   3.225   2.302 -1.6024 -0.6580  2.8386
  840MOL0     H13386   1.945   3.312   1.914 -0.3824  1.3960  0.7218
  840MOL0     H13387   1.870   3.317   1.671  0.1527  0.0077 -1.3068
  840MOL0     H13388   2.151   3.398   1.341 -0.4992 -0.9018  2.3875
  840MOL0     H13389   2.088   3.558   1.394  0.1473  1.7486 -4.5521
  840MOL0     H13390   1.869   3.511   1.274  0.5063 -2.0718  0.3270
  840MOL0     H13391   1.948   3.370   1.208  4.1502 -0.8795 -1.6219
  840MOL0     H13392   2.137   3.592   1.178  1.6244  1.7826 -5.0798
  840MOL0     H13393   1.999   3.636   1.096  2.5871  2.5026  1.6749
  840MOL0     H13394   2.179   3.520   0.987  1.6532 -1.3514  0.5282
  840MOL0     H13395   2.142   3.367   1.051 -1.0835 -1.4140 -0.8507
  840MOL0     H13396   1.827   3.390   0.763  1.7734  0.1188 -1.1948
  840MOL0     H13397   2.252   3.415   1.529  0.0455 -0.7011  1.3352
  840MOL0     H13398   2.449   3.380   1.674  1.6125  1.0581  0.4039
  840MOL0     H13399   2.409   3.519   1.786  0.4085  0.0389  0.7164
  840MOL0     H13400   2.439   3.358   1.841  0.7827  0.1045 -1.2561
  841MOL0     O13401   3.771   1.920   1.024 -0.1978  0.2685 -0.7924
  841MOL0     C13402   3.701   1.940   0.928  0.4549  0.3005 -0.7830
  841MOL0     O13403   3.743   1.952   0.797 -0.1487 -0.6568 -0.7837
  841MOL0     C13404   3.881   1.933   0.766 -0.4692 -0.0310 -0.3539
  841MOL0     C13405   3.945   1.809   0.789 -0.1480 -0.4804  0.5661
  841MOL0     C13406   4.080   1.799   0.750 -0.3945  0.2592  0.0945
  841MOL0     C13407   4.163   1.912   0.713 -0.1066  0.0690 -0.1582
  841MOL0     O13408   4.296   1.919   0.700 -0.0453  0.2379 -0.1118
  841MOL0     C13409   4.382   1.804   0.718  0.1044  0.3653  0.1116
  841MOL0     C13410   4.531   1.837   0.727  0.6248  0.2148 -0.0150
  841MOL0     C13411   4.605   1.708   0.766  0.5174 -0.4961 -0.2179
  841MOL0     C13412   4.760   1.729   0.780  0.5182 -0.0608  1.1216
  841MOL0     C13413   4.817   1.598   0.793 -1.0283 -1.0029  0.1581
  841MOL0     C13414   4.957   1.607   0.857  0.3502 -0.2542  0.3725
  841MOL0     C13415   5.009   1.465   0.872 -0.8789 -0.2851 -0.2430
  841MOL0     C13416   5.094   1.447   1.011 -0.1672 -0.1101 -0.2540
  841MOL0     N13417   5.211   1.535   1.018 -0.3605 -0.3766  0.5187
  841MOL0     C13418   5.295   1.585   0.913 -0.2878 -0.0660  0.2118
  841MOL0     C13419   5.386   1.654   0.980 -0.5777  0.7965 -0.2189
  841MOL0     C13420   5.498   1.735   0.917 -0.4636 -0.2038  0.0086
  841MOL0     C13421   5.633   1.652   0.925 -0.0562  0.3860  0.2136
  841MOL0     C13422   5.753   1.712   0.849 -0.1428  0.4799  0.3097
  841MOL0     C13423   5.801   1.840   0.926 -0.1309  1.2044  0.2698
  841MOL0     O13424   5.860   1.809   1.056  0.5392  0.2612  0.1798
  841MOL0     C13425   5.991   1.826   1.091  0.0355  0.7394  0.1028
  841MOL0     C13426   6.034   1.755   1.196  0.5084 -0.1870 -0.3271
  841MOL0     C13427   6.170   1.752   1.240 -0.1784  0.0556 -0.5179
  841MOL0     C13428   6.264   1.837   1.173  0.7978 -0.2218 -0.3189
  841MOL0     C13429   6.402   1.852   1.219 -0.8754 -0.4677 -0.3447
  841MOL0     O13430   6.487   1.918   1.132 -0.1654 -0.0899 -0.6377
  841MOL0     C13431   6.622   1.953   1.165  0.2731  0.0093  0.0389
  841MOL0     C13432   6.678   2.038   1.072 -0.0390 -0.2973  1.2636
  841MOL0     C13433   6.811   2.088   1.082 -0.8955 -0.3252 -0.4194
  841MOL0     C13434   6.890   2.052   1.194 -0.3353 -0.1878  0.8153
  841MOL0     O13435   7.014   2.116   1.209 -0.0028  0.0966 -0.2005
  841MOL0     C13436   7.074   2.090   1.340 -0.1702  0.2612 -0.1513
  841MOL0     C13437   7.166   1.964   1.328  0.7162  0.1318  0.0611
  841MOL0     C13438   7.285   1.987   1.235  0.8661  0.0544  0.8268
  841MOL0     C13439   7.419   1.960   1.299  0.3509 -0.1512  0.2040
  841MOL0     C13440   7.522   1.959   1.194  0.5385  0.4104 -0.3696
  841MOL0     C13441   7.661   1.920   1.229 -0.4394  1.0446  0.4656
  841MOL0     C13442   7.749   1.905   1.103  0.3872 -0.0324 -0.5161
  841MOL0     C13443   7.901   1.876   1.128  0.5839  0.3569 -0.9085
  841MOL0    Cl13444   7.936   1.712   1.165  0.3169  0.1999 -0.3945
  841MOL0     C13445   6.830   1.958   1.276 -0.7291  0.3620  0.5957
  841MOL0     C13446   6.702   1.907   1.264 -0.6693  0.0342 -0.0853
  841MOL0     O13447   6.434   1.813   1.331 -0.2451  0.8053  0.1129
  841MOL0     C13448   6.218   1.919   1.072  0.0100 -0.4432  0.5681
  841MOL0     C13449   6.089   1.911   1.022  0.1210  0.8863  0.0634
  841MOL0     N13450   5.358   1.660   1.110 -0.2595  0.0380  0.0413
  841MOL0     N13451   5.254   1.593   1.129  0.0934  0.6366 -0.4268
  841MOL0     C13452   4.091   2.032   0.693  0.5243  0.1206 -1.5401
  841MOL0     C13453   3.954   2.042   0.726 -0.8072 -0.3929  0.1716
  841MOL0     C13454   3.554   1.958   0.943  0.5162 -0.1702  0.6431
  841MOL0     C13455   3.493   2.027   0.830 -0.4802  0.4231  1.1617
  841MOL0     C13456   3.350   2.045   0.833 -0.0103  0.6035  0.3590
  841MOL0     C13457   3.273   2.002   0.939  1.1730  0.8899 -0.5292
  841MOL0     O13458   3.132   2.026   0.965 -0.1288 -0.5681 -0.0898
  841MOL0     C13459   3.061   2.089   0.853 -0.3434  0.9614 -0.4798
  841MOL0     C13460   2.911   2.093   0.877 -0.1640 -0.1542  0.5105
  841MOL0     C13461   2.884   2.175   1.001  0.9564  0.1610 -0.3878
  841MOL0     C13462   2.736   2.172   1.035  0.2039  0.0749 -0.5517
  841MOL0     C13463   2.630   2.200   0.931  1.0474 -1.0320  0.5389
  841MOL0     C13464   2.543   2.226   0.849  0.2218 -0.3494 -0.3450
  841MOL0     C13465   3.336   1.930   1.044 -0.5672  0.2412 -1.3090
  841MOL0     C13466   3.478   1.916   1.050 -0.7234 -0.4668  0.4373
  841MOL0     C13467   3.528   1.849   1.174  0.4719  0.5174 -0.5030
  841MOL0     H13468   3.878   1.735   0.832  0.6788 -2.6589 -1.6612
  841MOL0     H13469   4.136   1.714   0.786 -0.2356  0.4639  0.3309
  841MOL0     H13470   4.350   1.751   0.809 -2.2678  2.8504  0.8612
  841MOL0     H13471   4.375   1.724   0.644  0.5752  0.9298 -0.5513
  841MOL0     H13472   4.552   1.922   0.791  0.6254  0.3919 -0.2473
  841MOL0     H13473   4.565   1.866   0.627 -4.2892  3.7531 -1.0012
  841MOL0     H13474   4.587   1.634   0.688 -2.0463  0.7805 -0.9480
  841MOL0     H13475   4.554   1.669   0.855 -1.4114  0.7967 -0.6917
  841MOL0     H13476   4.806   1.792   0.703 -0.0673 -0.7344  0.2041
  841MOL0     H13477   4.767   1.776   0.878 -0.0755  1.8059  0.3224
  841MOL0     H13478   4.755   1.552   0.871 -1.5253 -0.8357 -0.1415
  841MOL0     H13479   4.815   1.543   0.699  1.0657  2.1152 -1.9003
  841MOL0     H13480   5.024   1.667   0.796  1.0584 -0.4009  0.9915
  841MOL0     H13481   4.948   1.656   0.955  2.7191  1.1279 -0.0254
  841MOL0     H13482   5.073   1.438   0.788  0.0545 -1.8253  0.9282
  841MOL0     H13483   4.929   1.391   0.883  1.2312 -2.3700  2.6733
  841MOL0     H13484   5.026   1.462   1.095 -2.7159  2.5931 -2.5243
  841MOL0     H13485   5.129   1.344   1.007  0.6251  0.1338  0.1716
  841MOL0     H13486   5.296   1.564   0.806  2.5432  0.9810 -0.0552
  841MOL0     H13487   5.476   1.765   0.814 -0.6796 -0.2392  0.0444
  841MOL0     H13488   5.513   1.819   0.985  0.6553 -0.7218  0.4444
  841MOL0     H13489   5.652   1.632   1.030 -0.1612  0.5452  0.2635
  841MOL0     H13490   5.608   1.555   0.882 -1.4741  0.9887 -0.3882
  841MOL0     H13491   5.712   1.747   0.754 -1.1730  3.0387  1.5757
  841MOL0     H13492   5.835   1.642   0.830 -0.6963 -0.2875  0.7353
  841MOL0     H13493   5.723   1.914   0.943  1.1719  2.4169  1.2138
  841MOL0     H13494   5.875   1.894   0.865  1.7312 -0.2771  1.1079
  841MOL0     H13495   5.955   1.708   1.254  0.1017  2.5036  1.4873
  841MOL0     H13496   6.200   1.696   1.328 -1.0910 -1.5322 -1.1739
  841MOL0     H13497   6.620   2.070   0.985  3.4049  0.5323 -0.9251
  841MOL0     H13498   6.869   2.154   1.019  1.2292  0.4043  2.1239
  841MOL0     H13499   7.143   2.175   1.351  0.7842 -0.4756 -0.2689
  841MOL0     H13500   7.006   2.093   1.425  1.1750 -1.6523  1.0653
  841MOL0     H13501   7.199   1.943   1.430  0.1745  3.5000  1.0477
  841MOL0     H13502   7.108   1.878   1.293 -1.3103  1.6921 -0.6422
  841MOL0     H13503   7.274   1.925   1.146  1.0085  3.5526 -1.8385
  841MOL0     H13504   7.291   2.089   1.196 -3.3752  0.4251  0.7434
  841MOL0     H13505   7.423   1.871   1.362 -1.9419  1.1515  2.3942
  841MOL0     H13506   7.443   2.034   1.376  2.3718 -0.5741  0.0223
  841MOL0     H13507   7.524   2.054   1.139  2.2367  0.1875 -0.7615
  841MOL0     H13508   7.495   1.880   1.124  1.7301 -1.9073  1.6422
  841MOL0     H13509   7.698   1.988   1.307  1.6501 -0.0611  0.5173
  841MOL0     H13510   7.661   1.821   1.274 -1.6377  1.2256  0.8943
  841MOL0     H13511   7.735   2.003   1.056  1.5843  0.9482  1.0680
  841MOL0     H13512   7.717   1.825   1.035 -3.3576 -0.6604  1.7411
  841MOL0     H13513   7.942   1.912   1.034  1.6179  1.6275 -0.0196
  841MOL0     H13514   7.938   1.940   1.209 -0.1957  0.0733 -0.3153
  841MOL0     H13515   6.894   1.910   1.350  0.9497 -2.1442 -2.2888
  841MOL0     H13516   6.661   1.827   1.325 -0.3818 -1.8358 -2.2333
  841MOL0     H13517   6.290   1.981   1.019 -1.0023 -0.0615 -0.3839
  841MOL0     H13518   6.064   1.972   0.936 -0.4260 -0.4541 -0.7645
  841MOL0     H13519   4.155   2.118   0.680  0.0607  0.9597  1.0559
  841MOL0     H13520   3.916   2.143   0.728 -0.1642 -0.1572  0.6741
  841MOL0     H13521   3.550   2.083   0.757  0.1319 -0.0518  1.2593
  841MOL0     H13522   3.303   2.123   0.773 -0.4418 -0.1328 -0.2731
  841MOL0     H13523   3.090   2.034   0.763 -0.6896 -0.5322  0.2900
  841MOL0     H13524   3.100   2.189   0.831  1.5944 -0.0853 -2.0577
  841MOL0     H13525   2.870   1.992   0.881  1.3886 -0.8174  0.4252
  841MOL0     H13526   2.862   2.136   0.789 -1.0705 -3.1181 -0.5641
  841MOL0     H13527   2.915   2.277   0.975  1.5075 -0.7000 -3.5703
  841MOL0     H13528   2.935   2.132   1.087 -0.7624 -0.5842  0.3178
  841MOL0     H13529   2.723   2.069   1.069  1.9955  0.7096  2.3915
  841MOL0     H13530   2.725   2.236   1.123  1.8329  0.2875 -0.4754
  841MOL0     H13531   2.482   2.250   0.765  0.1174  0.7729  0.0426
  841MOL0     H13532   3.274   1.904   1.129  1.9978 -2.4992 -0.1270
  841MOL0     H13533   3.453   1.780   1.214 -1.5342  1.9791 -1.5884
  841MOL0     H13534   3.618   1.789   1.157  0.8953  0.7452  0.8136
  841MOL0     H13535   3.560   1.918   1.253  2.6206  0.1086 -0.9465
  842MOL0     O13536   3.756   6.020   3.438 -0.1039  0.8655  0.5644
  842MOL0     C13537   3.721   6.050   3.325  0.6318 -0.2991 -0.6075
  842MOL0     O13538   3.805   6.119   3.230  0.4305  0.4146 -0.2244
  842MOL0     C13539   3.941   6.101   3.233 -0.0178 -0.0265  0.6936
  842MOL0     C13540   4.020   6.013   3.309  0.2693 -0.0122  0.7280
  842MOL0     C13541   4.161   6.011   3.296  0.5405  0.4743 -1.0077
  842MOL0     C13542   4.223   6.091   3.207  0.3868 -1.7270 -0.0213
  842MOL0     O13543   4.358   6.116   3.205 -0.5683  0.2603  0.5694
  842MOL0     C13544   4.418   6.109   3.339 -0.1438 -1.0573  0.2101
  842MOL0     C13545   4.504   6.238   3.351  0.1641 -0.7680 -0.3085
  842MOL0     C13546   4.627   6.238   3.254 -0.3790 -0.4623  0.0995
  842MOL0     C13547   4.672   6.382   3.221 -0.5814  0.7536  0.1919
  842MOL0     C13548   4.809   6.374   3.149 -0.5369 -0.5448 -0.3686
  842MOL0     C13549   4.860   6.505   3.083 -0.3146  0.2425  0.7554
  842MOL0     C13550   4.995   6.497   3.012 -0.1943 -0.4129  0.3464
  842MOL0     C13551   5.091   6.395   3.081 -0.7763  0.3499  0.6475
  842MOL0     N13552   5.227   6.406   3.037  0.2360  0.7456  0.6424
  842MOL0     C13553   5.335   6.392   3.116 -0.1774  0.6078 -0.4062
  842MOL0     C13554   5.440   6.418   3.036 -0.4512  0.4228  0.4777
  842MOL0     C13555   5.576   6.407   3.070 -0.5805 -1.4131 -0.7386
  842MOL0     C13556   5.623   6.497   3.183  0.2647  0.6844 -0.6144
  842MOL0     C13557   5.594   6.647   3.165 -0.0329 -0.5832 -0.5766
  842MOL0     C13558   5.689   6.717   3.065  0.9038  0.2937 -0.8214
  842MOL0     O13559   5.798   6.773   3.143  0.1846  0.0474  0.9735
  842MOL0     C13560   5.922   6.754   3.093  0.5773 -0.4109 -0.4468
  842MOL0     C13561   5.970   6.633   3.035  0.8156 -0.1724  0.2661
  842MOL0     C13562   6.100   6.640   2.976  0.2246 -0.5629  0.1536
  842MOL0     C13563   6.182   6.755   2.974 -0.1309  0.1328  0.0638
  842MOL0     C13564   6.312   6.749   2.910 -0.0949 -0.3290 -0.2745
  842MOL0     O13565   6.367   6.870   2.870 -0.4314 -0.6124  0.2860
  842MOL0     C13566   6.485   6.863   2.818 -0.3672  0.7980 -0.1730
  842MOL0     C13567   6.604   6.859   2.903 -0.3120 -0.6551 -0.0765
  842MOL0     C13568   6.733   6.878   2.850  0.3866  0.0854 -0.4293
  842MOL0     C13569   6.757   6.896   2.717  0.5536 -0.2271  0.3644
  842MOL0     O13570   6.883   6.916   2.670 -0.3278 -0.0747 -0.1104
  842MOL0     C13571   6.913   6.928   2.529  0.7366 -0.3681 -0.4350
  842MOL0     C13572   7.064   6.929   2.514  0.5601  0.7415 -0.1591
  842MOL0     C13573   7.121   6.915   2.360  0.4714 -0.7691 -1.0557
  842MOL0     C13574   7.263   6.885   2.355 -0.4160  0.1762 -0.4641
  842MOL0     C13575   7.315   6.866   2.212  0.6495  0.3004  0.0808
  842MOL0     C13576   7.307   6.719   2.166 -0.5816 -0.1606  0.1973
  842MOL0     C13577   7.434   6.654   2.237  0.2466  0.0170  0.6149
  842MOL0     C13578   7.457   6.521   2.163  0.0047  0.2539 -0.0284
  842MOL0    Cl13579   7.590   6.442   2.265  0.3453 -0.1520  0.0810
  842MOL0     C13580   6.643   6.886   2.637  0.0714  0.5550 -0.2596
  842MOL0     C13581   6.510   6.873   2.685 -0.0794  0.9165  0.1772
  842MOL0     O13582   6.362   6.639   2.890 -0.0147 -0.2130 -0.4544
  842MOL0     C13583   6.134   6.867   3.035  0.2799 -0.0841 -0.6230
  842MOL0     C13584   6.001   6.865   3.086 -0.3017  0.7927 -0.3517
  842MOL0     N13585   5.394   6.436   2.909 -0.5193  0.0604  0.0859
  842MOL0     N13586   5.269   6.437   2.915 -0.1490  0.1520 -0.4377
  842MOL0     C13587   4.145   6.179   3.123 -0.1127  0.4636  0.3385
  842MOL0     C13588   4.006   6.180   3.140 -0.5891  0.1942 -0.1022
  842MOL0     C13589   3.579   6.037   3.291 -0.3771  0.2133 -0.8155
  842MOL0     C13590   3.533   6.115   3.185  0.8955 -0.0774 -0.5705
  842MOL0     C13591   3.398   6.122   3.160  0.0851 -0.2179 -0.1857
  842MOL0     C13592   3.311   6.041   3.229  0.6929  0.4749  0.4082
  842MOL0     O13593   3.178   6.045   3.194 -0.3083  0.5521  0.1634
  842MOL0     C13594   3.085   6.069   3.301 -0.0857  0.6275 -0.2505
  842MOL0     C13595   2.950   6.126   3.267 -0.7160 -0.0150  0.3328
  842MOL0     C13596   2.862   6.019   3.194  0.4562 -0.0775  0.7870
  842MOL0     C13597   2.824   6.074   3.061  0.3759 -0.3602  0.2687
  842MOL0     C13598   2.720   6.181   3.064  0.2231  0.0273  0.1003
  842MOL0     C13599   2.643   6.271   3.080  0.3597 -0.4158  0.2106
  842MOL0     C13600   3.356   5.946   3.316  0.0204  0.0119 -0.1977
  842MOL0     C13601   3.491   5.945   3.350  0.5952  0.3391  0.3927
  842MOL0     C13602   3.526   5.841   3.456  0.4938 -0.8262  0.1318
  842MOL0     H13603   3.980   5.946   3.383  1.2095 -2.3992 -0.8193
  842MOL0     H13604   4.209   5.931   3.352  1.5740  1.0190 -1.0775
  842MOL0     H13605   4.349   6.098   3.423  2.0026  0.0999  2.2544
  842MOL0     H13606   4.485   6.023   3.336  2.2926  0.7463 -1.5445
  842MOL0     H13607   4.531   6.249   3.456 -2.4866  0.5353  0.3490
  842MOL0     H13608   4.440   6.327   3.339  3.4885  1.6712 -1.3621
  842MOL0     H13609   4.600   6.186   3.162  0.5615 -0.2040 -0.3404
  842MOL0     H13610   4.708   6.182   3.302 -1.4655 -1.3089  0.9930
  842MOL0     H13611   4.591   6.418   3.157 -0.6845  3.1289  1.5638
  842MOL0     H13612   4.663   6.458   3.299  0.0596  1.1939 -0.1536
  842MOL0     H13613   4.894   6.361   3.216  0.4638  1.1109 -1.2570
  842MOL0     H13614   4.808   6.301   3.068  0.4736 -0.8660 -0.0961
  842MOL0     H13615   4.780   6.537   3.015  1.1623  1.9537 -0.2515
  842MOL0     H13616   4.867   6.579   3.163 -2.0472  1.3218 -0.0313
  842MOL0     H13617   5.039   6.597   3.025 -2.0033  0.1097  3.2286
  842MOL0     H13618   4.991   6.474   2.905 -1.2527 -1.0383  0.5147
  842MOL0     H13619   5.089   6.415   3.189 -0.8706 -0.2707  0.7644
  842MOL0     H13620   5.067   6.289   3.075  3.1829 -0.8100  1.9866
  842MOL0     H13621   5.343   6.374   3.223 -0.7036 -0.9625 -0.6092
  842MOL0     H13622   5.598   6.301   3.088 -0.1703 -1.8586 -3.4007
  842MOL0     H13623   5.629   6.431   2.978 -1.6659  2.1420 -0.5513
  842MOL0     H13624   5.571   6.468   3.275  1.2670 -1.1733 -0.5884
  842MOL0     H13625   5.726   6.474   3.212  0.3952  0.5082 -1.2171
  842MOL0     H13626   5.616   6.699   3.259  0.5908  0.4001 -1.2432
  842MOL0     H13627   5.489   6.671   3.146 -0.7184 -0.5706  2.7048
  842MOL0     H13628   5.641   6.798   3.008  1.3610  1.0518 -0.1447
  842MOL0     H13629   5.716   6.641   2.991  0.6519 -2.4037  1.6756
  842MOL0     H13630   5.917   6.538   3.044 -3.2558  1.7233 -1.1711
  842MOL0     H13631   6.142   6.549   2.934  1.1729  0.7991 -2.0057
  842MOL0     H13632   6.593   6.847   3.010  1.9248  2.0775  0.5831
  842MOL0     H13633   6.815   6.890   2.921 -1.6871 -0.1561  2.1957
  842MOL0     H13634   6.887   6.834   2.480  0.3789 -0.3437 -0.2902
  842MOL0     H13635   6.870   7.014   2.477 -4.0607 -1.5022  1.1503
  842MOL0     H13636   7.100   7.021   2.562 -2.9309  1.4036  1.4930
  842MOL0     H13637   7.103   6.853   2.582 -1.4028  1.5066  1.9597
  842MOL0     H13638   7.061   6.845   2.301 -0.9597  1.1848 -2.0254
  842MOL0     H13639   7.123   7.013   2.312  1.2183  0.0479  0.5812
  842MOL0     H13640   7.278   6.795   2.416  2.5138  1.0117  0.2142
  842MOL0     H13641   7.315   6.965   2.409  0.5742 -1.3241  0.9070
  842MOL0     H13642   7.415   6.908   2.201  0.8671 -0.5217 -1.2128
  842MOL0     H13643   7.266   6.933   2.142  2.4653  0.9226 -0.6516
  842MOL0     H13644   7.223   6.672   2.218  0.1785  0.5641  2.1510
  842MOL0     H13645   7.300   6.699   2.058 -0.0186 -1.8515  0.4351
  842MOL0     H13646   7.410   6.636   2.343  0.5441  3.1145  1.2994
  842MOL0     H13647   7.525   6.714   2.235  0.2010  0.3846  3.9827
  842MOL0     H13648   7.368   6.459   2.147  1.7981 -2.6843  0.4924
  842MOL0     H13649   7.489   6.558   2.066 -2.2252  1.6757 -0.2985
  842MOL0     H13650   6.645   6.901   2.529  0.7644 -0.7536 -0.4534
  842MOL0     H13651   6.423   6.888   2.621 -0.4109  3.1683  1.0515
  842MOL0     H13652   6.195   6.956   3.046 -0.4893  0.2773  1.1273
  842MOL0     H13653   5.958   6.956   3.125 -0.9767  0.6945 -0.8418
  842MOL0     H13654   4.205   6.245   3.063 -1.0154 -0.8122 -2.1099
  842MOL0     H13655   3.953   6.258   3.087  0.4914  4.0539  3.9099
  842MOL0     H13656   3.600   6.181   3.132 -1.0316  0.5167 -2.3998
  842MOL0     H13657   3.354   6.192   3.089 -0.2222 -0.2892 -0.0627
  842MOL0     H13658   3.140   6.123   3.379 -0.1911  0.1252  0.1806
  842MOL0     H13659   3.078   5.972   3.352 -0.4742  0.3538 -0.8186
  842MOL0     H13660   2.973   6.207   3.196  1.5335 -2.1218 -1.5430
  842MOL0     H13661   2.897   6.168   3.353 -1.2888 -2.6728  1.3563
  842MOL0     H13662   2.779   5.996   3.262 -0.7624  1.1859 -0.2133
  842MOL0     H13663   2.917   5.926   3.178  0.4330 -0.1126  0.9127
  842MOL0     H13664   2.911   6.116   3.011  0.6235 -0.4927  0.5879
  842MOL0     H13665   2.787   5.992   2.998  2.4115 -0.5424 -0.7508
  842MOL0     H13666   2.590   6.363   3.075  2.1841  0.6281 -1.5142
  842MOL0     H13667   3.296   5.868   3.362  2.2937 -2.1212 -0.6266
  842MOL0     H13668   3.452   5.761   3.456  1.0729 -1.4776 -2.7188
  842MOL0     H13669   3.622   5.799   3.424  0.0212 -1.3199 -0.6832
  842MOL0     H13670   3.540   5.885   3.555 -1.5103 -0.0251  0.0990
  843MOL0     O13671   5.465   1.935   4.048  0.5492  0.3710  0.6487
  843MOL0     C13672   5.385   1.970   4.131  0.0655 -0.5717  0.4632
  843MOL0     O13673   5.410   2.053   4.228 -0.4537  0.3979 -0.0790
  843MOL0     C13674   5.532   2.100   4.263 -0.5920 -0.6207 -0.8041
  843MOL0     C13675   5.652   2.027   4.252  0.6869 -0.5585 -0.3320
  843MOL0     C13676   5.771   2.080   4.291 -0.3356 -0.2179  0.1413
  843MOL0     C13677   5.785   2.201   4.353  0.3005  0.1976  0.1731
  843MOL0     O13678   5.908   2.228   4.404  0.2184 -0.0824  0.4784
  843MOL0     C13679   5.939   2.353   4.474  0.4667 -0.2161  0.1143
  843MOL0     C13680   6.005   2.447   4.367 -0.0807  0.6579 -0.1499
  843MOL0     C13681   6.148   2.409   4.327 -0.1918  0.6595 -0.2592
  843MOL0     C13682   6.240   2.438   4.446 -0.3416  0.3933  0.5263
  843MOL0     C13683   6.385   2.451   4.409  0.5278 -0.3495 -0.8246
  843MOL0     C13684   6.471   2.505   4.530  0.1705  0.1285 -0.5122
  843MOL0     C13685   6.621   2.468   4.512  0.8015 -0.2738  0.3186
  843MOL0     C13686   6.713   2.511   4.629 -0.8842  0.3289 -0.0387
  843MOL0     N13687   6.853   2.468   4.609 -0.2109  0.3556 -0.1532
  843MOL0     C13688   6.957   2.530   4.554 -0.3851 -0.4210 -0.2033
  843MOL0     C13689   7.063   2.446   4.541  0.0157 -0.3217 -0.4708
  843MOL0     C13690   7.211   2.468   4.505 -0.2780  0.5275  0.5543
  843MOL0     C13691   7.279   2.546   4.605  0.1085  0.1579 -0.8870
  843MOL0     C13692   7.410   2.586   4.537 -0.4907 -0.0597 -0.0182
  843MOL0     C13693   7.489   2.667   4.629 -0.1055  0.4945  0.0692
  843MOL0     O13694   7.431   2.799   4.644  0.1861 -0.3813 -0.1735
  843MOL0     C13695   7.474   2.886   4.740 -0.0036  0.4798  0.2296
  843MOL0     C13696   7.386   2.980   4.784  0.4841  0.3819 -0.7473
  843MOL0     C13697   7.425   3.077   4.879  0.2619 -0.5902  0.9049
  843MOL0     C13698   7.544   3.057   4.946  1.1859  0.8790 -0.5554
  843MOL0     C13699   7.599   3.149   5.047  0.8165 -0.2944 -0.0314
  843MOL0     O13700   7.545   3.274   5.048 -0.0018 -0.2315 -0.5437
  843MOL0     C13701   7.611   3.377   5.101 -0.6633 -0.5871  0.2763
  843MOL0     C13702   7.547   3.458   5.198  0.1220 -0.4103 -0.5955
  843MOL0     C13703   7.611   3.570   5.247 -0.0676  0.0525  0.2054
  843MOL0     C13704   7.739   3.602   5.218 -0.2759 -0.7054 -0.1635
  843MOL0     O13705   7.790   3.717   5.270  0.3042  0.2657 -0.4627
  843MOL0     C13706   7.934   3.744   5.276  0.1459  0.3720  0.0021
  843MOL0     C13707   7.967   3.869   5.356  0.4004  0.2250  0.0819
  843MOL0     C13708   7.946   3.833   5.495  0.2081  0.7399 -0.2570
  843MOL0     C13709   7.929   3.955   5.581  0.2587  0.0019  0.5359
  843MOL0     C13710   7.915   3.920   5.729 -0.0810  0.1438 -0.4288
  843MOL0     C13711   7.886   4.041   5.812  0.1413  0.5426 -0.3262
  843MOL0     C13712   8.017   4.124   5.825 -0.2928 -0.2793 -0.9549
  843MOL0     C13713   8.010   4.238   5.931  0.7288  0.5441  0.0889
  843MOL0    Cl13714   8.175   4.286   5.954  0.0761 -0.2082  0.0497
  843MOL0     C13715   7.810   3.525   5.126  0.0452  0.3841 -0.2685
  843MOL0     C13716   7.739   3.410   5.064 -0.3808  0.0017  0.0476
  843MOL0     O13717   7.682   3.104   5.124 -0.2591  0.2714 -0.4649
  843MOL0     C13718   7.635   2.958   4.896  0.2516 -0.5488 -0.2597
  843MOL0     C13719   7.600   2.874   4.797 -0.4573 -0.7620 -0.2751
  843MOL0     N13720   7.010   2.317   4.570  0.5339 -0.6517  0.3309
  843MOL0     N13721   6.891   2.340   4.614 -1.2853  0.6551  0.3218
  843MOL0     C13722   5.673   2.275   4.369  1.1375 -0.8377  0.2562
  843MOL0     C13723   5.548   2.228   4.319 -0.1952  0.2722 -0.6344
  843MOL0     C13724   5.244   1.930   4.114  0.7594  0.1727  0.5031
  843MOL0     C13725   5.146   1.992   4.205 -0.3043  0.5058  0.6391
  843MOL0     C13726   5.012   1.960   4.188 -0.5784 -0.4650 -1.1941
  843MOL0     C13727   4.967   1.868   4.093  0.8573  0.0998 -0.4326
  843MOL0     O13728   4.833   1.821   4.086  0.5032  0.0652 -0.2688
  843MOL0     C13729   4.745   1.935   4.123 -1.0067 -0.0897  0.0787
  843MOL0     C13730   4.604   1.901   4.082  0.3440 -0.3317 -0.6496
  843MOL0     C13731   4.550   1.759   4.112  0.1765 -1.1312  0.1053
  843MOL0     C13732   4.419   1.730   4.043  0.3681 -0.0146  0.1592
  843MOL0     C13733   4.305   1.807   4.100 -0.4572  0.8581 -1.0195
  843MOL0     C13734   4.208   1.880   4.125  0.1319 -0.3878  0.1660
  843MOL0     C13735   5.059   1.795   4.019 -0.1502  0.5418 -0.6103
  843MOL0     C13736   5.200   1.819   4.028 -1.0398 -0.5035 -0.4421
  843MOL0     C13737   5.294   1.736   3.937  0.1754 -0.1493 -0.4090
  843MOL0     H13738   5.646   1.925   4.215  0.6700 -0.7201  0.1037
  843MOL0     H13739   5.849   2.006   4.276  0.0015 -0.1137  1.2659
  843MOL0     H13740   5.853   2.402   4.519  1.5918 -0.4107  2.6866
  843MOL0     H13741   6.015   2.331   4.550 -0.1248 -3.1578 -0.0129
  843MOL0     H13742   6.009   2.547   4.412  3.3932 -0.2285  1.9252
  843MOL0     H13743   5.950   2.455   4.273 -0.5013 -0.4466 -0.0094
  843MOL0     H13744   6.178   2.471   4.242 -0.0705  0.5779 -0.2759
  843MOL0     H13745   6.164   2.307   4.291 -1.4464  0.9739 -1.8334
  843MOL0     H13746   6.216   2.536   4.489 -1.0316 -0.0537  1.1829
  843MOL0     H13747   6.229   2.352   4.513  2.6320 -2.2691 -2.0896
  843MOL0     H13748   6.418   2.358   4.363  0.8606 -0.0961 -1.1100
  843MOL0     H13749   6.401   2.524   4.328 -0.7110  0.3668 -0.4539
  843MOL0     H13750   6.460   2.613   4.542 -1.9791  0.0876 -1.6520
  843MOL0     H13751   6.435   2.468   4.626 -1.2228  4.2015  0.7486
  843MOL0     H13752   6.655   2.518   4.422 -1.8271  2.8305  0.8820
  843MOL0     H13753   6.636   2.362   4.488  1.4184  0.1425 -1.2343
  843MOL0     H13754   6.712   2.620   4.628  1.0246  0.4336 -3.1618
  843MOL0     H13755   6.677   2.469   4.723  2.0329 -2.7442 -0.1214
  843MOL0     H13756   6.965   2.635   4.528  0.5136 -0.5417 -0.4711
  843MOL0     H13757   7.250   2.367   4.494  0.0898  0.4712  2.1979
  843MOL0     H13758   7.213   2.516   4.406 -0.7843 -3.5950 -1.6707
  843MOL0     H13759   7.216   2.634   4.626 -1.3408 -1.2340  0.9433
  843MOL0     H13760   7.311   2.504   4.701 -2.2307 -0.4041 -0.2725
  843MOL0     H13761   7.384   2.650   4.452  0.9402 -2.6198 -2.5548
  843MOL0     H13762   7.468   2.499   4.504  0.8133  0.7542  0.0552
  843MOL0     H13763   7.592   2.666   4.594  0.8544 -0.8443  2.6393
  843MOL0     H13764   7.488   2.618   4.727  0.0150  3.4291  1.6746
  843MOL0     H13765   7.283   2.987   4.752  0.0695 -1.6165  0.0208
  843MOL0     H13766   7.353   3.146   4.922  0.1932 -0.6656  0.9119
  843MOL0     H13767   7.444   3.446   5.232  0.3595 -1.2711 -0.1563
  843MOL0     H13768   7.547   3.631   5.309 -0.8020 -1.3775  0.9127
  843MOL0     H13769   7.994   3.662   5.315  0.5795 -0.1868 -1.7336
  843MOL0     H13770   7.977   3.746   5.175 -1.0527  0.2126 -0.5261
  843MOL0     H13771   8.071   3.881   5.325  0.7733 -0.3937  1.0396
  843MOL0     H13772   7.915   3.962   5.329  1.2048  1.0105  1.1533
  843MOL0     H13773   7.853   3.778   5.513  2.1043 -1.9969  1.9532
  843MOL0     H13774   8.036   3.776   5.520  1.0189  0.4141 -3.4808
  843MOL0     H13775   7.831   4.000   5.561  1.4725  2.7367  0.2631
  843MOL0     H13776   8.010   4.027   5.564 -1.2302  1.5875 -0.2588
  843MOL0     H13777   8.005   3.865   5.760 -0.8436 -0.7500  0.2901
  843MOL0     H13778   7.838   3.850   5.762  0.5071  0.4426  1.7456
  843MOL0     H13779   7.805   4.105   5.776  0.7212  1.3256 -0.2805
  843MOL0     H13780   7.858   4.006   5.912 -1.0533  3.0242  0.2798
  843MOL0     H13781   8.043   4.161   5.726 -0.5732  0.8063 -0.6429
  843MOL0     H13782   8.101   4.058   5.848 -1.1939 -0.7446  1.3100
  843MOL0     H13783   7.950   4.315   5.882 -0.1268  0.9402  1.6839
  843MOL0     H13784   7.963   4.215   6.027  0.5811 -0.9626 -0.3171
  843MOL0     H13785   7.915   3.540   5.101 -0.5251  1.7913 -2.0259
  843MOL0     H13786   7.798   3.338   5.010 -1.8556 -1.4033  0.2403
  843MOL0     H13787   7.725   2.930   4.949 -0.1963 -1.6005 -0.0235
  843MOL0     H13788   7.667   2.790   4.783  1.6372  0.2080  2.8850
  843MOL0     H13789   5.677   2.365   4.429  1.4869  0.0198 -1.0039
  843MOL0     H13790   5.460   2.292   4.330 -2.1963 -1.9727 -2.3969
  843MOL0     H13791   5.169   2.075   4.271 -0.5837  0.9360  0.2062
  843MOL0     H13792   4.959   2.016   4.264 -0.1027 -0.9171 -0.5134
  843MOL0     H13793   4.769   2.033   4.080  0.8778 -1.3482 -1.9337
  843MOL0     H13794   4.749   1.951   4.231  1.1477 -2.1320  0.3900
  843MOL0     H13795   4.592   1.920   3.975 -3.5470 -1.7178 -0.6209
  843MOL0     H13796   4.540   1.980   4.121 -1.4482 -2.4586  1.0569
  843MOL0     H13797   4.529   1.736   4.217  0.9904  0.8665  0.7515
  843MOL0     H13798   4.623   1.690   4.068  1.9797  0.8176 -0.0840
  843MOL0     H13799   4.423   1.754   3.936 -1.9555  0.7690  0.1867
  843MOL0     H13800   4.409   1.621   4.045 -0.9722  0.0889  0.2485
  843MOL0     H13801   4.120   1.941   4.124  0.6607  0.4896 -2.6289
  843MOL0     H13802   5.021   1.716   3.954 -0.2241 -0.1391  0.2477
  843MOL0     H13803   5.383   1.711   3.994 -1.1614 -2.0073  0.9783
  843MOL0     H13804   5.237   1.648   3.906 -1.2567  0.0326  1.5173
  843MOL0     H13805   5.320   1.781   3.841  0.6583  0.0845 -0.1734
  844MOL0     O13806   9.511   1.418   5.905 -0.2859 -0.0985 -0.0532
  844MOL0     C13807   9.508   1.464   5.795  1.3143 -0.8795  0.0536
  844MOL0     O13808   9.596   1.547   5.729 -0.4278  0.0718 -0.2030
  844MOL0     C13809   9.733   1.557   5.764  0.9058  0.3730 -0.2701
  844MOL0     C13810   9.809   1.441   5.791  0.5189  0.0844  0.7205
  844MOL0     C13811   9.951   1.447   5.821  0.3267  0.2928 -0.3365
  844MOL0     C13812   9.998   1.585   5.823  0.1108 -0.2621  0.0714
  844MOL0     O13813  10.135   1.614   5.849 -0.3741  0.4506 -0.1515
  844MOL0     C13814  10.205   1.529   5.946  0.2068 -1.2462  0.7354
  844MOL0     C13815  10.334   1.599   5.993 -0.8813  0.0515  0.2767
  844MOL0     C13816  10.451   1.601   5.897 -0.5191  0.1586  0.0675
  844MOL0     C13817  10.571   1.685   5.941 -0.4590  0.2879 -0.1425
  844MOL0     C13818  10.546   1.839   5.963  0.0532  0.0305  0.3574
  844MOL0     C13819  10.675   1.917   5.997  0.1322  0.4145 -0.5723
  844MOL0     C13820  10.658   2.072   6.016 -0.0093 -0.8022 -0.7521
  844MOL0     C13821  10.654   2.138   5.877  0.5209 -0.8796  0.1296
  844MOL0     N13822  10.593   2.273   5.897 -0.3172 -0.9901 -0.0334
  844MOL0     C13823  10.668   2.382   5.875 -1.0357  1.0028 -0.7682
  844MOL0     C13824  10.587   2.482   5.870 -0.3997 -0.1512 -0.5429
  844MOL0     C13825  10.631   2.625   5.844  0.2134  0.3021 -0.3342
  844MOL0     C13826  10.714   2.659   5.721 -0.9695  0.0711 -0.0304
  844MOL0     C13827  10.867   2.649   5.754  0.2280  0.0600 -1.4105
  844MOL0     C13828  10.974   2.721   5.660  0.1634  0.7341  0.2387
  844MOL0     O13829  11.086   2.733   5.751  0.3394 -0.0152 -0.3442
  844MOL0     C13830  11.191   2.822   5.722 -0.0400  0.3984  0.3307
  844MOL0     C13831  11.296   2.834   5.813 -1.0326 -0.5409 -0.7757
  844MOL0     C13832  11.414   2.901   5.770 -0.1615  0.6693  0.0039
  844MOL0     C13833  11.437   2.949   5.634 -0.8196 -0.1740 -0.2801
  844MOL0     C13834  11.577   3.000   5.598  1.3939 -0.3554  0.3228
  844MOL0     O13835  11.664   2.985   5.702  0.0339 -0.3932 -0.0757
  844MOL0     C13836  11.800   3.032   5.704  0.4148  0.3962 -0.7296
  844MOL0     C13837  11.832   3.165   5.681 -0.0420 -0.6389  0.0594
  844MOL0     C13838  11.966   3.206   5.690  0.3652  0.8152 -0.3282
  844MOL0     C13839  12.065   3.109   5.708 -0.1303  0.3329 -0.0514
  844MOL0     O13840  12.201   3.150   5.683  0.0393  0.0935  0.2944
  844MOL0     C13841  12.311   3.064   5.733 -0.1501  0.1427  0.4814
  844MOL0     C13842  12.446   3.138   5.734  0.2991 -0.2548 -0.3489
  844MOL0     C13843  12.555   3.052   5.796 -0.0939 -0.6296 -0.6419
  844MOL0     C13844  12.696   3.093   5.760 -0.7683 -0.5504  0.4866
  844MOL0     C13845  12.735   3.069   5.616  0.2108 -0.1472 -0.0495
  844MOL0     C13846  12.882   3.086   5.590 -0.9571  0.1207  0.1964
  844MOL0     C13847  12.893   3.126   5.444  0.1359  1.5533  0.7931
  844MOL0     C13848  13.040   3.155   5.392  0.0112 -0.6862 -0.7052
  844MOL0    Cl13849  13.119   2.999   5.378 -0.0274  0.0810 -0.0691
  844MOL0     C13850  12.035   2.971   5.729  0.1668 -0.7537 -0.3254
  844MOL0     C13851  11.903   2.937   5.737  0.3819  0.6344 -0.0479
  844MOL0     O13852  11.600   3.049   5.485 -0.3391  0.8760  0.2986
  844MOL0     C13853  11.326   2.956   5.550  0.7264 -0.1638 -0.3170
  844MOL0     C13854  11.207   2.887   5.595 -0.1810 -0.2605  0.0670
  844MOL0     N13855  10.459   2.431   5.884 -0.0435  0.1056 -0.1145
  844MOL0     N13856  10.464   2.301   5.880  0.2364  0.0712  0.5107
  844MOL0     C13857   9.920   1.698   5.798 -0.3870 -0.0739 -0.1573
  844MOL0     C13858   9.786   1.683   5.759 -0.1902  0.7167  0.3331
  844MOL0     C13859   9.371   1.462   5.736 -0.0001  0.6465 -0.9894
  844MOL0     C13860   9.344   1.548   5.623 -0.3856  0.2389 -0.5454
  844MOL0     C13861   9.216   1.547   5.563  0.3933  0.2576  0.0407
  844MOL0     C13862   9.113   1.473   5.611  0.0725 -1.1316  0.5361
  844MOL0     O13863   8.980   1.483   5.567  0.3438  0.1586  0.5027
  844MOL0     C13864   8.944   1.559   5.453 -0.3284  0.0188 -0.1369
  844MOL0     C13865   8.856   1.490   5.347 -0.3463  0.2601  0.0903
  844MOL0     C13866   8.784   1.582   5.259 -0.7177 -0.1568 -0.2488
  844MOL0     C13867   8.717   1.512   5.138  0.1265 -0.4444 -0.3499
  844MOL0     C13868   8.657   1.610   5.041  0.0197 -0.5549 -0.7797
  844MOL0     C13869   8.607   1.683   4.965 -0.5647 -0.0643  0.0221
  844MOL0     C13870   9.134   1.392   5.717  0.4367  0.1946 -0.5860
  844MOL0     C13871   9.261   1.382   5.783 -0.5152 -0.3152  0.3978
  844MOL0     C13872   9.273   1.274   5.890 -0.5535 -0.5078 -0.5236
  844MOL0     H13873   9.766   1.342   5.793  1.7258 -0.4695  0.3302
  844MOL0     H13874  10.016   1.362   5.839 -0.5409  0.3878  4.3606
  844MOL0     H13875  10.141   1.508   6.032 -0.2470  0.2936  0.7893
  844MOL0     H13876  10.224   1.432   5.898 -2.3811 -1.0958 -0.7246
  844MOL0     H13877  10.366   1.537   6.078  0.3066 -4.0748 -2.8639
  844MOL0     H13878  10.300   1.701   6.014  0.7982  1.1264 -1.8404
  844MOL0     H13879  10.419   1.639   5.799  2.4323 -1.1422 -1.5483
  844MOL0     H13880  10.490   1.499   5.885 -2.1440 -0.2601 -2.3672
  844MOL0     H13881  10.614   1.632   6.027 -0.0288 -1.9218 -1.6364
  844MOL0     H13882  10.651   1.678   5.867 -0.8441  2.3957 -0.8048
  844MOL0     H13883  10.498   1.872   5.870 -0.9387  1.6099  1.3821
  844MOL0     H13884  10.470   1.855   6.040 -0.4236 -0.1548 -0.0707
  844MOL0     H13885  10.713   1.858   6.081 -0.4605 -0.8222 -1.1595
  844MOL0     H13886  10.753   1.901   5.923  0.9901  2.6245 -0.2318
  844MOL0     H13887  10.732   2.124   6.078 -1.4105  0.5647 -0.1629
  844MOL0     H13888  10.565   2.091   6.069 -0.3071 -0.4997 -1.3691
  844MOL0     H13889  10.753   2.147   5.831 -0.7208  0.5077 -2.5395
  844MOL0     H13890  10.599   2.070   5.812  1.0094 -0.8379 -0.3353
  844MOL0     H13891  10.776   2.390   5.867 -0.7613  1.0505  2.0885
  844MOL0     H13892  10.540   2.686   5.846 -0.5628 -0.8224  0.4638
  844MOL0     H13893  10.685   2.652   5.935 -2.0933  2.3312  0.5690
  844MOL0     H13894  10.692   2.591   5.638 -1.6202  0.8344 -0.4955
  844MOL0     H13895  10.693   2.760   5.686 -2.2094 -0.5747 -1.3171
  844MOL0     H13896  10.895   2.548   5.786 -0.9115 -0.9086 -3.2868
  844MOL0     H13897  10.882   2.721   5.836 -3.8981  1.5616 -1.7245
  844MOL0     H13898  10.943   2.818   5.620  3.0920  0.7384 -2.3943
  844MOL0     H13899  10.988   2.659   5.571  1.1148  0.0596  0.8325
  844MOL0     H13900  11.286   2.788   5.911 -1.1481  0.9422 -0.0598
  844MOL0     H13901  11.485   2.903   5.851  1.0112  0.4971 -0.9914
  844MOL0     H13902  11.753   3.225   5.638  0.6642  0.5348  0.3449
  844MOL0     H13903  11.990   3.309   5.666 -0.3908  1.4220  1.3692
  844MOL0     H13904  12.283   3.023   5.831 -2.7386 -2.0462 -1.0282
  844MOL0     H13905  12.326   2.990   5.654  0.0184 -0.1576  0.7909
  844MOL0     H13906  12.472   3.168   5.632 -2.7970  1.4491 -0.7771
  844MOL0     H13907  12.433   3.220   5.805  1.1096  0.3148 -0.8379
  844MOL0     H13908  12.543   3.059   5.905 -1.3439 -0.0020 -0.8039
  844MOL0     H13909  12.543   2.946   5.770  2.6605 -1.2337  0.1649
  844MOL0     H13910  12.771   3.034   5.814  0.9180 -1.3959 -2.5632
  844MOL0     H13911  12.715   3.198   5.782 -0.8114 -0.3291 -0.4932
  844MOL0     H13912  12.682   3.138   5.549  1.2133 -0.9537 -1.7324
  844MOL0     H13913  12.712   2.966   5.587  3.7265 -0.9797 -0.3077
  844MOL0     H13914  12.928   3.171   5.642  1.6268 -1.2995  0.3735
  844MOL0     H13915  12.935   2.994   5.615 -2.0691 -1.3719 -2.5624
  844MOL0     H13916  12.829   3.212   5.425  0.7070  1.7149 -0.4620
  844MOL0     H13917  12.851   3.038   5.394 -0.8584  0.8178  2.8085
  844MOL0     H13918  13.037   3.209   5.297  0.4685  4.6149  1.9360
  844MOL0     H13919  13.100   3.213   5.463  0.0970 -1.1071 -0.4276
  844MOL0     H13920  12.121   2.908   5.751  2.2343  1.4043 -1.7420
  844MOL0     H13921  11.881   2.833   5.757 -1.1732  0.9705  0.0884
  844MOL0     H13922  11.331   2.995   5.449  2.4103 -2.9251 -1.3853
  844MOL0     H13923  11.123   2.887   5.527  1.3819  1.7345 -1.9797
  844MOL0     H13924   9.955   1.801   5.790 -0.6525  0.0896  0.6484
  844MOL0     H13925   9.721   1.768   5.740  2.2893  2.5092 -0.6385
  844MOL0     H13926   9.419   1.603   5.567  0.2681 -1.0738 -0.9923
  844MOL0     H13927   9.211   1.621   5.483 -1.4167  1.6943  1.4129
  844MOL0     H13928   9.034   1.589   5.399  1.5023 -0.9109  2.2042
  844MOL0     H13929   8.894   1.646   5.498  1.6130  2.1706 -1.8476
  844MOL0     H13930   8.791   1.414   5.392  0.0083  0.0988  0.3308
  844MOL0     H13931   8.932   1.434   5.293  0.3525  1.0588  0.2315
  844MOL0     H13932   8.848   1.658   5.214  0.4852 -0.9574  0.0510
  844MOL0     H13933   8.708   1.635   5.316 -1.5776  1.2636 -2.6211
  844MOL0     H13934   8.792   1.446   5.093  1.1300 -0.4475  1.2244
  844MOL0     H13935   8.643   1.443   5.177 -0.2711  0.3456  0.3149
  844MOL0     H13936   8.571   1.741   4.883  2.0576 -1.6903 -2.4466
  844MOL0     H13937   9.057   1.325   5.755  0.0482  0.1866 -1.3723
  844MOL0     H13938   9.309   1.315   5.985  1.7719 -0.1012 -1.5103
  844MOL0     H13939   9.174   1.234   5.915 -0.2135  0.4514  2.8877
  844MOL0     H13940   9.344   1.200   5.853 -1.3297 -1.3321 -0.4155
  845MOL0     O13941   0.124   4.294  10.269 -0.5336 -0.2719 -0.3250
  845MOL0     C13942   0.078   4.177  10.264  0.1151 -0.3856 -0.1110
  845MOL0     O13943   0.154   4.067  10.256  0.0415  0.0748 -0.0050
  845MOL0     C13944   0.288   4.095  10.261  0.6947  0.0273 -0.2621
  845MOL0     C13945   0.363   4.045  10.362 -0.4772  0.9281  0.2790
  845MOL0     C13946   0.502   4.050  10.363 -0.1458 -0.3151 -0.2848
  845MOL0     C13947   0.570   4.117  10.259 -0.1724 -0.3792 -0.6340
  845MOL0     O13948   0.709   4.129  10.258  0.3496 -0.7170 -0.3124
  845MOL0     C13949   0.787   4.034  10.328 -0.5583 -0.3287 -0.0893
  845MOL0     C13950   0.935   4.029  10.266 -0.3041 -0.4531 -0.4803
  845MOL0     C13951   1.007   4.168  10.283  0.1697  0.3702  0.0582
  845MOL0     C13952   1.129   4.177  10.199 -1.1295  0.4202  0.0017
  845MOL0     C13953   1.226   4.284  10.260 -1.1065 -0.1449  0.2885
  845MOL0     C13954   1.341   4.337  10.169  0.3621 -0.2900 -0.8871
  845MOL0     C13955   1.440   4.413  10.252  0.0377  0.4140 -0.3714
  845MOL0     C13956   1.531   4.488  10.163  0.0854 -0.1503  0.6993
  845MOL0     N13957   1.636   4.574  10.229 -0.4554  0.4309 -0.0546
  845MOL0     C13958   1.600   4.669  10.320  0.5443 -0.0971  0.8717
  845MOL0     C13959   1.727   4.707  10.358 -0.8132 -0.3298  0.1309
  845MOL0     C13960   1.763   4.826  10.441  0.7113 -0.2160  0.3349
  845MOL0     C13961   1.638   4.892  10.518 -0.0689  1.0302  0.6187
  845MOL0     C13962   1.666   5.029  10.587  0.8242  0.0152 -0.1235
  845MOL0     C13963   1.795   5.035  10.668  0.1071 -0.5113  0.8667
  845MOL0     O13964   1.804   4.939  10.778  0.3469  0.1303  0.1283
  845MOL0     C13965   1.921   4.936  10.859 -0.0389 -0.4308  0.7291
  845MOL0     C13966   1.941   4.834  10.953 -0.0697  0.0699 -0.6732
  845MOL0     C13967   2.057   4.815  11.030 -0.2440 -0.0444  1.1609
  845MOL0     C13968   2.173   4.896  10.999  0.6771 -0.1664 -1.0333
  845MOL0     C13969   2.302   4.874  11.069  0.8857 -0.4919  0.4760
  845MOL0     O13970   2.301   4.814  11.195 -0.6321 -0.4141  0.2101
  845MOL0     C13971   2.425   4.774  11.238 -0.2867 -0.1897 -0.4647
  845MOL0     C13972   2.504   4.853  11.316  0.0143 -0.2572 -0.6579
  845MOL0     C13973   2.634   4.817  11.358  0.9647  0.6360 -0.6795
  845MOL0     C13974   2.680   4.685  11.338 -0.3613  0.5268  0.3915
  845MOL0     O13975   2.803   4.652  11.394 -0.0227  0.1286 -0.2051
  845MOL0     C13976   2.864   4.516  11.384 -0.2740  0.1875 -0.0424
  845MOL0     C13977   3.006   4.526  11.341  0.8394 -0.0702  0.3814
  845MOL0     C13978   3.077   4.394  11.353  0.2429  0.1604 -0.0997
  845MOL0     C13979   3.224   4.396  11.311 -0.6126 -1.0922  0.1772
  845MOL0     C13980   3.287   4.250  11.307 -0.4715  0.5095 -0.8487
  845MOL0     C13981   3.441   4.251  11.295 -0.5973  0.6445  0.6810
  845MOL0     C13982   3.498   4.117  11.313  0.0037  0.1522  0.3278
  845MOL0     C13983   3.652   4.125  11.276  0.8456  0.2029  0.0840
  845MOL0    Cl13984   3.737   4.230  11.393  0.1346  0.7521  0.1806
  845MOL0     C13985   2.598   4.598  11.253  0.1134  0.1058  0.0050
  845MOL0     C13986   2.473   4.648  11.208  0.9915  0.0710 -0.1016
  845MOL0     O13987   2.402   4.893  10.996 -0.5175 -0.4885 -0.1414
  845MOL0     C13988   2.160   4.987  10.898  0.4282  0.0943 -0.1298
  845MOL0     C13989   2.039   5.015  10.836 -0.1622  0.5342  0.3240
  845MOL0     N13990   1.828   4.618  10.313 -0.7587 -0.5784 -0.0249
  845MOL0     N13991   1.770   4.542  10.233  0.6801 -0.0519  0.3891
  845MOL0     C13992   0.495   4.180  10.158  0.5374  0.2705  0.1746
  845MOL0     C13993   0.359   4.158  10.155 -0.4608 -0.5422 -0.0098
  845MOL0     C13994  -0.072   4.165  10.252 -0.1411 -0.1730  0.1345
  845MOL0     C13995  -0.115   4.043  10.196  0.6785  0.4323  0.8995
  845MOL0     C13996  -0.250   4.027  10.159 -0.3940  0.4766 -0.3260
  845MOL0     C13997  -0.347   4.123  10.191  0.8026 -0.3903 -0.0045
  845MOL0     O13998  -0.483   4.113  10.165 -0.4091 -0.0008  0.7558
  845MOL0     C13999  -0.531   4.003  10.086 -0.2454 -0.4506 -0.8498
  845MOL0     C14000  -0.504   4.007   9.943 -0.5113 -0.1551  0.1846
  845MOL0     C14001  -0.590   3.910   9.864  0.3602  0.5129  0.6307
  845MOL0     C14002  -0.542   3.889   9.719  0.5985  1.1813  0.7037
  845MOL0     C14003  -0.525   4.019   9.651  0.5548 -0.3309 -0.2414
  845MOL0     C14004  -0.518   4.119   9.586 -0.0353  0.2101  0.3301
  845MOL0     C14005  -0.301   4.246  10.241 -0.2465  0.4824 -0.4099
  845MOL0     C14006  -0.166   4.266  10.269  0.0467 -0.4988 -0.7705
  845MOL0     C14007  -0.129   4.408  10.311  0.7845 -0.5519 -0.1493
  845MOL0     H14008   0.309   4.000  10.446 -1.4812 -0.5125 -1.0702
  845MOL0     H14009   0.563   4.008  10.442  1.0347  0.4834 -0.7405
  845MOL0     H14010   0.797   4.054  10.435  3.4545  0.8836 -0.4960
  845MOL0     H14011   0.738   3.938  10.313  1.6963 -1.3325 -1.8032
  845MOL0     H14012   0.931   3.995  10.162 -0.7698 -2.0033  0.0201
  845MOL0     H14013   0.983   3.955  10.330 -3.0583 -0.5770  1.6397
  845MOL0     H14014   1.036   4.177  10.388  2.5690  1.3367 -0.6320
  845MOL0     H14015   0.932   4.246  10.266  1.0327  1.7468  2.1884
  845MOL0     H14016   1.178   4.080  10.189  0.2369  1.0360  0.5002
  845MOL0     H14017   1.105   4.205  10.096 -0.5008  0.6575 -0.0851
  845MOL0     H14018   1.169   4.375  10.278 -0.9931  0.3428 -1.5621
  845MOL0     H14019   1.266   4.262  10.359 -1.3863  1.9011  0.9015
  845MOL0     H14020   1.398   4.257  10.120  1.8364  0.5840 -0.6803
  845MOL0     H14021   1.292   4.385  10.085 -2.5376  0.0377  0.8772
  845MOL0     H14022   1.503   4.341  10.305  0.0366  2.1574  2.1690
  845MOL0     H14023   1.386   4.474  10.325  2.0802  1.7849  0.0819
  845MOL0     H14024   1.591   4.418  10.104  0.7780  2.2162 -1.6027
  845MOL0     H14025   1.472   4.546  10.092 -0.1114 -0.2789  0.7573
  845MOL0     H14026   1.506   4.715  10.349  1.2872  1.1241  1.4346
  845MOL0     H14027   1.836   4.795  10.517  0.6020  1.1736  1.0242
  845MOL0     H14028   1.816   4.899  10.379  0.2801  0.2870  0.5551
  845MOL0     H14029   1.561   4.906  10.442  0.7981  0.1326 -0.4601
  845MOL0     H14030   1.604   4.816  10.590  1.5383  0.7348  1.1184
  845MOL0     H14031   1.580   5.048  10.652  1.2433  0.1633  0.3901
  845MOL0     H14032   1.665   5.102  10.506 -3.1581  0.6585  0.3132
  845MOL0     H14033   1.799   5.134  10.714 -2.4208  0.4152 -0.7014
  845MOL0     H14034   1.887   5.018  10.610  1.0700  0.8599  1.9328
  845MOL0     H14035   1.872   4.757  10.988  0.0208  1.2951  2.5906
  845MOL0     H14036   2.062   4.745  11.114 -1.1040  1.7339  2.7612
  845MOL0     H14037   2.466   4.954  11.332  0.0973 -0.2335 -0.6114
  845MOL0     H14038   2.692   4.884  11.420  1.8567 -0.4096 -0.3418
  845MOL0     H14039   2.863   4.467  11.481 -0.4804 -0.8292 -0.5510
  845MOL0     H14040   2.804   4.452  11.319  2.2054 -2.2654 -0.0775
  845MOL0     H14041   2.997   4.576  11.244 -0.9936 -2.2184 -0.6295
  845MOL0     H14042   3.061   4.588  11.414 -1.1805  0.6390  1.3822
  845MOL0     H14043   3.066   4.347  11.451  1.1187 -0.1695 -0.1550
  845MOL0     H14044   3.025   4.328  11.283  1.4730  0.7003 -1.5754
  845MOL0     H14045   3.276   4.456  11.386 -2.8257  0.3779  0.6344
  845MOL0     H14046   3.247   4.443  11.215  3.0797 -0.6383  1.1527
  845MOL0     H14047   3.243   4.202  11.219 -0.8908  0.3879 -0.5711
  845MOL0     H14048   3.252   4.202  11.399 -0.0964  1.0268 -0.4290
  845MOL0     H14049   3.461   4.291  11.195 -1.9952  0.7161  0.4109
  845MOL0     H14050   3.490   4.305  11.376 -1.2248 -0.4682  1.8484
  845MOL0     H14051   3.444   4.054  11.242 -0.3330  0.0282  0.6877
  845MOL0     H14052   3.495   4.076  11.414  0.0662 -1.5384 -0.3344
  845MOL0     H14053   3.682   4.020  11.275 -1.3285 -0.4841 -1.5262
  845MOL0     H14054   3.667   4.161  11.174 -0.9707 -0.5028 -0.4754
  845MOL0     H14055   2.617   4.497  11.218  0.1403  0.0234  0.2526
  845MOL0     H14056   2.403   4.588  11.151 -2.0615  2.5010  0.7719
  845MOL0     H14057   2.245   5.048  10.869  2.5343 -2.8850 -0.6739
  845MOL0     H14058   2.038   5.085  10.753  1.0349 -1.2838 -1.3114
  845MOL0     H14059   0.543   4.236  10.078  2.0877  0.2224  1.0341
  845MOL0     H14060   0.322   4.201  10.063 -0.2910 -4.9939 -2.4605
  845MOL0     H14061  -0.052   3.958  10.173 -2.1961 -1.4257 -0.8324
  845MOL0     H14062  -0.282   3.939  10.104 -0.4658  0.2050  0.1409
  845MOL0     H14063  -0.639   4.007  10.105 -0.6911 -0.7029 -3.0937
  845MOL0     H14064  -0.493   3.909  10.128  0.5369 -0.2227 -1.0262
  845MOL0     H14065  -0.397   3.987   9.932 -0.4648  0.4296 -0.5118
  845MOL0     H14066  -0.522   4.109   9.908  0.1570  0.1211  0.6179
  845MOL0     H14067  -0.695   3.942   9.864  0.1140 -0.2769  1.1442
  845MOL0     H14068  -0.600   3.811   9.909 -0.5738  0.9726  1.4779
  845MOL0     H14069  -0.445   3.839   9.719 -0.6323 -1.3904 -0.4810
  845MOL0     H14070  -0.612   3.824   9.666  3.1169 -0.3846 -0.9833
  845MOL0     H14071  -0.529   4.212   9.533  2.0279 -1.4526 -3.4512
  845MOL0     H14072  -0.374   4.323  10.263 -0.5817 -0.3195  1.4940
  845MOL0     H14073  -0.071   4.456  10.232 -0.5193  1.6053  0.1159
  845MOL0     H14074  -0.214   4.478  10.311  1.2073 -0.0184 -1.1773
  845MOL0     H14075  -0.075   4.399  10.405 -5.0471 -0.2759  3.7265
  846MOL0     O14076   4.887   8.597   8.464 -0.5537  0.1353 -0.2944
  846MOL0     C14077   4.913   8.556   8.578 -0.9034 -0.8488  0.4554
  846MOL0     O14078   4.835   8.570   8.685 -0.2972 -0.2073  0.2414
  846MOL0     C14079   4.716   8.639   8.665  0.3768 -0.3446 -0.1300
  846MOL0     C14080   4.721   8.784   8.677 -1.2566  0.6644 -1.1072
  846MOL0     C14081   4.596   8.850   8.657  0.0555 -0.4503  0.4507
  846MOL0     C14082   4.487   8.784   8.616  0.5659  1.0349  0.3374
  846MOL0     O14083   4.369   8.852   8.605  0.2142 -0.5269 -0.1976
  846MOL0     C14084   4.249   8.819   8.681  0.3116  0.3509  0.6182
  846MOL0     C14085   4.130   8.877   8.603 -0.5754 -0.8662 -0.3248
  846MOL0     C14086   4.107   9.030   8.652 -0.3890  0.3011  0.0624
  846MOL0     C14087   3.949   9.053   8.650 -0.1170  0.3366 -0.4809
  846MOL0     C14088   3.895   9.195   8.679 -0.1878 -0.5145 -0.8130
  846MOL0     C14089   3.947   9.244   8.814 -0.1415  0.5842  0.0792
  846MOL0     C14090   3.891   9.383   8.855  0.3051 -0.3602 -0.0989
  846MOL0     C14091   3.949   9.424   8.988 -0.2979 -0.2965 -0.0254
  846MOL0     N14092   4.094   9.454   8.989 -0.1885  0.0087 -0.1845
  846MOL0     C14093   4.160   9.540   8.901 -0.1271  0.6620 -0.8645
  846MOL0     C14094   4.294   9.520   8.929  0.0370 -0.5536  0.3900
  846MOL0     C14095   4.421   9.565   8.876 -0.0640 -0.8472  0.3513
  846MOL0     C14096   4.438   9.514   8.730  0.3037 -0.2051  0.0264
  846MOL0     C14097   4.449   9.362   8.725  0.2026 -0.4434 -0.2739
  846MOL0     C14098   4.557   9.308   8.808 -0.1863  0.1538  0.1355
  846MOL0     O14099   4.692   9.362   8.783 -0.2213 -0.1082 -0.1767
  846MOL0     C14100   4.788   9.284   8.732  0.4485 -0.4671  0.3848
  846MOL0     C14101   4.908   9.320   8.770 -0.2287 -0.0699  0.1526
  846MOL0     C14102   5.022   9.240   8.732  0.1405 -0.2700  0.3544
  846MOL0     C14103   5.002   9.125   8.654 -1.1694 -0.3052  0.5731
  846MOL0     C14104   5.128   9.046   8.616 -0.0980  0.6253  0.6142
  846MOL0     O14105   5.249   9.083   8.669  0.1975 -0.4182  0.1088
  846MOL0     C14106   5.361   9.010   8.650 -0.7124  0.4059  0.8395
  846MOL0     C14107   5.487   9.082   8.659  0.4110 -0.1558  0.3110
  846MOL0     C14108   5.610   9.025   8.648  0.0437  0.0677 -0.1379
  846MOL0     C14109   5.627   8.888   8.628 -0.4449 -0.0124 -0.0005
  846MOL0     O14110   5.757   8.832   8.630  0.1897  0.1722  0.7764
  846MOL0     C14111   5.782   8.721   8.537  0.2477  0.0292  0.1406
  846MOL0     C14112   5.929   8.686   8.535  0.1706 -0.5906  0.1451
  846MOL0     C14113   5.978   8.592   8.648 -0.3114 -0.0086  0.6053
  846MOL0     C14114   6.130   8.593   8.650 -0.0956  0.6843  0.2573
  846MOL0     C14115   6.199   8.511   8.536 -0.0803  0.2552  0.7225
  846MOL0     C14116   6.355   8.486   8.553 -0.0541  0.0143  0.2914
  846MOL0     C14117   6.433   8.617   8.575 -0.2042 -0.4558  0.6447
  846MOL0     C14118   6.591   8.593   8.559  0.7479  0.6633  0.2942
  846MOL0    Cl14119   6.659   8.513   8.701 -0.0436  0.1401  0.1127
  846MOL0     C14120   5.508   8.808   8.627 -0.2762 -0.0510  0.3872
  846MOL0     C14121   5.380   8.872   8.639  0.6235  1.2131  0.2107
  846MOL0     O14122   5.107   8.946   8.549 -0.6587 -0.3809 -0.0889
  846MOL0     C14123   4.876   9.096   8.618 -0.0675  0.4520  0.1358
  846MOL0     C14124   4.767   9.175   8.654  0.8368 -0.2196  0.1235
  846MOL0     N14125   4.301   9.436   9.032 -0.0381 -0.3542 -1.1535
  846MOL0     N14126   4.193   9.384   9.057 -0.5132 -0.4219  0.2059
  846MOL0     C14127   4.491   8.642   8.602  0.1893 -0.5229  0.1896
  846MOL0     C14128   4.601   8.571   8.619 -0.5672  0.2268 -0.5656
  846MOL0     C14129   5.057   8.505   8.599  0.2195 -0.4020  0.3576
  846MOL0     C14130   5.154   8.567   8.521  0.0199  0.0386  0.6427
  846MOL0     C14131   5.287   8.520   8.526 -0.1841  0.1268  0.1832
  846MOL0     C14132   5.315   8.404   8.596 -0.5120 -0.1444  0.2842
  846MOL0     O14133   5.444   8.356   8.580 -0.5100  0.3736  0.1368
  846MOL0     C14134   5.470   8.220   8.613  0.9625  0.3697 -0.4955
  846MOL0     C14135   5.594   8.187   8.536 -0.5874 -0.7302 -0.5238
  846MOL0     C14136   5.647   8.050   8.543 -0.0533  0.2432 -0.0077
  846MOL0     C14137   5.779   8.025   8.470 -0.2267 -0.2537  0.1580
  846MOL0     C14138   5.887   8.094   8.534 -0.0662 -0.1263 -0.9030
  846MOL0     C14139   5.983   8.145   8.586 -0.0654 -0.3832  0.6790
  846MOL0     C14140   5.218   8.346   8.677  0.4968  0.3991 -0.2879
  846MOL0     C14141   5.090   8.401   8.688  0.0571 -0.3749  0.6120
  846MOL0     C14142   4.991   8.331   8.781 -0.7248 -0.4061  0.0128
  846MOL0     H14143   4.810   8.838   8.707 -1.1405  0.1152 -0.4343
  846MOL0     H14144   4.583   8.958   8.666 -1.4343 -0.3384 -2.2812
  846MOL0     H14145   4.227   8.712   8.689  1.2404  0.0001 -0.9774
  846MOL0     H14146   4.242   8.852   8.785 -0.7720  0.1597  0.6230
  846MOL0     H14147   4.042   8.820   8.632 -0.2228 -1.2223  0.0697
  846MOL0     H14148   4.141   8.869   8.495 -3.1428 -0.8788 -0.6345
  846MOL0     H14149   4.156   9.105   8.590  2.9812 -0.5938  1.4263
  846MOL0     H14150   4.138   9.050   8.755  0.3709 -0.7762  0.0592
  846MOL0     H14151   3.913   8.998   8.563 -1.3741 -0.9059  0.7773
  846MOL0     H14152   3.908   8.999   8.736  2.1070 -2.8632 -1.2155
  846MOL0     H14153   3.941   9.263   8.607 -0.2214  0.6240  0.2108
  846MOL0     H14154   3.786   9.197   8.683 -0.1497  0.4972  0.6723
  846MOL0     H14155   3.914   9.172   8.889 -0.2673  0.8596  0.2917
  846MOL0     H14156   4.055   9.255   8.807 -0.1456  2.9082  2.2239
  846MOL0     H14157   3.783   9.391   8.862  0.3372  3.5971 -1.5443
  846MOL0     H14158   3.915   9.468   8.791  0.0336  0.1403  0.4563
  846MOL0     H14159   3.905   9.521   9.012  2.7962  1.0101  0.9401
  846MOL0     H14160   3.928   9.354   9.069  2.1188 -1.7362 -0.5521
  846MOL0     H14161   4.109   9.604   8.830  0.9778  2.1613 -0.3629
  846MOL0     H14162   4.403   9.672   8.865 -3.2149 -1.5065 -2.9994
  846MOL0     H14163   4.499   9.545   8.950 -0.8510 -0.0301  1.4401
  846MOL0     H14164   4.351   9.562   8.684  0.2510 -0.7405 -0.4562
  846MOL0     H14165   4.517   9.562   8.671 -2.2180  1.4945 -2.2608
  846MOL0     H14166   4.468   9.334   8.621  0.8333  1.9395 -0.8657
  846MOL0     H14167   4.354   9.315   8.753 -1.3984  2.3650 -0.6185
  846MOL0     H14168   4.557   9.200   8.796 -0.7742 -0.0548  1.7179
  846MOL0     H14169   4.525   9.319   8.912 -2.6915  1.8197 -0.6829
  846MOL0     H14170   4.925   9.416   8.819 -0.1900  0.1477 -0.2825
  846MOL0     H14171   5.120   9.274   8.762 -0.5930  0.0318  2.6984
  846MOL0     H14172   5.501   9.187   8.685  0.7859 -0.5706  1.8587
  846MOL0     H14173   5.692   9.096   8.659 -1.3967  2.0722 -1.6021
  846MOL0     H14174   5.724   8.633   8.565 -0.7136 -0.3931 -2.8469
  846MOL0     H14175   5.752   8.746   8.434 -0.6388 -0.4039  0.2815
  846MOL0     H14176   5.941   8.632   8.441  2.9963 -0.6557  0.4457
  846MOL0     H14177   5.977   8.784   8.537 -2.3275  0.7017  1.1017
  846MOL0     H14178   5.937   8.623   8.744 -1.2589  0.4221  0.0837
  846MOL0     H14179   5.937   8.492   8.633  0.6723 -0.0414 -2.6899
  846MOL0     H14180   6.161   8.544   8.743  0.7315 -0.4110 -0.5716
  846MOL0     H14181   6.164   8.696   8.634  3.6079 -0.6900 -1.9583
  846MOL0     H14182   6.192   8.564   8.441  1.7042 -0.6141  0.0610
  846MOL0     H14183   6.168   8.409   8.514 -0.3061  0.4337  0.1946
  846MOL0     H14184   6.385   8.435   8.645  3.3583  0.8578 -0.1915
  846MOL0     H14185   6.387   8.428   8.466  1.4019  0.3145  0.5952
  846MOL0     H14186   6.410   8.661   8.673  1.1593  1.2219  0.2725
  846MOL0     H14187   6.399   8.695   8.505  0.8155  0.0621  0.7058
  846MOL0     H14188   6.610   8.532   8.470 -0.6698  0.0559  0.3782
  846MOL0     H14189   6.641   8.689   8.544  1.4339  0.3935  0.8668
  846MOL0     H14190   5.506   8.700   8.634 -1.5155  0.0880  3.5816
  846MOL0     H14191   5.288   8.817   8.650  1.7911 -1.1591 -1.1375
  846MOL0     H14192   4.862   9.003   8.563  1.6020 -1.4786  2.7288
  846MOL0     H14193   4.671   9.152   8.609  0.6229 -0.2901  0.6043
  846MOL0     H14194   4.402   8.585   8.574 -0.0610 -0.8696  1.6136
  846MOL0     H14195   4.604   8.464   8.599  2.1772 -0.6734  3.5151
  846MOL0     H14196   5.138   8.659   8.465  2.2919  0.7218  1.0064
  846MOL0     H14197   5.361   8.577   8.471  2.1704 -3.8964 -1.2641
  846MOL0     H14198   5.392   8.153   8.576  0.7182  0.1757  0.3369
  846MOL0     H14199   5.460   8.203   8.721 -1.8828  1.0997 -0.5426
  846MOL0     H14200   5.675   8.254   8.566 -2.4520  2.3941 -1.9611
  846MOL0     H14201   5.563   8.214   8.435 -3.0040  0.9039  0.5367
  846MOL0     H14202   5.575   7.985   8.492 -0.5446  0.6915  0.1074
  846MOL0     H14203   5.656   8.023   8.649  0.6728 -0.9646 -0.3556
  846MOL0     H14204   5.801   7.918   8.464  1.1671  0.0751 -1.3137
  846MOL0     H14205   5.776   8.069   8.370  0.3662  0.3897  0.4164
  846MOL0     H14206   6.072   8.197   8.617 -0.3172  0.4143  0.0720
  846MOL0     H14207   5.245   8.248   8.716 -1.7281  0.1299  0.7426
  846MOL0     H14208   4.895   8.314   8.731  0.5478  0.4350 -2.9340
  846MOL0     H14209   5.028   8.232   8.809 -1.6545 -0.7923 -0.0685
  846MOL0     H14210   4.977   8.385   8.876  1.5782 -1.5541  1.0733
  847MOL0     O14211   4.760   2.986   8.241 -0.0345 -0.6035 -0.2992
  847MOL0     C14212   4.730   2.961   8.354 -0.8236  0.5009  0.0194
  847MOL0     O14213   4.782   2.863   8.433 -0.1755 -0.4942  0.3846
  847MOL0     C14214   4.894   2.802   8.390  0.1599  0.7662  0.3361
  847MOL0     C14215   5.012   2.876   8.392  0.6337  0.4569  0.6333
  847MOL0     C14216   5.136   2.815   8.371 -0.1633  1.0392 -0.5175
  847MOL0     C14217   5.146   2.684   8.332  0.1912 -0.7158  0.9123
  847MOL0     O14218   5.269   2.644   8.282  0.6264 -0.0834 -0.2241
  847MOL0     C14219   5.286   2.498   8.274 -0.3215  0.4338 -0.0616
  847MOL0     C14220   5.430   2.464   8.295  0.3633 -0.4783  0.4111
  847MOL0     C14221   5.519   2.504   8.185 -0.8033  0.2846 -0.2586
  847MOL0     C14222   5.658   2.438   8.207  0.6494  0.2449  1.2241
  847MOL0     C14223   5.754   2.447   8.089 -0.1782  0.0487  0.0932
  847MOL0     C14224   5.882   2.360   8.104 -0.0758  0.2879  0.0572
  847MOL0     C14225   5.983   2.421   8.200 -0.1437  0.2484  0.3775
  847MOL0     C14226   6.099   2.322   8.194 -0.0025 -0.1874 -0.2612
  847MOL0     N14227   6.204   2.369   8.283  0.0349 -0.3247  0.1940
  847MOL0     C14228   6.273   2.476   8.256 -0.6474 -0.5642  0.0169
  847MOL0     C14229   6.383   2.471   8.331 -0.3311 -0.2089 -0.1060
  847MOL0     C14230   6.494   2.568   8.318 -0.5738 -0.2697 -1.1658
  847MOL0     C14231   6.582   2.529   8.198  0.4806 -0.8322  0.4278
  847MOL0     C14232   6.661   2.405   8.223  0.2468 -0.2838  0.4736
  847MOL0     C14233   6.784   2.423   8.324  0.3162 -0.4189 -0.0978
  847MOL0     O14234   6.815   2.300   8.383 -0.3419 -0.2905 -0.3697
  847MOL0     C14235   6.908   2.228   8.314  0.6985 -0.0339  0.1769
  847MOL0     C14236   6.954   2.253   8.187 -0.0023  0.8550 -1.1504
  847MOL0     C14237   7.039   2.162   8.123 -0.1705  0.9289 -0.4107
  847MOL0     C14238   7.091   2.046   8.193  0.6539 -0.1283 -0.4522
  847MOL0     C14239   7.180   1.952   8.129  0.3223  0.2863  0.1639
  847MOL0     O14240   7.217   1.843   8.208  0.3296 -0.4870 -0.4766
  847MOL0     C14241   7.351   1.814   8.228  0.7839 -0.4432 -1.1560
  847MOL0     C14242   7.428   1.740   8.143 -0.2407 -0.0136 -0.1429
  847MOL0     C14243   7.562   1.705   8.181  0.4183 -0.5596 -0.0426
  847MOL0     C14244   7.613   1.756   8.301 -1.0207  0.1916 -0.3833
  847MOL0     O14245   7.740   1.729   8.352  0.0205  0.5899 -0.4663
  847MOL0     C14246   7.830   1.626   8.291 -0.4537 -0.6767 -0.3478
  847MOL0     C14247   7.971   1.622   8.365  0.2899 -0.4876  0.3451
  847MOL0     C14248   8.089   1.674   8.277 -1.1659  0.5549 -0.0376
  847MOL0     C14249   8.066   1.826   8.271  1.1500 -0.1717 -0.4504
  847MOL0     C14250   8.202   1.889   8.219 -1.0736  0.9615  0.4262
  847MOL0     C14251   8.208   2.038   8.232 -0.8068 -0.1973  0.3237
  847MOL0     C14252   8.346   2.104   8.209  1.0667 -0.1739  0.3919
  847MOL0     C14253   8.333   2.256   8.180 -0.3439 -0.1637  1.1636
  847MOL0    Cl14254   8.498   2.326   8.180 -0.2015 -0.0288  0.6636
  847MOL0     C14255   7.531   1.837   8.386 -1.2980  0.8815  0.2503
  847MOL0     C14256   7.403   1.866   8.344 -0.0282  0.7202  0.5583
  847MOL0     O14257   7.239   1.988   8.032  0.5917  1.0799  0.5915
  847MOL0     C14258   7.040   2.026   8.322  0.4300 -0.4930  0.1128
  847MOL0     C14259   6.957   2.123   8.385  0.4434  0.1657 -0.4366
  847MOL0     N14260   6.363   2.368   8.420 -0.1992  1.0272 -0.0128
  847MOL0     N14261   6.255   2.306   8.397  0.1191 -0.3972  0.3797
  847MOL0     C14262   5.027   2.606   8.339 -0.4097  0.0277 -1.2836
  847MOL0     C14263   4.897   2.662   8.370 -0.8227  0.0686  0.8969
  847MOL0     C14264   4.613   3.033   8.417 -0.0583 -0.9005  0.7293
  847MOL0     C14265   4.581   2.999   8.548  0.3713  0.5795 -0.4114
  847MOL0     C14266   4.479   3.065   8.621 -1.1723 -0.3297 -1.1201
  847MOL0     C14267   4.399   3.154   8.564  0.4758 -0.6763  0.2385
  847MOL0     O14268   4.303   3.215   8.645  0.2444  0.6570  0.1177
  847MOL0     C14269   4.238   3.328   8.606  0.1781 -0.1413  0.0048
  847MOL0     C14270   4.333   3.455   8.626 -0.7415  0.8079 -0.1113
  847MOL0     C14271   4.272   3.576   8.555  0.2376 -0.5418 -0.0202
  847MOL0     C14272   4.145   3.628   8.637  0.0891  0.1555  0.0976
  847MOL0     C14273   4.021   3.583   8.578 -0.4886  0.0609  0.4539
  847MOL0     C14274   3.917   3.558   8.526 -0.3896 -0.0500  0.1763
  847MOL0     C14275   4.417   3.187   8.431 -0.5328 -0.0900 -0.1128
  847MOL0     C14276   4.520   3.131   8.360 -0.6233 -0.5157  1.4043
  847MOL0     C14277   4.554   3.175   8.214 -0.0528  0.2713  0.5925
  847MOL0     H14278   5.006   2.977   8.430 -1.2749  2.0713 -3.3413
  847MOL0     H14279   5.230   2.869   8.367 -0.1210  1.2428  1.8821
  847MOL0     H14280   5.238   2.431   8.346  2.5250 -1.2603  0.4167
  847MOL0     H14281   5.242   2.460   8.182  0.4941 -2.1189  0.5198
  847MOL0     H14282   5.443   2.359   8.324 -0.3991 -0.6364  0.1841
  847MOL0     H14283   5.470   2.513   8.385 -0.6719  0.7186  0.2490
  847MOL0     H14284   5.529   2.612   8.169  2.3749  0.8443  3.7942
  847MOL0     H14285   5.469   2.483   8.090 -1.7997  2.0770 -0.1679
  847MOL0     H14286   5.707   2.469   8.300  0.9410 -1.4254  1.6523
  847MOL0     H14287   5.640   2.331   8.220 -0.9220 -0.1595 -2.8435
  847MOL0     H14288   5.703   2.416   7.997 -0.9541 -0.1426  0.5777
  847MOL0     H14289   5.788   2.549   8.070 -0.6323  0.1296 -0.3231
  847MOL0     H14290   5.853   2.258   8.131  1.5400 -1.5798 -4.3517
  847MOL0     H14291   5.918   2.360   8.001 -0.7053 -1.9019 -0.2009
  847MOL0     H14292   5.931   2.440   8.295  0.6548  3.0000  0.3431
  847MOL0     H14293   6.009   2.518   8.156  1.5470 -0.3995 -0.1185
  847MOL0     H14294   6.063   2.225   8.229 -0.8430 -0.7142 -2.4168
  847MOL0     H14295   6.135   2.300   8.093  3.2455 -1.9156  1.1178
  847MOL0     H14296   6.260   2.552   8.179 -0.2817  1.6064  1.9947
  847MOL0     H14297   6.464   2.673   8.313  0.2030  0.1017  0.9579
  847MOL0     H14298   6.548   2.569   8.413 -2.4885  2.3384  0.0089
  847MOL0     H14299   6.508   2.523   8.117  0.3376  0.7807  0.4054
  847MOL0     H14300   6.651   2.609   8.172  2.4194 -2.3388  0.7414
  847MOL0     H14301   6.703   2.380   8.125  0.1394 -0.2933  0.4309
  847MOL0     H14302   6.600   2.321   8.258 -2.3894  0.9061 -1.0226
  847MOL0     H14303   6.754   2.486   8.409 -1.3758 -0.7503 -0.4203
  847MOL0     H14304   6.867   2.479   8.281  0.1964  2.3073  2.8343
  847MOL0     H14305   6.925   2.333   8.119 -0.6903  2.1673  0.6244
  847MOL0     H14306   7.074   2.183   8.023  2.8085 -1.3060  0.0269
  847MOL0     H14307   7.386   1.696   8.053  0.4671  1.5043 -1.2644
  847MOL0     H14308   7.627   1.642   8.121  2.6526  0.5469  1.1030
  847MOL0     H14309   7.781   1.528   8.289  1.1147 -1.4936  0.0094
  847MOL0     H14310   7.842   1.652   8.185  0.3655 -3.8077 -1.1190
  847MOL0     H14311   7.965   1.682   8.456 -0.7186 -1.1879  0.7576
  847MOL0     H14312   8.005   1.522   8.393  0.6938 -1.1750 -2.2664
  847MOL0     H14313   8.180   1.658   8.336 -1.5638 -0.3583  0.3437
  847MOL0     H14314   8.098   1.623   8.181 -0.9674  0.1456  0.1927
  847MOL0     H14315   8.053   1.857   8.375  1.0083 -1.3144 -0.1177
  847MOL0     H14316   7.980   1.846   8.207  1.3767 -0.2920 -0.7930
  847MOL0     H14317   8.220   1.855   8.117 -1.4350 -0.5664  0.8503
  847MOL0     H14318   8.280   1.841   8.279 -2.2752 -1.5290  0.1114
  847MOL0     H14319   8.131   2.094   8.179 -1.4548  0.2643  1.7047
  847MOL0     H14320   8.188   2.076   8.333  3.0359 -0.1781  1.2682
  847MOL0     H14321   8.391   2.046   8.128 -2.4086  0.4548 -2.2175
  847MOL0     H14322   8.420   2.081   8.286  4.5460 -0.6230 -2.7653
  847MOL0     H14323   8.277   2.274   8.088 -0.2443 -0.0227  1.1300
  847MOL0     H14324   8.280   2.316   8.254  2.1701  2.3610  1.1218
  847MOL0     H14325   7.577   1.860   8.482  2.2356  2.8137 -1.7113
  847MOL0     H14326   7.342   1.931   8.405  1.2084  0.8933  1.6498
  847MOL0     H14327   7.069   1.943   8.386 -1.7554 -2.6004 -1.4929
  847MOL0     H14328   6.929   2.131   8.489  0.0993 -2.0384 -0.3123
  847MOL0     H14329   5.031   2.503   8.307 -0.4516 -0.0872 -0.9203
  847MOL0     H14330   4.809   2.599   8.363 -1.7290  1.3723  0.2256
  847MOL0     H14331   4.641   2.922   8.595 -1.8937  0.6020  2.8990
  847MOL0     H14332   4.465   3.040   8.726  3.1142  0.7324 -0.0909
  847MOL0     H14333   4.149   3.339   8.668 -0.4575 -0.8946 -0.7477
  847MOL0     H14334   4.202   3.330   8.503 -2.0158  0.3068  0.7440
  847MOL0     H14335   4.431   3.446   8.579 -0.5169  1.0015  0.3152
  847MOL0     H14336   4.344   3.475   8.733  0.5429  0.6135 -0.1878
  847MOL0     H14337   4.237   3.552   8.453 -0.7790  2.6063 -0.5140
  847MOL0     H14338   4.348   3.653   8.543  1.1224 -0.6387  3.7752
  847MOL0     H14339   4.142   3.597   8.742 -1.9822  0.4761  0.1728
  847MOL0     H14340   4.150   3.737   8.640  0.5990  0.1479 -0.2491
  847MOL0     H14341   3.822   3.547   8.478  0.3713 -1.5220 -1.0677
  847MOL0     H14342   4.360   3.266   8.384 -1.3356  0.8575  2.2995
  847MOL0     H14343   4.520   3.094   8.150  0.4201  1.1793 -0.8536
  847MOL0     H14344   4.504   3.267   8.182  0.2974 -0.5097 -2.4151
  847MOL0     H14345   4.661   3.195   8.206  0.0287 -0.1049  0.7288
  848MOL0     O14346   4.566   8.951   7.372 -0.1752 -0.1038  0.7807
  848MOL0     C14347   4.478   9.009   7.435 -0.2193  0.2095 -0.0846
  848MOL0     O14348   4.498   9.072   7.556  0.7712  0.7786  0.0051
  848MOL0     C14349   4.626   9.062   7.607 -0.2031  0.0847 -0.2224
  848MOL0     C14350   4.643   8.989   7.720 -0.3371 -0.0184 -0.4516
  848MOL0     C14351   4.757   8.990   7.806 -0.4879  0.8586 -0.4549
  848MOL0     C14352   4.860   9.072   7.767 -0.6707 -0.2176 -0.0542
  848MOL0     O14353   4.968   9.068   7.851  0.0869  0.1075 -0.1526
  848MOL0     C14354   5.102   9.081   7.796  0.0054  0.4375  0.0701
  848MOL0     C14355   5.204   9.078   7.910 -0.0888 -0.4091 -0.8162
  848MOL0     C14356   5.319   9.186   7.892  0.2905 -0.6611 -0.3950
  848MOL0     C14357   5.398   9.158   7.767 -0.0070  0.6837 -0.3804
  848MOL0     C14358   5.540   9.223   7.773  0.0841 -0.0816 -0.1649
  848MOL0     C14359   5.611   9.196   7.641 -0.8072  0.4280 -0.3353
  848MOL0     C14360   5.667   9.052   7.630 -0.5838 -0.5356  0.2739
  848MOL0     C14361   5.699   8.993   7.492 -0.8361  0.0002 -0.2392
  848MOL0     N14362   5.577   8.966   7.415 -0.2169  0.3983 -0.5388
  848MOL0     C14363   5.551   9.027   7.303 -0.6603 -0.1565  0.6554
  848MOL0     C14364   5.461   8.958   7.236 -0.3596  0.7724 -0.0146
  848MOL0     C14365   5.409   8.979   7.105 -0.2035 -0.2274  0.0868
  848MOL0     C14366   5.511   8.966   6.991 -0.1546 -0.1372  0.9437
  848MOL0     C14367   5.633   9.069   6.986  0.3947 -0.1570 -0.0678
  848MOL0     C14368   5.770   9.001   7.033 -0.4780 -0.0502  0.6054
  848MOL0     O14369   5.865   9.115   7.039 -0.8166 -0.0026 -0.2312
  848MOL0     C14370   5.993   9.085   7.088 -0.3087 -0.0498  0.1567
  848MOL0     C14371   6.023   8.983   7.178  0.9714  0.2030 -0.3297
  848MOL0     C14372   6.147   8.975   7.243  0.1914  0.6770 -0.6596
  848MOL0     C14373   6.252   9.064   7.208  0.0147 -0.1275 -0.1966
  848MOL0     C14374   6.382   9.063   7.283  0.0215 -0.1337  0.4614
  848MOL0     O14375   6.474   9.155   7.247  0.2483  0.1013 -0.0744
  848MOL0     C14376   6.584   9.176   7.327  0.7374 -0.0054  0.4995
  848MOL0     C14377   6.612   9.299   7.384 -0.1746  0.5199 -0.0233
  848MOL0     C14378   6.713   9.316   7.474 -0.3084 -0.2650 -0.0968
  848MOL0     C14379   6.807   9.216   7.498  0.2839  0.7863 -0.8545
  848MOL0     O14380   6.916   9.237   7.570 -0.3184  0.2741 -0.0811
  848MOL0     C14381   6.947   9.365   7.631  0.1627  0.6159 -0.3302
  848MOL0     C14382   7.078   9.359   7.696 -0.5454 -0.1099  0.7056
  848MOL0     C14383   7.186   9.367   7.580 -0.8506 -0.7090 -0.2044
  848MOL0     C14384   7.310   9.396   7.642 -0.0331 -0.2227  0.3905
  848MOL0     C14385   7.426   9.387   7.540  0.0969 -0.1536  0.4799
  848MOL0     C14386   7.558   9.422   7.609  0.3234  0.8416 -0.3799
  848MOL0     C14387   7.677   9.436   7.517  0.1308 -0.3532  0.0843
  848MOL0     C14388   7.799   9.465   7.609  0.2406  0.4966 -0.2175
  848MOL0    Cl14389   7.957   9.444   7.538  0.4748  0.1789 -0.3703
  848MOL0     C14390   6.780   9.093   7.442 -0.0404  0.4987  0.1683
  848MOL0     C14391   6.674   9.076   7.355 -0.3005  1.0327  0.3908
  848MOL0     O14392   6.390   8.988   7.378 -0.7830 -0.4236 -0.8938
  848MOL0     C14393   6.226   9.165   7.114  1.0043 -0.4958  0.2197
  848MOL0     C14394   6.097   9.181   7.062 -0.0616 -0.5171  0.5049
  848MOL0     N14395   5.419   8.859   7.324  0.4262  0.6820  0.8290
  848MOL0     N14396   5.488   8.862   7.433  0.2318 -0.3913  0.0492
  848MOL0     C14397   4.846   9.151   7.655 -0.1813  0.7057  0.3062
  848MOL0     C14398   4.736   9.146   7.573 -0.0330  0.1231 -0.4152
  848MOL0     C14399   4.340   8.997   7.392 -0.1854  0.0403  0.7908
  848MOL0     C14400   4.294   8.873   7.359 -0.5725 -0.0494 -1.2488
  848MOL0     C14401   4.158   8.845   7.339 -0.1913  0.2946  0.3599
  848MOL0     C14402   4.070   8.948   7.331  0.6675 -0.2223  0.6289
  848MOL0     O14403   3.933   8.917   7.321 -0.4851 -0.3077  0.8767
  848MOL0     C14404   3.852   9.014   7.254  0.0941 -0.4673 -0.8131
  848MOL0     C14405   3.729   8.937   7.199  1.1176 -0.6717  0.3495
  848MOL0     C14406   3.778   8.830   7.105 -0.4693  0.5552 -0.2787
  848MOL0     C14407   3.658   8.761   7.032  0.1291  0.3757  0.7011
  848MOL0     C14408   3.711   8.650   6.945  0.4595  0.0782 -0.3627
  848MOL0     C14409   3.767   8.562   6.878 -0.7566 -0.2751  0.2547
  848MOL0     C14410   4.115   9.081   7.351  0.3477 -0.1723 -0.8627
  848MOL0     C14411   4.255   9.102   7.374  0.1705 -0.0033 -0.2796
  848MOL0     C14412   4.292   9.251   7.394 -0.9984 -0.4680 -0.4446
  848MOL0     H14413   4.558   8.936   7.763 -0.1432  0.6820  0.8472
  848MOL0     H14414   4.758   8.913   7.884 -1.3209 -2.1254 -3.1647
  848MOL0     H14415   5.124   9.000   7.726  2.4305 -0.1283  1.3628
  848MOL0     H14416   5.113   9.174   7.739  3.3097 -1.5495 -2.9146
  848MOL0     H14417   5.248   8.977   7.916  1.6149  0.3865  3.1510
  848MOL0     H14418   5.154   9.097   8.005  0.9010  3.8098 -0.9726
  848MOL0     H14419   5.381   9.176   7.981 -1.2563 -0.2586  0.7675
  848MOL0     H14420   5.278   9.287   7.899 -0.8989 -1.1674  0.1071
  848MOL0     H14421   5.408   9.051   7.749  1.6329 -0.4880  5.5106
  848MOL0     H14422   5.337   9.187   7.680  1.4677 -0.9281 -2.0258
  848MOL0     H14423   5.533   9.329   7.799  3.6983  0.2581 -0.0447
  848MOL0     H14424   5.581   9.176   7.863 -1.3437 -1.3085 -0.1206
  848MOL0     H14425   5.561   9.235   7.552 -2.7703  0.5485  0.7733
  848MOL0     H14426   5.706   9.252   7.640  2.2941 -4.2746  0.1415
  848MOL0     H14427   5.593   8.985   7.676 -1.5224 -1.4693 -2.3990
  848MOL0     H14428   5.759   9.046   7.689  0.3743 -1.7388 -1.2696
  848MOL0     H14429   5.767   9.061   7.439  0.6999 -0.5931  0.9086
  848MOL0     H14430   5.745   8.894   7.496 -1.5279 -0.4538 -2.3097
  848MOL0     H14431   5.610   9.110   7.265  0.3506 -2.3068 -2.9936
  848MOL0     H14432   5.328   8.906   7.103 -0.8872  0.5003  0.4155
  848MOL0     H14433   5.364   9.079   7.099 -2.2654 -0.9484  2.3746
  848MOL0     H14434   5.550   8.865   6.974  0.0179  0.1485 -0.4925
  848MOL0     H14435   5.452   8.992   6.903  1.4672  1.9946  0.4104
  848MOL0     H14436   5.604   9.156   7.045 -0.2398 -0.5557  0.2268
  848MOL0     H14437   5.642   9.095   6.880 -0.0782 -1.7719 -0.5354
  848MOL0     H14438   5.802   8.921   6.964 -1.6801  0.9296 -1.1815
  848MOL0     H14439   5.755   8.963   7.134  0.7800 -0.0438  0.8069
  848MOL0     H14440   5.957   8.902   7.208  0.3713  1.5875  2.3516
  848MOL0     H14441   6.172   8.905   7.322 -2.7026  1.3416  0.9789
  848MOL0     H14442   6.531   9.366   7.358 -1.2690 -0.8998 -0.3827
  848MOL0     H14443   6.713   9.412   7.524 -0.9259 -1.2437  1.9119
  848MOL0     H14444   6.942   9.447   7.558  0.7249  2.1497  1.2938
  848MOL0     H14445   6.869   9.391   7.702 -2.2743 -2.6078 -1.5627
  848MOL0     H14446   7.083   9.441   7.768  2.3595 -0.3689  0.9159
  848MOL0     H14447   7.077   9.264   7.751 -3.3839 -1.5005 -1.5206
  848MOL0     H14448   7.187   9.275   7.521  1.0646 -0.4060 -0.7241
  848MOL0     H14449   7.158   9.446   7.510  0.0863 -0.3988 -0.2428
  848MOL0     H14450   7.322   9.323   7.723  1.2475  1.5503  1.8526
  848MOL0     H14451   7.300   9.497   7.680  0.0970 -0.0725  0.0302
  848MOL0     H14452   7.407   9.457   7.458 -2.2714  1.4468  2.2957
  848MOL0     H14453   7.432   9.287   7.495 -0.1575  0.3292 -0.6575
  848MOL0     H14454   7.545   9.506   7.679  2.5368  0.6034  0.3877
  848MOL0     H14455   7.591   9.337   7.669 -0.4540 -0.3315 -1.5638
  848MOL0     H14456   7.667   9.523   7.451  2.5288 -0.8854 -1.1020
  848MOL0     H14457   7.694   9.348   7.455 -1.2296  0.6342 -1.7880
  848MOL0     H14458   7.803   9.573   7.627  0.2314 -0.0240  3.7207
  848MOL0     H14459   7.780   9.407   7.700 -1.2184 -0.4466 -1.0755
  848MOL0     H14460   6.854   9.014   7.446 -0.9421 -0.3375  0.7985
  848MOL0     H14461   6.664   8.980   7.305  1.8626  0.0836  1.5962
  848MOL0     H14462   6.297   9.236   7.071 -0.4179 -0.2825 -1.9754
  848MOL0     H14463   6.070   9.269   7.004 -0.3217 -1.1856 -0.4089
  848MOL0     H14464   4.929   9.208   7.615 -0.1451 -0.2617 -1.0594
  848MOL0     H14465   4.737   9.206   7.483 -1.9091 -1.7603 -1.7915
  848MOL0     H14466   4.351   8.783   7.377 -3.2322 -1.8575 -1.4159
  848MOL0     H14467   4.129   8.741   7.336  1.0399 -0.0652  0.2687
  848MOL0     H14468   3.908   9.058   7.172 -0.4709 -0.7051 -1.3316
  848MOL0     H14469   3.826   9.096   7.321 -0.2154 -1.0028 -0.2677
  848MOL0     H14470   3.653   9.000   7.151 -0.1997 -0.0903  3.0021
  848MOL0     H14471   3.669   8.900   7.282 -0.6164  0.9688 -0.0909
  848MOL0     H14472   3.828   8.744   7.150  0.5178 -0.2584 -2.7321
  848MOL0     H14473   3.843   8.881   7.032  0.0815 -1.7731 -1.5073
  848MOL0     H14474   3.595   8.709   7.105 -0.1855 -1.2403 -0.6740
  848MOL0     H14475   3.599   8.833   6.975 -0.3456 -1.0271 -0.6485
  848MOL0     H14476   3.828   8.503   6.812 -0.4892  0.3319 -0.0472
  848MOL0     H14477   4.050   9.168   7.345  1.8509  1.1866  1.3677
  848MOL0     H14478   4.334   9.286   7.300 -0.6149 -3.9432 -1.7173
  848MOL0     H14479   4.211   9.307   7.441 -1.4035 -0.6622 -0.8957
  848MOL0     H14480   4.373   9.260   7.467 -0.4665 -2.1667 -0.7660
  849MOL0     O14481   3.600   2.066   8.224 -0.9369  0.4324  0.1762
  849MOL0     C14482   3.494   2.004   8.207  0.4806  1.1592 -0.5337
  849MOL0     O14483   3.477   1.865   8.181  0.3214 -0.0114 -0.1597
  849MOL0     C14484   3.589   1.792   8.195  0.6913 -1.3833 -0.5001
  849MOL0     C14485   3.662   1.793   8.316 -0.6715  0.7409 -0.4174
  849MOL0     C14486   3.780   1.710   8.331  0.2519  0.7088  0.9690
  849MOL0     C14487   3.827   1.639   8.219  0.1456 -0.1724  0.0242
  849MOL0     O14488   3.933   1.553   8.247 -0.1970 -0.1029  0.4427
  849MOL0     C14489   4.009   1.507   8.136  0.6768  0.2020  0.5865
  849MOL0     C14490   4.150   1.473   8.192  0.4728 -0.2187 -0.2558
  849MOL0     C14491   4.219   1.404   8.076 -0.6959 -0.4702 -0.0684
  849MOL0     C14492   4.348   1.344   8.116  0.2902 -0.2851  0.2132
  849MOL0     C14493   4.458   1.333   8.010  0.1247  0.4256 -0.1857
  849MOL0     C14494   4.580   1.251   8.057  0.2793  0.1648  0.2683
  849MOL0     C14495   4.697   1.297   7.974  0.6883  0.0517  0.0061
  849MOL0     C14496   4.830   1.243   8.029 -0.0185  0.0080  0.2061
  849MOL0     N14497   4.939   1.271   7.937 -0.5798  0.2360  0.8210
  849MOL0     C14498   5.045   1.183   7.908 -0.5771 -0.0286  0.0630
  849MOL0     C14499   5.127   1.256   7.824  0.0188  0.0198  0.3159
  849MOL0     C14500   5.264   1.213   7.795 -0.7049  0.0209 -0.2255
  849MOL0     C14501   5.297   1.153   7.668  0.3286 -0.8729 -0.3562
  849MOL0     C14502   5.260   1.002   7.653  0.2926  1.0282 -0.7604
  849MOL0     C14503   5.339   0.905   7.747 -0.1849 -0.2834  0.0306
  849MOL0     O14504   5.473   0.902   7.701  0.7078  0.0227 -0.1761
  849MOL0     C14505   5.535   0.786   7.653  0.0839 -1.0682  0.0799
  849MOL0     C14506   5.666   0.798   7.613 -0.7582 -0.6153 -0.8969
  849MOL0     C14507   5.750   0.696   7.564  0.5879 -0.0172  0.4171
  849MOL0     C14508   5.702   0.566   7.557  0.5214  1.2627 -0.1942
  849MOL0     C14509   5.781   0.460   7.492 -0.8135  0.2326 -0.2211
  849MOL0     O14510   5.877   0.502   7.404 -0.3516 -0.5383 -0.1070
  849MOL0     C14511   5.987   0.422   7.396  0.0109 -1.3430 -0.1092
  849MOL0     C14512   5.996   0.331   7.288  0.2344 -0.2407  0.0901
  849MOL0     C14513   6.107   0.255   7.265 -0.7098  0.8625  0.6117
  849MOL0     C14514   6.224   0.268   7.345 -0.2283 -0.2583  0.2863
  849MOL0     O14515   6.341   0.204   7.330 -0.1774  0.6174  0.0135
  849MOL0     C14516   6.347   0.089   7.248  0.3345  0.1660  0.2251
  849MOL0     C14517   6.478   0.020   7.262 -0.4468 -0.4417  0.1575
  849MOL0     C14518   6.470  -0.107   7.165 -0.3284  0.5730 -0.5373
  849MOL0     C14519   6.572  -0.207   7.214  0.3858 -0.3818 -0.7214
  849MOL0     C14520   6.555  -0.341   7.151  0.2491 -1.0173 -0.4735
  849MOL0     C14521   6.669  -0.431   7.196  0.1686  1.1581  0.5418
  849MOL0     C14522   6.650  -0.579   7.148 -0.2846 -0.5092  0.1621
  849MOL0     C14523   6.778  -0.665   7.172  0.6727  0.0986  1.5599
  849MOL0    Cl14524   6.763  -0.830   7.115  0.6477  0.1250 -0.0325
  849MOL0     C14525   6.210   0.354   7.454  0.5546 -0.0900 -0.5074
  849MOL0     C14526   6.096   0.430   7.478 -0.0122  0.3829  0.0207
  849MOL0     O14527   5.758   0.344   7.524 -0.0237 -0.1031 -0.3751
  849MOL0     C14528   5.558   0.551   7.588 -0.2144  0.1032  0.0911
  849MOL0     C14529   5.475   0.656   7.638 -0.3421 -0.5688  0.0158
  849MOL0     N14530   5.065   1.374   7.800  0.1139  0.0760 -0.3149
  849MOL0     N14531   4.955   1.388   7.867 -0.2164 -0.2271  0.2928
  849MOL0     C14532   3.754   1.653   8.095 -0.3539 -0.1006 -0.2158
  849MOL0     C14533   3.638   1.731   8.086  0.7796  1.2824 -0.8178
  849MOL0     C14534   3.366   2.081   8.208 -0.1425 -1.1253 -0.0045
  849MOL0     C14535   3.247   2.014   8.166  0.0449 -0.5296  0.1400
  849MOL0     C14536   3.121   2.074   8.169 -0.3130 -0.2526 -0.0631
  849MOL0     C14537   3.111   2.212   8.216  1.0078  0.5060 -0.7752
  849MOL0     O14538   3.000   2.289   8.233 -0.1727  0.1324  0.1020
  849MOL0     C14539   2.871   2.213   8.217  0.1485  0.7507 -0.3762
  849MOL0     C14540   2.746   2.309   8.204 -0.2642  0.0118  0.5566
  849MOL0     C14541   2.709   2.378   8.337  1.2063 -0.3434 -0.2929
  849MOL0     C14542   2.582   2.441   8.335 -1.0523  0.7544  0.1406
  849MOL0     C14543   2.562   2.547   8.241  0.6479 -0.8236  0.3229
  849MOL0     C14544   2.527   2.635   8.162 -0.6075 -0.7891 -0.1096
  849MOL0     C14545   3.223   2.276   8.250 -0.7735  0.7668  0.0242
  849MOL0     C14546   3.354   2.209   8.269  0.2504 -0.0501 -0.7442
  849MOL0     C14547   3.462   2.296   8.320 -0.4211  0.0899  0.1193
  849MOL0     H14548   3.636   1.859   8.398 -1.5701  1.0104 -0.9084
  849MOL0     H14549   3.818   1.695   8.432 -0.8043 -0.7901  1.1920
  849MOL0     H14550   3.958   1.413   8.114  2.6955 -0.5652 -1.1742
  849MOL0     H14551   4.029   1.562   8.044  3.5126  0.4307  1.2285
  849MOL0     H14552   4.141   1.409   8.280 -3.8537 -0.5445 -0.7231
  849MOL0     H14553   4.219   1.556   8.208  0.9695 -0.6985  0.1163
  849MOL0     H14554   4.238   1.489   8.010  1.3917 -1.3539 -0.7064
  849MOL0     H14555   4.145   1.342   8.024 -2.7450  2.5930 -1.0475
  849MOL0     H14556   4.391   1.404   8.197  0.5950 -1.9037  1.3041
  849MOL0     H14557   4.332   1.244   8.157  1.4350 -0.4388  0.3392
  849MOL0     H14558   4.405   1.278   7.931 -2.1032 -1.9233  2.7361
  849MOL0     H14559   4.489   1.431   7.972 -0.7372  0.3096 -1.2587
  849MOL0     H14560   4.598   1.283   8.160 -0.7205 -0.2651  0.5875
  849MOL0     H14561   4.567   1.143   8.047  0.2223  0.2206 -0.3513
  849MOL0     H14562   4.704   1.406   7.967  2.8053 -0.1578 -2.3128
  849MOL0     H14563   4.686   1.256   7.873  1.0532 -0.3138  0.1125
  849MOL0     H14564   4.850   1.291   8.125  0.7464  3.4085 -1.4953
  849MOL0     H14565   4.829   1.136   8.049  3.8652 -0.1588  0.1321
  849MOL0     H14566   5.079   1.087   7.946 -0.3214  1.0602  2.7838
  849MOL0     H14567   5.316   1.308   7.810  0.5642 -0.8628  1.3564
  849MOL0     H14568   5.307   1.159   7.880 -4.1173 -0.1725  1.5461
  849MOL0     H14569   5.246   1.202   7.585  2.7082  0.0722 -1.3499
  849MOL0     H14570   5.401   1.178   7.648 -0.3125  1.3154 -1.2650
  849MOL0     H14571   5.274   0.970   7.550 -1.4226  1.4785 -1.1576
  849MOL0     H14572   5.158   0.983   7.687  1.4149 -0.1621  2.3319
  849MOL0     H14573   5.293   0.805   7.745 -0.4859 -0.1400 -0.5211
  849MOL0     H14574   5.348   0.952   7.845 -1.1778 -0.5393  0.2539
  849MOL0     H14575   5.707   0.899   7.621  0.0710 -1.0563  1.2546
  849MOL0     H14576   5.851   0.728   7.542 -0.1312  0.6557 -2.4018
  849MOL0     H14577   5.911   0.325   7.220  1.7034  1.4356 -2.0275
  849MOL0     H14578   6.110   0.188   7.180 -2.8812 -2.0192  2.6158
  849MOL0     H14579   6.271   0.019   7.283 -0.0692 -0.2709 -1.4735
  849MOL0     H14580   6.332   0.104   7.141  0.8783 -1.7034 -0.1472
  849MOL0     H14581   6.559   0.089   7.237 -1.4084  1.1215  1.2148
  849MOL0     H14582   6.502  -0.015   7.363  2.5121  0.7243 -0.0461
  849MOL0     H14583   6.372  -0.157   7.169 -0.8192  1.5794  1.1209
  849MOL0     H14584   6.492  -0.065   7.066  1.8933  3.6854  1.1222
  849MOL0     H14585   6.568  -0.217   7.323  0.5918  1.9810 -0.4362
  849MOL0     H14586   6.671  -0.172   7.183  0.9727 -2.0295 -0.7952
  849MOL0     H14587   6.547  -0.340   7.042 -4.3920 -0.2825 -0.3028
  849MOL0     H14588   6.464  -0.383   7.194  1.4176  0.3258  3.7691
  849MOL0     H14589   6.768  -0.395   7.166  0.3680  0.3826  0.2316
  849MOL0     H14590   6.674  -0.421   7.305  1.9069  1.3481  0.4729
  849MOL0     H14591   6.613  -0.579   7.045 -1.6731 -2.9730  0.5753
  849MOL0     H14592   6.562  -0.625   7.194 -0.9012 -0.3680 -0.8474
  849MOL0     H14593   6.872  -0.626   7.131 -0.7719  0.0369 -2.2314
  849MOL0     H14594   6.778  -0.657   7.281 -2.0707  0.5929  1.5968
  849MOL0     H14595   6.295   0.377   7.518  0.9728 -1.2623 -0.6068
  849MOL0     H14596   6.104   0.496   7.564 -0.2517 -0.9245  1.0738
  849MOL0     H14597   5.531   0.450   7.562  0.0178  0.4676 -1.6680
  849MOL0     H14598   5.373   0.622   7.654 -0.4172 -2.2491 -3.2929
  849MOL0     H14599   3.789   1.601   8.006  3.0667  0.0817  0.8924
  849MOL0     H14600   3.586   1.741   7.991 -1.4419 -0.4575  0.1216
  849MOL0     H14601   3.247   1.911   8.130 -0.5502 -0.1512 -0.9864
  849MOL0     H14602   3.035   2.015   8.143  1.4613 -3.1147  0.1702
  849MOL0     H14603   2.860   2.161   8.312  0.7610  0.1590 -0.6260
  849MOL0     H14604   2.871   2.142   8.134  0.8713  1.2327 -0.8071
  849MOL0     H14605   2.661   2.251   8.169 -3.6047  3.5559  2.0317
  849MOL0     H14606   2.765   2.384   8.127 -1.3561 -1.6764 -1.4547
  849MOL0     H14607   2.789   2.448   8.363  1.8156 -0.6774 -1.1807
  849MOL0     H14608   2.710   2.316   8.427  0.0211  0.8762  0.5861
  849MOL0     H14609   2.506   2.366   8.310  0.8683 -0.5997 -2.0982
  849MOL0     H14610   2.576   2.488   8.433  1.4217  0.5078  0.4804
  849MOL0     H14611   2.490   2.719   8.107  0.5927  1.5602  2.4531
  849MOL0     H14612   3.228   2.382   8.273  1.4069  1.0730 -1.5535
  849MOL0     H14613   3.497   2.255   8.415  0.9900  0.3904 -0.2436
  849MOL0     H14614   3.551   2.293   8.256  1.6557 -0.0975  2.8234
  849MOL0     H14615   3.417   2.394   8.341 -2.3302 -0.9578  1.2242
  850MOL0     O14616   6.121   4.196   4.001 -0.9694 -0.0230 -0.6456
  850MOL0     C14617   6.051   4.235   3.908 -0.8449  0.5252  0.0697
  850MOL0     O14618   6.099   4.301   3.797  0.3320  0.3738  0.2164
  850MOL0     C14619   6.233   4.299   3.772  0.1340 -0.7807 -0.2173
  850MOL0     C14620   6.288   4.412   3.712 -0.2115  0.1593  0.2827
  850MOL0     C14621   6.418   4.422   3.673  0.0514 -0.4784  0.4980
  850MOL0     C14622   6.508   4.322   3.712 -0.0234 -0.6210  0.7469
  850MOL0     O14623   6.642   4.327   3.693  0.0050 -0.4299 -0.3035
  850MOL0     C14624   6.684   4.331   3.561 -0.5623  0.0213 -0.4447
  850MOL0     C14625   6.708   4.191   3.496  0.1490  0.2065 -1.2260
  850MOL0     C14626   6.759   4.212   3.352  0.3925 -0.0395  0.4953
  850MOL0     C14627   6.832   4.087   3.297  0.2293 -0.5334 -0.2413
  850MOL0     C14628   6.841   4.096   3.151  0.0117 -0.3140  0.2470
  850MOL0     C14629   6.866   3.949   3.102 -0.3347 -0.1648  0.3106
  850MOL0     C14630   6.873   3.950   2.958  0.3553 -0.4232  0.0708
  850MOL0     C14631   6.894   3.818   2.892 -0.5569  1.2051 -0.3816
  850MOL0     N14632   7.041   3.780   2.905 -0.2348 -0.2288  0.0297
  850MOL0     C14633   7.151   3.845   2.863  0.1165  0.1652 -0.6988
  850MOL0     C14634   7.258   3.773   2.897 -0.1039  0.2922  0.0523
  850MOL0     C14635   7.402   3.809   2.875 -0.5344  0.3961 -0.0910
  850MOL0     C14636   7.448   3.830   2.725 -0.2273  0.3991  0.5898
  850MOL0     C14637   7.419   3.696   2.639  0.1615 -0.4830  0.1830
  850MOL0     C14638   7.484   3.577   2.703  0.3085 -0.1015 -0.4041
  850MOL0     O14639   7.622   3.598   2.729 -0.8168  0.3937 -1.1350
  850MOL0     C14640   7.726   3.555   2.649  0.7797  0.4606 -0.1826
  850MOL0     C14641   7.858   3.570   2.703  0.4264  0.6838  0.7378
  850MOL0     C14642   7.969   3.529   2.625 -0.0771 -0.8062  0.4521
  850MOL0     C14643   7.956   3.484   2.499 -0.0538 -0.1719 -0.2538
  850MOL0     C14644   8.068   3.444   2.412 -0.1827  0.4870  0.0331
  850MOL0     O14645   8.045   3.425   2.273  0.0053  0.0822 -0.5008
  850MOL0     C14646   8.142   3.369   2.195  0.0146 -0.1915  0.1334
  850MOL0     C14647   8.111   3.271   2.097  0.4408 -0.1442  0.4188
  850MOL0     C14648   8.211   3.211   2.025 -1.2324 -0.5120 -0.4116
  850MOL0     C14649   8.346   3.250   2.041 -0.2309  0.3803  0.2882
  850MOL0     O14650   8.449   3.184   1.976 -0.0428  0.2277 -0.0238
  850MOL0     C14651   8.453   3.052   2.009 -0.1914 -0.0059 -1.3129
  850MOL0     C14652   8.554   2.970   1.922 -0.4793  0.4202  0.1837
  850MOL0     C14653   8.696   3.026   1.930  0.3892 -0.0665  0.1172
  850MOL0     C14654   8.758   2.971   2.062 -1.4519 -0.1429 -0.3517
  850MOL0     C14655   8.902   3.036   2.086 -0.1213  0.7030 -0.8139
  850MOL0     C14656   8.971   2.968   2.212 -0.4400 -0.2064 -0.0021
  850MOL0     C14657   9.091   3.054   2.244 -0.5413  0.8378 -0.5841
  850MOL0     C14658   9.133   3.043   2.395  0.2099  0.0221  1.0952
  850MOL0    Cl14659   9.151   2.872   2.433  0.0163  0.0956  0.1298
  850MOL0     C14660   8.379   3.349   2.134  0.7062 -0.0246  0.6399
  850MOL0     C14661   8.271   3.410   2.202 -0.3143  0.2275 -0.1313
  850MOL0     O14662   8.176   3.442   2.462  0.3086  0.2674 -0.2557
  850MOL0     C14663   7.822   3.461   2.455 -0.2705  0.1102 -0.3726
  850MOL0     C14664   7.707   3.490   2.525 -0.0195 -0.3487 -0.5808
  850MOL0     N14665   7.206   3.659   2.960  0.1144  0.1161  0.3673
  850MOL0     N14666   7.072   3.667   2.970  0.0346  0.1905 -0.2787
  850MOL0     C14667   6.460   4.210   3.772  1.0745  0.1557  0.0035
  850MOL0     C14668   6.327   4.195   3.795  0.1125  0.4158  0.0483
  850MOL0     C14669   5.911   4.208   3.914  0.1890 -0.4718  0.4304
  850MOL0     C14670   5.856   4.159   4.038  0.1352  0.5194  0.4178
  850MOL0     C14671   5.719   4.129   4.051  0.2147  0.6392 -0.0195
  850MOL0     C14672   5.635   4.136   3.936 -0.6642  0.8702 -0.0072
  850MOL0     O14673   5.504   4.099   3.952  0.2952 -0.4961  0.3470
  850MOL0     C14674   5.400   4.150   3.866 -0.5087 -0.3189 -1.0121
  850MOL0     C14675   5.261   4.176   3.935 -0.3072 -1.0981  0.4656
  850MOL0     C14676   5.139   4.137   3.847  0.1156 -1.1554 -0.1702
  850MOL0     C14677   5.116   3.981   3.825 -0.3354 -0.6889 -0.3868
  850MOL0     C14678   4.985   3.966   3.769  0.5882 -0.4142 -0.2371
  850MOL0     C14679   4.880   3.936   3.709 -1.2199 -0.5730  1.1682
  850MOL0     C14680   5.691   4.170   3.810 -0.4328  0.1741 -0.4623
  850MOL0     C14681   5.825   4.202   3.801  0.0293 -0.2754  0.3722
  850MOL0     C14682   5.867   4.255   3.669  0.0056 -0.1350  0.2807
  850MOL0     H14683   6.219   4.489   3.679 -0.9034 -0.7563 -0.4409
  850MOL0     H14684   6.446   4.513   3.621  0.9082 -1.5869 -1.0554
  850MOL0     H14685   6.616   4.390   3.498 -2.5533 -0.4620  1.1454
  850MOL0     H14686   6.772   4.395   3.555 -1.0322  0.8298  0.8521
  850MOL0     H14687   6.614   4.135   3.501 -0.3951  1.1759  0.4277
  850MOL0     H14688   6.777   4.135   3.560 -1.0577  0.2124  0.1367
  850MOL0     H14689   6.830   4.295   3.346  0.9632 -0.2276  3.2697
  850MOL0     H14690   6.668   4.227   3.295 -0.5816  3.3239  2.6311
  850MOL0     H14691   6.931   4.072   3.341  0.8237 -0.5694 -1.5429
  850MOL0     H14692   6.764   4.004   3.319 -2.0584  0.7733 -1.9338
  850MOL0     H14693   6.742   4.122   3.112 -0.7472 -2.4205  0.6208
  850MOL0     H14694   6.914   4.173   3.125  0.2956  0.2230  2.4380
  850MOL0     H14695   6.958   3.897   3.132  1.2652  1.3502 -1.6462
  850MOL0     H14696   6.777   3.894   3.132 -1.9277 -0.4515 -4.2023
  850MOL0     H14697   6.948   4.020   2.917  0.7190 -0.5745  0.4688
  850MOL0     H14698   6.788   3.999   2.910 -0.5770 -0.8491  1.2462
  850MOL0     H14699   6.829   3.740   2.933 -0.9095  2.7795  2.2598
  850MOL0     H14700   6.878   3.826   2.784  4.5346  1.1283 -1.3663
  850MOL0     H14701   7.149   3.943   2.817 -2.5339 -0.3232 -1.7870
  850MOL0     H14702   7.426   3.899   2.932 -0.8272 -0.0967  0.8337
  850MOL0     H14703   7.458   3.728   2.923 -0.8853 -0.2071 -0.6692
  850MOL0     H14704   7.387   3.907   2.679 -0.4753  0.4876  1.0565
  850MOL0     H14705   7.553   3.860   2.719 -0.7606  2.1718 -0.7100
  850MOL0     H14706   7.468   3.697   2.541  0.6522 -2.4699  0.3634
  850MOL0     H14707   7.312   3.678   2.631 -0.1448  0.7382  1.1587
  850MOL0     H14708   7.458   3.497   2.633 -0.4753 -0.8761  0.7348
  850MOL0     H14709   7.439   3.569   2.802 -2.5734  3.4714 -1.1930
  850MOL0     H14710   7.869   3.621   2.798  0.9046  2.6042 -0.3084
  850MOL0     H14711   8.069   3.539   2.666  0.2035  1.7877 -0.6320
  850MOL0     H14712   8.006   3.246   2.090  0.1877  0.6478  1.2587
  850MOL0     H14713   8.194   3.132   1.953 -0.8733 -4.0197  3.0018
  850MOL0     H14714   8.479   3.048   2.115 -2.4460  0.3939 -0.6938
  850MOL0     H14715   8.352   3.011   1.998 -0.5042 -0.2386  1.7402
  850MOL0     H14716   8.541   2.865   1.951 -4.4356  0.5540 -0.5419
  850MOL0     H14717   8.513   2.981   1.821 -2.0766  2.2801  0.9590
  850MOL0     H14718   8.751   2.997   1.840  1.8329  2.9139 -0.0765
  850MOL0     H14719   8.685   3.135   1.935 -1.7227 -0.2520  0.3870
  850MOL0     H14720   8.773   2.863   2.068 -0.5447  0.0061  0.5629
  850MOL0     H14721   8.693   3.007   2.142 -0.4357  3.6147 -1.0333
  850MOL0     H14722   8.881   3.143   2.094  0.0019  0.6269  0.6994
  850MOL0     H14723   8.966   3.020   1.998  1.5373 -1.2160  0.6422
  850MOL0     H14724   8.905   2.964   2.299  0.3642  1.2464  0.7049
  850MOL0     H14725   9.010   2.867   2.200 -1.1244 -0.7084  1.6746
  850MOL0     H14726   9.077   3.159   2.215  1.2629  0.5894 -2.6628
  850MOL0     H14727   9.176   3.023   2.182 -0.5667 -1.7219  0.5665
  850MOL0     H14728   9.225   3.100   2.410  0.7769 -0.6183  0.1090
  850MOL0     H14729   9.053   3.078   2.462 -1.3148 -0.3957 -0.4284
  850MOL0     H14730   8.482   3.381   2.142  1.1360 -0.5755 -1.7839
  850MOL0     H14731   8.307   3.493   2.262  1.3039 -0.3754 -0.2257
  850MOL0     H14732   7.798   3.422   2.357  0.7708 -0.7231 -0.3138
  850MOL0     H14733   7.611   3.474   2.477 -0.4231 -2.8536  0.9059
  850MOL0     H14734   6.535   4.134   3.791  1.1240  0.7490  2.4968
  850MOL0     H14735   6.289   4.099   3.828 -1.9426 -0.0823 -3.3750
  850MOL0     H14736   5.913   4.148   4.129  0.7546 -2.1706 -0.2192
  850MOL0     H14737   5.672   4.091   4.140 -0.7518  1.0236 -0.3569
  850MOL0     H14738   5.390   4.084   3.780 -0.7747 -0.7325 -0.6672
  850MOL0     H14739   5.432   4.247   3.826 -1.4838  0.1522 -0.6914
  850MOL0     H14740   5.239   4.280   3.962 -0.1721 -1.1096  0.6273
  850MOL0     H14741   5.251   4.123   4.030 -1.3410 -0.1131  0.9308
  850MOL0     H14742   5.149   4.191   3.752  2.0040  0.9921  1.1535
  850MOL0     H14743   5.052   4.176   3.901  0.2216 -2.0124  0.6364
  850MOL0     H14744   5.192   3.948   3.755  0.6467  1.8436 -0.6045
  850MOL0     H14745   5.125   3.938   3.926 -2.2524 -1.4926 -0.5081
  850MOL0     H14746   4.790   3.912   3.656 -0.0876 -1.9568 -0.1888
  850MOL0     H14747   5.628   4.166   3.722 -0.0076  2.3597 -0.9082
  850MOL0     H14748   5.889   4.362   3.670  0.4072 -0.1974 -0.5152
  850MOL0     H14749   5.951   4.189   3.643 -0.8296 -2.6246  3.2966
  850MOL0     H14750   5.789   4.230   3.597 -0.6790 -1.6279  1.4890
  851MOL0     O14751   3.366   4.029   6.438  1.1899 -0.1040  0.6428
  851MOL0     C14752   3.302   4.047   6.545 -0.7835  0.6839  0.0225
  851MOL0     O14753   3.352   4.023   6.670 -0.4014 -0.0021  0.5187
  851MOL0     C14754   3.472   3.965   6.683 -0.7356 -0.4251  0.0613
  851MOL0     C14755   3.591   4.021   6.625  0.1251  0.0263 -0.1010
  851MOL0     C14756   3.714   3.956   6.623 -0.4011  0.4468  0.1775
  851MOL0     C14757   3.733   3.833   6.693 -0.6885  0.2768  0.1113
  851MOL0     O14758   3.850   3.764   6.703 -0.8098 -0.3221 -0.4583
  851MOL0     C14759   3.964   3.798   6.625  0.1657 -0.2924 -0.0991
  851MOL0     C14760   4.084   3.713   6.653 -1.2275 -1.0303  0.0761
  851MOL0     C14761   4.209   3.783   6.592 -0.4415  0.3055  0.0804
  851MOL0     C14762   4.321   3.682   6.555  0.8355  0.1521 -0.3887
  851MOL0     C14763   4.433   3.757   6.492  0.4619 -0.2912  0.1192
  851MOL0     C14764   4.551   3.654   6.473  0.3951 -0.6998  0.4414
  851MOL0     C14765   4.683   3.719   6.425  0.9236 -0.0641 -0.6058
  851MOL0     C14766   4.755   3.821   6.517  0.2788  0.1435 -0.2755
  851MOL0     N14767   4.869   3.895   6.456 -0.1469  0.0437  0.2710
  851MOL0     C14768   4.987   3.837   6.404  0.3584  0.0081  0.3227
  851MOL0     C14769   5.061   3.941   6.372  0.4372  0.0735  0.1245
  851MOL0     C14770   5.198   3.918   6.291  0.6654  0.1997  0.4008
  851MOL0     C14771   5.167   3.935   6.142  0.1130  0.0745 -0.1274
  851MOL0     C14772   5.288   3.951   6.058 -0.5645 -0.2948  0.4738
  851MOL0     C14773   5.375   4.078   6.093  0.3871 -0.2745 -0.3868
  851MOL0     O14774   5.469   4.103   5.984 -0.4271  0.2008  0.2311
  851MOL0     C14775   5.575   4.019   5.960 -0.3494 -0.1386  0.0281
  851MOL0     C14776   5.654   4.048   5.844  0.7900  0.8484 -0.1594
  851MOL0     C14777   5.770   3.981   5.805 -0.1798 -0.5042 -0.7409
  851MOL0     C14778   5.811   3.877   5.893  0.7774  0.7402 -0.9362
  851MOL0     C14779   5.939   3.794   5.862  0.4874 -0.2921 -0.1537
  851MOL0     O14780   6.002   3.816   5.749 -0.7128 -0.0286  0.0927
  851MOL0     C14781   6.133   3.776   5.740 -0.5223 -0.0371 -0.1250
  851MOL0     C14782   6.230   3.872   5.719  0.0891 -1.6488 -0.0842
  851MOL0     C14783   6.363   3.840   5.704 -1.1060 -0.5849  0.3736
  851MOL0     C14784   6.400   3.705   5.685  0.2831 -0.4463 -0.5690
  851MOL0     O14785   6.534   3.676   5.656  0.2104 -0.5157 -0.7256
  851MOL0     C14786   6.551   3.571   5.559  0.3681  0.4516 -0.4302
  851MOL0     C14787   6.687   3.580   5.498 -0.1501  0.1342  0.5826
  851MOL0     C14788   6.696   3.497   5.368  0.2447  0.0927 -0.9530
  851MOL0     C14789   6.839   3.461   5.342  0.4551  0.1610 -0.2857
  851MOL0     C14790   6.935   3.576   5.322  0.2442 -0.7605 -0.3620
  851MOL0     C14791   7.059   3.526   5.252 -0.4473  0.7989  0.0888
  851MOL0     C14792   7.169   3.627   5.245 -0.0470 -0.0566  0.0711
  851MOL0     C14793   7.141   3.725   5.125 -0.2306  0.1103 -0.5294
  851MOL0    Cl14794   7.286   3.815   5.106 -0.2715 -0.3529  0.4142
  851MOL0     C14795   6.301   3.609   5.704  0.4514 -0.8459 -0.0872
  851MOL0     C14796   6.166   3.639   5.725 -0.4589 -0.9459 -0.2364
  851MOL0     O14797   5.981   3.721   5.956  0.7134 -0.3209  0.6216
  851MOL0     C14798   5.733   3.840   6.000  0.3552  0.3164  0.0497
  851MOL0     C14799   5.617   3.905   6.033  0.4669 -0.6849  0.4157
  851MOL0     N14800   4.994   4.058   6.390  0.2409  0.1436  0.7988
  851MOL0     N14801   4.875   4.026   6.444 -0.0269 -0.2940  0.9465
  851MOL0     C14802   3.615   3.780   6.752 -0.3188 -0.4249 -0.1699
  851MOL0     C14803   3.484   3.839   6.746 -0.0878  0.0907 -0.2880
  851MOL0     C14804   3.161   4.085   6.535  0.4585 -0.0512 -0.4098
  851MOL0     C14805   3.112   4.129   6.413 -0.1472  0.2196 -0.2811
  851MOL0     C14806   2.981   4.165   6.398  0.3419  0.4455 -0.0536
  851MOL0     C14807   2.883   4.158   6.492  0.2744 -0.3678 -0.2963
  851MOL0     O14808   2.754   4.184   6.455  0.5056 -0.6926  0.5288
  851MOL0     C14809   2.652   4.207   6.553 -0.4677 -0.2086 -0.3959
  851MOL0     C14810   2.668   4.318   6.656 -0.4565  0.0310 -0.1457
  851MOL0     C14811   2.536   4.330   6.741 -0.2432 -0.0941 -1.6170
  851MOL0     C14812   2.524   4.220   6.849  0.0402  0.6973 -0.3156
  851MOL0     C14813   2.573   4.263   6.980  0.0106 -0.4987  0.0132
  851MOL0     C14814   2.622   4.304   7.086 -0.1196  0.5022  0.4889
  851MOL0     C14815   2.926   4.098   6.611 -0.0433 -0.4505 -0.9211
  851MOL0     C14816   3.061   4.066   6.641 -0.0637  0.5463 -0.5458
  851MOL0     C14817   3.097   4.004   6.772  0.2407  0.7046 -0.8263
  851MOL0     H14818   3.581   4.119   6.578 -3.8420 -2.4069 -5.3764
  851MOL0     H14819   3.792   4.019   6.582  0.7904 -0.9288  0.2205
  851MOL0     H14820   3.944   3.790   6.518 -0.2492  0.3550 -0.0708
  851MOL0     H14821   3.998   3.901   6.640  0.2717 -0.4492  0.8236
  851MOL0     H14822   4.076   3.611   6.616  1.5369 -1.1091 -0.4978
  851MOL0     H14823   4.103   3.702   6.760  1.3868 -3.5169 -0.5366
  851MOL0     H14824   4.239   3.852   6.671 -0.0823  0.4026 -0.1356
  851MOL0     H14825   4.172   3.842   6.508 -0.6805  1.2783  0.8487
  851MOL0     H14826   4.363   3.620   6.634  0.1742 -0.8501 -0.8001
  851MOL0     H14827   4.266   3.610   6.494  3.5844 -0.4179 -2.3617
  851MOL0     H14828   4.403   3.800   6.396 -1.3348  2.3709  1.7378
  851MOL0     H14829   4.461   3.847   6.547 -0.8498  0.1104  0.1732
  851MOL0     H14830   4.580   3.612   6.570  3.3254  4.5813  2.2666
  851MOL0     H14831   4.509   3.583   6.402 -2.2436  0.7507  0.4191
  851MOL0     H14832   4.652   3.768   6.332 -1.9494  1.8383  1.1929
  851MOL0     H14833   4.758   3.644   6.400 -0.3872 -1.8385  0.5567
  851MOL0     H14834   4.684   3.891   6.562  0.2319  0.0042 -0.1276
  851MOL0     H14835   4.799   3.764   6.600  0.4649 -1.1871 -1.2635
  851MOL0     H14836   5.010   3.731   6.394  3.1064  0.6683 -1.8412
  851MOL0     H14837   5.264   3.997   6.329  1.5088 -0.9652  1.4575
  851MOL0     H14838   5.232   3.817   6.315 -1.9566 -0.4815  1.6304
  851MOL0     H14839   5.106   3.849   6.111  1.7438 -2.1725  2.4487
  851MOL0     H14840   5.111   4.028   6.125 -3.2138 -1.7738 -0.2443
  851MOL0     H14841   5.256   3.950   5.953 -3.8133  2.4831  1.2562
  851MOL0     H14842   5.360   3.869   6.069  0.2379  0.0782 -1.5601
  851MOL0     H14843   5.414   4.075   6.195 -2.5077 -1.2916  0.7959
  851MOL0     H14844   5.311   4.167   6.103  0.7067 -0.3194  5.1479
  851MOL0     H14845   5.613   4.135   5.793  1.5169  2.4610  1.9154
  851MOL0     H14846   5.831   3.999   5.717 -1.8867  1.2290 -1.6617
  851MOL0     H14847   6.204   3.976   5.707 -0.7346 -1.3423  3.2450
  851MOL0     H14848   6.441   3.914   5.688 -1.6353 -0.4314 -1.8318
  851MOL0     H14849   6.542   3.470   5.600 -0.6016 -0.0694 -1.8605
  851MOL0     H14850   6.476   3.571   5.479 -1.5989  3.5078  1.2410
  851MOL0     H14851   6.704   3.687   5.480  1.1030 -0.1487 -0.0556
  851MOL0     H14852   6.762   3.546   5.570 -1.7286 -0.5627  1.9463
  851MOL0     H14853   6.632   3.408   5.367  0.5426 -0.1216 -1.3366
  851MOL0     H14854   6.664   3.570   5.292 -0.0550 -1.5774 -2.5172
  851MOL0     H14855   6.836   3.402   5.250  2.2196  1.5014 -1.2642
  851MOL0     H14856   6.875   3.391   5.418  0.1264 -1.1763 -1.3415
  851MOL0     H14857   6.954   3.626   5.417  2.3974  0.4691 -1.3595
  851MOL0     H14858   6.881   3.637   5.248 -2.4367 -1.3874  0.9511
  851MOL0     H14859   7.097   3.436   5.302 -0.7922 -1.2037 -3.0100
  851MOL0     H14860   7.037   3.494   5.150  2.1668  1.5687 -0.7886
  851MOL0     H14861   7.260   3.570   5.224  1.0697  1.1632  1.4290
  851MOL0     H14862   7.192   3.679   5.338 -1.5786 -1.9413  1.5812
  851MOL0     H14863   7.124   3.677   5.028  0.7175  1.3942 -1.3628
  851MOL0     H14864   7.062   3.797   5.149  1.3360  1.4088  1.0251
  851MOL0     H14865   6.319   3.503   5.692 -1.4656 -1.3247  0.8240
  851MOL0     H14866   6.092   3.560   5.733 -1.3307 -0.2366 -0.9871
  851MOL0     H14867   5.771   3.768   6.072  2.7936  1.8444  0.4151
  851MOL0     H14868   5.582   3.890   6.135 -1.7036  0.3459 -0.1191
  851MOL0     H14869   3.630   3.687   6.806 -0.3518 -1.8055 -2.4176
  851MOL0     H14870   3.399   3.790   6.792  1.2041 -1.4162  0.6020
  851MOL0     H14871   3.191   4.154   6.343  1.0166  3.3926  1.8902
  851MOL0     H14872   2.949   4.200   6.301 -0.5580 -4.7870 -1.9588
  851MOL0     H14873   2.650   4.115   6.611  0.3209  0.2645  0.3982
  851MOL0     H14874   2.553   4.223   6.509 -1.0248  1.3027  1.3011
  851MOL0     H14875   2.690   4.408   6.597  1.5385 -0.6234 -0.4918
  851MOL0     H14876   2.742   4.298   6.734 -1.5678 -2.0074  0.4326
  851MOL0     H14877   2.459   4.326   6.664  0.1176  1.4752 -2.0782
  851MOL0     H14878   2.530   4.428   6.789  0.3704 -0.4962 -0.6677
  851MOL0     H14879   2.419   4.195   6.869  0.7321 -0.0325  2.9144
  851MOL0     H14880   2.578   4.131   6.815  2.4079  1.6972  0.5906
  851MOL0     H14881   2.675   4.333   7.174  2.7970  0.9253 -1.2924
  851MOL0     H14882   2.852   4.070   6.684  1.4345 -0.8332  0.4826
  851MOL0     H14883   3.012   3.984   6.839  0.0992  0.3144 -1.1143
  851MOL0     H14884   3.137   3.905   6.748 -4.3519 -1.6197 -0.0309
  851MOL0     H14885   3.165   4.073   6.821 -1.7207  1.4599  1.0045
  852MOL0     O14886   5.674   3.572   2.963  0.4631 -1.0127 -0.3416
  852MOL0     C14887   5.572   3.639   2.986  0.5249 -0.0328 -0.7560
  852MOL0     O14888   5.545   3.772   2.955 -0.0619 -0.2209 -1.1184
  852MOL0     C14889   5.638   3.827   2.880 -0.2320 -0.0188 -0.1869
  852MOL0     C14890   5.603   3.842   2.748  0.2838 -0.3230 -0.6622
  852MOL0     C14891   5.694   3.915   2.666  0.5005  0.6642 -0.3110
  852MOL0     C14892   5.808   3.975   2.728  0.9650 -0.0092 -0.2421
  852MOL0     O14893   5.900   4.041   2.652  0.7883  0.5559  0.2443
  852MOL0     C14894   5.868   4.077   2.516  0.1920  0.1078 -0.1249
  852MOL0     C14895   5.984   4.156   2.466  0.7886 -0.1070 -0.1760
  852MOL0     C14896   6.107   4.074   2.418  0.0463  0.1635  0.2556
  852MOL0     C14897   6.169   3.981   2.519  0.1559 -0.4143 -0.2760
  852MOL0     C14898   6.290   3.898   2.470 -0.7008  0.2362  0.2237
  852MOL0     C14899   6.399   3.990   2.420 -0.2081  0.2368  0.3381
  852MOL0     C14900   6.526   3.921   2.387 -0.2777  0.0771  0.5270
  852MOL0     C14901   6.591   3.845   2.508 -0.3642 -0.3360 -0.1178
  852MOL0     N14902   6.731   3.807   2.491  0.0584  0.0051 -0.1507
  852MOL0     C14903   6.798   3.728   2.581  0.2407 -0.3989 -0.9239
  852MOL0     C14904   6.917   3.713   2.520 -0.4658  0.2866  0.1554
  852MOL0     C14905   7.017   3.613   2.569  0.0704 -0.2439 -0.5453
  852MOL0     C14906   6.988   3.473   2.522 -0.4061 -0.3550  0.0331
  852MOL0     C14907   7.087   3.361   2.563  0.3662 -0.0723  0.4410
  852MOL0     C14908   7.199   3.347   2.461  0.3196  0.3379 -0.0213
  852MOL0     O14909   7.257   3.219   2.501 -0.2742  0.7864 -0.5628
  852MOL0     C14910   7.384   3.194   2.466 -0.4754  0.2491 -0.0514
  852MOL0     C14911   7.434   3.241   2.347 -0.1917  0.2172  0.3693
  852MOL0     C14912   7.564   3.197   2.306  0.4062 -0.4068 -0.2134
  852MOL0     C14913   7.647   3.130   2.392 -0.5271 -0.1179 -0.5794
  852MOL0     C14914   7.789   3.101   2.347  0.3188 -0.3957 -0.3944
  852MOL0     O14915   7.862   3.015   2.430  0.2860  0.0468  0.3688
  852MOL0     C14916   7.989   2.979   2.393 -0.1026  0.7366 -0.4155
  852MOL0     C14917   8.087   3.071   2.357  0.0287  0.0332 -0.4853
  852MOL0     C14918   8.219   3.038   2.329  0.5313 -0.0981  0.9930
  852MOL0     C14919   8.261   2.904   2.355 -0.1585 -0.7437 -0.1265
  852MOL0     O14920   8.393   2.875   2.356  0.3530  0.3684 -1.0601
  852MOL0     C14921   8.433   2.750   2.296  0.1583  0.9866  0.0376
  852MOL0     C14922   8.578   2.714   2.324 -0.1101  1.0808 -0.0418
  852MOL0     C14923   8.624   2.692   2.473  0.8497 -0.1338 -0.3456
  852MOL0     C14924   8.768   2.662   2.488 -0.0408 -0.9685 -0.2024
  852MOL0     C14925   8.806   2.527   2.427 -0.0212  0.3168  0.5058
  852MOL0     C14926   8.947   2.499   2.472  0.2240 -0.7226  0.3188
  852MOL0     C14927   9.000   2.361   2.420 -0.1222 -0.1930 -0.3770
  852MOL0     C14928   9.016   2.357   2.262  0.1410 -0.0308 -0.7961
  852MOL0    Cl14929   9.079   2.197   2.219 -0.1982 -0.1284  0.1167
  852MOL0     C14930   8.156   2.809   2.383  0.4487  0.4387 -0.7081
  852MOL0     C14931   8.020   2.843   2.397  0.3584  0.2494 -0.2539
  852MOL0     O14932   7.828   3.151   2.247  0.4769  0.2677  0.1224
  852MOL0     C14933   7.594   3.080   2.514  0.6113  0.7885 -0.7500
  852MOL0     C14934   7.467   3.118   2.548  0.1027 -0.1004 -0.4298
  852MOL0     N14935   6.927   3.806   2.416  0.4156  1.0222  0.5348
  852MOL0     N14936   6.807   3.851   2.387 -0.7228 -0.2252 -0.0043
  852MOL0     C14937   5.837   3.968   2.857 -1.2187  0.1921 -0.5542
  852MOL0     C14938   5.747   3.892   2.941  0.0748 -0.0598  0.1265
  852MOL0     C14939   5.466   3.554   3.055 -0.4165 -0.7395 -0.1401
  852MOL0     C14940   5.508   3.460   3.145  0.0509 -0.2818  0.5052
  852MOL0     C14941   5.419   3.391   3.224  0.7669 -0.0700  0.5023
  852MOL0     C14942   5.276   3.419   3.212  0.0257 -0.1830 -0.6240
  852MOL0     O14943   5.205   3.346   3.307  0.2283 -0.5241 -0.2428
  852MOL0     C14944   5.065   3.368   3.313  0.3550  0.6117 -0.2745
  852MOL0     C14945   4.994   3.294   3.422  0.2727 -0.7350 -0.0431
  852MOL0     C14946   4.844   3.332   3.423  0.7313  0.0351 -0.4416
  852MOL0     C14947   4.781   3.271   3.541  0.4379 -0.4592 -0.7220
  852MOL0     C14948   4.636   3.317   3.550 -0.8837 -0.7864 -0.1434
  852MOL0     C14949   4.527   3.349   3.537  0.8304 -0.7707 -0.0061
  852MOL0     C14950   5.224   3.516   3.125 -0.7010 -0.1338  0.2108
  852MOL0     C14951   5.325   3.585   3.047  0.2933 -0.2213  0.8454
  852MOL0     C14952   5.267   3.678   2.934 -0.2366 -0.2552 -0.2012
  852MOL0     H14953   5.514   3.793   2.710  1.0734 -0.1987 -2.8065
  852MOL0     H14954   5.665   3.932   2.563 -1.0790 -0.9557 -0.1860
  852MOL0     H14955   5.854   3.992   2.449 -0.7112 -0.4675  0.7641
  852MOL0     H14956   5.778   4.138   2.532  1.0064  1.1308  0.6265
  852MOL0     H14957   6.013   4.221   2.549 -2.3537  0.5820  0.5159
  852MOL0     H14958   5.956   4.219   2.380  0.6102  1.0739  0.7149
  852MOL0     H14959   6.188   4.142   2.390 -0.4963 -0.3763 -3.0646
  852MOL0     H14960   6.068   4.025   2.328 -2.7870  2.2584  0.1960
  852MOL0     H14961   6.194   4.035   2.611 -2.4094 -2.1308  1.5808
  852MOL0     H14962   6.090   3.909   2.543 -0.8237  1.0356  1.0139
  852MOL0     H14963   6.322   3.836   2.554  1.1591 -0.9646 -1.3008
  852MOL0     H14964   6.258   3.830   2.391  2.3595 -0.5879 -0.4038
  852MOL0     H14965   6.359   4.036   2.329 -2.1768  0.3737  1.2091
  852MOL0     H14966   6.408   4.069   2.496 -0.7443  1.6879 -1.0564
  852MOL0     H14967   6.600   3.987   2.339 -1.4726 -0.2255 -1.9306
  852MOL0     H14968   6.503   3.840   2.317 -0.5414  3.7592 -4.1874
  852MOL0     H14969   6.608   3.919   2.586  0.5018 -1.4397  0.7751
  852MOL0     H14970   6.524   3.769   2.548 -2.1443  0.4774 -1.4127
  852MOL0     H14971   6.757   3.695   2.676  1.0049  2.3867  0.4866
  852MOL0     H14972   7.114   3.648   2.533  0.1216 -1.0558 -1.2228
  852MOL0     H14973   7.015   3.612   2.678  1.1320  3.0000 -0.3908
  852MOL0     H14974   6.888   3.454   2.562  0.1827 -1.9341  0.8357
  852MOL0     H14975   6.981   3.482   2.414  1.8552 -3.1526 -0.4459
  852MOL0     H14976   7.043   3.261   2.573  0.5626 -0.1239  0.7955
  852MOL0     H14977   7.135   3.386   2.658  3.6960 -1.6643 -0.6274
  852MOL0     H14978   7.270   3.430   2.466  1.8585 -0.9154 -0.1836
  852MOL0     H14979   7.158   3.336   2.360 -3.2292 -0.5806  1.3743
  852MOL0     H14980   7.383   3.302   2.272 -0.5292  0.4440  0.7762
  852MOL0     H14981   7.598   3.248   2.216 -0.1283  0.6023  0.1355
  852MOL0     H14982   8.066   3.176   2.342  3.2743  0.5045 -2.5505
  852MOL0     H14983   8.294   3.108   2.294 -0.2509 -0.4797 -1.6110
  852MOL0     H14984   8.373   2.667   2.333  2.1338 -1.4297 -1.8034
  852MOL0     H14985   8.418   2.766   2.189 -1.7516  1.3542  0.3312
  852MOL0     H14986   8.594   2.616   2.277 -1.9092  0.9185 -0.3766
  852MOL0     H14987   8.649   2.782   2.276  1.0412 -1.7417 -2.6944
  852MOL0     H14988   8.595   2.782   2.529 -2.7867 -0.5997 -1.2069
  852MOL0     H14989   8.566   2.617   2.528 -1.2167 -0.1386 -2.3809
  852MOL0     H14990   8.785   2.660   2.596 -3.2244  3.7154  0.6928
  852MOL0     H14991   8.830   2.739   2.441 -0.5463 -1.7749 -2.3072
  852MOL0     H14992   8.798   2.531   2.318  1.9232 -2.4567  0.1363
  852MOL0     H14993   8.748   2.441   2.463  4.0095 -2.1065  1.8923
  852MOL0     H14994   9.016   2.576   2.435 -0.7866 -0.7468 -1.8019
  852MOL0     H14995   8.952   2.488   2.580  0.5791 -4.8509  0.0566
  852MOL0     H14996   8.936   2.284   2.465 -0.1457  2.2555  4.5098
  852MOL0     H14997   9.094   2.344   2.473 -0.9527  0.5161  1.4204
  852MOL0     H14998   8.915   2.363   2.222  0.7928 -0.8306 -2.6841
  852MOL0     H14999   9.058   2.450   2.221 -3.6370  1.3173 -2.0005
  852MOL0     H15000   8.171   2.703   2.402 -2.8175 -0.0383 -0.3282
  852MOL0     H15001   7.944   2.766   2.409  0.8535 -0.2186 -0.0887
  852MOL0     H15002   7.653   3.037   2.594 -1.1185 -2.1410 -0.9204
  852MOL0     H15003   7.418   3.091   2.641  3.6981  0.5844  1.8701
  852MOL0     H15004   5.927   4.009   2.901 -1.1306 -2.6409  2.2947
  852MOL0     H15005   5.768   3.873   3.046  0.8668 -0.1315 -0.0377
  852MOL0     H15006   5.613   3.435   3.156  0.4199 -0.4936 -2.7266
  852MOL0     H15007   5.446   3.300   3.277  0.6495 -1.4356 -1.6749
  852MOL0     H15008   5.019   3.337   3.219  2.3220  1.7168 -1.6882
  852MOL0     H15009   5.037   3.472   3.331 -1.2799  0.1642 -0.1229
  852MOL0     H15010   5.037   3.313   3.521 -2.2997 -0.4046  1.1092
  852MOL0     H15011   5.004   3.186   3.404  2.8445 -0.4694 -0.5499
  852MOL0     H15012   4.798   3.295   3.332  0.6136 -0.3431 -0.2308
  852MOL0     H15013   4.839   3.442   3.426  0.9231  0.1022 -2.0597
  852MOL0     H15014   4.790   3.162   3.538  2.0149 -0.7256  4.6515
  852MOL0     H15015   4.848   3.296   3.623 -1.7007 -1.7474  1.5380
  852MOL0     H15016   4.427   3.383   3.520  1.6068  0.1507 -3.5240
  852MOL0     H15017   5.116   3.526   3.126 -0.6340  2.1569  3.8859
  852MOL0     H15018   5.329   3.666   2.845  1.2992 -0.6939  0.8701
  852MOL0     H15019   5.168   3.639   2.911  0.0543 -1.1113 -0.0577
  852MOL0     H15020   5.260   3.783   2.964  2.3407  0.9189 -3.1593
  853MOL0     O15021   4.454   7.342   8.726 -0.0573  1.0004  0.2903
  853MOL0     C15022   4.377   7.384   8.643  0.4804 -0.4691  0.5586
  853MOL0     O15023   4.414   7.493   8.558  0.0557  0.2161 -0.3666
  853MOL0     C15024   4.545   7.505   8.539 -0.7092 -0.3862 -0.3426
  853MOL0     C15025   4.631   7.612   8.592 -0.3157 -0.1005 -0.0482
  853MOL0     C15026   4.772   7.603   8.563  0.0394  0.1198 -0.2267
  853MOL0     C15027   4.821   7.518   8.468  1.2154 -0.8288 -0.1248
  853MOL0     O15028   4.950   7.512   8.418  0.3126  0.3968 -0.9670
  853MOL0     C15029   5.049   7.611   8.463 -1.0093  0.7011  0.2631
  853MOL0     C15030   5.128   7.560   8.593  0.3385  0.1791 -1.0046
  853MOL0     C15031   5.226   7.458   8.565  0.7501  0.3308  0.4975
  853MOL0     C15032   5.330   7.491   8.458 -0.1099  0.8215 -0.3408
  853MOL0     C15033   5.455   7.402   8.469 -0.3335  0.3240 -0.2335
  853MOL0     C15034   5.545   7.405   8.347 -0.3477  0.2204  0.7102
  853MOL0     C15035   5.486   7.420   8.200 -0.3777  0.3594 -0.6980
  853MOL0     C15036   5.592   7.414   8.101  0.1124 -0.0260  0.3139
  853MOL0     N15037   5.649   7.277   8.086 -0.5575 -0.3040  0.1390
  853MOL0     C15038   5.600   7.180   8.007 -0.0951  0.4191 -0.6746
  853MOL0     C15039   5.686   7.075   8.028  0.3043  0.5456 -0.2521
  853MOL0     C15040   5.679   6.943   7.953  0.4149  0.0864  0.2140
  853MOL0     C15041   5.799   6.931   7.856 -0.3329 -0.3421  0.5067
  853MOL0     C15042   5.912   6.869   7.939  0.1805 -0.8170  0.1741
  853MOL0     C15043   6.033   6.859   7.857  0.1153  0.5270  0.0581
  853MOL0     O15044   6.051   6.746   7.773  0.1528 -0.1794 -0.0039
  853MOL0     C15045   6.175   6.685   7.765  0.0982  0.7073  0.8648
  853MOL0     C15046   6.177   6.544   7.727  0.0124 -0.3602  0.4493
  853MOL0     C15047   6.296   6.488   7.710  0.4654  0.6307  0.2234
  853MOL0     C15048   6.419   6.557   7.730 -0.0885 -0.1499  0.6441
  853MOL0     C15049   6.552   6.480   7.725  0.2830  1.3023  0.5239
  853MOL0     O15050   6.661   6.553   7.767  0.0214  0.1481  0.0098
  853MOL0     C15051   6.783   6.498   7.775 -0.1677  0.2731  0.5901
  853MOL0     C15052   6.866   6.540   7.877 -0.3037 -0.0602 -1.1570
  853MOL0     C15053   6.985   6.476   7.899 -1.3246 -0.0633  0.3791
  853MOL0     C15054   7.029   6.384   7.811  0.1793 -0.3039 -0.1756
  853MOL0     O15055   7.149   6.318   7.819 -0.4075  0.2820 -0.3922
  853MOL0     C15056   7.236   6.351   7.933 -0.0345  0.2332 -0.0408
  853MOL0     C15057   7.364   6.273   7.927  0.0558  0.4253  0.1931
  853MOL0     C15058   7.476   6.312   8.034  0.0886  0.1012 -0.6214
  853MOL0     C15059   7.436   6.289   8.181  0.3953  0.6986  0.9299
  853MOL0     C15060   7.417   6.138   8.209 -0.2008  0.5460 -0.3838
  853MOL0     C15061   7.541   6.049   8.194 -1.0243  0.5817  0.0885
  853MOL0     C15062   7.523   5.909   8.252 -0.1179  0.0376  0.3613
  853MOL0     C15063   7.374   5.849   8.237  0.0475  0.5835  0.6278
  853MOL0    Cl15064   7.338   5.826   8.062  0.3804  0.2441 -0.0575
  853MOL0     C15065   6.949   6.349   7.709  0.4117 -0.0592 -0.1698
  853MOL0     C15066   6.829   6.404   7.687 -0.4175  0.2938 -0.2606
  853MOL0     O15067   6.552   6.356   7.692 -0.0524  0.0834 -1.2251
  853MOL0     C15068   6.411   6.694   7.761 -0.1445 -0.7650  0.0368
  853MOL0     C15069   6.289   6.758   7.777 -0.0160  0.3642  0.5827
  853MOL0     N15070   5.788   7.120   8.104  0.2898 -0.1381  1.1384
  853MOL0     N15071   5.769   7.241   8.126  0.6010 -0.0452  0.5761
  853MOL0     C15072   4.727   7.432   8.404 -0.0296 -0.2530  0.4104
  853MOL0     C15073   4.596   7.421   8.448 -0.1150  0.2618 -0.1569
  853MOL0     C15074   4.241   7.318   8.618 -0.5644 -0.5527  0.9638
  853MOL0     C15075   4.158   7.387   8.529  0.5017  0.0425 -0.4808
  853MOL0     C15076   4.038   7.344   8.490 -0.4244  0.6945  0.5017
  853MOL0     C15077   3.984   7.228   8.550  0.0223  1.1930  0.2427
  853MOL0     O15078   3.859   7.195   8.504  0.2334 -0.0920 -0.2264
  853MOL0     C15079   3.779   7.111   8.586  0.3666 -0.7219 -0.8195
  853MOL0     C15080   3.785   6.973   8.519 -0.1506 -0.6409  0.0373
  853MOL0     C15081   3.679   6.876   8.594  0.0210 -0.6420  0.3853
  853MOL0     C15082   3.532   6.923   8.575 -0.7447  0.0238 -0.9014
  853MOL0     C15083   3.446   6.826   8.621  0.3064  0.2728  0.2542
  853MOL0     C15084   3.381   6.726   8.636 -0.6876  0.4208 -0.2969
  853MOL0     C15085   4.068   7.151   8.631 -0.7748 -0.1772 -0.5388
  853MOL0     C15086   4.204   7.188   8.655  0.2663  0.1418 -0.2721
  853MOL0     C15087   4.290   7.090   8.731 -0.8701  0.4822 -0.3063
  853MOL0     H15088   4.601   7.685   8.667  0.1484 -0.0169  0.0556
  853MOL0     H15089   4.832   7.666   8.628 -0.8547  0.7494  0.0128
  853MOL0     H15090   5.127   7.618   8.386 -2.3969  3.0772 -1.0707
  853MOL0     H15091   5.006   7.710   8.484  2.7924  2.0506  2.7202
  853MOL0     H15092   5.068   7.525   8.678 -0.5004 -0.4526 -1.8246
  853MOL0     H15093   5.177   7.648   8.635 -0.8720  0.3006  0.2067
  853MOL0     H15094   5.189   7.358   8.542  0.6255  0.3404  0.6540
  853MOL0     H15095   5.281   7.450   8.659  2.0749 -0.0273 -0.2880
  853MOL0     H15096   5.295   7.487   8.355  0.2962  0.0158 -0.4500
  853MOL0     H15097   5.362   7.595   8.467  1.8781  0.1865  0.4912
  853MOL0     H15098   5.522   7.421   8.554  1.4657 -3.1271 -0.6817
  853MOL0     H15099   5.426   7.296   8.472  0.0383  0.1854 -1.2563
  853MOL0     H15100   5.607   7.493   8.369 -2.2358  2.6618 -2.6277
  853MOL0     H15101   5.596   7.309   8.351 -0.2469  0.3053  1.8798
  853MOL0     H15102   5.448   7.523   8.192 -1.9215 -0.2676 -1.8981
  853MOL0     H15103   5.398   7.360   8.176 -0.1670 -1.4053  2.4465
  853MOL0     H15104   5.550   7.460   8.011  0.0183 -0.0620  0.3396
  853MOL0     H15105   5.675   7.479   8.132  2.9812 -3.1696 -0.1163
  853MOL0     H15106   5.514   7.200   7.945 -0.3659  2.5845  0.3239
  853MOL0     H15107   5.680   6.863   8.028 -3.0986  0.7924  1.2076
  853MOL0     H15108   5.584   6.931   7.900  0.8243  1.7450 -0.9420
  853MOL0     H15109   5.780   6.866   7.770  3.0913  0.8288 -1.2825
  853MOL0     H15110   5.835   7.022   7.809 -1.2875 -0.8536 -1.3132
  853MOL0     H15111   5.885   6.765   7.960  1.0866 -1.0510  0.2160
  853MOL0     H15112   5.939   6.919   8.032  1.7372  3.4571 -2.2662
  853MOL0     H15113   6.114   6.859   7.930 -0.0960 -0.1400  0.3000
  853MOL0     H15114   6.037   6.943   7.788 -1.3083 -0.5254 -1.3880
  853MOL0     H15115   6.083   6.492   7.729 -1.2182  1.7533  1.8103
  853MOL0     H15116   6.289   6.380   7.706 -3.3148  0.7354  0.9097
  853MOL0     H15117   6.829   6.619   7.941  0.8897 -1.8253  1.9280
  853MOL0     H15118   7.028   6.519   7.989 -0.6845  0.6766 -0.2632
  853MOL0     H15119   7.255   6.458   7.934 -1.4307  0.5345  2.3827
  853MOL0     H15120   7.186   6.315   8.023  0.4799 -1.4222 -0.3687
  853MOL0     H15121   7.346   6.165   7.921 -0.9916  0.6542 -3.3741
  853MOL0     H15122   7.412   6.304   7.834  2.0909 -0.2857  0.9521
  853MOL0     H15123   7.571   6.258   8.035  0.0508 -0.1248  2.6394
  853MOL0     H15124   7.513   6.413   8.016  0.0589  0.3211  0.4805
  853MOL0     H15125   7.333   6.317   8.204  0.2896  0.0354  1.2884
  853MOL0     H15126   7.502   6.346   8.247  0.5636  4.6558 -2.2647
  853MOL0     H15127   7.330   6.102   8.154  0.4236 -1.0764 -0.3572
  853MOL0     H15128   7.393   6.119   8.314  2.6331  0.5171  0.3414
  853MOL0     H15129   7.579   6.039   8.092  1.8251  1.9585  0.9133
  853MOL0     H15130   7.618   6.109   8.243 -2.1863  1.4271  0.9450
  853MOL0     H15131   7.552   5.908   8.358 -1.0374  1.1766  0.6477
  853MOL0     H15132   7.591   5.842   8.199  0.0502 -2.2638  3.2101
  853MOL0     H15133   7.370   5.743   8.263 -2.4001  0.1498 -1.1687
  853MOL0     H15134   7.292   5.907   8.280 -0.7304  1.1851 -1.5258
  853MOL0     H15135   6.966   6.268   7.638 -4.1421 -2.1870  0.7780
  853MOL0     H15136   6.769   6.369   7.604  0.4552 -3.7559  0.6288
  853MOL0     H15137   6.502   6.743   7.794 -0.8009 -0.1920  1.0434
  853MOL0     H15138   6.281   6.862   7.807 -1.4851 -0.4995  3.5496
  853MOL0     H15139   4.758   7.361   8.328 -2.5500 -0.0561 -0.8754
  853MOL0     H15140   4.525   7.348   8.410 -1.7454 -0.4331  3.6875
  853MOL0     H15141   4.192   7.475   8.475 -0.6238  0.1552 -1.0256
  853MOL0     H15142   3.984   7.398   8.413  1.8321  2.8212  0.2668
  853MOL0     H15143   3.679   7.155   8.593  1.8209  3.0631 -1.1552
  853MOL0     H15144   3.818   7.106   8.688  1.9640 -4.6500 -1.4253
  853MOL0     H15145   3.883   6.928   8.534 -0.5445 -1.2089  0.9904
  853MOL0     H15146   3.761   6.983   8.413  2.3963  1.6805 -0.4477
  853MOL0     H15147   3.715   6.862   8.696  1.9575 -1.9050 -0.3958
  853MOL0     H15148   3.684   6.781   8.540 -1.7234  0.5707 -2.0822
  853MOL0     H15149   3.520   7.017   8.631  0.3880  0.0592 -0.6921
  853MOL0     H15150   3.513   6.947   8.470  0.3452  0.4362 -1.0295
  853MOL0     H15151   3.317   6.641   8.644 -0.2064  0.0805 -0.0171
  853MOL0     H15152   4.027   7.063   8.679 -4.3948  1.9960  0.7928
  853MOL0     H15153   4.240   6.994   8.746 -1.2806  0.8297  0.6790
  853MOL0     H15154   4.388   7.068   8.688 -0.5248 -1.4568  1.3576
  853MOL0     H15155   4.307   7.145   8.824  2.8886  0.0966 -0.6116
  854MOL0     O15156   5.657   3.563   9.332 -0.2957  0.1365 -0.2110
  854MOL0     C15157   5.553   3.592   9.389 -0.1767 -0.1856 -0.4265
  854MOL0     O15158   5.532   3.714   9.450  0.1388  0.2253 -0.2261
  854MOL0     C15159   5.592   3.821   9.391 -0.0812  0.4779 -0.9992
  854MOL0     C15160   5.719   3.858   9.438 -0.1226 -0.1183  0.3206
  854MOL0     C15161   5.779   3.974   9.391  0.1617  0.7443 -0.3076
  854MOL0     C15162   5.722   4.036   9.276 -0.2287  0.6729  0.3682
  854MOL0     O15163   5.777   4.161   9.244  0.8835 -0.2583  0.2482
  854MOL0     C15164   5.788   4.203   9.112  0.2191 -0.1803  1.3168
  854MOL0     C15165   5.912   4.296   9.110 -0.4373 -0.4405 -0.4097
  854MOL0     C15166   6.045   4.223   9.135 -0.7702 -0.2173  0.1430
  854MOL0     C15167   6.159   4.320   9.101 -0.7920  0.0117 -0.3247
  854MOL0     C15168   6.288   4.280   9.178  0.8286 -0.0941  0.2221
  854MOL0     C15169   6.347   4.158   9.126 -0.4613  0.7470  0.3456
  854MOL0     C15170   6.474   4.130   9.197 -0.1267  0.0636 -0.5952
  854MOL0     C15171   6.466   4.113   9.353  1.1577 -0.1012 -0.2483
  854MOL0     N15172   6.586   4.072   9.416  0.3903  0.4973  0.2186
  854MOL0     C15173   6.629   3.942   9.429 -1.1303 -0.1805  0.0560
  854MOL0     C15174   6.737   3.956   9.508  0.0181  0.1390 -0.1846
  854MOL0     C15175   6.832   3.828   9.540 -0.8795 -0.1111 -0.0307
  854MOL0     C15176   6.896   3.785   9.400 -0.8247 -0.5027 -0.2034
  854MOL0     C15177   7.002   3.674   9.422 -0.9090 -0.0412  0.1723
  854MOL0     C15178   7.140   3.714   9.482  0.1772 -0.5393  0.7119
  854MOL0     O15179   7.219   3.600   9.501 -0.0651  0.7220  0.1782
  854MOL0     C15180   7.350   3.608   9.543 -0.5978 -0.3565 -0.3158
  854MOL0     C15181   7.421   3.735   9.560  0.3398 -0.0203 -0.6041
  854MOL0     C15182   7.551   3.746   9.601 -0.1902 -0.6474  0.1995
  854MOL0     C15183   7.624   3.632   9.638  0.7614 -0.4575 -0.3291
  854MOL0     C15184   7.762   3.651   9.686 -0.0852 -0.0437 -0.5761
  854MOL0     O15185   7.827   3.539   9.732  0.5935  0.3673 -0.3825
  854MOL0     C15186   7.961   3.543   9.744 -0.4611 -0.0514  0.7076
  854MOL0     C15187   8.029   3.421   9.721 -0.0527 -0.3125 -0.3825
  854MOL0     C15188   8.170   3.411   9.737 -0.1327  0.1375  0.2061
  854MOL0     C15189   8.245   3.529   9.761  0.0568  0.2376 -0.5590
  854MOL0     O15190   8.380   3.535   9.779  0.4253 -0.6062  0.1406
  854MOL0     C15191   8.464   3.417   9.778  0.2845  0.4520  0.3421
  854MOL0     C15192   8.592   3.443   9.845  0.2952  0.2362  0.3403
  854MOL0     C15193   8.676   3.555   9.786 -0.6909 -0.7018  0.7090
  854MOL0     C15194   8.823   3.549   9.823 -0.2976 -0.6136  0.9449
  854MOL0     C15195   8.899   3.647   9.731 -1.1781 -0.6308  0.7605
  854MOL0     C15196   9.020   3.720   9.797  0.5729  0.0874 -0.3362
  854MOL0     C15197   9.079   3.820   9.699 -0.5765 -0.1853 -1.1560
  854MOL0     C15198   9.142   3.947   9.762  0.0631  0.2080  0.1528
  854MOL0    Cl15199   9.248   4.025   9.636 -0.3882 -0.0099 -0.4603
  854MOL0     C15200   8.181   3.644   9.785 -0.3950  0.1603 -0.5308
  854MOL0     C15201   8.043   3.649   9.784  0.4187 -0.5728 -0.3256
  854MOL0     O15202   7.806   3.767   9.686  0.9095  0.4917  0.1308
  854MOL0     C15203   7.560   3.507   9.618  0.0195 -0.5925  0.8302
  854MOL0     C15204   7.428   3.499   9.570 -0.0086 -0.3477  0.6558
  854MOL0     N15205   6.743   4.087   9.550  0.2649  1.0521 -0.4784
  854MOL0     N15206   6.654   4.160   9.490 -0.7755  0.2928 -0.1656
  854MOL0     C15207   5.604   3.987   9.217  0.0802 -0.2036 -0.2520
  854MOL0     C15208   5.543   3.882   9.276  0.2263  1.1243  0.9349
  854MOL0     C15209   5.458   3.493   9.413  0.8031  0.2959 -0.8280
  854MOL0     C15210   5.501   3.353   9.429 -0.5973 -0.6999 -0.7029
  854MOL0     C15211   5.411   3.255   9.453 -0.3723  0.6743 -0.0830
  854MOL0     C15212   5.272   3.288   9.456  0.5023  0.3359 -0.9121
  854MOL0     O15213   5.176   3.184   9.468  0.7411 -0.0888  0.3019
  854MOL0     C15214   5.204   3.058   9.529  0.0702 -0.3437  0.7596
  854MOL0     C15215   5.073   2.982   9.544 -0.5718 -0.1456  0.0391
  854MOL0     C15216   4.970   3.043   9.650 -0.6153  0.0673  0.3889
  854MOL0     C15217   4.836   2.972   9.633  0.3696 -0.6661  0.6219
  854MOL0     C15218   4.744   3.057   9.553  0.0380 -0.6907 -0.7728
  854MOL0     C15219   4.655   3.107   9.485  0.2697  0.5412  0.5767
  854MOL0     C15220   5.228   3.414   9.433 -0.1774  0.1533  0.4349
  854MOL0     C15221   5.322   3.520   9.404 -0.4179 -0.3684 -0.5020
  854MOL0     C15222   5.262   3.648   9.369 -0.0498  0.3285  1.0684
  854MOL0     H15223   5.776   3.802   9.512  3.1692  1.5192 -0.8221
  854MOL0     H15224   5.866   4.020   9.437  3.4677 -3.2641 -1.8676
  854MOL0     H15225   5.803   4.130   9.032  1.6684  1.9056 -0.4652
  854MOL0     H15226   5.701   4.264   9.084 -0.6131 -1.2411  1.5544
  854MOL0     H15227   5.905   4.376   9.184  2.2077 -0.9486  0.4899
  854MOL0     H15228   5.917   4.347   9.014 -0.6502  0.5258  0.0765
  854MOL0     H15229   6.053   4.139   9.065 -1.1822  1.3943 -1.9447
  854MOL0     H15230   6.057   4.176   9.233 -0.9363  1.2400  0.8854
  854MOL0     H15231   6.190   4.314   8.996  1.1920 -1.0766  0.2663
  854MOL0     H15232   6.132   4.420   9.135 -0.0651 -0.8434  3.2218
  854MOL0     H15233   6.363   4.359   9.161  2.2836 -1.1941  1.2647
  854MOL0     H15234   6.266   4.271   9.285 -1.8771  0.2094 -0.2318
  854MOL0     H15235   6.284   4.069   9.138  0.7629  0.0466  2.0060
  854MOL0     H15236   6.369   4.168   9.019  0.6529  2.0130  0.6655
  854MOL0     H15237   6.548   4.202   9.162 -0.1621  1.2866  1.6692
  854MOL0     H15238   6.501   4.027   9.171  1.0220 -1.0839  4.0704
  854MOL0     H15239   6.440   4.208   9.400  0.6588  1.0151 -2.6471
  854MOL0     H15240   6.386   4.054   9.398  1.6488  0.2595  1.1552
  854MOL0     H15241   6.599   3.852   9.377  0.1014  0.0201 -1.0417
  854MOL0     H15242   6.915   3.847   9.608 -0.6357 -0.7471 -0.1485
  854MOL0     H15243   6.770   3.747   9.580 -3.6219  0.8653 -1.9721
  854MOL0     H15244   6.815   3.736   9.345 -0.3411 -2.5515  0.8049
  854MOL0     H15245   6.931   3.868   9.340 -2.3697 -0.0910 -0.5939
  854MOL0     H15246   7.009   3.621   9.326 -2.4783  1.1268 -0.6417
  854MOL0     H15247   6.955   3.604   9.492 -5.4014  2.8820  0.4723
  854MOL0     H15248   7.122   3.772   9.573  2.3557 -0.1707  0.9484
  854MOL0     H15249   7.189   3.786   9.417  1.2085 -0.3875  1.6367
  854MOL0     H15250   7.364   3.824   9.536 -3.9791 -1.8977  1.5919
  854MOL0     H15251   7.605   3.839   9.609  2.1106 -1.8610 -0.2411
  854MOL0     H15252   7.968   3.334   9.699  0.3760 -0.5971 -0.4365
  854MOL0     H15253   8.211   3.311   9.724  0.0625  0.3696 -1.0798
  854MOL0     H15254   8.417   3.332   9.830 -0.9490  0.7628 -0.2222
  854MOL0     H15255   8.486   3.385   9.675  4.9478  0.7116  1.0258
  854MOL0     H15256   8.574   3.466   9.950 -2.3295  0.3585 -0.0878
  854MOL0     H15257   8.652   3.352   9.846 -0.6260 -0.4167  2.7540
  854MOL0     H15258   8.670   3.554   9.677  1.5667 -1.3333  0.5270
  854MOL0     H15259   8.648   3.657   9.816  3.3730  0.9061 -0.1663
  854MOL0     H15260   8.863   3.448   9.812  1.6243  0.1978 -0.1580
  854MOL0     H15261   8.842   3.576   9.928  0.5197 -0.8499  0.8681
  854MOL0     H15262   8.826   3.725   9.707 -0.4369  0.1063  0.8576
  854MOL0     H15263   8.926   3.599   9.637  1.2604  1.8261  0.0866
  854MOL0     H15264   8.986   3.771   9.887 -0.8554 -0.0227 -0.7878
  854MOL0     H15265   9.095   3.651   9.837 -0.6543  0.1542  2.2978
  854MOL0     H15266   9.000   3.854   9.631 -2.7507  1.3106  1.8843
  854MOL0     H15267   9.160   3.770   9.645 -0.0573 -1.8818  1.0713
  854MOL0     H15268   9.059   4.009   9.798 -0.2185  0.4728 -0.9076
  854MOL0     H15269   9.208   3.909   9.841  1.9130  1.2372 -0.8214
  854MOL0     H15270   8.233   3.736   9.812  2.2168 -1.1269 -0.8753
  854MOL0     H15271   8.002   3.746   9.811  0.0596 -1.1141  1.1261
  854MOL0     H15272   7.615   3.420   9.652  2.7998  0.6870 -0.1090
  854MOL0     H15273   7.373   3.405   9.568  0.5429 -0.7277  1.7643
  854MOL0     H15274   5.552   4.034   9.134 -0.4569 -0.7574 -0.2392
  854MOL0     H15275   5.454   3.837   9.235  1.0173 -0.4403  0.8381
  854MOL0     H15276   5.605   3.329   9.406  0.1469  2.4173 -1.0309
  854MOL0     H15277   5.430   3.148   9.457 -0.6301  0.6237 -0.1815
  854MOL0     H15278   5.264   3.066   9.620 -1.8192 -0.7875  2.1324
  854MOL0     H15279   5.268   3.017   9.451 -0.4041 -1.0736  0.7397
  854MOL0     H15280   5.089   2.877   9.568 -2.9461 -1.2852 -2.8341
  854MOL0     H15281   5.015   2.982   9.451  0.5214  0.5973 -0.6719
  854MOL0     H15282   4.967   3.152   9.637  0.4533  0.4439  2.7797
  854MOL0     H15283   5.018   3.021   9.746  1.8755  1.4495 -0.4528
  854MOL0     H15284   4.842   2.875   9.583  0.7627  0.3547 -1.4336
  854MOL0     H15285   4.795   2.957   9.733 -0.2582 -0.3359  0.4149
  854MOL0     H15286   4.580   3.159   9.430  0.1141 -0.2650  0.0099
  854MOL0     H15287   5.120   3.415   9.423 -0.2674 -1.1413  1.0876
  854MOL0     H15288   5.309   3.684   9.277 -1.0715 -2.1063 -0.5027
  854MOL0     H15289   5.156   3.645   9.344  0.3434  2.8420 -1.3753
  854MOL0     H15290   5.274   3.725   9.446 -0.2101  4.6176 -2.7948
  855MOL0     O15291  11.192   8.759   7.194 -0.3988  0.1207 -0.1765
  855MOL0     C15292  11.138   8.858   7.152  0.8814  0.7657 -0.0707
  855MOL0     O15293  11.201   8.966   7.093  0.2047  0.1716 -0.4213
  855MOL0     C15294  11.338   8.969   7.102 -0.7646 -0.2478 -1.1107
  855MOL0     C15295  11.428   8.863   7.068 -0.1817  0.0927 -0.0426
  855MOL0     C15296  11.564   8.880   7.072  0.0748  0.3592  0.1340
  855MOL0     C15297  11.623   9.001   7.113 -0.9279 -0.0174 -0.1932
  855MOL0     O15298  11.759   9.029   7.121  0.0623 -0.4867 -0.1591
  855MOL0     C15299  11.843   8.933   7.052  0.4366 -0.7771  0.5366
  855MOL0     C15300  11.831   8.943   6.894 -1.2720 -0.8854  0.3475
  855MOL0     C15301  11.827   9.075   6.818  0.2036  0.3051 -0.0551
  855MOL0     C15302  11.916   9.190   6.872 -0.5088 -0.1518  0.7107
  855MOL0     C15303  12.047   9.202   6.792 -1.1286  0.6043  0.4867
  855MOL0     C15304  12.137   9.075   6.816  0.4189 -0.4776  0.0194
  855MOL0     C15305  12.279   9.070   6.761 -0.4795 -0.8760 -0.4888
  855MOL0     C15306  12.351   9.195   6.809  0.5385  0.3845  0.1979
  855MOL0     N15307  12.493   9.182   6.821 -0.5582  1.0758  0.5742
  855MOL0     C15308  12.549   9.105   6.915 -0.2714 -0.1046 -0.3922
  855MOL0     C15309  12.685   9.143   6.914  0.0837  0.9374 -0.0206
  855MOL0     C15310  12.797   9.085   6.983 -0.8175  0.2154 -0.1006
  855MOL0     C15311  12.845   8.962   6.914 -0.1813  0.0138  0.8749
  855MOL0     C15312  12.743   8.848   6.915  0.1823  0.6034 -0.2337
  855MOL0     C15313  12.806   8.719   6.863 -0.2031 -0.0105 -0.2353
  855MOL0     O15314  12.906   8.678   6.960 -1.0190 -0.1698  0.1569
  855MOL0     C15315  13.035   8.647   6.919  1.0929  0.6889  0.5134
  855MOL0     C15316  13.100   8.555   7.001  0.4206 -0.3966 -0.0717
  855MOL0     C15317  13.236   8.519   6.968 -0.5031 -0.1519  0.5982
  855MOL0     C15318  13.300   8.583   6.860 -0.5409 -0.0328 -0.6170
  855MOL0     C15319  13.446   8.556   6.844 -0.3301 -0.3567  1.3799
  855MOL0     O15320  13.521   8.650   6.766 -0.0163  0.2579 -0.5371
  855MOL0     C15321  13.663   8.658   6.770 -0.2710 -0.4445  0.1261
  855MOL0     C15322  13.728   8.714   6.667 -0.0219  0.0076  0.1911
  855MOL0     C15323  13.867   8.708   6.650 -0.9264 -0.1807 -0.2036
  855MOL0     C15324  13.947   8.672   6.763 -0.1401 -0.9567  0.5864
  855MOL0     O15325  14.079   8.670   6.754 -0.3709 -0.7523  0.0649
  855MOL0     C15326  14.159   8.635   6.865 -0.1689 -0.4117 -0.0130
  855MOL0     C15327  14.305   8.618   6.836 -0.2733 -0.1936  0.2124
  855MOL0     C15328  14.359   8.744   6.767 -0.1272 -0.7719  0.5365
  855MOL0     C15329  14.508   8.742   6.755  0.0589 -0.9265  1.0187
  855MOL0     C15330  14.562   8.878   6.702 -0.7348  0.9107  0.1123
  855MOL0     C15331  14.724   8.878   6.704  1.2837  1.0369  0.0589
  855MOL0     C15332  14.775   8.820   6.572 -0.1281 -0.4240 -0.5222
  855MOL0     C15333  14.767   8.921   6.460 -0.4923 -0.0235 -0.7637
  855MOL0    Cl15334  14.909   9.029   6.470 -0.1023 -0.1180 -0.0206
  855MOL0     C15335  13.876   8.646   6.885  0.6714 -0.0590  0.8057
  855MOL0     C15336  13.729   8.641   6.886 -0.7241  0.5411  0.2746
  855MOL0     O15337  13.493   8.465   6.902 -0.5216  0.4097 -0.1527
  855MOL0     C15338  13.239   8.676   6.779  1.3674 -0.0822 -0.1841
  855MOL0     C15339  13.104   8.704   6.811  0.3959 -0.1311 -0.4316
  855MOL0     N15340  12.693   9.244   6.815 -0.0218 -0.2805  0.9307
  855MOL0     N15341  12.580   9.261   6.751 -0.0537  0.2445  0.4335
  855MOL0     C15342  11.538   9.112   7.149 -0.5798  0.1018 -0.0001
  855MOL0     C15343  11.399   9.099   7.136 -0.6568  1.1827 -0.0982
  855MOL0     C15344  10.988   8.853   7.154  0.6588 -0.9822 -0.5351
  855MOL0     C15345  10.923   8.974   7.119 -0.0593 -0.5034  0.6071
  855MOL0     C15346  10.783   8.983   7.112 -0.6006 -0.8306 -0.3986
  855MOL0     C15347  10.703   8.872   7.161  0.8895 -1.1546  0.0121
  855MOL0     O15348  10.568   8.897   7.176  0.1739  0.0615  0.4969
  855MOL0     C15349  10.476   8.797   7.234 -0.1234 -0.1263 -0.2209
  855MOL0     C15350  10.333   8.858   7.241  0.9765  0.3682  0.0550
  855MOL0     C15351  10.234   8.752   7.284 -0.7828 -0.1232 -0.9753
  855MOL0     C15352  10.090   8.790   7.247 -0.2739  0.1394  0.2699
  855MOL0     C15353  10.076   8.810   7.097 -0.4192  0.8176 -0.4044
  855MOL0     C15354  10.059   8.820   6.977  0.3950  0.5495 -0.3381
  855MOL0     C15355  10.765   8.752   7.191  0.1267 -0.3352 -0.6240
  855MOL0     C15356  10.910   8.743   7.193  0.3623  0.0315 -0.9772
  855MOL0     C15357  10.956   8.605   7.245 -0.5191  0.1210 -0.2839
  855MOL0     H15358  11.392   8.766   7.033  0.9714 -0.5517  0.5037
  855MOL0     H15359  11.625   8.791   7.060 -1.0718 -0.4245 -0.0844
  855MOL0     H15360  11.942   8.952   7.095  0.1319  0.5159  0.7155
  855MOL0     H15361  11.817   8.831   7.081 -0.2658 -1.0175 -0.8480
  855MOL0     H15362  11.740   8.894   6.856 -1.0516 -0.0588 -1.3472
  855MOL0     H15363  11.918   8.890   6.854  1.3746  2.0854  1.7472
  855MOL0     H15364  11.723   9.109   6.831  0.6639  0.8932  2.4796
  855MOL0     H15365  11.835   9.059   6.710 -2.5957  0.5636 -0.3734
  855MOL0     H15366  11.874   9.287   6.842 -1.0603 -1.4599 -3.2709
  855MOL0     H15367  11.924   9.182   6.981  1.2687 -0.6119  0.5694
  855MOL0     H15368  12.025   9.212   6.685  1.5153  2.0902 -0.0182
  855MOL0     H15369  12.091   9.299   6.817  0.7149  0.4049 -1.6152
  855MOL0     H15370  12.146   9.058   6.924 -2.0169 -1.0850  0.1760
  855MOL0     H15371  12.078   8.994   6.772 -0.5716  0.3973 -0.3079
  855MOL0     H15372  12.262   9.076   6.653 -4.3422 -1.4767 -0.0786
  855MOL0     H15373  12.331   8.979   6.793 -0.5239 -1.7282 -2.6844
  855MOL0     H15374  12.318   9.280   6.749 -3.9963 -0.7490  0.6815
  855MOL0     H15375  12.319   9.226   6.909  0.9174  1.8942 -0.1241
  855MOL0     H15376  12.501   9.035   6.982 -0.6420 -0.9774 -1.5458
  855MOL0     H15377  12.882   9.154   6.991  0.3339 -0.9391 -1.8408
  855MOL0     H15378  12.776   9.042   7.082  1.9150 -4.2651 -1.1880
  855MOL0     H15379  12.865   8.978   6.808 -3.0569 -3.1691 -0.3423
  855MOL0     H15380  12.933   8.927   6.969 -0.2042  0.4454  1.1916
  855MOL0     H15381  12.661   8.867   6.845  1.3902  0.9854 -1.6042
  855MOL0     H15382  12.702   8.829   7.014 -1.8647  1.6340 -0.8267
  855MOL0     H15383  12.837   8.741   6.760 -0.5140  2.0010  0.0719
  855MOL0     H15384  12.737   8.634   6.861  0.9476 -0.9583 -0.7293
  855MOL0     H15385  13.059   8.507   7.089  1.2669  0.7489  0.9807
  855MOL0     H15386  13.278   8.436   7.023 -0.5147  0.2234  1.1791
  855MOL0     H15387  13.677   8.737   6.574  0.6595 -1.4669 -0.5880
  855MOL0     H15388  13.911   8.726   6.553  1.4893 -1.3224  0.6031
  855MOL0     H15389  14.149   8.719   6.934  2.5591  0.2725 -0.3291
  855MOL0     H15390  14.126   8.542   6.912 -2.2333 -0.6411 -1.7488
  855MOL0     H15391  14.366   8.599   6.924  0.6638 -2.1515 -0.7957
  855MOL0     H15392  14.314   8.536   6.764  2.1122  0.9350 -0.8694
  855MOL0     H15393  14.320   8.759   6.666  0.9755  0.3702  0.2619
  855MOL0     H15394  14.331   8.836   6.818 -0.3665  1.8361 -3.8400
  855MOL0     H15395  14.532   8.662   6.684 -0.5459 -0.4786  0.2872
  855MOL0     H15396  14.548   8.727   6.855  0.3923  0.6191  1.1373
  855MOL0     H15397  14.533   8.962   6.766 -1.2449 -0.3256  1.5728
  855MOL0     H15398  14.527   8.900   6.601  3.4668  1.6577 -1.4113
  855MOL0     H15399  14.761   8.978   6.727  0.3957  1.5228 -0.5428
  855MOL0     H15400  14.757   8.810   6.783 -0.7675 -2.1423 -1.5678
  855MOL0     H15401  14.718   8.729   6.553 -0.7826  0.1087 -1.1277
  855MOL0     H15402  14.877   8.782   6.587  0.8454  1.2306 -2.4201
  855MOL0     H15403  14.770   8.864   6.367  1.7640  0.7219 -1.2096
  855MOL0     H15404  14.672   8.973   6.469  0.5142  1.8873 -0.7994
  855MOL0     H15405  13.925   8.634   6.982 -0.8112  1.6758  1.8373
  855MOL0     H15406  13.687   8.610   6.981 -0.1046  3.6905  1.6923
  855MOL0     H15407  13.285   8.732   6.699 -0.1587 -0.2457 -1.2159
  855MOL0     H15408  13.050   8.778   6.753  0.9488  1.6280  1.2335
  855MOL0     H15409  11.596   9.202   7.170  2.2412 -1.3012 -1.2855
  855MOL0     H15410  11.329   9.180   7.149 -1.1774  0.7355 -0.0846
  855MOL0     H15411  10.978   9.062   7.088  0.4517 -0.7051  0.9347
  855MOL0     H15412  10.740   9.071   7.066  2.5357 -0.0714 -2.2268
  855MOL0     H15413  10.513   8.777   7.335 -1.2192 -0.7658  0.0692
  855MOL0     H15414  10.470   8.703   7.179  1.2919 -1.7593  2.2237
  855MOL0     H15415  10.294   8.878   7.140 -2.3123 -1.8015  0.7285
  855MOL0     H15416  10.317   8.953   7.291 -0.2615  2.1201 -3.3368
  855MOL0     H15417  10.246   8.730   7.391  1.4650  0.2857 -1.0972
  855MOL0     H15418  10.262   8.656   7.241 -0.0596 -0.3232 -0.1021
  855MOL0     H15419  10.022   8.719   7.295 -2.3408  1.5073 -0.5108
  855MOL0     H15420  10.061   8.889   7.284 -0.7863  1.0098 -2.2531
  855MOL0     H15421  10.026   8.818   6.875 -2.7842  1.9641  0.5429
  855MOL0     H15422  10.699   8.671   7.218 -1.5371  1.5437  1.2950
  855MOL0     H15423  10.969   8.537   7.161  0.2301 -0.7354  0.5003
  855MOL0     H15424  11.054   8.608   7.295 -1.0202 -2.1502  0.9812
  855MOL0     H15425  10.883   8.570   7.319  0.1081 -1.1543 -0.2289
  856MOL0     O15426   8.384   5.050   0.724  0.6592  0.5932  0.4052
  856MOL0     C15427   8.292   5.136   0.727  0.0766  0.1308 -1.1718
  856MOL0     O15428   8.305   5.266   0.774  0.7286  0.1642  0.4616
  856MOL0     C15429   8.428   5.312   0.787  0.2472  0.0068  0.1537
  856MOL0     C15430   8.533   5.298   0.684 -0.2409  0.2151  0.1529
  856MOL0     C15431   8.660   5.346   0.703 -0.2450  0.8908  0.7088
  856MOL0     C15432   8.699   5.387   0.834  0.5121 -0.4871  0.4397
  856MOL0     O15433   8.833   5.408   0.860  0.5186  0.0273 -0.3750
  856MOL0     C15434   8.915   5.488   0.771  0.2256  0.0847  0.4955
  856MOL0     C15435   9.018   5.407   0.698 -0.8926 -0.5882  0.2154
  856MOL0     C15436   9.065   5.281   0.768  0.4537 -0.4493  0.4728
  856MOL0     C15437   9.172   5.212   0.685 -0.7034 -0.3090 -0.5936
  856MOL0     C15438   9.217   5.072   0.730 -0.2805 -0.0055  0.2911
  856MOL0     C15439   9.106   4.968   0.706  0.6044 -0.3588 -0.3548
  856MOL0     C15440   9.161   4.823   0.711 -0.9898  0.1608  0.1260
  856MOL0     C15441   9.246   4.773   0.824  0.3255  0.1564 -0.1048
  856MOL0     N15442   9.372   4.712   0.788  0.0961  0.3086  0.5318
  856MOL0     C15443   9.491   4.767   0.758 -0.0652 -0.6831 -0.5842
  856MOL0     C15444   9.571   4.667   0.725  0.5062  0.7569 -0.1410
  856MOL0     C15445   9.703   4.690   0.654 -0.5522 -0.4538  0.2199
  856MOL0     C15446   9.710   4.591   0.537  0.3974 -0.8222 -0.7966
  856MOL0     C15447   9.853   4.611   0.481  1.0840 -0.5486 -0.3417
  856MOL0     C15448   9.969   4.558   0.556  0.4824 -0.1612 -0.2184
  856MOL0     O15449  10.080   4.574   0.467 -0.5886 -0.1114 -0.1984
  856MOL0     C15450  10.202   4.599   0.526  0.0734  0.3539 -0.6283
  856MOL0     C15451  10.300   4.677   0.462  0.2591  0.7717  0.3816
  856MOL0     C15452  10.430   4.691   0.517 -0.3881  0.0172  0.0059
  856MOL0     C15453  10.463   4.633   0.644 -0.1189  0.1770  0.5037
  856MOL0     C15454  10.596   4.635   0.697 -0.1666  0.1752  0.1614
  856MOL0     O15455  10.656   4.751   0.670 -0.0176  0.7042  0.0382
  856MOL0     C15456  10.787   4.769   0.704 -0.4833  0.7900 -0.3194
  856MOL0     C15457  10.881   4.665   0.726  0.3558 -0.0121  0.7905
  856MOL0     C15458  11.020   4.689   0.744  0.9213  0.2000 -0.4081
  856MOL0     C15459  11.073   4.821   0.740 -0.7970  0.4776  0.5286
  856MOL0     O15460  11.206   4.849   0.762 -0.4990  0.6106  0.4457
  856MOL0     C15461  11.284   4.759   0.839 -0.2216 -0.3456  0.0084
  856MOL0     C15462  11.422   4.804   0.862 -0.0164 -0.0781  0.4169
  856MOL0     C15463  11.488   4.768   1.002  0.2291  0.8494  0.0959
  856MOL0     C15464  11.612   4.851   1.019  0.2499  0.6760 -0.5035
  856MOL0     C15465  11.700   4.788   1.128 -0.1573  0.1892 -0.5448
  856MOL0     C15466  11.846   4.828   1.130 -0.2168  0.0601 -0.3949
  856MOL0     C15467  11.935   4.749   1.031 -0.5961  0.2849  0.8881
  856MOL0     C15468  12.085   4.801   1.042 -0.0030  0.0839 -0.0554
  856MOL0    Cl15469  12.164   4.748   1.194 -0.0327 -0.0931  0.2456
  856MOL0     C15470  10.987   4.921   0.703 -0.0954  0.5176  0.0157
  856MOL0     C15471  10.844   4.896   0.685 -0.3361 -0.0603  0.6282
  856MOL0     O15472  10.638   4.541   0.765 -0.0204  0.4056 -0.4592
  856MOL0     C15473  10.366   4.561   0.709 -0.0204 -0.4614 -0.2507
  856MOL0     C15474  10.240   4.541   0.651 -0.8139  0.7263  0.4173
  856MOL0     N15475   9.499   4.548   0.735  0.3207  0.0692 -0.0051
  856MOL0     N15476   9.382   4.574   0.782  0.1655 -0.4802 -0.4859
  856MOL0     C15477   8.604   5.409   0.931  0.2306 -0.3608  0.0054
  856MOL0     C15478   8.465   5.378   0.909 -0.3585  0.7138 -0.0403
  856MOL0     C15479   8.164   5.099   0.697  0.3063  0.5466  1.0928
  856MOL0     C15480   8.104   5.179   0.602  0.8298  0.1353 -0.5995
  856MOL0     C15481   7.977   5.153   0.555  0.0706 -0.6130 -0.7587
  856MOL0     C15482   7.903   5.043   0.599 -0.6267  0.8070  0.2043
  856MOL0     O15483   7.781   5.021   0.537 -0.3543 -0.1840 -0.5804
  856MOL0     C15484   7.735   4.885   0.544 -0.4886 -0.1996  0.3483
  856MOL0     C15485   7.610   4.876   0.448 -0.3859  0.1458 -0.5211
  856MOL0     C15486   7.474   4.883   0.504 -0.1824 -0.3648  0.3372
  856MOL0     C15487   7.444   5.022   0.558  0.1209  0.1831 -0.0875
  856MOL0     C15488   7.313   5.026   0.628 -0.2248 -0.1733 -0.4205
  856MOL0     C15489   7.213   5.003   0.701 -0.1392  0.1863  0.2869
  856MOL0     C15490   7.964   4.966   0.696 -1.0803  1.0991  0.5563
  856MOL0     C15491   8.098   4.992   0.748  0.0365  1.1375  0.6639
  856MOL0     C15492   8.151   4.907   0.854 -0.7134 -0.0594  0.1113
  856MOL0     H15493   8.514   5.252   0.587 -0.6346  0.5639  0.0645
  856MOL0     H15494   8.736   5.336   0.627  0.7298  1.2778  1.6166
  856MOL0     H15495   8.850   5.545   0.705 -1.3137 -0.9844  1.0196
  856MOL0     H15496   8.971   5.550   0.842 -0.9526  0.1534  1.4164
  856MOL0     H15497   9.099   5.468   0.657  0.9497 -2.2448  1.2545
  856MOL0     H15498   8.970   5.369   0.607 -1.9467  1.2811 -0.0612
  856MOL0     H15499   8.986   5.210   0.792 -1.8785  1.6961 -0.4509
  856MOL0     H15500   9.111   5.303   0.865 -0.1055  1.2807  0.3859
  856MOL0     H15501   9.148   5.210   0.578 -1.1601  1.0404 -0.5387
  856MOL0     H15502   9.255   5.284   0.692 -0.5507 -0.6461  3.1660
  856MOL0     H15503   9.312   5.046   0.682  0.2622  1.5515  0.4860
  856MOL0     H15504   9.241   5.081   0.836  0.8323  0.9553 -0.0292
  856MOL0     H15505   9.026   4.968   0.781 -0.4046  1.6260 -1.3439
  856MOL0     H15506   9.062   4.993   0.609  0.4787  1.2573  0.0913
  856MOL0     H15507   9.226   4.821   0.623  3.0423 -2.0577  2.8241
  856MOL0     H15508   9.077   4.756   0.693  1.2586 -2.6584 -0.5428
  856MOL0     H15509   9.277   4.852   0.894 -0.7232  1.1920 -0.7727
  856MOL0     H15510   9.185   4.707   0.886  0.7824 -0.1260  0.0530
  856MOL0     H15511   9.512   4.873   0.758  0.4942 -0.7818  0.5234
  856MOL0     H15512   9.701   4.792   0.615  0.3592 -0.6303 -0.3033
  856MOL0     H15513   9.783   4.676   0.728  0.2924  0.0427 -0.5705
  856MOL0     H15514   9.689   4.489   0.570  1.8973  0.2890  4.5806
  856MOL0     H15515   9.635   4.617   0.462  2.0554 -1.6141 -2.8231
  856MOL0     H15516   9.875   4.714   0.452  0.8969  0.6980  3.4257
  856MOL0     H15517   9.847   4.551   0.389  0.2497 -2.5651  0.9678
  856MOL0     H15518   9.960   4.456   0.593  0.3566 -0.0795 -0.0222
  856MOL0     H15519   9.971   4.607   0.653  0.7707 -1.2807  0.3510
  856MOL0     H15520  10.266   4.730   0.374 -0.9151 -0.0838  0.2921
  856MOL0     H15521  10.500   4.759   0.470  1.2987 -1.0389  0.8903
  856MOL0     H15522  10.854   4.560   0.718 -4.6043  1.0137  0.5743
  856MOL0     H15523  11.086   4.604   0.762 -0.5907 -0.8810  0.2123
  856MOL0     H15524  11.243   4.742   0.939  0.3357  1.4832  0.5805
  856MOL0     H15525  11.297   4.664   0.787  1.5211  2.1788 -4.6856
  856MOL0     H15526  11.488   4.770   0.782 -2.2218 -0.4815 -1.3369
  856MOL0     H15527  11.416   4.913   0.858  0.1536 -0.0405  1.0789
  856MOL0     H15528  11.419   4.794   1.082  1.3669  4.6389  0.0485
  856MOL0     H15529  11.508   4.660   1.006 -1.6163  0.4770  0.1498
  856MOL0     H15530  11.586   4.954   1.046 -2.3517  0.0347 -0.3249
  856MOL0     H15531  11.664   4.852   0.922  0.1705 -1.4644 -0.6169
  856MOL0     H15532  11.693   4.679   1.126 -1.2545  0.2250  0.2703
  856MOL0     H15533  11.662   4.819   1.226  0.4655 -0.9344  0.0754
  856MOL0     H15534  11.855   4.932   1.095  1.4909 -0.8767 -3.1247
  856MOL0     H15535  11.881   4.813   1.232 -1.6539 -1.0480 -0.0386
  856MOL0     H15536  11.893   4.763   0.931 -1.8381 -0.6686  1.2610
  856MOL0     H15537  11.932   4.646   1.067 -0.9395  1.1809  3.6733
  856MOL0     H15538  12.133   4.748   0.959 -0.5044 -0.5167  0.0322
  856MOL0     H15539  12.086   4.910   1.034  1.5665  0.3565  2.5721
  856MOL0     H15540  11.025   5.021   0.685 -2.4669  1.1293 -2.1681
  856MOL0     H15541  10.790   4.985   0.653 -0.5384  0.3539  2.0503
  856MOL0     H15542  10.383   4.509   0.803 -2.0936  0.5777  0.7461
  856MOL0     H15543  10.181   4.478   0.718 -1.5001  2.6320  1.6892
  856MOL0     H15544   8.644   5.449   1.024  0.3650 -0.8490  0.1602
  856MOL0     H15545   8.392   5.401   0.985  1.9405 -1.4622  3.0905
  856MOL0     H15546   8.152   5.271   0.568 -0.5277  1.0550 -0.1377
  856MOL0     H15547   7.939   5.228   0.486 -0.1554  0.3952  0.4148
  856MOL0     H15548   7.706   4.866   0.647 -0.7949 -1.6755  0.0148
  856MOL0     H15549   7.819   4.828   0.503 -0.9749 -1.2522  0.7655
  856MOL0     H15550   7.615   4.778   0.399  0.4251 -0.4862  0.7668
  856MOL0     H15551   7.619   4.953   0.371  0.1969  0.9712  0.3505
  856MOL0     H15552   7.468   4.814   0.588 -2.1903 -0.1900  0.3804
  856MOL0     H15553   7.402   4.854   0.427 -2.3730 -0.6706  2.3827
  856MOL0     H15554   7.517   5.047   0.636 -0.6545 -0.4499  0.8520
  856MOL0     H15555   7.440   5.105   0.486 -2.6542  2.8496  2.8047
  856MOL0     H15556   7.130   4.999   0.769 -1.7697  3.3523 -1.3343
  856MOL0     H15557   7.914   4.872   0.717 -0.5436 -0.4121 -3.9196
  856MOL0     H15558   8.084   4.822   0.874 -0.2695 -0.6977 -1.0219
  856MOL0     H15559   8.251   4.872   0.827  0.4058  2.2423  1.0422
  856MOL0     H15560   8.149   4.964   0.947  2.3354  1.0932 -0.4078
  857MOL0     O15561   9.914   0.442   9.327 -0.5125 -0.5718 -0.2702
  857MOL0     C15562   9.939   0.334   9.266 -0.9373 -0.7169  0.1791
  857MOL0     O15563  10.059   0.275   9.235 -0.4480 -0.1834  0.0452
  857MOL0     C15564  10.180   0.335   9.270  0.8067 -0.1574  0.1821
  857MOL0     C15565  10.261   0.372   9.158 -0.5104 -0.6699  0.2005
  857MOL0     C15566  10.393   0.424   9.178  0.4967  0.3133 -0.3352
  857MOL0     C15567  10.431   0.460   9.305 -0.5041  0.1408  0.3918
  857MOL0     O15568  10.556   0.523   9.330 -0.8310 -0.6213 -0.1235
  857MOL0     C15569  10.587   0.624   9.228 -0.6092 -0.1399 -0.8211
  857MOL0     C15570  10.706   0.699   9.272  0.5485 -0.3152  0.7731
  857MOL0     C15571  10.688   0.775   9.402  0.0831 -0.3091  0.2003
  857MOL0     C15572  10.798   0.871   9.433 -0.1888 -0.0777 -0.8714
  857MOL0     C15573  10.824   0.879   9.580  0.6082 -0.0469  0.0997
  857MOL0     C15574  10.966   0.922   9.606 -0.6774 -0.0653 -0.0459
  857MOL0     C15575  10.994   0.957   9.755  0.5577 -0.1779 -0.0018
  857MOL0     C15576  10.977   1.112   9.779 -0.2174  0.4221 -0.9160
  857MOL0     N15577  11.092   1.190   9.729  0.6355 -0.8696 -0.4014
  857MOL0     C15578  11.197   1.229   9.803  0.2449 -0.0918  0.4194
  857MOL0     C15579  11.278   1.297   9.720 -1.0054 -0.4116  1.1072
  857MOL0     C15580  11.410   1.350   9.759  0.0318  0.1625  0.1171
  857MOL0     C15581  11.526   1.292   9.680 -0.3461  0.6473 -0.2207
  857MOL0     C15582  11.668   1.319   9.732 -0.0530  0.4008 -0.3555
  857MOL0     C15583  11.726   1.449   9.678  0.6488 -0.3218  0.4317
  857MOL0     O15584  11.843   1.475   9.756 -0.1235 -0.4001  0.4330
  857MOL0     C15585  11.966   1.447   9.703  0.1476 -0.0084  0.5861
  857MOL0     C15586  12.014   1.498   9.586 -0.3594 -0.3043  0.3721
  857MOL0     C15587  12.146   1.471   9.548  0.2392 -0.6650  0.2617
  857MOL0     C15588  12.238   1.419   9.638 -0.4320 -0.2285  0.4022
  857MOL0     C15589  12.380   1.403   9.600 -0.6182  0.2568  0.2986
  857MOL0     O15590  12.451   1.319   9.681 -0.0162 -0.3092  0.1318
  857MOL0     C15591  12.589   1.302   9.655  0.1830  0.2048  0.1048
  857MOL0     C15592  12.630   1.253   9.536  1.4118  0.1422 -1.0223
  857MOL0     C15593  12.763   1.209   9.509 -0.0396 -0.8332 -0.4913
  857MOL0     C15594  12.858   1.245   9.601 -0.4496 -0.4308 -0.6239
  857MOL0     O15595  13.000   1.228   9.587 -0.1015 -1.5267  0.0279
  857MOL0     C15596  13.049   1.230   9.458  0.0261 -0.8026 -0.5627
  857MOL0     C15597  13.198   1.264   9.482  0.5309 -0.4190 -0.0719
  857MOL0     C15598  13.278   1.138   9.531  0.2082  0.7692  0.2527
  857MOL0     C15599  13.433   1.171   9.530 -0.1184  0.9260 -0.1981
  857MOL0     C15600  13.522   1.102   9.634  0.5234  0.1383 -0.2289
  857MOL0     C15601  13.496   0.945   9.634 -0.1012  0.2352  0.2612
  857MOL0     C15602  13.563   0.862   9.750 -0.8844  0.1516  0.0953
  857MOL0     C15603  13.714   0.884   9.771  0.0660  0.1593  0.6886
  857MOL0    Cl15604  13.797   0.856   9.620  0.1128  0.4467 -0.5626
  857MOL0     C15605  12.819   1.306   9.723 -0.2035 -0.2177  0.3669
  857MOL0     C15606  12.686   1.336   9.746 -0.7132  0.0506  0.8299
  857MOL0     O15607  12.426   1.466   9.505  0.0180  0.2471 -0.2372
  857MOL0     C15608  12.195   1.380   9.764  0.3689 -0.4179  0.3443
  857MOL0     C15609  12.061   1.392   9.795  0.2541 -0.8398  0.8036
  857MOL0     N15610  11.217   1.311   9.602  0.0833 -0.1587  1.2020
  857MOL0     N15611  11.102   1.259   9.614  0.4279  0.3224  0.3814
  857MOL0     C15612  10.339   0.441   9.412 -0.2772 -0.6274  0.0888
  857MOL0     C15613  10.215   0.374   9.395 -0.1145  0.5100 -0.3719
  857MOL0     C15614   9.824   0.252   9.232  0.3405 -0.0609  0.1662
  857MOL0     C15615   9.705   0.274   9.306  0.1000 -0.4776  0.8104
  857MOL0     C15616   9.581   0.226   9.260  0.3523 -0.3365 -0.1457
  857MOL0     C15617   9.575   0.139   9.152  0.4383  0.1180  0.7337
  857MOL0     O15618   9.450   0.085   9.114 -0.5321  0.2131 -0.9565
  857MOL0     C15619   9.445   0.010   8.988 -0.3731 -0.8073  0.2310
  857MOL0     C15620   9.309  -0.026   8.929 -0.2786  0.3458 -0.1334
  857MOL0     C15621   9.226  -0.114   9.022  0.7520  1.1740 -0.5438
  857MOL0     C15622   9.094  -0.168   8.958 -0.3209  0.5496  0.4807
  857MOL0     C15623   8.984  -0.075   8.972 -0.1388 -0.8467 -0.5807
  857MOL0     C15624   8.901   0.010   8.987  0.2028  0.9327 -0.1978
  857MOL0     C15625   9.695   0.098   9.089  0.1606 -0.3424 -0.1803
  857MOL0     C15626   9.819   0.162   9.126 -0.4223 -0.3653  0.7440
  857MOL0     C15627   9.932   0.117   9.037 -0.2168 -0.1030  0.1742
  857MOL0     H15628  10.236   0.359   9.054  4.3707 -2.4066 -1.0422
  857MOL0     H15629  10.452   0.429   9.087 -0.5679 -2.5326 -1.2943
  857MOL0     H15630  10.610   0.571   9.135 -0.9877  1.6555 -2.0028
  857MOL0     H15631  10.502   0.693   9.218 -1.2786 -0.9363 -0.7048
  857MOL0     H15632  10.723   0.779   9.199 -2.9627  0.6217  0.8405
  857MOL0     H15633  10.792   0.631   9.284  1.6667  0.3214 -2.5894
  857MOL0     H15634  10.676   0.701   9.482  2.2487 -1.5721 -0.5556
  857MOL0     H15635  10.594   0.831   9.395  0.6197  0.4902 -0.9342
  857MOL0     H15636  10.887   0.818   9.398  0.9241  1.6270 -0.7410
  857MOL0     H15637  10.778   0.967   9.385  1.2507  0.8187  0.2317
  857MOL0     H15638  10.762   0.951   9.634 -0.2553 -0.7115  0.0116
  857MOL0     H15639  10.814   0.778   9.623 -3.1547 -0.5359 -1.5571
  857MOL0     H15640  11.028   0.838   9.574 -0.8722  0.9443 -3.5153
  857MOL0     H15641  10.996   1.003   9.538 -0.6262 -0.1597 -0.1356
  857MOL0     H15642  11.096   0.929   9.784  1.3531  3.1088  0.7857
  857MOL0     H15643  10.923   0.904   9.819 -0.0765  1.1845  0.4712
  857MOL0     H15644  10.892   1.145   9.718  0.3675 -1.4694 -2.8801
  857MOL0     H15645  10.954   1.138   9.883  0.5967  0.5092 -0.7534
  857MOL0     H15646  11.215   1.199   9.906  1.3457 -1.3538 -0.0967
  857MOL0     H15647  11.414   1.459   9.757 -1.3431  0.2338  0.0410
  857MOL0     H15648  11.424   1.323   9.864 -1.0417  0.0013  0.2323
  857MOL0     H15649  11.513   1.183   9.676 -1.0260  0.7161  0.0443
  857MOL0     H15650  11.515   1.321   9.575 -0.5059 -1.1726 -0.7515
  857MOL0     H15651  11.736   1.237   9.710 -0.7795 -0.0110 -1.0998
  857MOL0     H15652  11.654   1.337   9.839 -1.2439  1.3420 -0.6472
  857MOL0     H15653  11.650   1.526   9.697  0.8956 -0.1607  0.7720
  857MOL0     H15654  11.750   1.431   9.573  1.3564 -0.0326  0.5404
  857MOL0     H15655  11.945   1.552   9.522 -1.5228 -0.7307  1.2309
  857MOL0     H15656  12.173   1.497   9.446  2.2311 -2.2317  0.3311
  857MOL0     H15657  12.546   1.233   9.470 -0.7646  1.9718  1.0273
  857MOL0     H15658  12.812   1.161   9.425  1.2830  2.8561 -2.0219
  857MOL0     H15659  13.042   1.126   9.425  3.0435 -2.6926  3.7916
  857MOL0     H15660  12.993   1.293   9.390  2.4759 -1.2287 -3.1752
  857MOL0     H15661  13.244   1.308   9.393  2.9923  1.7053  2.0807
  857MOL0     H15662  13.215   1.343   9.556  2.2372  0.8990 -1.7738
  857MOL0     H15663  13.248   1.104   9.630 -0.5206  0.7945  0.0478
  857MOL0     H15664  13.256   1.056   9.462 -6.6480  0.5968  1.9844
  857MOL0     H15665  13.438   1.280   9.540  3.6603  0.8690 -0.0081
  857MOL0     H15666  13.459   1.151   9.426 -0.3895  0.8501 -0.2543
  857MOL0     H15667  13.503   1.136   9.736  1.3572 -0.4701  0.1363
  857MOL0     H15668  13.626   1.124   9.609  0.7714 -0.3892  0.3097
  857MOL0     H15669  13.389   0.924   9.630 -0.9738  4.1337 -2.5039
  857MOL0     H15670  13.547   0.906   9.545 -1.9898 -2.8866  0.3859
  857MOL0     H15671  13.541   0.757   9.727 -1.1065  0.0623  0.6912
  857MOL0     H15672  13.513   0.875   9.846 -0.5537 -4.6542  1.1427
  857MOL0     H15673  13.740   0.986   9.800  0.9023 -0.5607  2.6705
  857MOL0     H15674  13.745   0.813   9.849 -0.5889 -1.8716 -0.8114
  857MOL0     H15675  12.900   1.336   9.789 -1.5014  0.5666  1.6590
  857MOL0     H15676  12.650   1.372   9.841  0.3031 -0.5874  1.4733
  857MOL0     H15677  12.265   1.347   9.841  0.9371 -1.2376 -0.5061
  857MOL0     H15678  12.027   1.359   9.892 -1.8982 -1.4188 -0.0774
  857MOL0     H15679  10.378   0.461   9.512  0.3837  1.3899 -0.5371
  857MOL0     H15680  10.153   0.351   9.481  2.2027  1.0256  1.5436
  857MOL0     H15681   9.707   0.349   9.385 -0.8453  2.5531 -1.8316
  857MOL0     H15682   9.487   0.254   9.308  0.8795 -0.8860  1.2421
  857MOL0     H15683   9.497  -0.087   8.990  1.3579  0.0528 -0.7103
  857MOL0     H15684   9.503   0.069   8.917 -0.1893 -0.1858  0.8877
  857MOL0     H15685   9.326  -0.079   8.835 -1.7677 -1.3823  0.5198
  857MOL0     H15686   9.252   0.066   8.913 -0.5952  0.2487  0.3823
  857MOL0     H15687   9.201  -0.067   9.117 -2.6239 -1.6942  0.2024
  857MOL0     H15688   9.287  -0.202   9.043  0.4679  1.1899  0.3772
  857MOL0     H15689   9.112  -0.189   8.852 -0.0112 -1.7912  0.9501
  857MOL0     H15690   9.071  -0.269   8.991  1.9743  0.3435  1.6624
  857MOL0     H15691   8.816   0.075   8.997 -1.6287 -1.1538 -1.3296
  857MOL0     H15692   9.698   0.020   9.013  2.8223 -2.7417  2.1501
  857MOL0     H15693   9.990   0.190   8.979  1.8609 -0.4652  1.6667
  857MOL0     H15694  10.006   0.073   9.104  1.6425  1.9304 -0.4077
  857MOL0     H15695   9.903   0.032   8.975  0.9328 -0.8071  0.5554
  858MOL0     O15696   1.331   3.373   2.471  0.0969  0.4209 -1.0337
  858MOL0     C15697   1.315   3.382   2.596 -0.2358 -0.2675 -0.1084
  858MOL0     O15698   1.395   3.312   2.685 -0.0496  0.3460 -0.3161
  858MOL0     C15699   1.516   3.251   2.663  0.5124 -0.3455  0.7510
  858MOL0     C15700   1.596   3.282   2.553 -0.4207  0.2420  0.0582
  858MOL0     C15701   1.717   3.217   2.530 -0.2813 -0.4201  0.7999
  858MOL0     C15702   1.762   3.117   2.624  0.4396  0.1255  0.2385
  858MOL0     O15703   1.886   3.051   2.605  0.4272 -0.4372 -0.0810
  858MOL0     C15704   1.940   2.982   2.712 -0.3343  0.0220 -0.5946
  858MOL0     C15705   2.077   2.920   2.669 -0.0978 -0.1065  0.3859
  858MOL0     C15706   2.174   3.029   2.632 -0.0974 -0.8028  0.4255
  858MOL0     C15707   2.320   2.988   2.603  0.3383  0.2942  0.2063
  858MOL0     C15708   2.420   3.107   2.581  0.2272 -0.6593  0.1444
  858MOL0     C15709   2.389   3.205   2.462 -0.4379  0.3665  0.1341
  858MOL0     C15710   2.380   3.142   2.317  0.6904 -0.4876  0.0943
  858MOL0     C15711   2.516   3.102   2.253  0.2626 -0.1257 -0.1477
  858MOL0     N15712   2.611   3.205   2.258 -0.4361  0.0532 -0.4209
  858MOL0     C15713   2.606   3.320   2.190  0.2723 -0.1214  0.4603
  858MOL0     C15714   2.706   3.393   2.239  0.4575 -0.0936  0.3465
  858MOL0     C15715   2.732   3.537   2.197  0.5179 -0.1078  0.7670
  858MOL0     C15716   2.663   3.636   2.289  0.1485  0.2076  0.3242
  858MOL0     C15717   2.647   3.771   2.214 -0.0052 -0.0591 -0.4121
  858MOL0     C15718   2.557   3.874   2.288 -0.2602  0.6604  0.0531
  858MOL0     O15719   2.527   4.003   2.227 -0.1991 -0.7039 -0.1528
  858MOL0     C15720   2.612   4.111   2.243  0.5235 -0.2421 -0.8705
  858MOL0     C15721   2.567   4.242   2.237  0.1916  0.6218 -0.9200
  858MOL0     C15722   2.657   4.352   2.254  0.3953  0.5337 -0.4273
  858MOL0     C15723   2.796   4.330   2.268 -0.8385 -0.1167 -0.2217
  858MOL0     C15724   2.887   4.446   2.252  0.0822  0.0152  0.0384
  858MOL0     O15725   3.009   4.436   2.313 -0.1437  0.6032  0.0561
  858MOL0     C15726   3.106   4.536   2.284 -0.0858  0.0234 -0.2619
  858MOL0     C15727   3.172   4.609   2.380 -0.7663 -0.4743  0.8075
  858MOL0     C15728   3.281   4.693   2.343  0.0603 -0.1173 -0.2785
  858MOL0     C15729   3.308   4.712   2.212  0.4040  0.4596 -0.4900
  858MOL0     O15730   3.405   4.800   2.181  0.0287 -0.1480  0.3173
  858MOL0     C15731   3.409   4.873   2.049  0.2787 -0.0290 -0.1269
  858MOL0     C15732   3.518   4.967   2.056 -0.7362  0.6180  0.7452
  858MOL0     C15733   3.541   5.036   1.916  0.3575 -0.5546 -0.0951
  858MOL0     C15734   3.667   5.124   1.914  0.4439 -0.0757  0.1061
  858MOL0     C15735   3.783   5.033   1.854  0.1374 -0.0453 -0.2594
  858MOL0     C15736   3.915   5.100   1.865  0.4827  0.1253  0.3134
  858MOL0     C15737   3.922   5.259   1.844 -0.7069  0.2686  0.3375
  858MOL0     C15738   4.069   5.305   1.824  0.0675  0.2888 -0.0302
  858MOL0    Cl15739   4.152   5.203   1.706 -0.3805  0.2316  0.0922
  858MOL0     C15740   3.252   4.631   2.112  0.2571  0.6221 -0.4448
  858MOL0     C15741   3.151   4.548   2.150  0.7710  0.6081  0.3731
  858MOL0     O15742   2.850   4.536   2.186  0.5245 -0.7193 -0.1456
  858MOL0     C15743   2.842   4.206   2.297  0.3068  0.4163 -0.3709
  858MOL0     C15744   2.742   4.097   2.292 -0.3005 -0.1797 -0.4517
  858MOL0     N15745   2.782   3.317   2.328  0.0590  0.3526  0.3249
  858MOL0     N15746   2.719   3.199   2.336 -0.5095 -0.0339 -0.2361
  858MOL0     C15747   1.679   3.086   2.736 -0.5335  1.2210 -0.4333
  858MOL0     C15748   1.562   3.158   2.753  0.5206 -0.6201 -1.0418
  858MOL0     C15749   1.195   3.452   2.644  0.1899  0.3029  0.2382
  858MOL0     C15750   1.090   3.489   2.556 -0.2458 -0.1826 -0.1440
  858MOL0     C15751   0.979   3.546   2.616 -0.4698  0.9952 -1.2767
  858MOL0     C15752   0.968   3.575   2.752 -0.0110 -0.5445 -0.2335
  858MOL0     O15753   0.854   3.632   2.801  0.0355  0.0508 -0.2654
  858MOL0     C15754   0.749   3.691   2.724  0.2161  0.1332 -0.4654
  858MOL0     C15755   0.782   3.831   2.681 -0.3843 -0.7974  0.2954
  858MOL0     C15756   0.682   3.870   2.571 -0.5348 -0.0523 -0.6727
  858MOL0     C15757   0.547   3.907   2.642  0.5770  0.1900 -0.2214
  858MOL0     C15758   0.465   3.980   2.546  0.4647  0.1257  0.7055
  858MOL0     C15759   0.386   4.011   2.452  0.0023  0.0897 -0.6382
  858MOL0     C15760   1.080   3.558   2.833 -0.2152 -0.2775 -0.2249
  858MOL0     C15761   1.195   3.501   2.783 -0.0351 -0.0445  0.0812
  858MOL0     C15762   1.310   3.491   2.880 -0.2736 -0.2838  0.6829
  858MOL0     H15763   1.570   3.367   2.491 -3.1049 -1.1688 -0.8966
  858MOL0     H15764   1.774   3.251   2.444 -2.0844  0.6146 -0.0504
  858MOL0     H15765   1.968   3.056   2.788 -0.2706  3.0290 -3.3186
  858MOL0     H15766   1.874   2.903   2.748 -0.1247  0.0202 -0.2076
  858MOL0     H15767   2.073   2.858   2.579  2.9766  0.7327 -0.4407
  858MOL0     H15768   2.122   2.857   2.745  1.8602  0.6097 -0.1222
  858MOL0     H15769   2.185   3.097   2.717  0.4338  0.2059 -0.4268
  858MOL0     H15770   2.134   3.090   2.550 -2.3557 -2.9972 -0.2458
  858MOL0     H15771   2.361   2.932   2.687  0.7506  0.9211  0.4324
  858MOL0     H15772   2.317   2.931   2.510 -0.2758 -0.1207  0.4778
  858MOL0     H15773   2.430   3.162   2.674 -0.7506 -0.1749 -0.0166
  858MOL0     H15774   2.523   3.075   2.563  0.5007  0.4581 -0.3192
  858MOL0     H15775   2.290   3.243   2.490 -1.3536 -3.0206  2.0081
  858MOL0     H15776   2.459   3.289   2.457  0.4299 -0.2974  0.7605
  858MOL0     H15777   2.338   3.226   2.261  1.8777  1.6862  2.2896
  858MOL0     H15778   2.306   3.061   2.314 -3.1554  2.7418 -2.6172
  858MOL0     H15779   2.555   3.009   2.296 -1.8513 -1.6550 -1.3642
  858MOL0     H15780   2.492   3.078   2.149  0.3391 -4.1051  0.5931
  858MOL0     H15781   2.533   3.362   2.122  0.9443  0.3311  0.0034
  858MOL0     H15782   2.840   3.548   2.205  0.7104  0.8035 -2.1811
  858MOL0     H15783   2.704   3.543   2.092 -0.4779 -1.2514  0.9297
  858MOL0     H15784   2.572   3.595   2.333  0.6446 -0.1085  1.0606
  858MOL0     H15785   2.730   3.642   2.375 -1.9324 -0.2718  2.0730
  858MOL0     H15786   2.612   3.760   2.111  1.6707  1.6189 -1.2280
  858MOL0     H15787   2.740   3.829   2.206  0.6366 -0.8601  0.7954
  858MOL0     H15788   2.605   3.898   2.382 -0.4393  3.6581 -0.5272
  858MOL0     H15789   2.469   3.810   2.299  0.7709 -1.2705 -1.9492
  858MOL0     H15790   2.463   4.271   2.228  0.3428  1.2964 -0.5307
  858MOL0     H15791   2.606   4.447   2.245 -3.1321 -1.2154 -0.2765
  858MOL0     H15792   3.154   4.602   2.487 -2.9082  2.5810  0.7957
  858MOL0     H15793   3.340   4.742   2.420 -0.3068  0.0857 -0.1233
  858MOL0     H15794   3.423   4.812   1.959 -0.5021  1.4964 -1.3221
  858MOL0     H15795   3.321   4.937   2.035  0.3970 -0.2796 -2.3496
  858MOL0     H15796   3.510   5.045   2.132 -0.9923 -0.6348  2.0477
  858MOL0     H15797   3.613   4.913   2.071 -1.0786  0.4087  2.3286
  858MOL0     H15798   3.536   4.969   1.830 -0.3082 -0.9032  0.2065
  858MOL0     H15799   3.457   5.103   1.898  0.3227 -0.9994 -1.7577
  858MOL0     H15800   3.690   5.172   2.009 -0.5843  1.9957 -0.6192
  858MOL0     H15801   3.657   5.209   1.846  0.7693 -1.2854 -1.5362
  858MOL0     H15802   3.760   4.997   1.753  1.6896 -0.4500 -0.4950
  858MOL0     H15803   3.786   4.938   1.909 -3.3493  0.0622  0.3236
  858MOL0     H15804   3.956   5.084   1.966 -2.7421 -1.5323  1.5125
  858MOL0     H15805   3.976   5.034   1.802  0.1027 -2.6485  2.5828
  858MOL0     H15806   3.873   5.316   1.924  0.0662  1.6765 -0.1664
  858MOL0     H15807   3.876   5.299   1.753  1.2172  2.7165  0.3359
  858MOL0     H15808   4.072   5.412   1.801  0.6173  0.2367 -0.2222
  858MOL0     H15809   4.117   5.283   1.920 -2.3100  0.3146  1.2241
  858MOL0     H15810   3.291   4.624   2.011 -0.1197 -0.8219 -0.5215
  858MOL0     H15811   3.092   4.487   2.082 -0.4123  0.7775  1.2131
  858MOL0     H15812   2.945   4.181   2.322  0.1054  1.0747  1.2869
  858MOL0     H15813   2.777   3.998   2.320 -0.8446 -0.8093 -1.9346
  858MOL0     H15814   1.708   3.019   2.817 -1.8993 -1.8033 -2.2876
  858MOL0     H15815   1.503   3.147   2.844  2.0154 -1.8424 -0.1591
  858MOL0     H15816   1.088   3.471   2.449 -0.3724  2.0143 -0.5518
  858MOL0     H15817   0.902   3.566   2.542 -0.9981  3.6778 -0.1070
  858MOL0     H15818   0.654   3.694   2.779  0.8174 -2.8121  0.9501
  858MOL0     H15819   0.734   3.625   2.638 -0.0702  1.1457 -1.2118
  858MOL0     H15820   0.881   3.832   2.635  0.1876  2.3743  1.4005
  858MOL0     H15821   0.778   3.907   2.759 -0.6960 -1.0842  0.5615
  858MOL0     H15822   0.660   3.790   2.500 -0.5387 -0.5167 -0.1578
  858MOL0     H15823   0.725   3.947   2.507  3.6987 -2.3384 -0.9426
  858MOL0     H15824   0.507   3.810   2.675  2.0069  0.1680  1.6072
  858MOL0     H15825   0.547   3.966   2.733 -2.6577  0.3962 -0.2550
  858MOL0     H15826   0.309   4.033   2.381 -1.1462  0.3691  0.6593
  858MOL0     H15827   1.092   3.594   2.934  1.8020 -2.2002  0.3045
  858MOL0     H15828   1.320   3.570   2.955  2.2995  0.5107 -0.3908
  858MOL0     H15829   1.312   3.388   2.919 -1.4119 -0.2803  0.7801
  858MOL0     H15830   1.405   3.497   2.826 -1.4269  2.9043 -1.2182
  859MOL0     O15831  10.934   6.004   9.139 -0.8484 -0.0695  0.1171
  859MOL0     C15832  10.920   5.935   9.238 -1.3629  0.4569  0.4364
  859MOL0     O15833  11.017   5.897   9.321  0.8603  0.1945  0.3000
  859MOL0     C15834  11.145   5.945   9.301 -0.8839 -0.0181  0.3964
  859MOL0     C15835  11.245   5.856   9.245  1.2971 -0.1537  0.7049
  859MOL0     C15836  11.376   5.888   9.248 -0.5347  0.0497 -0.1886
  859MOL0     C15837  11.427   6.002   9.303 -0.9386 -0.3472 -0.3461
  859MOL0     O15838  11.564   6.016   9.297 -0.2650  0.4276 -0.0003
  859MOL0     C15839  11.620   6.137   9.354 -0.0194 -0.2577  0.5997
  859MOL0     C15840  11.633   6.134   9.503 -0.4257  0.4220 -0.8936
  859MOL0     C15841  11.609   6.267   9.569  0.1485 -0.8524  0.3953
  859MOL0     C15842  11.678   6.259   9.706  0.3971  0.2213 -0.0189
  859MOL0     C15843  11.692   6.390   9.788  0.1739 -0.2670  0.0099
  859MOL0     C15844  11.773   6.356   9.912 -0.6570 -0.5760 -0.0206
  859MOL0     C15845  11.758   6.464  10.023 -0.6158 -0.0113  0.0373
  859MOL0     C15846  11.869   6.433  10.130  0.6597  1.2607 -0.4949
  859MOL0     N15847  11.880   6.523  10.243  1.0125 -1.0598  0.2580
  859MOL0     C15848  11.994   6.579  10.291 -0.2661 -0.5290 -0.3313
  859MOL0     C15849  11.949   6.676  10.376 -0.1658 -0.3273  0.1151
  859MOL0     C15850  12.047   6.755  10.460  0.3042  0.5959 -0.0925
  859MOL0     C15851  12.035   6.718  10.613 -0.2627  0.4786 -0.1728
  859MOL0     C15852  12.094   6.576  10.642  0.8781  0.3131 -0.6835
  859MOL0     C15853  12.244   6.556  10.616 -1.5322 -0.3725  0.0988
  859MOL0     O15854  12.331   6.652  10.674 -1.5480  0.2818 -0.6185
  859MOL0     C15855  12.463   6.606  10.661 -0.2937 -0.5953  0.3303
  859MOL0     C15856  12.541   6.676  10.576 -0.2665  0.9144 -0.3264
  859MOL0     C15857  12.679   6.634  10.562  0.4484  0.2722  0.0942
  859MOL0     C15858  12.739   6.529  10.636  1.3891  0.2572  0.5721
  859MOL0     C15859  12.879   6.489  10.623  0.3119 -0.0407  0.7813
  859MOL0     O15860  12.962   6.590  10.576 -0.4027  0.0851 -0.6618
  859MOL0     C15861  13.093   6.554  10.563  1.1679  0.3783 -0.7660
  859MOL0     C15862  13.128   6.443  10.481 -1.0467 -0.1880 -0.2379
  859MOL0     C15863  13.263   6.411  10.467 -0.2893  0.1686 -0.5011
  859MOL0     C15864  13.370   6.490  10.524 -0.0696 -0.4701  0.1419
  859MOL0     O15865  13.504   6.450  10.518  0.1276 -0.2461 -0.1037
  859MOL0     C15866  13.611   6.548  10.529  0.2986  0.5872 -0.0253
  859MOL0     C15867  13.743   6.461  10.513 -0.3554  0.3854  0.6838
  859MOL0     C15868  13.858   6.550  10.548 -0.1511  0.1354  0.9429
  859MOL0     C15869  14.006   6.482  10.536  1.1067 -0.5112  0.6341
  859MOL0     C15870  14.118   6.587  10.564  0.6336  0.3748  0.3071
  859MOL0     C15871  14.249   6.524  10.542  0.3502  0.3892  0.2328
  859MOL0     C15872  14.364   6.628  10.569 -0.3410  0.3743  0.3543
  859MOL0     C15873  14.492   6.594  10.495 -0.0996 -0.8554  0.7456
  859MOL0    Cl15874  14.635   6.701  10.520  0.1739 -0.7083 -0.1127
  859MOL0     C15875  13.328   6.597  10.594 -0.9407  0.3519 -0.3968
  859MOL0     C15876  13.193   6.628  10.622  0.4135 -0.5806  0.4069
  859MOL0     O15877  12.914   6.380  10.664 -0.0181 -0.1319 -0.6108
  859MOL0     C15878  12.653   6.475  10.738 -0.2309 -0.8039  0.1933
  859MOL0     C15879  12.519   6.513  10.749  0.1183  0.7377  0.1901
  859MOL0     N15880  11.811   6.691  10.364 -0.5748 -0.2637 -0.6390
  859MOL0     N15881  11.774   6.602  10.281  0.2137  0.0179  0.2292
  859MOL0     C15882  11.332   6.095   9.364 -0.6845  0.6450 -0.3248
  859MOL0     C15883  11.199   6.063   9.358 -0.6132  0.0765  0.3083
  859MOL0     C15884  10.793   5.867   9.237 -1.1923  0.7870 -0.4126
  859MOL0     C15885  10.690   5.908   9.319 -1.1515  0.6552  0.1970
  859MOL0     C15886  10.568   5.836   9.298  0.2888  0.4138 -0.1238
  859MOL0     C15887  10.549   5.743   9.193 -0.2201  0.0262  1.0708
  859MOL0     O15888  10.422   5.701   9.169  0.3636  0.5407  0.0828
  859MOL0     C15889  10.380   5.587   9.245  0.5977  0.6785  0.8164
  859MOL0     C15890  10.232   5.560   9.213  0.0463  0.1332  0.0452
  859MOL0     C15891  10.150   5.674   9.268  0.0877 -0.8936  0.2490
  859MOL0     C15892  10.002   5.650   9.264 -0.2276  0.1215 -0.9094
  859MOL0     C15893   9.944   5.551   9.359  0.6004  0.1487 -1.6538
  859MOL0     C15894   9.884   5.457   9.412  0.2291  0.1826 -0.5587
  859MOL0     C15895  10.660   5.700   9.114  0.6129 -0.4074  0.5243
  859MOL0     C15896  10.781   5.764   9.144 -1.0249 -0.1020 -0.2883
  859MOL0     C15897  10.904   5.718   9.084 -0.5812 -0.0984 -0.2970
  859MOL0     H15898  11.205   5.762   9.209  0.1057  0.2565  0.9071
  859MOL0     H15899  11.444   5.815   9.206  1.8117  1.2805  1.3054
  859MOL0     H15900  11.718   6.161   9.310  0.0442  0.0093  0.8815
  859MOL0     H15901  11.550   6.219   9.332 -1.5332 -1.3908  1.0369
  859MOL0     H15902  11.731   6.090   9.527  0.6352  3.3427  0.6620
  859MOL0     H15903  11.560   6.066   9.546  1.8724 -0.5913  1.6371
  859MOL0     H15904  11.504   6.291   9.590  0.5348 -1.4061  3.4273
  859MOL0     H15905  11.637   6.354   9.510  0.4885 -1.4716 -0.3788
  859MOL0     H15906  11.643   6.172   9.761  3.3706 -0.6802  0.6149
  859MOL0     H15907  11.784   6.240   9.693  0.5152 -0.9623  2.2049
  859MOL0     H15908  11.743   6.473   9.738  0.5062 -0.9263 -0.7674
  859MOL0     H15909  11.591   6.421   9.816  0.3356  2.3380 -1.9499
  859MOL0     H15910  11.739   6.258   9.945 -1.0888 -0.0581  1.1276
  859MOL0     H15911  11.877   6.341   9.882 -0.3889  0.8596  0.1063
  859MOL0     H15912  11.658   6.458  10.067 -0.9963 -0.3353 -0.8489
  859MOL0     H15913  11.781   6.563   9.981  1.9789 -0.7434 -0.4559
  859MOL0     H15914  11.839   6.336  10.172  1.6874  0.9240 -0.5132
  859MOL0     H15915  11.969   6.411  10.091  0.3850  0.0672 -0.5742
  859MOL0     H15916  12.090   6.540  10.259  0.8569  2.5014 -1.1027
  859MOL0     H15917  12.151   6.748  10.426  1.2959 -2.9390  3.0457
  859MOL0     H15918  12.021   6.861  10.456 -1.1879  0.5321  3.7833
  859MOL0     H15919  12.100   6.795  10.656  0.7455  0.5526 -1.7523
  859MOL0     H15920  11.930   6.727  10.643 -0.8305  1.7357 -2.3099
  859MOL0     H15921  12.050   6.494  10.584  2.7501 -0.4159 -1.1475
  859MOL0     H15922  12.085   6.554  10.749  0.5782  4.0519  0.1851
  859MOL0     H15923  12.257   6.565  10.507  0.0463 -2.2311  0.0854
  859MOL0     H15924  12.275   6.455  10.641  0.9532  0.3083  0.0244
  859MOL0     H15925  12.526   6.760  10.508  1.5449 -1.5140 -4.0609
  859MOL0     H15926  12.745   6.685  10.493 -0.2635  0.9555 -0.0976
  859MOL0     H15927  13.053   6.382  10.431 -0.0388 -2.4854  0.9484
  859MOL0     H15928  13.295   6.315  10.429  0.0062  0.1965 -0.3313
  859MOL0     H15929  13.602   6.620  10.448  0.9139  0.1377 -0.5053
  859MOL0     H15930  13.609   6.596  10.627  4.0475  0.7540  0.1143
  859MOL0     H15931  13.739   6.378  10.585 -2.3604 -0.5105 -0.3615
  859MOL0     H15932  13.745   6.427  10.409  0.2662 -0.1783  0.8695
  859MOL0     H15933  13.857   6.638  10.483  0.6562 -0.3680  0.2174
  859MOL0     H15934  13.846   6.587  10.650  1.5199 -0.4435  1.3965
  859MOL0     H15935  14.015   6.424  10.444  0.0806  1.4285 -0.7645
  859MOL0     H15936  14.019   6.428  10.630  0.8457  1.3928  1.8204
  859MOL0     H15937  14.110   6.627  10.665 -0.1607 -0.9147  0.7735
  859MOL0     H15938  14.106   6.672  10.496  1.4526  0.9280  0.8357
  859MOL0     H15939  14.264   6.439  10.609 -0.4915  1.0063  1.2262
  859MOL0     H15940  14.246   6.484  10.440  0.4096  0.3919  0.2292
  859MOL0     H15941  14.386   6.636  10.676  1.1152  0.8051  0.0524
  859MOL0     H15942  14.336   6.730  10.540 -0.6350  0.1582 -0.1301
  859MOL0     H15943  14.514   6.491  10.525  2.3420 -0.9515 -1.0893
  859MOL0     H15944  14.473   6.609  10.389 -0.0942 -4.7855  0.0651
  859MOL0     H15945  13.407   6.653  10.643 -0.1489 -1.9155  1.0670
  859MOL0     H15946  13.160   6.714  10.680  1.1980 -1.5087  2.3021
  859MOL0     H15947  12.704   6.409  10.807  3.1546  2.1068  0.7618
  859MOL0     H15948  12.460   6.478  10.833  1.6705  0.8933  1.4011
  859MOL0     H15949  11.359   6.192   9.403 -0.5526 -0.1712  1.7560
  859MOL0     H15950  11.122   6.131   9.393  0.0772  0.4769  1.0631
  859MOL0     H15951  10.701   5.995   9.383  3.5198  2.0625 -2.0658
  859MOL0     H15952  10.489   5.867   9.367  0.9446  1.4195  0.2001
  859MOL0     H15953  10.382   5.618   9.350  2.1745  1.9980  0.4269
  859MOL0     H15954  10.449   5.503   9.230 -2.8056 -1.9778 -1.8102
  859MOL0     H15955  10.213   5.464   9.262  1.7317  0.0018  0.5242
  859MOL0     H15956  10.216   5.537   9.108 -3.3056 -0.3366  0.5464
  859MOL0     H15957  10.175   5.764   9.212 -1.3344  0.5483  1.8236
  859MOL0     H15958  10.166   5.697   9.374 -3.5289 -0.2388  0.8093
  859MOL0     H15959   9.952   5.745   9.282  1.2583  0.7482  0.0645
  859MOL0     H15960   9.967   5.618   9.165 -1.1898 -2.8038  0.2592
  859MOL0     H15961   9.830   5.369   9.441  1.5331 -0.2671  0.5883
  859MOL0     H15962  10.646   5.636   9.028  2.1820  0.7675 -0.6618
  859MOL0     H15963  10.966   5.689   9.169 -0.7990 -1.9918 -0.7524
  859MOL0     H15964  10.879   5.629   9.026 -2.2457  1.9252 -2.9353
  859MOL0     H15965  10.959   5.785   9.018 -0.5914  0.4950  0.2817
  860MOL0     O15966   2.155   8.030  10.318 -0.6244  0.3072 -0.3828
  860MOL0     C15967   2.160   7.943  10.410  0.3009 -0.4166 -0.0323
  860MOL0     O15968   2.271   7.906  10.482  0.4825  0.5606  0.0066
  860MOL0     C15969   2.397   7.975  10.473 -0.5156  0.2851  0.6664
  860MOL0     C15970   2.413   8.116  10.466  0.9287  0.1128 -0.4026
  860MOL0     C15971   2.537   8.168  10.466 -0.5362 -0.6382 -0.0623
  860MOL0     C15972   2.652   8.087  10.478  0.2975  1.2941 -1.2407
  860MOL0     O15973   2.772   8.143  10.482 -0.4275  0.1625 -0.2253
  860MOL0     C15974   2.859   8.073  10.388 -0.0362  0.1630 -1.1749
  860MOL0     C15975   2.964   8.160  10.333 -0.8002  0.2165  0.1037
  860MOL0     C15976   3.076   8.193  10.434  0.8261  0.6590  0.0304
  860MOL0     C15977   3.138   8.333  10.410 -0.5539  0.4133 -0.4393
  860MOL0     C15978   3.273   8.339  10.484 -0.1998 -0.1754  0.0079
  860MOL0     C15979   3.400   8.291  10.405  0.6834  0.2126  0.0676
  860MOL0     C15980   3.519   8.285  10.505 -0.4178 -0.3209  0.3193
  860MOL0     C15981   3.565   8.430  10.550  0.0231  0.4264 -0.4004
  860MOL0     N15982   3.711   8.435  10.543  0.3236 -0.0019  0.1814
  860MOL0     C15983   3.790   8.518  10.468  1.3069  0.2071  0.1106
  860MOL0     C15984   3.914   8.501  10.512 -0.0150  0.0352 -0.4379
  860MOL0     C15985   4.036   8.583  10.463 -0.4366  0.5092 -0.4485
  860MOL0     C15986   4.074   8.680  10.575 -0.8496  0.1963 -0.0955
  860MOL0     C15987   4.199   8.768  10.547 -0.2759 -0.1866  0.1807
  860MOL0     C15988   4.240   8.850  10.669  0.0358  0.1731  0.4089
  860MOL0     O15989   4.360   8.913  10.641  1.1777 -0.3157 -0.5408
  860MOL0     C15990   4.447   8.962  10.742 -0.4268  0.0744 -0.8080
  860MOL0     C15991   4.391   8.999  10.863 -0.3662 -0.0839 -0.7702
  860MOL0     C15992   4.479   9.059  10.963 -0.2323  0.4406 -0.1103
  860MOL0     C15993   4.613   9.081  10.938 -0.3910 -0.4539 -0.7130
  860MOL0     C15994   4.706   9.148  11.027 -0.9273 -0.0938  0.1180
  860MOL0     O15995   4.832   9.168  10.980  0.2968 -0.3403 -0.7027
  860MOL0     C15996   4.954   9.185  11.051 -0.1587  0.1202 -0.0556
  860MOL0     C15997   5.059   9.254  10.988 -0.8250 -0.1578 -0.2541
  860MOL0     C15998   5.182   9.274  11.065  0.8842  0.0377  0.7570
  860MOL0     C15999   5.187   9.243  11.201  0.5320  0.0012 -0.5472
  860MOL0     O16000   5.295   9.271  11.287  0.2663  0.0558  0.1287
  860MOL0     C16001   5.411   9.342  11.221  0.3271 -0.2956  0.1744
  860MOL0     C16002   5.536   9.323  11.302  0.4170 -0.2783  0.5244
  860MOL0     C16003   5.650   9.419  11.258 -0.9008  0.1658  0.2831
  860MOL0     C16004   5.773   9.442  11.363 -0.1214 -0.3921  0.1066
  860MOL0     C16005   5.893   9.524  11.312  0.1835  0.1214 -0.7114
  860MOL0     C16006   5.980   9.553  11.445  1.1070 -0.1418 -0.0445
  860MOL0     C16007   6.114   9.617  11.407  0.3306 -0.3427  0.6137
  860MOL0     C16008   6.180   9.667  11.535 -0.6702  0.0374  0.2875
  860MOL0    Cl16009   6.113   9.816  11.589  0.1577  0.0411  0.2460
  860MOL0     C16010   5.085   9.162  11.258 -0.6781 -0.2217  0.6930
  860MOL0     C16011   4.968   9.142  11.188  0.1019  0.8785  0.4432
  860MOL0     O16012   4.664   9.191  11.138 -0.5076 -0.0956  0.7460
  860MOL0     C16013   4.669   9.034  10.812 -0.1331 -0.4096  0.1507
  860MOL0     C16014   4.585   8.979  10.716 -0.2903 -0.5937 -0.0194
  860MOL0     N16015   3.913   8.396  10.607 -0.4096 -1.0174  0.1774
  860MOL0     N16016   3.792   8.357  10.623 -0.5644  0.5417  0.0010
  860MOL0     C16017   2.629   7.946  10.496 -0.3873  0.0719  0.6731
  860MOL0     C16018   2.506   7.890  10.501  0.2871 -0.0322  0.7816
  860MOL0     C16019   2.025   7.870  10.426  0.1695  0.3286 -0.7165
  860MOL0     C16020   1.933   7.876  10.313  0.2219  0.2984 -0.2269
  860MOL0     C16021   1.811   7.814  10.327 -0.2622 -0.3773 -0.4325
  860MOL0     C16022   1.776   7.746  10.444  0.2099  0.6200  0.2697
  860MOL0     O16023   1.655   7.683  10.430  0.6947  0.6868 -0.3087
  860MOL0     C16024   1.623   7.597  10.542  0.0879 -0.3184  0.3318
  860MOL0     C16025   1.498   7.508  10.517 -0.9315 -0.2000  0.7696
  860MOL0     C16026   1.379   7.596  10.475  0.4733 -0.2395  0.5335
  860MOL0     C16027   1.266   7.514  10.404  0.4558  0.1073  0.8753
  860MOL0     C16028   1.182   7.443  10.502 -0.2193 -0.3622  0.1287
  860MOL0     C16029   1.110   7.397  10.587 -0.1452  0.1296  0.5360
  860MOL0     C16030   1.863   7.751  10.550  0.0866  0.1849 -0.5937
  860MOL0     C16031   1.988   7.795  10.541 -0.2176 -0.3999  0.0254
  860MOL0     C16032   2.090   7.763  10.647  0.0550 -0.2713  0.0214
  860MOL0     H16033   2.322   8.172  10.451 -0.9433 -2.8148 -0.8070
  860MOL0     H16034   2.540   8.275  10.445  1.1140 -0.9823 -1.9395
  860MOL0     H16035   2.904   7.990  10.443  3.6217  2.4185 -0.4199
  860MOL0     H16036   2.797   8.035  10.307 -1.1251  1.6124 -1.0661
  860MOL0     H16037   2.915   8.250  10.294  0.9322  1.0551 -0.2283
  860MOL0     H16038   3.015   8.117  10.247 -2.5009 -2.1308  0.1790
  860MOL0     H16039   3.156   8.121  10.415 -1.7231 -1.7306 -2.7393
  860MOL0     H16040   3.044   8.188  10.539  0.9694 -0.1746  0.0457
  860MOL0     H16041   3.145   8.360  10.304 -1.1945  2.3475 -0.0283
  860MOL0     H16042   3.063   8.400  10.453 -1.2628  0.1603 -1.2348
  860MOL0     H16043   3.288   8.445  10.509 -1.4509  0.1344 -0.4705
  860MOL0     H16044   3.267   8.276  10.573  0.6156  1.1908  1.0764
  860MOL0     H16045   3.383   8.189  10.370 -1.9689  1.2500 -1.9691
  860MOL0     H16046   3.414   8.353  10.316 -2.1733  0.8153 -0.0453
  860MOL0     H16047   3.607   8.247  10.452 -0.5614 -0.3560  0.1020
  860MOL0     H16048   3.490   8.215  10.584 -1.8291 -1.2321 -0.9468
  860MOL0     H16049   3.510   8.494  10.481 -0.6729 -1.6559 -1.8617
  860MOL0     H16050   3.536   8.458  10.652 -0.1918 -0.1279 -0.3067
  860MOL0     H16051   3.757   8.585  10.389 -1.8385 -0.5477  0.6531
  860MOL0     H16052   4.115   8.510  10.441 -0.9687 -0.0784 -0.4089
  860MOL0     H16053   4.002   8.641  10.376 -0.8491  0.4738 -0.3080
  860MOL0     H16054   3.984   8.741  10.586 -1.1236  0.2563 -2.2295
  860MOL0     H16055   4.084   8.615  10.663 -1.7152 -1.0018 -0.8450
  860MOL0     H16056   4.184   8.830  10.458 -0.9040 -2.7608 -1.6086
  860MOL0     H16057   4.284   8.704  10.527 -0.6333 -1.3772  2.2130
  860MOL0     H16058   4.238   8.780  10.753 -0.7918 -1.6323 -1.0422
  860MOL0     H16059   4.164   8.925  10.691 -0.7052 -0.4511  0.0524
  860MOL0     H16060   4.285   8.986  10.882 -0.0692  2.7209  4.6835
  860MOL0     H16061   4.433   9.089  11.057 -1.0926  2.0348 -1.0030
  860MOL0     H16062   5.046   9.282  10.884 -0.1391 -1.5019 -0.7354
  860MOL0     H16063   5.263   9.319  11.007 -0.5501  1.6667 -0.0852
  860MOL0     H16064   5.444   9.303  11.124 -0.7617  0.3266 -0.4640
  860MOL0     H16065   5.379   9.446  11.207 -3.0229 -1.4506 -2.0537
  860MOL0     H16066   5.515   9.337  11.408  0.0119  1.2062  0.2730
  860MOL0     H16067   5.582   9.225  11.285 -1.2551 -1.2164  1.1606
  860MOL0     H16068   5.689   9.373  11.167  0.0169 -1.1188  1.2806
  860MOL0     H16069   5.613   9.519  11.238  2.7413  1.5119 -0.5215
  860MOL0     H16070   5.820   9.347  11.393 -0.6549 -0.8265 -0.4159
  860MOL0     H16071   5.729   9.483  11.454  0.4583  0.2343  0.1142
  860MOL0     H16072   5.856   9.620  11.275  3.1394  0.8153 -2.1012
  860MOL0     H16073   5.948   9.485  11.226 -0.4214  0.5132 -1.2823
  860MOL0     H16074   5.923   9.621  11.509  1.4651 -1.6031  1.8976
  860MOL0     H16075   5.984   9.456  11.494  2.0106 -1.0331 -1.7948
  860MOL0     H16076   6.106   9.691  11.327 -2.0926 -0.6288  0.5364
  860MOL0     H16077   6.191   9.546  11.375 -1.0983 -0.9623 -1.7271
  860MOL0     H16078   6.185   9.596  11.618  2.5961  0.8651  0.9245
  860MOL0     H16079   6.285   9.685  11.510 -0.9773 -0.5265 -1.5331
  860MOL0     H16080   5.099   9.126  11.359  0.0365 -2.2869 -0.1096
  860MOL0     H16081   4.887   9.084  11.230  1.4539 -0.0275  1.8957
  860MOL0     H16082   4.774   9.032  10.786  0.1123 -0.1953  1.0984
  860MOL0     H16083   4.629   8.944  10.624 -0.5145 -0.3485 -0.2219
  860MOL0     H16084   2.714   7.880  10.509 -1.9735 -2.6916 -1.7585
  860MOL0     H16085   2.500   7.787  10.535 -2.1046  0.7693  3.1788
  860MOL0     H16086   1.954   7.924  10.219  0.3956  0.0279 -0.3252
  860MOL0     H16087   1.748   7.814  10.239 -2.6387  0.6731  1.1673
  860MOL0     H16088   1.595   7.664  10.625 -2.2389 -2.3608  1.3395
  860MOL0     H16089   1.702   7.534  10.583 -0.1844 -1.2403 -0.5260
  860MOL0     H16090   1.483   7.442  10.603 -1.7439 -1.1035 -0.0364
  860MOL0     H16091   1.531   7.447  10.432  0.2393  1.2786  0.1098
  860MOL0     H16092   1.415   7.672  10.404 -0.8715  1.5166  1.6695
  860MOL0     H16093   1.340   7.650  10.562 -2.0495 -1.3227  0.1600
  860MOL0     H16094   1.200   7.585  10.352  2.0048  0.3465 -0.8513
  860MOL0     H16095   1.303   7.444  10.330 -1.9398  1.2599 -1.6117
  860MOL0     H16096   1.043   7.350  10.655  0.9042 -0.4468  1.1857
  860MOL0     H16097   1.833   7.709  10.645 -0.3149  0.8771 -0.4140
  860MOL0     H16098   2.137   7.857  10.675  3.1026 -1.7635  0.4092
  860MOL0     H16099   2.050   7.706  10.732 -1.8698 -0.2421 -0.8091
  860MOL0     H16100   2.163   7.693  10.604  0.9276  1.3067 -1.1712
  861MOL0     O16101   8.901   6.631   2.582 -0.2066 -0.4823 -0.5628
  861MOL0     C16102   8.816   6.652   2.499  0.2716  0.2353  0.7387
  861MOL0     O16103   8.834   6.718   2.380 -0.3730  0.7631 -0.2192
  861MOL0     C16104   8.948   6.787   2.362  0.3243  0.1558  0.0591
  861MOL0     C16105   9.060   6.727   2.303  0.6451  0.2184  0.4878
  861MOL0     C16106   9.172   6.804   2.268 -0.5575 -0.2053 -0.0266
  861MOL0     C16107   9.169   6.942   2.298  0.6163  0.1896  0.1688
  861MOL0     O16108   9.275   7.021   2.267 -1.0582 -0.2868  0.4018
  861MOL0     C16109   9.290   7.146   2.347 -0.0387 -0.4868  0.5324
  861MOL0     C16110   9.405   7.224   2.276  0.6164  0.2836  0.4214
  861MOL0     C16111   9.462   7.335   2.364 -0.4019 -0.2457  0.4521
  861MOL0     C16112   9.609   7.351   2.316  0.2523 -0.3104 -0.0271
  861MOL0     C16113   9.692   7.472   2.378  0.3474 -0.0360 -0.4710
  861MOL0     C16114   9.799   7.423   2.490  0.6154 -1.1219 -0.2163
  861MOL0     C16115   9.893   7.526   2.543 -0.2518  0.2980  0.5024
  861MOL0     C16116   9.986   7.454   2.639 -0.2676  0.0106  0.6760
  861MOL0     N16117  10.109   7.538   2.657 -0.0487  0.3796 -0.2051
  861MOL0     C16118  10.105   7.661   2.716  0.6199 -0.3000  0.2318
  861MOL0     C16119  10.225   7.712   2.690  0.3930  0.8608 -0.3520
  861MOL0     C16120  10.280   7.837   2.752  0.1756 -0.1502  0.0969
  861MOL0     C16121  10.359   7.920   2.650  0.2320  1.2095  0.7252
  861MOL0     C16122  10.441   8.035   2.709  0.1521 -0.0082 -0.1607
  861MOL0     C16123  10.544   8.086   2.614  0.0495  0.3945  0.4716
  861MOL0     O16124  10.600   8.209   2.667  0.3318 -0.9392  0.2653
  861MOL0     C16125  10.701   8.266   2.600 -0.2828 -0.5903 -0.2617
  861MOL0     C16126  10.751   8.217   2.480  0.1283  0.6696  0.7614
  861MOL0     C16127  10.865   8.277   2.422  0.6314  0.2688  0.5373
  861MOL0     C16128  10.926   8.391   2.474 -0.6689  0.3676 -0.6934
  861MOL0     C16129  11.051   8.453   2.406 -0.7831  0.7088  0.9983
  861MOL0     O16130  11.087   8.417   2.276 -0.0353  0.3129  0.8764
  861MOL0     C16131  11.215   8.453   2.233  0.0222 -0.0874  0.1530
  861MOL0     C16132  11.242   8.578   2.177 -0.1680  0.1372 -0.3939
  861MOL0     C16133  11.372   8.599   2.124  0.4952 -0.1788  0.2937
  861MOL0     C16134  11.475   8.504   2.144  0.0141 -0.2237 -0.5036
  861MOL0     O16135  11.602   8.537   2.097  0.1560  0.4410  0.2302
  861MOL0     C16136  11.692   8.583   2.197 -0.0485  1.1013 -0.4443
  861MOL0     C16137  11.825   8.620   2.140  0.0121 -0.1814 -0.3448
  861MOL0     C16138  11.922   8.653   2.256  0.1450 -0.4209  0.1465
  861MOL0     C16139  12.046   8.730   2.211 -0.1823  0.2480  0.3038
  861MOL0     C16140  12.152   8.716   2.318 -0.0693  0.5723  0.0885
  861MOL0     C16141  12.283   8.779   2.267 -0.4589 -0.1169 -0.1989
  861MOL0     C16142  12.373   8.780   2.390  0.6070  0.8049 -0.5213
  861MOL0     C16143  12.504   8.836   2.349 -1.2835 -0.7544 -0.2808
  861MOL0    Cl16144  12.630   8.804   2.486  0.3045 -0.4970  0.2763
  861MOL0     C16145  11.447   8.382   2.207 -0.1558 -0.2406  0.1521
  861MOL0     C16146  11.316   8.355   2.243 -0.0825 -0.2954 -0.4072
  861MOL0     O16147  11.126   8.518   2.477 -0.6187  0.4430  0.4386
  861MOL0     C16148  10.874   8.448   2.597 -0.2951  0.7259  0.6666
  861MOL0     C16149  10.761   8.377   2.662 -0.1195 -0.0334 -0.7922
  861MOL0     N16150  10.304   7.621   2.628  0.3939 -0.1338 -0.1200
  861MOL0     N16151  10.230   7.519   2.606  0.0519  0.1251  0.4907
  861MOL0     C16152   9.053   7.000   2.362 -0.5272  0.4085 -0.2140
  861MOL0     C16153   8.947   6.926   2.393 -0.0692  0.3794 -0.1834
  861MOL0     C16154   8.688   6.582   2.516  0.2344 -1.0901 -0.5098
  861MOL0     C16155   8.575   6.624   2.438  0.1647  0.1210  0.4448
  861MOL0     C16156   8.450   6.560   2.458 -0.5371  0.1584 -0.0161
  861MOL0     C16157   8.434   6.450   2.537  0.8208 -0.0785 -0.0485
  861MOL0     O16158   8.313   6.409   2.567 -0.2492  0.4527 -0.3049
  861MOL0     C16159   8.282   6.270   2.539  0.3449  0.2658  0.1789
  861MOL0     C16160   8.178   6.219   2.637 -0.2751 -0.5592  0.3194
  861MOL0     C16161   8.038   6.289   2.623 -0.4312  0.4728 -1.0041
  861MOL0     C16162   7.926   6.231   2.705 -0.3901  0.1172  0.2034
  861MOL0     C16163   7.882   6.101   2.658 -0.0649  0.0749 -0.0198
  861MOL0     C16164   7.846   6.003   2.605 -0.8440  0.2278 -0.1763
  861MOL0     C16165   8.545   6.405   2.614  0.9539  0.2009  0.4164
  861MOL0     C16166   8.675   6.465   2.602 -0.4037 -0.4612 -0.0238
  861MOL0     C16167   8.782   6.407   2.693 -0.0337  0.7057 -0.2557
  861MOL0     H16168   9.045   6.621   2.284 -0.2255  0.3993  0.0769
  861MOL0     H16169   9.257   6.764   2.214 -0.3232  3.2454 -2.5939
  861MOL0     H16170   9.202   7.211   2.346 -0.3400 -0.8886  0.9253
  861MOL0     H16171   9.319   7.128   2.451 -2.3931  2.4191  1.8318
  861MOL0     H16172   9.358   7.260   2.184  0.6828 -0.9290 -0.0956
  861MOL0     H16173   9.485   7.157   2.246  0.0065 -1.4660  2.4821
  861MOL0     H16174   9.454   7.313   2.471  1.3833  0.3301  0.7284
  861MOL0     H16175   9.402   7.424   2.340  0.3936  0.2286  0.2062
  861MOL0     H16176   9.659   7.255   2.330  1.5445  0.3546  0.0270
  861MOL0     H16177   9.602   7.368   2.208 -0.1514  3.0534  0.4005
  861MOL0     H16178   9.745   7.521   2.295  1.4559 -0.1576  0.1410
  861MOL0     H16179   9.616   7.544   2.408 -2.0180 -2.5414 -0.1565
  861MOL0     H16180   9.743   7.382   2.574 -0.8383 -0.3311 -0.7648
  861MOL0     H16181   9.857   7.350   2.434 -0.1117 -2.7019  1.0268
  861MOL0     H16182   9.849   7.609   2.599  1.2582  1.2486  0.3292
  861MOL0     H16183   9.951   7.571   2.462 -1.0904 -1.0608 -0.9111
  861MOL0     H16184   9.935   7.439   2.735  0.4269  1.3102  1.2874
  861MOL0     H16185  10.014   7.355   2.604 -3.7639 -1.0001  0.4281
  861MOL0     H16186  10.026   7.722   2.757  1.3056  0.5161  0.3618
  861MOL0     H16187  10.198   7.896   2.794 -1.2095  0.3183 -3.0083
  861MOL0     H16188  10.345   7.810   2.836 -0.0308 -0.2532  0.2226
  861MOL0     H16189  10.433   7.858   2.597 -1.0706 -0.1549  0.4339
  861MOL0     H16190  10.290   7.953   2.572  0.3978  3.2570  1.3853
  861MOL0     H16191  10.486   7.990   2.798 -1.1973  1.1645  1.1646
  861MOL0     H16192  10.375   8.118   2.737  0.6916  0.5552 -0.5274
  861MOL0     H16193  10.485   8.102   2.524  0.6553  0.5133  0.0900
  861MOL0     H16194  10.622   8.014   2.588 -0.1385  0.6686 -0.9126
  861MOL0     H16195  10.719   8.125   2.432 -1.0871  0.6890  1.4914
  861MOL0     H16196  10.916   8.230   2.339  0.4217  0.1529  0.4752
  861MOL0     H16197  11.163   8.651   2.159 -0.0189 -0.1058 -2.2380
  861MOL0     H16198  11.394   8.689   2.067 -2.4781  0.4545 -0.0130
  861MOL0     H16199  11.652   8.675   2.240 -2.3242 -0.2169  0.4741
  861MOL0     H16200  11.702   8.508   2.275 -0.1632  0.7617 -0.7506
  861MOL0     H16201  11.862   8.530   2.091  0.1173 -1.0110  1.1944
  861MOL0     H16202  11.808   8.693   2.060 -2.5492 -0.3086  0.0040
  861MOL0     H16203  11.847   8.701   2.320 -1.8124 -1.5317 -1.1942
  861MOL0     H16204  11.940   8.556   2.302  0.2023 -0.9953 -1.0664
  861MOL0     H16205  12.029   8.832   2.177  0.5476  0.2875  0.0398
  861MOL0     H16206  12.082   8.691   2.115 -1.1629  0.6034 -0.2251
  861MOL0     H16207  12.175   8.611   2.337 -1.4514 -0.5749 -3.6722
  861MOL0     H16208  12.114   8.764   2.409  0.1625  2.1760 -0.6191
  861MOL0     H16209  12.318   8.735   2.173  0.4711  1.8664 -0.8386
  861MOL0     H16210  12.260   8.884   2.245 -0.3442 -0.0048  0.2172
  861MOL0     H16211  12.399   8.677   2.414  1.2014  0.7308 -1.4394
  861MOL0     H16212  12.319   8.825   2.473 -1.8992 -0.1654 -1.5159
  861MOL0     H16213  12.534   8.771   2.267 -1.1005  0.1910 -0.9862
  861MOL0     H16214  12.512   8.938   2.310 -0.5629 -1.5696 -2.3920
  861MOL0     H16215  11.530   8.312   2.208  0.0020 -0.1532 -2.0703
  861MOL0     H16216  11.304   8.248   2.261  0.7228 -0.0802  1.7124
  861MOL0     H16217  10.925   8.528   2.649  4.1540 -1.6140  0.3298
  861MOL0     H16218  10.728   8.422   2.755  1.1884  2.2980 -1.3790
  861MOL0     H16219   9.038   7.105   2.386 -0.7573  0.7619 -1.8252
  861MOL0     H16220   8.869   6.979   2.447  1.2415  1.6655  0.5516
  861MOL0     H16221   8.581   6.708   2.370 -0.7194  1.2105  1.6696
  861MOL0     H16222   8.369   6.593   2.393  0.0391 -0.4634 -1.0865
  861MOL0     H16223   8.369   6.205   2.549 -0.4726 -0.5413  3.1261
  861MOL0     H16224   8.254   6.271   2.434  1.6644 -1.4097 -0.2213
  861MOL0     H16225   8.214   6.230   2.740 -0.2134 -1.6486  0.4262
  861MOL0     H16226   8.167   6.111   2.626 -2.0276 -0.4141  0.4025
  861MOL0     H16227   8.008   6.294   2.517 -1.3106  1.3056 -0.7338
  861MOL0     H16228   8.053   6.394   2.649  0.1483  0.1389  0.0867
  861MOL0     H16229   7.940   6.221   2.813 -2.4137 -1.4982  0.3843
  861MOL0     H16230   7.844   6.301   2.689  1.3592  2.4891  1.0119
  861MOL0     H16231   7.819   5.918   2.544  1.6903  1.5911 -3.4716
  861MOL0     H16232   8.533   6.329   2.690 -1.2593  1.5199  1.4952
  861MOL0     H16233   8.746   6.308   2.724 -2.1447  1.6973  0.6374
  861MOL0     H16234   8.879   6.392   2.644  0.6671 -1.4300  1.5895
  861MOL0     H16235   8.787   6.475   2.778  0.7738 -1.4226  1.5031
  862MOL0     O16236   1.648   7.020   4.938 -0.1374 -0.0440  0.9584
  862MOL0     C16237   1.660   6.897   4.941 -0.6002  0.0296  0.1535
  862MOL0     O16238   1.777   6.818   4.980  0.4351  0.2169 -0.1083
  862MOL0     C16239   1.881   6.896   5.017 -0.4012  0.8209 -0.0178
  862MOL0     C16240   1.879   6.982   5.127 -0.0178 -0.6071 -0.5108
  862MOL0     C16241   1.990   7.042   5.175  0.3231  0.3506 -0.1394
  862MOL0     C16242   2.106   7.017   5.103  0.4739 -0.5395  0.1972
  862MOL0     O16243   2.220   7.079   5.140 -0.4925  0.7385 -0.2489
  862MOL0     C16244   2.253   7.070   5.277 -0.1787  0.0638 -0.4620
  862MOL0     C16245   2.383   7.148   5.286 -0.2046 -0.3401 -0.4636
  862MOL0     C16246   2.501   7.039   5.271  0.5119 -0.2773 -0.1527
  862MOL0     C16247   2.640   7.076   5.304 -1.1328  0.2281 -0.4379
  862MOL0     C16248   2.730   6.953   5.313 -0.2189  0.0991 -0.3233
  862MOL0     C16249   2.874   7.013   5.333 -0.3827  0.3026 -0.2502
  862MOL0     C16250   2.970   6.907   5.377 -0.8452  1.0614 -0.2727
  862MOL0     C16251   3.115   6.965   5.404 -0.6734  0.2897  0.0430
  862MOL0     N16252   3.205   6.848   5.399  0.5536 -0.0935 -1.0487
  862MOL0     C16253   3.241   6.760   5.498 -0.4005 -0.5790 -0.8824
  862MOL0     C16254   3.343   6.686   5.450  0.1790 -0.4297  0.2774
  862MOL0     C16255   3.420   6.590   5.542  0.5374  0.0136  0.2528
  862MOL0     C16256   3.517   6.677   5.621 -1.3150 -0.0393  0.2577
  862MOL0     C16257   3.632   6.591   5.680  0.2996 -0.6057 -0.5135
  862MOL0     C16258   3.736   6.686   5.744 -0.0693  0.9081 -0.1374
  862MOL0     O16259   3.699   6.726   5.870  0.4486 -1.2982 -0.2811
  862MOL0     C16260   3.789   6.809   5.941 -0.3638 -0.1011 -0.2148
  862MOL0     C16261   3.770   6.824   6.076  0.3339  0.7405  0.3817
  862MOL0     C16262   3.862   6.879   6.156 -0.5227 -0.1431 -0.9694
  862MOL0     C16263   3.976   6.949   6.105  0.2283 -0.1624  0.2795
  862MOL0     C16264   4.071   7.014   6.185 -0.5140  0.2152  0.0647
  862MOL0     O16265   4.207   7.031   6.124  0.5611  0.2154  0.3901
  862MOL0     C16266   4.296   7.099   6.200  0.2368  0.0549 -0.3059
  862MOL0     C16267   4.414   7.040   6.239 -0.5713  0.3748 -0.1812
  862MOL0     C16268   4.507   7.112   6.324 -0.3939 -1.2602  0.4022
  862MOL0     C16269   4.479   7.250   6.358 -0.3477  0.8379 -0.0464
  862MOL0     O16270   4.557   7.327   6.444  0.0683 -0.7795  0.3728
  862MOL0     C16271   4.697   7.297   6.486  0.0951  0.0881  0.0272
  862MOL0     C16272   4.778   7.415   6.443 -0.6182  0.1580  0.3540
  862MOL0     C16273   4.827   7.414   6.300  0.5760 -0.5190 -0.7516
  862MOL0     C16274   4.925   7.525   6.250 -0.8499 -0.2405 -0.5497
  862MOL0     C16275   5.058   7.535   6.332  0.1113  0.8394 -0.6392
  862MOL0     C16276   5.141   7.410   6.322 -0.2251  0.8011 -0.1000
  862MOL0     C16277   5.269   7.427   6.407  0.0299 -0.2744 -0.2667
  862MOL0     C16278   5.385   7.337   6.379 -0.3710 -0.0031 -0.1062
  862MOL0    Cl16279   5.338   7.161   6.403  0.1343 -0.3098  0.0197
  862MOL0     C16280   4.361   7.304   6.317  0.3709  0.2130 -0.4512
  862MOL0     C16281   4.272   7.230   6.247  0.8988 -0.1674 -0.4235
  862MOL0     O16282   4.039   7.055   6.290  1.0133 -0.1568 -0.6390
  862MOL0     C16283   3.995   6.937   5.967 -0.7611 -0.2198 -0.4252
  862MOL0     C16284   3.902   6.869   5.885 -0.6201 -0.7069  0.0636
  862MOL0     N16285   3.359   6.717   5.322  0.0744 -0.0638  0.4095
  862MOL0     N16286   3.279   6.804   5.292 -0.5091 -0.7683  0.8394
  862MOL0     C16287   2.115   6.914   5.010 -0.2525 -0.7138 -0.1101
  862MOL0     C16288   2.006   6.845   4.966  0.4306  0.6713 -0.1449
  862MOL0     C16289   1.536   6.820   4.908  0.0384  1.1992 -0.0099
  862MOL0     C16290   1.543   6.680   4.903  0.1738 -0.5179  0.4856
  862MOL0     C16291   1.442   6.591   4.875  0.8790 -0.0948 -0.8345
  862MOL0     C16292   1.310   6.645   4.856  0.1277  0.9523  0.0109
  862MOL0     O16293   1.206   6.551   4.839  0.4891 -0.0692  0.8000
  862MOL0     C16294   1.082   6.593   4.883 -0.6181  0.2591 -0.0455
  862MOL0     C16295   0.988   6.475   4.853  0.7562 -0.2204 -0.3372
  862MOL0     C16296   0.902   6.452   4.976  0.9752  0.0115 -0.0179
  862MOL0     C16297   0.791   6.357   4.956  0.1929  0.7843  0.5672
  862MOL0     C16298   0.699   6.331   5.078 -0.3332  0.0850 -0.2459
  862MOL0     C16299   0.627   6.317   5.177  0.3248 -0.2545  0.3103
  862MOL0     C16300   1.291   6.782   4.866  0.9866 -0.4429 -0.3843
  862MOL0     C16301   1.397   6.870   4.887 -0.1080 -0.5862 -0.0659
  862MOL0     C16302   1.361   7.020   4.906 -0.2033 -0.3322 -0.5290
  862MOL0     H16303   1.789   7.018   5.176 -0.9805 -1.3895 -1.6288
  862MOL0     H16304   1.984   7.111   5.258 -0.7492 -0.3800  0.4098
  862MOL0     H16305   2.186   7.123   5.346  0.7226  0.0842  0.4301
  862MOL0     H16306   2.270   6.968   5.313 -0.8903  0.4964  1.1879
  862MOL0     H16307   2.389   7.202   5.381  0.9814 -0.4462 -0.4566
  862MOL0     H16308   2.384   7.228   5.211 -5.6309 -1.3990 -2.0986
  862MOL0     H16309   2.498   6.992   5.173 -0.8714  1.1504 -0.8338
  862MOL0     H16310   2.480   6.962   5.346  0.3509  0.3069  0.4158
  862MOL0     H16311   2.686   7.134   5.224  0.5288 -0.5508 -0.0801
  862MOL0     H16312   2.652   7.136   5.395  4.0080  0.6194 -1.1086
  862MOL0     H16313   2.711   6.881   5.393 -0.4317 -1.0705 -1.3978
  862MOL0     H16314   2.725   6.897   5.219 -2.0511 -0.1632 -0.1035
  862MOL0     H16315   2.894   7.059   5.236  1.6305  0.1696  0.0575
  862MOL0     H16316   2.877   7.094   5.407  0.3029 -1.3257  1.5843
  862MOL0     H16317   2.981   6.833   5.297  0.2967  0.6698  0.2184
  862MOL0     H16318   2.942   6.853   5.468  2.3178  1.7142  1.2244
  862MOL0     H16319   3.147   7.039   5.330 -1.1284  2.1554  1.6189
  862MOL0     H16320   3.118   7.015   5.501 -2.3398  1.1617 -0.3258
  862MOL0     H16321   3.224   6.783   5.602 -0.1484  0.0146 -0.9675
  862MOL0     H16322   3.358   6.525   5.604 -0.4522 -0.4533 -1.1661
  862MOL0     H16323   3.462   6.516   5.473 -0.2945 -0.8809  0.6897
  862MOL0     H16324   3.576   6.738   5.552  0.0768  2.3985  3.3371
  862MOL0     H16325   3.458   6.745   5.685 -1.1841 -0.4989  0.8775
  862MOL0     H16326   3.670   6.522   5.604 -0.4710 -0.7216 -0.8078
  862MOL0     H16327   3.588   6.522   5.753  3.8170 -1.7294  0.7402
  862MOL0     H16328   3.741   6.779   5.687 -1.4202  0.6534 -0.7051
  862MOL0     H16329   3.827   6.627   5.762  0.3642  1.8864  1.0099
  862MOL0     H16330   3.678   6.784   6.117 -0.7149  0.8242 -1.7554
  862MOL0     H16331   3.840   6.894   6.261 -3.2925 -2.7117 -1.0614
  862MOL0     H16332   4.435   6.941   6.201  0.4383  0.2176  0.7545
  862MOL0     H16333   4.602   7.062   6.344 -0.4733 -1.0864  1.2853
  862MOL0     H16334   4.697   7.295   6.596 -0.0524  2.5408  0.1222
  862MOL0     H16335   4.731   7.201   6.448 -0.6621 -0.8303  1.5462
  862MOL0     H16336   4.721   7.508   6.459  1.7486  1.9183 -0.8099
  862MOL0     H16337   4.864   7.421   6.509 -0.6105 -3.9042  0.9687
  862MOL0     H16338   4.872   7.315   6.294 -0.7329 -1.0947 -1.5877
  862MOL0     H16339   4.749   7.424   6.224  2.4437 -1.5097 -2.9370
  862MOL0     H16340   4.865   7.617   6.249 -0.4495  0.1118 -3.6671
  862MOL0     H16341   4.945   7.504   6.144  0.7371  0.1078 -0.3444
  862MOL0     H16342   5.033   7.546   6.438  0.6658 -0.6568 -0.3226
  862MOL0     H16343   5.116   7.619   6.294 -0.0498  1.0488 -0.4212
  862MOL0     H16344   5.080   7.328   6.360  0.3559  0.4747  0.1486
  862MOL0     H16345   5.173   7.395   6.219  1.0485 -0.5713  0.4594
  862MOL0     H16346   5.246   7.423   6.514  1.6687  0.1556  0.1208
  862MOL0     H16347   5.314   7.525   6.389  1.8357 -1.0351 -0.0943
  862MOL0     H16348   5.426   7.352   6.279 -2.3399  3.0853 -0.5983
  862MOL0     H16349   5.466   7.361   6.449  1.0897  1.1675 -2.0999
  862MOL0     H16350   4.325   7.402   6.347  2.1757  0.5398  0.9053
  862MOL0     H16351   4.179   7.282   6.227  1.8554  1.4150 -0.9669
  862MOL0     H16352   4.085   6.971   5.917  0.1187 -2.7552 -0.7288
  862MOL0     H16353   3.926   6.854   5.780  1.1100 -0.7326  0.4241
  862MOL0     H16354   2.207   6.872   4.972 -0.8174 -2.2693  0.1544
  862MOL0     H16355   1.988   6.767   4.893 -3.1283  2.4062 -1.3842
  862MOL0     H16356   1.636   6.631   4.929  0.1885 -0.1042  1.2272
  862MOL0     H16357   1.459   6.484   4.882 -0.3407 -0.3110 -1.0257
  862MOL0     H16358   1.036   6.675   4.828 -0.9140  0.7605  0.9403
  862MOL0     H16359   1.100   6.614   4.989 -2.2662 -1.8304  0.7175
  862MOL0     H16360   1.045   6.387   4.821  1.0836  0.2245 -0.9954
  862MOL0     H16361   0.926   6.508   4.770 -1.5744  0.2813  1.5136
  862MOL0     H16362   0.871   6.549   5.016 -1.6244 -1.3096  1.3975
  862MOL0     H16363   0.966   6.414   5.056  0.5812 -0.8088 -0.0860
  862MOL0     H16364   0.724   6.390   4.876 -0.5365 -0.5830  0.5744
  862MOL0     H16365   0.834   6.261   4.927 -1.4110  0.5872 -1.3655
  862MOL0     H16366   0.560   6.318   5.261  0.1256  1.2385  0.1485
  862MOL0     H16367   1.193   6.829   4.869  2.1103  2.1616 -1.1882
  862MOL0     H16368   1.433   7.084   4.855 -0.8575 -0.6462 -1.9193
  862MOL0     H16369   1.261   7.043   4.868 -1.0573  0.1594  1.8553
  862MOL0     H16370   1.367   7.052   5.010  1.0478  3.1526 -1.5346
  863MOL0     O16371   6.589   1.002   2.645 -0.5919  0.8752 -0.6615
  863MOL0     C16372   6.562   1.040   2.531  0.7356 -0.2610  0.0755
  863MOL0     O16373   6.558   0.962   2.416  0.1969  0.1922  0.6879
  863MOL0     C16374   6.601   0.831   2.435 -0.1200  0.0866 -0.2674
  863MOL0     C16375   6.503   0.741   2.475 -0.0409 -0.1016 -0.4573
  863MOL0     C16376   6.541   0.610   2.514  0.8951 -0.8800 -0.1006
  863MOL0     C16377   6.670   0.575   2.512 -0.2166 -0.0989 -0.7932
  863MOL0     O16378   6.721   0.456   2.548  0.0839 -0.6627 -0.3492
  863MOL0     C16379   6.651   0.366   2.632  0.1807 -0.4252 -0.6676
  863MOL0     C16380   6.739   0.247   2.676  0.0097  0.0439 -0.9554
  863MOL0     C16381   6.796   0.156   2.569 -0.3941 -0.4361  0.1527
  863MOL0     C16382   6.694   0.095   2.480 -0.1558  0.0697  0.4528
  863MOL0     C16383   6.751  -0.023   2.408 -0.1638 -0.0669 -0.9799
  863MOL0     C16384   6.658  -0.082   2.307 -0.1711  0.5563  0.1635
  863MOL0     C16385   6.625   0.013   2.190  0.7923 -0.0205  0.0810
  863MOL0     C16386   6.524  -0.028   2.089  0.1845  0.4792 -0.1969
  863MOL0     N16387   6.389  -0.013   2.146 -0.0825 -0.1520 -0.4976
  863MOL0     C16388   6.308   0.099   2.140  0.6588 -0.3834  0.4789
  863MOL0     C16389   6.185   0.058   2.190 -0.4908 -0.7850 -0.3228
  863MOL0     C16390   6.078   0.154   2.212 -0.9407 -0.2082 -0.5023
  863MOL0     C16391   5.953   0.094   2.263  0.2515 -0.3081  0.0902
  863MOL0     C16392   5.851   0.072   2.141 -0.2241  0.3852 -0.4574
  863MOL0     C16393   5.726  -0.002   2.195 -0.4387 -0.5713  0.4245
  863MOL0     O16394   5.616   0.024   2.099 -0.5246  0.8786 -0.2199
  863MOL0     C16395   5.498  -0.034   2.127 -0.6783 -0.5004  0.5430
  863MOL0     C16396   5.377   0.012   2.068  1.0499  0.3175  0.6627
  863MOL0     C16397   5.258  -0.046   2.102 -0.2135  0.0187 -0.5566
  863MOL0     C16398   5.248  -0.143   2.200 -0.2959  0.3913 -1.0184
  863MOL0     C16399   5.122  -0.207   2.246  0.6940  0.2593 -0.2173
  863MOL0     O16400   5.018  -0.168   2.164 -0.2414  0.5543  0.1438
  863MOL0     C16401   4.894  -0.224   2.189 -0.5476 -0.5810  1.1043
  863MOL0     C16402   4.799  -0.163   2.273 -0.2692 -0.3340  0.2141
  863MOL0     C16403   4.672  -0.214   2.290 -0.1371  0.3259 -0.2553
  863MOL0     C16404   4.641  -0.334   2.225  1.4272  0.0931  0.2347
  863MOL0     O16405   4.513  -0.382   2.256  0.1912 -0.6415 -0.0484
  863MOL0     C16406   4.438  -0.469   2.170  0.6722 -0.2726  0.4908
  863MOL0     C16407   4.401  -0.414   2.031  0.1444 -0.4243  0.1200
  863MOL0     C16408   4.292  -0.490   1.948 -0.4929 -0.0825  0.6202
  863MOL0     C16409   4.144  -0.451   1.989  0.1478  0.0334 -1.3386
  863MOL0     C16410   4.049  -0.567   1.963 -0.1959  0.1952  0.0888
  863MOL0     C16411   3.906  -0.536   2.007 -0.4670  0.4976  0.0615
  863MOL0     C16412   3.853  -0.435   1.907 -0.2454  0.5240  0.5055
  863MOL0     C16413   3.703  -0.413   1.896 -0.2676  0.1198  0.5538
  863MOL0    Cl16414   3.621  -0.569   1.874  0.1965  0.3949  0.5583
  863MOL0     C16415   4.736  -0.401   2.150  0.3008  0.0684  0.2004
  863MOL0     C16416   4.868  -0.349   2.130 -1.2592 -0.0299 -0.2655
  863MOL0     O16417   5.112  -0.279   2.341  0.1006  1.1582  0.3086
  863MOL0     C16418   5.368  -0.181   2.265  0.8568  0.7224 -0.6940
  863MOL0     C16419   5.489  -0.138   2.228 -0.8436  0.0052 -0.3744
  863MOL0     N16420   6.189  -0.079   2.211  0.3415 -0.6914  0.1072
  863MOL0     N16421   6.313  -0.113   2.193 -0.6759  0.4192  0.4588
  863MOL0     C16422   6.771   0.666   2.455  0.0753  0.6066  0.4276
  863MOL0     C16423   6.739   0.798   2.416 -0.1751 -0.9063 -0.5721
  863MOL0     C16424   6.508   1.183   2.523 -0.6832  0.3759  0.4880
  863MOL0     C16425   6.456   1.242   2.644 -0.1468 -0.4804 -0.8937
  863MOL0     C16426   6.403   1.367   2.644 -0.7513 -0.0106 -0.1410
  863MOL0     C16427   6.419   1.451   2.526 -0.3149  0.5491 -0.3424
  863MOL0     O16428   6.382   1.575   2.560  0.3634  0.4919 -0.0101
  863MOL0     C16429   6.423   1.686   2.485  0.2867  1.0750  0.2691
  863MOL0     C16430   6.354   1.815   2.525  1.3749 -0.6492  0.2307
  863MOL0     C16431   6.209   1.824   2.469 -0.9339 -0.7903 -0.2017
  863MOL0     C16432   6.100   1.750   2.542 -0.5208  0.5360  0.9440
  863MOL0     C16433   6.026   1.829   2.645 -0.4719 -0.6259 -0.0714
  863MOL0     C16434   5.938   1.882   2.720 -0.0488  0.2585 -0.1812
  863MOL0     C16435   6.486   1.397   2.414 -0.4360 -0.1433 -0.0383
  863MOL0     C16436   6.524   1.264   2.405  0.2494  0.6096 -0.9499
  863MOL0     C16437   6.595   1.222   2.277 -0.2491  0.4812  0.3199
  863MOL0     H16438   6.397   0.763   2.484 -0.1021 -0.3606 -0.5161
  863MOL0     H16439   6.464   0.537   2.533  0.6385 -0.5912 -0.0200
  863MOL0     H16440   6.608   0.422   2.716 -0.9940  0.9130 -2.1061
  863MOL0     H16441   6.566   0.329   2.575  0.4820  0.0055 -1.4081
  863MOL0     H16442   6.678   0.187   2.745 -1.2423 -3.0966 -4.4965
  863MOL0     H16443   6.825   0.277   2.736  0.2978 -2.4551  0.0121
  863MOL0     H16444   6.860   0.080   2.615 -0.1280  1.1752  2.6616
  863MOL0     H16445   6.859   0.218   2.505  1.1504 -0.3715  1.6711
  863MOL0     H16446   6.607   0.054   2.531 -0.6078  1.4630  0.8267
  863MOL0     H16447   6.668   0.172   2.407  1.1651  0.7868  0.7110
  863MOL0     H16448   6.846   0.011   2.366  0.5960  2.1595  2.1342
  863MOL0     H16449   6.784  -0.089   2.488  1.5812  3.2770  1.3387
  863MOL0     H16450   6.717  -0.166   2.269 -1.2582 -0.3636  0.4534
  863MOL0     H16451   6.570  -0.126   2.354  0.5704 -1.1633  0.0030
  863MOL0     H16452   6.716   0.034   2.133  0.6823  0.2107 -0.0104
  863MOL0     H16453   6.584   0.107   2.230 -2.0861 -2.3403  3.1677
  863MOL0     H16454   6.533   0.044   2.007  0.2573  1.2087  0.4385
  863MOL0     H16455   6.550  -0.127   2.050  2.9660  1.7521 -1.9810
  863MOL0     H16456   6.333   0.199   2.104  2.3635 -0.7621  0.5450
  863MOL0     H16457   6.121   0.224   2.284 -0.7485  2.2418 -2.8511
  863MOL0     H16458   6.066   0.208   2.118  2.6015 -1.9177 -2.1317
  863MOL0     H16459   5.964   0.002   2.321  0.3151 -1.8844 -2.2937
  863MOL0     H16460   5.921   0.176   2.328  0.2957  2.1688 -2.8033
  863MOL0     H16461   5.893   0.021   2.054  1.2261  1.3380 -0.3412
  863MOL0     H16462   5.825   0.174   2.114 -0.1506 -0.0898 -2.4799
  863MOL0     H16463   5.696   0.040   2.292 -0.6419  0.4102 -0.0507
  863MOL0     H16464   5.749  -0.109   2.207 -2.9843 -1.1265  0.9620
  863MOL0     H16465   5.383   0.071   1.977 -1.1289 -0.7421 -0.2314
  863MOL0     H16466   5.165  -0.011   2.060 -0.5258 -1.4793 -1.1681
  863MOL0     H16467   4.823  -0.063   2.308 -0.1520 -0.0092 -0.7607
  863MOL0     H16468   4.597  -0.184   2.363  1.0810 -0.8277  1.5343
  863MOL0     H16469   4.482  -0.569   2.159  1.8926  0.0487  2.1087
  863MOL0     H16470   4.342  -0.489   2.217  0.4205 -1.6847 -0.5441
  863MOL0     H16471   4.373  -0.310   2.050  1.2469 -0.6764  4.0336
  863MOL0     H16472   4.495  -0.416   1.976  0.5481  1.3608  0.6703
  863MOL0     H16473   4.310  -0.462   1.844  2.2085  0.1498  1.0907
  863MOL0     H16474   4.311  -0.598   1.947 -0.3885 -0.0639  0.4245
  863MOL0     H16475   4.123  -0.364   1.926  1.6691  1.6957  0.3246
  863MOL0     H16476   4.149  -0.411   2.090 -0.6048 -0.3624 -1.1392
  863MOL0     H16477   4.086  -0.651   2.021 -1.1622 -1.0116 -0.9705
  863MOL0     H16478   4.049  -0.595   1.857 -0.2442 -1.0447  0.4018
  863MOL0     H16479   3.847  -0.628   2.016  0.6430 -0.0565  3.2875
  863MOL0     H16480   3.912  -0.495   2.109 -0.5899  0.5144  0.0620
  863MOL0     H16481   3.877  -0.467   1.806  0.1305 -1.6843  1.2286
  863MOL0     H16482   3.907  -0.343   1.929  3.9165 -2.0217  2.1427
  863MOL0     H16483   3.668  -0.366   1.988 -0.1486  1.3452 -0.0126
  863MOL0     H16484   3.676  -0.338   1.821 -4.4750 -2.4638 -0.8807
  863MOL0     H16485   4.710  -0.497   2.107  1.5834 -0.5165  0.7086
  863MOL0     H16486   4.936  -0.406   2.068 -0.3615  4.0403 -3.4394
  863MOL0     H16487   5.361  -0.253   2.346 -3.7206  3.0598  1.4270
  863MOL0     H16488   5.575  -0.173   2.284 -0.8535 -1.8777 -1.4423
  863MOL0     H16489   6.871   0.625   2.464 -1.7599 -3.9377  4.2761
  863MOL0     H16490   6.798   0.883   2.384 -1.4452  0.0005 -0.5758
  863MOL0     H16491   6.454   1.182   2.734 -1.6024 -0.7004 -1.0378
  863MOL0     H16492   6.363   1.410   2.735  1.8962 -0.4447  1.3178
  863MOL0     H16493   6.394   1.666   2.381 -0.1370 -0.9147  0.7264
  863MOL0     H16494   6.531   1.688   2.500  0.2773  0.3360  0.4754
  863MOL0     H16495   6.413   1.901   2.490 -0.3479  1.3552  1.9880
  863MOL0     H16496   6.342   1.826   2.633  0.2125 -2.2063  0.2894
  863MOL0     H16497   6.205   1.782   2.368 -0.0726  2.0981 -1.5550
  863MOL0     H16498   6.178   1.929   2.463 -0.0509 -0.5905 -2.6921
  863MOL0     H16499   6.023   1.724   2.469 -0.1119  0.3418  0.5752
  863MOL0     H16500   6.132   1.653   2.582  0.1130  0.2059 -0.2829
  863MOL0     H16501   5.868   1.935   2.781  1.8264  2.6246  0.0722
  863MOL0     H16502   6.516   1.473   2.342 -0.9426 -0.2248 -0.3422
  863MOL0     H16503   6.675   1.154   2.311 -1.6453 -0.5498  1.6562
  863MOL0     H16504   6.521   1.173   2.214  0.4538  1.2066 -1.1189
  863MOL0     H16505   6.642   1.310   2.232 -3.3917  4.0228  3.3431
  864MOL0     O16506   9.112   8.965   9.804  0.3417 -0.2114  0.8709
  864MOL0     C16507   9.175   9.030   9.884 -0.5557 -0.9316  0.6517
  864MOL0     O16508   9.287   8.998   9.944 -0.0963  0.0992 -0.9339
  864MOL0     C16509   9.356   8.883   9.902  0.4080  0.0967  0.3133
  864MOL0     C16510   9.352   8.770   9.977  0.2308  0.0599  0.1144
  864MOL0     C16511   9.406   8.651   9.928  0.0979 -0.0274 -0.2323
  864MOL0     C16512   9.487   8.654   9.819 -0.4956 -0.2476  0.8419
  864MOL0     O16513   9.544   8.538   9.753  0.5137 -0.1715  0.2410
  864MOL0     C16514   9.510   8.399   9.786 -0.1311 -0.2956 -0.4365
  864MOL0     C16515   9.613   8.321   9.714  0.7570 -0.0168 -0.1653
  864MOL0     C16516   9.748   8.318   9.789  0.1105 -0.6092 -0.2198
  864MOL0     C16517   9.858   8.236   9.725  0.5808 -0.1924 -0.1498
  864MOL0     C16518   9.995   8.247   9.790 -0.9358  0.1689  1.0797
  864MOL0     C16519  10.102   8.190   9.696  0.8780 -0.0367  0.1748
  864MOL0     C16520  10.240   8.157   9.759 -0.1227 -0.0966  0.2855
  864MOL0     C16521  10.357   8.132   9.660  0.4916  0.0845 -0.7061
  864MOL0     N16522  10.477   8.078   9.727 -1.2980 -0.5371  0.7413
  864MOL0     C16523  10.599   8.134   9.695  0.0552  0.1011 -0.3199
  864MOL0     C16524  10.682   8.040   9.749 -0.2241 -0.5846  0.0410
  864MOL0     C16525  10.829   8.042   9.740 -0.3323  0.2121 -0.5722
  864MOL0     C16526  10.862   7.992   9.592 -0.1828 -0.4538 -0.3777
  864MOL0     C16527  11.000   8.038   9.539 -1.1774  0.3483  0.4020
  864MOL0     C16528  11.132   7.997   9.620  0.2415 -0.5480  0.3298
  864MOL0     O16529  11.244   8.034   9.543  0.4777  0.3725  0.3090
  864MOL0     C16530  11.372   8.022   9.593 -0.9679  0.3629 -0.0654
  864MOL0     C16531  11.475   8.075   9.517 -0.3584 -0.8532  0.4536
  864MOL0     C16532  11.604   8.068   9.564  0.1047 -0.3333  0.4306
  864MOL0     C16533  11.639   8.006   9.690  0.2751 -0.9218  0.3702
  864MOL0     C16534  11.781   7.995   9.728  0.3179 -0.0499  0.0487
  864MOL0     O16535  11.874   8.042   9.635 -0.4209 -0.1195  0.2990
  864MOL0     C16536  12.009   8.023   9.674 -0.1139 -0.3904  0.3995
  864MOL0     C16537  12.062   8.100   9.776 -0.1401  0.1730 -0.5441
  864MOL0     C16538  12.198   8.090   9.804  1.4757  0.5093 -0.5553
  864MOL0     C16539  12.276   7.996   9.738 -0.2885 -0.2281 -0.7659
  864MOL0     O16540  12.409   7.980   9.790 -0.0326  0.3219  0.1764
  864MOL0     C16541  12.481   7.871   9.725 -0.1828 -0.3963 -1.2233
  864MOL0     C16542  12.618   7.867   9.803  0.4383 -0.2652  0.1224
  864MOL0     C16543  12.710   7.792   9.711  0.0011 -1.1546 -0.3408
  864MOL0     C16544  12.816   7.727   9.790 -0.2855  0.5547  0.1110
  864MOL0     C16545  12.926   7.658   9.702 -0.0520  0.3717  0.6579
  864MOL0     C16546  13.027   7.590   9.795 -0.0910 -0.6439  0.0985
  864MOL0     C16547  13.154   7.550   9.723 -0.2649  0.8066  0.8700
  864MOL0     C16548  13.261   7.478   9.814 -0.2595  0.2451 -0.4869
  864MOL0    Cl16549  13.292   7.586   9.948  0.2793  0.1369 -0.0666
  864MOL0     C16550  12.221   7.920   9.634 -0.3453 -0.1983  0.2081
  864MOL0     C16551  12.082   7.929   9.607 -1.0477  0.3765 -0.5094
  864MOL0     O16552  11.811   7.945   9.835 -0.4689  0.6251 -0.7182
  864MOL0     C16553  11.531   7.969   9.765  0.7138  0.0673 -0.0575
  864MOL0     C16554  11.400   7.976   9.719  0.1983  0.2096 -0.2805
  864MOL0     N16555  10.612   7.945   9.821 -0.5903  0.6597  0.3020
  864MOL0     N16556  10.490   7.980   9.817  0.3333  0.1289  0.0185
  864MOL0     C16557   9.494   8.771   9.739 -0.0545  0.1886 -0.2135
  864MOL0     C16558   9.424   8.884   9.776 -0.0051 -0.2355  0.5732
  864MOL0     C16559   9.117   9.157   9.925  0.5268  0.7026  0.7808
  864MOL0     C16560   8.976   9.177   9.909 -0.1714 -0.3152 -0.6041
  864MOL0     C16561   8.912   9.305   9.920 -0.5245 -0.4996  0.2987
  864MOL0     C16562   8.993   9.413   9.957 -0.1011 -0.8223  0.0527
  864MOL0     O16563   8.953   9.544   9.969 -0.1033 -0.3700  0.3077
  864MOL0     C16564   8.842   9.600   9.894 -0.3845 -0.0977 -0.4445
  864MOL0     C16565   8.706   9.618   9.975  0.2873  0.4136  0.6504
  864MOL0     C16566   8.590   9.633   9.877  0.3861 -0.6664 -0.3451
  864MOL0     C16567   8.451   9.620   9.945 -0.2385  0.1651 -0.6651
  864MOL0     C16568   8.439   9.666  10.088  0.0735  0.1319  0.1482
  864MOL0     C16569   8.429   9.722  10.197 -0.3131  0.0143 -0.4556
  864MOL0     C16570   9.130   9.395   9.976  0.3190 -0.1032 -0.1370
  864MOL0     C16571   9.193   9.271   9.965 -0.8512 -0.4606  0.5632
  864MOL0     C16572   9.343   9.271   9.985 -0.3460 -0.4077 -0.5574
  864MOL0     H16573   9.290   8.773  10.066 -1.1777 -2.3303 -0.6838
  864MOL0     H16574   9.384   8.562   9.986  2.0969 -0.5499 -0.2020
  864MOL0     H16575   9.505   8.375   9.893 -1.5068  0.8845 -0.2146
  864MOL0     H16576   9.414   8.378   9.738 -1.3054 -1.1483  2.0905
  864MOL0     H16577   9.621   8.350   9.609 -1.2726 -2.2416 -1.0341
  864MOL0     H16578   9.569   8.221   9.708 -2.4662  1.3462 -1.1261
  864MOL0     H16579   9.733   8.280   9.891 -3.9607 -0.7305 -0.7226
  864MOL0     H16580   9.779   8.423   9.795 -1.4380 -0.1354  0.0081
  864MOL0     H16581   9.827   8.131   9.717 -0.1087 -0.0054  0.0074
  864MOL0     H16582   9.867   8.270   9.621  2.5301 -0.1151  0.0027
  864MOL0     H16583  10.028   8.352   9.792 -2.0277  0.5013  2.7802
  864MOL0     H16584   9.995   8.197   9.887 -0.7110  0.0240  1.0070
  864MOL0     H16585  10.065   8.097   9.651 -2.0057  1.8913 -1.7578
  864MOL0     H16586  10.108   8.260   9.613  0.4384  0.8023  0.8295
  864MOL0     H16587  10.232   8.079   9.835  0.4705 -2.2500 -1.7712
  864MOL0     H16588  10.265   8.242   9.824  2.2621 -0.2623 -0.3161
  864MOL0     H16589  10.322   8.062   9.584  1.0398 -5.1133  3.2644
  864MOL0     H16590  10.379   8.237   9.636 -0.0840  1.5250  3.9120
  864MOL0     H16591  10.622   8.211   9.622  2.5178 -2.1908 -2.1553
  864MOL0     H16592  10.871   8.136   9.778 -0.2147  0.0330 -0.2542
  864MOL0     H16593  10.870   7.963   9.804  0.3128 -0.1299 -1.3929
  864MOL0     H16594  10.855   7.883   9.584  3.1516 -0.7417 -0.7997
  864MOL0     H16595  10.791   8.040   9.524 -0.2740  0.1257  0.1122
  864MOL0     H16596  10.997   8.146   9.522 -2.4080 -0.0241 -2.1688
  864MOL0     H16597  11.011   7.996   9.439 -2.5232 -3.4089  1.6551
  864MOL0     H16598  11.128   7.888   9.628 -0.1439 -0.5369  0.3176
  864MOL0     H16599  11.131   8.049   9.716  1.9187 -2.4507  1.4436
  864MOL0     H16600  11.454   8.127   9.423 -0.7326 -0.2960  0.8341
  864MOL0     H16601  11.680   8.100   9.493  2.4915 -1.5034  2.2706
  864MOL0     H16602  12.001   8.170   9.833  0.3046 -0.3298  0.5777
  864MOL0     H16603  12.236   8.161   9.877 -0.7586 -0.3066  1.5406
  864MOL0     H16604  12.433   7.774   9.740 -1.2545  0.2320 -0.4792
  864MOL0     H16605  12.498   7.897   9.620  0.7741 -0.1924 -1.0317
  864MOL0     H16606  12.661   7.967   9.814  0.1573  0.0397 -1.2821
  864MOL0     H16607  12.601   7.829   9.904 -0.0543 -1.0364 -0.2383
  864MOL0     H16608  12.647   7.717   9.662  0.7991 -1.7111 -0.5195
  864MOL0     H16609  12.748   7.859   9.634 -0.4351 -0.6656 -0.1437
  864MOL0     H16610  12.767   7.651   9.851  1.8124 -1.7438 -0.8920
  864MOL0     H16611  12.861   7.806   9.851  3.2796  0.0594 -1.5528
  864MOL0     H16612  12.985   7.725   9.639 -0.0416 -1.9779 -2.0322
  864MOL0     H16613  12.881   7.583   9.636  1.8787 -1.4123  1.2709
  864MOL0     H16614  13.048   7.656   9.880  2.2900 -2.6618  1.1914
  864MOL0     H16615  12.976   7.504   9.840 -1.0265 -0.8567 -1.3109
  864MOL0     H16616  13.194   7.635   9.667 -1.1561  0.4304 -0.4057
  864MOL0     H16617  13.131   7.483   9.640 -3.0932  0.2502  1.9797
  864MOL0     H16618  13.220   7.382   9.845  2.5158 -0.4988  1.2504
  864MOL0     H16619  13.354   7.459   9.760 -0.2039 -1.2224  0.0834
  864MOL0     H16620  12.273   7.840   9.582 -0.2923  0.7084 -1.1536
  864MOL0     H16621  12.030   7.874   9.529 -0.0767  1.2462 -1.8070
  864MOL0     H16622  11.556   7.937   9.866 -2.3846 -2.6391  0.0163
  864MOL0     H16623  11.322   7.935   9.782  2.0693 -1.7949  0.8376
  864MOL0     H16624   9.558   8.758   9.652  1.7607 -2.3017  1.3620
  864MOL0     H16625   9.444   8.972   9.716 -2.0114 -1.2377 -1.7576
  864MOL0     H16626   8.911   9.090   9.900 -1.4037  0.4553  0.5280
  864MOL0     H16627   8.808   9.314   9.890 -0.2108 -1.8578 -1.3693
  864MOL0     H16628   8.827   9.534   9.808 -0.4685 -2.3377  1.1997
  864MOL0     H16629   8.869   9.704   9.872 -1.5461  1.4270  4.2594
  864MOL0     H16630   8.715   9.707  10.037 -2.8118  1.7068 -0.5614
  864MOL0     H16631   8.676   9.536  10.041 -3.4247  1.4960  0.5431
  864MOL0     H16632   8.588   9.548   9.807  2.8759 -0.6448 -0.5385
  864MOL0     H16633   8.586   9.732   9.831 -1.5526 -1.4414 -1.9951
  864MOL0     H16634   8.374   9.648   9.872  0.2603 -2.9234 -2.5479
  864MOL0     H16635   8.441   9.512   9.960 -0.9958  0.1997 -0.8860
  864MOL0     H16636   8.416   9.756  10.297 -3.2565  0.0689 -0.7756
  864MOL0     H16637   9.184   9.482  10.013  0.3227  0.9777 -2.5345
  864MOL0     H16638   9.384   9.232   9.890  3.2869  0.4196  0.5019
  864MOL0     H16639   9.390   9.369   9.988 -0.6993 -0.2479 -0.2376
  864MOL0     H16640   9.385   9.211  10.066 -1.5505  3.5377  3.3489
  865MOL0     O16641   0.812   8.713   5.339  0.4664 -0.0059  0.0016
  865MOL0     C16642   0.771   8.682   5.450 -0.0846  0.0689 -1.0888
  865MOL0     O16643   0.852   8.686   5.563  0.0910  0.5951 -0.2181
  865MOL0     C16644   0.988   8.708   5.549  1.0813  0.1584  0.7439
  865MOL0     C16645   1.038   8.845   5.551 -0.1363  0.7291  1.1733
  865MOL0     C16646   1.180   8.866   5.535  0.3497 -0.2298  0.4624
  865MOL0     C16647   1.269   8.758   5.514 -0.0278 -0.6434 -1.3488
  865MOL0     O16648   1.397   8.798   5.481 -0.3633 -0.3385 -0.4013
  865MOL0     C16649   1.469   8.716   5.389  0.2184  0.2420  0.4879
  865MOL0     C16650   1.603   8.772   5.383 -0.0947 -1.2920  0.0103
  865MOL0     C16651   1.698   8.683   5.304  0.2476 -0.0506  0.3772
  865MOL0     C16652   1.799   8.759   5.225 -0.0379 -0.1753 -0.6211
  865MOL0     C16653   1.934   8.748   5.280 -0.3483 -0.7839  0.6384
  865MOL0     C16654   2.037   8.786   5.173 -0.2917  0.1412  0.4262
  865MOL0     C16655   2.173   8.751   5.231  1.2126  0.3825 -0.0902
  865MOL0     C16656   2.270   8.752   5.124 -0.5116 -0.2024  0.4413
  865MOL0     N16657   2.409   8.752   5.178 -1.0299 -0.6348 -0.4751
  865MOL0     C16658   2.489   8.640   5.207  0.1304 -0.9610  0.4215
  865MOL0     C16659   2.606   8.682   5.244  0.6158  1.1361 -0.5755
  865MOL0     C16660   2.704   8.589   5.320 -0.2551 -0.1606 -0.0730
  865MOL0     C16661   2.852   8.619   5.293 -0.2109 -0.6851 -0.7414
  865MOL0     C16662   2.891   8.600   5.145 -0.0112  0.1872  0.2747
  865MOL0     C16663   3.049   8.586   5.126  0.4217 -0.4405 -0.4326
  865MOL0     O16664   3.118   8.682   5.219  0.6427 -0.0243  0.3658
  865MOL0     C16665   3.252   8.673   5.223  0.0671 -0.4845 -0.3829
  865MOL0     C16666   3.334   8.579   5.159  0.6957  0.6676 -0.4870
  865MOL0     C16667   3.475   8.584   5.182 -0.2723  0.2026 -0.8182
  865MOL0     C16668   3.530   8.682   5.272  0.9097  0.6815 -0.3891
  865MOL0     C16669   3.679   8.690   5.295 -0.6030  0.2663 -0.2889
  865MOL0     O16670   3.746   8.581   5.242 -0.6930 -0.4367  0.0143
  865MOL0     C16671   3.880   8.582   5.261 -0.1685  0.7151  0.4288
  865MOL0     C16672   3.963   8.625   5.168 -0.5344 -0.9032  0.0033
  865MOL0     C16673   4.104   8.618   5.181 -0.4286  0.4464  0.5762
  865MOL0     C16674   4.163   8.556   5.289 -0.0977 -0.1197 -0.4715
  865MOL0     O16675   4.302   8.533   5.288 -0.6066 -0.4360 -0.0364
  865MOL0     C16676   4.346   8.410   5.343 -0.6557 -0.5323 -0.2404
  865MOL0     C16677   4.463   8.352   5.263 -0.1780 -0.2932  0.0096
  865MOL0     C16678   4.590   8.438   5.288  0.3926  0.4124  0.3850
  865MOL0     C16679   4.698   8.378   5.199 -0.2625  0.4461  0.5217
  865MOL0     C16680   4.728   8.228   5.227  0.0973 -0.2178 -0.1734
  865MOL0     C16681   4.829   8.158   5.128  0.0452 -0.0207  1.1526
  865MOL0     C16682   4.854   8.022   5.180 -0.5384  0.9253 -0.1225
  865MOL0     C16683   4.967   7.953   5.108  0.2680 -0.1010 -1.1760
  865MOL0    Cl16684   5.122   8.061   5.098  0.2995 -0.2471  0.6036
  865MOL0     C16685   4.075   8.511   5.388 -0.1553 -0.2044 -0.8217
  865MOL0     C16686   3.936   8.527   5.379  0.4544  0.3479 -0.0046
  865MOL0     O16687   3.725   8.788   5.358  0.4358 -0.0989 -0.1292
  865MOL0     C16688   3.438   8.760   5.345  0.0017 -0.3967 -0.2206
  865MOL0     C16689   3.305   8.763   5.317 -0.4806 -0.5079 -0.0924
  865MOL0     N16690   2.615   8.819   5.225  0.0727 -0.1851  0.8191
  865MOL0     N16691   2.494   8.857   5.184  0.0204 -0.1266  0.5286
  865MOL0     C16692   1.220   8.629   5.513 -0.4242 -0.8786  0.1252
  865MOL0     C16693   1.080   8.604   5.522  0.4926 -0.7310 -0.3546
  865MOL0     C16694   0.636   8.640   5.475 -0.2849  0.2590  0.5476
  865MOL0     C16695   0.567   8.693   5.589 -0.7192  0.5803  0.4284
  865MOL0     C16696   0.434   8.648   5.622  0.9840  0.4535  0.6394
  865MOL0     C16697   0.361   8.562   5.534 -0.1566 -1.1150  0.4993
  865MOL0     O16698   0.232   8.531   5.551 -0.1283 -1.2101 -0.6916
  865MOL0     C16699   0.156   8.588   5.662 -0.7658 -0.5371 -0.3082
  865MOL0     C16700   0.018   8.517   5.675 -1.4412  0.8523  1.0602
  865MOL0     C16701  -0.067   8.518   5.547  0.1245  0.8444 -0.5783
  865MOL0     C16702  -0.202   8.447   5.579 -0.6393 -0.0201 -0.5316
  865MOL0     C16703  -0.298   8.531   5.656  0.0852  0.6664 -0.5639
  865MOL0     C16704  -0.384   8.587   5.707 -0.7028 -0.7538  0.0642
  865MOL0     C16705   0.430   8.517   5.425 -0.4718  0.3674 -0.4946
  865MOL0     C16706   0.561   8.551   5.387 -0.9547 -0.1894 -0.0543
  865MOL0     C16707   0.634   8.495   5.261  0.7139  0.6809  0.2711
  865MOL0     H16708   0.970   8.928   5.563  2.4043  3.5637 -1.9203
  865MOL0     H16709   1.207   8.971   5.538  0.0054  0.0175 -2.4065
  865MOL0     H16710   1.462   8.616   5.432 -0.1444 -1.1876 -2.5922
  865MOL0     H16711   1.422   8.716   5.290 -1.3855  1.2102  1.2229
  865MOL0     H16712   1.659   8.767   5.477  2.2768 -4.0942 -1.3918
  865MOL0     H16713   1.603   8.871   5.337 -0.7965 -1.3722 -0.1838
  865MOL0     H16714   1.635   8.623   5.237 -2.0194  3.2362 -0.6933
  865MOL0     H16715   1.750   8.613   5.370  0.8064  0.7302  0.7706
  865MOL0     H16716   1.793   8.720   5.123  0.8591 -0.5556 -0.5442
  865MOL0     H16717   1.774   8.865   5.216 -0.6156 -0.3942 -1.8486
  865MOL0     H16718   1.938   8.813   5.367 -0.9562  2.3717 -1.5320
  865MOL0     H16719   1.959   8.645   5.307 -1.3619 -1.7506 -1.7934
  865MOL0     H16720   2.017   8.730   5.081  2.0990  0.6035 -0.4530
  865MOL0     H16721   2.027   8.893   5.156 -1.8376 -0.3090 -1.9627
  865MOL0     H16722   2.179   8.651   5.276  1.0548  0.2969 -0.2527
  865MOL0     H16723   2.201   8.825   5.305 -3.5712  0.6781  1.8024
  865MOL0     H16724   2.255   8.680   5.043 -1.9612  0.9218 -0.3390
  865MOL0     H16725   2.261   8.854   5.086 -3.2186  0.2137  1.9178
  865MOL0     H16726   2.460   8.535   5.206 -0.2084 -0.8949 -2.1837
  865MOL0     H16727   2.686   8.595   5.427 -0.4921  2.1129 -0.2004
  865MOL0     H16728   2.687   8.488   5.281  1.1037 -0.2227 -0.5374
  865MOL0     H16729   2.871   8.720   5.331 -4.3554  0.3446 -0.9054
  865MOL0     H16730   2.915   8.561   5.360 -1.3389 -3.3321 -1.8330
  865MOL0     H16731   2.862   8.693   5.096 -0.1522  1.0486  1.9141
  865MOL0     H16732   2.836   8.516   5.101 -0.3399  1.1407 -1.2089
  865MOL0     H16733   3.081   8.598   5.023  0.0162 -0.8056 -0.6069
  865MOL0     H16734   3.083   8.485   5.153  1.1288 -0.6513 -1.9929
  865MOL0     H16735   3.300   8.503   5.089 -1.1873  2.7079 -1.9209
  865MOL0     H16736   3.543   8.516   5.131  0.0704  0.4911 -0.7458
  865MOL0     H16737   3.908   8.675   5.088 -2.1724 -1.2969  0.8299
  865MOL0     H16738   4.168   8.651   5.100  3.5336 -3.9847  1.4092
  865MOL0     H16739   4.382   8.421   5.446 -0.5120  2.3846 -0.5253
  865MOL0     H16740   4.272   8.330   5.349 -0.3370 -0.8458 -0.4212
  865MOL0     H16741   4.480   8.250   5.299  0.1438 -0.5340 -0.7992
  865MOL0     H16742   4.435   8.345   5.158 -2.7012 -1.0891  0.6578
  865MOL0     H16743   4.562   8.540   5.262 -3.8796 -0.5664  0.3844
  865MOL0     H16744   4.618   8.427   5.393  1.7487 -0.4624 -0.0408
  865MOL0     H16745   4.790   8.436   5.208 -0.3351  0.9520 -1.5345
  865MOL0     H16746   4.679   8.376   5.092  4.2895 -0.5365 -0.4739
  865MOL0     H16747   4.638   8.166   5.222  1.3855 -2.1562 -0.9254
  865MOL0     H16748   4.770   8.230   5.328  0.1121  5.6619  0.0128
  865MOL0     H16749   4.768   8.150   5.038  1.1099  2.4328  0.1359
  865MOL0     H16750   4.921   8.212   5.108 -0.7505  0.3033 -2.2529
  865MOL0     H16751   4.768   7.955   5.182  2.6681 -3.7008 -0.3274
  865MOL0     H16752   4.877   8.025   5.287 -2.5117  1.3058  0.3218
  865MOL0     H16753   4.991   7.869   5.175 -2.7294  1.1451  1.7441
  865MOL0     H16754   4.939   7.931   5.005  0.5830  0.8925 -1.4795
  865MOL0     H16755   4.122   8.464   5.474  0.2028 -0.0022 -0.9059
  865MOL0     H16756   3.871   8.486   5.456 -0.5729 -0.0764 -1.0750
  865MOL0     H16757   3.461   8.833   5.423  0.5842 -0.4941 -0.2958
  865MOL0     H16758   3.236   8.840   5.351  1.6931  2.6714 -2.3086
  865MOL0     H16759   1.293   8.549   5.504  0.6328  0.1123 -0.4527
  865MOL0     H16760   1.059   8.498   5.520  0.9504 -0.8290 -0.0559
  865MOL0     H16761   0.630   8.755   5.652  1.1054 -1.8744  1.1714
  865MOL0     H16762   0.390   8.684   5.715 -0.7011 -0.5068  0.2389
  865MOL0     H16763   0.151   8.697   5.650  2.1600 -0.0500  1.9157
  865MOL0     H16764   0.201   8.570   5.760  0.4950 -1.4653 -1.0402
  865MOL0     H16765  -0.046   8.563   5.751 -0.7252 -2.2104  3.7430
  865MOL0     H16766   0.023   8.415   5.714 -1.6983  0.5819  0.3890
  865MOL0     H16767  -0.009   8.461   5.474 -1.3139  1.8665 -2.6359
  865MOL0     H16768  -0.083   8.617   5.502  0.1750  0.3863 -1.6211
  865MOL0     H16769  -0.247   8.429   5.481 -1.2613  1.4098 -0.5346
  865MOL0     H16770  -0.189   8.349   5.625  2.3328 -0.2957 -1.7319
  865MOL0     H16771  -0.462   8.634   5.763 -0.7987 -3.0787  2.0538
  865MOL0     H16772   0.378   8.451   5.357 -1.6135  1.6940 -0.9698
  865MOL0     H16773   0.559   8.424   5.227  1.2965  0.7311 -1.1878
  865MOL0     H16774   0.642   8.573   5.185  1.4877 -1.3599 -1.8530
  865MOL0     H16775   0.723   8.437   5.286 -0.0074  0.3938  2.3961
  866MOL0     O16776   8.252   0.964   5.483  0.1434  0.2638  0.7635
  866MOL0     C16777   8.186   0.895   5.557 -0.0313 -0.7593  0.1503
  866MOL0     O16778   8.231   0.781   5.626 -0.3097 -0.5446 -0.9465
  866MOL0     C16779   8.364   0.752   5.611  0.1178  0.0549  0.4993
  866MOL0     C16780   8.399   0.619   5.568 -0.4311 -1.1434 -0.2587
  866MOL0     C16781   8.531   0.575   5.551 -0.0646 -0.4177 -0.5697
  866MOL0     C16782   8.638   0.664   5.592 -0.1000 -0.0148  0.3502
  866MOL0     O16783   8.769   0.633   5.608 -0.3769  0.2915  1.0800
  866MOL0     C16784   8.821   0.501   5.569  0.1974 -0.3842  0.2912
  866MOL0     C16785   8.971   0.502   5.578  0.5154  0.1059 -0.1657
  866MOL0     C16786   9.021   0.531   5.724 -0.0740  0.0460 -0.8435
  866MOL0     C16787   9.161   0.466   5.737  0.7552 -0.1991 -0.3612
  866MOL0     C16788   9.266   0.541   5.656  0.5257 -0.9714  0.3780
  866MOL0     C16789   9.394   0.463   5.664 -0.3837 -0.1688  0.2776
  866MOL0     C16790   9.512   0.554   5.654  0.6293  0.4794 -0.7682
  866MOL0     C16791   9.645   0.476   5.680 -0.5969  0.1601 -0.0302
  866MOL0     N16792   9.766   0.563   5.654  1.1132  0.9476 -0.2083
  866MOL0     C16793   9.815   0.659   5.745  0.1673  0.9949  0.3926
  866MOL0     C16794   9.907   0.727   5.665  0.2120  0.3992  0.2843
  866MOL0     C16795   9.984   0.854   5.687 -0.1535  0.1780  0.0395
  866MOL0     C16796  10.048   0.841   5.832  0.2768 -0.2389 -0.1222
  866MOL0     C16797  10.137   0.961   5.866 -0.2229 -1.0201  0.2855
  866MOL0     C16798  10.267   0.959   5.790  0.8409 -0.1394 -0.1879
  866MOL0     O16799  10.316   1.091   5.801 -0.5895  0.1367 -0.0479
  866MOL0     C16800  10.423   1.124   5.716  0.3536 -0.7501  0.3960
  866MOL0     C16801  10.503   1.035   5.657  0.0671  0.2407 -0.3079
  866MOL0     C16802  10.611   1.071   5.576 -0.1140 -0.2051  0.4134
  866MOL0     C16803  10.642   1.209   5.566 -1.2377 -0.1233 -0.1073
  866MOL0     C16804  10.769   1.252   5.510 -0.2286  0.1202 -0.3406
  866MOL0     O16805  10.810   1.374   5.551  0.0488 -0.5656  0.6079
  866MOL0     C16806  10.935   1.421   5.539 -0.6030  0.0483 -0.1693
  866MOL0     C16807  10.964   1.553   5.502  0.2711  0.5386  0.5768
  866MOL0     C16808  11.089   1.598   5.491 -0.5865 -0.1861 -0.4008
  866MOL0     C16809  11.204   1.519   5.511 -0.0648 -0.4508  1.0964
  866MOL0     O16810  11.334   1.563   5.481  0.1940 -0.0326 -0.4020
  866MOL0     C16811  11.450   1.490   5.528 -0.3087  1.3862 -0.5124
  866MOL0     C16812  11.576   1.579   5.536  0.4373  0.6208 -0.3565
  866MOL0     C16813  11.631   1.580   5.399  0.5413 -0.5480 -0.5214
  866MOL0     C16814  11.730   1.696   5.373 -0.1079 -0.0132 -0.1557
  866MOL0     C16815  11.761   1.704   5.223 -0.6497 -0.1279 -0.8770
  866MOL0     C16816  11.894   1.781   5.198 -0.4479  0.6135 -0.7985
  866MOL0     C16817  11.937   1.767   5.054  0.1374 -0.5548  0.1935
  866MOL0     C16818  12.067   1.843   5.019  0.1933 -0.0365  0.2080
  866MOL0    Cl16819  12.081   1.847   4.838 -0.2215  0.1476  0.2321
  866MOL0     C16820  11.176   1.385   5.545  0.7364  1.0802 -0.7371
  866MOL0     C16821  11.043   1.337   5.562 -0.4258 -0.1065 -0.3038
  866MOL0     O16822  10.834   1.169   5.443 -0.5631  0.3838 -0.3400
  866MOL0     C16823  10.561   1.306   5.629 -0.0808  0.0028 -0.3472
  866MOL0     C16824  10.452   1.261   5.701  0.2516 -0.1400 -0.1819
  866MOL0     N16825   9.904   0.676   5.539 -0.0509 -0.9081 -0.3407
  866MOL0     N16826   9.833   0.575   5.536  0.2420 -0.4124  0.3246
  866MOL0     C16827   8.606   0.786   5.653  0.2537  0.1921 -0.1808
  866MOL0     C16828   8.468   0.836   5.650 -0.2482  1.0429  0.2568
  866MOL0     C16829   8.045   0.939   5.583 -0.4066  0.1364  0.1113
  866MOL0     C16830   7.987   0.892   5.699  0.2435 -0.4165  0.5135
  866MOL0     C16831   7.863   0.940   5.737 -0.6396 -0.4439 -0.5654
  866MOL0     C16832   7.786   1.026   5.655 -0.6559  0.3436 -0.4850
  866MOL0     O16833   7.657   1.062   5.690  0.2172  0.4641 -0.3053
  866MOL0     C16834   7.563   0.959   5.652  0.2373  0.8371 -0.6427
  866MOL0     C16835   7.542   0.851   5.767  0.1576 -0.6195 -0.0009
  866MOL0     C16836   7.543   0.924   5.903 -0.1022  0.9501 -0.0865
  866MOL0     C16837   7.504   0.852   6.037  0.3349  0.3029 -0.5082
  866MOL0     C16838   7.505   0.705   6.022  0.7500 -0.0709  0.1008
  866MOL0     C16839   7.502   0.578   6.015 -0.3876  0.5829 -0.3225
  866MOL0     C16840   7.840   1.053   5.528  0.1862 -0.4137 -0.4642
  866MOL0     C16841   7.974   1.017   5.488  0.1607  0.3541  0.0214
  866MOL0     C16842   8.010   1.067   5.354 -0.0395  1.0706 -0.0749
  866MOL0     H16843   8.318   0.555   5.536 -2.2038  0.4366  0.8656
  866MOL0     H16844   8.545   0.487   5.489 -1.2921 -1.2229  0.2390
  866MOL0     H16845   8.783   0.426   5.640  0.3150  0.1604  0.9455
  866MOL0     H16846   8.781   0.470   5.472 -2.4375 -0.8534  1.4378
  866MOL0     H16847   9.016   0.586   5.526  2.6878 -0.1739  1.1279
  866MOL0     H16848   8.999   0.404   5.540 -0.3831  0.5082 -1.9514
  866MOL0     H16849   8.942   0.505   5.795  0.7549 -1.3217 -0.3629
  866MOL0     H16850   9.030   0.639   5.738  0.8069 -0.1239  0.0353
  866MOL0     H16851   9.203   0.474   5.838  1.7826 -2.1268 -0.5843
  866MOL0     H16852   9.163   0.363   5.702  2.7762  0.7104 -3.3460
  866MOL0     H16853   9.238   0.537   5.551 -1.7208 -1.2262  0.9448
  866MOL0     H16854   9.270   0.647   5.681 -1.0653  0.1049 -3.2652
  866MOL0     H16855   9.409   0.421   5.764  0.7342  2.9635  1.5306
  866MOL0     H16856   9.400   0.391   5.582  2.3889  0.2512  0.0287
  866MOL0     H16857   9.497   0.638   5.722  3.7556  3.4960 -3.4156
  866MOL0     H16858   9.517   0.590   5.550 -2.1507 -1.1826 -1.5657
  866MOL0     H16859   9.645   0.434   5.782  1.2080 -2.2094 -0.9047
  866MOL0     H16860   9.642   0.397   5.604  0.3939  0.5350 -0.4783
  866MOL0     H16861   9.773   0.687   5.841 -2.4756 -2.6316  0.5090
  866MOL0     H16862  10.063   0.861   5.611  2.8107 -1.1160  2.7383
  866MOL0     H16863   9.912   0.935   5.675  2.3647  2.7199  0.8376
  866MOL0     H16864   9.972   0.829   5.909 -0.7981 -2.5034 -1.4366
  866MOL0     H16865  10.123   0.761   5.831 -0.6615 -1.1532  0.7266
  866MOL0     H16866  10.155   0.965   5.974  1.1713  2.9308  0.0670
  866MOL0     H16867  10.084   1.054   5.844  0.0323 -1.5178 -2.8250
  866MOL0     H16868  10.243   0.942   5.685  0.7180 -0.2657 -0.1388
  866MOL0     H16869  10.333   0.883   5.833 -1.3985 -2.0632  0.0355
  866MOL0     H16870  10.487   0.928   5.669 -0.0168 -0.0906 -2.8281
  866MOL0     H16871  10.664   0.989   5.530 -3.2330 -1.5715 -1.0241
  866MOL0     H16872  10.876   1.615   5.484 -0.0416  0.8837  2.9591
  866MOL0     H16873  11.098   1.705   5.473  1.7438  0.4597  3.4700
  866MOL0     H16874  11.431   1.449   5.627 -2.6634  0.8200 -1.1339
  866MOL0     H16875  11.470   1.405   5.462  0.7817  1.4683 -0.2982
  866MOL0     H16876  11.539   1.675   5.574  1.8075  1.2122 -0.4293
  866MOL0     H16877  11.664   1.544   5.591  1.4451 -2.0414 -3.3808
  866MOL0     H16878  11.700   1.497   5.383  0.4841 -0.4881 -1.1147
  866MOL0     H16879  11.553   1.594   5.323 -0.1106 -2.2415 -0.2008
  866MOL0     H16880  11.825   1.681   5.425 -0.2576 -1.4166 -0.2409
  866MOL0     H16881  11.686   1.791   5.406 -2.3688 -0.3468 -1.9517
  866MOL0     H16882  11.683   1.760   5.170 -0.1421  3.7335  2.0681
  866MOL0     H16883  11.773   1.603   5.182  0.5661 -0.5543  0.4557
  866MOL0     H16884  11.873   1.885   5.224 -0.8078  0.4427 -0.3870
  866MOL0     H16885  11.969   1.740   5.266 -0.3728 -0.5512 -1.5527
  866MOL0     H16886  11.860   1.806   4.986 -0.1785  0.7023  1.2319
  866MOL0     H16887  11.953   1.662   5.029  3.5992  0.4078 -2.4919
  866MOL0     H16888  12.059   1.947   5.052 -0.2571  1.0058 -2.8322
  866MOL0     H16889  12.156   1.804   5.071 -0.2958 -1.8594 -0.2422
  866MOL0     H16890  11.261   1.320   5.563  0.4070  1.2735  1.9400
  866MOL0     H16891  11.028   1.231   5.580  0.1106 -0.6030 -2.5620
  866MOL0     H16892  10.582   1.412   5.622 -0.4013 -0.0275 -2.0564
  866MOL0     H16893  10.400   1.343   5.750 -0.8342 -1.1576  0.4207
  866MOL0     H16894   8.678   0.848   5.704  0.4381 -2.1363  2.6383
  866MOL0     H16895   8.442   0.928   5.703 -0.7801  0.0693  1.7444
  866MOL0     H16896   8.041   0.825   5.765 -0.5194 -2.5733 -0.9302
  866MOL0     H16897   7.814   0.907   5.828 -0.6517  0.0487 -0.3923
  866MOL0     H16898   7.577   0.907   5.556 -1.2248 -1.6612  0.3819
  866MOL0     H16899   7.466   1.010   5.656 -0.0386  0.3523 -1.0331
  866MOL0     H16900   7.620   0.774   5.764  2.2746  1.4224 -2.5669
  866MOL0     H16901   7.448   0.795   5.759  1.2689 -2.5222 -0.6270
  866MOL0     H16902   7.480   1.013   5.897  1.9769  2.5127 -0.0736
  866MOL0     H16903   7.640   0.970   5.928 -0.9023  1.6219  1.9658
  866MOL0     H16904   7.562   0.890   6.121 -0.6419 -2.0265  1.3177
  866MOL0     H16905   7.400   0.863   6.067  0.2205 -1.8272  0.0544
  866MOL0     H16906   7.502   0.471   6.024 -1.1946  0.6266  0.3314
  866MOL0     H16907   7.775   1.111   5.463  2.0299  1.0021 -1.1476
  866MOL0     H16908   7.921   1.104   5.301  0.2628  1.0589 -0.5923
  866MOL0     H16909   8.090   1.140   5.365 -0.1802  0.8603  4.2542
  866MOL0     H16910   8.057   0.977   5.314 -1.2824 -0.7182  2.2327
  867MOL0     O16911   9.333   4.000   4.560 -0.5119  0.1818  0.1128
  867MOL0     C16912   9.380   3.896   4.596 -0.5082 -0.9458 -0.6634
  867MOL0     O16913   9.506   3.882   4.635  0.3150  0.0461 -0.0200
  867MOL0     C16914   9.591   3.993   4.653  0.0755  1.4523 -0.3231
  867MOL0     C16915   9.701   4.016   4.571 -0.7055 -0.0291 -0.1852
  867MOL0     C16916   9.773   4.132   4.588  0.2821 -0.2508 -0.4468
  867MOL0     C16917   9.744   4.229   4.683 -0.0412  0.6877 -0.0522
  867MOL0     O16918   9.807   4.349   4.699  0.3465 -0.1756 -0.5275
  867MOL0     C16919   9.797   4.447   4.813 -0.2537  0.1855 -0.8062
  867MOL0     C16920   9.877   4.400   4.931  0.6825 -1.1041 -0.9753
  867MOL0     C16921  10.025   4.366   4.914 -0.6408  0.1375 -0.8601
  867MOL0     C16922  10.092   4.303   5.031 -0.0258  0.0632 -0.1000
  867MOL0     C16923  10.248   4.320   5.005  0.6287 -0.4237  0.3358
  867MOL0     C16924  10.343   4.284   5.118  0.0239  0.3562 -0.0297
  867MOL0     C16925  10.493   4.325   5.075  0.2167 -0.9696  0.7135
  867MOL0     C16926  10.554   4.461   5.123 -0.1946  0.2586  0.9995
  867MOL0     N16927  10.481   4.568   5.052 -0.7317  0.2727  0.2959
  867MOL0     C16928  10.359   4.620   5.101 -0.4141  0.2282 -0.6508
  867MOL0     C16929  10.335   4.727   5.024  0.0606  0.4624  0.2859
  867MOL0     C16930  10.208   4.804   5.041 -0.5466  0.3018 -0.6303
  867MOL0     C16931  10.067   4.735   5.025 -0.9295 -0.1042  0.2459
  867MOL0     C16932   9.965   4.829   5.088  0.0676  0.2765 -0.6527
  867MOL0     C16933   9.827   4.761   5.112 -0.3800 -0.3685  0.0445
  867MOL0     O16934   9.775   4.735   4.982  0.4342  0.5513  0.6092
  867MOL0     C16935   9.640   4.728   4.962  0.8619  0.1948 -0.7013
  867MOL0     C16936   9.557   4.698   5.072  0.4598  0.0059  0.4956
  867MOL0     C16937   9.418   4.700   5.066 -0.1096  0.1089  0.3121
  867MOL0     C16938   9.357   4.752   4.951 -0.0812 -0.8854 -0.5669
  867MOL0     C16939   9.211   4.768   4.941 -0.1204 -0.4064  0.2985
  867MOL0     O16940   9.141   4.711   5.041 -0.2434 -0.4752 -0.1083
  867MOL0     C16941   9.010   4.683   5.029  0.0837 -0.3451  0.3094
  867MOL0     C16942   8.968   4.552   5.010  0.1017 -0.4691 -0.3028
  867MOL0     C16943   8.835   4.522   4.997  0.1392 -0.2603  0.4008
  867MOL0     C16944   8.739   4.622   5.012  0.2434  0.2083  0.7488
  867MOL0     O16945   8.615   4.596   4.992  0.0292  0.5335 -0.5332
  867MOL0     C16946   8.562   4.523   4.890  0.4471  0.1633  0.7869
  867MOL0     C16947   8.409   4.535   4.896 -0.9317 -0.6218 -0.0096
  867MOL0     C16948   8.353   4.670   4.859 -0.4827 -0.0190 -0.4305
  867MOL0     C16949   8.360   4.703   4.707 -0.4944 -0.6066  0.1869
  867MOL0     C16950   8.348   4.853   4.689 -0.2065 -0.7897 -0.7200
  867MOL0     C16951   8.206   4.918   4.720  0.1185  0.2602  0.7266
  867MOL0     C16952   8.104   4.865   4.622 -0.2496 -0.2309 -0.0487
  867MOL0     C16953   7.975   4.957   4.623 -0.3511  0.5036 -0.4484
  867MOL0    Cl16954   7.860   4.892   4.513 -0.0206  0.1748  0.2556
  867MOL0     C16955   8.781   4.754   5.022 -0.3453  0.0762 -0.6898
  867MOL0     C16956   8.914   4.792   5.046 -1.1613  1.3453  0.3616
  867MOL0     O16957   9.165   4.833   4.851  0.1479 -0.0591 -0.3087
  867MOL0     C16958   9.437   4.776   4.836  1.4627  0.7920 -0.4674
  867MOL0     C16959   9.578   4.770   4.847  0.0626 -0.1296 -0.7374
  867MOL0     N16960  10.431   4.744   4.930 -0.1240  0.1223 -0.4082
  867MOL0     N16961  10.520   4.647   4.947 -0.7558 -0.1349 -0.0855
  867MOL0     C16962   9.642   4.196   4.771 -0.0339 -0.4483 -0.6789
  867MOL0     C16963   9.567   4.085   4.750  0.2442  0.6178 -0.5763
  867MOL0     C16964   9.288   3.782   4.610  0.2572 -0.5601  1.0385
  867MOL0     C16965   9.333   3.674   4.691  0.1435 -0.1442  0.0567
  867MOL0     C16966   9.262   3.562   4.706 -0.2772  0.5423  0.1853
  867MOL0     C16967   9.142   3.538   4.636 -0.1392 -0.0718  0.3649
  867MOL0     O16968   9.078   3.414   4.653  0.2777  0.4018  0.5125
  867MOL0     C16969   8.933   3.398   4.602 -0.4993  0.4724  1.0141
  867MOL0     C16970   8.831   3.461   4.703 -0.4770 -0.7460  0.0437
  867MOL0     C16971   8.703   3.494   4.634  0.2583  0.1013 -0.1543
  867MOL0     C16972   8.582   3.500   4.733  0.4819 -0.2425  0.2787
  867MOL0     C16973   8.460   3.521   4.650 -0.0611  0.2548 -0.4440
  867MOL0     C16974   8.370   3.524   4.569  0.0495 -0.6148  0.3675
  867MOL0     C16975   9.097   3.638   4.546  0.0986  0.0118 -0.8375
  867MOL0     C16976   9.166   3.759   4.533 -0.3188 -0.1956  0.1849
  867MOL0     C16977   9.103   3.864   4.446 -0.1812 -0.3490 -0.1476
  867MOL0     H16978   9.745   3.952   4.496  3.6541 -0.7216  2.5859
  867MOL0     H16979   9.857   4.161   4.525  0.0964  2.4048  0.4311
  867MOL0     H16980   9.842   4.539   4.774  1.3343 -0.0969  0.2453
  867MOL0     H16981   9.691   4.460   4.837  0.0008 -1.6435  1.6971
  867MOL0     H16982   9.827   4.321   4.988 -0.5628  1.1968  1.3799
  867MOL0     H16983   9.871   4.487   4.997 -1.2675 -0.8173 -1.4627
  867MOL0     H16984  10.066   4.458   4.871 -3.5069  1.3777 -1.1747
  867MOL0     H16985  10.035   4.293   4.833 -2.4743 -0.9771 -0.1486
  867MOL0     H16986  10.062   4.354   5.123  0.6565  2.7201 -1.2594
  867MOL0     H16987  10.061   4.198   5.037 -1.0803  0.3319 -0.6349
  867MOL0     H16988  10.279   4.275   4.910  0.3504 -0.2082  0.1389
  867MOL0     H16989  10.267   4.425   4.979 -0.6267 -0.3653 -0.4298
  867MOL0     H16990  10.310   4.333   5.211 -2.1468 -0.9158 -0.0512
  867MOL0     H16991  10.343   4.176   5.132  1.8942  0.2455 -0.6951
  867MOL0     H16992  10.489   4.331   4.965  3.0101  3.5824  0.6045
  867MOL0     H16993  10.559   4.244   5.107  1.2383 -1.5874 -2.5348
  867MOL0     H16994  10.551   4.474   5.231 -0.1868  0.1015  1.0190
  867MOL0     H16995  10.661   4.457   5.098  0.0946 -2.7650  2.3028
  867MOL0     H16996  10.309   4.586   5.191  1.9993  0.6526  0.9439
  867MOL0     H16997  10.221   4.846   5.142 -0.7950  2.5765 -1.4835
  867MOL0     H16998  10.209   4.891   4.975 -1.5331 -0.1682 -1.2939
  867MOL0     H16999  10.042   4.700   4.925  2.9870 -2.5371 -0.1078
  867MOL0     H17000  10.064   4.644   5.086 -2.8480 -0.4328 -0.2781
  867MOL0     H17001   9.949   4.901   5.007 -1.0785 -0.0456 -0.7356
  867MOL0     H17002   9.999   4.870   5.184  1.6556 -1.5088 -0.4209
  867MOL0     H17003   9.765   4.824   5.176  1.1521  1.2037  0.0731
  867MOL0     H17004   9.847   4.666   5.164  2.0985 -1.0079 -1.8730
  867MOL0     H17005   9.585   4.638   5.158  1.6624 -0.4180 -0.1734
  867MOL0     H17006   9.362   4.667   5.153 -0.3115 -1.1296 -0.2604
  867MOL0     H17007   9.047   4.479   4.996  1.1497  0.9429 -2.3184
  867MOL0     H17008   8.810   4.416   5.001  0.7423 -0.3939  0.9389
  867MOL0     H17009   8.592   4.551   4.789  0.2993 -0.0681  0.6790
  867MOL0     H17010   8.583   4.417   4.905 -0.3887 -0.0752  0.3594
  867MOL0     H17011   8.371   4.460   4.826  0.3625 -1.7441  0.4492
  867MOL0     H17012   8.372   4.510   4.996  0.9864 -3.0456  0.1888
  867MOL0     H17013   8.246   4.668   4.883 -1.0587 -2.7736 -2.6799
  867MOL0     H17014   8.407   4.750   4.911 -0.0503  0.6462 -1.8543
  867MOL0     H17015   8.287   4.650   4.644 -2.6718 -1.4987  3.2443
  867MOL0     H17016   8.461   4.687   4.670 -2.0368 -0.9558 -4.5977
  867MOL0     H17017   8.374   4.869   4.584  0.4330 -0.7515 -0.5627
  867MOL0     H17018   8.418   4.913   4.748 -1.1320 -0.7835  0.4062
  867MOL0     H17019   8.181   4.895   4.824  1.5015 -1.0292  0.8066
  867MOL0     H17020   8.202   5.027   4.712 -0.0509  0.1440 -1.0997
  867MOL0     H17021   8.076   4.766   4.658 -1.2522 -0.6247 -1.8080
  867MOL0     H17022   8.146   4.859   4.521 -0.0619 -1.1364  0.0717
  867MOL0     H17023   7.925   4.956   4.720  0.2552 -0.5732 -0.1417
  867MOL0     H17024   8.003   5.061   4.604 -0.9095  0.7293 -0.0585
  867MOL0     H17025   8.706   4.833   5.020 -1.8693 -1.2365  0.7695
  867MOL0     H17026   8.951   4.892   5.062 -0.1969  0.8190  1.6053
  867MOL0     H17027   9.389   4.801   4.742 -1.7164  1.2647  1.1487
  867MOL0     H17028   9.643   4.800   4.766 -0.2840  3.1810  0.0397
  867MOL0     H17029   9.603   4.263   4.847  1.5816 -0.9158  0.6121
  867MOL0     H17030   9.479   4.068   4.812 -0.9863  1.6457 -1.9733
  867MOL0     H17031   9.429   3.671   4.741 -0.6997 -1.0805  1.7109
  867MOL0     H17032   9.307   3.495   4.779  2.4349 -0.1967 -1.9825
  867MOL0     H17033   8.913   3.292   4.585  0.4591  0.1877  1.5592
  867MOL0     H17034   8.917   3.449   4.506 -3.9020 -1.8010  0.2235
  867MOL0     H17035   8.885   3.544   4.749  1.9710 -2.6884  0.8836
  867MOL0     H17036   8.818   3.379   4.774 -0.6204 -1.5753 -0.9167
  867MOL0     H17037   8.688   3.419   4.556 -0.7821 -0.1998  0.3109
  867MOL0     H17038   8.719   3.591   4.585 -2.1737  1.0700  0.8013
  867MOL0     H17039   8.570   3.404   4.785 -0.9493  0.5516  1.5106
  867MOL0     H17040   8.589   3.573   4.814 -1.8500 -0.3000  0.5932
  867MOL0     H17041   8.291   3.536   4.498 -0.6121 -3.3538  0.5372
  867MOL0     H17042   9.008   3.634   4.484  0.5051 -2.1852 -1.3542
  867MOL0     H17043   9.003   3.833   4.417 -0.1797  2.5022 -3.9180
  867MOL0     H17044   9.094   3.953   4.509 -1.8156 -0.1992 -0.5696
  867MOL0     H17045   9.164   3.888   4.358  0.9501 -2.4291 -0.0056
  868MOL0     O17046   6.912   8.049   1.854  0.3955 -0.2882 -0.7000
  868MOL0     C17047   6.817   7.997   1.802  0.0108  0.8023 -0.2252
  868MOL0     O17048   6.823   7.903   1.701  0.0433 -0.1950 -0.0854
  868MOL0     C17049   6.944   7.848   1.673 -0.8591 -0.2878 -0.0349
  868MOL0     C17050   7.032   7.900   1.580  0.3487  0.2126  0.7106
  868MOL0     C17051   7.159   7.833   1.565  0.2213 -0.1856 -0.7093
  868MOL0     C17052   7.201   7.726   1.647  0.2511  0.3604  0.4274
  868MOL0     O17053   7.328   7.671   1.626 -0.7030  0.2239  0.0177
  868MOL0     C17054   7.415   7.661   1.745 -0.0505 -0.1816  0.2751
  868MOL0     C17055   7.526   7.556   1.715  0.5072  0.2678  0.9519
  868MOL0     C17056   7.617   7.531   1.824 -0.5501  0.4327 -0.7617
  868MOL0     C17057   7.683   7.395   1.809  0.1456 -0.4670  0.2806
  868MOL0     C17058   7.834   7.401   1.797  0.5198 -0.1554 -0.0084
  868MOL0     C17059   7.873   7.446   1.654 -0.3106  0.5350 -0.0293
  868MOL0     C17060   8.032   7.466   1.643  0.0474 -0.2809  1.5023
  868MOL0     C17061   8.071   7.574   1.544  0.0796  0.4997  0.3559
  868MOL0     N17062   8.204   7.532   1.487 -0.2701 -0.4876 -0.8823
  868MOL0     C17063   8.334   7.555   1.531  1.4030 -0.3181  0.4616
  868MOL0     C17064   8.424   7.509   1.432  0.9964  0.6456 -0.0546
  868MOL0     C17065   8.570   7.514   1.431 -1.1308  0.0871  0.3466
  868MOL0     C17066   8.599   7.656   1.397 -1.0346  0.2435  0.3808
  868MOL0     C17067   8.745   7.679   1.359 -0.1220 -0.7307 -0.1381
  868MOL0     C17068   8.843   7.658   1.476 -0.1702  1.0269  0.8945
  868MOL0     O17069   8.969   7.615   1.422  0.2126 -0.8266  0.2819
  868MOL0     C17070   9.076   7.590   1.505 -0.6513  0.9649 -0.5151
  868MOL0     C17071   9.050   7.535   1.633 -0.0905  0.2694  0.9657
  868MOL0     C17072   9.159   7.495   1.723 -0.0797  0.1186 -0.5491
  868MOL0     C17073   9.288   7.505   1.675 -0.3561  0.6358 -0.6288
  868MOL0     C17074   9.400   7.469   1.779  0.5057 -0.1256  0.5387
  868MOL0     O17075   9.523   7.489   1.729 -0.4170  0.4671  0.4719
  868MOL0     C17076   9.627   7.466   1.817 -0.9817 -0.2624 -0.5542
  868MOL0     C17077   9.689   7.586   1.869 -1.0742 -0.0704  0.1433
  868MOL0     C17078   9.794   7.568   1.959 -0.1091 -0.2186  0.2655
  868MOL0     C17079   9.832   7.441   2.000 -1.1522  0.3129  0.4696
  868MOL0     O17080   9.940   7.447   2.082 -0.1758  0.3890 -0.1073
  868MOL0     C17081   9.966   7.320   2.148 -1.1674  0.2209 -0.8516
  868MOL0     C17082  10.088   7.323   2.249 -0.2335 -0.5483 -0.4067
  868MOL0     C17083  10.223   7.335   2.187  0.4285  0.3040  0.1652
  868MOL0     C17084  10.338   7.329   2.290 -0.1307  0.5105 -0.1900
  868MOL0     C17085  10.472   7.340   2.211 -0.7809 -0.0058 -0.5296
  868MOL0     C17086  10.526   7.211   2.161 -0.6070  0.1856  0.1308
  868MOL0     C17087  10.667   7.241   2.099  0.0948 -0.3445 -0.3045
  868MOL0     C17088  10.753   7.117   2.076 -0.6437  0.3776  0.2956
  868MOL0    Cl17089  10.902   7.177   2.014 -0.0770  0.4767  0.0263
  868MOL0     C17090   9.756   7.326   1.963 -0.3958 -0.0319  0.6013
  868MOL0     C17091   9.661   7.340   1.867 -0.6461  1.0619 -1.0711
  868MOL0     O17092   9.374   7.424   1.893  0.4803  0.0588  0.3433
  868MOL0     C17093   9.314   7.530   1.536 -0.0647 -0.5305 -0.2440
  868MOL0     C17094   9.206   7.579   1.460  0.1019  0.7799 -0.2960
  868MOL0     N17095   8.345   7.459   1.327 -0.8312  0.4083  0.1221
  868MOL0     N17096   8.220   7.468   1.369  0.8077  1.1228 -0.1390
  868MOL0     C17097   7.116   7.691   1.751 -0.4307  0.5825 -0.2409
  868MOL0     C17098   6.986   7.747   1.758  0.3504  0.1739 -0.7480
  868MOL0     C17099   6.686   8.049   1.850  0.3801 -0.4265  0.1276
  868MOL0     C17100   6.679   8.181   1.893 -0.1870 -0.2652  0.3235
  868MOL0     C17101   6.559   8.239   1.936 -1.2873  0.4509  0.3682
  868MOL0     C17102   6.443   8.161   1.946  0.3083  0.7119  0.6274
  868MOL0     O17103   6.335   8.226   1.998 -0.6038  0.1414 -0.8438
  868MOL0     C17104   6.216   8.160   2.037  0.5725 -0.3781 -0.1759
  868MOL0     C17105   6.103   8.256   2.090 -0.1428 -0.0085 -0.3599
  868MOL0     C17106   6.017   8.184   2.196  0.5605  0.0234 -0.4875
  868MOL0     C17107   5.890   8.271   2.229  0.1955  0.2946  0.7154
  868MOL0     C17108   5.802   8.185   2.307 -0.1979  0.8624 -0.1441
  868MOL0     C17109   5.715   8.111   2.353 -0.3405 -0.0448 -0.2949
  868MOL0     C17110   6.449   8.023   1.900  0.6030 -0.7525  0.3980
  868MOL0     C17111   6.568   7.972   1.860  0.0870  0.4694 -0.3567
  868MOL0     C17112   6.578   7.820   1.841  0.0217 -0.3120 -0.2875
  868MOL0     H17113   7.004   7.969   1.501  0.1841 -2.4955 -1.7984
  868MOL0     H17114   7.228   7.866   1.488 -2.3251 -1.7610 -3.9052
  868MOL0     H17115   7.470   7.750   1.776  2.8987 -2.8007  3.3517
  868MOL0     H17116   7.364   7.616   1.831  0.4835 -1.1753  0.0908
  868MOL0     H17117   7.582   7.583   1.624 -2.1704  1.9202 -0.3176
  868MOL0     H17118   7.477   7.463   1.684  1.5205 -0.8853  2.6342
  868MOL0     H17119   7.554   7.536   1.913 -1.7461 -0.3972 -1.5314
  868MOL0     H17120   7.681   7.613   1.857 -0.1963 -0.1062 -0.0964
  868MOL0     H17121   7.663   7.336   1.899 -0.2407 -1.1277 -0.2352
  868MOL0     H17122   7.641   7.328   1.733  0.5511 -1.2347  0.7260
  868MOL0     H17123   7.864   7.483   1.862 -0.8272 -0.0917  0.5709
  868MOL0     H17124   7.888   7.309   1.819  0.7616  0.1125  0.5237
  868MOL0     H17125   7.833   7.382   1.575  1.6059 -1.6955  0.6680
  868MOL0     H17126   7.826   7.541   1.630 -0.6731  0.4629  0.3705
  868MOL0     H17127   8.073   7.368   1.618 -2.6132 -0.9196 -0.8743
  868MOL0     H17128   8.076   7.497   1.738 -3.9912 -0.5518  3.6722
  868MOL0     H17129   7.997   7.581   1.464  0.5214  1.1935 -0.0067
  868MOL0     H17130   8.075   7.676   1.586 -1.6360  1.8930 -2.5753
  868MOL0     H17131   8.366   7.589   1.629 -1.0330  0.3141  1.0947
  868MOL0     H17132   8.606   7.494   1.532  0.3745  1.6467  0.1531
  868MOL0     H17133   8.609   7.440   1.360 -0.1560  0.8805  0.0333
  868MOL0     H17134   8.529   7.677   1.315 -1.0371 -0.1753  0.2764
  868MOL0     H17135   8.564   7.723   1.476  0.0312  0.2469  0.8755
  868MOL0     H17136   8.757   7.777   1.311 -0.8240 -0.5730 -0.0095
  868MOL0     H17137   8.760   7.610   1.275 -2.2075 -0.2633 -0.9748
  868MOL0     H17138   8.797   7.577   1.533 -0.0900  0.4767  0.1884
  868MOL0     H17139   8.856   7.750   1.535  0.3246  1.4164  0.1941
  868MOL0     H17140   8.949   7.516   1.666 -0.3302 -1.4745 -0.6329
  868MOL0     H17141   9.143   7.454   1.822 -0.3817  0.3560 -0.4969
  868MOL0     H17142   9.656   7.686   1.843  0.2900 -0.0937 -1.8828
  868MOL0     H17143   9.852   7.654   1.991 -0.3319 -0.3653  1.0844
  868MOL0     H17144   9.881   7.317   2.217 -0.5741  1.6898  0.0001
  868MOL0     H17145   9.974   7.233   2.083 -0.6570 -1.1812  0.9829
  868MOL0     H17146  10.066   7.405   2.318  2.4534  0.1445 -0.2690
  868MOL0     H17147  10.081   7.227   2.303  0.3542 -0.0220  0.6369
  868MOL0     H17148  10.227   7.261   2.105 -1.8507  0.8749 -0.5177
  868MOL0     H17149  10.234   7.430   2.134  0.5090  0.1535 -0.0955
  868MOL0     H17150  10.332   7.239   2.352 -0.5072 -0.0776 -1.0555
  868MOL0     H17151  10.330   7.421   2.348  3.3169  0.2421  0.9543
  868MOL0     H17152  10.537   7.378   2.290 -2.2341  1.5660 -0.0243
  868MOL0     H17153  10.473   7.414   2.131  1.0940  0.9902  0.3452
  868MOL0     H17154  10.539   7.134   2.238 -3.0030  0.1808  0.6030
  868MOL0     H17155  10.462   7.174   2.080  0.1034  0.9154 -0.7924
  868MOL0     H17156  10.732   7.288   2.173  0.5253 -0.8028 -0.3903
  868MOL0     H17157  10.661   7.303   2.009 -0.8460 -0.3338 -0.2410
  868MOL0     H17158  10.764   7.058   2.167 -2.8012  0.6444  0.7852
  868MOL0     H17159  10.695   7.067   1.998 -1.6972  3.1003 -0.8241
  868MOL0     H17160   9.780   7.227   2.000 -1.3180 -0.8606 -0.9332
  868MOL0     H17161   9.604   7.252   1.837  1.2139  0.0027 -1.6423
  868MOL0     H17162   9.412   7.532   1.488  0.4881  2.7977  0.7715
  868MOL0     H17163   9.213   7.607   1.355 -2.9126  1.8644 -0.2921
  868MOL0     H17164   7.149   7.625   1.830 -1.2721 -0.2102 -0.5405
  868MOL0     H17165   6.918   7.697   1.826  0.9579  0.3694  0.0123
  868MOL0     H17166   6.768   8.242   1.898 -1.6105  1.8061  2.7366
  868MOL0     H17167   6.559   8.338   1.980  1.1297  1.1372 -1.0118
  868MOL0     H17168   6.246   8.095   2.120  2.1839  0.5604  0.0249
  868MOL0     H17169   6.183   8.094   1.957 -1.5213  0.3480  0.0453
  868MOL0     H17170   6.045   8.294   2.006 -1.5590 -1.0290  0.1277
  868MOL0     H17171   6.145   8.342   2.144 -0.1500 -0.7641  0.8966
  868MOL0     H17172   6.078   8.172   2.286  0.1684 -0.4783 -0.2823
  868MOL0     H17173   5.983   8.087   2.159  3.1621 -0.4392 -1.9222
  868MOL0     H17174   5.911   8.369   2.274  0.6627  1.0189 -0.9884
  868MOL0     H17175   5.840   8.289   2.134 -0.0281  3.1211  1.2681
  868MOL0     H17176   5.649   8.038   2.395 -2.4627  1.2725 -1.2214
  868MOL0     H17177   6.362   7.958   1.899  0.8713 -1.1314  1.0894
  868MOL0     H17178   6.500   7.769   1.897 -0.2233  0.8182  0.4289
  868MOL0     H17179   6.565   7.811   1.733 -0.1437 -0.6682 -0.2385
  868MOL0     H17180   6.668   7.763   1.867 -1.7535 -2.1718  2.3416
  869MOL0     O17181   4.176   0.006   2.875 -0.2532 -0.3590 -0.1273
  869MOL0     C17182   4.220   0.067   2.775  0.0675 -0.2491 -0.2759
  869MOL0     O17183   4.357   0.101   2.759  0.2068  0.9072 -0.2682
  869MOL0     C17184   4.435   0.011   2.816  0.0838  0.5924  0.2307
  869MOL0     C17185   4.453   0.016   2.951 -0.6423 -0.0313  0.9557
  869MOL0     C17186   4.541  -0.082   3.003 -0.0117  0.0104 -0.0660
  869MOL0     C17187   4.611  -0.179   2.927  0.3080  0.0475 -0.3811
  869MOL0     O17188   4.698  -0.263   2.997  0.6616  0.0346  0.0932
  869MOL0     C17189   4.805  -0.313   2.917  0.3411 -0.9342 -0.1168
  869MOL0     C17190   4.904  -0.377   3.009  0.3308  0.3343  0.4918
  869MOL0     C17191   4.976  -0.275   3.097 -0.3465 -0.3579 -0.5492
  869MOL0     C17192   5.104  -0.239   3.030 -0.3122  0.5896  0.6486
  869MOL0     C17193   5.198  -0.182   3.137  0.1801  0.5307  0.0895
  869MOL0     C17194   5.344  -0.163   3.088 -0.4505  0.8847 -0.0074
  869MOL0     C17195   5.438  -0.103   3.184  0.6930  0.5806 -0.1418
  869MOL0     C17196   5.503  -0.197   3.276 -0.1687  0.0246 -0.7754
  869MOL0     N17197   5.603  -0.133   3.369  0.0435 -0.8527 -1.1650
  869MOL0     C17198   5.719  -0.082   3.333 -0.2748 -1.0844  0.3435
  869MOL0     C17199   5.760  -0.002   3.429 -1.2739  0.2867 -0.1456
  869MOL0     C17200   5.881   0.082   3.434 -0.7558  0.1765 -0.3246
  869MOL0     C17201   6.000   0.027   3.525 -0.1382 -0.1333  0.4274
  869MOL0     C17202   6.133   0.109   3.483 -0.1263  0.4456 -0.2548
  869MOL0     C17203   6.246   0.082   3.585  0.0314  0.0292  0.2037
  869MOL0     O17204   6.366   0.136   3.545 -0.8100  0.6509  0.8408
  869MOL0     C17205   6.483   0.080   3.592 -0.7660 -0.2735  0.1506
  869MOL0     C17206   6.594   0.171   3.617 -0.0756  0.0779  0.4961
  869MOL0     C17207   6.710   0.121   3.663  0.2123 -0.3178 -0.8272
  869MOL0     C17208   6.723  -0.012   3.703  0.0062  0.1265  0.0328
  869MOL0     C17209   6.850  -0.064   3.772 -0.5797 -0.6948 -0.1463
  869MOL0     O17210   6.955   0.018   3.756 -0.7859  0.2681 -0.1556
  869MOL0     C17211   7.080  -0.017   3.809  0.0290  0.2522 -0.0336
  869MOL0     C17212   7.088  -0.076   3.936  0.1718  0.1699  0.7790
  869MOL0     C17213   7.209  -0.105   3.991 -0.7391 -0.3124  0.0311
  869MOL0     C17214   7.330  -0.087   3.916  0.0340 -0.0121  0.4637
  869MOL0     O17215   7.458  -0.112   3.959  0.1606 -0.1250  0.6723
  869MOL0     C17216   7.491  -0.113   4.094  0.7311 -0.0635  0.0460
  869MOL0     C17217   7.641  -0.111   4.108 -0.3208  0.1432  0.8360
  869MOL0     C17218   7.685  -0.080   4.253  0.3752  0.0274  0.5656
  869MOL0     C17219   7.841  -0.077   4.261 -0.0790  0.2564  0.0956
  869MOL0     C17220   7.889  -0.018   4.393 -0.0893  0.1804 -0.5725
  869MOL0     C17221   8.047  -0.019   4.391 -0.9437 -0.8076 -0.0283
  869MOL0     C17222   8.111   0.016   4.529 -0.6691  0.1594  1.1988
  869MOL0     C17223   8.261  -0.023   4.535 -0.8188  1.2697 -0.2754
  869MOL0    Cl17224   8.351   0.080   4.428  0.3359 -0.5686 -0.2934
  869MOL0     C17225   7.321  -0.040   3.780  0.5086  0.0797 -0.1386
  869MOL0     C17226   7.197   0.001   3.732 -0.0816 -0.1770  0.2607
  869MOL0     O17227   6.856  -0.178   3.806  0.2132  0.8470 -0.2963
  869MOL0     C17228   6.621  -0.099   3.675 -0.0947  0.7478  0.3138
  869MOL0     C17229   6.504  -0.053   3.614 -0.5260 -0.8229 -0.7417
  869MOL0     N17230   5.671  -0.004   3.535 -0.2923  0.3055  0.0008
  869MOL0     N17231   5.581  -0.089   3.499  0.1694  0.0831 -0.3393
  869MOL0     C17232   4.583  -0.180   2.791  1.1523 -0.0017 -1.1680
  869MOL0     C17233   4.501  -0.082   2.735 -0.0603 -0.0202 -0.6015
  869MOL0     C17234   4.136   0.103   2.669  0.3092  0.9333  0.6385
  869MOL0     C17235   4.181   0.190   2.572 -0.1182  0.1093  0.4037
  869MOL0     C17236   4.097   0.246   2.479 -0.0174  0.3703  0.0814
  869MOL0     C17237   3.956   0.204   2.472 -0.0707 -0.8146  0.2064
  869MOL0     O17238   3.871   0.244   2.368  0.2346  0.2431 -0.4768
  869MOL0     C17239   3.913   0.340   2.272 -0.2088 -1.0114  0.1738
  869MOL0     C17240   3.913   0.474   2.344 -0.3751 -0.3514  0.5328
  869MOL0     C17241   3.943   0.595   2.250  0.1509  0.3378  0.2324
  869MOL0     C17242   3.813   0.647   2.175 -0.9270 -0.1628  0.0044
  869MOL0     C17243   3.728   0.709   2.280  0.3784 -0.0170  0.1631
  869MOL0     C17244   3.647   0.765   2.355 -0.0987 -0.6580  0.3598
  869MOL0     C17245   3.916   0.106   2.558 -0.2412  0.3458  0.2847
  869MOL0     C17246   3.999   0.053   2.657 -0.1194 -0.6738 -0.6480
  869MOL0     C17247   3.933  -0.039   2.752  0.1738  1.1206 -0.5306
  869MOL0     H17248   4.404   0.091   3.012  2.5083  1.8961  1.3294
  869MOL0     H17249   4.553  -0.092   3.110 -1.9236 -1.7365  0.0312
  869MOL0     H17250   4.769  -0.390   2.848  0.6619 -0.5205 -0.7562
  869MOL0     H17251   4.847  -0.237   2.850 -2.7426  0.8006 -0.2813
  869MOL0     H17252   4.966  -0.441   2.945 -0.7273  0.9673 -1.2457
  869MOL0     H17253   4.855  -0.457   3.065  1.3059 -1.3939 -1.0041
  869MOL0     H17254   4.998  -0.324   3.193  1.4041  1.0077 -0.1902
  869MOL0     H17255   4.915  -0.187   3.120 -1.4716 -1.2862  0.1555
  869MOL0     H17256   5.153  -0.324   2.982  1.6826  2.1443 -0.2340
  869MOL0     H17257   5.084  -0.170   2.947 -1.6669 -0.3748  0.1416
  869MOL0     H17258   5.149  -0.090   3.170 -0.5861  0.4892 -0.8818
  869MOL0     H17259   5.200  -0.249   3.223  0.2254 -0.1227 -0.4039
  869MOL0     H17260   5.379  -0.258   3.047 -1.7320  0.3217  0.1689
  869MOL0     H17261   5.331  -0.100   2.999 -3.2954 -0.7048 -0.8574
  869MOL0     H17262   5.393  -0.020   3.240 -0.1747  0.1708 -0.2103
  869MOL0     H17263   5.511  -0.052   3.121  0.4239 -0.7200 -1.5516
  869MOL0     H17264   5.426  -0.239   3.342  1.8509 -0.4644  1.3988
  869MOL0     H17265   5.553  -0.283   3.231 -2.4681 -1.5125 -0.5545
  869MOL0     H17266   5.766  -0.095   3.235 -0.6039 -0.7633  0.1420
  869MOL0     H17267   5.926   0.109   3.339  1.7218  2.3089  1.3230
  869MOL0     H17268   5.857   0.181   3.473  2.2601  1.1916 -0.7960
  869MOL0     H17269   5.975   0.056   3.628  0.6830  0.5322  0.4562
  869MOL0     H17270   6.018  -0.080   3.514  2.8170  0.0281  2.4270
  869MOL0     H17271   6.125   0.217   3.465  4.1279  0.9047 -0.5329
  869MOL0     H17272   6.165   0.077   3.383 -0.7422 -2.4306  0.3774
  869MOL0     H17273   6.255  -0.026   3.597  1.5940  0.0256 -0.6807
  869MOL0     H17274   6.223   0.120   3.684 -2.3843 -2.0907  0.5608
  869MOL0     H17275   6.570   0.271   3.584  0.8972  0.0055 -0.5140
  869MOL0     H17276   6.796   0.185   3.679  0.4715 -0.2866 -2.2776
  869MOL0     H17277   7.003  -0.092   4.002 -0.0007 -2.1136  0.1191
  869MOL0     H17278   7.224  -0.142   4.092  2.4765  0.0521 -0.2078
  869MOL0     H17279   7.441  -0.030   4.145  0.1076 -2.1519  3.1501
  869MOL0     H17280   7.456  -0.204   4.144 -3.2262  0.6866 -1.0801
  869MOL0     H17281   7.690  -0.197   4.062  0.8553  2.5865 -2.9014
  869MOL0     H17282   7.666  -0.023   4.047 -0.1450 -2.6814 -3.6275
  869MOL0     H17283   7.642   0.018   4.280 -0.9378 -0.4441  0.2910
  869MOL0     H17284   7.635  -0.150   4.321  1.5615 -1.4075 -0.0002
  869MOL0     H17285   7.884  -0.016   4.181  2.5655  0.4618  1.5990
  869MOL0     H17286   7.876  -0.179   4.246  0.3822  0.4035  0.1675
  869MOL0     H17287   7.853  -0.078   4.478  3.1450 -0.4375  0.5319
  869MOL0     H17288   7.854   0.085   4.389  3.5173  1.6277  0.6415
  869MOL0     H17289   8.093  -0.111   4.353  5.6050  0.6676  2.8245
  869MOL0     H17290   8.083   0.051   4.314  0.8611 -2.1040 -0.4237
  869MOL0     H17291   8.051  -0.034   4.605  1.8001 -2.2547  1.6980
  869MOL0     H17292   8.107   0.123   4.551 -1.2625  0.2671  0.5756
  869MOL0     H17293   8.294  -0.015   4.639 -2.4712 -0.6619  0.4573
  869MOL0     H17294   8.280  -0.129   4.512 -0.9704  0.9465  1.0140
  869MOL0     H17295   7.415  -0.025   3.728  0.6779 -2.3719 -0.6709
  869MOL0     H17296   7.196   0.062   3.642  0.7409  1.1190  1.0958
  869MOL0     H17297   6.632  -0.202   3.705 -1.7419  0.4051 -0.1704
  869MOL0     H17298   6.419  -0.120   3.612 -1.3639  0.2109 -0.5550
  869MOL0     H17299   4.632  -0.261   2.738  0.2662 -1.2836 -0.0841
  869MOL0     H17300   4.481  -0.079   2.629 -1.3795 -1.2855 -0.4323
  869MOL0     H17301   4.285   0.221   2.577  0.6840 -1.9464 -1.8553
  869MOL0     H17302   4.139   0.313   2.404 -1.4467 -0.4134 -1.4774
  869MOL0     H17303   3.841   0.333   2.190  0.1818 -1.3233 -0.1487
  869MOL0     H17304   4.010   0.320   2.226 -0.9638 -1.6094 -1.2036
  869MOL0     H17305   3.993   0.461   2.418 -0.4191 -1.4840  0.3931
  869MOL0     H17306   3.819   0.482   2.399 -1.4260 -2.8799 -0.7119
  869MOL0     H17307   4.019   0.565   2.177 -0.0405 -0.4937  0.3716
  869MOL0     H17308   3.987   0.680   2.302  1.7143 -0.5335  0.3919
  869MOL0     H17309   3.826   0.728   2.103 -0.5924  3.1161  3.4008
  869MOL0     H17310   3.759   0.566   2.126 -1.7694  1.2854 -1.5959
  869MOL0     H17311   3.578   0.805   2.427  2.3286 -0.0908  2.5396
  869MOL0     H17312   3.819   0.061   2.539  1.3754 -3.9598  1.0466
  869MOL0     H17313   3.980  -0.136   2.767  1.9533  1.9264 -0.5720
  869MOL0     H17314   3.932   0.004   2.853 -3.4126  0.8813 -0.3471
  869MOL0     H17315   3.829  -0.057   2.724  0.4422 -0.1073 -0.7736
  870MOL0     O17316   0.680   9.991   8.938 -0.0645  0.1289  0.2625
  870MOL0     C17317   0.600  10.075   8.896  1.4160  0.1334  0.9830
  870MOL0     O17318   0.612  10.212   8.880 -0.3022 -0.3474 -0.2395
  870MOL0     C17319   0.738  10.275   8.906 -0.5898 -0.5651 -0.1058
  870MOL0     C17320   0.733  10.413   8.949  1.1767 -0.1541 -0.1454
  870MOL0     C17321   0.845  10.495   8.971 -0.5525  0.3612  1.5126
  870MOL0     C17322   0.964  10.432   8.949 -0.4974  0.4922  0.0090
  870MOL0     O17323   1.081  10.505   8.971 -0.6284 -0.9120 -0.1697
  870MOL0     C17324   1.123  10.524   9.109  0.3129 -0.4567 -0.1792
  870MOL0     C17325   1.270  10.552   9.112 -0.4070  0.0033  0.5172
  870MOL0     C17326   1.319  10.560   9.260  0.5636 -0.3976  0.6114
  870MOL0     C17327   1.467  10.599   9.263  0.4154 -0.3633 -0.8885
  870MOL0     C17328   1.564  10.494   9.208  0.5644 -0.7675 -0.0149
  870MOL0     C17329   1.551  10.361   9.291 -0.7635 -0.3700  0.0139
  870MOL0     C17330   1.684  10.297   9.278 -0.4619 -0.3008  0.2913
  870MOL0     C17331   1.698  10.170   9.364 -0.5679 -0.3412  0.6720
  870MOL0     N17332   1.687  10.195   9.510 -0.3862  0.6099  0.9171
  870MOL0     C17333   1.785  10.259   9.582  0.9120  0.2040 -1.0613
  870MOL0     C17334   1.739  10.260   9.713  0.5083 -0.6213 -0.0216
  870MOL0     C17335   1.801  10.326   9.827 -0.0725 -0.5119  0.3320
  870MOL0     C17336   1.728  10.308   9.959 -0.1417 -0.3272  0.7899
  870MOL0     C17337   1.792  10.384  10.067  0.0509  0.0372 -0.3853
  870MOL0     C17338   1.945  10.347  10.113  0.5412 -0.0903 -0.0301
  870MOL0     O17339   2.002  10.471  10.158 -0.5004  1.0470 -0.0549
  870MOL0     C17340   2.125  10.467  10.215  0.2472 -0.4183  0.1728
  870MOL0     C17341   2.174  10.591  10.246 -0.3357  0.3882 -0.0236
  870MOL0     C17342   2.296  10.597  10.318 -0.0722  0.1688  0.6054
  870MOL0     C17343   2.364  10.480  10.353 -0.6893 -0.5255  0.5164
  870MOL0     C17344   2.504  10.499  10.404 -1.0671 -0.3265 -0.2525
  870MOL0     O17345   2.547  10.628  10.438 -0.5158 -0.4032 -1.0300
  870MOL0     C17346   2.665  10.659  10.499  0.1572 -1.0518 -0.2115
  870MOL0     C17347   2.722  10.784  10.489 -0.1186 -0.5828  0.3444
  870MOL0     C17348   2.852  10.816  10.532  0.1759  0.3469  1.0697
  870MOL0     C17349   2.920  10.733  10.617  1.0346 -0.2189 -0.4159
  870MOL0     O17350   3.034  10.753  10.687 -0.5642  0.2581 -0.8083
  870MOL0     C17351   3.123  10.852  10.624 -0.9520 -0.5142  0.5945
  870MOL0     C17352   3.237  10.877  10.711  0.2828 -0.1398 -0.4166
  870MOL0     C17353   3.354  10.939  10.627  0.0757  0.4947  0.0035
  870MOL0     C17354   3.470  10.962  10.720 -0.2867 -0.0425 -0.0304
  870MOL0     C17355   3.578  11.059  10.666 -0.3305  0.4883 -0.4299
  870MOL0     C17356   3.703  10.985  10.628 -0.1290 -0.8906  0.2489
  870MOL0     C17357   3.808  11.089  10.569 -1.0868  0.3502  0.1118
  870MOL0     C17358   3.943  11.029  10.537 -0.3294 -0.0885  0.0433
  870MOL0    Cl17359   4.020  10.990  10.690 -0.6982  0.1495 -0.3980
  870MOL0     C17360   2.864  10.607  10.641  0.2651 -0.7525  0.1403
  870MOL0     C17361   2.745  10.567  10.573  0.0974  0.7218 -0.5517
  870MOL0     O17362   2.577  10.405  10.413 -0.4320  0.1975 -0.6193
  870MOL0     C17363   2.308  10.353  10.326 -0.1217 -0.4000 -0.2995
  870MOL0     C17364   2.186  10.351  10.267  0.3065  0.1428 -0.7402
  870MOL0     N17365   1.620  10.189   9.713 -0.5457 -0.4743 -0.1251
  870MOL0     N17366   1.601  10.139   9.598  0.2568  0.3575 -0.0925
  870MOL0     C17367   0.975  10.304   8.886  0.2036 -0.3011  0.0590
  870MOL0     C17368   0.859  10.233   8.861 -0.2530 -0.0642 -0.2309
  870MOL0     C17369   0.467  10.028   8.854 -0.7799  0.2106  0.1016
  870MOL0     C17370   0.387  10.119   8.788 -0.0010 -0.4760 -0.1757
  870MOL0     C17371   0.251  10.090   8.745  0.1761  0.4528  0.1840
  870MOL0     C17372   0.201   9.969   8.775  0.4839  0.3289  0.0978
  870MOL0     O17373   0.071   9.931   8.740 -0.0111 -0.3631  0.3950
  870MOL0     C17374  -0.004   9.864   8.844  0.1405 -1.7162  0.2169
  870MOL0     C17375  -0.087   9.764   8.771  0.0776 -0.3780  0.3893
  870MOL0     C17376  -0.206   9.709   8.855 -0.8613 -0.2289 -0.5600
  870MOL0     C17377  -0.151   9.631   8.968  0.4277  0.1878  0.1149
  870MOL0     C17378  -0.270   9.569   9.025 -0.4328  1.6768 -0.1241
  870MOL0     C17379  -0.364   9.524   9.089 -1.0086 -0.4853  0.2358
  870MOL0     C17380   0.284   9.882   8.844 -0.0562 -0.1102 -0.7986
  870MOL0     C17381   0.412   9.909   8.890  0.0554  0.0260  0.2415
  870MOL0     C17382   0.473   9.797   8.979  0.0108  0.3011  0.2717
  870MOL0     H17383   0.635  10.457   8.965  2.0615  2.0796 -0.4961
  870MOL0     H17384   0.846  10.599   9.002 -1.1259  0.1723  2.1971
  870MOL0     H17385   1.061  10.601   9.154 -0.4553  0.2999 -2.3770
  870MOL0     H17386   1.110  10.426   9.156  0.3990 -1.0657 -1.3688
  870MOL0     H17387   1.280  10.646   9.057  0.0078 -0.2280  0.1925
  870MOL0     H17388   1.314  10.471   9.052 -1.9325 -0.2257 -0.3355
  870MOL0     H17389   1.285  10.472   9.316 -1.1986  0.3428  0.7511
  870MOL0     H17390   1.270  10.650   9.299  3.2220  0.8663  1.2511
  870MOL0     H17391   1.481  10.698   9.217  0.5462 -1.1045 -2.5195
  870MOL0     H17392   1.492  10.609   9.369  1.6908  1.2195 -1.2981
  870MOL0     H17393   1.538  10.474   9.104 -0.4351  0.4951 -0.0328
  870MOL0     H17394   1.667  10.531   9.216  0.4855 -0.8275  1.5884
  870MOL0     H17395   1.515  10.376   9.393 -2.3653  0.1680 -0.5956
  870MOL0     H17396   1.487  10.283   9.251  1.0948 -1.3823 -1.1270
  870MOL0     H17397   1.750  10.372   9.324 -0.6290  2.5464 -3.5943
  870MOL0     H17398   1.718  10.287   9.174  1.7388  0.1201  0.9104
  870MOL0     H17399   1.620  10.100   9.331  0.6760 -0.8591 -1.3348
  870MOL0     H17400   1.795  10.125   9.342 -0.5500  0.7363 -1.7245
  870MOL0     H17401   1.878  10.299   9.544 -0.1464  1.3807 -2.5365
  870MOL0     H17402   1.891  10.264   9.834  1.7401  1.7468 -1.4561
  870MOL0     H17403   1.831  10.430   9.811 -1.7095 -0.0464  0.1332
  870MOL0     H17404   1.627  10.343   9.939  0.2063 -0.1890 -0.8495
  870MOL0     H17405   1.725  10.201   9.979 -0.3858 -1.6073 -4.6205
  870MOL0     H17406   1.728  10.369  10.155  2.5875 -1.5821  1.3487
  870MOL0     H17407   1.789  10.490  10.040 -2.3240 -0.0369 -0.6050
  870MOL0     H17408   2.003  10.298  10.034 -1.6853 -1.4178 -0.9418
  870MOL0     H17409   1.938  10.268  10.189  0.9608 -1.7449 -1.6178
  870MOL0     H17410   2.122  10.684  10.224 -0.9635 -0.2166 -1.2279
  870MOL0     H17411   2.331  10.696  10.347  4.2226 -1.4920  1.8882
  870MOL0     H17412   2.667  10.857  10.429 -5.6333 -2.5689  2.3506
  870MOL0     H17413   2.896  10.910  10.500 -0.6375  0.3318 -0.1916
  870MOL0     H17414   3.154  10.807  10.529 -2.1916 -1.1486  0.4764
  870MOL0     H17415   3.082  10.951  10.599  2.1424  0.3909 -1.6899
  870MOL0     H17416   3.194  10.950  10.781 -0.4100 -2.8189  2.1233
  870MOL0     H17417   3.271  10.780  10.748  2.2345  0.2018 -1.2096
  870MOL0     H17418   3.381  10.858  10.558  1.2385 -0.0136  1.0153
  870MOL0     H17419   3.325  11.024  10.565  2.9906 -0.0184 -2.2888
  870MOL0     H17420   3.502  10.863  10.753 -0.9905 -0.6508 -1.1286
  870MOL0     H17421   3.441  11.011  10.814  0.5505  3.7041 -1.5671
  870MOL0     H17422   3.602  11.128  10.748  0.9334  0.7173 -0.9730
  870MOL0     H17423   3.548  11.108  10.573 -0.3734 -0.3027 -0.8428
  870MOL0     H17424   3.744  10.944  10.720 -0.9143  1.7843  1.9001
  870MOL0     H17425   3.682  10.910  10.551  0.4379 -0.0007 -0.8035
  870MOL0     H17426   3.813  11.182  10.626 -1.2049  0.8043 -0.6070
  870MOL0     H17427   3.765  11.131  10.478  0.1726  0.7420 -0.3215
  870MOL0     H17428   3.927  10.940  10.475 -2.2505  1.6238 -2.1160
  870MOL0     H17429   3.996  11.108  10.483 -0.6287 -0.2015 -0.4199
  870MOL0     H17430   2.914  10.540  10.710  1.3635 -0.3739 -0.2554
  870MOL0     H17431   2.711  10.465  10.586  2.3413 -0.3325 -2.2501
  870MOL0     H17432   2.363  10.263  10.351  1.0287  0.5053  0.5419
  870MOL0     H17433   2.142  10.252  10.260 -0.1127  0.0810  1.8121
  870MOL0     H17434   1.077  10.269   8.871  0.6630  0.8286  0.3987
  870MOL0     H17435   0.860  10.139   8.806 -1.1197  1.3467 -2.7811
  870MOL0     H17436   0.423  10.213   8.747  1.5114 -1.8116 -2.0252
  870MOL0     H17437   0.188  10.154   8.685 -1.7019  0.4924  2.0653
  870MOL0     H17438  -0.069   9.932   8.899  0.1070 -2.4770  1.1348
  870MOL0     H17439   0.056   9.817   8.921 -0.7645 -1.2674  1.2202
  870MOL0     H17440  -0.013   9.691   8.738  0.6472 -0.1281  1.0856
  870MOL0     H17441  -0.136   9.815   8.687  0.1575 -3.2352 -1.5142
  870MOL0     H17442  -0.274   9.649   8.795 -1.9927 -0.6208  1.0486
  870MOL0     H17443  -0.270   9.789   8.893  0.4357 -0.3198  2.0471
  870MOL0     H17444  -0.098   9.547   8.921  1.0224  0.4786  0.2531
  870MOL0     H17445  -0.097   9.694   9.038 -0.9807  1.0019  0.5029
  870MOL0     H17446  -0.447   9.484   9.144 -1.9889  0.1107 -0.7657
  870MOL0     H17447   0.244   9.782   8.860  0.5090 -0.1986  0.1084
  870MOL0     H17448   0.531   9.723   8.924 -2.7346 -0.8406 -1.3375
  870MOL0     H17449   0.527   9.831   9.067 -1.8687 -0.6801  1.8925
  870MOL0     H17450   0.394   9.735   9.024 -3.3504  2.8786 -1.5596
  871MOL0     O17451   0.472   2.376   3.605  0.0397 -0.3370 -0.2245
  871MOL0     C17452   0.377   2.454   3.591 -0.0426 -0.1342  0.2331
  871MOL0     O17453   0.394   2.599   3.577  0.0102 -0.0666  0.5974
  871MOL0     C17454   0.529   2.635   3.561 -0.0464  0.1120 -0.8534
  871MOL0     C17455   0.597   2.589   3.452 -0.6932 -0.3030  0.1690
  871MOL0     C17456   0.720   2.650   3.429 -1.1033  0.1137  0.0350
  871MOL0     C17457   0.767   2.749   3.521 -0.2404 -0.5504  0.2471
  871MOL0     O17458   0.871   2.823   3.479  0.5456  0.5748 -0.0669
  871MOL0     C17459   0.974   2.840   3.573 -0.4027  0.2189  0.9565
  871MOL0     C17460   1.094   2.895   3.502  0.7304  0.1242  0.5856
  871MOL0     C17461   1.219   2.830   3.575 -0.2023 -0.4409  0.1761
  871MOL0     C17462   1.322   2.788   3.464  0.6623 -0.3945 -0.0899
  871MOL0     C17463   1.462   2.781   3.517 -0.5000  0.6450  0.9412
  871MOL0     C17464   1.551   2.725   3.403 -0.2021 -0.0220 -0.7468
  871MOL0     C17465   1.696   2.712   3.449 -0.0399  0.4396 -0.4705
  871MOL0     C17466   1.798   2.722   3.344 -0.2107  0.4534 -0.1758
  871MOL0     N17467   1.933   2.707   3.399  0.2644  0.6279 -0.0323
  871MOL0     C17468   1.967   2.602   3.480  0.1327  1.0571 -0.2822
  871MOL0     C17469   2.097   2.618   3.500 -0.5222 -0.2314  0.4809
  871MOL0     C17470   2.190   2.513   3.559  0.2390 -0.4985 -0.2168
  871MOL0     C17471   2.241   2.431   3.436 -0.2822 -0.1650 -0.1273
  871MOL0     C17472   2.352   2.322   3.472 -0.6577 -0.2233  0.4455
  871MOL0     C17473   2.486   2.380   3.445 -0.3164 -0.2293 -0.1515
  871MOL0     O17474   2.581   2.287   3.511 -0.1871 -0.7114  0.3715
  871MOL0     C17475   2.703   2.276   3.451  0.3326  0.6504 -0.1636
  871MOL0     C17476   2.774   2.383   3.419  0.0210  0.0883  0.7473
  871MOL0     C17477   2.896   2.365   3.363 -0.0429  0.0551 -0.3155
  871MOL0     C17478   2.951   2.235   3.343 -0.1919 -0.2954 -0.5245
  871MOL0     C17479   3.078   2.213   3.264 -0.0970 -0.1142  0.0612
  871MOL0     O17480   3.111   2.085   3.224 -0.2820 -0.8648  0.0968
  871MOL0     C17481   3.229   2.064   3.160 -1.3287 -0.0574  0.0454
  871MOL0     C17482   3.345   2.079   3.237 -0.3052  0.0269  0.0841
  871MOL0     C17483   3.470   2.061   3.174 -0.1455  0.1446  0.5844
  871MOL0     C17484   3.476   2.022   3.032 -0.4847  0.2510 -0.2388
  871MOL0     O17485   3.604   1.984   2.987 -0.0855  0.6022 -0.4440
  871MOL0     C17486   3.606   1.919   2.859 -0.6774  0.0710  0.4333
  871MOL0     C17487   3.746   1.871   2.829  0.3122  0.2440 -0.1617
  871MOL0     C17488   3.854   1.978   2.800  0.4468 -0.4565  0.5349
  871MOL0     C17489   3.983   1.903   2.779  0.3719 -0.3420  0.2034
  871MOL0     C17490   4.116   1.984   2.798 -0.7889 -1.1754  0.3820
  871MOL0     C17491   4.237   1.897   2.796  0.1501 -0.1513 -0.2423
  871MOL0     C17492   4.246   1.798   2.922 -0.3092  0.7980 -0.7127
  871MOL0     C17493   4.392   1.739   2.921  0.0467 -0.2416 -0.5973
  871MOL0    Cl17494   4.402   1.625   2.779  0.4021  0.1739  0.0280
  871MOL0     C17495   3.356   1.999   2.967 -0.0151  0.1013 -0.2681
  871MOL0     C17496   3.234   2.026   3.023  0.2332  0.2011 -1.0447
  871MOL0     O17497   3.153   2.314   3.250 -0.2713 -0.2615 -0.4636
  871MOL0     C17498   2.879   2.121   3.397 -0.5268  0.2324  0.5795
  871MOL0     C17499   2.750   2.141   3.445 -0.2586  0.1162 -0.0599
  871MOL0     N17500   2.135   2.736   3.431  0.4114 -0.3036 -0.0354
  871MOL0     N17501   2.035   2.793   3.377 -0.7111  0.0164 -0.0507
  871MOL0     C17502   0.696   2.787   3.629  0.3130  0.1993 -0.3125
  871MOL0     C17503   0.583   2.721   3.659  0.8614  0.4985  0.1062
  871MOL0     C17504   0.246   2.390   3.584 -1.0983  0.1675 -0.4104
  871MOL0     C17505   0.211   2.291   3.683  0.6686 -0.6621  0.1131
  871MOL0     C17506   0.088   2.229   3.669  0.1903 -0.3163 -0.3821
  871MOL0     C17507  -0.005   2.252   3.562 -0.9506 -0.0232  1.0000
  871MOL0     O17508  -0.126   2.189   3.536  0.2694  0.3952  0.0923
  871MOL0     C17509  -0.165   2.072   3.604  0.4375  0.0003  0.0385
  871MOL0     C17510  -0.295   2.081   3.687  0.5153  0.3063  0.6612
  871MOL0     C17511  -0.271   2.146   3.822 -0.1418 -0.8804 -0.0315
  871MOL0     C17512  -0.398   2.157   3.908  0.9829  0.4195  0.0406
  871MOL0     C17513  -0.504   2.223   3.845  0.4388  0.3524  0.0053
  871MOL0     C17514  -0.596   2.289   3.810  1.4119 -0.1138 -0.8265
  871MOL0     C17515   0.044   2.339   3.465 -0.1580  0.2959 -0.3397
  871MOL0     C17516   0.161   2.418   3.473  0.3257 -0.1299 -0.0833
  871MOL0     C17517   0.201   2.519   3.368  0.0536  0.4161  0.4619
  871MOL0     H17518   0.543   2.518   3.390 -0.7949 -1.2748  1.3465
  871MOL0     H17519   0.776   2.634   3.337 -1.4406  0.0861 -0.1665
  871MOL0     H17520   0.950   2.902   3.659 -1.9343  0.0960  0.6368
  871MOL0     H17521   0.991   2.741   3.616 -0.3121  0.6859  2.0207
  871MOL0     H17522   1.076   3.002   3.490 -0.5041 -0.2873 -1.7738
  871MOL0     H17523   1.089   2.858   3.399  1.9909  0.2425  0.4590
  871MOL0     H17524   1.196   2.749   3.645 -1.1102 -1.4177 -1.2022
  871MOL0     H17525   1.262   2.911   3.635  1.2402 -1.1923  0.1841
  871MOL0     H17526   1.295   2.704   3.400  0.9362  0.2799 -1.1161
  871MOL0     H17527   1.326   2.865   3.387  0.0414 -1.6307 -1.4184
  871MOL0     H17528   1.501   2.879   3.548  2.7880 -1.1105  2.8567
  871MOL0     H17529   1.469   2.718   3.606 -4.7933 -0.4003  0.7977
  871MOL0     H17530   1.512   2.627   3.371 -1.7331 -0.7518  2.8957
  871MOL0     H17531   1.531   2.780   3.310 -1.1101  0.2883 -0.3797
  871MOL0     H17532   1.704   2.615   3.498 -2.1397  1.4832  2.1590
  871MOL0     H17533   1.713   2.787   3.527 -0.2611  2.3456 -2.1732
  871MOL0     H17534   1.777   2.633   3.285 -0.4043 -0.4208  1.1622
  871MOL0     H17535   1.787   2.821   3.298 -2.3968  0.6062  0.5776
  871MOL0     H17536   1.913   2.512   3.508  2.6667 -0.2240  0.8278
  871MOL0     H17537   2.269   2.568   3.611 -0.6111  0.8109 -0.2725
  871MOL0     H17538   2.133   2.455   3.632 -2.0903  0.5477 -1.1198
  871MOL0     H17539   2.155   2.384   3.388 -1.1500  0.2726  0.9633
  871MOL0     H17540   2.271   2.503   3.359 -0.1814  1.2245  1.1663
  871MOL0     H17541   2.342   2.234   3.407 -0.2253  1.3848 -1.9249
  871MOL0     H17542   2.353   2.286   3.576  2.8220  2.1961  1.4374
  871MOL0     H17543   2.505   2.476   3.495  1.5581 -0.7402  0.2275
  871MOL0     H17544   2.508   2.394   3.339  0.7922  0.7361  0.1816
  871MOL0     H17545   2.733   2.482   3.434 -2.7939 -0.5480 -1.9108
  871MOL0     H17546   2.953   2.450   3.327  0.0306 -0.7467 -2.2307
  871MOL0     H17547   3.343   2.118   3.339  0.2908 -0.7842  0.4151
  871MOL0     H17548   3.559   2.073   3.236  0.1271  0.9332  0.0543
  871MOL0     H17549   3.537   1.834   2.857 -2.6861  1.6260  0.2506
  871MOL0     H17550   3.571   1.982   2.778 -1.4877 -0.6878  0.1671
  871MOL0     H17551   3.772   1.803   2.910 -0.9883 -2.8731 -2.1439
  871MOL0     H17552   3.742   1.805   2.742  2.2823 -0.6322  0.3561
  871MOL0     H17553   3.826   2.028   2.707  1.7819 -1.1990 -0.3005
  871MOL0     H17554   3.848   2.055   2.877  0.9238  0.7379 -0.5946
  871MOL0     H17555   3.990   1.877   2.673  2.5316 -0.6652  0.3826
  871MOL0     H17556   3.984   1.807   2.832  1.0106 -0.0445  0.7409
  871MOL0     H17557   4.110   2.054   2.882  1.0516  0.2915 -0.6359
  871MOL0     H17558   4.128   2.045   2.708 -2.5652 -1.6323 -0.2006
  871MOL0     H17559   4.242   1.843   2.701  0.0320  0.6754 -0.7309
  871MOL0     H17560   4.324   1.964   2.798 -0.1483  0.2429  1.9964
  871MOL0     H17561   4.161   1.733   2.941  1.5555 -0.7443  3.4396
  871MOL0     H17562   4.237   1.863   3.009 -1.0579  0.0872 -0.2463
  871MOL0     H17563   4.470   1.814   2.908  0.6047 -0.7837 -0.4487
  871MOL0     H17564   4.419   1.683   3.011 -1.1316  0.2629  0.1004
  871MOL0     H17565   3.356   1.970   2.862 -1.8458 -0.0484 -0.2564
  871MOL0     H17566   3.137   2.013   2.975 -0.7883 -2.0006  1.3586
  871MOL0     H17567   2.910   2.017   3.394 -2.7485 -0.4689 -1.4508
  871MOL0     H17568   2.694   2.062   3.494  1.8828 -0.1504  2.1357
  871MOL0     H17569   0.739   2.868   3.687  0.9814 -0.9516  0.8761
  871MOL0     H17570   0.540   2.738   3.757 -0.4373 -0.4302 -0.2744
  871MOL0     H17571   0.280   2.266   3.763  1.4328 -0.2851 -0.4146
  871MOL0     H17572   0.063   2.171   3.757 -2.2453 -1.0007 -1.4426
  871MOL0     H17573  -0.088   2.024   3.665 -1.2813  0.7881  3.0073
  871MOL0     H17574  -0.184   1.994   3.529 -0.5243  1.5814 -1.4413
  871MOL0     H17575  -0.331   1.979   3.707 -0.7609  0.9120  1.6058
  871MOL0     H17576  -0.377   2.128   3.633  1.3045  0.4808 -0.4153
  871MOL0     H17577  -0.221   2.243   3.820  0.4149 -1.1454  0.7222
  871MOL0     H17578  -0.216   2.077   3.886  0.4483  0.3848  0.8695
  871MOL0     H17579  -0.438   2.059   3.934 -2.5813  1.9365  0.8288
  871MOL0     H17580  -0.361   2.203   4.000  0.5157 -4.4406  3.0225
  871MOL0     H17581  -0.651   2.374   3.776 -1.5467 -1.3199  0.6319
  871MOL0     H17582  -0.028   2.370   3.390 -0.0797  0.0491 -0.5173
  871MOL0     H17583   0.284   2.476   3.311 -0.3519 -1.3680  1.1237
  871MOL0     H17584   0.115   2.525   3.301  0.3926  0.5399  0.0324
  871MOL0     H17585   0.229   2.617   3.407  0.3810 -0.2541  2.0355
  872MOL0     O17586   0.733   1.326   8.203  0.5168  0.4026 -0.6266
  872MOL0     C17587   0.713   1.442   8.208 -0.3099 -0.8792  0.1687
  872MOL0     O17588   0.794   1.531   8.149  0.8565 -0.9660 -0.3887
  872MOL0     C17589   0.920   1.495   8.110  0.4693 -0.5423 -0.3469
  872MOL0     C17590   1.028   1.530   8.197  0.2151  0.1027  0.2196
  872MOL0     C17591   1.162   1.496   8.159 -0.5084 -1.0442 -0.7790
  872MOL0     C17592   1.186   1.446   8.030  0.7640 -0.3799  0.3134
  872MOL0     O17593   1.309   1.417   7.976  0.4104 -0.5078  0.4005
  872MOL0     C17594   1.415   1.421   8.075 -0.3328 -0.2368  1.1123
  872MOL0     C17595   1.538   1.373   8.004 -0.2383  0.5896 -0.7713
  872MOL0     C17596   1.666   1.393   8.093 -0.3138 -0.6854 -0.3000
  872MOL0     C17597   1.804   1.406   8.012  0.9224  0.5245  0.3364
  872MOL0     C17598   1.893   1.482   8.102  0.2823 -0.2428  0.4029
  872MOL0     C17599   2.036   1.449   8.055 -0.1757  1.1452  0.3214
  872MOL0     C17600   2.130   1.554   8.111  0.7104 -0.5007 -0.1508
  872MOL0     C17601   2.175   1.512   8.253 -0.0026  0.1106  0.3778
  872MOL0     N17602   2.287   1.419   8.244  0.1360 -0.4948  0.6937
  872MOL0     C17603   2.419   1.458   8.253  0.3680  1.2927  0.7300
  872MOL0     C17604   2.489   1.341   8.262 -0.0020 -0.4177  0.2732
  872MOL0     C17605   2.640   1.336   8.264 -0.3140  0.4201  0.1053
  872MOL0     C17606   2.688   1.210   8.209 -0.4341  1.4450 -0.4892
  872MOL0     C17607   2.844   1.206   8.207  1.1845  0.5944 -0.2411
  872MOL0     C17608   2.902   1.072   8.198  0.8691  0.5454 -0.1863
  872MOL0     O17609   2.857   0.999   8.084  0.6304 -0.1270 -0.2164
  872MOL0     C17610   2.942   0.913   8.025 -0.0238 -0.5219 -0.1832
  872MOL0     C17611   3.057   0.864   8.083  0.2643 -0.0667 -0.8071
  872MOL0     C17612   3.153   0.792   8.012  0.1370 -0.0487 -0.3507
  872MOL0     C17613   3.140   0.753   7.882 -0.2998 -0.3202  0.1800
  872MOL0     C17614   3.244   0.658   7.830  0.1200 -0.9796  0.2856
  872MOL0     O17615   3.336   0.608   7.924 -0.4079  0.6495  0.1431
  872MOL0     C17616   3.456   0.564   7.870 -0.1546 -0.0317  0.6408
  872MOL0     C17617   3.500   0.434   7.892 -0.1640 -0.6849  0.8176
  872MOL0     C17618   3.615   0.380   7.837  0.4905 -0.1208  0.0518
  872MOL0     C17619   3.693   0.460   7.749 -1.2936 -0.0079 -0.0401
  872MOL0     O17620   3.813   0.415   7.689  0.5575  0.2247 -0.0099
  872MOL0     C17621   3.878   0.300   7.759  0.3663 -0.6415  0.4245
  872MOL0     C17622   4.003   0.274   7.673 -0.0936  0.2407  0.2663
  872MOL0     C17623   4.092   0.160   7.741 -0.3349 -0.3882  0.5015
  872MOL0     C17624   4.219   0.160   7.662  0.2923 -0.0511  0.4622
  872MOL0     C17625   4.316   0.055   7.724  0.3746 -0.5158 -0.0835
  872MOL0     C17626   4.428   0.045   7.631 -0.0725  0.8729 -0.3241
  872MOL0     C17627   4.535  -0.050   7.680 -0.1855 -0.9553  0.2210
  872MOL0     C17628   4.633  -0.061   7.566 -0.3078  0.0213  0.1385
  872MOL0    Cl17629   4.801  -0.113   7.613  0.0650  0.4064 -0.1088
  872MOL0     C17630   3.653   0.590   7.723  0.6802  0.5149 -0.2806
  872MOL0     C17631   3.539   0.646   7.789 -0.8114 -0.1635  0.3118
  872MOL0     O17632   3.253   0.647   7.705 -0.0521 -0.3037 -0.2462
  872MOL0     C17633   3.024   0.805   7.815  0.9690 -0.4377  0.6237
  872MOL0     C17634   2.927   0.882   7.885  0.3880  0.0077 -0.2892
  872MOL0     N17635   2.400   1.239   8.263 -0.5277 -0.1387 -0.0759
  872MOL0     N17636   2.280   1.289   8.257  0.6172  0.3738  0.0170
  872MOL0     C17637   1.083   1.431   7.939  0.1096  0.3562 -0.6760
  872MOL0     C17638   0.951   1.457   7.979 -0.1036 -0.4785  0.1296
  872MOL0     C17639   0.594   1.492   8.282  1.0118  0.5242 -0.3937
  872MOL0     C17640   0.575   1.629   8.295 -0.0201 -0.7636  1.0225
  872MOL0     C17641   0.474   1.689   8.366  0.4666 -0.3308 -0.0407
  872MOL0     C17642   0.378   1.604   8.429 -0.2149 -1.3018  0.2827
  872MOL0     O17643   0.279   1.654   8.504 -0.7244 -0.3828  0.0816
  872MOL0     C17644   0.296   1.786   8.564  0.5417 -0.3618 -0.1820
  872MOL0     C17645   0.185   1.803   8.665  0.6302 -0.5217  0.3144
  872MOL0     C17646   0.183   1.681   8.758  0.5870  0.6318 -0.2055
  872MOL0     C17647   0.105   1.717   8.888 -0.6073  1.0883  0.6549
  872MOL0     C17648   0.115   1.852   8.945 -0.3852  0.4344 -1.0196
  872MOL0     C17649   0.133   1.963   9.000  1.0816  0.7506  0.2030
  872MOL0     C17650   0.394   1.464   8.412  0.6474 -0.6011  0.0514
  872MOL0     C17651   0.496   1.409   8.343  0.5663 -0.2914  0.8220
  872MOL0     C17652   0.494   1.264   8.348 -0.6394 -0.2109  0.1330
  872MOL0     H17653   0.995   1.562   8.295 -2.6601  0.7965 -0.8693
  872MOL0     H17654   1.242   1.502   8.232 -3.0420 -0.6267  2.1952
  872MOL0     H17655   1.437   1.523   8.107  1.3007 -1.2876  3.6303
  872MOL0     H17656   1.396   1.357   8.161 -1.8950  0.3681  1.2454
  872MOL0     H17657   1.543   1.426   7.909  1.3806  0.7695 -0.6222
  872MOL0     H17658   1.524   1.268   7.977 -0.6727 -0.1561  2.0355
  872MOL0     H17659   1.677   1.314   8.168 -0.6681 -0.1004  0.3788
  872MOL0     H17660   1.665   1.489   8.147  3.4580 -0.0488 -1.0742
  872MOL0     H17661   1.840   1.307   7.983 -0.7849  0.1941 -0.8307
  872MOL0     H17662   1.784   1.455   7.916  0.1161 -2.0178 -0.8755
  872MOL0     H17663   1.875   1.589   8.095 -0.7148 -0.3966  0.4624
  872MOL0     H17664   1.887   1.448   8.206  3.0853 -0.6496  0.5114
  872MOL0     H17665   2.058   1.346   8.086 -0.9204  0.7331 -0.4660
  872MOL0     H17666   2.045   1.445   7.946 -0.1396 -1.3909  0.3637
  872MOL0     H17667   2.097   1.658   8.119 -1.0578 -1.1179  1.0891
  872MOL0     H17668   2.220   1.558   8.049  0.1439 -0.7576 -0.9993
  872MOL0     H17669   2.201   1.602   8.310 -0.3849  1.1635 -1.0508
  872MOL0     H17670   2.092   1.465   8.308 -0.7478 -0.4327 -1.1654
  872MOL0     H17671   2.456   1.559   8.238  2.2595  0.3925 -1.1036
  872MOL0     H17672   2.681   1.418   8.203 -2.9380  1.3254 -0.5990
  872MOL0     H17673   2.674   1.359   8.365  2.3310  0.7354 -0.7754
  872MOL0     H17674   2.656   1.132   8.279  0.3576  0.1576 -1.5183
  872MOL0     H17675   2.648   1.189   8.110 -3.2583  0.7902  0.6896
  872MOL0     H17676   2.887   1.248   8.298 -1.3044 -0.6108  1.6259
  872MOL0     H17677   2.888   1.266   8.127  1.8722  0.4775  0.0442
  872MOL0     H17678   2.887   1.014   8.290  1.4537 -0.0351 -0.4585
  872MOL0     H17679   3.010   1.086   8.185  0.9422  0.7186  0.5461
  872MOL0     H17680   3.085   0.867   8.188 -0.5152 -2.5212 -0.4679
  872MOL0     H17681   3.235   0.769   8.079 -0.3303  2.1817  1.0867
  872MOL0     H17682   3.440   0.373   7.959  1.1329 -0.2790  2.4024
  872MOL0     H17683   3.643   0.277   7.860  0.7724  0.3131  1.7845
  872MOL0     H17684   3.897   0.309   7.866 -2.5837  0.1293  0.9846
  872MOL0     H17685   3.811   0.216   7.737 -2.6199  1.9854 -1.4777
  872MOL0     H17686   3.956   0.255   7.576 -0.9027 -1.0363  0.8645
  872MOL0     H17687   4.068   0.361   7.661  0.4987 -0.2761 -0.3381
  872MOL0     H17688   4.124   0.188   7.842 -0.2609  0.9922  0.1099
  872MOL0     H17689   4.035   0.066   7.738 -0.3048 -0.3852 -0.3984
  872MOL0     H17690   4.261   0.260   7.666 -1.2771  0.6220  0.9249
  872MOL0     H17691   4.198   0.131   7.558  1.4028  3.0837 -0.7371
  872MOL0     H17692   4.266  -0.042   7.731 -0.0140 -0.2745  0.7301
  872MOL0     H17693   4.351   0.088   7.822  1.0806 -2.4895  0.3700
  872MOL0     H17694   4.400   0.010   7.531 -0.5931 -0.9441  0.4325
  872MOL0     H17695   4.465   0.147   7.611  1.9853  0.2800  0.1722
  872MOL0     H17696   4.498  -0.150   7.705  0.7350 -1.8656 -1.8397
  872MOL0     H17697   4.589  -0.005   7.764 -0.0554 -1.5832  0.4757
  872MOL0     H17698   4.586  -0.121   7.488  3.5727 -2.1400 -0.7687
  872MOL0     H17699   4.644   0.040   7.527 -1.3012 -0.8903 -2.7080
  872MOL0     H17700   3.705   0.643   7.644  0.2293 -1.0668 -1.7049
  872MOL0     H17701   3.516   0.748   7.760 -3.4989 -0.9859 -0.6870
  872MOL0     H17702   3.014   0.785   7.709 -2.2830 -1.6459  1.0253
  872MOL0     H17703   2.837   0.921   7.839 -2.0754  2.0701  5.2785
  872MOL0     H17704   1.099   1.404   7.835  1.7616 -1.2474 -0.0652
  872MOL0     H17705   0.865   1.461   7.912 -1.4130  2.5048  1.7768
  872MOL0     H17706   0.647   1.696   8.249 -0.7956 -0.7378 -0.2303
  872MOL0     H17707   0.463   1.796   8.377  0.9382 -0.2672 -0.1749
  872MOL0     H17708   0.290   1.870   8.494 -0.3117  0.0832  0.4045
  872MOL0     H17709   0.392   1.795   8.616 -0.4274  0.7105  1.4940
  872MOL0     H17710   0.084   1.816   8.624  0.9935  3.1710  0.2452
  872MOL0     H17711   0.208   1.890   8.728 -2.1981 -1.9934  3.6751
  872MOL0     H17712   0.287   1.656   8.784 -0.2291 -3.5173 -0.2583
  872MOL0     H17713   0.134   1.592   8.719 -0.7607  1.1647  0.2210
  872MOL0     H17714  -0.000   1.706   8.860 -0.7186  3.4063 -0.0361
  872MOL0     H17715   0.138   1.644   8.963  0.4909  0.8005 -0.0904
  872MOL0     H17716   0.138   2.059   9.048 -2.0209  2.6583 -2.7994
  872MOL0     H17717   0.317   1.408   8.463  0.6605 -0.6219  0.0481
  872MOL0     H17718   0.509   1.230   8.244 -0.8923 -0.9896  0.3440
  872MOL0     H17719   0.577   1.223   8.406  0.1867  1.5988  0.2902
  872MOL0     H17720   0.407   1.219   8.395 -0.7623  0.2788  0.3734
  873MOL0     O17721   5.890   5.554   1.482  0.3930  0.6043  0.2178
  873MOL0     C17722   5.958   5.658   1.464 -0.7969  0.1646  0.0019
  873MOL0     O17723   5.910   5.786   1.445 -0.2389  0.4971 -0.0451
  873MOL0     C17724   5.780   5.811   1.470  0.9052 -0.0474  0.0539
  873MOL0     C17725   5.677   5.734   1.407  0.7833 -0.3316  0.6614
  873MOL0     C17726   5.541   5.759   1.443 -0.8782 -0.6299  1.2804
  873MOL0     C17727   5.516   5.868   1.532  0.2055  0.3607 -0.4410
  873MOL0     O17728   5.390   5.912   1.574  0.1116 -0.5573 -0.5514
  873MOL0     C17729   5.271   5.894   1.493 -0.2043  0.4025 -0.2534
  873MOL0     C17730   5.261   5.989   1.376  0.3770  1.3550 -0.8804
  873MOL0     C17731   5.128   5.987   1.302  0.1006  0.1817 -0.1377
  873MOL0     C17732   5.146   6.101   1.192  0.7530 -0.5545  0.0306
  873MOL0     C17733   5.028   6.104   1.102  0.8608  0.3834  0.3011
  873MOL0     C17734   5.016   6.229   1.009  0.3098  0.0300 -1.0041
  873MOL0     C17735   4.880   6.218   0.943  0.0789  0.3594 -0.3124
  873MOL0     C17736   4.837   6.335   0.853  0.3470 -0.0315 -0.6083
  873MOL0     N17737   4.947   6.416   0.794  0.0363 -0.1511  0.3086
  873MOL0     C17738   5.038   6.366   0.700  0.0803  0.3623 -0.1599
  873MOL0     C17739   5.123   6.472   0.686 -0.1327 -0.2796 -0.0451
  873MOL0     C17740   5.237   6.489   0.587  0.5424  0.1835  0.4947
  873MOL0     C17741   5.203   6.582   0.476  0.5394 -0.5287  0.4359
  873MOL0     C17742   5.231   6.724   0.523  0.2182  0.2605  0.8894
  873MOL0     C17743   5.369   6.783   0.484 -0.0430  0.6269 -0.0121
  873MOL0     O17744   5.466   6.684   0.523 -0.4008 -0.0033 -0.2133
  873MOL0     C17745   5.591   6.702   0.488 -0.9761  0.6858  0.3994
  873MOL0     C17746   5.636   6.798   0.393 -0.1869  0.4950  0.5787
  873MOL0     C17747   5.773   6.801   0.368  0.0641  1.0454  0.4303
  873MOL0     C17748   5.863   6.703   0.414 -0.0560  0.1812  0.7206
  873MOL0     C17749   6.004   6.693   0.372 -0.1689  0.6033 -0.0745
  873MOL0     O17750   6.051   6.803   0.314 -0.5578 -0.0253 -0.2084
  873MOL0     C17751   6.189   6.810   0.290  0.1301 -0.1173 -0.1088
  873MOL0     C17752   6.260   6.917   0.343 -0.7961 -0.2352 -0.9231
  873MOL0     C17753   6.391   6.945   0.315  0.0669  0.2848 -0.1120
  873MOL0     C17754   6.466   6.862   0.235  0.2984 -0.3927  0.0775
  873MOL0     O17755   6.597   6.901   0.212 -0.3496  0.3874  0.2920
  873MOL0     C17756   6.694   6.803   0.166  0.8618  0.1868  0.5130
  873MOL0     C17757   6.829   6.870   0.153 -0.5639 -0.1842  0.4527
  873MOL0     C17758   6.947   6.769   0.140  0.3657 -0.1660 -0.0593
  873MOL0     C17759   7.073   6.847   0.145 -0.2874 -0.1898 -0.1811
  873MOL0     C17760   7.197   6.767   0.197  0.1837  0.0817  0.2109
  873MOL0     C17761   7.321   6.864   0.197 -0.4878  0.7074  0.2920
  873MOL0     C17762   7.451   6.795   0.241  1.1231 -0.7160 -0.5143
  873MOL0     C17763   7.489   6.696   0.142 -0.3856  0.6404 -0.8315
  873MOL0    Cl17764   7.655   6.633   0.181  0.5323 -0.4391 -0.0742
  873MOL0     C17765   6.402   6.747   0.181  0.3219  0.5373 -0.2605
  873MOL0     C17766   6.256   6.723   0.203 -0.5747  0.1176  1.2636
  873MOL0     O17767   6.060   6.586   0.401 -0.3666 -0.1835 -0.9183
  873MOL0     C17768   5.811   6.602   0.504  0.2184  0.2671  0.3393
  873MOL0     C17769   5.675   6.605   0.532  0.4022 -0.1946  0.1849
  873MOL0     N17770   5.086   6.571   0.780  0.6954  0.4174  0.5077
  873MOL0     N17771   4.983   6.536   0.833  0.4866 -0.2207 -0.3931
  873MOL0     C17772   5.619   5.930   1.599  0.7493  0.1608  0.2487
  873MOL0     C17773   5.750   5.901   1.568  0.0266  0.4179  0.0540
  873MOL0     C17774   6.105   5.653   1.473  0.4132 -0.1438  0.6486
  873MOL0     C17775   6.171   5.572   1.380 -1.5447  0.1896  0.6538
  873MOL0     C17776   6.311   5.552   1.398  0.1773 -0.1772 -0.6055
  873MOL0     C17777   6.378   5.632   1.484 -0.2467  0.0316  0.2495
  873MOL0     O17778   6.511   5.610   1.488 -0.1299 -0.0033 -0.7766
  873MOL0     C17779   6.597   5.680   1.581  0.4899  0.2990  0.3370
  873MOL0     C17780   6.740   5.623   1.572 -1.1055 -0.3377  0.1469
  873MOL0     C17781   6.747   5.466   1.573 -0.3547  0.0828  0.0071
  873MOL0     C17782   6.722   5.393   1.702  0.3122 -0.7685 -0.3900
  873MOL0     C17783   6.810   5.438   1.806  0.8206  0.3157 -0.8888
  873MOL0     C17784   6.882   5.493   1.890  0.0842  0.4814 -0.3788
  873MOL0     C17785   6.306   5.718   1.569  0.2176 -0.5797  0.5210
  873MOL0     C17786   6.172   5.716   1.573  0.9309 -0.4655  0.0481
  873MOL0     C17787   6.110   5.817   1.673  0.2030  0.5060 -0.1295
  873MOL0     H17788   5.698   5.662   1.328  1.7038 -0.0158  0.6081
  873MOL0     H17789   5.471   5.699   1.386 -0.0093 -0.3680 -0.0982
  873MOL0     H17790   5.256   5.791   1.459  0.2450  0.0230  0.6498
  873MOL0     H17791   5.189   5.928   1.557  1.1187  1.3367  1.0128
  873MOL0     H17792   5.346   5.981   1.307  0.5136 -0.1340 -0.5714
  873MOL0     H17793   5.267   6.085   1.428  0.4964 -0.0587  1.8995
  873MOL0     H17794   5.039   6.011   1.361  0.3916  0.8188  0.0516
  873MOL0     H17795   5.113   5.888   1.259  2.0752  0.1479 -0.8470
  873MOL0     H17796   5.166   6.198   1.239  3.3031 -0.5008 -1.0049
  873MOL0     H17797   5.233   6.081   1.128  1.3467 -1.5290  1.0934
  873MOL0     H17798   5.020   6.012   1.043 -1.0739 -0.1276  1.3009
  873MOL0     H17799   4.945   6.098   1.173 -0.0907  2.2276 -0.6045
  873MOL0     H17800   5.036   6.321   1.063 -1.4453  1.3320 -2.4632
  873MOL0     H17801   5.090   6.211   0.930  2.5883 -0.0609  1.0456
  873MOL0     H17802   4.803   6.187   1.014 -0.4413  0.2295 -0.9153
  873MOL0     H17803   4.889   6.137   0.869 -0.2389  1.3007 -1.4247
  873MOL0     H17804   4.768   6.298   0.776 -2.7514  3.9429 -0.0901
  873MOL0     H17805   4.773   6.399   0.915 -0.8500 -1.1123 -0.6742
  873MOL0     H17806   5.043   6.273   0.644 -1.0727 -0.1337  0.5259
  873MOL0     H17807   5.330   6.517   0.637  2.4705 -1.3296 -2.0257
  873MOL0     H17808   5.251   6.397   0.530 -0.3959  2.3319 -3.5503
  873MOL0     H17809   5.255   6.550   0.385 -1.6576  1.1917 -1.5621
  873MOL0     H17810   5.096   6.578   0.452  0.9074  0.1090 -1.5514
  873MOL0     H17811   5.221   6.740   0.631 -0.6427  1.4275  0.6584
  873MOL0     H17812   5.155   6.789   0.477  0.8299  0.3069 -0.0865
  873MOL0     H17813   5.390   6.884   0.520  0.8248 -0.0910  1.5968
  873MOL0     H17814   5.361   6.779   0.375 -0.9709  0.7608  0.0379
  873MOL0     H17815   5.578   6.877   0.347  1.3478  1.2646 -0.1027
  873MOL0     H17816   5.817   6.875   0.302 -0.3021  0.8541 -0.0266
  873MOL0     H17817   6.215   6.981   0.419  3.9694  0.5582  1.6206
  873MOL0     H17818   6.433   7.038   0.351 -0.1587  0.3641 -0.0524
  873MOL0     H17819   6.706   6.717   0.232  0.4768 -2.5535 -2.7065
  873MOL0     H17820   6.667   6.764   0.067  1.4388  0.9741  0.0347
  873MOL0     H17821   6.819   6.933   0.064 -1.3276  1.8755  1.9098
  873MOL0     H17822   6.849   6.943   0.232 -0.5184  3.0222 -2.2757
  873MOL0     H17823   6.933   6.690   0.214 -0.8420 -0.9676 -1.1129
  873MOL0     H17824   6.941   6.710   0.048  1.4805 -1.7080  0.8083
  873MOL0     H17825   7.065   6.919   0.227 -0.4576 -0.3704 -0.0381
  873MOL0     H17826   7.093   6.900   0.052  0.7002 -1.0152 -0.4540
  873MOL0     H17827   7.215   6.688   0.124 -2.3801  0.4337 -0.8802
  873MOL0     H17828   7.193   6.729   0.300  4.5656  1.6593  1.2059
  873MOL0     H17829   7.323   6.911   0.098  0.4576 -1.1231 -0.6003
  873MOL0     H17830   7.306   6.942   0.272 -0.9924  0.4827  0.4276
  873MOL0     H17831   7.426   6.742   0.334  3.4862 -0.0400  0.5708
  873MOL0     H17832   7.534   6.865   0.254 -0.9685  1.7292  0.4654
  873MOL0     H17833   7.418   6.614   0.130 -3.1951  2.9610 -1.3706
  873MOL0     H17834   7.496   6.742   0.043  2.2208  0.5695 -0.7328
  873MOL0     H17835   6.462   6.675   0.126 -2.4371 -0.8082 -1.6924
  873MOL0     H17836   6.212   6.645   0.141 -2.2698  0.9813  1.3326
  873MOL0     H17837   5.880   6.534   0.554 -0.2068  0.2144  0.8697
  873MOL0     H17838   5.642   6.526   0.599  0.6745  0.2825  0.8965
  873MOL0     H17839   5.596   6.003   1.677 -1.0038 -1.4594  1.3324
  873MOL0     H17840   5.831   5.951   1.620 -1.5001  1.5414  1.4852
  873MOL0     H17841   6.122   5.527   1.295  0.2140  0.3816 -0.5161
  873MOL0     H17842   6.374   5.489   1.335  0.6646  0.5391 -0.8425
  873MOL0     H17843   6.570   5.655   1.684  3.6685 -1.0987  0.9618
  873MOL0     H17844   6.607   5.787   1.561  0.0958  0.5764  1.5764
  873MOL0     H17845   6.807   5.664   1.648 -0.2923  0.1097 -0.7899
  873MOL0     H17846   6.783   5.644   1.474  2.4388 -1.9528  1.2024
  873MOL0     H17847   6.846   5.442   1.532  0.5416 -0.7160  2.5095
  873MOL0     H17848   6.677   5.425   1.499 -0.6019  3.1864 -1.6838
  873MOL0     H17849   6.616   5.411   1.720 -0.2041 -0.2990 -3.4132
  873MOL0     H17850   6.747   5.287   1.687  1.3811 -0.0394 -6.2284
  873MOL0     H17851   6.953   5.535   1.959  0.7772 -1.2797  0.0516
  873MOL0     H17852   6.352   5.789   1.637 -0.0149 -0.4304  0.5265
  873MOL0     H17853   6.003   5.803   1.692 -0.0643  0.3639 -1.6132
  873MOL0     H17854   6.163   5.825   1.768  1.3204  2.2431 -0.8404
  873MOL0     H17855   6.111   5.920   1.634  2.3871  0.8602  0.7168
  874MOL0     O17856   7.481   8.370   5.874 -0.3641  0.4620 -1.1837
  874MOL0     C17857   7.417   8.347   5.774 -0.3180 -0.2820  0.5984
  874MOL0     O17858   7.456   8.271   5.667  1.0784 -1.0697  0.4284
  874MOL0     C17859   7.588   8.249   5.656  0.0943 -0.3894  0.1067
  874MOL0     C17860   7.665   8.336   5.587 -0.7314 -0.3616 -0.7494
  874MOL0     C17861   7.807   8.307   5.565  0.6045  0.2493  0.0949
  874MOL0     C17862   7.857   8.179   5.591 -0.9891  0.6124 -0.0888
  874MOL0     O17863   7.990   8.155   5.549 -0.3442  0.4085  0.3132
  874MOL0     C17864   8.034   8.017   5.579 -0.3289  0.1501  0.1916
  874MOL0     C17865   8.183   8.006   5.565  0.1227 -0.2647 -0.0882
  874MOL0     C17866   8.231   7.855   5.547  0.2328  0.0613 -0.8593
  874MOL0     C17867   8.382   7.854   5.504 -0.3019 -0.5467  0.1928
  874MOL0     C17868   8.433   7.714   5.494 -0.2952 -0.3336 -0.3464
  874MOL0     C17869   8.587   7.703   5.506  0.0372  0.5867  0.1093
  874MOL0     C17870   8.661   7.570   5.479  0.2077 -0.3633 -0.7509
  874MOL0     C17871   8.791   7.547   5.558  0.1003 -0.2117 -0.3718
  874MOL0     N17872   8.906   7.614   5.500  0.1755  0.6458  0.6046
  874MOL0     C17873   8.963   7.601   5.370 -0.3988  0.5572 -0.3563
  874MOL0     C17874   9.064   7.693   5.370  0.4849  0.0636  0.4877
  874MOL0     C17875   9.135   7.732   5.245  0.2309  0.6892 -0.4077
  874MOL0     C17876   9.263   7.640   5.228 -0.5599  1.1615 -0.6475
  874MOL0     C17877   9.355   7.625   5.352  0.6881  0.4515  0.4679
  874MOL0     C17878   9.491   7.565   5.319 -0.3225 -0.2440 -0.2549
  874MOL0     O17879   9.557   7.666   5.252 -0.0518 -0.6741  0.0703
  874MOL0     C17880   9.696   7.650   5.241 -1.0326 -0.1981  0.0545
  874MOL0     C17881   9.760   7.722   5.143  0.3347  0.5909 -0.7431
  874MOL0     C17882   9.897   7.708   5.119  0.1028  0.4658 -0.6939
  874MOL0     C17883   9.979   7.618   5.186 -0.2779 -0.1770  0.4728
  874MOL0     C17884  10.123   7.608   5.177 -0.0144  0.8055 -1.2633
  874MOL0     O17885  10.184   7.683   5.082  0.4557  0.3480 -0.1295
  874MOL0     C17886  10.321   7.700   5.078  0.4921 -0.0277  0.6389
  874MOL0     C17887  10.404   7.592   5.041  0.8777  0.6631 -0.8537
  874MOL0     C17888  10.543   7.605   5.044 -0.9765  0.0706  0.3403
  874MOL0     C17889  10.604   7.722   5.078  1.0205  0.6123 -0.4250
  874MOL0     O17890  10.734   7.743   5.098  0.6115 -0.1327  0.0705
  874MOL0     C17891  10.835   7.686   5.017  0.5128 -0.6898 -0.0341
  874MOL0     C17892  10.878   7.790   4.910 -0.0794  0.9564 -0.4000
  874MOL0     C17893  10.977   7.895   4.951 -0.0990 -0.7389 -1.2790
  874MOL0     C17894  11.123   7.867   4.932 -0.1431  1.0476  0.1604
  874MOL0     C17895  11.212   7.979   4.986 -0.4939  0.3077 -0.4332
  874MOL0     C17896  11.360   7.938   4.981 -0.1845 -0.3478  0.6939
  874MOL0     C17897  11.445   8.054   5.025  0.3215  0.2291  1.1936
  874MOL0     C17898  11.590   8.015   5.037 -0.6062  0.2229 -0.2152
  874MOL0    Cl17899  11.683   8.166   5.051  0.1930  0.2841 -0.5976
  874MOL0     C17900  10.524   7.832   5.099 -0.4718 -0.7979  0.0471
  874MOL0     C17901  10.380   7.825   5.114  0.3311  0.0570 -0.3689
  874MOL0     O17902  10.182   7.552   5.273  0.2168  0.1390 -0.2250
  874MOL0     C17903   9.908   7.546   5.279  0.0665  0.0994 -0.3974
  874MOL0     C17904   9.771   7.557   5.311  0.1693 -0.1896  0.5351
  874MOL0     N17905   9.078   7.742   5.492 -0.2975 -0.7336 -0.0136
  874MOL0     N17906   8.980   7.700   5.572  0.0461  0.3271 -0.1114
  874MOL0     C17907   7.770   8.082   5.647 -0.1411 -0.0719 -0.1476
  874MOL0     C17908   7.642   8.119   5.690 -0.9300 -0.3912  0.4140
  874MOL0     C17909   7.270   8.387   5.778 -0.4755 -0.0864  0.9731
  874MOL0     C17910   7.189   8.319   5.689 -0.7562  0.5064  0.1476
  874MOL0     C17911   7.053   8.352   5.687  1.0865 -0.0034  0.7411
  874MOL0     C17912   6.989   8.438   5.777 -0.1738  0.6035  0.3568
  874MOL0     O17913   6.857   8.467   5.772  0.4308 -0.1919  0.8021
  874MOL0     C17914   6.755   8.365   5.733  0.1064  0.0232  0.6046
  874MOL0     C17915   6.615   8.403   5.764  1.1689 -0.1627  0.0190
  874MOL0     C17916   6.514   8.306   5.702 -0.4836 -0.1578 -0.2249
  874MOL0     C17917   6.365   8.333   5.745  0.0350  0.1232 -0.1034
  874MOL0     C17918   6.295   8.407   5.642  0.4043 -0.3796 -0.3150
  874MOL0     C17919   6.267   8.481   5.551  0.5091  0.8542  0.3860
  874MOL0     C17920   7.074   8.508   5.856 -0.2768 -0.5050  0.0854
  874MOL0     C17921   7.211   8.488   5.862 -0.2591 -0.7085  0.3439
  874MOL0     C17922   7.297   8.574   5.948 -0.2204 -0.2672 -0.1262
  874MOL0     H17923   7.638   8.438   5.565  1.6543  0.9440  1.7821
  874MOL0     H17924   7.870   8.375   5.509 -0.6823  1.3649 -0.0535
  874MOL0     H17925   8.011   8.007   5.685  0.0633 -0.5842  0.2106
  874MOL0     H17926   7.979   7.946   5.517  0.6192  0.4990 -1.0936
  874MOL0     H17927   8.232   8.039   5.657  0.9689  0.5992 -0.8199
  874MOL0     H17928   8.216   8.067   5.480  0.7668 -1.1712 -0.5136
  874MOL0     H17929   8.172   7.814   5.464  0.1644  1.1419 -1.3554
  874MOL0     H17930   8.225   7.812   5.647  0.6896  0.3284 -0.7141
  874MOL0     H17931   8.381   7.909   5.410 -2.4773  2.8453  1.9698
  874MOL0     H17932   8.447   7.902   5.578  0.4536 -1.6411  0.2598
  874MOL0     H17933   8.387   7.650   5.569 -4.5213  0.6637 -1.8142
  874MOL0     H17934   8.410   7.669   5.397 -1.2136 -0.0340 -0.2806
  874MOL0     H17935   8.622   7.782   5.439 -2.2029  1.1632 -0.4531
  874MOL0     H17936   8.615   7.719   5.611 -0.3386 -0.7060  0.4253
  874MOL0     H17937   8.664   7.560   5.370 -1.5206  0.2108 -0.8880
  874MOL0     H17938   8.590   7.497   5.521  0.2003  1.8973  3.8302
  874MOL0     H17939   8.782   7.566   5.665 -1.3387  1.4199 -0.7361
  874MOL0     H17940   8.820   7.441   5.553  1.0680 -0.0624  1.4429
  874MOL0     H17941   8.931   7.542   5.285  0.2678 -0.5462  0.1355
  874MOL0     H17942   9.075   7.727   5.155  0.1284 -2.7177 -0.3047
  874MOL0     H17943   9.164   7.837   5.256 -0.2075  0.5747  3.3499
  874MOL0     H17944   9.225   7.542   5.195  0.4082 -0.1010  1.7475
  874MOL0     H17945   9.325   7.673   5.144  1.5160 -0.5077  0.1546
  874MOL0     H17946   9.316   7.561   5.432  3.4707 -0.4248  1.2306
  874MOL0     H17947   9.378   7.722   5.397 -1.9853  0.8619  1.1128
  874MOL0     H17948   9.491   7.477   5.255 -2.3053 -1.7101  1.6087
  874MOL0     H17949   9.538   7.538   5.414  3.4661 -1.8733 -2.3568
  874MOL0     H17950   9.697   7.795   5.093  1.3783  2.6059  0.7312
  874MOL0     H17951   9.936   7.772   5.041  0.1146 -1.3016 -2.1997
  874MOL0     H17952  10.352   7.497   5.033 -0.2101  1.2748 -1.2278
  874MOL0     H17953  10.611   7.524   5.021 -0.7290  0.5354 -0.6410
  874MOL0     H17954  10.924   7.675   5.079  0.5308  0.1373  0.0959
  874MOL0     H17955  10.799   7.594   4.969 -1.6981  0.9889 -1.8121
  874MOL0     H17956  10.934   7.732   4.835  1.2989 -0.2620  1.4590
  874MOL0     H17957  10.798   7.844   4.860 -1.4129  0.1218  0.7706
  874MOL0     H17958  10.958   7.989   4.898  2.8395  0.5074 -0.3607
  874MOL0     H17959  10.960   7.924   5.055 -0.1412  1.3033 -1.8184
  874MOL0     H17960  11.128   7.850   4.824 -0.9525  3.8682 -0.4038
  874MOL0     H17961  11.149   7.777   4.989  2.6868  0.3436 -2.0115
  874MOL0     H17962  11.175   7.999   5.087 -0.4745 -3.8395  0.5844
  874MOL0     H17963  11.200   8.073   4.932 -2.3974  1.6396  2.1004
  874MOL0     H17964  11.387   7.852   5.044  0.5279 -0.8165 -0.2349
  874MOL0     H17965  11.382   7.899   4.881 -2.1021  1.5003 -0.5303
  874MOL0     H17966  11.414   8.085   5.125  1.0371 -1.8393  2.1184
  874MOL0     H17967  11.433   8.144   4.964 -1.4553  0.8974  2.4536
  874MOL0     H17968  11.616   7.944   5.116  1.4958  1.1261 -0.0496
  874MOL0     H17969  11.625   7.971   4.943  1.9029 -1.3071  1.3222
  874MOL0     H17970  10.559   7.931   5.125  3.8719 -2.2076  0.3713
  874MOL0     H17971  10.319   7.909   5.144  1.7493  0.7544  0.7107
  874MOL0     H17972   9.969   7.478   5.337 -0.5836 -0.6305 -0.5492
  874MOL0     H17973   9.722   7.490   5.380 -0.2163 -0.4457  0.0271
  874MOL0     H17974   7.793   7.978   5.670 -1.5800 -0.4524 -0.3678
  874MOL0     H17975   7.578   8.043   5.732 -1.6319  0.8527  1.6324
  874MOL0     H17976   7.218   8.238   5.622 -0.1616  2.2790 -1.8474
  874MOL0     H17977   6.996   8.316   5.602  0.0968  1.6203  0.6953
  874MOL0     H17978   6.778   8.271   5.784  0.3121  0.0238  0.5144
  874MOL0     H17979   6.762   8.363   5.623 -2.0398  0.2542  0.4127
  874MOL0     H17980   6.589   8.502   5.728  2.6328  0.2372 -0.0291
  874MOL0     H17981   6.600   8.410   5.872 -3.1032  0.2755 -0.4307
  874MOL0     H17982   6.531   8.202   5.730 -0.6222 -0.2789 -0.5830
  874MOL0     H17983   6.532   8.300   5.594  0.2681 -4.6166 -0.0413
  874MOL0     H17984   6.313   8.237   5.752  0.8112 -0.4434 -1.6752
  874MOL0     H17985   6.371   8.376   5.845  1.1982  0.4411 -0.2890
  874MOL0     H17986   6.224   8.548   5.480 -1.9140  0.1569  1.1036
  874MOL0     H17987   7.026   8.590   5.909 -0.5938  0.9826 -2.3296
  874MOL0     H17988   7.306   8.533   6.049 -1.1578  3.0966  1.4564
  874MOL0     H17989   7.397   8.583   5.904 -0.9413 -1.0675 -2.0810
  874MOL0     H17990   7.245   8.670   5.950  1.9285  1.0045 -1.2405
  875MOL0     O17991  10.500   4.664   7.746 -0.2640  0.2745  0.0767
  875MOL0     C17992  10.530   4.548   7.777  0.2570 -0.5777  0.5546
  875MOL0     O17993  10.451   4.438   7.758  0.8649 -0.4401  0.1226
  875MOL0     C17994  10.325   4.462   7.718  0.1049 -0.4115  0.3218
  875MOL0     C17995  10.273   4.393   7.606 -0.4419  0.0912  0.3377
  875MOL0     C17996  10.141   4.417   7.557 -0.0047 -0.2221  0.1826
  875MOL0     C17997  10.061   4.509   7.631 -0.4812  0.7545  0.4168
  875MOL0     O17998   9.932   4.547   7.590 -0.2362 -0.4009 -0.4518
  875MOL0     C17999   9.922   4.562   7.452  0.8185  0.0249  0.2670
  875MOL0     C18000   9.800   4.648   7.404 -0.1387 -0.2960 -0.1904
  875MOL0     C18001   9.672   4.581   7.452 -0.3602  0.1834  0.1205
  875MOL0     C18002   9.547   4.628   7.363 -0.5724  0.4277  0.0137
  875MOL0     C18003   9.411   4.595   7.420  0.1536 -0.3274 -0.2676
  875MOL0     C18004   9.316   4.598   7.308  0.0908  0.5979 -0.2919
  875MOL0     C18005   9.180   4.561   7.354 -0.5693  0.1906  0.0730
  875MOL0     C18006   9.154   4.410   7.360  0.3384 -0.1435  0.1119
  875MOL0     N18007   9.173   4.343   7.231  0.1560  0.2457  0.4833
  875MOL0     C18008   9.111   4.374   7.111  0.0971 -0.8468  0.0449
  875MOL0     C18009   9.163   4.287   7.024 -0.4213  0.3690  0.3244
  875MOL0     C18010   9.131   4.289   6.873 -0.2324  0.0267 -0.5659
  875MOL0     C18011   9.268   4.320   6.786 -0.0940  0.2261  0.1949
  875MOL0     C18012   9.351   4.438   6.842  0.5806  0.6226 -0.5624
  875MOL0     C18013   9.443   4.511   6.732  0.2480  0.3579 -0.5583
  875MOL0     O18014   9.555   4.421   6.701 -0.0045 -1.1653  0.5502
  875MOL0     C18015   9.658   4.405   6.790  0.1734 -0.9222  0.8006
  875MOL0     C18016   9.677   4.487   6.903 -0.7659 -0.4819  0.4287
  875MOL0     C18017   9.785   4.470   6.984 -0.7033 -0.4566 -0.5249
  875MOL0     C18018   9.882   4.366   6.958  0.2541 -1.1162 -0.7934
  875MOL0     C18019   9.998   4.347   7.046 -0.4861 -0.1709 -0.2973
  875MOL0     O18020  10.099   4.256   7.024  0.4105  0.1577  0.0222
  875MOL0     C18021  10.178   4.230   7.129  0.0442  0.9977  0.1644
  875MOL0     C18022  10.149   4.130   7.221 -0.2230 -0.2981 -1.1664
  875MOL0     C18023  10.250   4.108   7.326 -0.0703  0.1684 -0.1730
  875MOL0     C18024  10.373   4.177   7.322  0.3065  0.6431  1.1290
  875MOL0     O18025  10.458   4.138   7.427 -0.4462  0.1393 -0.0260
  875MOL0     C18026  10.590   4.187   7.442  0.1194  0.2952  0.1451
  875MOL0     C18027  10.645   4.145   7.581 -0.5483  0.3760 -0.4710
  875MOL0     C18028  10.785   4.201   7.626 -0.1732 -0.6877 -0.0675
  875MOL0     C18029  10.888   4.095   7.604 -0.2392  0.0157  0.4841
  875MOL0     C18030  11.034   4.125   7.598  1.3136  0.0093  0.5481
  875MOL0     C18031  11.109   3.994   7.574 -0.0289 -0.3479  0.6981
  875MOL0     C18032  11.258   4.031   7.534 -0.3692 -0.2415 -0.7195
  875MOL0     C18033  11.340   3.901   7.503 -0.1603 -0.1065 -0.6830
  875MOL0    Cl18034  11.357   3.819   7.660  0.2156 -0.2262 -0.2209
  875MOL0     C18035  10.400   4.267   7.222  0.5999 -0.2703 -0.6280
  875MOL0     C18036  10.304   4.294   7.122 -0.7317  0.3886 -0.3481
  875MOL0     O18037   9.991   4.423   7.147 -0.9608  0.3818  0.2747
  875MOL0     C18038   9.872   4.298   6.846  0.4984  0.7155  0.5284
  875MOL0     C18039   9.761   4.318   6.755 -0.7362  0.1719 -0.6944
  875MOL0     N18040   9.255   4.206   7.087 -0.5334 -0.1016 -0.4300
  875MOL0     N18041   9.262   4.242   7.214  1.2335  0.0699  0.0656
  875MOL0     C18042  10.105   4.565   7.748 -0.1691  0.8694 -0.3897
  875MOL0     C18043  10.236   4.538   7.792 -0.4901 -0.2632  0.3752
  875MOL0     C18044  10.651   4.527   7.857 -0.3489  0.5619 -0.2575
  875MOL0     C18045  10.773   4.591   7.821 -0.2930 -0.9935  0.1401
  875MOL0     C18046  10.888   4.569   7.896 -1.1463  0.9752  0.3915
  875MOL0     C18047  10.890   4.492   8.005 -0.6857  0.3544  0.1072
  875MOL0     O18048  11.012   4.457   8.067 -0.2318  0.1481 -0.0251
  875MOL0     C18049  11.012   4.399   8.198  0.7059  0.4599  0.1067
  875MOL0     C18050  11.151   4.345   8.221  0.6697  0.2810  0.4974
  875MOL0     C18051  11.258   4.456   8.221  1.3794  0.4686  0.1363
  875MOL0     C18052  11.392   4.404   8.279  0.9785  0.2129  0.2435
  875MOL0     C18053  11.488   4.508   8.257 -0.1691  0.7058  0.4476
  875MOL0     C18054  11.564   4.596   8.234  0.3446  0.2210  0.2995
  875MOL0     C18055  10.766   4.437   8.053 -0.3295 -0.4877 -0.0408
  875MOL0     C18056  10.652   4.450   7.982  0.5276 -0.6615  0.8629
  875MOL0     C18057  10.519   4.398   8.041  0.8159  0.3063  0.2511
  875MOL0     H18058  10.331   4.316   7.557  0.2332  0.6830  0.2025
  875MOL0     H18059  10.104   4.382   7.461  0.0102 -0.6910  0.3472
  875MOL0     H18060  10.014   4.596   7.403 -1.0756  2.6627 -1.7430
  875MOL0     H18061   9.897   4.464   7.410 -1.2529 -0.7763  3.0458
  875MOL0     H18062   9.814   4.656   7.296 -0.1159  0.9317 -0.1110
  875MOL0     H18063   9.826   4.742   7.454 -1.8055  0.4707 -0.7151
  875MOL0     H18064   9.655   4.617   7.554  0.4333  0.2285  0.2416
  875MOL0     H18065   9.671   4.473   7.462 -0.9510 -0.0454 -1.9505
  875MOL0     H18066   9.564   4.735   7.346 -0.1202  0.2736 -0.5412
  875MOL0     H18067   9.566   4.585   7.265  1.5712  1.2800 -0.0006
  875MOL0     H18068   9.409   4.499   7.473  0.6848  0.3451  1.0396
  875MOL0     H18069   9.375   4.663   7.498 -2.3051  0.0504 -1.6619
  875MOL0     H18070   9.304   4.703   7.280 -1.2709  0.8765  1.1929
  875MOL0     H18071   9.343   4.540   7.220  2.3939  0.2766  0.5391
  875MOL0     H18072   9.103   4.603   7.288 -1.7922  0.7327  1.7828
  875MOL0     H18073   9.169   4.597   7.456  2.5542  1.3989  0.0895
  875MOL0     H18074   9.222   4.362   7.431  1.5431 -0.5507 -1.2738
  875MOL0     H18075   9.053   4.390   7.398 -0.7038  0.4184 -2.1783
  875MOL0     H18076   9.048   4.458   7.083 -0.5536 -0.1756  3.1890
  875MOL0     H18077   9.084   4.194   6.845 -2.2003  0.9746 -0.6592
  875MOL0     H18078   9.057   4.368   6.860 -2.0783 -1.2002  1.7769
  875MOL0     H18079   9.326   4.228   6.773 -2.1112 -0.8616 -1.6383
  875MOL0     H18080   9.232   4.344   6.686 -0.1667  4.7146  1.0899
  875MOL0     H18081   9.412   4.401   6.925 -0.5169 -2.1313 -0.9032
  875MOL0     H18082   9.276   4.509   6.879 -0.3218 -0.7977  0.4185
  875MOL0     H18083   9.484   4.608   6.765  0.9058 -0.2228  0.3763
  875MOL0     H18084   9.389   4.528   6.639  2.1028  0.2970 -1.6903
  875MOL0     H18085   9.601   4.557   6.936  0.2371  0.1976  1.3925
  875MOL0     H18086   9.796   4.527   7.076 -0.9642  2.0787 -1.9924
  875MOL0     H18087  10.058   4.071   7.220  0.0324 -0.7347 -3.4083
  875MOL0     H18088  10.241   4.038   7.409  2.4078 -1.5417 -1.2006
  875MOL0     H18089  10.658   4.157   7.362  2.9263 -0.1151  2.5181
  875MOL0     H18090  10.591   4.297   7.447 -0.2952  0.2478  2.6187
  875MOL0     H18091  10.567   4.189   7.643 -1.6276  1.8836 -2.7292
  875MOL0     H18092  10.642   4.036   7.590  2.3598  0.1609 -1.1222
  875MOL0     H18093  10.817   4.286   7.566 -1.3244 -0.1960 -0.0126
  875MOL0     H18094  10.776   4.232   7.731  1.3408  0.0370 -0.1270
  875MOL0     H18095  10.850   4.062   7.506  0.1608  1.3442 -0.1445
  875MOL0     H18096  10.873   4.016   7.678  0.6040 -0.6720 -0.0558
  875MOL0     H18097  11.068   4.170   7.692 -1.6700  0.4332  1.5295
  875MOL0     H18098  11.053   4.188   7.510 -0.7088 -2.0364 -1.4754
  875MOL0     H18099  11.112   3.947   7.673  1.1712 -1.6688  0.0715
  875MOL0     H18100  11.062   3.930   7.500 -2.7108  2.5898 -0.3441
  875MOL0     H18101  11.301   4.089   7.616 -1.5277 -0.7245  0.2510
  875MOL0     H18102  11.267   4.100   7.449  0.1121  1.6334  0.7763
  875MOL0     H18103  11.278   3.852   7.427 -0.4412  1.3933 -1.4579
  875MOL0     H18104  11.438   3.932   7.465  1.3632  0.3844  3.1763
  875MOL0     H18105  10.498   4.312   7.206 -0.9870  2.8516 -2.5676
  875MOL0     H18106  10.347   4.352   7.041  0.0088 -2.3380 -2.0398
  875MOL0     H18107   9.947   4.225   6.818 -2.5159 -1.4466 -2.8458
  875MOL0     H18108   9.743   4.273   6.658 -3.6280  0.5096 -0.3951
  875MOL0     H18109  10.031   4.628   7.798 -2.1319 -1.0000 -0.7535
  875MOL0     H18110  10.272   4.591   7.880  0.4324 -0.9758  0.4477
  875MOL0     H18111  10.785   4.652   7.733  2.2892  0.4876  1.3897
  875MOL0     H18112  10.985   4.592   7.851 -0.8687  0.0457  0.5060
  875MOL0     H18113  10.945   4.312   8.192 -3.2702  3.3298 -1.8455
  875MOL0     H18114  10.974   4.468   8.273  0.4078  0.0220  0.3651
  875MOL0     H18115  11.168   4.262   8.151 -3.0303 -2.9144  2.9817
  875MOL0     H18116  11.159   4.292   8.316  0.6694  2.3565  1.7171
  875MOL0     H18117  11.230   4.545   8.278  0.9791  0.4800 -0.0785
  875MOL0     H18118  11.268   4.477   8.114 -0.1061  1.4175  0.1596
  875MOL0     H18119  11.391   4.363   8.380 -0.0426 -0.2244  0.0722
  875MOL0     H18120  11.421   4.313   8.226 -0.1072  0.1135 -0.2054
  875MOL0     H18121  11.620   4.686   8.218  0.4721  0.4181  1.7880
  875MOL0     H18122  10.768   4.365   8.135 -0.3348  1.5588  1.8652
  875MOL0     H18123  10.482   4.317   7.977 -2.1171  1.0296  0.8609
  875MOL0     H18124  10.522   4.358   8.142 -0.5788  0.4986  0.3986
  875MOL0     H18125  10.454   4.486   8.038  1.4689  0.8525  1.5505
  876MOL0     O18126   8.088  10.419   0.716  0.1856  0.1219  0.1803
  876MOL0     C18127   8.012  10.370   0.633  0.1730  0.1608  0.2084
  876MOL0     O18128   8.046  10.297   0.530  0.4583  0.1187 -0.2842
  876MOL0     C18129   8.171  10.295   0.477 -0.2026  1.1084  0.2564
  876MOL0     C18130   8.210  10.171   0.424  0.2751 -0.9026  0.3711
  876MOL0     C18131   8.334  10.154   0.354 -0.0593 -0.6638 -0.5542
  876MOL0     C18132   8.421  10.263   0.340 -0.4845  0.2272  0.9179
  876MOL0     O18133   8.536  10.251   0.272 -0.7170  0.2472 -0.6705
  876MOL0     C18134   8.640  10.335   0.319 -0.0636 -0.5643  0.1303
  876MOL0     C18135   8.775  10.271   0.284  0.0324 -0.2278 -0.4741
  876MOL0     C18136   8.824  10.288   0.139  0.0368 -0.1033  0.3757
  876MOL0     C18137   8.974  10.244   0.147 -0.1181 -0.3572 -0.0112
  876MOL0     C18138   9.033  10.222   0.009 -0.4730  0.3303 -0.7531
  876MOL0     C18139   9.175  10.177   0.019  0.1277  0.0512 -0.4528
  876MOL0     C18140   9.240  10.165  -0.117 -0.0870  0.2994  0.4506
  876MOL0     C18141   9.386  10.099  -0.095  0.2061  0.8538 -1.1748
  876MOL0     N18142   9.452  10.064  -0.218 -0.3116 -0.4968  0.7091
  876MOL0     C18143   9.577  10.010  -0.235 -0.2746  0.6425  0.2722
  876MOL0     C18144   9.606  10.016  -0.365 -0.4668 -0.0858  0.3673
  876MOL0     C18145   9.725   9.947  -0.425 -0.1570  0.3182  0.8166
  876MOL0     C18146   9.852  10.021  -0.415 -0.0501  0.2472  0.2835
  876MOL0     C18147   9.953   9.990  -0.520 -0.1279  0.0570 -0.1938
  876MOL0     C18148  10.082  10.082  -0.512  0.6260  0.0454 -0.4820
  876MOL0     O18149  10.175  10.029  -0.604 -0.6327  0.4642 -0.2726
  876MOL0     C18150  10.307  10.042  -0.578  0.0446 -0.6687  0.3624
  876MOL0     C18151  10.370  10.071  -0.460  0.3313 -0.7559  0.1080
  876MOL0     C18152  10.502  10.090  -0.454  0.4185  0.1470 -1.0496
  876MOL0     C18153  10.593  10.071  -0.562 -0.4361  1.0800 -0.4842
  876MOL0     C18154  10.746  10.078  -0.556  1.2981 -0.1690  0.4102
  876MOL0     O18155  10.796  10.125  -0.440 -0.5218 -0.1234  0.0970
  876MOL0     C18156  10.932  10.117  -0.420 -0.7745 -0.2174  0.0569
  876MOL0     C18157  11.017  10.018  -0.451 -0.3005  1.0170 -0.4286
  876MOL0     C18158  11.144   9.998  -0.393 -0.3238  0.2057 -0.4558
  876MOL0     C18159  11.207  10.098  -0.318 -0.0454  0.0323 -1.2554
  876MOL0     O18160  11.338  10.081  -0.273 -0.9244 -0.1997  1.4665
  876MOL0     C18161  11.336  10.045  -0.132  0.6334  0.1068 -0.2507
  876MOL0     C18162  11.461  10.092  -0.052  0.7210  0.5254  0.3113
  876MOL0     C18163  11.605  10.079  -0.115  0.6408 -0.8595  0.8651
  876MOL0     C18164  11.702  10.176  -0.031  0.2864 -0.3022 -0.1857
  876MOL0     C18165  11.849  10.167  -0.062 -0.5600  0.2795  0.0686
  876MOL0     C18166  11.920  10.295  -0.009 -0.6051 -0.3078  0.4920
  876MOL0     C18167  12.067  10.279  -0.063 -0.2233 -0.2557  0.6320
  876MOL0     C18168  12.168  10.373   0.007  0.7416 -0.3798 -0.2353
  876MOL0    Cl18169  12.316  10.393  -0.098  0.1794  0.0518  0.3586
  876MOL0     C18170  11.134  10.215  -0.295  0.0884 -0.3407  0.3725
  876MOL0     C18171  10.998  10.225  -0.347  0.0037 -0.5589 -0.2047
  876MOL0     O18172  10.810  10.053  -0.658  0.1870  0.5031  0.0711
  876MOL0     C18173  10.528  10.032  -0.683  0.2441  1.0726  0.4510
  876MOL0     C18174  10.390  10.022  -0.692 -0.3165  0.2283  0.1586
  876MOL0     N18175   9.505  10.073  -0.436  0.5848  0.1359  0.2384
  876MOL0     N18176   9.411  10.101  -0.348 -1.3533 -0.0417 -0.4096
  876MOL0     C18177   8.376  10.391   0.387 -0.4415  0.7144  0.5380
  876MOL0     C18178   8.249  10.406   0.450 -1.5294  0.7710  0.0870
  876MOL0     C18179   7.865  10.395   0.660  0.9769 -0.2284  1.0276
  876MOL0     C18180   7.828  10.506   0.748  0.5858  0.2472  0.9527
  876MOL0     C18181   7.695  10.524   0.776  0.1900 -0.3622  0.6526
  876MOL0     C18182   7.593  10.443   0.729 -0.1513  1.5800  0.3476
  876MOL0     O18183   7.470  10.476   0.776 -0.1623  0.1621 -0.2233
  876MOL0     C18184   7.370  10.469   0.669 -0.5519 -0.8088 -0.2631
  876MOL0     C18185   7.235  10.492   0.727  0.7018 -0.5571 -0.0820
  876MOL0     C18186   7.200  10.637   0.768 -0.4086  0.1160 -0.0152
  876MOL0     C18187   7.069  10.657   0.841 -0.8737  0.2846 -0.0623
  876MOL0     C18188   6.953  10.621   0.756  0.1032 -0.8603 -0.0495
  876MOL0     C18189   6.850  10.584   0.699  1.1454  1.1592  0.3339
  876MOL0     C18190   7.627  10.326   0.662  0.0577  0.3814 -0.0989
  876MOL0     C18191   7.762  10.310   0.617  0.4697  0.6769 -0.3508
  876MOL0     C18192   7.797  10.182   0.535  0.3592  0.8178  0.3061
  876MOL0     H18193   8.158  10.078   0.443  1.1874 -1.4768  0.1264
  876MOL0     H18194   8.364  10.057   0.316  0.1963 -0.5430 -0.6642
  876MOL0     H18195   8.639  10.431   0.266 -0.7059 -0.1138  0.9376
  876MOL0     H18196   8.627  10.353   0.426  1.6514  1.2011  0.1152
  876MOL0     H18197   8.761  10.164   0.302  2.2204 -0.5682 -0.5349
  876MOL0     H18198   8.848  10.314   0.354 -0.3450 -1.7362  0.9059
  876MOL0     H18199   8.834  10.395   0.117  3.5615 -0.7577 -2.1083
  876MOL0     H18200   8.765  10.233   0.066 -0.8321 -1.8978  2.3202
  876MOL0     H18201   9.030  10.317   0.206 -2.5291  1.7560 -0.1412
  876MOL0     H18202   8.979  10.144   0.192 -1.9645 -0.3311  0.3224
  876MOL0     H18203   8.977  10.152  -0.054  1.5502 -1.8058 -0.2724
  876MOL0     H18204   9.020  10.315  -0.047 -2.4268 -0.6584 -2.0816
  876MOL0     H18205   9.234  10.249   0.076  0.0096 -0.8549  0.8537
  876MOL0     H18206   9.172  10.078   0.065 -0.2806 -0.4909 -1.6002
  876MOL0     H18207   9.262  10.261  -0.165  3.4423 -0.0917  1.0090
  876MOL0     H18208   9.180  10.103  -0.184  1.0007 -0.3349  0.0429
  876MOL0     H18209   9.454  10.159  -0.035 -0.4219 -2.3156  3.2137
  876MOL0     H18210   9.376  10.008  -0.036 -2.9946  0.1569 -2.5597
  876MOL0     H18211   9.650   9.982  -0.161  0.4377  2.5896  0.3701
  876MOL0     H18212   9.727   9.856  -0.364 -1.6138 -0.8231 -0.7694
  876MOL0     H18213   9.713   9.922  -0.530  2.7838  1.9521 -0.0122
  876MOL0     H18214   9.830  10.127  -0.433 -0.7900 -0.0332 -0.5448
  876MOL0     H18215   9.895  10.005  -0.316  1.8000 -1.1570 -0.6992
  876MOL0     H18216   9.899   9.982  -0.615 -0.4309  0.8292 -0.0968
  876MOL0     H18217   9.987   9.889  -0.496 -2.4399 -0.5160  0.9503
  876MOL0     H18218  10.112  10.086  -0.407 -0.2301 -0.3199 -0.2117
  876MOL0     H18219  10.054  10.186  -0.534  0.8960  0.4808  1.0891
  876MOL0     H18220  10.324  10.104  -0.367  2.3887  2.8879  0.0167
  876MOL0     H18221  10.545  10.125  -0.360 -1.8545 -1.3477  0.6621
  876MOL0     H18222  10.964   9.940  -0.505  0.6730 -0.1683  0.2481
  876MOL0     H18223  11.189   9.902  -0.416 -2.6525 -0.7363 -1.3692
  876MOL0     H18224  11.252  10.083  -0.072 -0.2541 -4.9873  2.2597
  876MOL0     H18225  11.322   9.937  -0.127  1.0686  0.1095  1.8502
  876MOL0     H18226  11.456  10.198  -0.025 -2.5334 -0.2016  3.3625
  876MOL0     H18227  11.456  10.034   0.041 -0.5919 -2.2277 -1.3434
  876MOL0     H18228  11.637   9.975  -0.104 -1.8170 -1.4160  4.2646
  876MOL0     H18229  11.599  10.118  -0.217  0.0420 -1.2687  0.7398
  876MOL0     H18230  11.690  10.150   0.075  0.5113 -0.6068 -0.2307
  876MOL0     H18231  11.673  10.281  -0.041 -2.3323 -0.7391  1.8519
  876MOL0     H18232  11.873  10.168  -0.168  1.4184  2.8298  0.4355
  876MOL0     H18233  11.895  10.079  -0.016 -0.6608  0.1682 -0.0436
  876MOL0     H18234  11.882  10.392  -0.041  0.7889 -0.4948 -1.9586
  876MOL0     H18235  11.918  10.288   0.100 -1.3903  2.2771  0.7064
  876MOL0     H18236  12.059  10.310  -0.168  0.2995 -0.8166  0.4222
  876MOL0     H18237  12.109  10.178  -0.062  1.8750  0.4179 -2.6149
  876MOL0     H18238  12.112  10.466   0.018  0.7542 -0.4506  0.5173
  876MOL0     H18239  12.195  10.336   0.107  1.3207  0.9566  0.1276
  876MOL0     H18240  11.172  10.303  -0.244 -1.0058  1.7094 -2.1135
  876MOL0     H18241  10.943  10.317  -0.326 -0.2742 -0.2294 -2.1693
  876MOL0     H18242  10.583   9.997  -0.770  1.4391  0.4096  1.4583
  876MOL0     H18243  10.343   9.992  -0.785  0.1804  0.2234 -0.0932
  876MOL0     H18244   8.423  10.485   0.359  1.7056  0.1099  1.8330
  876MOL0     H18245   8.211  10.499   0.491  0.9579  1.6439  0.5595
  876MOL0     H18246   7.898  10.575   0.794 -0.1296  0.5155  1.6617
  876MOL0     H18247   7.670  10.607   0.842  0.7427  0.7052 -0.4524
  876MOL0     H18248   7.370  10.374   0.616  0.9804 -0.9923  0.0186
  876MOL0     H18249   7.380  10.556   0.603 -3.7811 -1.4016 -1.7380
  876MOL0     H18250   7.234  10.441   0.824 -1.4152 -0.1952  0.1353
  876MOL0     H18251   7.159  10.448   0.662 -1.6365  3.2164 -0.1919
  876MOL0     H18252   7.210  10.696   0.676  1.2744 -0.0178  0.0418
  876MOL0     H18253   7.285  10.668   0.830  1.7443 -0.9483 -2.2728
  876MOL0     H18254   7.072  10.597   0.932  2.6893  2.8069  1.7296
  876MOL0     H18255   7.053  10.755   0.888 -3.5545  0.1957 -0.6015
  876MOL0     H18256   6.782  10.550   0.623  1.8981  0.7084 -0.1581
  876MOL0     H18257   7.557  10.245   0.643  0.9078 -1.5282  3.7351
  876MOL0     H18258   7.717  10.108   0.531  1.0513  0.1047 -0.9273
  876MOL0     H18259   7.835  10.207   0.435 -0.6764 -1.4471 -0.7121
  876MOL0     H18260   7.874  10.126   0.589 -1.1851  0.8333  2.6533
  877MOL0     O18261   5.879  10.177   3.451  0.4983 -0.4114 -0.1760
  877MOL0     C18262   5.829  10.235   3.543  0.0783  0.1121 -0.3046
  877MOL0     O18263   5.891  10.317   3.627  0.4031  0.1699 -0.1318
  877MOL0     C18264   6.006  10.380   3.581 -0.1406  0.1638  0.5005
  877MOL0     C18265   6.120  10.312   3.596  0.5789  1.0951  0.8071
  877MOL0     C18266   6.248  10.368   3.566  1.1856  0.1675  0.1428
  877MOL0     C18267   6.248  10.497   3.505 -1.2738 -0.0780 -0.2318
  877MOL0     O18268   6.366  10.547   3.458  0.2669 -0.1936  0.0603
  877MOL0     C18269   6.378  10.696   3.448  0.4609  0.2954  0.1710
  877MOL0     C18270   6.515  10.746   3.405  0.1050 -0.0136 -0.1863
  877MOL0     C18271   6.616  10.722   3.512  0.2194  0.6124 -0.2704
  877MOL0     C18272   6.745  10.781   3.489 -0.3930 -0.1163 -0.9718
  877MOL0     C18273   6.852  10.739   3.598  0.6933 -0.0654  0.1263
  877MOL0     C18274   6.824  10.801   3.730  0.5325 -1.1816  0.0836
  877MOL0     C18275   6.939  10.783   3.824 -0.3864 -0.1628 -0.6566
  877MOL0     C18276   6.917  10.811   3.973  0.3368  0.0022  0.7785
  877MOL0     N18277   7.047  10.798   4.037 -0.3658  0.3432  0.9013
  877MOL0     C18278   7.170  10.859   3.999 -0.0904 -0.0770 -0.2785
  877MOL0     C18279   7.254  10.807   4.095 -0.1267  0.9820 -0.7662
  877MOL0     C18280   7.402  10.824   4.101  0.2307  0.1822  0.3544
  877MOL0     C18281   7.478  10.681   4.100 -0.3641 -0.5805 -0.0308
  877MOL0     C18282   7.635  10.690   4.126  0.7351 -0.4494 -0.2043
  877MOL0     C18283   7.679  10.749   4.267 -0.1930  0.7996  0.5381
  877MOL0     O18284   7.822  10.777   4.259 -0.4254  0.7005 -0.0230
  877MOL0     C18285   7.889  10.818   4.371 -0.7481 -0.2467  0.0019
  877MOL0     C18286   8.021  10.778   4.373 -0.4869 -0.3011 -0.1455
  877MOL0     C18287   8.113  10.822   4.465 -0.2003 -0.5520 -0.0723
  877MOL0     C18288   8.065  10.903   4.572 -0.3268 -0.2695  0.6238
  877MOL0     C18289   8.156  10.957   4.680 -0.4976  0.2630  0.0059
  877MOL0     O18290   8.291  10.943   4.654  0.2518  0.0602  0.1284
  877MOL0     C18291   8.399  10.984   4.732 -0.5162  0.8515 -0.7026
  877MOL0     C18292   8.497  11.057   4.666 -0.7582 -0.1618  0.1544
  877MOL0     C18293   8.618  11.090   4.723  0.5023 -0.0936  0.2659
  877MOL0     C18294   8.639  11.063   4.860 -0.1149  0.1152  0.3461
  877MOL0     O18295   8.758  11.104   4.926  0.1728  0.1907  0.6736
  877MOL0     C18296   8.845  10.990   4.953 -0.4444  0.3384 -0.0742
  877MOL0     C18297   8.992  11.028   4.977  0.7332 -0.2367 -0.5761
  877MOL0     C18298   9.073  11.065   4.859 -0.1414 -0.1871  0.3129
  877MOL0     C18299   9.220  11.018   4.884  0.2398 -0.0802 -0.1832
  877MOL0     C18300   9.257  10.875   4.834 -0.0505 -0.6523 -0.0740
  877MOL0     C18301   9.405  10.846   4.821 -0.5730 -0.4859 -0.2676
  877MOL0     C18302   9.478  10.931   4.719  0.2627  0.5082  0.3675
  877MOL0     C18303   9.626  10.901   4.708 -0.2664 -0.0189 -0.2719
  877MOL0    Cl18304   9.666  10.733   4.658 -0.1371 -0.0099  0.0281
  877MOL0     C18305   8.537  10.993   4.937  0.3683 -0.2779  0.1852
  877MOL0     C18306   8.414  10.952   4.871  0.2845 -0.3903 -0.0460
  877MOL0     O18307   8.108  10.994   4.784 -0.0028  0.2915  0.4385
  877MOL0     C18308   7.930  10.951   4.566 -1.0688 -0.5652 -0.6492
  877MOL0     C18309   7.843  10.899   4.467  0.2811  0.2751  0.5260
  877MOL0     N18310   7.192  10.715   4.176  1.0007  0.1297  0.6966
  877MOL0     N18311   7.062  10.712   4.140 -0.9427  0.1697  0.1528
  877MOL0     C18312   6.126  10.571   3.491 -0.5513  0.2000 -0.8588
  877MOL0     C18313   6.006  10.509   3.533 -0.4275 -1.7965  0.5092
  877MOL0     C18314   5.687  10.215   3.561  0.9161  0.0162  0.6445
  877MOL0     C18315   5.636  10.146   3.672 -0.5856  0.3315 -0.7157
  877MOL0     C18316   5.500  10.128   3.699  0.3934  0.3182  0.0559
  877MOL0     C18317   5.410  10.196   3.603 -0.2859  0.6005 -0.3338
  877MOL0     O18318   5.275  10.198   3.610 -0.5985  0.4718 -0.2765
  877MOL0     C18319   5.220  10.171   3.734  0.3984  0.2684  0.1986
  877MOL0     C18320   5.075  10.223   3.739  0.1333  0.6577  0.2068
  877MOL0     C18321   5.016  10.215   3.880 -0.5596 -0.1041 -0.0216
  877MOL0     C18322   4.871  10.263   3.869 -0.0141 -0.6170  0.3734
  877MOL0     C18323   4.815  10.266   4.008 -0.4215 -0.1772 -0.0149
  877MOL0     C18324   4.779  10.256   4.121  0.2578  0.4650 -0.1734
  877MOL0     C18325   5.464  10.268   3.494  0.4069 -0.2563 -0.7635
  877MOL0     C18326   5.599  10.276   3.472  0.2003 -0.7995  0.0129
  877MOL0     C18327   5.632  10.367   3.357 -0.1187  0.1875  0.6231
  877MOL0     H18328   6.125  10.216   3.646  0.6541 -0.3128 -1.7341
  877MOL0     H18329   6.342  10.316   3.585  0.7089 -1.6632 -2.0446
  877MOL0     H18330   6.305  10.734   3.377  1.3431  0.3723 -0.7083
  877MOL0     H18331   6.363  10.739   3.548 -2.2850  1.0257 -0.4968
  877MOL0     H18332   6.503  10.854   3.394 -0.3392 -0.0112  0.2500
  877MOL0     H18333   6.546  10.706   3.308  0.9811  1.1113 -0.3881
  877MOL0     H18334   6.635  10.614   3.510  1.4313  0.8113 -2.0733
  877MOL0     H18335   6.584  10.755   3.611  0.4257 -1.9184  0.6961
  877MOL0     H18336   6.777  10.729   3.399  1.4196 -2.6218  0.9696
  877MOL0     H18337   6.737  10.890   3.475  2.2809 -0.0922 -2.9553
  877MOL0     H18338   6.877  10.634   3.616  3.2839  0.7467  1.9603
  877MOL0     H18339   6.946  10.772   3.553 -1.8566  3.6819 -3.0945
  877MOL0     H18340   6.801  10.907   3.716  1.2897 -0.9254  0.6834
  877MOL0     H18341   6.728  10.760   3.764 -2.0516  2.5658 -1.9419
  877MOL0     H18342   7.023  10.846   3.794  0.2816 -1.3052 -1.2301
  877MOL0     H18343   6.981  10.684   3.807 -1.1875 -0.9487  1.5415
  877MOL0     H18344   6.899  10.919   3.980  0.2805  0.0620 -0.1885
  877MOL0     H18345   6.840  10.746   4.015 -0.8570 -0.4095 -1.8383
  877MOL0     H18346   7.208  10.921   3.919  4.0103 -0.0754  1.4319
  877MOL0     H18347   7.420  10.893   4.018  0.6647 -1.6092 -1.1120
  877MOL0     H18348   7.419  10.880   4.193 -2.9676  0.0778  1.1034
  877MOL0     H18349   7.442  10.612   4.176 -0.2190 -0.2791  0.3129
  877MOL0     H18350   7.458  10.635   4.003  0.6856 -0.9223 -0.1001
  877MOL0     H18351   7.683  10.757   4.054 -1.8996 -0.0679 -1.7426
  877MOL0     H18352   7.682  10.592   4.112  1.7578  0.0994 -0.7037
  877MOL0     H18353   7.660  10.679   4.349  0.4580 -0.9346 -0.7342
  877MOL0     H18354   7.615  10.836   4.285 -4.3090 -1.6657 -1.0577
  877MOL0     H18355   8.051  10.711   4.293 -3.5166 -0.9063 -0.9373
  877MOL0     H18356   8.215  10.785   4.458  0.1369  0.3199  0.1513
  877MOL0     H18357   8.490  11.072   4.559 -0.2749 -0.2998  0.1017
  877MOL0     H18358   8.696  11.141   4.668 -0.0479  1.6574  1.0269
  877MOL0     H18359   8.817  10.924   5.036  0.2847 -0.6343 -0.5803
  877MOL0     H18360   8.855  10.928   4.864 -0.5816  1.2680 -0.7493
  877MOL0     H18361   8.992  11.117   5.042 -0.4869  0.4221 -1.4479
  877MOL0     H18362   9.052  10.954   5.032  0.3321 -0.1294  0.0165
  877MOL0     H18363   9.045  11.015   4.766 -2.7687 -1.1456  1.5039
  877MOL0     H18364   9.063  11.173   4.852 -4.4784 -0.3851  0.8544
  877MOL0     H18365   9.248  11.031   4.989  0.7237 -0.2717 -0.2865
  877MOL0     H18366   9.273  11.095   4.827  0.3299  1.4286  1.8065
  877MOL0     H18367   9.209  10.859   4.737 -3.0678  0.6498  1.0839
  877MOL0     H18368   9.194  10.811   4.895 -0.0350 -0.1542  0.4783
  877MOL0     H18369   9.450  10.857   4.920 -0.7199  0.4192 -0.2905
  877MOL0     H18370   9.415  10.741   4.790 -2.7274 -0.7868 -0.1095
  877MOL0     H18371   9.470  11.038   4.737  3.4402  0.7857  0.7404
  877MOL0     H18372   9.447  10.911   4.616 -1.5294 -0.7941  1.1127
  877MOL0     H18373   9.685  10.956   4.634  2.4582 -2.6050 -0.1907
  877MOL0     H18374   9.670  10.925   4.805  1.4414 -0.4772 -0.8899
  877MOL0     H18375   8.562  10.964   5.039 -0.3720  0.1870  0.5054
  877MOL0     H18376   8.345  10.888   4.926 -0.3648 -0.5713 -1.0430
  877MOL0     H18377   7.893  11.020   4.640  0.5183 -0.7665  0.3691
  877MOL0     H18378   7.743  10.942   4.462  0.0984 -0.2848 -1.5359
  877MOL0     H18379   6.118  10.674   3.459 -1.5119  0.1398 -0.8400
  877MOL0     H18380   5.916  10.567   3.520  0.8180  0.2970  0.6961
  877MOL0     H18381   5.707  10.106   3.744 -1.1624  0.8464  0.1458
  877MOL0     H18382   5.469  10.072   3.786 -0.2465  0.9384  0.2329
  877MOL0     H18383   5.267  10.242   3.803 -2.2952  1.8122  0.5902
  877MOL0     H18384   5.214  10.065   3.758 -1.7776 -0.0049 -1.2276
  877MOL0     H18385   5.013  10.150   3.687  2.8127 -1.0261 -0.8209
  877MOL0     H18386   5.060  10.324   3.699  3.2787  0.2801 -2.2849
  877MOL0     H18387   5.077  10.261   3.958 -0.8986 -1.8979  1.3533
  877MOL0     H18388   5.009  10.110   3.907 -1.3215 -0.1748 -0.4644
  877MOL0     H18389   4.868  10.364   3.825  3.5960  0.0898  1.3865
  877MOL0     H18390   4.816  10.190   3.808  1.0679  0.6357 -2.3002
  877MOL0     H18391   4.744  10.224   4.217  0.0953 -0.8298 -0.6498
  877MOL0     H18392   5.397  10.313   3.421 -0.4702  0.6922  0.5658
  877MOL0     H18393   5.715  10.429   3.392  1.1378 -1.3128  0.3662
  877MOL0     H18394   5.668  10.309   3.272  0.7149 -2.0231  2.4069
  877MOL0     H18395   5.544  10.428   3.332  0.7977  0.9689 -0.8397
  878MOL0     O18396   1.455   1.309   6.477  0.1998  1.0029 -0.8929
  878MOL0     C18397   1.394   1.201   6.507  0.9927 -0.7019  0.5183
  878MOL0     O18398   1.459   1.081   6.543 -0.2837 -0.3213 -0.3695
  878MOL0     C18399   1.581   1.094   6.597  0.2885  0.4758 -0.4226
  878MOL0     C18400   1.696   1.152   6.534  0.1036 -0.2879 -0.2005
  878MOL0     C18401   1.815   1.145   6.598 -0.8201 -0.6245  0.3141
  878MOL0     C18402   1.842   1.081   6.713  0.2059 -0.2933 -0.4305
  878MOL0     O18403   1.968   1.100   6.759 -0.5465 -0.1969 -0.1932
  878MOL0     C18404   1.995   1.091   6.895  0.1909 -0.1959  0.5715
  878MOL0     C18405   2.136   1.055   6.929  0.6071  0.7456 -0.4202
  878MOL0     C18406   2.245   1.149   6.871 -0.0780 -0.4038 -0.0843
  878MOL0     C18407   2.386   1.114   6.925 -0.2564  0.6952  0.1887
  878MOL0     C18408   2.490   1.219   6.898 -0.3444  0.4744 -0.9150
  878MOL0     C18409   2.629   1.188   6.957  0.0042 -0.3011  0.9729
  878MOL0     C18410   2.729   1.309   6.931 -0.2355  0.2664 -0.3860
  878MOL0     C18411   2.858   1.287   7.027  0.4143 -0.8199  0.0594
  878MOL0     N18412   2.956   1.388   6.983  0.1465 -0.0444 -0.8423
  878MOL0     C18413   2.948   1.523   6.998  0.5502 -0.7243 -0.0244
  878MOL0     C18414   3.065   1.565   6.928 -0.5976  0.6117 -0.4229
  878MOL0     C18415   3.114   1.705   6.913 -0.3698  0.5432  0.6670
  878MOL0     C18416   3.266   1.724   6.919 -0.1794 -0.2534  0.1955
  878MOL0     C18417   3.351   1.689   6.793  0.2569  0.7685 -0.6667
  878MOL0     C18418   3.505   1.685   6.807 -0.3088 -0.5550 -0.7916
  878MOL0     O18419   3.555   1.607   6.703 -0.4183 -0.0042 -0.0074
  878MOL0     C18420   3.691   1.590   6.714 -0.6790  0.2872  0.0300
  878MOL0     C18421   3.795   1.676   6.666  0.3292 -0.0475 -0.1079
  878MOL0     C18422   3.926   1.639   6.684 -0.5132  0.6716  0.5297
  878MOL0     C18423   3.961   1.517   6.741 -1.0377  0.0571  0.2227
  878MOL0     C18424   4.103   1.481   6.761 -0.1339  0.2763  0.2213
  878MOL0     O18425   4.186   1.579   6.773 -1.0775 -0.6652  0.2238
  878MOL0     C18426   4.322   1.573   6.736 -0.5868 -0.4820  0.1409
  878MOL0     C18427   4.364   1.498   6.627 -0.0930  0.1778 -0.0029
  878MOL0     C18428   4.493   1.496   6.588  0.4448  0.1014 -0.1610
  878MOL0     C18429   4.593   1.571   6.650 -0.2259 -1.7515  0.2791
  878MOL0     O18430   4.728   1.581   6.597 -0.0448  0.5528 -0.2225
  878MOL0     C18431   4.827   1.599   6.694  0.5093  0.1661 -0.1396
  878MOL0     C18432   4.970   1.574   6.639  0.1261 -0.3862 -0.1372
  878MOL0     C18433   5.070   1.577   6.749 -0.2623  0.1866 -0.1832
  878MOL0     C18434   5.139   1.707   6.771 -0.0836 -0.5245 -0.3505
  878MOL0     C18435   5.250   1.693   6.881  0.7095  0.3836 -0.6645
  878MOL0     C18436   5.336   1.817   6.885 -0.8548  0.2213  0.7633
  878MOL0     C18437   5.404   1.832   7.020  0.4482  0.3287 -1.3654
  878MOL0     C18438   5.515   1.931   7.007 -0.6892 -0.8646 -0.0039
  878MOL0    Cl18439   5.610   1.934   7.165 -0.2448  0.4357  0.0342
  878MOL0     C18440   4.554   1.643   6.767  0.9820 -1.2682  0.6150
  878MOL0     C18441   4.416   1.643   6.811 -0.2028  0.3351  0.6725
  878MOL0     O18442   4.131   1.357   6.770  0.0060  0.2322  0.1986
  878MOL0     C18443   3.865   1.423   6.776  0.1899 -0.4415 -0.0078
  878MOL0     C18444   3.733   1.471   6.772 -0.4547  1.7488  0.4110
  878MOL0     N18445   3.133   1.449   6.872  0.4413 -0.2403 -0.0334
  878MOL0     N18446   3.058   1.349   6.908 -0.1840 -0.2162  0.3996
  878MOL0     C18447   1.734   1.025   6.770  0.2772  0.0605 -0.6892
  878MOL0     C18448   1.606   1.023   6.716 -0.1989 -0.5181 -0.3126
  878MOL0     C18449   1.253   1.194   6.510 -0.0277 -0.4587  0.3644
  878MOL0     C18450   1.191   1.282   6.423  0.4411  0.2003  0.2269
  878MOL0     C18451   1.051   1.287   6.409 -0.4328 -0.2134  0.2468
  878MOL0     C18452   0.966   1.203   6.480  0.1888 -0.1453  0.2441
  878MOL0     O18453   0.831   1.201   6.490 -0.7524 -0.0885 -0.4645
  878MOL0     C18454   0.761   1.298   6.411  0.8695 -0.6490  0.8392
  878MOL0     C18455   0.624   1.326   6.467 -0.5817  0.2300 -0.5686
  878MOL0     C18456   0.535   1.207   6.514 -0.5498  0.5745 -0.1392
  878MOL0     C18457   0.396   1.263   6.566 -0.6940  0.1258 -0.1572
  878MOL0     C18458   0.311   1.153   6.589 -0.4440  0.6875 -0.2098
  878MOL0     C18459   0.229   1.061   6.608  0.4075 -0.5716  0.6155
  878MOL0     C18460   1.028   1.119   6.565  0.1674  0.4995 -0.4330
  878MOL0     C18461   1.165   1.107   6.583  0.5277  0.0160 -0.0044
  878MOL0     C18462   1.209   1.011   6.695 -0.7559  0.1753 -0.0564
  878MOL0     H18463   1.686   1.206   6.440  1.4615  0.7751  0.2426
  878MOL0     H18464   1.902   1.202   6.567 -1.0776  1.9964  3.7095
  878MOL0     H18465   1.969   1.187   6.942  1.8385  0.6801 -0.2149
  878MOL0     H18466   1.937   1.013   6.945  0.4565  0.3278  1.7533
  878MOL0     H18467   2.142   0.955   6.885  0.4223  0.9724 -0.9663
  878MOL0     H18468   2.151   1.048   7.037  3.2429 -0.3181 -0.7758
  878MOL0     H18469   2.226   1.254   6.898  1.5591 -0.4119  1.2866
  878MOL0     H18470   2.245   1.146   6.762  0.5359  1.0866 -0.1457
  878MOL0     H18471   2.386   1.101   7.034  0.4673  0.3303  0.1505
  878MOL0     H18472   2.418   1.021   6.877 -1.5632  0.1099  0.4134
  878MOL0     H18473   2.489   1.244   6.791  1.3457 -0.7946 -1.2698
  878MOL0     H18474   2.464   1.308   6.955 -2.9949 -0.7838 -0.0224
  878MOL0     H18475   2.615   1.189   7.065  1.5254  2.3239  1.2206
  878MOL0     H18476   2.667   1.094   6.915 -1.0798  0.6154 -2.3395
  878MOL0     H18477   2.685   1.403   6.967  0.8968  0.6550  0.0129
  878MOL0     H18478   2.758   1.308   6.825  2.0248 -4.1324  0.0479
  878MOL0     H18479   2.833   1.315   7.130  4.0325  0.7640  0.6896
  878MOL0     H18480   2.908   1.191   7.011 -0.3692 -1.3172  0.5082
  878MOL0     H18481   2.871   1.585   7.041  2.4448  2.0207 -0.2901
  878MOL0     H18482   3.080   1.742   6.816 -0.0393 -1.9639 -0.4830
  878MOL0     H18483   3.073   1.774   6.987 -0.4427  2.7256 -1.2918
  878MOL0     H18484   3.285   1.831   6.936  2.9496 -0.8749  1.2964
  878MOL0     H18485   3.309   1.671   7.004  1.8239 -1.5999 -1.5422
  878MOL0     H18486   3.329   1.769   6.721  0.4776  3.3660  1.9653
  878MOL0     H18487   3.314   1.589   6.771 -2.3750  0.9229  2.4033
  878MOL0     H18488   3.526   1.643   6.905  0.1769  2.1389  0.3552
  878MOL0     H18489   3.558   1.781   6.811 -0.8233 -0.2226  4.6127
  878MOL0     H18490   3.777   1.773   6.623 -2.5582 -1.5889 -2.7773
  878MOL0     H18491   4.003   1.710   6.655  2.0431 -1.2524  2.2593
  878MOL0     H18492   4.289   1.443   6.571 -0.4406  0.7070 -0.0532
  878MOL0     H18493   4.536   1.445   6.502  0.6634  1.6474 -1.0039
  878MOL0     H18494   4.832   1.696   6.744  3.4700 -1.0752  2.2385
  878MOL0     H18495   4.801   1.520   6.764 -0.9427 -0.8515 -1.7394
  878MOL0     H18496   4.971   1.479   6.584 -1.0136  0.3834 -1.5688
  878MOL0     H18497   4.992   1.655   6.569  0.0013  0.0893  0.3700
  878MOL0     H18498   5.019   1.535   6.837  0.6148  0.1840  0.3355
  878MOL0     H18499   5.145   1.500   6.731 -1.0761 -0.5771 -0.4169
  878MOL0     H18500   5.068   1.783   6.804 -0.7829 -1.6293  0.8186
  878MOL0     H18501   5.200   1.730   6.683  2.9918 -1.1849  1.4644
  878MOL0     H18502   5.320   1.609   6.872 -1.0731 -1.1909 -0.3286
  878MOL0     H18503   5.208   1.679   6.981  4.9936 -0.4186  1.2753
  878MOL0     H18504   5.413   1.795   6.810  1.8018  0.7489  3.1700
  878MOL0     H18505   5.278   1.909   6.870  0.7681  1.6547  2.8132
  878MOL0     H18506   5.442   1.732   7.043  1.4779  0.6917 -1.4323
  878MOL0     H18507   5.336   1.853   7.102  0.7583 -3.5541  0.0785
  878MOL0     H18508   5.584   1.915   6.924  1.5455  0.4234  1.4994
  878MOL0     H18509   5.471   2.029   6.984  1.1941 -0.3047 -1.4439
  878MOL0     H18510   4.622   1.705   6.825  1.8990  0.7641 -2.3754
  878MOL0     H18511   4.369   1.695   6.894  1.2356 -0.2857  1.8962
  878MOL0     H18512   3.892   1.322   6.808  2.1429 -1.3734 -3.9355
  878MOL0     H18513   3.654   1.405   6.805  1.7383 -0.5545  1.3454
  878MOL0     H18514   1.750   0.967   6.860  1.4267  0.1092 -0.8365
  878MOL0     H18515   1.528   0.962   6.759  1.0094 -1.5400  0.4755
  878MOL0     H18516   1.248   1.350   6.360  4.4460 -0.6189  2.6021
  878MOL0     H18517   1.010   1.348   6.329  0.8605 -2.0402 -1.9128
  878MOL0     H18518   0.757   1.262   6.307 -2.2645 -2.4013  1.4550
  878MOL0     H18519   0.809   1.396   6.404  0.0838 -0.3527 -1.4121
  878MOL0     H18520   0.567   1.389   6.398 -0.8976  1.6566  0.9060
  878MOL0     H18521   0.638   1.383   6.560 -0.1433  0.0249 -0.5096
  878MOL0     H18522   0.587   1.160   6.599 -2.0870  0.0871  0.5634
  878MOL0     H18523   0.530   1.133   6.434  1.6577 -1.1564  1.1814
  878MOL0     H18524   0.413   1.322   6.657  0.2752 -0.6461  0.1769
  878MOL0     H18525   0.350   1.321   6.486 -0.2512 -1.6885 -1.8123
  878MOL0     H18526   0.175   0.970   6.621 -0.3852 -0.1943  0.0542
  878MOL0     H18527   0.976   1.052   6.632  1.1558  1.8283  1.7759
  878MOL0     H18528   1.286   1.053   6.760 -2.0009  2.2472  0.1723
  878MOL0     H18529   1.128   0.971   6.757  1.3547 -1.4320  1.8441
  878MOL0     H18530   1.243   0.917   6.650 -0.4820  0.1147  0.2752
  879MOL0     O18531   8.003   2.376   0.263 -0.4841  0.0833 -0.3653
  879MOL0     C18532   8.002   2.341   0.144  0.2408 -0.1860 -0.0705
  879MOL0     O18533   7.892   2.316   0.069  0.4416  0.0843  0.7461
  879MOL0     C18534   7.764   2.349   0.112 -0.2952 -0.9030  0.5603
  879MOL0     C18535   7.731   2.482   0.163  0.8892 -0.0721 -1.1804
  879MOL0     C18536   7.594   2.505   0.204 -0.5216  0.1351 -0.8266
  879MOL0     C18537   7.497   2.407   0.177  0.3605  0.1552  0.2695
  879MOL0     O18538   7.362   2.436   0.189  0.2648  0.3581 -0.0269
  879MOL0     C18539   7.326   2.516   0.300 -0.6854  0.2690  0.7196
  879MOL0     C18540   7.182   2.484   0.315 -0.0139 -0.4587  0.0817
  879MOL0     C18541   7.122   2.533   0.451  0.6105 -0.2808 -0.2920
  879MOL0     C18542   7.144   2.420   0.570  0.2510  0.2799  0.2725
  879MOL0     C18543   7.073   2.472   0.702  0.0837  0.4500 -0.3843
  879MOL0     C18544   7.091   2.384   0.830  0.1040 -0.0496 -0.7772
  879MOL0     C18545   7.230   2.404   0.886 -0.3963  0.0648 -0.5105
  879MOL0     C18546   7.240   2.372   1.035 -0.2755 -0.3782  0.3827
  879MOL0     N18547   7.377   2.384   1.084 -0.0284 -0.3120 -0.3104
  879MOL0     C18548   7.491   2.311   1.060 -0.0831 -0.9748  0.3882
  879MOL0     C18549   7.584   2.355   1.146 -0.0589 -0.5199  0.6432
  879MOL0     C18550   7.719   2.308   1.160 -0.3646  0.0672 -0.3435
  879MOL0     C18551   7.828   2.416   1.142  0.2871 -0.6164  0.0994
  879MOL0     C18552   7.975   2.372   1.146 -0.7718  0.4965  0.1214
  879MOL0     C18553   8.024   2.271   1.034 -0.5970 -1.1105  0.1680
  879MOL0     O18554   8.138   2.192   1.087  0.2711 -0.9885  0.3273
  879MOL0     C18555   8.190   2.088   1.007  0.5073 -0.2504  0.2597
  879MOL0     C18556   8.325   2.046   1.038  0.4462 -0.4830 -0.9399
  879MOL0     C18557   8.385   1.951   0.958  0.6260  0.0023  0.1768
  879MOL0     C18558   8.315   1.895   0.845 -0.3153  0.5849  0.3183
  879MOL0     C18559   8.388   1.798   0.755  0.5201  0.0661  0.8889
  879MOL0     O18560   8.517   1.765   0.782  0.5524  0.4491  0.2480
  879MOL0     C18561   8.600   1.711   0.692 -0.2079 -0.6720  0.1842
  879MOL0     C18562   8.560   1.614   0.595  0.3742 -0.3946 -0.6548
  879MOL0     C18563   8.652   1.547   0.517  0.4501 -0.4093 -0.1593
  879MOL0     C18564   8.784   1.590   0.507  0.1609  0.2259  0.0377
  879MOL0     O18565   8.887   1.527   0.432  0.5298 -0.3329 -0.7718
  879MOL0     C18566   8.850   1.413   0.362  0.0435 -0.4674  0.6279
  879MOL0     C18567   8.976   1.342   0.310  0.2418 -0.4680  0.0299
  879MOL0     C18568   9.082   1.313   0.413  0.1137  0.8550 -0.8379
  879MOL0     C18569   9.203   1.237   0.349  0.2377 -0.5757 -0.7191
  879MOL0     C18570   9.325   1.223   0.433  0.5552 -0.2965  0.1828
  879MOL0     C18571   9.430   1.143   0.362 -0.1924  0.3688  0.7039
  879MOL0     C18572   9.556   1.117   0.447  0.0238 -0.1847 -0.3705
  879MOL0     C18573   9.648   1.037   0.379 -0.3436  0.0075  0.2958
  879MOL0    Cl18574   9.695   1.101   0.210 -0.0863  0.1129 -0.0468
  879MOL0     C18575   8.829   1.678   0.602  0.1861 -0.6513  0.6836
  879MOL0     C18576   8.737   1.740   0.698  0.5989  0.4336  0.2734
  879MOL0     O18577   8.326   1.787   0.645  0.2361 -0.0216 -0.0462
  879MOL0     C18578   8.184   1.934   0.820  0.2468  0.1080 -0.1892
  879MOL0     C18579   8.121   2.034   0.895 -0.0105  0.0418 -0.3278
  879MOL0     N18580   7.531   2.459   1.214 -1.2712 -0.5275  0.5716
  879MOL0     N18581   7.407   2.481   1.180 -0.0218 -0.2943  0.5153
  879MOL0     C18582   7.528   2.289   0.108 -0.3703  0.6502  0.2479
  879MOL0     C18583   7.663   2.256   0.091 -0.1560  0.4819  0.3560
  879MOL0     C18584   8.122   2.309   0.062  0.3173 -0.2229 -0.3435
  879MOL0     C18585   8.105   2.233  -0.065  0.0834 -0.4152 -1.2456
  879MOL0     C18586   8.213   2.226  -0.153  0.0869 -1.0269 -0.0877
  879MOL0     C18587   8.337   2.283  -0.125 -0.5059 -0.3794 -0.3667
  879MOL0     O18588   8.447   2.283  -0.204 -0.4217  1.0498  0.0189
  879MOL0     C18589   8.457   2.195  -0.321  0.2952 -0.4525 -0.4294
  879MOL0     C18590   8.598   2.199  -0.396 -0.4986  0.7375 -0.0118
  879MOL0     C18591   8.719   2.155  -0.306  0.5250 -0.2727 -0.0130
  879MOL0     C18592   8.856   2.169  -0.385 -0.0827  0.1739  0.6915
  879MOL0     C18593   8.960   2.107  -0.302  0.2067  0.5419 -0.5114
  879MOL0     C18594   9.043   2.049  -0.243 -0.0064  0.3040 -0.7966
  879MOL0     C18595   8.355   2.363  -0.008 -0.6988 -1.1368  0.2663
  879MOL0     C18596   8.248   2.372   0.088 -0.7034  0.9332  1.1202
  879MOL0     C18597   8.280   2.468   0.206  0.9884  0.6361  0.4788
  879MOL0     H18598   7.805   2.560   0.178  1.6579 -0.9292 -0.3798
  879MOL0     H18599   7.559   2.601   0.238 -2.4048 -0.3501 -1.2791
  879MOL0     H18600   7.383   2.487   0.389 -0.3104  1.7547  1.0003
  879MOL0     H18601   7.338   2.622   0.274  2.1545 -0.7957 -3.1144
  879MOL0     H18602   7.162   2.377   0.302  0.5662 -0.8059  1.8007
  879MOL0     H18603   7.131   2.541   0.237  1.1792  0.3597 -0.1270
  879MOL0     H18604   7.014   2.539   0.436  0.4931  3.0548  0.9823
  879MOL0     H18605   7.150   2.634   0.482 -1.0342  0.2457 -0.4113
  879MOL0     H18606   7.099   2.323   0.548 -0.4943  0.9420 -1.2162
  879MOL0     H18607   7.249   2.409   0.600  0.4372  3.4639  1.1766
  879MOL0     H18608   7.119   2.568   0.727 -1.1975  1.6985 -2.5309
  879MOL0     H18609   6.969   2.488   0.673  0.3101 -1.5185 -2.6540
  879MOL0     H18610   7.017   2.426   0.898  0.9594  0.7786 -0.3282
  879MOL0     H18611   7.080   2.280   0.798  1.2529 -0.9420  1.5062
  879MOL0     H18612   7.268   2.506   0.877  1.1035 -0.1071  2.5655
  879MOL0     H18613   7.302   2.341   0.833 -0.9441 -0.2578 -0.8801
  879MOL0     H18614   7.180   2.447   1.089  0.6059  0.1934  0.5868
  879MOL0     H18615   7.201   2.272   1.056 -0.2833 -0.4428  0.0667
  879MOL0     H18616   7.508   2.232   0.987 -1.6894  0.9564 -2.2448
  879MOL0     H18617   7.722   2.260   1.258 -1.0731 -1.2383 -0.9230
  879MOL0     H18618   7.739   2.225   1.091 -2.2799 -1.3266  0.6709
  879MOL0     H18619   7.815   2.465   1.045 -0.7390 -0.6143  0.2265
  879MOL0     H18620   7.822   2.477   1.232 -2.8223 -0.3288 -0.2153
  879MOL0     H18621   7.980   2.318   1.242 -1.8547 -1.0787 -0.6574
  879MOL0     H18622   8.053   2.448   1.154  0.8938 -1.0069 -0.9967
  879MOL0     H18623   8.055   2.334   0.951 -3.5628 -0.1303 -0.2904
  879MOL0     H18624   7.944   2.210   0.991 -1.4197  1.7893 -2.7502
  879MOL0     H18625   8.367   2.097   1.124 -1.4733 -0.5229  0.0756
  879MOL0     H18626   8.486   1.917   0.978 -0.1943 -1.2193  2.7380
  879MOL0     H18627   8.456   1.583   0.594 -1.1691  4.0017  1.3693
  879MOL0     H18628   8.610   1.455   0.479 -2.5912  1.3581 -1.4071
  879MOL0     H18629   8.794   1.335   0.414  1.4975 -0.1855  2.7356
  879MOL0     H18630   8.783   1.441   0.280 -0.5674  0.3134  1.3779
  879MOL0     H18631   8.936   1.246   0.275  0.7306 -1.5530  2.2361
  879MOL0     H18632   9.023   1.409   0.237  0.4227 -1.6800 -1.0075
  879MOL0     H18633   9.118   1.411   0.446 -0.3587  0.3567  1.3229
  879MOL0     H18634   9.038   1.241   0.483  1.0112 -0.6863 -1.7882
  879MOL0     H18635   9.217   1.284   0.251 -1.0881 -1.4862 -1.3801
  879MOL0     H18636   9.165   1.138   0.322 -1.1685  0.2840 -2.0067
  879MOL0     H18637   9.313   1.159   0.521  0.7099 -3.1091 -1.7332
  879MOL0     H18638   9.359   1.319   0.473 -0.3608 -0.1390  0.6319
  879MOL0     H18639   9.388   1.044   0.340 -0.1769 -0.0257  2.3448
  879MOL0     H18640   9.459   1.198   0.272 -4.6685 -1.8724 -2.4742
  879MOL0     H18641   9.535   1.066   0.541  0.6209  2.7836  1.4830
  879MOL0     H18642   9.606   1.212   0.467 -0.3663  0.8462 -3.6110
  879MOL0     H18643   9.733   1.021   0.448 -2.1296 -3.6304  1.9677
  879MOL0     H18644   9.604   0.938   0.362  0.8914 -0.7339  1.1531
  879MOL0     H18645   8.936   1.693   0.596  0.1090 -0.7638 -3.2012
  879MOL0     H18646   8.765   1.802   0.782 -1.7502 -2.8479  3.8151
  879MOL0     H18647   8.137   1.890   0.733  0.1908 -0.4291  0.1070
  879MOL0     H18648   8.016   2.053   0.879 -0.5005 -1.5275  0.6732
  879MOL0     H18649   7.450   2.219   0.082 -1.2293  1.2744  1.0835
  879MOL0     H18650   7.689   2.165   0.039 -0.7458  0.0908  0.7310
  879MOL0     H18651   8.005   2.202  -0.093 -1.5337  1.9077  1.5118
  879MOL0     H18652   8.199   2.171  -0.245  1.2901  1.6752 -2.0475
  879MOL0     H18653   8.384   2.228  -0.396 -3.5063  0.2499  3.1782
  879MOL0     H18654   8.437   2.094  -0.284  0.7917  0.1458  1.6110
  879MOL0     H18655   8.610   2.304  -0.425 -1.1763  0.9792  0.5634
  879MOL0     H18656   8.592   2.141  -0.488 -0.8785  0.7131  0.0280
  879MOL0     H18657   8.708   2.053  -0.267 -0.3194  0.8558  2.9974
  879MOL0     H18658   8.721   2.214  -0.214 -0.8546 -0.5309  0.1999
  879MOL0     H18659   8.846   2.124  -0.484  2.2581  1.0046  0.0025
  879MOL0     H18660   8.877   2.275  -0.404  1.9444 -0.4558 -0.9370
  879MOL0     H18661   9.118   2.015  -0.174 -1.0658 -0.3023  0.0817
  879MOL0     H18662   8.447   2.415   0.019 -1.4621  0.2918  0.1842
  879MOL0     H18663   8.267   2.411   0.299 -0.9802  4.3508  2.7043
  879MOL0     H18664   8.376   2.519   0.202  1.3622 -0.1085 -0.4892
  879MOL0     H18665   8.204   2.547   0.205 -1.6578 -1.7383  0.0239
  880MOL0     O18666   8.083   9.225  10.712  0.5244 -0.0356  0.0810
  880MOL0     C18667   8.041   9.206  10.601  0.0823  0.4296  0.3684
  880MOL0     O18668   8.115   9.153  10.500  0.3594  0.3183 -0.1217
  880MOL0     C18669   8.246   9.118  10.499 -0.0407  0.2227 -0.0557
  880MOL0     C18670   8.349   9.164  10.584  0.1711 -0.0305  0.6367
  880MOL0     C18671   8.475   9.114  10.589  0.6496  1.1145 -0.1712
  880MOL0     C18672   8.509   9.013  10.493 -0.5948 -0.8612 -0.1658
  880MOL0     O18673   8.633   8.959  10.474  0.4013  0.4821  0.3407
  880MOL0     C18674   8.750   9.029  10.488 -0.4315  0.0313  0.2444
  880MOL0     C18675   8.774   9.101  10.357  0.2681 -0.6331 -0.3157
  880MOL0     C18676   8.809   9.010  10.230 -0.2550 -0.7899  0.1512
  880MOL0     C18677   8.717   8.885  10.206 -0.6737 -0.1586  0.1761
  880MOL0     C18678   8.770   8.797  10.090  0.2659 -0.3813  0.6189
  880MOL0     C18679   8.893   8.722  10.134 -1.0151  0.1583 -0.8619
  880MOL0     C18680   8.932   8.627  10.013  1.3601 -0.8106  0.7505
  880MOL0     C18681   8.991   8.699   9.888 -0.6070 -1.3213 -0.1075
  880MOL0     N18682   9.024   8.599   9.792 -0.5584  0.2254  0.3454
  880MOL0     C18683   8.985   8.583   9.664 -0.3023  0.5334  0.3546
  880MOL0     C18684   9.063   8.482   9.614 -0.2246 -0.1712 -0.0827
  880MOL0     C18685   9.047   8.438   9.472 -0.7624 -0.2995  0.9417
  880MOL0     C18686   9.192   8.416   9.428  0.6403  0.0986  0.2508
  880MOL0     C18687   9.261   8.556   9.423  0.5952 -0.4335  0.3810
  880MOL0     C18688   9.414   8.544   9.391 -0.8782  0.1870  0.0556
  880MOL0     O18689   9.454   8.431   9.299 -0.1897  0.0777 -0.3117
  880MOL0     C18690   9.588   8.385   9.302  0.4292 -1.3602  0.0413
  880MOL0     C18691   9.611   8.259   9.270 -0.1518  0.6306  0.6033
  880MOL0     C18692   9.748   8.216   9.251 -0.3898  0.3270 -0.7559
  880MOL0     C18693   9.852   8.307   9.267  0.2850  0.2301 -1.0856
  880MOL0     C18694   9.990   8.255   9.229 -0.3360  0.0868 -1.2373
  880MOL0     O18695  10.095   8.317   9.283 -0.2390  0.3858 -0.3793
  880MOL0     C18696  10.223   8.264   9.287 -0.6071 -0.4977 -0.1691
  880MOL0     C18697  10.337   8.339   9.250 -0.4794 -0.0841  0.8691
  880MOL0     C18698  10.466   8.281   9.245 -0.7674  0.2419 -0.6521
  880MOL0     C18699  10.478   8.148   9.270 -0.9914  0.6239 -1.0008
  880MOL0     O18700  10.606   8.089   9.266  0.1166 -0.2413 -0.1429
  880MOL0     C18701  10.607   7.970   9.189 -0.1464 -0.0203 -1.2616
  880MOL0     C18702  10.752   7.930   9.172  0.6780 -0.3853  0.4880
  880MOL0     C18703  10.795   7.805   9.260  0.2670 -0.9168 -0.5567
  880MOL0     C18704  10.948   7.781   9.256 -0.1244  0.2845 -0.1733
  880MOL0     C18705  11.010   7.671   9.344  0.0475 -0.2558 -0.6335
  880MOL0     C18706  10.951   7.526   9.344  0.2766 -0.7638  0.0845
  880MOL0     C18707  10.949   7.450   9.217 -0.2228  0.1841 -0.7874
  880MOL0     C18708  11.094   7.439   9.158 -0.3397 -0.8771 -0.4971
  880MOL0    Cl18709  11.168   7.575   9.082  0.2761 -0.2967  0.1044
  880MOL0     C18710  10.362   8.075   9.307 -0.3536  1.3596  0.1978
  880MOL0     C18711  10.235   8.133   9.307 -0.2436 -0.0438  0.1304
  880MOL0     O18712   9.993   8.175   9.143 -0.4047  0.1250  0.8070
  880MOL0     C18713   9.832   8.439   9.315  0.6009  0.6116 -0.0705
  880MOL0     C18714   9.697   8.475   9.331  0.7082 -0.6325 -0.0086
  880MOL0     N18715   9.150   8.438   9.713  0.5745  0.4064  0.0559
  880MOL0     N18716   9.117   8.506   9.821  0.3121 -0.2880 -0.3136
  880MOL0     C18717   8.415   8.962  10.414  0.4959 -0.1347  0.3803
  880MOL0     C18718   8.278   9.010  10.414  0.2646  1.2417 -0.5175
  880MOL0     C18719   7.893   9.246  10.579  0.6704 -0.7109  0.9248
  880MOL0     C18720   7.840   9.243  10.449 -0.6149  0.0347  0.2389
  880MOL0     C18721   7.710   9.266  10.409 -0.3107 -0.1107 -0.9481
  880MOL0     C18722   7.618   9.308  10.516 -0.3482  0.2297 -0.6219
  880MOL0     O18723   7.489   9.328  10.514  0.6165 -0.0006 -0.1779
  880MOL0     C18724   7.414   9.331  10.392 -0.3256  0.9699 -0.8300
  880MOL0     C18725   7.431   9.464  10.328  0.0854 -0.0315 -0.3377
  880MOL0     C18726   7.402   9.589  10.419 -0.1596 -0.0850  0.7012
  880MOL0     C18727   7.361   9.706  10.327 -0.3069 -0.2495 -0.2147
  880MOL0     C18728   7.224   9.701  10.274 -0.4171  0.1064 -1.0678
  880MOL0     C18729   7.118   9.693  10.219  0.5301 -0.0737 -0.6866
  880MOL0     C18730   7.669   9.315  10.647  1.0039 -0.3557 -0.0587
  880MOL0     C18731   7.801   9.284  10.677 -0.1339 -0.2848 -0.4407
  880MOL0     C18732   7.833   9.273  10.827  0.7225 -0.8127 -0.0110
  880MOL0     H18733   8.317   9.224  10.668  0.2221  0.6932  0.1497
  880MOL0     H18734   8.552   9.164  10.647 -0.0618  1.8922  0.1104
  880MOL0     H18735   8.748   9.103  10.569  0.9075  0.2719  0.0818
  880MOL0     H18736   8.831   8.958  10.508 -0.4919  0.3050  1.5524
  880MOL0     H18737   8.860   9.166  10.375  0.9762 -1.1847 -1.5515
  880MOL0     H18738   8.684   9.161  10.336 -1.1851 -2.4316  0.5330
  880MOL0     H18739   8.913   8.982  10.246 -0.1874  0.1083  1.4129
  880MOL0     H18740   8.814   9.073  10.141  0.0462 -2.1163 -0.8104
  880MOL0     H18741   8.700   8.820  10.292 -2.0346 -1.1223 -0.7806
  880MOL0     H18742   8.620   8.911  10.162 -0.5036 -1.2448 -0.8916
  880MOL0     H18743   8.698   8.724  10.051 -1.5498  2.2686 -1.3891
  880MOL0     H18744   8.780   8.861  10.002  0.7789 -2.6194 -1.0386
  880MOL0     H18745   8.970   8.797  10.155 -1.6483  0.9709 -1.4259
  880MOL0     H18746   8.874   8.658  10.220 -1.4242 -0.8814 -1.7078
  880MOL0     H18747   8.841   8.574   9.984  2.1474 -1.1403 -1.3133
  880MOL0     H18748   9.008   8.556  10.047  3.0772 -0.0990 -1.2977
  880MOL0     H18749   8.927   8.774   9.839 -2.7057 -4.2487 -2.2397
  880MOL0     H18750   9.079   8.753   9.924 -2.7294  2.1091  0.3911
  880MOL0     H18751   8.900   8.627   9.614 -0.1692  0.8686  0.4163
  880MOL0     H18752   8.996   8.343   9.456  0.1837 -0.3146 -2.7216
  880MOL0     H18753   8.986   8.504   9.410 -4.5771 -3.0309  1.4096
  880MOL0     H18754   9.230   8.345   9.502 -0.3464 -0.0328  0.6487
  880MOL0     H18755   9.194   8.370   9.329  0.6363 -2.7989  1.4790
  880MOL0     H18756   9.251   8.619   9.512  0.5818  1.3479 -0.8337
  880MOL0     H18757   9.205   8.611   9.347  1.0358 -0.0251  0.3512
  880MOL0     H18758   9.468   8.533   9.486 -0.1880 -0.6875 -0.4213
  880MOL0     H18759   9.458   8.634   9.348  1.0458  0.0783  1.6381
  880MOL0     H18760   9.524   8.198   9.248 -0.6924  1.8994 -0.9531
  880MOL0     H18761   9.770   8.115   9.219  1.0100 -0.6999  2.9783
  880MOL0     H18762  10.334   8.444   9.222 -3.4194 -1.0892 -3.4250
  880MOL0     H18763  10.550   8.337   9.207 -0.0444  1.3370  2.2472
  880MOL0     H18764  10.545   7.893   9.234 -1.0144  1.1639 -0.3569
  880MOL0     H18765  10.569   7.983   9.087  0.6739 -1.9277 -1.8494
  880MOL0     H18766  10.753   7.901   9.066 -1.2162  0.0291  0.3179
  880MOL0     H18767  10.820   8.015   9.181 -0.8554  0.6769  2.8206
  880MOL0     H18768  10.762   7.839   9.359 -0.6631  0.9809 -1.4587
  880MOL0     H18769  10.743   7.714   9.228 -2.3231 -1.5215  4.4294
  880MOL0     H18770  11.012   7.870   9.256  1.3111 -0.7006  0.9010
  880MOL0     H18771  10.965   7.750   9.153 -1.6413  0.7838 -0.6019
  880MOL0     H18772  10.983   7.708   9.444  3.8542 -1.6020  1.1158
  880MOL0     H18773  11.118   7.675   9.331 -0.0276  0.3765 -1.0675
  880MOL0     H18774  11.029   7.471   9.398  0.7752 -1.4261 -1.2657
  880MOL0     H18775  10.862   7.517   9.406 -0.5630 -1.5146 -1.1712
  880MOL0     H18776  10.872   7.487   9.149  1.7599 -1.3444 -4.1065
  880MOL0     H18777  10.931   7.348   9.252  0.2826  0.9352  1.9484
  880MOL0     H18778  11.147   7.417   9.251 -2.2642  0.0802  0.9157
  880MOL0     H18779  11.103   7.357   9.086  3.5798  1.0032 -2.4190
  880MOL0     H18780  10.367   7.971   9.339  1.1467  1.2796 -0.2443
  880MOL0     H18781  10.152   8.068   9.333 -0.3854 -0.4243 -1.2386
  880MOL0     H18782   9.910   8.513   9.330  0.5161  0.7524 -0.3114
  880MOL0     H18783   9.674   8.578   9.358 -2.7302 -1.1377 -0.6510
  880MOL0     H18784   8.442   8.883  10.345 -0.8787 -1.7581  1.6155
  880MOL0     H18785   8.201   8.948  10.370 -0.1738  0.6263  1.0535
  880MOL0     H18786   7.909   9.208  10.374  0.5876 -0.2294  1.4291
  880MOL0     H18787   7.687   9.261  10.303 -0.5557 -1.9707 -0.8372
  880MOL0     H18788   7.308   9.307  10.407 -0.5762  1.6054 -1.5028
  880MOL0     H18789   7.454   9.252  10.327 -3.6136 -0.0087 -1.8540
  880MOL0     H18790   7.372   9.464  10.236  2.8630 -3.8008 -2.3976
  880MOL0     H18791   7.536   9.470  10.297 -0.1090  1.4614 -0.7740
  880MOL0     H18792   7.490   9.617  10.477  1.1025 -0.6902 -0.8457
  880MOL0     H18793   7.326   9.563  10.493  1.5971 -2.7994  1.6853
  880MOL0     H18794   7.370   9.797  10.386 -1.3434  0.4313 -1.0711
  880MOL0     H18795   7.442   9.720  10.254 -1.0275 -1.1790 -1.2429
  880MOL0     H18796   7.019   9.701  10.180  0.1446 -0.6437  0.1385
  880MOL0     H18797   7.595   9.326  10.726  0.0270 -1.7647 -0.7296
  880MOL0     H18798   7.902   9.354  10.856  0.6432  0.0370 -1.9856
  880MOL0     H18799   7.735   9.290  10.873  0.2964 -1.3781 -0.6944
  880MOL0     H18800   7.867   9.175  10.861 -1.0073 -0.7311  2.1409
  881MOL0     O18801   3.265   5.589   9.876 -0.2515 -0.3243  0.6282
  881MOL0     C18802   3.276   5.469   9.878  1.1228  0.1086  1.3164
  881MOL0     O18803   3.369   5.404   9.804 -0.3363  0.2292 -0.0206
  881MOL0     C18804   3.457   5.480   9.735  0.3543 -0.6289 -0.2334
  881MOL0     C18805   3.564   5.543   9.806  0.7655  0.2672 -0.3501
  881MOL0     C18806   3.659   5.611   9.742 -0.4731 -0.4337  0.0917
  881MOL0     C18807   3.663   5.607   9.596  0.5011 -0.0572 -0.1130
  881MOL0     O18808   3.759   5.688   9.531  0.4976 -0.2012  0.0116
  881MOL0     C18809   3.814   5.646   9.409  0.1041  0.0144  0.2836
  881MOL0     C18810   3.916   5.752   9.361 -0.0798 -0.3654 -0.0720
  881MOL0     C18811   3.963   5.730   9.222  0.1353  0.1307  1.0139
  881MOL0     C18812   4.121   5.766   9.210  0.8273  0.1616 -0.4770
  881MOL0     C18813   4.186   5.761   9.068 -0.9954  0.1462 -0.4790
  881MOL0     C18814   4.337   5.768   9.086 -0.4193  0.6253 -0.3354
  881MOL0     C18815   4.417   5.786   8.954  0.6598  0.6731  0.0453
  881MOL0     C18816   4.404   5.935   8.908  0.4811 -0.3966 -0.7422
  881MOL0     N18817   4.468   5.944   8.787  0.2201  0.0827 -0.2598
  881MOL0     C18818   4.411   5.893   8.675 -0.1450  0.0192 -0.0502
  881MOL0     C18819   4.492   5.927   8.576  0.0038 -0.3919  0.6195
  881MOL0     C18820   4.475   5.875   8.433  0.2329 -0.2717 -0.6534
  881MOL0     C18821   4.591   5.897   8.335 -0.1220  0.6867  0.8675
  881MOL0     C18822   4.569   6.025   8.253  0.0913 -0.2158  0.7235
  881MOL0     C18823   4.629   6.013   8.114  0.5204  0.1908 -0.0217
  881MOL0     O18824   4.536   5.931   8.036  0.6264 -0.2385 -0.2811
  881MOL0     C18825   4.588   5.864   7.924  0.5106  1.0782  0.9578
  881MOL0     C18826   4.491   5.836   7.827  0.1496 -0.2212  0.6190
  881MOL0     C18827   4.539   5.771   7.708 -0.2140  0.7195 -0.1616
  881MOL0     C18828   4.669   5.733   7.677  0.0630 -0.0765 -0.2720
  881MOL0     C18829   4.704   5.679   7.549  0.4330 -0.3108  0.8789
  881MOL0     O18830   4.602   5.680   7.455 -0.2253 -0.2852  0.3762
  881MOL0     C18831   4.636   5.642   7.328 -0.1178  1.0639 -0.0189
  881MOL0     C18832   4.562   5.533   7.295  0.3857  0.5263  0.2151
  881MOL0     C18833   4.568   5.490   7.168 -0.2967 -0.0095 -0.0541
  881MOL0     C18834   4.645   5.559   7.074  0.2832  0.1798  0.2363
  881MOL0     O18835   4.636   5.500   6.950  0.3569  0.1930 -1.0591
  881MOL0     C18836   4.619   5.586   6.835 -0.0656  0.2937 -0.0073
  881MOL0     C18837   4.559   5.497   6.725  0.0998 -0.1943 -0.0675
  881MOL0     C18838   4.524   5.576   6.589 -0.4256 -0.5124 -0.8476
  881MOL0     C18839   4.465   5.492   6.476 -0.2582 -0.2111 -0.1795
  881MOL0     C18840   4.477   5.545   6.331 -0.7863 -0.5392 -0.4509
  881MOL0     C18841   4.396   5.470   6.229  0.2041  0.3798  0.0902
  881MOL0     C18842   4.446   5.510   6.083  0.2707  0.3790 -1.1375
  881MOL0     C18843   4.361   5.438   5.983 -1.0661  0.1357  0.4876
  881MOL0    Cl18844   4.403   5.478   5.815  0.0882  0.0845 -0.2322
  881MOL0     C18845   4.720   5.668   7.117 -0.0517  0.0647 -0.3316
  881MOL0     C18846   4.716   5.721   7.243  0.5899 -0.3448 -0.4029
  881MOL0     O18847   4.814   5.625   7.529  0.2731 -0.4658  0.6728
  881MOL0     C18848   4.756   5.749   7.782 -0.3472 -0.0900 -0.0827
  881MOL0     C18849   4.720   5.816   7.902  0.2837 -0.1830  0.5016
  881MOL0     N18850   4.611   5.984   8.631 -0.1663 -0.0613 -0.5652
  881MOL0     N18851   4.589   5.986   8.757  0.1793  0.4774  0.3052
  881MOL0     C18852   3.565   5.531   9.533  0.2645  0.6649  0.6924
  881MOL0     C18853   3.469   5.460   9.601 -0.2113 -0.9023  0.2949
  881MOL0     C18854   3.183   5.390   9.960  1.0148 -0.2094  0.2062
  881MOL0     C18855   3.144   5.444  10.083  0.2113  1.2665 -0.5765
  881MOL0     C18856   3.062   5.369  10.175 -0.0614  0.1400 -0.2333
  881MOL0     C18857   3.011   5.251  10.136 -0.7234 -0.2011 -0.3845
  881MOL0     O18858   2.929   5.171  10.208  0.4537 -0.2429  0.3972
  881MOL0     C18859   2.915   5.195  10.343 -0.5385  0.7131  0.2749
  881MOL0     C18860   2.818   5.101  10.417 -0.1312  1.7361  0.9671
  881MOL0     C18861   2.899   4.972  10.456  0.3271 -0.5909 -0.3076
  881MOL0     C18862   2.808   4.851  10.478 -0.2904  0.1601  0.5685
  881MOL0     C18863   2.701   4.876  10.572 -0.4351  0.5764 -0.1237
  881MOL0     C18864   2.613   4.906  10.644  0.6151 -0.2522  0.3578
  881MOL0     C18865   3.039   5.203  10.012  0.6441 -0.7440 -0.4981
  881MOL0     C18866   3.118   5.268   9.920  0.5036 -1.2461  0.4791
  881MOL0     C18867   3.132   5.211   9.778 -0.2739  0.5694 -0.1144
  881MOL0     H18868   3.556   5.556   9.914  0.2867 -0.6562 -0.2657
  881MOL0     H18869   3.723   5.676   9.800 -0.7886 -0.4151  0.4247
  881MOL0     H18870   3.862   5.548   9.412  0.0797  0.0086  0.5109
  881MOL0     H18871   3.731   5.636   9.338  0.4130 -3.1927  0.2323
  881MOL0     H18872   4.003   5.754   9.428 -0.4117 -2.6438  0.5176
  881MOL0     H18873   3.866   5.849   9.371  2.1699  1.1477 -2.3721
  881MOL0     H18874   3.901   5.785   9.151 -0.4946  1.1842  2.3384
  881MOL0     H18875   3.947   5.625   9.193  1.0703  0.5797 -1.4105
  881MOL0     H18876   4.143   5.867   9.246 -1.4076  1.0793 -1.5030
  881MOL0     H18877   4.184   5.712   9.281  1.1065  1.8956  0.6584
  881MOL0     H18878   4.173   5.665   9.018  1.3170 -0.8094  0.6095
  881MOL0     H18879   4.144   5.844   9.010 -3.8146 -0.6603  0.2720
  881MOL0     H18880   4.371   5.844   9.157  1.4767  0.8893 -1.4498
  881MOL0     H18881   4.377   5.684   9.143  2.4937  1.6241 -0.6843
  881MOL0     H18882   4.374   5.719   8.879 -0.5572  1.5376 -0.0668
  881MOL0     H18883   4.520   5.753   8.961  0.6214  0.3379 -0.8340
  881MOL0     H18884   4.296   5.951   8.899  0.1179 -2.7128 -1.0640
  881MOL0     H18885   4.447   6.004   8.982 -0.6497 -1.5057  1.0296
  881MOL0     H18886   4.313   5.846   8.670  0.3988 -1.0885 -0.8971
  881MOL0     H18887   4.456   5.769   8.452 -2.8355 -0.0926 -2.0573
  881MOL0     H18888   4.382   5.910   8.386  1.0659  1.0229 -1.4080
  881MOL0     H18889   4.690   5.894   8.382  0.7009  1.0497 -0.7430
  881MOL0     H18890   4.591   5.811   8.268  0.3613  0.8006  0.7152
  881MOL0     H18891   4.625   6.108   8.298  0.2205 -0.9464  1.9574
  881MOL0     H18892   4.467   6.066   8.245 -0.5660 -2.0575 -1.3069
  881MOL0     H18893   4.729   5.970   8.117  0.9183  0.9989 -1.0592
  881MOL0     H18894   4.646   6.111   8.070  2.8404 -0.0526  0.2523
  881MOL0     H18895   4.387   5.864   7.842 -0.0460 -0.7582  0.2807
  881MOL0     H18896   4.457   5.767   7.638  0.1790  1.0979 -0.6410
  881MOL0     H18897   4.500   5.490   7.373 -1.2190 -0.0033 -1.2777
  881MOL0     H18898   4.507   5.400   7.158  0.5095 -1.0255  3.1338
  881MOL0     H18899   4.544   5.660   6.865 -1.2728 -1.0304  0.3528
  881MOL0     H18900   4.710   5.640   6.808  1.2278 -2.5499 -1.7326
  881MOL0     H18901   4.629   5.415   6.706 -1.2922 -1.4672  0.0666
  881MOL0     H18902   4.466   5.460   6.770  1.0696 -2.2257  0.3532
  881MOL0     H18903   4.461   5.663   6.611 -0.7495 -0.9577  0.0423
  881MOL0     H18904   4.610   5.626   6.545 -0.0116 -0.6210 -0.1798
  881MOL0     H18905   4.360   5.470   6.499  0.0640 -1.8128 -0.1147
  881MOL0     H18906   4.515   5.394   6.472 -1.5033 -0.8439 -2.2043
  881MOL0     H18907   4.582   5.540   6.301 -0.6138  1.6758 -0.3934
  881MOL0     H18908   4.453   5.652   6.325 -0.7484 -0.3862  1.4721
  881MOL0     H18909   4.405   5.363   6.252 -0.0024  0.7728  2.2401
  881MOL0     H18910   4.290   5.484   6.253  0.3028 -0.3956  1.0331
  881MOL0     H18911   4.552   5.485   6.074  0.3829 -0.1851  1.2735
  881MOL0     H18912   4.442   5.617   6.058  2.8036  0.3128 -2.1572
  881MOL0     H18913   4.375   5.330   5.996 -2.6966 -0.2435 -0.5890
  881MOL0     H18914   4.258   5.461   6.010 -1.2066  2.0828 -1.4738
  881MOL0     H18915   4.772   5.725   7.040 -0.3600  0.0428 -0.5590
  881MOL0     H18916   4.775   5.806   7.277  0.1994 -0.3286  0.2365
  881MOL0     H18917   4.861   5.731   7.764  0.1945  2.1391  0.5071
  881MOL0     H18918   4.788   5.863   7.973 -2.6612  3.6168  1.1500
  881MOL0     H18919   3.554   5.541   9.426  1.8133  2.3684  0.6381
  881MOL0     H18920   3.383   5.417   9.551 -1.7486  0.6272  1.5302
  881MOL0     H18921   3.196   5.532  10.120  0.4051  0.6433  0.6845
  881MOL0     H18922   3.052   5.411  10.274 -1.4331  1.2238 -0.8018
  881MOL0     H18923   2.871   5.295  10.342  2.5176  2.1892 -1.5209
  881MOL0     H18924   3.004   5.211  10.405  0.5726  0.2501 -1.1478
  881MOL0     H18925   2.731   5.090  10.351  0.6143  1.1655  0.0640
  881MOL0     H18926   2.794   5.141  10.516  0.8685 -0.8895  2.3687
  881MOL0     H18927   2.961   5.000  10.542  2.8865  0.6712 -2.4267
  881MOL0     H18928   2.972   4.940  10.381  0.7323 -1.8225  0.5762
  881MOL0     H18929   2.770   4.800  10.389  0.1111  0.2390  0.3501
  881MOL0     H18930   2.878   4.772  10.509 -0.7636 -0.7371 -0.5955
  881MOL0     H18931   2.561   4.952  10.725  0.6649  1.6819 -0.6351
  881MOL0     H18932   2.994   5.110   9.978  0.5929  0.4051 -3.9399
  881MOL0     H18933   3.103   5.297   9.717 -0.9149  0.5060  0.0941
  881MOL0     H18934   3.233   5.170   9.775 -1.0996 -1.4829 -2.3716
  881MOL0     H18935   3.071   5.124   9.754  2.9302 -1.9455  0.1464
  882MOL0     O18936   9.249   3.693   2.354 -0.3359  0.6434  0.1695
  882MOL0     C18937   9.168   3.621   2.411 -0.4194 -0.5774  0.1716
  882MOL0     O18938   9.170   3.482   2.407  0.2779  0.1598 -0.1284
  882MOL0     C18939   9.278   3.424   2.353  0.3248  0.4769  0.0600
  882MOL0     C18940   9.277   3.392   2.213  0.0298 -0.4875  0.0917
  882MOL0     C18941   9.387   3.329   2.138  0.8904 -0.5278 -0.0442
  882MOL0     C18942   9.493   3.302   2.214  0.0764  0.2672  1.2887
  882MOL0     O18943   9.608   3.246   2.156 -0.2051 -0.6695 -0.9464
  882MOL0     C18944   9.674   3.331   2.062  1.3995 -0.2741  0.7671
  882MOL0     C18945   9.649   3.272   1.921  0.2557 -0.1088 -0.0429
  882MOL0     C18946   9.748   3.329   1.811 -0.1976 -0.4520 -0.7521
  882MOL0     C18947   9.748   3.229   1.691  0.6036 -0.7021 -0.0335
  882MOL0     C18948   9.872   3.252   1.606 -0.2699  0.4937 -0.2641
  882MOL0     C18949   9.878   3.392   1.548  0.6240  0.8521  0.7711
  882MOL0     C18950  10.003   3.410   1.457 -0.0102  0.1644  0.2604
  882MOL0     C18951  10.138   3.383   1.521 -0.8702  0.5573  0.1299
  882MOL0     N18952  10.255   3.389   1.429  0.7631 -0.2048 -0.8115
  882MOL0     C18953  10.299   3.285   1.346  0.0224  0.7650 -0.3242
  882MOL0     C18954  10.388   3.340   1.269 -0.3243  0.4640 -0.0276
  882MOL0     C18955  10.456   3.268   1.157  0.2626 -0.2579 -0.2759
  882MOL0     C18956  10.599   3.295   1.155 -0.4232  0.5390  0.8544
  882MOL0     C18957  10.664   3.216   1.271  0.2156 -0.1286  0.4832
  882MOL0     C18958  10.814   3.259   1.247 -0.1183 -0.2518  0.2872
  882MOL0     O18959  10.901   3.190   1.335 -0.1511 -0.1021 -0.6857
  882MOL0     C18960  11.019   3.241   1.373  0.5329 -0.2186  0.0987
  882MOL0     C18961  11.102   3.328   1.296  0.4161  0.2685  0.0684
  882MOL0     C18962  11.227   3.374   1.340 -0.8803  0.8526 -0.7030
  882MOL0     C18963  11.282   3.329   1.457  0.6895  0.3035 -0.7719
  882MOL0     C18964  11.415   3.381   1.501 -0.9067  0.0192 -0.5249
  882MOL0     O18965  11.472   3.485   1.427  0.2467  0.3900  0.9378
  882MOL0     C18966  11.599   3.519   1.458 -0.0202 -0.2331  0.0616
  882MOL0     C18967  11.702   3.498   1.367  0.2534  0.2221  0.7344
  882MOL0     C18968  11.837   3.540   1.393  0.2393  0.4919 -0.3339
  882MOL0     C18969  11.863   3.603   1.516  0.3573 -0.1455 -0.0442
  882MOL0     O18970  11.988   3.652   1.553  0.1854  0.1722 -0.4788
  882MOL0     C18971  12.067   3.702   1.444 -0.0468 -0.0268 -0.2298
  882MOL0     C18972  12.181   3.783   1.507  0.0757  0.2314  0.0669
  882MOL0     C18973  12.277   3.702   1.600 -0.6165  0.8010  0.8275
  882MOL0     C18974  12.411   3.770   1.618 -0.0419  0.0589 -0.3110
  882MOL0     C18975  12.510   3.689   1.708  0.5313  0.0043 -0.6506
  882MOL0     C18976  12.639   3.768   1.746 -0.1845 -0.1242 -0.6259
  882MOL0     C18977  12.608   3.877   1.848  0.6893 -0.3057 -0.1033
  882MOL0     C18978  12.723   3.976   1.850  0.2816  0.8566  0.1672
  882MOL0    Cl18979  12.688   4.115   1.965 -0.2272  0.0874 -0.3622
  882MOL0     C18980  11.761   3.624   1.615 -0.3893 -0.6990  0.8561
  882MOL0     C18981  11.630   3.573   1.585 -0.7193  0.6164 -0.0103
  882MOL0     O18982  11.481   3.316   1.583 -0.1265  0.1074  0.4855
  882MOL0     C18983  11.208   3.233   1.530  0.4491 -0.5683 -0.4902
  882MOL0     C18984  11.083   3.196   1.493  0.4633 -0.3620  0.2596
  882MOL0     N18985  10.394   3.475   1.294  0.0448 -0.1618 -0.7575
  882MOL0     N18986  10.321   3.504   1.400  1.4071  0.4900 -0.6658
  882MOL0     C18987   9.493   3.333   2.349 -0.2940  0.0975  0.4340
  882MOL0     C18988   9.391   3.389   2.424 -0.2016  0.4131  0.6607
  882MOL0     C18989   9.048   3.687   2.470 -0.3979 -0.7560  0.2027
  882MOL0     C18990   9.017   3.818   2.425 -0.7276  0.2458  0.3563
  882MOL0     C18991   8.904   3.884   2.465 -1.1072  0.4617 -1.1969
  882MOL0     C18992   8.831   3.822   2.575 -0.2507  0.6513  0.4425
  882MOL0     O18993   8.720   3.868   2.628 -0.0444 -0.1833 -0.6774
  882MOL0     C18994   8.631   3.929   2.541  0.4344  1.3315 -0.4097
  882MOL0     C18995   8.496   3.916   2.594 -0.0085  0.8925  0.3606
  882MOL0     C18996   8.471   3.767   2.641  0.5360  0.7051  0.9741
  882MOL0     C18997   8.326   3.723   2.640 -0.8178 -0.0496 -0.3183
  882MOL0     C18998   8.235   3.829   2.686 -0.1722  0.5501 -0.4365
  882MOL0     C18999   8.153   3.910   2.729 -0.4336  0.0691 -0.4159
  882MOL0     C19000   8.869   3.697   2.626  0.1920  0.2091 -1.0822
  882MOL0     C19001   8.978   3.635   2.583 -0.4482  0.3801  0.1817
  882MOL0     C19002   9.010   3.506   2.658  0.4501 -0.6848  0.2834
  882MOL0     H19003   9.177   3.412   2.175 -0.2576 -0.0776  1.0436
  882MOL0     H19004   9.379   3.304   2.032 -0.5521 -2.2749  0.4166
  882MOL0     H19005   9.632   3.432   2.063  1.9087 -0.0427  0.0895
  882MOL0     H19006   9.782   3.333   2.082  2.5293 -2.3169 -3.6769
  882MOL0     H19007   9.546   3.279   1.886 -0.4519 -0.0089  1.9114
  882MOL0     H19008   9.666   3.165   1.935 -0.4312 -0.3326 -0.8932
  882MOL0     H19009   9.850   3.333   1.850 -0.4691 -3.2901  0.5271
  882MOL0     H19010   9.703   3.426   1.786  1.0096 -0.1086 -1.7130
  882MOL0     H19011   9.749   3.126   1.729 -1.1794 -0.9226 -0.4657
  882MOL0     H19012   9.651   3.258   1.648  0.9581  1.3135  0.3970
  882MOL0     H19013   9.960   3.221   1.665 -1.3951  0.1817  1.3255
  882MOL0     H19014   9.865   3.178   1.526 -1.1317 -0.6740  0.8461
  882MOL0     H19015   9.781   3.404   1.499  0.3480 -0.6120  0.9392
  882MOL0     H19016   9.899   3.465   1.627 -0.4970 -0.5885  2.4731
  882MOL0     H19017   9.995   3.507   1.407 -0.1695  0.6279  1.1733
  882MOL0     H19018   9.992   3.337   1.376 -1.2859 -0.9385  1.3672
  882MOL0     H19019  10.163   3.462   1.592  1.0843  0.9035 -0.8717
  882MOL0     H19020  10.127   3.286   1.569  0.1632  0.1375 -0.4432
  882MOL0     H19021  10.261   3.184   1.337  3.2780 -0.4934 -1.3077
  882MOL0     H19022  10.441   3.160   1.147  4.1040 -0.8373 -1.6190
  882MOL0     H19023  10.426   3.303   1.057  0.6293 -1.7045 -0.9119
  882MOL0     H19024  10.642   3.262   1.060  0.0140 -0.6823  1.4575
  882MOL0     H19025  10.614   3.403   1.166 -4.1305  1.4868 -1.3823
  882MOL0     H19026  10.644   3.108   1.268  1.1825 -0.2963 -1.3555
  882MOL0     H19027  10.626   3.249   1.368  1.8181  1.2194  0.6758
  882MOL0     H19028  10.818   3.366   1.266 -3.5523 -0.2568  1.8698
  882MOL0     H19029  10.846   3.243   1.144 -1.6552 -2.5760  0.0915
  882MOL0     H19030  11.066   3.369   1.202  0.1583  0.0211  0.0562
  882MOL0     H19031  11.282   3.437   1.271  2.5316 -1.8395 -0.7182
  882MOL0     H19032  11.672   3.458   1.270 -0.4679 -0.6586  1.3061
  882MOL0     H19033  11.913   3.519   1.318 -1.1801 -0.2954 -1.6070
  882MOL0     H19034  12.110   3.622   1.384  1.6679  0.4746  0.2500
  882MOL0     H19035  12.014   3.777   1.385 -0.7040  2.9339  3.6462
  882MOL0     H19036  12.240   3.819   1.422 -1.1836  1.0700 -0.4859
  882MOL0     H19037  12.141   3.878   1.545 -2.2044 -0.3797 -0.6245
  882MOL0     H19038  12.227   3.690   1.697  1.5515  1.3101  2.0677
  882MOL0     H19039  12.293   3.603   1.555 -3.9926  0.5311 -0.0951
  882MOL0     H19040  12.398   3.870   1.659 -0.5210 -0.2682  0.3599
  882MOL0     H19041  12.467   3.783   1.525  2.4377 -2.5590  0.6802
  882MOL0     H19042  12.537   3.594   1.662 -0.9604 -2.4016  2.9320
  882MOL0     H19043  12.454   3.684   1.802 -1.4876 -0.0411 -1.8008
  882MOL0     H19044  12.707   3.708   1.806 -0.8468 -0.9927 -0.7241
  882MOL0     H19045  12.680   3.792   1.647  0.6992  0.9859 -0.0190
  882MOL0     H19046  12.594   3.842   1.950  1.3079 -1.1729 -0.3061
  882MOL0     H19047  12.517   3.928   1.816 -0.1123 -0.5929  1.6528
  882MOL0     H19048  12.809   3.926   1.895 -0.1679  0.1216  0.2333
  882MOL0     H19049  12.737   4.014   1.748  1.8082  2.7839  1.0290
  882MOL0     H19050  11.785   3.680   1.705 -3.3740  0.1304  1.2442
  882MOL0     H19051  11.548   3.579   1.656 -0.5027 -1.0974  0.4283
  882MOL0     H19052  11.244   3.183   1.619  1.2579 -0.1821 -0.5877
  882MOL0     H19053  11.033   3.118   1.549 -1.7993  1.9408  1.6104
  882MOL0     H19054   9.585   3.308   2.401 -0.3042 -0.4360  0.2024
  882MOL0     H19055   9.404   3.402   2.531 -0.8987 -0.8891  0.9237
  882MOL0     H19056   9.079   3.861   2.348 -1.0808 -0.6633 -0.4543
  882MOL0     H19057   8.876   3.981   2.425 -2.0331 -0.4159 -2.7722
  882MOL0     H19058   8.630   3.877   2.445  3.3275 -0.9631  0.6431
  882MOL0     H19059   8.650   4.034   2.515 -0.0928  1.8142  1.0555
  882MOL0     H19060   8.421   3.936   2.517 -1.9211 -1.5260  1.4664
  882MOL0     H19061   8.480   3.977   2.683 -1.5571  1.3072 -0.1714
  882MOL0     H19062   8.504   3.770   2.746 -0.6509  2.8515  1.3514
  882MOL0     H19063   8.520   3.693   2.577 -1.5268  3.1114 -3.8599
  882MOL0     H19064   8.292   3.719   2.536 -2.4108  2.7890 -0.0172
  882MOL0     H19065   8.316   3.625   2.688  0.4735  0.2547  0.6358
  882MOL0     H19066   8.088   3.984   2.771  2.9728  2.6723  0.6743
  882MOL0     H19067   8.818   3.647   2.707  0.8921 -0.7581 -1.2302
  882MOL0     H19068   9.018   3.428   2.582 -0.0992 -0.0113 -0.4781
  882MOL0     H19069   9.098   3.509   2.723  3.2914 -2.8277 -3.1290
  882MOL0     H19070   8.935   3.469   2.729 -0.0160  1.3569  0.9241
  883MOL0     O19071  10.425   9.626   6.818  0.3035  0.5440 -0.2234
  883MOL0     C19072  10.373   9.529   6.774 -1.0655  0.3231  0.1449
  883MOL0     O19073  10.398   9.472   6.645 -0.0751  0.2945  0.3390
  883MOL0     C19074  10.520   9.504   6.577  0.3865 -0.7520 -0.3433
  883MOL0     C19075  10.516   9.478   6.446  0.4540 -0.0022 -0.4745
  883MOL0     C19076  10.616   9.510   6.361 -0.4704  0.5818 -0.9351
  883MOL0     C19077  10.733   9.570   6.416 -0.0501 -0.8704  0.7562
  883MOL0     O19078  10.837   9.602   6.326 -0.0452 -0.0178  0.0560
  883MOL0     C19079  10.971   9.628   6.371 -0.2234  0.2013  0.3814
  883MOL0     C19080  11.040   9.505   6.430  0.5041  0.7034  0.7366
  883MOL0     C19081  11.176   9.524   6.495  0.3258  0.3570 -0.4786
  883MOL0     C19082  11.171   9.622   6.612  1.0524  0.1692 -0.5163
  883MOL0     C19083  11.216   9.766   6.565  0.1659  0.3727  0.2069
  883MOL0     C19084  11.213   9.879   6.673  0.0889 -0.6639  0.4002
  883MOL0     C19085  11.312   9.998   6.633  0.4689 -0.2940 -0.0762
  883MOL0     C19086  11.313  10.106   6.742 -0.9623  0.2134  0.5720
  883MOL0     N19087  11.353  10.061   6.875  0.3466 -0.5854 -0.3077
  883MOL0     C19088  11.473  10.011   6.918 -0.2942 -0.1161 -0.7065
  883MOL0     C19089  11.458  10.003   7.056  0.7505  0.4040 -0.2153
  883MOL0     C19090  11.561   9.928   7.136 -0.4104  0.1951 -0.6300
  883MOL0     C19091  11.660  10.003   7.221  0.7774  0.0975  0.5837
  883MOL0     C19092  11.785  10.026   7.137  0.2311  0.0498 -0.4626
  883MOL0     C19093  11.883  10.100   7.220 -0.2513  0.0308 -0.3966
  883MOL0     O19094  11.940  10.003   7.310 -0.0389 -0.1360 -0.1510
  883MOL0     C19095  12.050  10.036   7.387  0.8895 -0.0803 -0.1233
  883MOL0     C19096  12.115  10.164   7.404 -0.5106  0.3104 -0.7447
  883MOL0     C19097  12.236  10.175   7.474  0.1452  0.2203 -0.1773
  883MOL0     C19098  12.294  10.060   7.538  0.7951  0.0830  0.3805
  883MOL0     C19099  12.425  10.053   7.604  0.2396 -0.0926 -0.2931
  883MOL0     O19100  12.485  10.173   7.617 -0.4251  0.5032 -0.6224
  883MOL0     C19101  12.606  10.175   7.677 -1.1602 -0.3161  0.8665
  883MOL0     C19102  12.716  10.197   7.592  1.3645 -0.1614 -0.1325
  883MOL0     C19103  12.845  10.201   7.646 -0.2282 -0.6645  0.4759
  883MOL0     C19104  12.864  10.192   7.784  0.2481  0.5013 -0.3506
  883MOL0     O19105  12.979  10.211   7.854 -0.4718  0.0393  1.1949
  883MOL0     C19106  13.105  10.228   7.789  0.2713  0.9959 -1.0241
  883MOL0     C19107  13.210  10.284   7.890  0.0872  0.3262 -0.8118
  883MOL0     C19108  13.339  10.333   7.813 -0.6123 -0.8844  0.1287
  883MOL0     C19109  13.437  10.394   7.910  0.0138 -0.3281 -0.4788
  883MOL0     C19110  13.575  10.414   7.855  0.3137  0.1318 -0.7468
  883MOL0     C19111  13.677  10.422   7.970  0.4899 -0.0127  1.4891
  883MOL0     C19112  13.821  10.387   7.925  0.5886  0.0666 -0.0778
  883MOL0     C19113  13.904  10.501   7.886 -0.1416  0.1517 -0.8018
  883MOL0    Cl19114  14.084  10.462   7.896  0.0819  0.2215  0.0080
  883MOL0     C19115  12.755  10.166   7.867  0.1752  0.8360  0.2334
  883MOL0     C19116  12.625  10.171   7.817 -0.3463  0.7502  0.0118
  883MOL0     O19117  12.468   9.945   7.642 -0.2324  0.3938 -0.4608
  883MOL0     C19118  12.215   9.938   7.537 -0.0093  0.1207  0.0574
  883MOL0     C19119  12.098   9.930   7.462  0.4496 -0.8167 -0.7364
  883MOL0     N19120  11.327  10.040   7.095  0.0926  0.8587 -0.0516
  883MOL0     N19121  11.264  10.072   6.983  0.5145 -0.6666  0.8267
  883MOL0     C19122  10.746   9.591   6.557 -0.6278  0.0794 -0.0360
  883MOL0     C19123  10.637   9.563   6.634  0.3580 -0.2896 -0.6376
  883MOL0     C19124  10.265   9.471   6.859 -1.3453  0.4732 -1.2510
  883MOL0     C19125  10.235   9.331   6.850  0.0659 -0.4276  0.8477
  883MOL0     C19126  10.156   9.268   6.948  0.4336  0.8339  0.8346
  883MOL0     C19127  10.090   9.340   7.045 -0.2795  0.1082  0.0335
  883MOL0     O19128   9.989   9.291   7.126  0.6430  0.5223 -1.1979
  883MOL0     C19129   9.934   9.158   7.113  0.4812  0.2558 -0.6456
  883MOL0     C19130   9.873   9.117   6.974 -1.3245 -0.4555  0.0826
  883MOL0     C19131   9.772   9.224   6.915 -0.6444  0.4967 -0.0671
  883MOL0     C19132   9.669   9.270   7.012  1.1423  0.5317  0.4836
  883MOL0     C19133   9.551   9.178   7.019 -0.3611 -0.5894  0.3289
  883MOL0     C19134   9.456   9.108   7.016 -0.1128  0.0052 -0.5633
  883MOL0     C19135  10.126   9.479   7.055 -0.2549  0.1346 -0.2803
  883MOL0     C19136  10.209   9.539   6.966 -0.1049  0.3333 -0.4016
  883MOL0     C19137  10.239   9.685   7.000  0.4363 -0.6404 -0.2355
  883MOL0     H19138  10.420   9.438   6.417  0.2618  0.6377 -0.7351
  883MOL0     H19139  10.611   9.499   6.253  2.1138 -1.4578 -0.9168
  883MOL0     H19140  11.039   9.665   6.294 -0.0528 -0.6436  0.1126
  883MOL0     H19141  10.959   9.712   6.439 -1.8860  0.7949 -0.5813
  883MOL0     H19142  11.043   9.441   6.342 -0.2852  1.8634 -0.1677
  883MOL0     H19143  10.973   9.459   6.502 -3.3922 -0.2016 -3.0581
  883MOL0     H19144  11.253   9.563   6.428 -0.4657  0.0255 -1.6259
  883MOL0     H19145  11.193   9.423   6.534 -1.4725 -0.2300 -1.1151
  883MOL0     H19146  11.072   9.618   6.659  1.5903 -1.3480  0.5663
  883MOL0     H19147  11.240   9.586   6.689  0.9489  0.4809 -0.2727
  883MOL0     H19148  11.322   9.751   6.541 -0.0559  0.2639 -0.7629
  883MOL0     H19149  11.172   9.804   6.472  1.9962 -0.2828 -0.9683
  883MOL0     H19150  11.112   9.920   6.677  0.3759  0.0871  0.1483
  883MOL0     H19151  11.231   9.832   6.771 -1.5180 -1.0453  0.5405
  883MOL0     H19152  11.274  10.043   6.541 -2.4494 -0.6676  0.8491
  883MOL0     H19153  11.410   9.955   6.611 -0.3010 -0.8157 -2.7893
  883MOL0     H19154  11.361  10.202   6.719 -3.7233  1.5473 -0.1870
  883MOL0     H19155  11.208  10.129   6.765 -0.8307 -1.6097  3.5443
  883MOL0     H19156  11.555   9.969   6.861  1.7725  0.7670  1.4371
  883MOL0     H19157  11.512   9.859   7.206  3.7752 -1.0931  1.3556
  883MOL0     H19158  11.609   9.860   7.065  0.0584 -0.6046  0.4271
  883MOL0     H19159  11.625  10.099   7.258 -0.4976 -1.0398  2.4753
  883MOL0     H19160  11.674   9.941   7.310 -2.2365 -0.8671  0.5095
  883MOL0     H19161  11.775  10.066   7.035 -1.1407 -1.1113 -0.8237
  883MOL0     H19162  11.834   9.932   7.113  0.9091  1.2139 -4.5180
  883MOL0     H19163  11.844  10.185   7.278  2.4908  0.6937  0.6329
  883MOL0     H19164  11.966  10.131   7.156  2.4600  0.6217  3.0678
  883MOL0     H19165  12.079  10.254   7.355 -1.4561  0.1613 -0.3566
  883MOL0     H19166  12.284  10.271   7.482 -3.3402  1.9859  1.9315
  883MOL0     H19167  12.700  10.209   7.486 -3.8859 -0.6195  0.2978
  883MOL0     H19168  12.926  10.218   7.576  2.6230 -2.6992  2.9953
  883MOL0     H19169  13.150  10.131   7.765  0.5665  0.6040  0.9576
  883MOL0     H19170  13.096  10.294   7.701  1.9246  0.8244 -1.3698
  883MOL0     H19171  13.171  10.377   7.933  1.4851  0.5374  0.0837
  883MOL0     H19172  13.231  10.208   7.965  4.0362  1.7573 -0.2068
  883MOL0     H19173  13.386  10.252   7.757 -0.7483  0.7611 -2.5189
  883MOL0     H19174  13.313  10.407   7.737  2.1378  0.0789 -0.0032
  883MOL0     H19175  13.446  10.333   8.000 -4.1434  0.3537  0.5933
  883MOL0     H19176  13.397  10.492   7.939  0.9930 -0.3889  1.2117
  883MOL0     H19177  13.588  10.509   7.804  1.2911  1.6428  2.0691
  883MOL0     H19178  13.596  10.337   7.781  1.1796 -0.4205  0.0455
  883MOL0     H19179  13.669  10.519   8.021 -0.5034 -0.1999  1.6998
  883MOL0     H19180  13.652  10.354   8.052  0.2244  0.6638  1.9740
  883MOL0     H19181  13.818  10.319   7.839 -0.4067  0.0310 -0.0247
  883MOL0     H19182  13.874  10.340   8.009 -0.0218  0.7207  0.6872
  883MOL0     H19183  13.889  10.522   7.780  0.2448 -2.2604 -1.3876
  883MOL0     H19184  13.888  10.588   7.951  2.1735 -0.4889  0.7555
  883MOL0     H19185  12.765  10.155   7.974 -1.2874  1.3472  0.4361
  883MOL0     H19186  12.546  10.140   7.885  1.5310  0.0033  1.9535
  883MOL0     H19187  12.245   9.855   7.601 -2.2998 -0.0167  1.0322
  883MOL0     H19188  12.049   9.833   7.461  1.6414 -1.4761  0.6872
  883MOL0     H19189  10.834   9.633   6.604 -1.1061  0.7213  0.3031
  883MOL0     H19190  10.642   9.573   6.742  1.9717 -1.6570 -0.5341
  883MOL0     H19191  10.292   9.268   6.783  1.2938  1.8960 -0.4272
  883MOL0     H19192  10.141   9.162   6.933  3.1246  0.5919 -0.9785
  883MOL0     H19193   9.874   9.137   7.202  2.1705  1.3640  0.8322
  883MOL0     H19194  10.019   9.089   7.122 -0.3302 -0.4608  2.5605
  883MOL0     H19195   9.835   9.018   7.001  3.2627 -1.8547  2.4108
  883MOL0     H19196   9.948   9.081   6.903  0.2943  0.2409  1.3790
  883MOL0     H19197   9.717   9.179   6.832  0.6260  1.0325 -1.2354
  883MOL0     H19198   9.825   9.316   6.888  0.4586  0.3173  1.3564
  883MOL0     H19199   9.702   9.285   7.115  1.3413 -1.7646  0.8045
  883MOL0     H19200   9.633   9.364   6.969  1.1904 -0.3586 -1.6808
  883MOL0     H19201   9.366   9.050   7.027  1.3208 -2.3799 -0.6263
  883MOL0     H19202  10.082   9.525   7.143 -2.7856 -0.2780 -1.2326
  883MOL0     H19203  10.336   9.694   7.050  0.1254  1.1434  0.1067
  883MOL0     H19204  10.235   9.747   6.911  0.5740  0.9893  0.8554
  883MOL0     H19205  10.171   9.736   7.068  0.7269  1.4435 -1.4466
  884MOL0     O19206   6.963   8.374   9.528 -0.0068 -0.1542  0.3250
  884MOL0     C19207   6.858   8.316   9.499 -0.2595 -0.7768  0.3895
  884MOL0     O19208   6.847   8.200   9.430 -0.0232 -0.1569 -0.3409
  884MOL0     C19209   6.967   8.151   9.389 -0.3045  0.5583  0.4368
  884MOL0     C19210   7.004   8.030   9.451  0.6634 -0.6685 -0.4852
  884MOL0     C19211   7.127   7.973   9.420 -0.1526  0.6370 -0.3082
  884MOL0     C19212   7.204   8.032   9.318 -0.3928  0.0424 -0.2867
  884MOL0     O19213   7.317   7.983   9.254 -0.8276  0.5973 -0.9618
  884MOL0     C19214   7.365   7.858   9.316  0.7212 -0.6578  0.1482
  884MOL0     C19215   7.493   7.824   9.230 -0.2581 -0.1329  0.0021
  884MOL0     C19216   7.551   7.684   9.259  0.1476  0.0859  0.3379
  884MOL0     C19217   7.700   7.670   9.262 -0.2125 -0.7019  0.6963
  884MOL0     C19218   7.738   7.718   9.403 -0.4405 -0.4419 -0.0270
  884MOL0     C19219   7.873   7.795   9.409 -0.4751  0.0178  0.2716
  884MOL0     C19220   7.993   7.700   9.403  0.6482 -0.6753 -0.1802
  884MOL0     C19221   8.032   7.645   9.537  0.5150 -0.4305 -0.6146
  884MOL0     N19222   8.145   7.555   9.521 -0.1018 -0.2123 -0.5881
  884MOL0     C19223   8.278   7.597   9.496 -0.1557  0.4970 -0.5392
  884MOL0     C19224   8.339   7.477   9.468  0.9920  0.1226 -0.4127
  884MOL0     C19225   8.486   7.475   9.421 -0.6738  0.0803  0.1699
  884MOL0     C19226   8.592   7.483   9.530 -0.4267 -0.2212 -0.0901
  884MOL0     C19227   8.727   7.488   9.456  0.2808  0.7004  0.3365
  884MOL0     C19228   8.828   7.454   9.556 -0.2198  0.0265 -0.5148
  884MOL0     O19229   8.816   7.320   9.624  0.0686  0.2524 -0.4673
  884MOL0     C19230   8.929   7.270   9.684 -0.6005  0.3150  0.5609
  884MOL0     C19231   9.028   7.339   9.742  0.3183 -0.3645 -0.2569
  884MOL0     C19232   9.143   7.277   9.792  0.8328  0.1594 -1.2252
  884MOL0     C19233   9.154   7.133   9.786  0.4254 -1.2528 -0.2220
  884MOL0     C19234   9.277   7.067   9.825 -0.2826 -0.3474  0.1241
  884MOL0     O19235   9.376   7.135   9.898  0.7087  0.1736  0.0916
  884MOL0     C19236   9.487   7.071   9.930 -0.6074 -0.0393  0.6640
  884MOL0     C19237   9.532   7.086  10.057 -0.4584  0.1417  0.0524
  884MOL0     C19238   9.660   7.039  10.094 -0.5767  0.2058  0.6484
  884MOL0     C19239   9.753   6.989  10.008 -0.4952  0.4554  0.4100
  884MOL0     O19240   9.884   6.973  10.053 -0.0754 -0.3797  0.6919
  884MOL0     C19241   9.976   6.886   9.975 -0.2438 -0.0646 -0.0890
  884MOL0     C19242  10.099   6.857  10.059 -0.3790 -0.0154 -0.7329
  884MOL0     C19243  10.148   6.989  10.130 -0.2334  0.0847  1.2281
  884MOL0     C19244  10.300   6.980  10.168 -0.1784 -1.1104 -0.0241
  884MOL0     C19245  10.353   7.118  10.214  0.1227 -0.1350 -0.2623
  884MOL0     C19246  10.317   7.147  10.358  0.3284 -0.7176 -0.5532
  884MOL0     C19247  10.298   7.299  10.371  0.1206  1.1131 -0.2960
  884MOL0     C19248  10.298   7.357  10.517 -0.0141  0.0656 -0.0742
  884MOL0    Cl19249  10.154   7.298  10.610 -0.2101 -0.1022 -0.0497
  884MOL0     C19250   9.708   6.975   9.874  0.0202  0.1578  0.7087
  884MOL0     C19251   9.575   7.017   9.844  0.6053  1.0907  0.4390
  884MOL0     O19252   9.287   6.950   9.788 -0.6006  0.3244  0.6694
  884MOL0     C19253   9.043   7.064   9.737  0.0844 -0.1307  0.0633
  884MOL0     C19254   8.933   7.134   9.689 -0.4706  0.0344 -0.3687
  884MOL0     N19255   8.242   7.376   9.463  0.4332 -0.2351 -0.3970
  884MOL0     N19256   8.127   7.422   9.489  0.9438  0.2931 -0.5079
  884MOL0     C19257   7.165   8.150   9.263 -0.1705 -0.0154  1.1167
  884MOL0     C19258   7.047   8.220   9.297 -0.3455  0.3018  0.2817
  884MOL0     C19259   6.736   8.396   9.522  0.4268  0.3120  0.0245
  884MOL0     C19260   6.619   8.365   9.445 -0.6123  0.0550  0.6014
  884MOL0     C19261   6.500   8.438   9.463  0.2406 -1.4517 -0.0294
  884MOL0     C19262   6.487   8.541   9.561  0.5188  0.4570 -0.1921
  884MOL0     O19263   6.364   8.598   9.569  0.1138  0.5134 -0.5503
  884MOL0     C19264   6.343   8.690   9.676  1.0750 -0.0719  0.0427
  884MOL0     C19265   6.196   8.734   9.656  0.3857 -0.2341  0.3000
  884MOL0     C19266   6.150   8.840   9.758  0.1776 -0.0414 -0.4455
  884MOL0     C19267   6.003   8.889   9.738 -0.5809 -0.0665 -0.4153
  884MOL0     C19268   5.901   8.791   9.762 -0.3722  0.4327  0.8038
  884MOL0     C19269   5.814   8.712   9.788  0.3221  0.5808  0.3318
  884MOL0     C19270   6.597   8.563   9.638  0.3129  0.2643  0.0408
  884MOL0     C19271   6.716   8.487   9.627 -0.1566  0.2125 -1.1071
  884MOL0     C19272   6.828   8.518   9.724 -0.0434  0.7130 -0.6213
  884MOL0     H19273   6.942   7.987   9.528 -1.2281  0.9190 -1.0573
  884MOL0     H19274   7.151   7.874   9.456  0.4314 -0.6249 -3.8575
  884MOL0     H19275   7.384   7.851   9.424  0.3252 -2.9405  0.1218
  884MOL0     H19276   7.293   7.777   9.296  1.2852 -1.0208 -0.4382
  884MOL0     H19277   7.570   7.900   9.237  1.7542 -1.8381 -1.9591
  884MOL0     H19278   7.461   7.823   9.125  0.1308  1.9171 -0.1654
  884MOL0     H19279   7.511   7.615   9.184  0.1655  0.5384 -0.0939
  884MOL0     H19280   7.520   7.643   9.356 -2.2018 -0.2338 -0.4725
  884MOL0     H19281   7.738   7.569   9.240  2.5358 -0.0998  2.1304
  884MOL0     H19282   7.745   7.730   9.183 -1.0605 -1.0624 -0.0702
  884MOL0     H19283   7.666   7.794   9.434  0.8087  0.6373  0.2902
  884MOL0     H19284   7.743   7.633   9.471  2.4312 -1.1358 -0.9606
  884MOL0     H19285   7.876   7.868   9.328  0.7180 -0.8621 -0.5155
  884MOL0     H19286   7.872   7.842   9.508 -1.1204 -1.4437  0.9989
  884MOL0     H19287   8.080   7.754   9.363 -0.3873  1.4639  0.3170
  884MOL0     H19288   7.968   7.626   9.327 -1.3289  1.3985 -1.6896
  884MOL0     H19289   8.056   7.716   9.617  1.6752 -1.0421 -0.3890
  884MOL0     H19290   7.944   7.601   9.584  0.2969  1.3024  0.7127
  884MOL0     H19291   8.321   7.696   9.486 -1.0501  0.7676 -2.0080
  884MOL0     H19292   8.477   7.379   9.368 -1.4666 -0.5792  1.4489
  884MOL0     H19293   8.502   7.563   9.358 -1.2818 -0.1118 -0.2745
  884MOL0     H19294   8.571   7.569   9.594  0.8275  0.9046 -1.1304
  884MOL0     H19295   8.579   7.397   9.597 -2.1079  1.3102  1.6916
  884MOL0     H19296   8.742   7.582   9.402  0.6251  0.6026  0.2608
  884MOL0     H19297   8.733   7.403   9.387  0.4932  0.0562  1.1350
  884MOL0     H19298   8.827   7.528   9.637 -2.4037 -3.1436  2.6772
  884MOL0     H19299   8.921   7.465   9.499 -0.8335  0.2107 -1.5107
  884MOL0     H19300   9.020   7.447   9.747  5.0824  0.1481  1.0754
  884MOL0     H19301   9.226   7.330   9.839  1.4032  0.6344 -2.7120
  884MOL0     H19302   9.457   7.112  10.132 -0.9875 -2.5664  0.5847
  884MOL0     H19303   9.703   7.048  10.193 -0.7903 -0.2948  0.7869
  884MOL0     H19304   9.925   6.793   9.949 -1.4113  0.6006 -0.2497
  884MOL0     H19305  10.008   6.934   9.881  2.5934  2.1783  1.8212
  884MOL0     H19306  10.062   6.789  10.136 -1.8191  2.9971  1.4630
  884MOL0     H19307  10.179   6.815   9.998  0.4730  1.2024 -0.5079
  884MOL0     H19308  10.132   7.061  10.050  1.3459 -1.3221 -0.4180
  884MOL0     H19309  10.086   7.011  10.218  1.5018  0.4071  2.4109
  884MOL0     H19310  10.355   6.947  10.079 -1.7102 -1.5803 -0.8412
  884MOL0     H19311  10.301   6.903  10.246 -1.5134  0.1254  1.2880
  884MOL0     H19312  10.312   7.192  10.145  0.4371  0.6671  0.3981
  884MOL0     H19313  10.461   7.131  10.199 -0.4106  3.0967 -2.1773
  884MOL0     H19314  10.218   7.107  10.383  0.7126 -0.7413  1.0036
  884MOL0     H19315  10.392   7.114  10.429 -2.1722 -1.2011  2.0480
  884MOL0     H19316  10.192   7.309  10.345  0.4785  1.9482 -1.5445
  884MOL0     H19317  10.365   7.355  10.305 -0.3272  1.5966 -0.3477
  884MOL0     H19318  10.385   7.328  10.576  0.6659 -0.8098 -1.4750
  884MOL0     H19319  10.303   7.466  10.514  1.5509  0.0480  0.9211
  884MOL0     H19320   9.781   6.944   9.801  1.6675 -0.0073  2.3546
  884MOL0     H19321   9.545   7.027   9.740 -0.8270 -1.3988  0.5151
  884MOL0     H19322   9.053   6.957   9.719  0.2800  0.0104 -0.7207
  884MOL0     H19323   8.849   7.076   9.651 -0.1595 -1.4289  1.0906
  884MOL0     H19324   7.236   8.198   9.197  0.8290 -2.0175  0.6515
  884MOL0     H19325   7.015   8.317   9.260 -1.9469 -0.0200  0.7216
  884MOL0     H19326   6.625   8.287   9.369 -0.2512  0.1762  0.5051
  884MOL0     H19327   6.416   8.419   9.397  1.3509  2.9601 -3.1901
  884MOL0     H19328   6.416   8.771   9.670 -0.2757  1.2305  0.4293
  884MOL0     H19329   6.352   8.643   9.775 -1.5215  1.1048  0.9282
  884MOL0     H19330   6.134   8.644   9.650 -0.2682  0.0656  2.0250
  884MOL0     H19331   6.180   8.783   9.559 -1.5848 -2.6388 -0.7242
  884MOL0     H19332   6.219   8.924   9.747  0.4249  0.0432  1.5476
  884MOL0     H19333   6.159   8.803   9.860 -0.9051  0.8369 -0.0129
  884MOL0     H19334   5.972   8.983   9.784 -1.5618 -0.4553 -0.2496
  884MOL0     H19335   5.993   8.916   9.632  0.0226  3.5747  0.3035
  884MOL0     H19336   5.724   8.655   9.796  0.5705 -0.2179 -1.7856
  884MOL0     H19337   6.592   8.635   9.719  1.4979 -0.2094  0.5567
  884MOL0     H19338   6.791   8.574   9.811  0.3303  0.4698 -0.2999
  884MOL0     H19339   6.863   8.426   9.771 -1.9517 -1.0637 -2.4949
  884MOL0     H19340   6.905   8.578   9.675 -1.5439  2.5110 -0.8871
  885MOL0     O19341   0.035   0.824   4.782  0.4033 -0.4967  0.4977
  885MOL0     C19342   0.031   0.723   4.849  0.5313 -0.3178 -0.1289
  885MOL0     O19343   0.066   0.709   4.978 -0.2386 -0.2782 -1.0410
  885MOL0     C19344   0.168   0.783   5.030 -0.4950  0.0870  0.4600
  885MOL0     C19345   0.252   0.725   5.130  0.0304  0.8386 -0.0005
  885MOL0     C19346   0.361   0.792   5.188 -0.1677 -0.4122 -0.8379
  885MOL0     C19347   0.394   0.922   5.156 -0.3447  0.8821  0.5704
  885MOL0     O19348   0.497   0.988   5.216 -0.0703  0.5394 -0.2549
  885MOL0     C19349   0.503   1.125   5.184 -0.6333  0.1277 -0.2903
  885MOL0     C19350   0.605   1.147   5.066  0.5731  0.2488  0.4710
  885MOL0     C19351   0.745   1.120   5.128 -0.5527 -0.5566  0.3550
  885MOL0     C19352   0.851   1.161   5.037 -0.1346  0.9121  0.1587
  885MOL0     C19353   0.989   1.152   5.103  1.0327  0.0214  0.6262
  885MOL0     C19354   1.090   1.230   5.024 -0.5472 -0.1790  0.7112
  885MOL0     C19355   1.229   1.205   5.082  0.0099  0.3750 -0.1868
  885MOL0     C19356   1.341   1.302   5.031 -0.1208  0.5613  0.0207
  885MOL0     N19357   1.451   1.310   5.129 -0.7498 -0.0407 -0.1601
  885MOL0     C19358   1.530   1.208   5.177 -0.2226 -0.1376 -0.0178
  885MOL0     C19359   1.608   1.260   5.269  0.4317  0.0630 -0.2835
  885MOL0     C19360   1.695   1.184   5.360 -0.0818 -0.2358 -0.1319
  885MOL0     C19361   1.834   1.239   5.350 -0.1313  0.4192  0.7531
  885MOL0     C19362   1.926   1.208   5.468 -0.5902 -0.0262  0.1717
  885MOL0     C19363   2.068   1.265   5.449  0.4072 -0.4803  0.1966
  885MOL0     O19364   2.146   1.217   5.555  0.3129 -0.4045  0.5156
  885MOL0     C19365   2.284   1.210   5.549 -0.4653  0.2784 -0.1139
  885MOL0     C19366   2.367   1.283   5.457  0.4410  0.3869 -1.2154
  885MOL0     C19367   2.493   1.257   5.447 -0.0176  0.0872  0.2902
  885MOL0     C19368   2.555   1.165   5.534  0.1339 -0.3107  0.3904
  885MOL0     C19369   2.702   1.151   5.543 -1.3907 -0.3305 -0.1717
  885MOL0     O19370   2.755   1.062   5.634 -0.2175 -0.1907  0.2313
  885MOL0     C19371   2.890   1.064   5.659 -0.5903  0.0685  0.0548
  885MOL0     C19372   2.943   0.945   5.701  0.1677  1.0482 -0.3947
  885MOL0     C19373   3.082   0.925   5.742  0.8280  0.2238 -0.1109
  885MOL0     C19374   3.168   1.034   5.726 -0.4412  0.1495  1.0284
  885MOL0     O19375   3.303   1.020   5.751 -0.3664  0.5759  0.0763
  885MOL0     C19376   3.394   1.090   5.664  0.1612  0.3194 -0.0137
  885MOL0     C19377   3.378   1.049   5.512 -0.4667 -0.9221  0.0608
  885MOL0     C19378   3.463   0.928   5.484 -0.0495  0.3523  0.1789
  885MOL0     C19379   3.398   0.795   5.520 -0.4289  1.2193 -0.0528
  885MOL0     C19380   3.505   0.681   5.537  0.0958  0.3266 -1.1468
  885MOL0     C19381   3.570   0.636   5.406  0.4928  0.1165 -0.5561
  885MOL0     C19382   3.683   0.539   5.446 -0.2507 -0.4604  0.6558
  885MOL0     C19383   3.738   0.486   5.318 -0.9571  0.8319  0.4967
  885MOL0    Cl19384   3.848   0.347   5.365 -0.0631 -0.0496 -0.1143
  885MOL0     C19385   3.119   1.156   5.694  0.1427  0.8565 -0.3426
  885MOL0     C19386   2.987   1.173   5.662  0.3382 -0.0123  0.2626
  885MOL0     O19387   2.766   1.219   5.463 -0.2157 -0.3551  0.2910
  885MOL0     C19388   2.482   1.102   5.631 -0.1340 -0.4106  0.0759
  885MOL0     C19389   2.340   1.119   5.640 -0.9748  0.0015 -0.1765
  885MOL0     N19390   1.570   1.390   5.294 -0.2935  0.6127 -0.3682
  885MOL0     N19391   1.480   1.425   5.203  0.2191 -0.1179  0.9006
  885MOL0     C19392   0.322   0.976   5.043 -0.2029 -0.1653 -0.8421
  885MOL0     C19393   0.207   0.912   4.987 -0.1670  0.4745  0.1907
  885MOL0     C19394  -0.048   0.614   4.795  0.5766 -0.2230 -0.0967
  885MOL0     C19395  -0.165   0.626   4.714  0.6046  0.3071 -1.0306
  885MOL0     C19396  -0.260   0.525   4.692 -0.0940 -0.0256 -0.2181
  885MOL0     C19397  -0.221   0.399   4.735  0.2110  0.0656  0.0393
  885MOL0     O19398  -0.298   0.286   4.716 -0.1731  0.3346 -0.2787
  885MOL0     C19399  -0.440   0.296   4.691 -0.2461 -0.8261  0.4816
  885MOL0     C19400  -0.524   0.166   4.676  0.8161  0.1411  0.0862
  885MOL0     C19401  -0.675   0.181   4.635 -0.0003  0.0522  0.2097
  885MOL0     C19402  -0.690   0.238   4.491  1.1252 -0.3938 -0.6493
  885MOL0     C19403  -0.822   0.223   4.421 -0.7156 -0.4206  0.0577
  885MOL0     C19404  -0.936   0.210   4.386  0.4257 -0.0995  0.3163
  885MOL0     C19405  -0.101   0.382   4.803  0.1227  0.1611  0.6497
  885MOL0     C19406  -0.017   0.488   4.835 -0.6206  0.2832 -0.4353
  885MOL0     C19407   0.119   0.454   4.899 -0.6874 -0.4990 -0.0484
  885MOL0     H19408   0.227   0.629   5.174  0.5369  1.6870  2.3213
  885MOL0     H19409   0.423   0.745   5.264 -0.4158 -0.3111 -0.5714
  885MOL0     H19410   0.414   1.178   5.150 -0.8266  0.3666  0.5790
  885MOL0     H19411   0.545   1.178   5.269 -1.2416 -1.0211  0.7495
  885MOL0     H19412   0.596   1.251   5.034 -4.0687  1.4319  4.4913
  885MOL0     H19413   0.581   1.097   4.971  1.7484 -0.8628  0.7253
  885MOL0     H19414   0.762   1.012   5.136  0.7735 -0.5283 -1.4320
  885MOL0     H19415   0.755   1.166   5.226 -0.1827  3.0539 -1.2355
  885MOL0     H19416   0.845   1.102   4.945  2.3168 -2.4887  1.9226
  885MOL0     H19417   0.838   1.263   5.001  1.3267  1.1539  0.2679
  885MOL0     H19418   0.985   1.176   5.209  2.2460  0.9581  0.4885
  885MOL0     H19419   1.017   1.047   5.090 -2.1991 -0.7503 -1.2285
  885MOL0     H19420   1.089   1.201   4.919  0.5130 -2.0152  1.1729
  885MOL0     H19421   1.071   1.337   5.038  0.1878  0.0684 -0.1398
  885MOL0     H19422   1.261   1.102   5.061 -2.1406 -0.5438  0.7771
  885MOL0     H19423   1.233   1.222   5.190  3.1517 -2.3216  0.2870
  885MOL0     H19424   1.383   1.281   4.933  0.3615 -0.7064  0.4879
  885MOL0     H19425   1.293   1.401   5.026  0.8060  1.0341  0.3127
  885MOL0     H19426   1.534   1.103   5.151 -1.5113  0.2374 -1.9568
  885MOL0     H19427   1.658   1.188   5.463 -1.3286  2.3361 -0.6065
  885MOL0     H19428   1.702   1.077   5.339  3.1988  0.1394 -1.5790
  885MOL0     H19429   1.889   1.207   5.260  1.4408 -0.6074  2.0271
  885MOL0     H19430   1.826   1.348   5.361 -1.3007  0.2558  1.6131
  885MOL0     H19431   1.948   1.102   5.483 -0.5755  0.0353  0.6032
  885MOL0     H19432   1.894   1.259   5.560  3.4033  1.1263  1.1562
  885MOL0     H19433   2.065   1.374   5.453  4.2710 -0.1068 -1.9902
  885MOL0     H19434   2.116   1.239   5.354  0.0857  0.6142 -0.2858
  885MOL0     H19435   2.313   1.357   5.400 -1.9229  0.5027  0.9690
  885MOL0     H19436   2.542   1.314   5.369 -0.6267 -1.5997 -1.3981
  885MOL0     H19437   2.881   0.857   5.710 -1.0525  1.9961  1.0141
  885MOL0     H19438   3.120   0.825   5.760  1.3783 -0.0488 -2.4752
  885MOL0     H19439   3.384   1.197   5.683 -2.9667 -0.0136  0.7267
  885MOL0     H19440   3.495   1.057   5.690 -0.6173 -0.4642  2.2456
  885MOL0     H19441   3.271   1.042   5.492 -0.9112  1.5589  1.1199
  885MOL0     H19442   3.421   1.131   5.453 -1.4558  0.0127  0.5931
  885MOL0     H19443   3.481   0.929   5.377  4.3534 -0.3539  0.7196
  885MOL0     H19444   3.566   0.927   5.521  0.8257 -1.1308 -2.0918
  885MOL0     H19445   3.313   0.771   5.456 -2.9722 -3.1298  4.2890
  885MOL0     H19446   3.356   0.817   5.618 -1.9341  2.5154 -0.9480
  885MOL0     H19447   3.459   0.595   5.588  2.2768 -0.6748 -0.7535
  885MOL0     H19448   3.581   0.720   5.605 -0.7969  0.3405 -0.1307
  885MOL0     H19449   3.497   0.582   5.344  0.7987 -0.9875  0.0131
  885MOL0     H19450   3.603   0.723   5.349  2.0046 -0.1483 -0.1434
  885MOL0     H19451   3.643   0.455   5.503 -3.2926  0.1076 -0.3965
  885MOL0     H19452   3.755   0.595   5.505 -2.0791 -1.1018  3.6865
  885MOL0     H19453   3.655   0.454   5.255  1.5923 -2.3648 -1.5495
  885MOL0     H19454   3.798   0.568   5.277  0.5510 -0.5323 -0.1261
  885MOL0     H19455   3.175   1.248   5.710  0.9551  0.8700 -2.8859
  885MOL0     H19456   2.946   1.270   5.634  0.0363  0.4040  2.0233
  885MOL0     H19457   2.528   1.031   5.700  0.9598 -1.7893 -1.9550
  885MOL0     H19458   2.282   1.078   5.722 -3.0613  0.3155 -1.4174
  885MOL0     H19459   0.342   1.071   4.995  2.8154 -0.4021 -0.2246
  885MOL0     H19460   0.140   0.971   4.926 -1.0059  2.4509  2.8411
  885MOL0     H19461  -0.185   0.727   4.680  1.1419  1.3112  1.4065
  885MOL0     H19462  -0.347   0.559   4.637 -0.8267  2.2635  2.1537
  885MOL0     H19463  -0.449   0.352   4.597  1.1745  0.3496  0.9893
  885MOL0     H19464  -0.482   0.345   4.779  1.2958  1.7554 -0.0922
  885MOL0     H19465  -0.516   0.121   4.775  1.3028  1.2390  0.5589
  885MOL0     H19466  -0.473   0.095   4.610 -0.0054  1.4498 -2.0849
  885MOL0     H19467  -0.725   0.235   4.716  1.6659  1.0758  0.6066
  885MOL0     H19468  -0.733   0.088   4.638 -0.5886  0.4444  2.3041
  885MOL0     H19469  -0.672   0.346   4.482  0.4892 -0.0813  1.3401
  885MOL0     H19470  -0.610   0.190   4.435 -0.7427 -3.3640 -1.0129
  885MOL0     H19471  -1.035   0.203   4.347  0.6509  0.8505 -0.4774
  885MOL0     H19472  -0.073   0.282   4.833  1.6562  0.4112  0.1398
  885MOL0     H19473   0.107   0.451   5.008 -1.4658  1.6601 -0.0100
  885MOL0     H19474   0.156   0.358   4.862 -0.0155 -0.0296 -0.6208
  885MOL0     H19475   0.195   0.532   4.888 -1.1722 -0.1380 -0.9372
  886MOL0     O19476   3.781   6.072   1.852 -0.5597 -0.1947  0.5288
  886MOL0     C19477   3.696   6.126   1.927 -0.1904  0.6558  0.0730
  886MOL0     O19478   3.725   6.220   2.018 -0.8784  0.4786 -0.5696
  886MOL0     C19479   3.843   6.289   2.010 -0.1156  0.5089 -0.6764
  886MOL0     C19480   3.887   6.330   2.130 -0.0332  0.5531 -0.5392
  886MOL0     C19481   3.999   6.412   2.151 -0.0793  0.0653 -0.1358
  886MOL0     C19482   4.075   6.437   2.040  0.5937  0.2879  0.3660
  886MOL0     O19483   4.202   6.505   2.057 -0.5546 -0.3396 -0.3252
  886MOL0     C19484   4.212   6.620   1.969  0.7132  0.4833 -0.4352
  886MOL0     C19485   4.358   6.646   1.934  0.5176 -0.3874 -0.0197
  886MOL0     C19486   4.360   6.763   1.841  0.5155  0.5528  0.2109
  886MOL0     C19487   4.506   6.801   1.812 -0.1558 -0.0393  0.2397
  886MOL0     C19488   4.518   6.927   1.726  0.1489 -0.3406 -0.0707
  886MOL0     C19489   4.660   6.937   1.661 -0.3533 -0.5291 -0.1795
  886MOL0     C19490   4.748   7.042   1.727 -0.3261 -0.5397 -0.5312
  886MOL0     C19491   4.894   7.032   1.680 -0.1839 -0.3467 -0.4485
  886MOL0     N19492   4.977   7.145   1.736 -0.0830 -0.2115 -0.0584
  886MOL0     C19493   4.954   7.279   1.706 -0.4667 -0.5443 -0.6550
  886MOL0     C19494   5.063   7.348   1.738  0.5296 -0.3803  0.3556
  886MOL0     C19495   5.079   7.494   1.712 -0.1056  0.8948 -0.3720
  886MOL0     C19496   5.222   7.526   1.662 -0.2469 -0.6106  0.1230
  886MOL0     C19497   5.286   7.653   1.730 -0.4445 -0.1983  0.6425
  886MOL0     C19498   5.421   7.673   1.664 -1.0063  0.1504  0.7043
  886MOL0     O19499   5.518   7.575   1.721  0.0791  0.1427 -0.2241
  886MOL0     C19500   5.647   7.569   1.660  0.1795  0.1992 -0.0896
  886MOL0     C19501   5.735   7.470   1.707  0.2112 -0.0581 -0.0608
  886MOL0     C19502   5.856   7.463   1.644 -0.4846  0.5840 -0.1480
  886MOL0     C19503   5.902   7.562   1.555 -0.6716 -0.5812 -0.2914
  886MOL0     C19504   6.041   7.550   1.507  0.0951 -0.6929  0.9518
  886MOL0     O19505   6.088   7.645   1.436  0.0134  0.9569  0.0190
  886MOL0     C19506   6.223   7.656   1.415  0.1051 -0.4841 -0.0676
  886MOL0     C19507   6.255   7.693   1.286 -0.3747  0.8490 -0.9448
  886MOL0     C19508   6.388   7.723   1.260 -0.0176 -1.2743 -0.5431
  886MOL0     C19509   6.486   7.715   1.363  0.3470  0.4512 -0.4122
  886MOL0     O19510   6.617   7.745   1.340  0.3086 -0.3106 -0.6046
  886MOL0     C19511   6.664   7.733   1.207  0.3180  0.4141  0.1797
  886MOL0     C19512   6.808   7.780   1.219 -0.3867  0.1261  0.8722
  886MOL0     C19513   6.899   7.666   1.258  0.0203  0.2342  0.6891
  886MOL0     C19514   7.051   7.698   1.233 -0.3584  0.4141  0.5764
  886MOL0     C19515   7.139   7.571   1.262  0.1162 -0.4580 -0.8615
  886MOL0     C19516   7.291   7.618   1.262  0.2524  0.8002  0.0434
  886MOL0     C19517   7.379   7.496   1.279  0.1242 -0.0775  0.0024
  886MOL0     C19518   7.520   7.545   1.295 -0.2207 -0.8551 -0.2127
  886MOL0    Cl19519   7.645   7.409   1.310  0.5357  0.0252 -0.2301
  886MOL0     C19520   6.452   7.677   1.493  0.4373 -0.6994 -0.0538
  886MOL0     C19521   6.316   7.650   1.519 -1.0332 -0.5803 -0.0111
  886MOL0     O19522   6.108   7.452   1.537  0.6854 -0.2057  0.5786
  886MOL0     C19523   5.818   7.664   1.515  0.3082  0.3997  0.4901
  886MOL0     C19524   5.692   7.669   1.571 -0.1276  0.0488 -0.2289
  886MOL0     N19525   5.157   7.262   1.790 -0.1965 -0.1867 -0.0373
  886MOL0     N19526   5.101   7.141   1.801  0.3702 -0.9212 -0.8594
  886MOL0     C19527   4.038   6.383   1.905  0.4239 -0.0129 -1.4074
  886MOL0     C19528   3.921   6.314   1.895  1.0606  0.0252  0.7092
  886MOL0     C19529   3.564   6.072   1.915  0.3264  0.6064 -0.4727
  886MOL0     C19530   3.485   6.062   2.029 -0.2150 -0.1487  0.1536
  886MOL0     C19531   3.363   5.995   2.032 -0.2334  0.0496 -0.3967
  886MOL0     C19532   3.315   5.946   1.910  0.6409  0.0252  0.2259
  886MOL0     O19533   3.194   5.877   1.885 -0.0352  0.0817  0.0484
  886MOL0     C19534   3.107   5.843   2.004  0.0326 -0.0715  0.4531
  886MOL0     C19535   2.998   5.950   2.018  0.1838 -0.1141  0.2853
  886MOL0     C19536   2.908   5.969   1.898  0.1922  0.7269 -0.4989
  886MOL0     C19537   2.808   6.081   1.909  0.1332 -0.1540  1.3655
  886MOL0     C19538   2.724   6.098   2.032  0.6586  0.4376  0.4462
  886MOL0     C19539   2.632   6.095   2.103 -0.0801  0.1586 -0.2866
  886MOL0     C19540   3.381   5.972   1.793 -0.3218  0.0157  0.2794
  886MOL0     C19541   3.508   6.033   1.787  0.6672 -0.1356 -0.1962
  886MOL0     C19542   3.576   6.055   1.656  0.4217 -0.4832 -0.3059
  886MOL0     H19543   3.829   6.292   2.214 -0.7033  0.2960 -1.1149
  886MOL0     H19544   4.026   6.435   2.254 -0.7219  0.4645 -0.0521
  886MOL0     H19545   4.160   6.607   1.873  0.6340 -1.8559 -0.1307
  886MOL0     H19546   4.170   6.703   2.028 -0.5987 -1.2910  1.2473
  886MOL0     H19547   4.397   6.553   1.892 -0.5907 -2.3341  2.9246
  886MOL0     H19548   4.408   6.661   2.031 -0.7604 -1.6830  0.8849
  886MOL0     H19549   4.297   6.843   1.881 -2.7196 -2.2044  1.0675
  886MOL0     H19550   4.308   6.748   1.746 -0.7999  1.2749  0.7843
  886MOL0     H19551   4.560   6.806   1.907  0.3934 -1.1468  0.0025
  886MOL0     H19552   4.557   6.719   1.761  0.5748  0.0723  0.7772
  886MOL0     H19553   4.451   6.916   1.639 -1.2852  0.8588  0.8373
  886MOL0     H19554   4.489   7.016   1.783  1.9952 -0.2431  0.7655
  886MOL0     H19555   4.722   6.847   1.659  2.6792  1.4189 -2.0339
  886MOL0     H19556   4.649   6.972   1.558  0.1922  1.4243  0.3856
  886MOL0     H19557   4.742   7.028   1.836  0.0288 -0.2536 -0.4711
  886MOL0     H19558   4.700   7.137   1.700  0.5004 -0.6784 -2.6096
  886MOL0     H19559   4.941   6.935   1.699  0.6754  0.3100  0.9245
  886MOL0     H19560   4.876   7.051   1.573 -0.3759 -0.2570 -0.4001
  886MOL0     H19561   4.864   7.321   1.663  1.0424 -0.0065 -3.5666
  886MOL0     H19562   5.024   7.520   1.622  0.5828  1.2856 -0.6871
  886MOL0     H19563   5.051   7.561   1.793  1.3831  2.0618 -0.7787
  886MOL0     H19564   5.293   7.443   1.672 -0.3898 -0.6542  0.8340
  886MOL0     H19565   5.208   7.556   1.558 -0.6626  0.2496  0.4187
  886MOL0     H19566   5.291   7.641   1.839  0.3710  0.4958  0.6951
  886MOL0     H19567   5.242   7.751   1.706  2.0278  0.9368  0.4421
  886MOL0     H19568   5.465   7.771   1.683  2.8232 -1.8189  3.3398
  886MOL0     H19569   5.407   7.657   1.557  4.1260  2.0000 -0.5286
  886MOL0     H19570   5.709   7.394   1.780 -0.4362  1.8515  1.8292
  886MOL0     H19571   5.914   7.371   1.647  0.5326  1.2096 -0.3395
  886MOL0     H19572   6.177   7.715   1.213 -2.0695 -3.0161 -0.5174
  886MOL0     H19573   6.397   7.764   1.160  0.0710  0.2667  0.0674
  886MOL0     H19574   6.642   7.631   1.175 -2.4695  0.7961  0.6330
  886MOL0     H19575   6.613   7.800   1.137 -1.3410 -3.1983 -2.3516
  886MOL0     H19576   6.842   7.814   1.121  2.6336  0.5974  1.9672
  886MOL0     H19577   6.813   7.861   1.294  1.1481  1.4602 -0.5743
  886MOL0     H19578   6.894   7.629   1.362  0.5301 -4.2699 -0.6669
  886MOL0     H19579   6.877   7.585   1.189  1.5327  1.5703 -1.4650
  886MOL0     H19580   7.075   7.772   1.311  0.7509 -0.4574  1.0929
  886MOL0     H19581   7.069   7.743   1.135  1.3960 -0.3148  0.5197
  886MOL0     H19582   7.115   7.505   1.178  0.0127  0.4485 -1.5583
  886MOL0     H19583   7.113   7.528   1.359  2.1134  3.2765  1.5734
  886MOL0     H19584   7.308   7.660   1.163 -3.1212  1.1454 -0.4769
  886MOL0     H19585   7.293   7.685   1.348 -0.5228 -1.1375  1.6587
  886MOL0     H19586   7.381   7.424   1.197  1.3180  0.2284 -0.2619
  886MOL0     H19587   7.348   7.444   1.370 -1.6499 -1.2733 -1.2474
  886MOL0     H19588   7.553   7.624   1.227  0.4979  0.3171  1.4251
  886MOL0     H19589   7.520   7.606   1.386 -1.4722  2.0105 -2.0032
  886MOL0     H19590   6.523   7.657   1.572  0.7291  1.3337  0.2546
  886MOL0     H19591   6.284   7.644   1.622 -0.7217 -1.7168  0.0394
  886MOL0     H19592   5.850   7.720   1.428  1.5255 -1.4331 -0.3242
  886MOL0     H19593   5.628   7.750   1.536  1.6690  2.0683  0.9330
  886MOL0     H19594   4.107   6.382   1.821  2.6083 -0.6447  0.2827
  886MOL0     H19595   3.883   6.284   1.797  0.1932  1.6010  0.5252
  886MOL0     H19596   3.541   6.096   2.116 -1.7105 -0.3283  1.2217
  886MOL0     H19597   3.309   5.975   2.125  1.0358 -2.3381 -0.0912
  886MOL0     H19598   3.165   5.839   2.097  0.6720 -1.0075  0.0328
  886MOL0     H19599   3.058   5.745   2.001 -1.7862  0.7742  0.8002
  886MOL0     H19600   3.052   6.042   2.040  1.9138 -1.3144  1.3283
  886MOL0     H19601   2.943   5.933   2.111 -0.4839  2.1230  0.3510
  886MOL0     H19602   2.848   5.879   1.882 -0.1352  0.7205  0.7168
  886MOL0     H19603   2.963   5.988   1.805 -0.2154  3.1504 -0.3013
  886MOL0     H19604   2.854   6.176   1.881  1.2911 -1.2413 -0.6573
  886MOL0     H19605   2.742   6.070   1.822 -2.3773 -0.4526  3.1853
  886MOL0     H19606   2.545   6.092   2.166 -1.1989 -1.4734 -1.7796
  886MOL0     H19607   3.337   5.927   1.704 -0.6986 -2.9025  1.8537
  886MOL0     H19608   3.512   6.077   1.571  0.5412 -1.6502 -0.7049
  886MOL0     H19609   3.637   6.146   1.656  0.0568 -0.0696 -4.2028
  886MOL0     H19610   3.635   5.969   1.624  4.1513  1.1121  1.6315
  887MOL0     O19611   0.947   8.821   1.462  0.6672  0.1453 -0.4814
  887MOL0     C19612   0.910   8.938   1.467 -0.7487 -0.4970  0.3592
  887MOL0     O19613   1.003   9.051   1.465 -0.4131  0.1367  0.4328
  887MOL0     C19614   1.135   9.016   1.462 -1.0674 -0.3357  0.1473
  887MOL0     C19615   1.185   8.979   1.340 -0.6602  0.3845  0.6655
  887MOL0     C19616   1.320   8.940   1.327  0.8887 -0.1869  0.1658
  887MOL0     C19617   1.405   8.938   1.437  1.1537 -0.5183 -0.3777
  887MOL0     O19618   1.537   8.898   1.448  0.2579 -0.4672 -0.3458
  887MOL0     C19619   1.622   8.933   1.338  1.1336 -1.1461 -0.0529
  887MOL0     C19620   1.636   9.086   1.316  0.6628 -0.1014  0.3549
  887MOL0     C19621   1.699   9.158   1.441  0.3127  0.2082  0.2633
  887MOL0     C19622   1.837   9.117   1.477 -1.1409  0.1143  0.3094
  887MOL0     C19623   1.945   9.148   1.367  0.3896  0.2151  0.5386
  887MOL0     C19624   2.092   9.168   1.421 -0.6765  0.0891  0.2116
  887MOL0     C19625   2.202   9.134   1.313  0.2318 -0.5491  0.4427
  887MOL0     C19626   2.212   9.236   1.202  0.0060 -0.4962 -0.2439
  887MOL0     N19627   2.250   9.373   1.253 -0.8749 -0.9945  0.5381
  887MOL0     C19628   2.169   9.483   1.251 -0.5428 -0.7301 -0.3479
  887MOL0     C19629   2.246   9.587   1.293  0.2309  0.1458  0.4553
  887MOL0     C19630   2.187   9.720   1.318  0.2879 -0.4804 -0.3921
  887MOL0     C19631   2.211   9.831   1.211  0.5983 -0.2962 -0.2985
  887MOL0     C19632   2.181   9.792   1.066 -0.1096  0.5156  0.5091
  887MOL0     C19633   2.198   9.913   0.964 -0.3574  0.3240 -1.5081
  887MOL0     O19634   2.093  10.013   0.967 -0.1597 -0.3649  0.0194
  887MOL0     C19635   1.969   9.979   0.919 -0.2169 -0.3032  0.7986
  887MOL0     C19636   1.934   9.851   0.862 -0.1241  0.2514 -0.5179
  887MOL0     C19637   1.799   9.822   0.829  0.3474 -0.3018  0.5476
  887MOL0     C19638   1.703   9.921   0.847  0.2647  0.0726  0.0713
  887MOL0     C19639   1.563   9.892   0.819 -0.0728 -0.4696  0.1259
  887MOL0     O19640   1.526   9.758   0.824  0.3215 -0.0138  0.6767
  887MOL0     C19641   1.400   9.742   0.784  0.5797  0.4053  0.5291
  887MOL0     C19642   1.295   9.787   0.857  0.1948 -0.1993 -0.1920
  887MOL0     C19643   1.162   9.764   0.819 -0.7195  0.2682 -0.2098
  887MOL0     C19644   1.141   9.705   0.703  0.6599 -0.3687 -0.4682
  887MOL0     O19645   1.015   9.681   0.672 -0.1868  0.3385  0.4228
  887MOL0     C19646   0.988   9.722   0.534 -0.0815  0.2089  0.1236
  887MOL0     C19647   0.837   9.675   0.511  0.0852  0.0132 -0.1970
  887MOL0     C19648   0.735   9.753   0.589  0.4425 -1.1797 -0.5536
  887MOL0     C19649   0.605   9.681   0.606  0.0064  0.5407  0.4193
  887MOL0     C19650   0.485   9.772   0.619  0.4362 -0.0007 -0.8786
  887MOL0     C19651   0.358   9.691   0.605 -0.1858 -0.0820 -0.3242
  887MOL0     C19652   0.236   9.779   0.641  0.4166  0.5373  1.5529
  887MOL0     C19653   0.107   9.701   0.622 -0.1829 -0.2446  0.1247
  887MOL0    Cl19654  -0.040   9.808   0.652 -0.4364  0.4844  0.4117
  887MOL0     C19655   1.247   9.654   0.627  0.4492  0.2385 -0.2862
  887MOL0     C19656   1.376   9.675   0.669 -0.6160  0.3900  0.4204
  887MOL0     O19657   1.486   9.986   0.806 -0.6405 -0.9206  0.2193
  887MOL0     C19658   1.740  10.047   0.899  0.0333  0.4495 -0.5266
  887MOL0     C19659   1.877  10.083   0.920  0.4918 -0.0601 -0.7452
  887MOL0     N19660   2.374   9.539   1.311 -0.0524 -0.0659  0.5065
  887MOL0     N19661   2.379   9.417   1.277 -0.2911  0.2557  0.5623
  887MOL0     C19662   1.354   8.988   1.558 -0.5264  0.0008  0.3330
  887MOL0     C19663   1.223   9.031   1.573  0.3916  0.6242 -0.8077
  887MOL0     C19664   0.758   8.970   1.457 -0.4304 -0.1483  0.9616
  887MOL0     C19665   0.724   9.107   1.438  0.1569 -0.5904  0.4466
  887MOL0     C19666   0.589   9.155   1.420 -0.6770 -0.0173 -0.6800
  887MOL0     C19667   0.486   9.059   1.418  0.6122  0.1912  0.2591
  887MOL0     O19668   0.347   9.084   1.397 -0.0223  0.4033 -0.3575
  887MOL0     C19669   0.291   9.205   1.342 -0.4795 -0.6169 -0.1387
  887MOL0     C19670   0.138   9.178   1.348  0.1546 -0.0991 -0.9770
  887MOL0     C19671   0.085   9.070   1.264 -0.3214 -0.4130  0.8600
  887MOL0     C19672  -0.025   8.990   1.340 -0.1441  0.0191  0.2376
  887MOL0     C19673  -0.145   9.067   1.353  0.0770  0.6029 -0.4277
  887MOL0     C19674  -0.237   9.153   1.367 -0.1439  0.5443  0.8024
  887MOL0     C19675   0.516   8.927   1.441 -0.7186 -0.1924  1.0741
  887MOL0     C19676   0.651   8.880   1.463  0.9513 -0.2125  0.7060
  887MOL0     C19677   0.666   8.728   1.476  0.0239  0.0332  0.3590
  887MOL0     H19678   1.135   8.991   1.244  0.4355  1.8976  0.2433
  887MOL0     H19679   1.364   8.908   1.233  1.5705  2.8175 -0.6414
  887MOL0     H19680   1.719   8.894   1.370  1.0483  0.5633  2.5204
  887MOL0     H19681   1.583   8.891   1.244  1.2185  0.4850 -0.8510
  887MOL0     H19682   1.540   9.137   1.310  0.5606  0.4544  4.0562
  887MOL0     H19683   1.710   9.106   1.238 -1.4672  0.0055 -1.7651
  887MOL0     H19684   1.631   9.127   1.521  0.2042 -0.0823  0.0594
  887MOL0     H19685   1.695   9.267   1.434  0.4408  0.0965 -2.0248
  887MOL0     H19686   1.862   9.155   1.577 -1.2089 -0.2509  0.4655
  887MOL0     H19687   1.834   9.009   1.496 -0.0690  0.1041  0.4871
  887MOL0     H19688   1.951   9.060   1.302  1.7549  0.7496 -0.1178
  887MOL0     H19689   1.914   9.244   1.324  3.2566  0.2908 -1.6814
  887MOL0     H19690   2.109   9.272   1.452 -0.6190  0.2334 -0.2816
  887MOL0     H19691   2.109   9.102   1.506 -1.3263 -0.9968 -0.4712
  887MOL0     H19692   2.182   9.035   1.271  0.3071  0.1889 -1.4332
  887MOL0     H19693   2.295   9.127   1.371  0.0481  0.9255  0.9566
  887MOL0     H19694   2.280   9.189   1.130 -0.1377 -2.2552  0.7033
  887MOL0     H19695   2.122   9.247   1.140 -0.7605  2.2766  1.1969
  887MOL0     H19696   2.061   9.480   1.235 -0.5491 -3.0639 -0.2979
  887MOL0     H19697   2.084   9.706   1.352  0.8284  1.8231  2.6188
  887MOL0     H19698   2.238   9.761   1.405  1.0483  0.3973 -1.2183
  887MOL0     H19699   2.149   9.917   1.237  2.2451  0.6946  0.4633
  887MOL0     H19700   2.312   9.868   1.226  0.1024  0.1146  2.7314
  887MOL0     H19701   2.076   9.762   1.072  0.8094 -4.0550 -1.7908
  887MOL0     H19702   2.241   9.705   1.039 -0.7758 -0.0919  0.9221
  887MOL0     H19703   2.226   9.873   0.866  1.1508 -1.2900 -0.4796
  887MOL0     H19704   2.279   9.974   1.005 -1.0693 -0.4677  1.3401
  887MOL0     H19705   2.008   9.773   0.846  0.1874  0.6407 -1.0327
  887MOL0     H19706   1.762   9.725   0.798 -2.1867  1.3046 -1.8539
  887MOL0     H19707   1.319   9.838   0.950 -1.9262  1.5807 -0.5302
  887MOL0     H19708   1.080   9.807   0.876 -1.2180 -2.9594  1.7430
  887MOL0     H19709   0.995   9.829   0.514  0.9928 -0.2606 -2.3759
  887MOL0     H19710   1.054   9.668   0.465 -1.6431  0.3511 -1.5675
  887MOL0     H19711   0.803   9.704   0.411 -1.5632 -0.5527  0.1670
  887MOL0     H19712   0.820   9.571   0.539 -0.3491  0.0966 -0.1483
  887MOL0     H19713   0.778   9.770   0.688  0.2693 -0.3499 -0.6140
  887MOL0     H19714   0.723   9.849   0.538  0.2894 -1.0875 -0.3466
  887MOL0     H19715   0.613   9.617   0.695 -0.6098 -0.5187 -0.2576
  887MOL0     H19716   0.593   9.615   0.519 -0.4502 -1.7133  2.0833
  887MOL0     H19717   0.498   9.853   0.547 -0.5537  0.3286 -0.7025
  887MOL0     H19718   0.479   9.817   0.719 -1.7350 -0.6109 -0.6928
  887MOL0     H19719   0.346   9.651   0.504 -3.0468 -1.8995  0.6198
  887MOL0     H19720   0.354   9.609   0.677  0.8047 -1.4837 -1.7979
  887MOL0     H19721   0.228   9.863   0.571  1.0705  0.3550  1.2639
  887MOL0     H19722   0.242   9.814   0.744  1.3437  1.1077  1.3108
  887MOL0     H19723   0.097   9.661   0.521  1.4380  0.6564 -0.4277
  887MOL0     H19724   0.092   9.618   0.691 -2.1445  0.6926  0.9106
  887MOL0     H19725   1.233   9.583   0.545  3.7662 -1.1688  0.1919
  887MOL0     H19726   1.462   9.628   0.623  0.0701  2.2446 -0.2726
  887MOL0     H19727   1.665  10.126   0.893 -1.5616 -1.0080 -0.8025
  887MOL0     H19728   1.904  10.181   0.957 -2.5106  0.1604  1.2049
  887MOL0     H19729   1.417   8.992   1.647  0.1432 -0.4723 -0.1096
  887MOL0     H19730   1.197   9.071   1.671  0.1785  1.5269 -1.2141
  887MOL0     H19731   0.802   9.182   1.447 -0.1630 -0.2797  0.6605
  887MOL0     H19732   0.563   9.260   1.414 -1.3099 -0.1970 -1.2069
  887MOL0     H19733   0.316   9.228   1.239 -2.4540 -1.2503 -0.8088
  887MOL0     H19734   0.315   9.292   1.405  0.6449  0.2863 -1.7568
  887MOL0     H19735   0.091   9.274   1.324 -1.3918 -0.3034  0.9637
  887MOL0     H19736   0.111   9.154   1.451  1.7835 -0.1993 -0.5440
  887MOL0     H19737   0.162   8.994   1.244 -1.1659 -0.4014 -3.5415
  887MOL0     H19738   0.066   9.110   1.164  2.3316  1.3630  0.9662
  887MOL0     H19739  -0.046   8.903   1.277  3.8400 -0.3585 -0.8684
  887MOL0     H19740   0.005   8.959   1.441 -0.1015 -1.2265 -0.1412
  887MOL0     H19741  -0.299   9.240   1.370 -2.2938 -0.8951 -0.0673
  887MOL0     H19742   0.430   8.862   1.450 -0.0279 -0.9970  2.1139
  887MOL0     H19743   0.705   8.683   1.385 -2.1918 -4.1275  1.2337
  887MOL0     H19744   0.734   8.708   1.560  1.7938  0.6298 -0.8576
  887MOL0     H19745   0.570   8.682   1.500  0.7138 -0.2197  3.0182
  888MOL0     O19746   4.467   7.555   7.951 -0.2908  0.0979 -0.0506
  888MOL0     C19747   4.382   7.553   7.868  0.9656  0.1131 -0.4347
  888MOL0     O19748   4.408   7.558   7.737  0.3583 -0.0190 -0.3541
  888MOL0     C19749   4.537   7.583   7.690  0.2141 -0.5389  0.4354
  888MOL0     C19750   4.607   7.483   7.628 -0.9807  0.2203  0.7872
  888MOL0     C19751   4.741   7.507   7.593 -0.5930  0.2488  0.4377
  888MOL0     C19752   4.804   7.630   7.614  0.3800 -0.1091 -0.3649
  888MOL0     O19753   4.939   7.633   7.582 -0.0287  0.8891 -0.0211
  888MOL0     C19754   5.017   7.730   7.655 -0.7665 -0.3742  0.5042
  888MOL0     C19755   5.161   7.715   7.618  0.6906  0.5011 -0.9126
  888MOL0     C19756   5.250   7.816   7.695  0.0600 -0.2305  0.3478
  888MOL0     C19757   5.380   7.835   7.627 -0.2983 -0.1722 -0.0186
  888MOL0     C19758   5.487   7.861   7.721  0.2860  0.4546 -0.3431
  888MOL0     C19759   5.616   7.853   7.630  0.2837  1.1740 -0.6588
  888MOL0     C19760   5.741   7.841   7.713  0.2316  0.3344 -0.1245
  888MOL0     C19761   5.864   7.836   7.617  0.0213 -0.2607  0.2907
  888MOL0     N19762   5.992   7.815   7.689  0.1862  0.2591  0.5089
  888MOL0     C19763   6.003   7.727   7.797  0.6859  0.1285  0.6106
  888MOL0     C19764   6.135   7.727   7.826  0.8214  0.2228 -0.5261
  888MOL0     C19765   6.194   7.647   7.941  1.2242  0.7768 -0.7512
  888MOL0     C19766   6.337   7.667   7.981  0.0823  0.7932 -0.0221
  888MOL0     C19767   6.385   7.536   8.055 -0.0303  1.2414 -0.7888
  888MOL0     C19768   6.342   7.502   8.196 -0.0689 -0.1057  0.3425
  888MOL0     O19769   6.208   7.448   8.204 -0.4308 -0.3828  0.0869
  888MOL0     C19770   6.145   7.440   8.322 -0.2911  0.2721  0.3803
  888MOL0     C19771   6.065   7.550   8.360 -0.0212  0.0717 -0.5346
  888MOL0     C19772   5.988   7.536   8.473  0.2677  0.2243  0.3607
  888MOL0     C19773   5.969   7.413   8.539 -1.0209  0.5010 -0.0803
  888MOL0     C19774   5.872   7.395   8.658 -0.3654 -0.2291  0.4056
  888MOL0     O19775   5.884   7.277   8.736  0.1278  0.1113  0.6145
  888MOL0     C19776   5.772   7.245   8.809 -0.1563  0.3182  0.4269
  888MOL0     C19777   5.648   7.206   8.754  0.2911 -0.1087 -0.6566
  888MOL0     C19778   5.551   7.150   8.846 -0.0364  0.5606  0.8212
  888MOL0     C19779   5.566   7.142   8.986  0.1706 -0.3455  0.1977
  888MOL0     O19780   5.468   7.077   9.058  0.3356 -0.5437  0.0820
  888MOL0     C19781   5.336   7.121   9.044 -1.2340 -0.6263 -0.3304
  888MOL0     C19782   5.304   7.276   9.050  0.3781  0.1283  0.3251
  888MOL0     C19783   5.159   7.299   9.020 -0.3561 -0.0292 -0.1214
  888MOL0     C19784   5.124   7.449   9.028 -1.0624 -0.3866  0.9742
  888MOL0     C19785   4.977   7.460   8.988  0.5490 -0.3955 -0.3909
  888MOL0     C19786   4.951   7.615   8.993 -0.7160 -0.2994  0.3174
  888MOL0     C19787   4.827   7.662   8.918  0.6527 -0.6768 -0.4243
  888MOL0     C19788   4.696   7.630   9.005  0.2125 -0.2336 -0.7189
  888MOL0    Cl19789   4.695   7.731   9.154 -0.1600 -0.0794  0.5432
  888MOL0     C19790   5.684   7.195   9.040 -0.2644 -0.3743 -0.1224
  888MOL0     C19791   5.790   7.248   8.955 -0.3740  0.2740  0.4810
  888MOL0     O19792   5.795   7.484   8.681  0.6374 -0.7201 -0.0446
  888MOL0     C19793   6.057   7.307   8.497  1.3038  0.6550 -0.3217
  888MOL0     C19794   6.145   7.324   8.394 -0.0743  0.5730 -0.4810
  888MOL0     N19795   6.201   7.808   7.732  0.4636  0.5198 -0.6470
  888MOL0     N19796   6.113   7.863   7.655 -0.1303  0.3227  0.0185
  888MOL0     C19797   4.729   7.734   7.662 -0.3275 -0.2819 -0.6106
  888MOL0     C19798   4.596   7.714   7.693  0.6331 -0.4396 -0.1135
  888MOL0     C19799   4.231   7.555   7.907  0.1583 -1.0679 -0.1410
  888MOL0     C19800   4.147   7.611   7.809  0.9564 -0.2617 -0.3112
  888MOL0     C19801   4.012   7.623   7.822 -0.1988 -0.2298  0.7903
  888MOL0     C19802   3.951   7.592   7.941 -0.4604 -0.2904  0.4063
  888MOL0     O19803   3.816   7.611   7.940  0.2542  0.1162 -0.5136
  888MOL0     C19804   3.744   7.588   8.070  0.5647  0.2560  0.4232
  888MOL0     C19805   3.595   7.623   8.047 -0.0380  0.3703  0.4532
  888MOL0     C19806   3.517   7.630   8.174 -0.0808  0.9536 -0.4197
  888MOL0     C19807   3.361   7.627   8.150  1.1574  0.0541 -0.5769
  888MOL0     C19808   3.298   7.619   8.281 -0.7827 -0.1501  1.1819
  888MOL0     C19809   3.251   7.605   8.388  0.0864  0.2404  0.2069
  888MOL0     C19810   4.031   7.538   8.047  0.2090 -0.6674  0.3511
  888MOL0     C19811   4.169   7.522   8.030  0.6740  0.2088  0.0560
  888MOL0     C19812   4.261   7.463   8.131  0.5318  0.2261 -0.7137
  888MOL0     H19813   4.569   7.383   7.610  0.1128 -0.2178  0.7740
  888MOL0     H19814   4.789   7.418   7.553 -3.2560 -1.4197  0.6830
  888MOL0     H19815   4.975   7.824   7.619  0.1784  0.1139  0.6430
  888MOL0     H19816   5.011   7.738   7.764 -1.7947  2.5577  0.3264
  888MOL0     H19817   5.168   7.737   7.511 -1.6312 -0.7420 -1.3928
  888MOL0     H19818   5.195   7.612   7.635  2.8014  1.3594  0.3926
  888MOL0     H19819   5.262   7.767   7.792  2.0405  0.2112  0.3712
  888MOL0     H19820   5.207   7.916   7.709  1.2611  0.1821  1.2181
  888MOL0     H19821   5.403   7.743   7.573  2.4721  0.1778  0.4572
  888MOL0     H19822   5.368   7.915   7.553  0.4464  0.9554  1.0600
  888MOL0     H19823   5.476   7.953   7.780  1.5123 -0.7262  1.8659
  888MOL0     H19824   5.489   7.784   7.798 -5.1564  0.3570  0.1079
  888MOL0     H19825   5.609   7.764   7.567  0.2871  0.9027 -0.2823
  888MOL0     H19826   5.624   7.940   7.565  0.4194  0.9299 -0.9701
  888MOL0     H19827   5.727   7.750   7.772  1.5724 -0.1786 -0.5542
  888MOL0     H19828   5.751   7.920   7.788 -1.6611  1.6813 -1.2159
  888MOL0     H19829   5.854   7.749   7.551 -2.3782 -0.0581  0.2819
  888MOL0     H19830   5.869   7.930   7.561 -2.7137  0.5843  1.2880
  888MOL0     H19831   5.922   7.670   7.841  0.1816  0.3373 -0.0357
  888MOL0     H19832   6.129   7.659   8.028  1.5377 -1.0493 -0.2166
  888MOL0     H19833   6.185   7.541   7.919  0.6404  0.4664  0.8552
  888MOL0     H19834   6.395   7.671   7.888  1.0067  0.8894  0.5425
  888MOL0     H19835   6.355   7.755   8.044  0.0907  2.0350 -1.6784
  888MOL0     H19836   6.493   7.518   8.052 -0.2836 -0.3852 -1.1359
  888MOL0     H19837   6.359   7.451   7.991  2.6579  3.0928 -4.7803
  888MOL0     H19838   6.349   7.591   8.259  1.3927  0.6285 -0.8289
  888MOL0     H19839   6.418   7.441   8.246  0.1305  1.6525  2.3440
  888MOL0     H19840   6.061   7.639   8.297 -0.1570 -0.5853 -1.4698
  888MOL0     H19841   5.929   7.622   8.501 -0.1737  1.5038 -3.8184
  888MOL0     H19842   5.623   7.184   8.651  0.3792 -0.9911 -0.4985
  888MOL0     H19843   5.455   7.124   8.802  0.4088 -1.0130  0.7259
  888MOL0     H19844   5.288   7.076   8.957 -1.7555 -0.1743 -0.2841
  888MOL0     H19845   5.284   7.078   9.130  0.7735  0.8831  1.7358
  888MOL0     H19846   5.340   7.310   9.148 -1.8237 -0.2059  1.3208
  888MOL0     H19847   5.349   7.330   8.967 -0.1828 -2.3983 -1.7728
  888MOL0     H19848   5.126   7.258   8.924  1.0744  0.1826 -0.7192
  888MOL0     H19849   5.092   7.246   9.089 -3.4665  2.0609 -1.3258
  888MOL0     H19850   5.190   7.498   8.956  0.6688 -2.4766  1.0238
  888MOL0     H19851   5.139   7.501   9.124  0.0129  1.2982 -0.0501
  888MOL0     H19852   4.915   7.404   9.058 -1.7468 -1.1471 -2.8451
  888MOL0     H19853   4.958   7.420   8.888 -0.4514  2.0545 -1.2725
  888MOL0     H19854   4.947   7.642   9.099 -0.5128  2.6450 -0.3398
  888MOL0     H19855   5.033   7.675   8.952 -2.4334  0.5462 -2.1830
  888MOL0     H19856   4.818   7.615   8.819 -2.1201  2.7665 -2.0520
  888MOL0     H19857   4.833   7.770   8.900  2.8281 -0.4204  1.5054
  888MOL0     H19858   4.604   7.654   8.951  2.0725 -2.1285 -5.1633
  888MOL0     H19859   4.694   7.523   9.031  1.4443  0.3663  2.2733
  888MOL0     H19860   5.705   7.183   9.146  3.2347  0.4627 -0.5970
  888MOL0     H19861   5.879   7.283   9.005 -1.8167  3.1138  1.3364
  888MOL0     H19862   6.050   7.218   8.557 -2.2162  1.3036  0.4665
  888MOL0     H19863   6.209   7.242   8.362  1.4193  1.6880 -0.4192
  888MOL0     H19864   4.767   7.836   7.670 -0.1260 -0.2929 -1.3410
  888MOL0     H19865   4.527   7.791   7.726  2.1377  0.5438  0.8275
  888MOL0     H19866   4.184   7.633   7.710  0.0566  1.1980 -0.3514
  888MOL0     H19867   3.950   7.663   7.742  1.1403 -1.0769 -0.7424
  888MOL0     H19868   3.791   7.656   8.142  1.5361 -0.6051  0.6234
  888MOL0     H19869   3.756   7.484   8.102  0.7436 -0.1651 -0.9471
  888MOL0     H19870   3.566   7.545   7.975 -0.7470  2.4715 -1.6621
  888MOL0     H19871   3.585   7.710   7.981 -1.5528 -1.2302 -1.5538
  888MOL0     H19872   3.546   7.719   8.231  0.4765 -0.6216  1.9059
  888MOL0     H19873   3.555   7.548   8.236  0.5098  1.5252 -0.0155
  888MOL0     H19874   3.321   7.709   8.090  1.5579 -0.1647 -1.1502
  888MOL0     H19875   3.334   7.535   8.096  0.5464 -0.7244  0.9719
  888MOL0     H19876   3.197   7.588   8.479 -2.0663  1.9179 -0.6569
  888MOL0     H19877   3.986   7.489   8.133  2.7157 -0.3645  1.9202
  888MOL0     H19878   4.320   7.544   8.176 -0.2925 -0.8960  2.7206
  888MOL0     H19879   4.212   7.414   8.216  1.0153 -0.7416 -0.9779
  888MOL0     H19880   4.336   7.405   8.077  1.3676  1.9281 -1.4710
  889MOL0     O19881   4.334   2.944   9.071  0.3505 -0.2590  0.6882
  889MOL0     C19882   4.390   2.958   9.179 -0.4174  0.6359 -0.4438
  889MOL0     O19883   4.517   3.024   9.203 -0.3247 -0.4323  0.2539
  889MOL0     C19884   4.574   3.095   9.099  0.5606  0.3621  0.6235
  889MOL0     C19885   4.516   3.168   8.999 -0.4003 -0.1543  0.2004
  889MOL0     C19886   4.583   3.238   8.903  0.3964 -0.4072  0.0576
  889MOL0     C19887   4.722   3.228   8.888  0.1290 -0.6989 -0.2817
  889MOL0     O19888   4.779   3.287   8.780 -0.3143 -0.0983 -1.5697
  889MOL0     C19889   4.897   3.222   8.732  0.4274 -0.0997 -0.3230
  889MOL0     C19890   5.029   3.303   8.767  1.0261 -0.7356 -0.3068
  889MOL0     C19891   5.148   3.259   8.683  0.0045 -0.5322  0.6497
  889MOL0     C19892   5.188   3.114   8.700 -0.4539  0.5330  0.0507
  889MOL0     C19893   5.316   3.086   8.620  0.6510  0.1115 -0.5209
  889MOL0     C19894   5.370   2.944   8.653  0.3502 -0.0896 -0.2547
  889MOL0     C19895   5.505   2.930   8.582 -0.3385 -0.1193 -0.0094
  889MOL0     C19896   5.526   2.787   8.530 -0.3512 -0.1754  0.1512
  889MOL0     N19897   5.669   2.761   8.507 -0.0244 -0.0524  0.0547
  889MOL0     C19898   5.770   2.718   8.581 -0.9390  0.3015 -1.0690
  889MOL0     C19899   5.883   2.728   8.505 -0.2302 -0.3918  0.3437
  889MOL0     C19900   6.024   2.674   8.541  1.2859  0.3034 -0.6275
  889MOL0     C19901   6.112   2.790   8.564  0.0466  0.0841  0.5902
  889MOL0     C19902   6.260   2.753   8.567  0.0011 -0.6673  0.1811
  889MOL0     C19903   6.331   2.885   8.627  0.2966  0.1053 -0.4226
  889MOL0     O19904   6.471   2.882   8.641  0.0872 -0.5153 -0.1619
  889MOL0     C19905   6.548   2.872   8.525  0.1687 -0.0540 -0.5632
  889MOL0     C19906   6.662   2.799   8.543 -0.9462  0.0985  1.1876
  889MOL0     C19907   6.755   2.790   8.441  0.3004  0.6172 -0.7743
  889MOL0     C19908   6.740   2.858   8.318 -0.0298 -0.5809 -0.0209
  889MOL0     C19909   6.842   2.849   8.214 -0.0508 -1.0502  0.2840
  889MOL0     O19910   6.925   2.746   8.218  0.8028  0.0520  0.5656
  889MOL0     C19911   7.033   2.720   8.138 -0.2243 -0.6280  0.3991
  889MOL0     C19912   7.091   2.805   8.040  0.2758  0.0979 -0.6432
  889MOL0     C19913   7.191   2.764   7.953 -0.9782  0.4048  0.3043
  889MOL0     C19914   7.234   2.630   7.956  0.1880 -0.0654  0.4953
  889MOL0     O19915   7.329   2.600   7.853  0.1606 -0.2675 -0.3029
  889MOL0     C19916   7.417   2.489   7.879  0.0723 -0.0292 -0.1389
  889MOL0     C19917   7.488   2.471   7.750  0.4067 -0.3510  0.6218
  889MOL0     C19918   7.611   2.390   7.780 -0.3017 -0.9314  0.5265
  889MOL0     C19919   7.681   2.380   7.647  0.9109  0.1929  0.5255
  889MOL0     C19920   7.835   2.351   7.658 -0.2192  0.1649  0.5215
  889MOL0     C19921   7.879   2.310   7.519 -0.5865 -0.8534  0.9939
  889MOL0     C19922   8.008   2.245   7.504 -0.7297  0.4208  0.2734
  889MOL0     C19923   8.121   2.324   7.574 -0.5297  0.5095  0.1737
  889MOL0    Cl19924   8.271   2.251   7.493 -0.1351 -0.0019  0.0145
  889MOL0     C19925   7.189   2.549   8.062  0.1878  0.3536 -0.2584
  889MOL0     C19926   7.102   2.591   8.159  0.6009 -0.0816  0.2466
  889MOL0     O19927   6.848   2.940   8.138  0.8738 -0.2360 -0.0455
  889MOL0     C19928   6.613   2.924   8.296  0.2341  0.3026  0.7009
  889MOL0     C19929   6.523   2.935   8.401 -0.1929  0.3970  0.2471
  889MOL0     N19930   5.855   2.788   8.385 -0.2013  0.1566 -0.1641
  889MOL0     N19931   5.727   2.816   8.392  0.5295  1.0054 -0.3059
  889MOL0     C19932   4.787   3.172   8.994  0.3055 -0.3459  0.2367
  889MOL0     C19933   4.719   3.103   9.096 -0.0710  0.0029  0.2586
  889MOL0     C19934   4.347   2.866   9.282 -0.3576  0.4412  0.0487
  889MOL0     C19935   4.439   2.832   9.387 -0.3361 -0.2022 -0.0010
  889MOL0     C19936   4.397   2.758   9.495  0.4316  0.1901 -1.2942
  889MOL0     C19937   4.271   2.699   9.500 -0.7676 -0.8868 -0.2155
  889MOL0     O19938   4.229   2.627   9.602  0.6803 -0.0397  0.0895
  889MOL0     C19939   4.279   2.649   9.736 -0.6778 -0.1879 -0.5606
  889MOL0     C19940   4.202   2.574   9.843 -0.3220  0.0692 -0.4705
  889MOL0     C19941   4.208   2.421   9.821  0.1024 -0.7373 -0.1019
  889MOL0     C19942   4.082   2.350   9.864  0.0692 -0.4705  0.4338
  889MOL0     C19943   4.061   2.369  10.002  0.0830 -0.9808 -0.3581
  889MOL0     C19944   4.049   2.393  10.125 -0.4639  0.1745  0.4385
  889MOL0     C19945   4.183   2.719   9.395 -0.3111 -0.3247 -0.8234
  889MOL0     C19946   4.220   2.804   9.278  0.0378  0.6798 -1.0422
  889MOL0     C19947   4.120   2.806   9.158  0.5514 -0.7244 -0.0308
  889MOL0     H19948   4.408   3.172   9.005 -0.4127 -1.7660  1.7264
  889MOL0     H19949   4.532   3.288   8.821 -0.2120 -2.0234 -0.5892
  889MOL0     H19950   4.910   3.116   8.759  1.1271 -0.0465 -0.4313
  889MOL0     H19951   4.884   3.226   8.623  1.1696 -0.9311 -0.4588
  889MOL0     H19952   5.051   3.293   8.873  0.2276  0.1332 -0.0532
  889MOL0     H19953   5.014   3.409   8.744  2.2021 -0.6244 -0.6631
  889MOL0     H19954   5.233   3.323   8.709  0.0165  0.2188 -1.1299
  889MOL0     H19955   5.125   3.282   8.579  1.5163  0.2933  0.4626
  889MOL0     H19956   5.204   3.092   8.806  0.6719  0.5685 -0.1033
  889MOL0     H19957   5.105   3.054   8.659  0.2051  0.0425 -0.5924
  889MOL0     H19958   5.285   3.102   8.516 -3.9383  1.5950  0.8437
  889MOL0     H19959   5.394   3.158   8.643 -0.9246  1.6833  0.1309
  889MOL0     H19960   5.386   2.932   8.760  0.1229 -1.4174 -0.3523
  889MOL0     H19961   5.298   2.866   8.625 -1.4780  1.5233 -0.2683
  889MOL0     H19962   5.588   2.959   8.647  1.6469 -1.4928 -1.8018
  889MOL0     H19963   5.525   2.998   8.499  0.8636  2.1759  2.0082
  889MOL0     H19964   5.480   2.724   8.607  1.6915 -0.9520  0.8055
  889MOL0     H19965   5.468   2.782   8.438 -0.4220 -0.5334  0.2142
  889MOL0     H19966   5.768   2.681   8.683  2.4267  2.4678 -0.0355
  889MOL0     H19967   6.020   2.619   8.636 -0.0902  2.0242  0.3818
  889MOL0     H19968   6.051   2.617   8.453 -0.6202  0.4033 -1.3272
  889MOL0     H19969   6.083   2.872   8.496 -1.2320  1.9881  3.2682
  889MOL0     H19970   6.082   2.826   8.662 -0.4790 -0.7200  0.7311
  889MOL0     H19971   6.307   2.721   8.474  2.1486  0.6662  0.7301
  889MOL0     H19972   6.282   2.670   8.635 -1.6737 -2.4966 -1.3620
  889MOL0     H19973   6.291   2.900   8.728  0.1582  0.7872 -0.5672
  889MOL0     H19974   6.300   2.970   8.565  1.0466  1.3565  0.8511
  889MOL0     H19975   6.685   2.757   8.640 -1.0026 -0.4714  0.9621
  889MOL0     H19976   6.854   2.751   8.458 -0.1013 -0.1872 -0.2301
  889MOL0     H19977   7.049   2.904   8.021 -0.0053 -0.1223 -1.1833
  889MOL0     H19978   7.226   2.824   7.869  0.8483 -1.0357 -0.0242
  889MOL0     H19979   7.488   2.509   7.959 -1.0129 -1.1629  1.1479
  889MOL0     H19980   7.361   2.399   7.907 -2.9749  1.2327 -1.6303
  889MOL0     H19981   7.420   2.415   7.684  1.8733  0.2753 -1.5237
  889MOL0     H19982   7.516   2.565   7.702  3.5750 -0.5459  1.8852
  889MOL0     H19983   7.675   2.439   7.854  0.3217 -2.1010  0.7997
  889MOL0     H19984   7.602   2.288   7.821  2.2774 -0.6929  1.8572
  889MOL0     H19985   7.666   2.469   7.586 -1.4910  1.0160  2.1693
  889MOL0     H19986   7.642   2.293   7.593  3.1317 -0.4135 -0.2221
  889MOL0     H19987   7.836   2.264   7.724 -0.0556 -0.1845  0.0728
  889MOL0     H19988   7.893   2.436   7.693  2.4747 -1.1044 -0.5587
  889MOL0     H19989   7.807   2.242   7.473 -0.3556  0.6776 -1.9207
  889MOL0     H19990   7.879   2.400   7.455 -2.7823 -1.7608 -0.3818
  889MOL0     H19991   8.031   2.237   7.397  0.0461  3.0950  0.1561
  889MOL0     H19992   8.005   2.143   7.542  2.0845  0.0064 -0.3809
  889MOL0     H19993   8.111   2.430   7.550  0.2228  0.8013  1.0856
  889MOL0     H19994   8.122   2.297   7.680  0.1595  0.4235  0.1511
  889MOL0     H19995   7.228   2.449   8.078 -0.4155  0.2829  0.8774
  889MOL0     H19996   7.055   2.520   8.227  0.3427  1.7789  2.1207
  889MOL0     H19997   6.591   2.966   8.198 -0.8201 -0.4007  0.6208
  889MOL0     H19998   6.434   2.994   8.380 -0.1998  0.0673 -0.6976
  889MOL0     H19999   4.895   3.176   8.995  0.4235 -1.9846  2.3156
  889MOL0     H20000   4.775   3.062   9.179  2.3941 -0.0373 -1.3093
  889MOL0     H20001   4.542   2.865   9.382 -0.6018  0.4631 -1.2822
  889MOL0     H20002   4.476   2.730   9.563  1.7327  1.2215 -2.3085
  889MOL0     H20003   4.257   2.751   9.767  2.4354  0.3625  0.0886
  889MOL0     H20004   4.386   2.630   9.744 -0.5425  0.9023  0.5641
  889MOL0     H20005   4.102   2.618   9.853 -0.2353 -0.2439  3.0292
  889MOL0     H20006   4.252   2.596   9.937  1.4947  3.3121 -2.0281
  889MOL0     H20007   4.296   2.376   9.868  0.2677  0.5150  0.8721
  889MOL0     H20008   4.231   2.407   9.715  0.6604 -1.7223  0.1429
  889MOL0     H20009   3.994   2.384   9.809 -0.0218 -0.8526  0.3413
  889MOL0     H20010   4.093   2.246   9.832 -0.8566 -0.0433 -1.4645
  889MOL0     H20011   4.025   2.402  10.229 -2.4714  1.2045 -0.0731
  889MOL0     H20012   4.081   2.682   9.397 -0.7230  0.5753 -2.8773
  889MOL0     H20013   4.032   2.743   9.172 -1.9705  2.2235 -1.3626
  889MOL0     H20014   4.082   2.908   9.143  1.1074  0.3632  4.4077
  889MOL0     H20015   4.172   2.767   9.070 -0.7533  2.1312 -2.2459
  890MOL0     O20016   8.283   6.930   3.378  0.1648 -0.9203  0.6300
  890MOL0     C20017   8.237   6.954   3.263 -0.5868 -0.9002  0.2751
  890MOL0     O20018   8.133   6.886   3.204 -0.2779 -0.2273  0.6009
  890MOL0     C20019   8.039   6.827   3.278 -0.1043  1.0274 -0.3248
  890MOL0     C20020   7.939   6.903   3.344  0.5802 -0.4308  0.6070
  890MOL0     C20021   7.835   6.844   3.417 -0.0695 -0.2438  1.1516
  890MOL0     C20022   7.821   6.710   3.416  0.5310  0.9939 -0.7118
  890MOL0     O20023   7.720   6.655   3.491 -0.3331  0.0979  0.1770
  890MOL0     C20024   7.714   6.508   3.487 -0.6901  0.4559  0.9462
  890MOL0     C20025   7.605   6.474   3.583  0.6135  0.1897  0.4915
  890MOL0     C20026   7.469   6.536   3.529 -0.9303 -0.0593 -0.1674
  890MOL0     C20027   7.355   6.488   3.614  0.1180 -0.3177  0.1786
  890MOL0     C20028   7.230   6.572   3.589  0.4706  0.3622 -0.0411
  890MOL0     C20029   7.117   6.550   3.696  1.0425  0.1147 -0.6293
  890MOL0     C20030   7.083   6.399   3.706  0.4508  0.9041  0.1250
  890MOL0     C20031   7.018   6.341   3.572 -0.0817  0.0636 -0.6079
  890MOL0     N20032   6.889   6.400   3.549  0.0840  0.8159 -0.7286
  890MOL0     C20033   6.761   6.367   3.602 -0.7061  0.0840  0.7527
  890MOL0     C20034   6.679   6.454   3.535 -0.1049  0.0259  0.4618
  890MOL0     C20035   6.527   6.468   3.560 -0.6325  0.1099 -0.4135
  890MOL0     C20036   6.498   6.563   3.681 -0.8433  0.3373  0.0460
  890MOL0     C20037   6.568   6.525   3.815 -0.3883 -0.2054  0.6724
  890MOL0     C20038   6.522   6.627   3.921 -0.1293 -0.1065  0.0785
  890MOL0     O20039   6.569   6.760   3.877  0.2714  0.3000 -0.3450
  890MOL0     C20040   6.700   6.799   3.880  0.8456 -0.2029  0.1912
  890MOL0     C20041   6.795   6.729   3.942  0.7431 -0.4004  0.9352
  890MOL0     C20042   6.928   6.765   3.938 -0.2443 -0.2590 -0.2749
  890MOL0     C20043   6.966   6.882   3.861 -0.5142  0.5710 -0.5494
  890MOL0     C20044   7.106   6.921   3.840 -0.3552 -0.6296  0.6486
  890MOL0     O20045   7.147   7.044   3.805 -0.3471  0.6747  0.0179
  890MOL0     C20046   7.277   7.069   3.769  0.2499 -0.1876  0.0128
  890MOL0     C20047   7.363   6.982   3.706 -0.6163 -0.0423  0.8267
  890MOL0     C20048   7.500   7.018   3.684 -0.2741 -0.4274 -0.8655
  890MOL0     C20049   7.552   7.147   3.703  0.1528  0.2893  0.0055
  890MOL0     O20050   7.679   7.168   3.656 -0.0099 -0.0372  0.0999
  890MOL0     C20051   7.702   7.294   3.597 -0.0276 -0.1303 -0.0583
  890MOL0     C20052   7.843   7.291   3.539  0.1010  0.8030 -0.7594
  890MOL0     C20053   7.860   7.400   3.428 -0.0625  0.8406 -0.8397
  890MOL0     C20054   7.995   7.390   3.360 -0.1781  0.5174  0.1748
  890MOL0     C20055   8.009   7.480   3.237 -0.4609 -0.2356  0.0550
  890MOL0     C20056   8.146   7.532   3.225 -0.5817 -0.4304 -0.3278
  890MOL0     C20057   8.163   7.666   3.306  0.0824  1.1506  0.3986
  890MOL0     C20058   8.309   7.706   3.311 -1.3775  0.0374  0.0814
  890MOL0    Cl20059   8.389   7.703   3.153 -0.4490 -0.0843  0.0003
  890MOL0     C20060   7.463   7.244   3.746  0.6909  0.0047  0.7396
  890MOL0     C20061   7.321   7.205   3.778 -0.9568  0.2072  0.0509
  890MOL0     O20062   7.180   6.826   3.871  0.5425  0.5573  0.7677
  890MOL0     C20063   6.868   6.959   3.796 -0.4497 -0.2330 -0.2213
  890MOL0     C20064   6.736   6.925   3.814  0.7151 -0.3495  0.3183
  890MOL0     N20065   6.755   6.546   3.457  0.4683 -0.0470 -2.0559
  890MOL0     N20066   6.874   6.505   3.466 -1.1297  0.0425 -0.5261
  890MOL0     C20067   7.916   6.637   3.344  0.3294  0.0021 -0.1476
  890MOL0     C20068   8.021   6.691   3.276  0.6136  0.2869  1.3812
  890MOL0     C20069   8.296   7.059   3.179  0.6639 -0.4147 -0.2729
  890MOL0     C20070   8.290   7.036   3.034  0.6234 -0.1577 -0.4625
  890MOL0     C20071   8.357   7.118   2.949  0.5224 -0.2150  0.4077
  890MOL0     C20072   8.432   7.228   2.994  0.8474  0.5517  0.9456
  890MOL0     O20073   8.510   7.310   2.916  0.1109  0.2422  0.6033
  890MOL0     C20074   8.443   7.360   2.797 -0.3818 -0.1533 -0.3290
  890MOL0     C20075   8.528   7.473   2.732 -0.6191 -0.7952 -0.2280
  890MOL0     C20076   8.678   7.434   2.734 -0.6679 -0.0687  0.4734
  890MOL0     C20077   8.765   7.548   2.660 -0.4506 -0.6444  0.4496
  890MOL0     C20078   8.757   7.652   2.758 -0.3703 -0.0538  0.2320
  890MOL0     C20079   8.755   7.748   2.827 -1.4817  0.6641  0.1836
  890MOL0     C20080   8.455   7.246   3.126 -0.2742  1.2041  0.2751
  890MOL0     C20081   8.389   7.164   3.222  0.5296  0.0983  0.1851
  890MOL0     C20082   8.437   7.185   3.361  0.5670  0.0635  0.4100
  890MOL0     H20083   7.955   7.010   3.340  2.4236 -0.7159 -2.2692
  890MOL0     H20084   7.765   6.907   3.470 -0.9168 -1.6329  1.7544
  890MOL0     H20085   7.692   6.470   3.386  0.0043  0.4820  0.7760
  890MOL0     H20086   7.809   6.461   3.513 -0.4852  1.3133  1.7789
  890MOL0     H20087   7.630   6.516   3.681 -0.7768  0.8801  0.5681
  890MOL0     H20088   7.599   6.365   3.591 -3.0886  0.2697  0.6423
  890MOL0     H20089   7.457   6.515   3.423  2.8655  0.9364 -0.9696
  890MOL0     H20090   7.476   6.645   3.544 -0.8025 -0.1490  0.4492
  890MOL0     H20091   7.331   6.387   3.580 -2.1350  1.7750 -5.5986
  890MOL0     H20092   7.382   6.485   3.720  0.4078  1.0098  0.1621
  890MOL0     H20093   7.258   6.676   3.605  1.9327 -0.2971  2.2352
  890MOL0     H20094   7.191   6.558   3.488  1.7976  0.3148 -0.5648
  890MOL0     H20095   7.152   6.579   3.795 -0.1584 -4.3639  1.3660
  890MOL0     H20096   7.028   6.605   3.665  1.0826  0.4276 -0.1842
  890MOL0     H20097   7.001   6.404   3.778 -0.5664  0.9020 -1.0018
  890MOL0     H20098   7.164   6.334   3.738  0.0607 -0.0059 -0.6842
  890MOL0     H20099   7.084   6.365   3.488 -2.8834  2.5537 -2.2913
  890MOL0     H20100   6.992   6.235   3.565 -1.5581  0.4551 -1.3337
  890MOL0     H20101   6.730   6.304   3.685 -4.1820  0.0684 -0.4086
  890MOL0     H20102   6.477   6.514   3.474 -0.5173  2.2342  0.5935
  890MOL0     H20103   6.485   6.368   3.571  0.2042 -0.1382  0.7876
  890MOL0     H20104   6.517   6.665   3.646 -1.3450 -0.0742 -1.5014
  890MOL0     H20105   6.391   6.560   3.702 -0.9814  2.2935 -0.2329
  890MOL0     H20106   6.676   6.527   3.799 -0.6594  0.4511 -1.4977
  890MOL0     H20107   6.531   6.429   3.852  1.3073 -0.9410  0.5245
  890MOL0     H20108   6.565   6.600   4.018 -1.6588 -3.2471  0.0072
  890MOL0     H20109   6.414   6.624   3.933 -0.2598 -1.1871 -1.0361
  890MOL0     H20110   6.768   6.638   3.995 -0.9369 -0.6355 -0.2547
  890MOL0     H20111   7.002   6.698   3.981  0.6075  1.0751  0.3930
  890MOL0     H20112   7.321   6.885   3.680 -0.6123  0.5089 -1.4642
  890MOL0     H20113   7.567   6.939   3.651  2.3785  1.6730 -0.8442
  890MOL0     H20114   7.627   7.313   3.520 -1.0087 -1.2704  0.5798
  890MOL0     H20115   7.690   7.369   3.675 -0.2594 -1.4681  1.2438
  890MOL0     H20116   7.919   7.301   3.618 -1.2750 -3.6016  1.4361
  890MOL0     H20117   7.865   7.195   3.492 -0.5422  0.1106  0.3267
  890MOL0     H20118   7.783   7.383   3.352  1.7185 -2.1619 -2.1675
  890MOL0     H20119   7.841   7.501   3.464 -2.0262 -0.2379  1.4054
  890MOL0     H20120   8.024   7.285   3.348  0.6142  0.8283 -0.8473
  890MOL0     H20121   8.062   7.434   3.434  0.3205 -1.4075  0.9327
  890MOL0     H20122   7.944   7.567   3.242  0.3006  0.5896 -2.5283
  890MOL0     H20123   7.988   7.412   3.153 -1.2110 -2.3885  1.8783
  890MOL0     H20124   8.204   7.448   3.267 -1.3802  0.0392  1.8438
  890MOL0     H20125   8.180   7.532   3.121  1.4751 -1.3912  0.2855
  890MOL0     H20126   8.122   7.672   3.407  0.1649  0.3241  0.4899
  890MOL0     H20127   8.115   7.749   3.254 -1.3040 -0.2238 -0.6094
  890MOL0     H20128   8.319   7.812   3.337 -0.9798  0.6340 -2.2384
  890MOL0     H20129   8.367   7.644   3.380 -0.3681  0.2417 -0.5622
  890MOL0     H20130   7.487   7.349   3.759 -0.4726  0.4859 -0.6319
  890MOL0     H20131   7.247   7.274   3.816 -0.8986  1.0696 -1.3339
  890MOL0     H20132   6.894   7.042   3.731  0.2119 -1.5452 -1.7193
  890MOL0     H20133   6.652   6.971   3.764 -1.7729 -2.1411  2.5325
  890MOL0     H20134   7.914   6.529   3.339  0.5526 -0.2892  3.3172
  890MOL0     H20135   8.104   6.639   3.229  1.0567  1.3862  0.9079
  890MOL0     H20136   8.227   6.962   2.985  1.1175  0.6447 -2.3908
  890MOL0     H20137   8.350   7.119   2.841 -0.6255 -0.3433  0.4694
  890MOL0     H20138   8.349   7.404   2.831 -0.5344 -1.8375  1.6322
  890MOL0     H20139   8.429   7.274   2.731  4.3113 -1.6908  0.3454
  890MOL0     H20140   8.507   7.568   2.783  0.3564 -1.4052  1.3984
  890MOL0     H20141   8.499   7.490   2.628 -0.0273 -0.2489 -0.3164
  890MOL0     H20142   8.690   7.342   2.676 -0.1478 -0.1928  0.7662
  890MOL0     H20143   8.710   7.425   2.838  1.5373  0.4484 -0.1083
  890MOL0     H20144   8.867   7.526   2.626 -1.0600  0.4207 -2.4096
  890MOL0     H20145   8.717   7.582   2.567  3.8364 -0.0446 -1.7823
  890MOL0     H20146   8.773   7.820   2.904  2.2343 -1.6965  1.8114
  890MOL0     H20147   8.527   7.325   3.146  1.6680  0.0105 -1.5904
  890MOL0     H20148   8.462   7.092   3.414 -2.5184 -1.3235 -0.3175
  890MOL0     H20149   8.529   7.244   3.356  0.6024 -0.0987 -3.0275
  890MOL0     H20150   8.360   7.235   3.420 -0.2654 -1.8696  1.0748
  891MOL0     O20151   4.968   3.032   0.516  0.3030 -0.2291 -0.6884
  891MOL0     C20152   4.972   2.928   0.580 -0.5239 -0.6109 -0.9606
  891MOL0     O20153   5.092   2.879   0.611  0.1391  0.1300 -0.2041
  891MOL0     C20154   5.211   2.943   0.582  0.0870  1.4008 -0.3412
  891MOL0     C20155   5.254   3.067   0.619  0.1107  0.0125 -0.0558
  891MOL0     C20156   5.371   3.117   0.563  0.7020  0.3092 -0.4563
  891MOL0     C20157   5.442   3.044   0.469  0.0041  0.0534  0.1885
  891MOL0     O20158   5.557   3.105   0.417  0.0299 -0.5123 -0.2380
  891MOL0     C20159   5.647   3.030   0.333  0.3141 -0.4417 -0.4612
  891MOL0     C20160   5.773   3.113   0.309 -0.0199 -0.6563  0.0570
  891MOL0     C20161   5.871   3.016   0.247 -0.4462  0.1659 -0.2271
  891MOL0     C20162   6.024   3.061   0.262  0.3459  0.5461 -0.7860
  891MOL0     C20163   6.123   2.963   0.194 -0.0727  0.7439 -0.1358
  891MOL0     C20164   6.255   3.033   0.164  0.4188  0.7043  0.0043
  891MOL0     C20165   6.330   3.067   0.291 -0.0545  0.4208 -0.5550
  891MOL0     C20166   6.445   3.157   0.278 -0.3565  0.1531  0.2118
  891MOL0     N20167   6.554   3.089   0.210  0.2244  0.4244  0.6918
  891MOL0     C20168   6.629   2.999   0.280 -0.2479  0.4173  0.4234
  891MOL0     C20169   6.690   2.920   0.187  0.0717  0.3551 -0.6646
  891MOL0     C20170   6.789   2.813   0.214  0.6222  0.5108  0.3007
  891MOL0     C20171   6.926   2.837   0.156  0.0016 -0.1576  0.7139
  891MOL0     C20172   6.990   2.966   0.216  0.3410 -0.3059  0.2071
  891MOL0     C20173   7.110   3.010   0.143  0.0051 -0.5787 -0.3001
  891MOL0     O20174   7.213   2.911   0.097 -0.3957  0.0117 -0.8189
  891MOL0     C20175   7.325   2.893   0.181  0.3576 -0.4377 -0.1374
  891MOL0     C20176   7.433   2.853   0.109 -0.2087 -0.9535 -0.1247
  891MOL0     C20177   7.554   2.846   0.179  0.0286 -0.1033  0.8353
  891MOL0     C20178   7.569   2.884   0.310  0.0208 -0.5433  0.1606
  891MOL0     C20179   7.700   2.881   0.368 -0.3065 -0.1596 -0.5666
  891MOL0     O20180   7.808   2.899   0.289  0.5826  0.2470 -0.3235
  891MOL0     C20181   7.941   2.873   0.344 -0.1729  1.1279  0.2638
  891MOL0     C20182   8.049   2.958   0.310  0.3555  0.0911 -0.5820
  891MOL0     C20183   8.178   2.942   0.354 -0.2250 -0.8283  0.0211
  891MOL0     C20184   8.224   2.824   0.411  0.0817 -0.3523 -0.4433
  891MOL0     O20185   8.359   2.809   0.430  0.3491  0.8043  0.5387
  891MOL0     C20186   8.399   2.686   0.490  0.3856  0.3220  0.0485
  891MOL0     C20187   8.547   2.696   0.516 -1.1672  0.4342  0.5729
  891MOL0     C20188   8.642   2.707   0.392  0.5348  0.0023 -0.1503
  891MOL0     C20189   8.612   2.826   0.287  0.4089 -0.2110  1.1239
  891MOL0     C20190   8.611   2.970   0.341  0.1425 -0.4997 -0.1767
  891MOL0     C20191   8.631   3.090   0.234  0.3870  0.3989  0.9072
  891MOL0     C20192   8.505   3.110   0.149 -0.1967  0.4485  0.2647
  891MOL0     C20193   8.427   3.231   0.206 -0.3936 -0.4606  0.0741
  891MOL0    Cl20194   8.525   3.388   0.186  0.2468 -0.2916  0.2049
  891MOL0     C20195   8.117   2.731   0.446 -1.0018 -0.4039 -0.3849
  891MOL0     C20196   7.980   2.754   0.412  0.4458  0.6910 -0.8938
  891MOL0     O20197   7.705   2.875   0.491 -0.0105  0.0698  0.5542
  891MOL0     C20198   7.456   2.923   0.383  0.5403 -0.9013 -0.5858
  891MOL0     C20199   7.331   2.926   0.315 -0.0546 -0.8360 -0.6087
  891MOL0     N20200   6.653   2.964   0.062  0.0164  0.0287 -0.1758
  891MOL0     N20201   6.580   3.073   0.075  0.5343  0.9973 -0.0259
  891MOL0     C20202   5.401   2.921   0.431  0.4916  0.4183  0.1786
  891MOL0     C20203   5.284   2.869   0.484 -0.4069 -0.0007 -0.1799
  891MOL0     C20204   4.857   2.869   0.645  0.5271  0.0041 -0.1787
  891MOL0     C20205   4.862   2.732   0.694 -0.3032 -0.2437 -0.0253
  891MOL0     C20206   4.745   2.669   0.741  1.2172  0.0892  0.1086
  891MOL0     C20207   4.622   2.733   0.751 -0.4206  0.1391 -0.4449
  891MOL0     O20208   4.505   2.680   0.793 -0.0571 -0.0172  0.4487
  891MOL0     C20209   4.491   2.551   0.855 -0.3299 -0.8678  0.0205
  891MOL0     C20210   4.517   2.543   1.000 -0.4039 -0.4827 -0.9338
  891MOL0     C20211   4.471   2.673   1.074 -0.2832 -0.0738  0.1899
  891MOL0     C20212   4.460   2.662   1.220  0.8750 -0.1236 -0.2226
  891MOL0     C20213   4.587   2.676   1.294  0.2447  0.0192 -0.2846
  891MOL0     C20214   4.686   2.701   1.354  0.4929 -0.0440 -0.7373
  891MOL0     C20215   4.625   2.867   0.724 -0.2015 -1.1850 -0.0604
  891MOL0     C20216   4.737   2.940   0.676  0.2793 -1.1202 -0.6983
  891MOL0     C20217   4.721   3.092   0.657 -0.9184  0.1142 -1.4642
  891MOL0     H20218   5.190   3.119   0.689 -0.2427  1.1302 -1.1753
  891MOL0     H20219   5.409   3.217   0.578  0.3782  0.6160 -1.5896
  891MOL0     H20220   5.676   2.933   0.375  0.4842 -0.8397 -1.4711
  891MOL0     H20221   5.609   3.001   0.234 -1.3839  1.2715 -0.3674
  891MOL0     H20222   5.827   3.145   0.399  3.0743 -3.2646 -0.6838
  891MOL0     H20223   5.737   3.185   0.234 -1.9523 -0.5885  0.9801
  891MOL0     H20224   5.851   2.992   0.142 -0.4299 -2.6852  0.3455
  891MOL0     H20225   5.867   2.924   0.306 -1.3034 -0.3657 -1.0774
  891MOL0     H20226   6.041   3.154   0.207  0.4017 -0.1773 -2.0586
  891MOL0     H20227   6.053   3.073   0.366  2.4213 -0.2637 -1.2093
  891MOL0     H20228   6.143   2.877   0.259 -1.9071  0.0598 -0.4363
  891MOL0     H20229   6.089   2.928   0.097  4.2089 -2.3918 -0.8241
  891MOL0     H20230   6.317   2.974   0.096 -0.0167 -0.9189  0.9699
  891MOL0     H20231   6.237   3.131   0.119 -3.6617  1.3547  2.5649
  891MOL0     H20232   6.359   2.973   0.341  0.8337 -0.6506 -2.9596
  891MOL0     H20233   6.259   3.117   0.358 -0.1145  0.5791 -0.7381
  891MOL0     H20234   6.419   3.238   0.210  0.8077  0.9195  0.6542
  891MOL0     H20235   6.478   3.190   0.377  0.6241 -0.1906  0.0173
  891MOL0     H20236   6.628   2.998   0.389 -3.3415 -3.0935  0.5717
  891MOL0     H20237   6.795   2.792   0.322 -1.2489 -1.7098  0.0588
  891MOL0     H20238   6.763   2.715   0.172 -0.3175  0.6187  0.6253
  891MOL0     H20239   6.987   2.747   0.160 -0.6504 -0.8729 -2.4695
  891MOL0     H20240   6.910   2.860   0.050  2.9330 -0.8734  0.0501
  891MOL0     H20241   7.008   2.943   0.322  1.0688 -2.1479 -0.2864
  891MOL0     H20242   6.923   3.051   0.197  2.3874  1.5565  0.8052
  891MOL0     H20243   7.152   3.091   0.203 -1.9513  0.4655 -0.2675
  891MOL0     H20244   7.073   3.052   0.049 -1.0410 -0.6735  0.0559
  891MOL0     H20245   7.432   2.842   0.001  2.2769 -2.8820 -0.0422
  891MOL0     H20246   7.641   2.822   0.118 -0.2277  0.6756  0.1384
  891MOL0     H20247   8.029   3.051   0.256 -0.6317 -0.2630 -0.8512
  891MOL0     H20248   8.256   3.012   0.327 -0.8429  0.4875  1.5029
  891MOL0     H20249   8.344   2.666   0.582  2.4469  0.4181  1.3716
  891MOL0     H20250   8.377   2.601   0.425 -0.0727  1.1416 -0.8911
  891MOL0     H20251   8.572   2.779   0.583 -1.6552  0.3502  0.8673
  891MOL0     H20252   8.563   2.603   0.570  0.8458 -0.9850 -2.2350
  891MOL0     H20253   8.746   2.717   0.425 -0.0381 -2.1774  2.7826
  891MOL0     H20254   8.634   2.609   0.343  0.0081 -0.1644  0.2589
  891MOL0     H20255   8.513   2.801   0.247 -0.3738 -4.3778  4.8052
  891MOL0     H20256   8.684   2.803   0.207  1.1718 -1.7773  2.2057
  891MOL0     H20257   8.697   2.985   0.407 -0.9139  1.4665  0.8233
  891MOL0     H20258   8.518   2.988   0.395 -0.4766  0.7790 -1.5692
  891MOL0     H20259   8.660   3.185   0.280 -3.3799  2.5112 -0.6221
  891MOL0     H20260   8.715   3.050   0.176  0.1398 -2.6011  2.3943
  891MOL0     H20261   8.438   3.025   0.138 -0.3799  0.5199  0.8144
  891MOL0     H20262   8.539   3.152   0.054  1.2460  2.3466  1.5389
  891MOL0     H20263   8.330   3.228   0.155  0.2290 -2.0704 -1.1209
  891MOL0     H20264   8.423   3.229   0.315  0.5313 -0.5658  0.1122
  891MOL0     H20265   8.146   2.643   0.504 -1.0628  0.5857  1.2251
  891MOL0     H20266   7.910   2.674   0.431  1.2348  0.3103  0.5409
  891MOL0     H20267   7.457   2.952   0.488 -0.6594  3.0955 -1.5173
  891MOL0     H20268   7.250   2.961   0.377 -1.3604 -4.4180 -0.0091
  891MOL0     H20269   5.457   2.853   0.368 -0.3917 -1.2107  1.0892
  891MOL0     H20270   5.247   2.775   0.443  3.1674 -1.8173  0.3668
  891MOL0     H20271   4.950   2.668   0.702  1.1760  1.7438  0.4404
  891MOL0     H20272   4.756   2.563   0.760 -3.9166 -0.9618 -1.2512
  891MOL0     H20273   4.547   2.470   0.808 -0.3756 -1.0583  0.2912
  891MOL0     H20274   4.386   2.522   0.840 -0.3261  0.0619 -2.0650
  891MOL0     H20275   4.626   2.544   1.011 -0.4241  0.2600 -0.7467
  891MOL0     H20276   4.485   2.451   1.049  1.9657 -0.3974  0.9416
  891MOL0     H20277   4.366   2.679   1.043 -0.3077 -3.6422 -0.8381
  891MOL0     H20278   4.534   2.758   1.046 -0.3528  0.1208  0.6149
  891MOL0     H20279   4.404   2.749   1.256  1.1628  0.1650 -0.4667
  891MOL0     H20280   4.412   2.570   1.252 -0.2482  1.4045  2.9607
  891MOL0     H20281   4.772   2.712   1.418 -0.0023 -3.4205  0.7429
  891MOL0     H20282   4.528   2.909   0.748 -1.1560 -3.2151 -0.2170
  891MOL0     H20283   4.780   3.155   0.724 -1.7561  0.1371 -0.7297
  891MOL0     H20284   4.749   3.133   0.559 -0.8827 -0.0609 -1.5284
  891MOL0     H20285   4.613   3.107   0.666 -1.3066 -1.7700 -2.3634
  892MOL0     O20286   0.019   0.736  10.095  0.2428 -0.2162 -0.6144
  892MOL0     C20287  -0.055   0.832  10.088  0.3952  1.0862 -1.0976
  892MOL0     O20288  -0.025   0.963  10.069  0.2662  0.8024  0.2795
  892MOL0     C20289   0.100   0.985  10.037  0.1093 -0.0105  0.8053
  892MOL0     C20290   0.145   0.980   9.908  0.1806  0.1277 -0.0284
  892MOL0     C20291   0.280   1.003   9.880  0.4099  0.6697  0.2748
  892MOL0     C20292   0.369   1.045   9.980  0.7610 -0.3330 -0.4434
  892MOL0     O20293   0.502   1.061   9.964 -0.1092 -0.4850  0.1500
  892MOL0     C20294   0.566   1.007   9.843 -0.1197 -0.2853  0.6575
  892MOL0     C20295   0.719   1.016   9.861 -0.1406  0.0462 -0.8675
  892MOL0     C20296   0.788   0.968   9.733 -0.2604  0.4826 -0.5025
  892MOL0     C20297   0.946   0.986   9.736 -1.1382  0.6788 -0.0830
  892MOL0     C20298   1.023   0.941   9.607 -0.5954  0.5815 -0.1283
  892MOL0     C20299   1.000   1.025   9.479  0.1167  0.1874 -0.3206
  892MOL0     C20300   1.117   0.992   9.374  0.4562  0.8932 -0.4091
  892MOL0     C20301   1.081   1.066   9.243  0.0581 -0.7324 -0.2249
  892MOL0     N20302   1.210   1.115   9.191 -0.0293 -0.0300  0.0263
  892MOL0     C20303   1.235   1.243   9.166 -0.6146 -0.6312  0.0831
  892MOL0     C20304   1.344   1.245   9.086  0.0499 -0.4738 -0.1293
  892MOL0     C20305   1.405   1.356   9.021 -0.4513 -0.1028 -0.1233
  892MOL0     C20306   1.558   1.364   9.053  0.3308  0.0467 -0.5459
  892MOL0     C20307   1.628   1.489   8.997  0.1379  0.1840 -0.2347
  892MOL0     C20308   1.758   1.510   9.075 -0.2533  0.4634 -0.2491
  892MOL0     O20309   1.836   1.387   9.065 -0.0440 -0.5141  0.8208
  892MOL0     C20310   1.974   1.396   9.064 -0.3249 -0.5534  0.0238
  892MOL0     C20311   2.048   1.277   9.068 -0.1484 -0.0581 -0.4644
  892MOL0     C20312   2.181   1.281   9.115  0.0883  0.7523 -0.5958
  892MOL0     C20313   2.260   1.395   9.127 -0.3686  0.5565 -0.2418
  892MOL0     C20314   2.410   1.385   9.155  0.2777 -0.6135  0.0047
  892MOL0     O20315   2.455   1.265   9.184 -0.0810  0.2701 -0.4336
  892MOL0     C20316   2.580   1.251   9.239  0.4170  0.0069 -0.9431
  892MOL0     C20317   2.585   1.180   9.357 -0.5408  0.5584  0.1294
  892MOL0     C20318   2.709   1.149   9.411 -0.7332  1.6141 -0.0660
  892MOL0     C20319   2.832   1.190   9.348  0.4693 -0.3407  0.4066
  892MOL0     O20320   2.956   1.177   9.391  0.1305 -0.0757 -0.7811
  892MOL0     C20321   2.987   1.069   9.475  0.2741  0.6065 -0.2066
  892MOL0     C20322   3.142   1.082   9.488 -0.1232 -0.1312  0.2336
  892MOL0     C20323   3.209   0.990   9.595  0.2239  0.1525  0.0914
  892MOL0     C20324   3.363   0.980   9.591 -0.0890 -0.9975  0.3301
  892MOL0     C20325   3.420   0.889   9.710  0.4088 -0.2244  0.4833
  892MOL0     C20326   3.564   0.839   9.690 -0.9307 -0.4243  0.3495
  892MOL0     C20327   3.615   0.740   9.799 -0.0898 -0.4563 -0.4213
  892MOL0     C20328   3.757   0.708   9.800 -0.1358 -0.1249  0.7538
  892MOL0    Cl20329   3.862   0.857   9.828 -0.6993 -0.0558 -0.0910
  892MOL0     C20330   2.817   1.270   9.229  0.0459  0.2971 -0.2213
  892MOL0     C20331   2.693   1.289   9.176  1.0027 -0.3126 -0.5989
  892MOL0     O20332   2.471   1.490   9.173 -0.0264 -0.0514 -0.9535
  892MOL0     C20333   2.196   1.516   9.108 -0.4661 -0.2918 -0.8498
  892MOL0     C20334   2.056   1.516   9.077 -0.4710  0.3705 -0.2042
  892MOL0     N20335   1.375   1.117   9.063  0.0290 -0.4725  0.4315
  892MOL0     N20336   1.294   1.036   9.121 -0.0299 -0.5227  0.0658
  892MOL0     C20337   0.317   1.074  10.101  0.0695 -0.4537 -1.2320
  892MOL0     C20338   0.181   1.042  10.131  0.0796  0.7784  0.0781
  892MOL0     C20339  -0.197   0.812  10.098 -0.7987  0.5523 -0.2528
  892MOL0     C20340  -0.270   0.891  10.193  0.7658  0.7543  0.2047
  892MOL0     C20341  -0.406   0.872  10.200 -0.1632 -0.4564 -0.6707
  892MOL0     C20342  -0.474   0.770  10.122 -0.4201  0.3987  0.0304
  892MOL0     O20343  -0.614   0.744  10.153 -0.3440 -0.4714 -0.3507
  892MOL0     C20344  -0.701   0.686  10.054  0.0074  0.4846 -0.0645
  892MOL0     C20345  -0.839   0.753  10.043  0.2146  0.0498  0.0112
  892MOL0     C20346  -0.930   0.679   9.951 -0.0374 -0.2854  0.2811
  892MOL0     C20347  -0.914   0.526   9.943 -0.3097 -0.8181  0.6059
  892MOL0     C20348  -1.017   0.459   9.860  0.2273 -0.6183  0.0256
  892MOL0     C20349  -1.116   0.414   9.792  0.0140  0.3389 -0.1488
  892MOL0     C20350  -0.402   0.707  10.023 -0.2305  0.5630  0.4723
  892MOL0     C20351  -0.263   0.731  10.011  0.1787  0.1941  0.5546
  892MOL0     C20352  -0.189   0.657   9.900  0.6731 -1.1967 -0.6832
  892MOL0     H20353   0.074   0.945   9.834 -0.2598  0.8100  0.0618
  892MOL0     H20354   0.303   0.985   9.775 -2.8987 -1.6221 -0.2003
  892MOL0     H20355   0.551   0.900   9.828  1.7446 -0.6541  1.1417
  892MOL0     H20356   0.530   1.063   9.756 -1.9547 -2.6228 -0.1965
  892MOL0     H20357   0.748   0.952   9.946  2.9935 -1.3605 -2.8073
  892MOL0     H20358   0.749   1.119   9.883 -0.2736  0.0415 -0.6676
  892MOL0     H20359   0.739   1.023   9.651 -0.5327 -1.1234 -1.4615
  892MOL0     H20360   0.768   0.861   9.725 -2.9948  0.7997  0.9266
  892MOL0     H20361   0.968   1.092   9.754 -0.8668  0.4792  0.8230
  892MOL0     H20362   0.990   0.919   9.811  0.2551  1.7970  0.1437
  892MOL0     H20363   1.130   0.957   9.621  0.2054 -0.7960 -3.5587
  892MOL0     H20364   0.998   0.838   9.582 -1.0494  0.8359 -0.7637
  892MOL0     H20365   0.898   1.006   9.443 -0.7310  3.5255 -0.0291
  892MOL0     H20366   1.002   1.128   9.514  2.5374 -0.4356  1.6212
  892MOL0     H20367   1.122   0.883   9.367 -1.0622  0.7152  0.6366
  892MOL0     H20368   1.212   1.026   9.415  0.8492  1.0773 -1.4422
  892MOL0     H20369   1.043   0.993   9.171  2.2293 -0.1286 -2.0886
  892MOL0     H20370   1.006   1.145   9.254  1.4991  0.8403 -1.0971
  892MOL0     H20371   1.191   1.335   9.204  1.6823  0.7464 -0.4212
  892MOL0     H20372   1.383   1.364   8.914  0.0854  2.3820 -0.1091
  892MOL0     H20373   1.354   1.444   9.060 -1.0825  0.3531 -1.8728
  892MOL0     H20374   1.559   1.356   9.163 -0.1543 -1.3063 -0.6198
  892MOL0     H20375   1.599   1.273   9.010 -1.0097 -0.1549 -1.4481
  892MOL0     H20376   1.567   1.580   8.998 -0.5274 -0.2579  0.3062
  892MOL0     H20377   1.670   1.480   8.896  3.4336 -1.5892  1.1568
  892MOL0     H20378   1.739   1.532   9.180  2.9137 -4.5102  1.7473
  892MOL0     H20379   1.806   1.600   9.035  0.4596  1.9491  3.4795
  892MOL0     H20380   2.000   1.181   9.052 -1.0617 -0.2744  2.7951
  892MOL0     H20381   2.239   1.193   9.142  3.1115  3.5308  3.2891
  892MOL0     H20382   2.501   1.143   9.416 -2.1928  0.3963 -2.1928
  892MOL0     H20383   2.719   1.092   9.503 -2.1061  1.0432 -0.2472
  892MOL0     H20384   2.954   1.082   9.579  0.1806 -0.9536 -0.0222
  892MOL0     H20385   2.967   0.974   9.423  3.4807  0.5773 -1.6016
  892MOL0     H20386   3.174   1.047   9.389  1.1501  0.4802  0.4131
  892MOL0     H20387   3.181   1.181   9.510  1.9052 -0.8832  0.2903
  892MOL0     H20388   3.171   1.026   9.691 -1.0252  0.7888 -0.6039
  892MOL0     H20389   3.167   0.890   9.584 -1.4072  0.8458 -0.3897
  892MOL0     H20390   3.411   1.076   9.612  3.0402 -1.8657 -2.0943
  892MOL0     H20391   3.406   0.947   9.496  1.3021 -0.7616  0.8534
  892MOL0     H20392   3.355   0.802   9.696 -1.2227  1.0214 -0.0304
  892MOL0     H20393   3.412   0.925   9.813 -1.9281 -2.2165  1.0950
  892MOL0     H20394   3.581   0.793   9.592 -3.7317 -0.7126 -0.0675
  892MOL0     H20395   3.623   0.931   9.695 -1.0760 -0.2809 -0.4896
  892MOL0     H20396   3.570   0.641   9.789  0.4848 -0.5772 -1.9382
  892MOL0     H20397   3.597   0.803   9.887  1.3124 -0.5350 -0.0530
  892MOL0     H20398   3.786   0.641   9.882 -0.9165 -1.6640 -0.1875
  892MOL0     H20399   3.781   0.661   9.704  0.2718  0.5086  0.5413
  892MOL0     H20400   2.904   1.311   9.180  0.5606  0.3713  0.7376
  892MOL0     H20401   2.683   1.353   9.088  0.0211 -0.8746 -0.9220
  892MOL0     H20402   2.247   1.610   9.127 -1.3062 -0.4687  3.1457
  892MOL0     H20403   2.010   1.614   9.076  1.2128  1.4844  4.7314
  892MOL0     H20404   0.377   1.102  10.188 -1.6598  0.1729 -0.1747
  892MOL0     H20405   0.149   1.075  10.229 -0.4851 -0.3086  0.2753
  892MOL0     H20406  -0.223   0.954  10.267  0.9647  0.4247  0.3595
  892MOL0     H20407  -0.464   0.942  10.259  1.3713  3.0026 -2.9491
  892MOL0     H20408  -0.721   0.580  10.073 -0.7117  0.6043 -0.1429
  892MOL0     H20409  -0.651   0.690   9.957  2.7710 -1.8434  1.1379
  892MOL0     H20410  -0.837   0.858  10.014  1.9963  0.3482  1.0446
  892MOL0     H20411  -0.875   0.759  10.146  2.6588 -0.3567  0.9779
  892MOL0     H20412  -0.899   0.718   9.854 -0.1056  4.5377  1.9127
  892MOL0     H20413  -1.032   0.711   9.976 -0.3580 -2.2131  1.6597
  892MOL0     H20414  -0.824   0.513   9.883 -1.3477 -2.9742 -0.6084
  892MOL0     H20415  -0.917   0.474  10.039  0.2905  0.8000  1.5234
  892MOL0     H20416  -1.194   0.384   9.725  0.9527 -0.3262 -0.9629
  892MOL0     H20417  -0.445   0.624   9.967 -1.2154  0.5775  1.1861
  892MOL0     H20418  -0.106   0.711   9.853  0.1858 -2.4006 -3.0644
  892MOL0     H20419  -0.148   0.560   9.931  0.2363 -1.0276  0.4812
  892MOL0     H20420  -0.262   0.632   9.823 -1.9556 -0.2838  1.3867
  893MOL0     O20421   4.421   5.261   5.274  1.3226  0.2724 -0.7771
  893MOL0     C20422   4.475   5.337   5.345 -0.1213  0.5564 -0.4714
  893MOL0     O20423   4.602   5.335   5.373 -0.8223 -0.3557 -0.1525
  893MOL0     C20424   4.681   5.253   5.290 -0.6160 -0.7564  0.2814
  893MOL0     C20425   4.791   5.317   5.231  0.0493  0.5915 -0.2061
  893MOL0     C20426   4.890   5.249   5.164  0.7946 -0.5602  0.3278
  893MOL0     C20427   4.895   5.114   5.175 -0.7399  0.2048 -0.1484
  893MOL0     O20428   4.982   5.045   5.099  0.3311  0.1139 -0.1023
  893MOL0     C20429   5.114   5.094   5.086  0.4294  0.0857 -0.0514
  893MOL0     C20430   5.196   4.995   5.005  0.3229  1.0449  0.3811
  893MOL0     C20431   5.342   5.039   5.007  0.3571  0.4065  0.3781
  893MOL0     C20432   5.428   4.943   4.925 -0.4754 -0.0600  0.5391
  893MOL0     C20433   5.575   4.984   4.918 -0.2640  0.6855 -0.1260
  893MOL0     C20434   5.664   4.917   5.028 -0.0851 -0.0483 -0.1234
  893MOL0     C20435   5.803   4.975   5.049  0.6550  0.2235 -0.3530
  893MOL0     C20436   5.903   4.928   4.951  0.2070 -0.1892  0.4700
  893MOL0     N20437   6.040   4.944   4.998  0.3430 -0.0626  0.5643
  893MOL0     C20438   6.093   5.042   5.072 -1.0178 -0.5428 -0.1307
  893MOL0     C20439   6.218   4.996   5.109 -0.0955 -0.1053 -0.8401
  893MOL0     C20440   6.318   5.073   5.197 -0.2992  0.0034  0.3966
  893MOL0     C20441   6.446   5.108   5.126 -0.6238 -1.2971  0.0550
  893MOL0     C20442   6.540   5.205   5.190  0.4265  0.5754 -0.0897
  893MOL0     C20443   6.616   5.135   5.309 -0.2951 -0.0988 -0.1425
  893MOL0     O20444   6.692   5.021   5.275 -0.3151 -0.3161  0.2427
  893MOL0     C20445   6.819   5.035   5.230 -1.0101 -0.1644 -0.6510
  893MOL0     C20446   6.896   4.919   5.216 -0.4834 -0.7029 -0.1325
  893MOL0     C20447   7.022   4.930   5.159  1.1034  0.6773 -0.3982
  893MOL0     C20448   7.082   5.054   5.109  0.3287  0.7166 -0.8187
  893MOL0     C20449   7.210   5.058   5.050  0.3498 -0.3771  0.5526
  893MOL0     O20450   7.262   5.184   5.021 -0.4039 -0.3064 -0.1317
  893MOL0     C20451   7.390   5.192   4.995 -0.2631 -0.1515 -1.1844
  893MOL0     C20452   7.488   5.197   5.098 -0.7934 -1.4158  0.1626
  893MOL0     C20453   7.628   5.197   5.065  0.2767 -0.2293  0.4146
  893MOL0     C20454   7.667   5.188   4.931 -0.1474  0.2846  0.0870
  893MOL0     O20455   7.802   5.193   4.887 -0.7327  0.9605 -0.3287
  893MOL0     C20456   7.909   5.239   4.979  0.3113  0.3836 -0.1120
  893MOL0     C20457   8.044   5.180   4.926  0.2391 -0.1193  0.3275
  893MOL0     C20458   8.159   5.261   4.990 -0.1620 -0.0574  0.0771
  893MOL0     C20459   8.291   5.185   4.978 -0.1602  0.3579  0.4093
  893MOL0     C20460   8.384   5.210   5.098 -0.4298  0.0455  0.6604
  893MOL0     C20461   8.512   5.131   5.095  0.3155  0.7354  0.3086
  893MOL0     C20462   8.598   5.144   5.223 -1.0073 -0.6328 -0.2581
  893MOL0     C20463   8.755   5.116   5.217  0.7299 -0.3508  0.0963
  893MOL0    Cl20464   8.829   5.161   5.368  0.3131  0.3856 -0.5700
  893MOL0     C20465   7.573   5.169   4.833  0.3142 -0.0632 -0.5073
  893MOL0     C20466   7.434   5.173   4.866  0.0083  0.7467  0.7498
  893MOL0     O20467   7.274   4.951   5.038 -0.5175 -0.5373 -0.3202
  893MOL0     C20468   7.001   5.169   5.135  0.0889 -0.5438  1.0809
  893MOL0     C20469   6.876   5.156   5.186  0.0880  0.8611  0.3234
  893MOL0     N20470   6.239   4.886   5.038 -0.0853  0.0080 -0.0108
  893MOL0     N20471   6.133   4.850   4.977  0.3032  0.1381  0.0544
  893MOL0     C20472   4.799   5.045   5.234  0.4608  0.2048  0.0188
  893MOL0     C20473   4.691   5.115   5.283 -0.5291  0.6263 -0.5353
  893MOL0     C20474   4.392   5.429   5.420 -0.4373 -0.4425 -0.4358
  893MOL0     C20475   4.449   5.549   5.456 -0.5060 -0.1926  0.2610
  893MOL0     C20476   4.376   5.650   5.501 -0.0836 -0.4687 -0.4164
  893MOL0     C20477   4.243   5.627   5.546  0.5284  0.1589 -1.0301
  893MOL0     O20478   4.163   5.731   5.594  0.1151 -0.3694 -0.1529
  893MOL0     C20479   4.200   5.762   5.730 -0.1467  0.6769 -0.6683
  893MOL0     C20480   4.142   5.674   5.840 -0.2211 -0.5199  0.0075
  893MOL0     C20481   3.987   5.708   5.855  0.3384  0.8907 -0.3627
  893MOL0     C20482   3.918   5.650   5.974  0.3432 -0.0683 -0.5345
  893MOL0     C20483   3.980   5.674   6.111  0.3956 -0.1000  0.0992
  893MOL0     C20484   4.030   5.703   6.215  0.2313  0.5974  0.3088
  893MOL0     C20485   4.190   5.495   5.535 -0.3867  0.3152  0.4241
  893MOL0     C20486   4.259   5.402   5.464 -0.6833  0.6797 -0.3143
  893MOL0     C20487   4.187   5.264   5.438  0.3762 -0.0704  0.1234
  893MOL0     H20488   4.791   5.426   5.230  3.9280  0.7595  1.4240
  893MOL0     H20489   4.957   5.319   5.116  1.2106 -0.7649  0.6010
  893MOL0     H20490   5.120   5.189   5.031  4.1637  0.3237  0.4959
  893MOL0     H20491   5.155   5.119   5.184  0.5763 -1.0544  0.1994
  893MOL0     H20492   5.156   4.974   4.905 -1.1487  0.9065  0.9662
  893MOL0     H20493   5.193   4.897   5.054 -2.3622  1.2453  0.7624
  893MOL0     H20494   5.382   5.033   5.109  1.9764 -1.1074 -0.2949
  893MOL0     H20495   5.355   5.144   4.983 -0.7800  0.1821 -1.4377
  893MOL0     H20496   5.411   4.846   4.973 -0.6922 -0.3690 -0.1539
  893MOL0     H20497   5.380   4.942   4.827  2.5720  2.2226 -1.1810
  893MOL0     H20498   5.619   4.961   4.821 -0.6562  0.4080 -0.2454
  893MOL0     H20499   5.573   5.092   4.929  1.2800  0.6068  1.3351
  893MOL0     H20500   5.616   4.924   5.126 -0.1847 -3.0076  0.1234
  893MOL0     H20501   5.678   4.811   5.009 -1.2072  0.1953 -2.8447
  893MOL0     H20502   5.839   4.949   5.149  1.1417  2.1361  0.0209
  893MOL0     H20503   5.812   5.084   5.038  0.8211  0.1922 -0.5214
  893MOL0     H20504   5.891   4.823   4.925 -1.6916  0.1771 -0.2807
  893MOL0     H20505   5.891   4.983   4.857 -0.4077 -1.0675  0.0220
  893MOL0     H20506   6.044   5.135   5.101  0.0718  0.5662 -1.7447
  893MOL0     H20507   6.268   5.164   5.231 -0.2108  0.3222 -0.2999
  893MOL0     H20508   6.340   5.019   5.289 -1.1230  2.3348  2.0568
  893MOL0     H20509   6.499   5.018   5.092  0.2455 -0.4468 -0.8959
  893MOL0     H20510   6.421   5.154   5.030 -0.0288 -0.5772  0.2350
  893MOL0     H20511   6.475   5.282   5.232 -2.3485 -0.1437 -2.7336
  893MOL0     H20512   6.611   5.253   5.121 -0.5589  1.3018 -0.6166
  893MOL0     H20513   6.537   5.097   5.374  0.9754 -1.8450  0.4598
  893MOL0     H20514   6.663   5.208   5.376 -0.6093 -0.2718  0.2774
  893MOL0     H20515   6.848   4.824   5.238 -0.1300 -1.2595 -1.6750
  893MOL0     H20516   7.091   4.846   5.152  2.6199  1.9413 -1.2669
  893MOL0     H20517   7.454   5.213   5.199  2.8876  0.7710  1.2517
  893MOL0     H20518   7.700   5.225   5.141 -1.6460  4.6503  0.8226
  893MOL0     H20519   7.924   5.346   4.962  3.0392  0.1554  0.3172
  893MOL0     H20520   7.897   5.221   5.086  0.2183 -2.1404 -0.4946
  893MOL0     H20521   8.051   5.074   4.950  0.0360 -0.8015 -2.3258
  893MOL0     H20522   8.055   5.180   4.817  2.1749 -2.6230  0.4271
  893MOL0     H20523   8.177   5.363   4.957  0.0360 -0.2042 -0.2759
  893MOL0     H20524   8.124   5.260   5.094 -0.6739  0.7908 -0.0820
  893MOL0     H20525   8.332   5.213   4.881 -1.5039 -0.8109 -0.5350
  893MOL0     H20526   8.276   5.076   4.975 -1.3628  0.4600  1.6239
  893MOL0     H20527   8.332   5.202   5.194  1.8268 -0.2620  1.9340
  893MOL0     H20528   8.421   5.312   5.109  1.7375 -0.3930 -1.6349
  893MOL0     H20529   8.484   5.026   5.086  1.8780  0.2461  0.9050
  893MOL0     H20530   8.564   5.157   5.002 -1.6098 -0.2064 -1.1040
  893MOL0     H20531   8.553   5.094   5.309 -2.0941  1.2028  0.2945
  893MOL0     H20532   8.601   5.251   5.245  3.9982 -0.6234  0.1428
  893MOL0     H20533   8.780   5.015   5.186  0.4263 -0.8280  1.3612
  893MOL0     H20534   8.805   5.171   5.136 -0.2645 -3.8181 -3.1638
  893MOL0     H20535   7.588   5.175   4.725 -0.9781 -2.8608 -0.9126
  893MOL0     H20536   7.351   5.166   4.796 -0.1247  2.1068  0.7336
  893MOL0     H20537   7.032   5.270   5.113  1.1685 -0.6205  2.1177
  893MOL0     H20538   6.815   5.246   5.183  0.5775  1.4026  3.3702
  893MOL0     H20539   4.813   4.937   5.237 -0.3135 -0.0246 -2.3524
  893MOL0     H20540   4.624   5.059   5.348 -0.3418  1.8841  0.7882
  893MOL0     H20541   4.555   5.568   5.445 -0.3878 -2.0298 -3.4646
  893MOL0     H20542   4.420   5.747   5.523  0.9013 -0.9105 -0.4222
  893MOL0     H20543   4.162   5.864   5.746 -2.2719  0.1138 -1.7079
  893MOL0     H20544   4.307   5.753   5.747 -0.4948  0.2206  1.6430
  893MOL0     H20545   4.181   5.706   5.937 -2.5911  3.7151 -0.2157
  893MOL0     H20546   4.168   5.569   5.824 -1.9187 -0.8407 -0.8612
  893MOL0     H20547   3.942   5.675   5.761  1.2179 -3.6588  0.5497
  893MOL0     H20548   3.969   5.816   5.859 -4.0404  0.3144  0.2394
  893MOL0     H20549   3.812   5.679   5.973 -0.2737 -2.1441  0.0304
  893MOL0     H20550   3.909   5.542   5.968  1.2245 -0.1350 -0.7810
  893MOL0     H20551   4.070   5.722   6.312 -2.6071  0.3443  1.6200
  893MOL0     H20552   4.097   5.474   5.586 -0.2178 -0.8880  0.2649
  893MOL0     H20553   4.262   5.184   5.443  0.9721  0.2843 -1.9995
  893MOL0     H20554   4.102   5.244   5.503  0.1636  0.3469 -0.0182
  893MOL0     H20555   4.142   5.264   5.338  1.6534  1.7464 -0.5025
  894MOL0     O20556   5.695   9.472   2.223 -0.8529  0.4042  0.5232
  894MOL0     C20557   5.698   9.591   2.249 -0.2304 -0.1896  0.9540
  894MOL0     O20558   5.596   9.671   2.249 -0.2917 -0.0323 -0.8976
  894MOL0     C20559   5.464   9.629   2.217 -0.0702  0.0411 -0.1749
  894MOL0     C20560   5.428   9.517   2.130  0.2934 -0.7277 -0.3936
  894MOL0     C20561   5.300   9.475   2.117 -0.0795 -0.6583 -0.2861
  894MOL0     C20562   5.197   9.533   2.191  0.4051 -0.4765  0.7238
  894MOL0     O20563   5.064   9.501   2.181 -0.1327 -0.1338  0.3235
  894MOL0     C20564   5.004   9.433   2.065  0.8007 -0.3523 -0.7198
  894MOL0     C20565   4.861   9.391   2.098 -0.1315 -1.1485 -0.4235
  894MOL0     C20566   4.784   9.510   2.137  0.7034 -0.5335  0.3151
  894MOL0     C20567   4.631   9.474   2.134 -0.9811 -0.0271  0.7029
  894MOL0     C20568   4.543   9.596   2.151 -0.6487 -0.1744 -0.5967
  894MOL0     C20569   4.398   9.549   2.138  0.2676 -0.0110 -0.1794
  894MOL0     C20570   4.314   9.650   2.214 -0.3158  1.0159  0.4613
  894MOL0     C20571   4.163   9.627   2.183 -0.3988  0.6608 -0.4395
  894MOL0     N20572   4.089   9.737   2.251  0.5203 -0.9422  0.1940
  894MOL0     C20573   3.955   9.746   2.257 -0.0426 -0.1977 -0.2023
  894MOL0     C20574   3.918   9.827   2.364 -0.6875 -0.5449 -0.4792
  894MOL0     C20575   3.780   9.877   2.394 -0.4424  0.0904 -0.0332
  894MOL0     C20576   3.745  10.023   2.368 -0.5629 -0.6935  0.5295
  894MOL0     C20577   3.815  10.081   2.248 -0.6456 -0.4676  0.5955
  894MOL0     C20578   3.964  10.117   2.260  0.1977  0.4218 -0.2149
  894MOL0     O20579   3.981  10.224   2.172 -0.6788 -0.6028 -0.3410
  894MOL0     C20580   4.108  10.262   2.171 -0.5107 -0.5763 -0.0093
  894MOL0     C20581   4.129  10.371   2.082  0.4940  0.0757 -0.2303
  894MOL0     C20582   4.250  10.420   2.052  0.3186 -0.2686  0.1284
  894MOL0     C20583   4.367  10.371   2.114  0.1108 -0.2416  0.6676
  894MOL0     C20584   4.494  10.430   2.085 -0.2930  0.5859  0.0452
  894MOL0     O20585   4.603  10.391   2.164 -0.2084  0.2613 -0.0164
  894MOL0     C20586   4.720  10.460   2.147 -0.2104  0.2498  0.0776
  894MOL0     C20587   4.783  10.472   2.021  0.1544  0.6897 -0.2925
  894MOL0     C20588   4.908  10.537   2.007  0.1974  0.0892  0.1379
  894MOL0     C20589   4.976  10.592   2.116  0.2942 -0.5751  0.7106
  894MOL0     O20590   5.106  10.632   2.097  0.9441 -0.2718 -0.3784
  894MOL0     C20591   5.189  10.601   2.216 -0.4225 -0.1349 -0.1709
  894MOL0     C20592   5.331  10.589   2.173 -0.3288  0.6680  0.0811
  894MOL0     C20593   5.432  10.582   2.288  0.1836  0.4577  0.2902
  894MOL0     C20594   5.576  10.599   2.249 -0.7545 -0.6491  0.4321
  894MOL0     C20595   5.606  10.745   2.242  0.2042 -0.2905 -0.3352
  894MOL0     C20596   5.750  10.772   2.248  0.3461 -0.5123 -0.7125
  894MOL0     C20597   5.777  10.912   2.195 -0.3995 -0.2074  0.6405
  894MOL0     C20598   5.898  10.977   2.257 -0.3411 -0.9014  0.2380
  894MOL0    Cl20599   5.868  11.021   2.425 -0.3536  0.5751  0.2464
  894MOL0     C20600   4.913  10.579   2.247  0.0595 -0.0381 -0.5575
  894MOL0     C20601   4.782  10.520   2.256  0.3052  0.1155 -0.4435
  894MOL0     O20602   4.497  10.520   1.998  1.4442 -0.3113 -0.6535
  894MOL0     C20603   4.349  10.265   2.202 -0.2580  1.3293 -0.2578
  894MOL0     C20604   4.223  10.213   2.230 -0.1608 -0.5583 -0.2738
  894MOL0     N20605   4.039   9.860   2.424  0.3558  0.4711 -0.1559
  894MOL0     N20606   4.137   9.801   2.363 -0.0649  0.0087 -0.3405
  894MOL0     C20607   5.232   9.646   2.266  0.3037  0.5892  0.4368
  894MOL0     C20608   5.360   9.684   2.287 -0.3541 -0.2770 -0.1448
  894MOL0     C20609   5.841   9.644   2.266  0.0647 -0.6360  0.2914
  894MOL0     C20610   5.949   9.577   2.213 -0.4964  0.5123 -0.1618
  894MOL0     C20611   6.078   9.620   2.243  0.6140 -0.0268 -0.2091
  894MOL0     C20612   6.098   9.735   2.310 -0.1827  1.0637 -0.0102
  894MOL0     O20613   6.218   9.781   2.352  0.4390 -0.2448 -0.2238
  894MOL0     C20614   6.344   9.739   2.295 -0.0007  0.0672 -0.3824
  894MOL0     C20615   6.359   9.785   2.149  1.0711 -0.1000  0.7143
  894MOL0     C20616   6.370   9.937   2.122  0.2899 -0.2609 -0.1061
  894MOL0     C20617   6.236   9.986   2.061 -0.1961  0.5278 -0.4161
  894MOL0     C20618   6.234  10.128   2.050 -0.5197 -0.3273 -0.0867
  894MOL0     C20619   6.236  10.246   2.030  0.2957  0.2856  0.6480
  894MOL0     C20620   5.994   9.800   2.369  0.7546 -0.4321  0.4710
  894MOL0     C20621   5.866   9.765   2.344 -0.8650  0.5740 -0.0137
  894MOL0     C20622   5.758   9.856   2.400  0.6588  0.8266 -0.4172
  894MOL0     H20623   5.499   9.455   2.078 -0.8497 -2.9541  0.5605
  894MOL0     H20624   5.286   9.390   2.051 -0.1196 -0.5661 -0.3931
  894MOL0     H20625   5.011   9.498   1.977  0.0120  0.8950  0.1181
  894MOL0     H20626   5.063   9.343   2.048  0.1347 -1.6961  3.0900
  894MOL0     H20627   4.866   9.324   2.184 -0.2485  0.2693  0.7059
  894MOL0     H20628   4.807   9.345   2.015 -3.6763  2.7726 -0.5966
  894MOL0     H20629   4.788   9.582   2.055 -0.5433 -3.0485 -2.1046
  894MOL0     H20630   4.807   9.547   2.237 -1.8289 -0.1820  0.8403
  894MOL0     H20631   4.618   9.420   2.040  0.0355 -0.8182  1.0005
  894MOL0     H20632   4.624   9.397   2.212  2.9125 -0.5736  0.7411
  894MOL0     H20633   4.563   9.641   2.249  1.8799 -0.6093 -0.8433
  894MOL0     H20634   4.574   9.674   2.081  5.1528 -0.3192  1.3073
  894MOL0     H20635   4.366   9.534   2.034 -0.8068 -1.6381  0.3496
  894MOL0     H20636   4.388   9.456   2.196  1.0859  1.2887  2.1677
  894MOL0     H20637   4.334   9.749   2.173  0.3793  0.3770 -0.7935
  894MOL0     H20638   4.334   9.657   2.321  1.1468  4.9035  0.0914
  894MOL0     H20639   4.139   9.622   2.076 -0.0568 -1.9106 -0.4435
  894MOL0     H20640   4.136   9.532   2.230 -1.1281  0.1499 -1.8015
  894MOL0     H20641   3.892   9.706   2.178 -1.0344 -0.4821  0.7056
  894MOL0     H20642   3.712   9.821   2.330  1.8885 -2.2052 -0.6577
  894MOL0     H20643   3.753   9.847   2.496  0.6029  0.8053  0.4798
  894MOL0     H20644   3.638  10.033   2.350 -0.3945  1.1475  0.4183
  894MOL0     H20645   3.769  10.087   2.454 -1.2071 -0.4555  0.5377
  894MOL0     H20646   3.758  10.169   2.215 -3.1197 -2.2376 -0.2023
  894MOL0     H20647   3.805  10.002   2.172 -0.2982 -2.8523  2.8997
  894MOL0     H20648   4.027  10.033   2.229 -0.0264 -0.3154  1.2445
  894MOL0     H20649   3.988  10.140   2.364 -2.3191  0.1221  0.4862
  894MOL0     H20650   4.039  10.409   2.035  1.3792  0.4467 -1.6832
  894MOL0     H20651   4.247  10.488   1.968  0.0747  0.0628  0.4025
  894MOL0     H20652   4.740  10.427   1.933  5.3403 -1.4472 -2.0744
  894MOL0     H20653   4.955  10.553   1.910  0.0042  1.8754  0.2905
  894MOL0     H20654   5.175  10.680   2.290  1.0039  0.5268 -0.5711
  894MOL0     H20655   5.160  10.504   2.258 -1.3385  0.3313  0.2869
  894MOL0     H20656   5.357  10.495   2.123 -2.5333 -1.0327  1.8657
  894MOL0     H20657   5.341  10.670   2.101 -3.4047  1.4936  0.4275
  894MOL0     H20658   5.393  10.662   2.352  0.1744  1.2069 -0.6369
  894MOL0     H20659   5.416  10.481   2.328  1.6235 -0.4812 -1.3696
  894MOL0     H20660   5.613  10.551   2.157  0.1858 -2.4379  1.6850
  894MOL0     H20661   5.639  10.552   2.325 -2.3657  0.0604  2.2723
  894MOL0     H20662   5.565  10.806   2.323  0.4988 -1.4560  0.7408
  894MOL0     H20663   5.566  10.772   2.144  1.2890  1.9383 -0.2188
  894MOL0     H20664   5.786  10.755   2.350 -1.3400  1.0215  0.1705
  894MOL0     H20665   5.801  10.697   2.186  0.3501 -0.4109 -0.8326
  894MOL0     H20666   5.688  10.976   2.188 -0.9541 -1.1091 -1.0476
  894MOL0     H20667   5.800  10.903   2.088  0.2384  0.6350  0.6981
  894MOL0     H20668   5.978  10.903   2.254  1.0287  0.5303 -1.2943
  894MOL0     H20669   5.933  11.065   2.202 -0.3414 -0.0419  1.5690
  894MOL0     H20670   4.969  10.621   2.330  1.7140  0.5182 -1.8997
  894MOL0     H20671   4.725  10.505   2.347  0.1340 -1.5976 -0.7983
  894MOL0     H20672   4.433  10.225   2.257 -0.8268  1.9189  1.0830
  894MOL0     H20673   4.220  10.129   2.299  1.7597  0.2844  0.9215
  894MOL0     H20674   5.154   9.701   2.319  1.2594  3.7688 -1.1520
  894MOL0     H20675   5.392   9.746   2.370 -0.5271  0.2503 -0.4682
  894MOL0     H20676   5.925   9.486   2.158 -0.5318 -1.2656  2.6025
  894MOL0     H20677   6.162   9.558   2.213 -0.3129 -2.6922  2.2442
  894MOL0     H20678   6.352   9.632   2.275  2.7150  0.1579 -0.1420
  894MOL0     H20679   6.431   9.774   2.352 -0.7273 -1.3072  1.6947
  894MOL0     H20680   6.276   9.737   2.096  1.5851 -1.3951  1.0458
  894MOL0     H20681   6.442   9.735   2.099  0.3680 -1.7317  1.0968
  894MOL0     H20682   6.444   9.954   2.044  1.4540  3.7242  1.6151
  894MOL0     H20683   6.399   9.987   2.215 -0.4405 -0.4217  0.2196
  894MOL0     H20684   6.227   9.943   1.961  1.5836  0.0050 -0.3780
  894MOL0     H20685   6.151   9.955   2.122 -0.7535 -0.7722 -1.7847
  894MOL0     H20686   6.247  10.352   2.021  1.6161  0.0476 -1.0375
  894MOL0     H20687   6.016   9.886   2.431 -0.7069 -1.3100  2.3085
  894MOL0     H20688   5.790   9.898   2.496  1.1006  0.9373 -0.6073
  894MOL0     H20689   5.746   9.936   2.326  2.6213  1.3759 -0.2033
  894MOL0     H20690   5.668   9.802   2.429  1.0718 -0.0771 -0.7893
  895MOL0     O20691   7.054   0.463   1.072  0.0428  0.1979  0.2194
  895MOL0     C20692   7.081   0.555   1.000  0.3530 -0.6339 -0.5498
  895MOL0     O20693   7.194   0.632   1.002 -0.0950 -0.1897  0.0335
  895MOL0     C20694   7.289   0.578   1.080  0.1946 -0.6216 -0.7606
  895MOL0     C20695   7.278   0.569   1.223  0.1916  0.3697 -0.0726
  895MOL0     C20696   7.392   0.533   1.306 -0.0330  0.2832 -0.0027
  895MOL0     C20697   7.515   0.512   1.249 -0.2860  0.1904  0.3087
  895MOL0     O20698   7.634   0.483   1.313 -0.1393  0.5850  0.7564
  895MOL0     C20699   7.635   0.473   1.456  0.1420  1.4382  0.5254
  895MOL0     C20700   7.754   0.393   1.502 -0.0180  0.7416 -0.9257
  895MOL0     C20701   7.725   0.242   1.483 -0.4251  0.4048 -0.0547
  895MOL0     C20702   7.852   0.177   1.545  0.3561 -0.0734 -0.4516
  895MOL0     C20703   7.814   0.145   1.694 -0.1354  0.7104  0.6983
  895MOL0     C20704   7.925   0.057   1.748 -0.4357  0.4835  0.9253
  895MOL0     C20705   8.046   0.148   1.775 -0.0516 -0.3062  0.7179
  895MOL0     C20706   8.158   0.072   1.840 -0.7393 -0.0615  0.6748
  895MOL0     N20707   8.256   0.173   1.899  0.5545  0.4482 -0.0004
  895MOL0     C20708   8.364   0.215   1.819  0.0112 -0.1381  0.2493
  895MOL0     C20709   8.430   0.308   1.899  0.9763  0.4756  0.1884
  895MOL0     C20710   8.546   0.392   1.866 -0.2878 -0.7628  0.0011
  895MOL0     C20711   8.674   0.315   1.835  0.3119  0.4492  1.0352
  895MOL0     C20712   8.793   0.412   1.806 -0.2313  0.4707  0.1512
  895MOL0     C20713   8.931   0.352   1.806  0.1109  0.1233  0.0854
  895MOL0     O20714   8.944   0.213   1.765  0.1148  0.4677 -0.2684
  895MOL0     C20715   9.072   0.162   1.786  0.7373 -0.3367 -0.5498
  895MOL0     C20716   9.186   0.241   1.821 -0.0668  0.3850  0.8436
  895MOL0     C20717   9.308   0.192   1.836  0.0779  0.1076 -0.1389
  895MOL0     C20718   9.324   0.055   1.806 -0.6310 -0.1032 -0.0748
  895MOL0     C20719   9.461  -0.004   1.815  0.0450  0.5853  0.2967
  895MOL0     O20720   9.471  -0.147   1.823  0.3721 -0.4363 -0.5502
  895MOL0     C20721   9.589  -0.219   1.822  0.6018 -0.2209  0.2281
  895MOL0     C20722   9.711  -0.172   1.871 -0.3192  0.1231 -0.0912
  895MOL0     C20723   9.817  -0.262   1.887 -0.1095 -0.3480 -0.1693
  895MOL0     C20724   9.810  -0.394   1.858  0.5535  1.0815 -0.5220
  895MOL0     O20725   9.912  -0.484   1.877  0.0245 -0.5168  0.1894
  895MOL0     C20726  10.038  -0.442   1.837  0.1498  0.2317 -0.6608
  895MOL0     C20727  10.146  -0.505   1.909  1.2512  0.1248 -0.3447
  895MOL0     C20728  10.122  -0.461   2.057  0.7605 -0.3855  0.2314
  895MOL0     C20729  10.241  -0.491   2.149 -0.6803 -0.0079 -0.3175
  895MOL0     C20730  10.241  -0.418   2.283  0.4547 -0.5276  0.3816
  895MOL0     C20731  10.326  -0.464   2.396  0.3737 -0.8123 -0.1804
  895MOL0     C20732  10.469  -0.474   2.352 -0.3594 -0.0444 -0.3808
  895MOL0     C20733  10.553  -0.477   2.480 -0.1327 -0.5294  0.0892
  895MOL0    Cl20734  10.523  -0.625   2.565 -0.2889 -0.3964 -0.0748
  895MOL0     C20735   9.686  -0.439   1.796  0.4720  0.3934  0.3034
  895MOL0     C20736   9.572  -0.354   1.780 -1.1182  1.0443  0.7608
  895MOL0     O20737   9.549   0.062   1.780 -0.1170  0.4420 -0.0456
  895MOL0     C20738   9.216  -0.028   1.779  0.0432 -0.3935  0.5826
  895MOL0     C20739   9.089   0.029   1.770  0.4151  0.4423  0.6850
  895MOL0     N20740   8.362   0.305   2.016 -0.2303 -0.1772  0.3279
  895MOL0     N20741   8.258   0.235   2.016  0.3986  1.3375 -0.8751
  895MOL0     C20742   7.524   0.525   1.109  0.5966 -0.1845  0.4836
  895MOL0     C20743   7.417   0.559   1.027  1.0554  0.5633 -0.2899
  895MOL0     C20744   6.986   0.598   0.895 -0.4662 -0.2909  0.0353
  895MOL0     C20745   7.025   0.689   0.792 -0.4561 -0.7986 -0.1391
  895MOL0     C20746   6.937   0.720   0.689 -0.4461  0.1615  0.4079
  895MOL0     C20747   6.809   0.672   0.695  0.0765 -0.4414  1.1750
  895MOL0     O20748   6.712   0.713   0.602  0.0268 -0.2430  0.5936
  895MOL0     C20749   6.754   0.759   0.465  0.0473  0.3465  0.5000
  895MOL0     C20750   6.640   0.755   0.359  0.2200  0.2722  0.2264
  895MOL0     C20751   6.525   0.841   0.390  0.1207 -0.3100  0.4881
  895MOL0     C20752   6.445   0.871   0.256 -0.2083 -0.6487  0.0468
  895MOL0     C20753   6.316   0.923   0.288 -0.3705  0.5694 -1.0932
  895MOL0     C20754   6.214   0.967   0.334  0.2685  0.1378  0.2559
  895MOL0     C20755   6.769   0.596   0.794 -0.2518  0.2384  0.6430
  895MOL0     C20756   6.850   0.553   0.897 -1.0396  0.1647 -0.1865
  895MOL0     C20757   6.786   0.465   1.004 -0.1524  0.3197 -1.2501
  895MOL0     H20758   7.184   0.589   1.274 -0.1113  0.3406 -0.6128
  895MOL0     H20759   7.383   0.520   1.414  2.3456  1.4691  0.3974
  895MOL0     H20760   7.644   0.571   1.503 -1.2896  0.4692  3.0220
  895MOL0     H20761   7.546   0.419   1.489  0.8459  1.0144  1.8092
  895MOL0     H20762   7.768   0.407   1.609 -1.6717 -0.3354 -0.5212
  895MOL0     H20763   7.845   0.425   1.451 -0.1678  2.0777 -0.3822
  895MOL0     H20764   7.707   0.215   1.378 -2.7327  0.3339  0.3059
  895MOL0     H20765   7.636   0.208   1.537  0.5239 -1.5533  0.3804
  895MOL0     H20766   7.865   0.077   1.501  0.2064 -0.2201 -0.1647
  895MOL0     H20767   7.948   0.229   1.536  2.0385 -3.0657 -1.3664
  895MOL0     H20768   7.775   0.220   1.763 -1.0481  0.0243  0.9486
  895MOL0     H20769   7.726   0.082   1.678 -0.8626  1.5993  1.1314
  895MOL0     H20770   7.891   0.013   1.842 -2.4739 -0.6051 -0.2657
  895MOL0     H20771   7.937  -0.019   1.670 -1.3677  1.2669 -0.0183
  895MOL0     H20772   8.020   0.236   1.833 -0.7139 -0.1523  0.1998
  895MOL0     H20773   8.090   0.182   1.680 -1.8395  1.0682  0.3289
  895MOL0     H20774   8.112   0.009   1.918  0.7145  0.1692  1.7541
  895MOL0     H20775   8.207   0.001   1.772  1.3603 -0.3838  2.3988
  895MOL0     H20776   8.389   0.182   1.718  1.7862 -0.0714  0.6434
  895MOL0     H20777   8.518   0.455   1.781 -2.3447  1.9101  2.4614
  895MOL0     H20778   8.561   0.459   1.951 -0.6726 -1.0265  0.2771
  895MOL0     H20779   8.694   0.260   1.928  1.2855  0.7647  1.0210
  895MOL0     H20780   8.653   0.251   1.750  1.8132  1.3946 -0.0901
  895MOL0     H20781   8.787   0.486   1.886 -3.7476 -1.9505  2.4189
  895MOL0     H20782   8.777   0.452   1.706  4.4126 -1.9535 -1.8533
  895MOL0     H20783   8.974   0.368   1.905 -0.8260  1.5392  0.2809
  895MOL0     H20784   8.986   0.408   1.730  0.3224  1.6411  1.3068
  895MOL0     H20785   9.179   0.347   1.846 -4.4593 -0.0666  2.4567
  895MOL0     H20786   9.395   0.250   1.866 -0.4009  0.3827  0.7531
  895MOL0     H20787   9.720  -0.070   1.908 -2.3178 -0.5441  2.4882
  895MOL0     H20788   9.905  -0.223   1.938 -0.7944  1.9730 -0.6448
  895MOL0     H20789  10.048  -0.467   1.731 -1.6048 -2.6272 -0.2542
  895MOL0     H20790  10.071  -0.339   1.851  3.7730 -0.9115  0.4143
  895MOL0     H20791  10.135  -0.613   1.900  1.9475 -0.2022  2.0468
  895MOL0     H20792  10.236  -0.473   1.856  1.9678  0.9312  1.2763
  895MOL0     H20793  10.104  -0.354   2.064  2.1572 -0.1785  1.1989
  895MOL0     H20794  10.032  -0.506   2.100  0.3984  0.3239  0.2324
  895MOL0     H20795  10.332  -0.464   2.093  0.3892 -2.1018  0.2990
  895MOL0     H20796  10.229  -0.599   2.162  1.0760 -0.4441 -1.8621
  895MOL0     H20797  10.135  -0.415   2.312 -0.3734  1.4932 -2.4863
  895MOL0     H20798  10.273  -0.314   2.270  1.2377 -0.7800  0.2808
  895MOL0     H20799  10.305  -0.392   2.477  2.2127  0.8788 -1.0987
  895MOL0     H20800  10.304  -0.564   2.432  3.2268 -3.2691 -4.4214
  895MOL0     H20801  10.501  -0.395   2.283  2.3904 -0.2681  0.5238
  895MOL0     H20802  10.476  -0.562   2.288 -2.4830 -0.8409  0.4017
  895MOL0     H20803  10.656  -0.465   2.446 -0.5526  0.2170 -0.9526
  895MOL0     H20804  10.539  -0.392   2.547  0.9070  0.8317 -1.3440
  895MOL0     H20805   9.666  -0.543   1.773 -3.8349  0.7290  1.6043
  895MOL0     H20806   9.475  -0.380   1.737  0.4401 -0.8301 -1.8819
  895MOL0     H20807   9.229  -0.132   1.752 -2.6613 -0.4008 -1.1468
  895MOL0     H20808   9.013  -0.044   1.743  2.4153 -1.8614  0.8627
  895MOL0     H20809   7.618   0.494   1.065  0.4619  0.0789  0.0035
  895MOL0     H20810   7.437   0.539   0.922  1.6954 -1.9730  0.2678
  895MOL0     H20811   7.124   0.734   0.799 -1.1610  0.9935 -1.0567
  895MOL0     H20812   6.970   0.783   0.608  0.2561 -0.7428 -0.0309
  895MOL0     H20813   6.832   0.686   0.440 -0.9800 -0.9301  0.8954
  895MOL0     H20814   6.790   0.862   0.466  0.2490  0.3931 -2.2805
  895MOL0     H20815   6.610   0.650   0.350  0.2214  0.3807 -1.3751
  895MOL0     H20816   6.685   0.788   0.265  0.4428 -1.3217 -0.2511
  895MOL0     H20817   6.567   0.933   0.431  2.1098 -1.7364  1.8284
  895MOL0     H20818   6.459   0.799   0.467  0.2647 -0.4548  0.5327
  895MOL0     H20819   6.496   0.948   0.198 -1.7231 -0.6538 -1.3899
  895MOL0     H20820   6.434   0.785   0.188 -3.5206 -0.3233  0.0212
  895MOL0     H20821   6.123   1.014   0.363  0.3110  1.0546 -1.0351
  895MOL0     H20822   6.673   0.544   0.790 -1.6814  2.7240  0.3607
  895MOL0     H20823   6.681   0.442   0.988  0.3249 -2.7723 -0.6403
  895MOL0     H20824   6.841   0.371   1.016  1.1666  1.0181 -1.5028
  895MOL0     H20825   6.793   0.521   1.098 -2.4377 -1.3613  0.0072
  896MOL0     O20826   9.651   6.351   0.872 -0.3117  0.7218 -0.3591
  896MOL0     C20827   9.564   6.269   0.849 -0.0741  0.4484 -0.0209
  896MOL0     O20828   9.569   6.181   0.747 -0.7196  0.2086 -0.6132
  896MOL0     C20829   9.686   6.165   0.680  0.5666  0.3855  0.9538
  896MOL0     C20830   9.750   6.043   0.681  0.5466  0.6570 -0.6272
  896MOL0     C20831   9.859   6.027   0.593  0.0686 -0.7647  0.3713
  896MOL0     C20832   9.896   6.130   0.495  0.4809 -0.6462 -0.0142
  896MOL0     O20833  10.013   6.112   0.419 -0.6254 -0.2052 -0.5706
  896MOL0     C20834  10.061   6.219   0.339  0.2393  0.1238 -0.5755
  896MOL0     C20835  10.159   6.161   0.241  0.4987 -0.9184  0.4140
  896MOL0     C20836  10.247   6.283   0.202 -0.1083  0.2696  0.4164
  896MOL0     C20837  10.344   6.247   0.085  0.2435 -0.1302 -0.1077
  896MOL0     C20838  10.433   6.365   0.034  0.0779  0.2154 -0.3804
  896MOL0     C20839  10.571   6.331  -0.020 -0.3352  0.6036  0.4296
  896MOL0     C20840  10.642   6.454  -0.082  0.5958  0.1915 -0.9102
  896MOL0     C20841  10.712   6.547   0.019 -0.1896  0.1445 -0.3422
  896MOL0     N20842  10.838   6.480   0.049 -0.5282  0.5025  0.6796
  896MOL0     C20843  10.874   6.391   0.155 -0.0383  0.6876 -0.5166
  896MOL0     C20844  11.009   6.387   0.160 -0.0549  0.5125  0.2084
  896MOL0     C20845  11.092   6.322   0.258 -0.0744 -0.1416 -0.6088
  896MOL0     C20846  11.120   6.178   0.210 -0.2664 -0.8159  0.7829
  896MOL0     C20847  11.201   6.112   0.311  0.7312  0.0115 -0.1093
  896MOL0     C20848  11.252   5.979   0.260  0.9875  0.1252 -0.1914
  896MOL0     O20849  11.348   5.998   0.154 -0.1776 -0.0794  0.1225
  896MOL0     C20850  11.483   6.017   0.198  0.4731  0.3463  0.1367
  896MOL0     C20851  11.526   6.040   0.331  0.1627 -0.3018 -0.1148
  896MOL0     C20852  11.666   6.042   0.363  0.0345  0.2892 -0.5615
  896MOL0     C20853  11.765   6.014   0.260  0.2995 -0.1409 -0.6741
  896MOL0     C20854  11.906   6.004   0.286  0.1438 -1.6643  0.3453
  896MOL0     O20855  11.985   5.968   0.180  0.1643 -0.1104 -0.2417
  896MOL0     C20856  12.119   5.935   0.210  0.4453 -0.8499  0.2395
  896MOL0     C20857  12.164   5.841   0.312  0.0152 -0.5144  0.0121
  896MOL0     C20858  12.304   5.819   0.328 -0.1819  0.0585 -0.2207
  896MOL0     C20859  12.399   5.889   0.253  0.5993 -0.3919  0.1204
  896MOL0     O20860  12.527   5.842   0.272 -0.9507 -0.3667  0.0066
  896MOL0     C20861  12.629   5.918   0.206  0.0093 -0.3736 -0.0250
  896MOL0     C20862  12.765   5.884   0.268 -0.5044 -0.3873 -0.5053
  896MOL0     C20863  12.884   5.935   0.185 -0.1079  0.3324  0.8757
  896MOL0     C20864  13.014   5.892   0.240 -0.1262 -1.2942 -0.5023
  896MOL0     C20865  13.121   5.927   0.147  0.2178  0.0765  0.6796
  896MOL0     C20866  13.265   5.901   0.213  0.4804  0.1314 -0.2768
  896MOL0     C20867  13.384   5.941   0.124 -0.1537  0.0450  0.5178
  896MOL0     C20868  13.393   6.098   0.126 -0.3522  0.4701  0.6794
  896MOL0    Cl20869  13.527   6.159   0.025  0.1846  0.3031  0.2200
  896MOL0     C20870  12.355   5.980   0.149  0.8556  0.1735  0.4576
  896MOL0     C20871  12.215   6.003   0.132 -0.2669 -0.1824 -0.1729
  896MOL0     O20872  11.941   6.026   0.400 -0.5369  0.1100  0.5134
  896MOL0     C20873  11.716   6.000   0.136 -0.1429 -0.1050 -0.2520
  896MOL0     C20874  11.582   6.008   0.103 -0.5121 -0.2264  0.2083
  896MOL0     N20875  11.058   6.452   0.048 -0.2726 -0.2407  0.6620
  896MOL0     N20876  10.956   6.503  -0.021  0.0403  0.3153 -0.6493
  896MOL0     C20877   9.824   6.252   0.503 -0.0355 -0.6451  0.7251
  896MOL0     C20878   9.718   6.266   0.588 -0.4051 -0.2149  0.7543
  896MOL0     C20879   9.442   6.285   0.924  0.3036 -0.2781 -0.4666
  896MOL0     C20880   9.324   6.281   0.848  0.1341  0.1358 -0.9721
  896MOL0     C20881   9.202   6.279   0.917  0.5389  0.2593 -0.3066
  896MOL0     C20882   9.200   6.292   1.056 -0.3560  0.7001 -0.5127
  896MOL0     O20883   9.087   6.287   1.139 -0.1250 -0.9537  0.0734
  896MOL0     C20884   8.985   6.197   1.099 -0.0774  0.6990  0.4074
  896MOL0     C20885   8.872   6.225   1.198  0.2783  0.3160  0.2180
  896MOL0     C20886   8.734   6.204   1.134  0.2470 -0.5520  0.0744
  896MOL0     C20887   8.630   6.200   1.240  1.1300  0.8588  0.0517
  896MOL0     C20888   8.497   6.172   1.188  0.5091  0.0498  0.1426
  896MOL0     C20889   8.388   6.163   1.141 -0.2421 -0.2775  0.2962
  896MOL0     C20890   9.316   6.309   1.129 -0.8285  0.0350  0.4299
  896MOL0     C20891   9.442   6.296   1.067 -1.9935  1.4148 -0.2216
  896MOL0     C20892   9.570   6.306   1.154  0.0777 -0.8331  0.5262
  896MOL0     H20893   9.728   5.972   0.760  2.3638  0.1373 -0.5412
  896MOL0     H20894   9.919   5.937   0.588  1.7925  0.4005 -1.6875
  896MOL0     H20895   9.983   6.281   0.295  0.9920  2.3346  1.0266
  896MOL0     H20896  10.123   6.279   0.406 -0.9909 -0.7150  1.4093
  896MOL0     H20897  10.099   6.128   0.156 -1.3271  0.3514  1.1403
  896MOL0     H20898  10.206   6.082   0.301 -2.4068 -0.3686  3.7253
  896MOL0     H20899  10.320   6.293   0.282  2.0940 -0.2178 -1.4225
  896MOL0     H20900  10.201   6.380   0.182 -0.9993 -0.4664 -1.3101
  896MOL0     H20901  10.392   6.157   0.125  0.1896  0.0801  0.4298
  896MOL0     H20902  10.293   6.210  -0.005  1.4572 -2.0554 -0.0644
  896MOL0     H20903  10.368   6.418  -0.036  0.9168  2.7318  0.6041
  896MOL0     H20904  10.451   6.437   0.115  0.5306  1.9087 -1.9012
  896MOL0     H20905  10.622   6.298   0.071  0.9486  1.7287  0.1419
  896MOL0     H20906  10.548   6.252  -0.092 -1.5654  0.1408  1.2840
  896MOL0     H20907  10.567   6.510  -0.139  0.3599  2.2338  1.2859
  896MOL0     H20908  10.711   6.424  -0.161  0.3855 -3.0923 -0.0124
  896MOL0     H20909  10.748   6.645  -0.013 -0.7696  1.2395  2.1418
  896MOL0     H20910  10.654   6.560   0.110  2.0481  0.9516  1.0398
  896MOL0     H20911  10.807   6.348   0.228  1.1272 -0.8994 -0.3358
  896MOL0     H20912  11.189   6.373   0.265  0.7394 -1.3888 -2.1429
  896MOL0     H20913  11.043   6.323   0.356  0.7735 -0.2255 -0.1751
  896MOL0     H20914  11.028   6.120   0.201 -0.8299 -0.0990  1.6971
  896MOL0     H20915  11.174   6.182   0.115  2.0042  4.1345  1.9525
  896MOL0     H20916  11.131   6.077   0.388 -0.3563  1.3549 -0.4337
  896MOL0     H20917  11.282   6.178   0.344  1.3968 -1.2865  0.9686
  896MOL0     H20918  11.172   5.920   0.213 -0.0067  0.2788  1.2323
  896MOL0     H20919  11.292   5.917   0.341  0.3450  3.2723  2.7423
  896MOL0     H20920  11.451   6.047   0.409  0.1565  0.7757 -0.2030
  896MOL0     H20921  11.690   6.059   0.467 -3.5166  0.6215  0.3374
  896MOL0     H20922  12.096   5.782   0.374  0.7292 -1.6803 -0.2698
  896MOL0     H20923  12.344   5.741   0.393  1.1979  1.6757  0.9612
  896MOL0     H20924  12.627   5.885   0.102  0.4869  0.0319 -0.1680
  896MOL0     H20925  12.617   6.026   0.217  1.1983 -0.2844  0.5283
  896MOL0     H20926  12.769   5.893   0.377  0.9050 -2.7339 -0.2893
  896MOL0     H20927  12.787   5.777   0.261 -0.8969 -0.4193 -1.3922
  896MOL0     H20928  12.869   5.901   0.082  1.7448 -0.1095  0.7076
  896MOL0     H20929  12.872   6.044   0.188 -2.3207  0.1055  1.6426
  896MOL0     H20930  13.015   5.785   0.262  0.9310 -1.7508 -2.4709
  896MOL0     H20931  13.038   5.946   0.332  0.9082 -1.9109 -0.3916
  896MOL0     H20932  13.124   6.036   0.134  3.3245  0.2761  2.1413
  896MOL0     H20933  13.128   5.874   0.052  0.2863 -0.7680  1.1497
  896MOL0     H20934  13.272   5.936   0.316  3.4496  2.7310 -1.2197
  896MOL0     H20935  13.260   5.792   0.222  3.2372  0.0184  0.7848
  896MOL0     H20936  13.383   5.901   0.023  0.2415 -1.4814  1.0892
  896MOL0     H20937  13.471   5.898   0.175 -1.1413 -0.4209  1.8734
  896MOL0     H20938  13.308   6.153   0.086 -0.3957  0.4819  0.7873
  896MOL0     H20939  13.418   6.121   0.230  0.0352 -2.1201  1.2203
  896MOL0     H20940  12.423   6.019   0.074 -1.5597  0.1311 -1.9208
  896MOL0     H20941  12.182   6.072   0.055  1.9864  0.2035 -0.8529
  896MOL0     H20942  11.782   5.972   0.054 -3.3042 -3.2834 -2.0199
  896MOL0     H20943  11.567   5.991  -0.003  0.2736  0.0541  0.0477
  896MOL0     H20944   9.852   6.333   0.436  0.7887 -0.6274  1.0866
  896MOL0     H20945   9.659   6.355   0.570 -0.9255 -0.2779  2.0670
  896MOL0     H20946   9.336   6.267   0.741  1.8109 -4.2227 -0.4384
  896MOL0     H20947   9.108   6.275   0.862 -0.0868  3.0397  0.4465
  896MOL0     H20948   9.011   6.092   1.111 -1.1518  0.1694 -1.4301
  896MOL0     H20949   8.945   6.216   0.998 -1.5559 -0.7917  0.6597
  896MOL0     H20950   8.886   6.324   1.243 -0.8298 -0.4150  2.2886
  896MOL0     H20951   8.876   6.153   1.280 -1.2407 -1.4157 -1.1533
  896MOL0     H20952   8.736   6.112   1.074  1.8239 -0.0540 -0.6906
  896MOL0     H20953   8.708   6.285   1.065  0.4102  0.5670  1.3029
  896MOL0     H20954   8.644   6.119   1.312  2.1865  0.3103 -0.7428
  896MOL0     H20955   8.617   6.294   1.294 -0.8036  1.4734 -1.3648
  896MOL0     H20956   8.288   6.146   1.107 -0.0278  2.9143 -2.4378
  896MOL0     H20957   9.301   6.331   1.234 -0.8996 -1.2121  0.6926
  896MOL0     H20958   9.635   6.223   1.127 -0.6187 -0.5947 -2.2276
  896MOL0     H20959   9.616   6.405   1.147 -0.9590 -0.3768 -0.0939
  896MOL0     H20960   9.543   6.299   1.260 -1.2452  0.6491  0.3319
  897MOL0     O20961   9.330  10.643   1.645  0.3175  0.0750 -0.3892
  897MOL0     C20962   9.354  10.739   1.573 -0.5574  0.2744 -0.6560
  897MOL0     O20963   9.464  10.754   1.497 -0.0460 -0.1837  0.2621
  897MOL0     C20964   9.578  10.679   1.507  0.7490 -0.1930  0.4547
  897MOL0     C20965   9.694  10.746   1.465 -0.0628  0.4754 -0.6748
  897MOL0     C20966   9.813  10.671   1.471  0.3859 -0.4316 -0.1802
  897MOL0     C20967   9.815  10.535   1.509 -0.2378 -0.9012  0.0503
  897MOL0     O20968   9.925  10.454   1.523  0.1527 -0.3802 -0.2499
  897MOL0     C20969  10.044  10.533   1.510 -0.3337 -0.4714 -0.2567
  897MOL0     C20970  10.161  10.450   1.574 -0.1448 -0.1270 -0.3513
  897MOL0     C20971  10.169  10.433   1.728  0.2800  0.6899 -0.2149
  897MOL0     C20972  10.225  10.300   1.779 -0.0868  0.3133 -0.1769
  897MOL0     C20973  10.380  10.303   1.771 -0.7916 -0.7975 -0.8164
  897MOL0     C20974  10.445  10.370   1.890 -0.5236  0.5301 -0.4371
  897MOL0     C20975  10.598  10.367   1.873  0.7242 -0.2008 -0.0028
  897MOL0     C20976  10.668  10.422   1.992  0.3669 -1.3074 -0.9833
  897MOL0     N20977  10.666  10.321   2.101 -0.4141  0.8025 -0.7376
  897MOL0     C20978  10.731  10.195   2.098  0.5562  0.3638  0.0360
  897MOL0     C20979  10.715  10.141   2.219 -0.2634 -0.4113  0.2474
  897MOL0     C20980  10.758  10.002   2.261 -0.3686 -0.7235 -0.5489
  897MOL0     C20981  10.902   9.971   2.233 -0.5649  0.5440 -0.6754
  897MOL0     C20982  10.947   9.845   2.308  0.3482  0.3200 -0.1379
  897MOL0     C20983  11.036   9.872   2.428  0.1047 -0.3908 -0.5314
  897MOL0     O20984  11.162   9.932   2.383 -0.1719  0.4904 -0.2388
  897MOL0     C20985  11.274   9.921   2.469  0.4367 -0.1598 -0.1586
  897MOL0     C20986  11.274   9.915   2.610  0.4417  0.8312  0.0937
  897MOL0     C20987  11.391   9.911   2.683  0.2630 -0.4812  0.6348
  897MOL0     C20988  11.519   9.912   2.619 -0.1268 -0.4799  0.0337
  897MOL0     C20989  11.647   9.929   2.703  0.6987  0.2547  0.3076
  897MOL0     O20990  11.620   9.922   2.836 -0.0283 -0.0046  0.5525
  897MOL0     C20991  11.716   9.956   2.930  0.4297 -0.0884 -0.6548
  897MOL0     C20992  11.675  10.013   3.050 -0.0758 -0.3715 -0.6179
  897MOL0     C20993  11.768  10.054   3.150 -0.3659  0.0660 -0.7597
  897MOL0     C20994  11.910  10.039   3.120  0.5561 -0.0330  0.1060
  897MOL0     O20995  11.998  10.084   3.211  0.5829  0.0953  0.4557
  897MOL0     C20996  11.992  10.008   3.339 -0.3643 -0.3232 -0.0522
  897MOL0     C20997  12.046   9.867   3.318  0.2109 -0.4639 -0.0704
  897MOL0     C20998  12.198   9.861   3.269 -0.6599  0.2666 -0.3180
  897MOL0     C20999  12.250   9.721   3.236  0.4158  1.3221  0.3028
  897MOL0     C21000  12.368   9.724   3.137  0.3789  0.0316 -1.2008
  897MOL0     C21001  12.501   9.787   3.193  0.6698 -0.5788  0.3777
  897MOL0     C21002  12.606   9.783   3.085 -0.5335  0.3537 -0.2653
  897MOL0     C21003  12.735   9.843   3.141  0.3277 -0.1049  0.6137
  897MOL0    Cl21004  12.816   9.704   3.227 -0.0980 -0.1947 -0.1561
  897MOL0     C21005  11.946   9.977   3.003 -0.9089 -0.1142 -0.0127
  897MOL0     C21006  11.853   9.927   2.908 -0.1460  0.5388  0.1799
  897MOL0     O21007  11.748   9.960   2.638  0.0291 -0.3303  0.3882
  897MOL0     C21008  11.522   9.927   2.479  1.0952  0.3782 -0.2420
  897MOL0     C21009  11.396   9.922   2.405  0.1501 -0.0864 -0.4208
  897MOL0     N21010  10.624  10.217   2.288 -0.6397  0.1921 -0.1594
  897MOL0     N21011  10.596  10.324   2.220  0.2823  0.7405  0.4026
  897MOL0     C21012   9.698  10.470   1.536 -0.2619 -0.4617 -1.0554
  897MOL0     C21013   9.580  10.546   1.548  0.7530 -0.0285 -0.3036
  897MOL0     C21014   9.246  10.846   1.563 -0.2447  0.2519  0.3083
  897MOL0     C21015   9.131  10.831   1.641  0.2249  0.0470  0.7061
  897MOL0     C21016   9.026  10.921   1.627  0.6819 -0.0066 -0.9311
  897MOL0     C21017   9.022  11.027   1.536 -0.5335  0.1270  0.0886
  897MOL0     O21018   8.912  11.114   1.516 -0.2679  0.3628  0.3704
  897MOL0     C21019   8.788  11.106   1.591 -0.7858  0.4371 -1.0390
  897MOL0     C21020   8.731  11.250   1.599 -0.2100 -0.0101  0.5667
  897MOL0     C21021   8.629  11.258   1.713  0.8285  0.3811 -0.3265
  897MOL0     C21022   8.673  11.249   1.859 -0.0593  0.3256  0.1814
  897MOL0     C21023   8.575  11.289   1.968 -0.9196 -0.2025  0.2491
  897MOL0     C21024   8.485  11.319   2.047 -0.7767 -0.6091  0.4677
  897MOL0     C21025   9.138  11.046   1.457 -0.5655 -0.2660 -0.2302
  897MOL0     C21026   9.247  10.957   1.470  0.0721 -0.1142 -0.9165
  897MOL0     C21027   9.361  10.983   1.373  0.1861  0.6329  0.0229
  897MOL0     H21028   9.676  10.849   1.436 -1.3487 -0.5354 -3.9716
  897MOL0     H21029   9.899  10.728   1.438 -0.3327  1.0314  0.4156
  897MOL0     H21030  10.062  10.550   1.403  1.5004 -1.1481 -0.1034
  897MOL0     H21031  10.047  10.633   1.554  1.6716  0.9888 -3.3151
  897MOL0     H21032  10.256  10.496   1.547  0.9942 -0.5475  2.4974
  897MOL0     H21033  10.160  10.346   1.539  1.1215 -0.4012  0.3490
  897MOL0     H21034  10.062  10.422   1.748  0.4438 -2.0826 -0.4567
  897MOL0     H21035  10.210  10.520   1.779 -1.2156  1.2868  0.0292
  897MOL0     H21036  10.193  10.295   1.883 -2.8016  2.7491 -0.7606
  897MOL0     H21037  10.177  10.227   1.713  0.5569  2.2187 -2.9412
  897MOL0     H21038  10.422  10.202   1.767  0.7906 -0.2878  1.1078
  897MOL0     H21039  10.410  10.350   1.677  0.6650 -0.1433 -0.0548
  897MOL0     H21040  10.396  10.467   1.894 -3.0306 -0.6989  1.8126
  897MOL0     H21041  10.418  10.320   1.984  2.0989  2.0997  1.2808
  897MOL0     H21042  10.625  10.427   1.785 -0.0660  2.2214  1.3314
  897MOL0     H21043  10.649  10.271   1.854  0.9460 -0.5489  2.1417
  897MOL0     H21044  10.771  10.453   1.971  1.3147 -2.1006  1.9482
  897MOL0     H21045  10.618  10.509   2.036  2.2183 -1.3509  1.4362
  897MOL0     H21046  10.784  10.154   2.013  2.9014 -1.4212  2.2218
  897MOL0     H21047  10.731   9.998   2.367 -1.1525  5.0586 -0.2053
  897MOL0     H21048  10.693   9.929   2.213  0.3364 -2.9061  1.5786
  897MOL0     H21049  10.922   9.944   2.129  2.5568  0.0502 -0.0278
  897MOL0     H21050  10.972  10.054   2.248  3.6220 -2.9129  1.0529
  897MOL0     H21051  11.004   9.786   2.236  0.8578 -0.5116  0.9184
  897MOL0     H21052  10.858   9.794   2.346 -1.6934  1.7803 -2.6620
  897MOL0     H21053  11.047   9.771   2.468 -1.4213 -1.7708 -3.2863
  897MOL0     H21054  10.997   9.942   2.503 -1.0777 -1.5925  0.0174
  897MOL0     H21055  11.179   9.891   2.658  0.3142 -0.3143 -0.6918
  897MOL0     H21056  11.390   9.908   2.792 -0.6079 -0.6880  0.6349
  897MOL0     H21057  11.570  10.036   3.066 -0.6000 -2.3384 -1.0461
  897MOL0     H21058  11.733  10.100   3.242 -2.0702 -1.2088 -0.7198
  897MOL0     H21059  12.053  10.061   3.413 -0.8734 -0.9952  0.8689
  897MOL0     H21060  11.891  10.007   3.382 -1.0923  0.2945 -1.6647
  897MOL0     H21061  12.032   9.806   3.408 -1.7495 -1.1040 -0.7431
  897MOL0     H21062  11.978   9.807   3.257  2.4353 -3.5825  0.2494
  897MOL0     H21063  12.206   9.916   3.175 -0.7815  2.5753  0.9586
  897MOL0     H21064  12.271   9.906   3.336 -0.0660  0.4827 -1.1065
  897MOL0     H21065  12.177   9.657   3.187 -1.4197  0.7461  3.5139
  897MOL0     H21066  12.282   9.666   3.325  1.2225  0.6981 -0.3640
  897MOL0     H21067  12.343   9.786   3.051  0.2934  1.2847 -0.3039
  897MOL0     H21068  12.389   9.623   3.100 -0.8236 -0.0186 -1.7769
  897MOL0     H21069  12.484   9.890   3.222  1.3316 -1.2356  3.3846
  897MOL0     H21070  12.529   9.746   3.290 -1.2864  0.2175  1.3308
  897MOL0     H21071  12.576   9.850   3.003 -0.6325  0.6230 -0.0136
  897MOL0     H21072  12.629   9.683   3.049  0.5039 -0.5463  2.6366
  897MOL0     H21073  12.790   9.874   3.052 -1.3613 -0.0774 -0.4566
  897MOL0     H21074  12.728   9.928   3.209 -1.2163  1.0963 -0.9563
  897MOL0     H21075  12.054   9.975   2.990 -1.0116  1.4634 -1.5501
  897MOL0     H21076  11.877   9.879   2.814 -0.4044 -0.9769  0.8602
  897MOL0     H21077  11.612   9.944   2.421  1.7767  0.1170  0.7125
  897MOL0     H21078  11.391   9.921   2.296 -1.6206 -0.8430 -0.3763
  897MOL0     H21079   9.695  10.368   1.572  2.0247 -0.4116 -0.5641
  897MOL0     H21080   9.494  10.483   1.565 -0.3602  0.7662 -2.6348
  897MOL0     H21081   9.114  10.744   1.703 -3.6572  0.7713  0.9002
  897MOL0     H21082   8.933  10.902   1.680  2.0101 -0.1994  1.4961
  897MOL0     H21083   8.803  11.078   1.695  0.9253  1.6843 -0.9028
  897MOL0     H21084   8.712  11.039   1.550  0.8726 -2.0442 -0.2247
  897MOL0     H21085   8.688  11.272   1.501  2.0469 -1.4829 -0.8689
  897MOL0     H21086   8.807  11.328   1.614  1.4142 -0.7023 -2.9588
  897MOL0     H21087   8.556  11.179   1.692  1.5572  0.3466 -3.1924
  897MOL0     H21088   8.592  11.361   1.702  1.7913  0.7853  0.1228
  897MOL0     H21089   8.692  11.144   1.884 -1.4377  0.3795  1.6319
  897MOL0     H21090   8.769  11.301   1.864  1.2652 -1.3091 -4.0381
  897MOL0     H21091   8.403  11.353   2.107 -1.0716  1.3975 -0.9580
  897MOL0     H21092   9.146  11.128   1.386 -2.6923  0.0418 -0.1614
  897MOL0     H21093   9.335  11.058   1.298 -0.1578  0.0080 -0.4958
  897MOL0     H21094   9.447  11.029   1.422 -0.1870 -0.3135  1.6528
  897MOL0     H21095   9.385  10.892   1.318 -1.2086 -1.0284  2.0001
  898MOL0     O21096   3.939   3.443   2.174 -0.7633 -0.9023  0.3778
  898MOL0     C21097   3.985   3.347   2.234 -0.1907 -0.0681  0.1160
  898MOL0     O21098   4.113   3.315   2.266  1.1762 -0.0699 -0.5240
  898MOL0     C21099   4.219   3.390   2.226  0.2673 -0.3525 -0.4162
  898MOL0     C21100   4.333   3.325   2.172 -0.4191  0.2942 -0.3477
  898MOL0     C21101   4.448   3.398   2.135  0.1022 -1.3423 -0.2669
  898MOL0     C21102   4.447   3.542   2.146  0.8232 -0.1771 -1.5326
  898MOL0     O21103   4.553   3.615   2.106 -0.2980  0.2805  0.0903
  898MOL0     C21104   4.588   3.712   2.206 -0.2994 -0.1338 -0.1202
  898MOL0     C21105   4.732   3.742   2.199 -0.0632  0.2157  0.1285
  898MOL0     C21106   4.790   3.816   2.086  0.5288 -0.2095  0.2397
  898MOL0     C21107   4.860   3.739   1.975  0.1253 -0.3981  0.1225
  898MOL0     C21108   4.864   3.827   1.849  0.5665 -0.3097  0.3570
  898MOL0     C21109   4.967   3.947   1.860  0.7174 -0.4697 -0.3390
  898MOL0     C21110   4.981   4.037   1.743 -0.5640 -0.0257  0.5320
  898MOL0     C21111   5.086   3.984   1.649  0.0334  0.0469 -0.5854
  898MOL0     N21112   5.215   4.006   1.717 -0.1140 -0.2747 -0.2222
  898MOL0     C21113   5.277   4.125   1.759  1.0557 -0.5840  0.4142
  898MOL0     C21114   5.388   4.090   1.820 -0.8820 -0.7155 -0.2852
  898MOL0     C21115   5.484   4.173   1.898 -0.7961  0.2003  1.0191
  898MOL0     C21116   5.603   4.210   1.806 -0.4220 -0.0706  0.1482
  898MOL0     C21117   5.699   4.090   1.775  0.6810 -0.2726 -0.1511
  898MOL0     C21118   5.827   4.139   1.705 -0.5670 -0.0009  0.1951
  898MOL0     O21119   5.918   4.027   1.708 -0.1891  0.6844 -0.0482
  898MOL0     C21120   6.043   4.047   1.666  0.1748 -0.0140  0.5070
  898MOL0     C21121   6.140   3.946   1.669  0.0981 -0.2095  0.3694
  898MOL0     C21122   6.275   3.973   1.635  0.0325 -0.2209  0.8841
  898MOL0     C21123   6.325   4.102   1.604 -0.2649 -0.1669  0.7201
  898MOL0     C21124   6.473   4.116   1.578  0.6122 -1.1614 -0.0663
  898MOL0     O21125   6.554   4.002   1.580  0.1264 -0.3730  0.6154
  898MOL0     C21126   6.690   4.011   1.554  0.1671 -0.4789  0.0160
  898MOL0     C21127   6.744   3.905   1.477 -0.5399 -0.7722 -0.5879
  898MOL0     C21128   6.879   3.891   1.442 -0.6140  0.8225 -0.0382
  898MOL0     C21129   6.974   3.988   1.493  0.0407  0.0175  0.7645
  898MOL0     O21130   7.107   3.981   1.472 -0.3080 -0.2459 -0.5007
  898MOL0     C21131   7.178   3.908   1.570 -0.0954  0.0277 -0.6867
  898MOL0     C21132   7.329   3.902   1.536 -1.1201 -0.7564  0.6238
  898MOL0     C21133   7.422   3.908   1.655 -0.3170  0.7071 -0.1511
  898MOL0     C21134   7.568   3.901   1.606  0.3549 -0.0858 -0.1468
  898MOL0     C21135   7.662   3.885   1.732 -0.0149  1.0271 -0.0892
  898MOL0     C21136   7.808   3.887   1.701  0.7758  1.2122 -0.3042
  898MOL0     C21137   7.864   3.998   1.609 -0.9008  0.9023 -0.7080
  898MOL0     C21138   8.020   4.012   1.616 -0.5015  0.1121 -0.8643
  898MOL0    Cl21139   8.096   3.847   1.593  0.2507  0.1430 -0.3906
  898MOL0     C21140   6.919   4.093   1.567 -0.0834  0.9590  0.0899
  898MOL0     C21141   6.782   4.115   1.601  1.2120  0.0577  0.5137
  898MOL0     O21142   6.514   4.228   1.543  1.1866  0.2633 -0.1067
  898MOL0     C21143   6.226   4.203   1.593 -0.7114  0.2672 -0.2658
  898MOL0     C21144   6.087   4.174   1.621  0.0930  0.1012 -0.2395
  898MOL0     N21145   5.411   3.955   1.804 -0.4393 -0.1233  0.4121
  898MOL0     N21146   5.309   3.913   1.735 -0.5046  0.4818  0.7005
  898MOL0     C21147   4.325   3.611   2.186 -0.2259  0.5664 -0.5145
  898MOL0     C21148   4.212   3.530   2.214 -0.3418 -0.2525 -1.6612
  898MOL0     C21149   3.884   3.246   2.261 -0.4733  0.7803 -0.6762
  898MOL0     C21150   3.760   3.292   2.321 -0.5191 -0.4142 -0.1271
  898MOL0     C21151   3.654   3.209   2.337  0.8851  0.0659  0.2849
  898MOL0     C21152   3.662   3.071   2.310 -0.0833  0.4468  0.1572
  898MOL0     O21153   3.537   3.014   2.334  0.6951  0.3655  0.3993
  898MOL0     C21154   3.525   2.878   2.307  0.1381 -0.6397 -0.0355
  898MOL0     C21155   3.482   2.874   2.157 -0.3730  0.5809  0.2281
  898MOL0     C21156   3.515   2.735   2.108  0.1994  0.3733 -0.5280
  898MOL0     C21157   3.448   2.697   1.976 -0.3820  1.0119  0.3212
  898MOL0     C21158   3.512   2.771   1.867  1.5903  0.5438 -0.1528
  898MOL0     C21159   3.554   2.826   1.770  0.1318 -0.5267  0.1447
  898MOL0     C21160   3.777   3.018   2.265 -0.7944  0.2684 -0.1352
  898MOL0     C21161   3.891   3.104   2.236 -0.4087 -0.3147  0.2149
  898MOL0     C21162   4.003   3.052   2.153 -0.0685  0.2405  0.0456
  898MOL0     H21163   4.321   3.217   2.171 -2.3540  0.3157  2.9130
  898MOL0     H21164   4.539   3.355   2.095  1.1039 -0.3018  0.8230
  898MOL0     H21165   4.528   3.801   2.187  1.8842  1.1622 -1.3362
  898MOL0     H21166   4.572   3.670   2.305  3.2630 -2.4321 -0.3575
  898MOL0     H21167   4.786   3.647   2.204 -0.1342  0.2045  0.6769
  898MOL0     H21168   4.769   3.799   2.284  2.5702 -2.7215  1.1499
  898MOL0     H21169   4.866   3.881   2.130 -0.3052 -0.2724  1.8603
  898MOL0     H21170   4.710   3.874   2.039  0.5381  0.6454  1.2477
  898MOL0     H21171   4.961   3.717   2.011  0.4846 -1.5065 -1.4618
  898MOL0     H21172   4.804   3.650   1.947 -0.9613  0.6105 -1.0280
  898MOL0     H21173   4.906   3.760   1.773 -1.7892 -3.4755  1.6021
  898MOL0     H21174   4.761   3.847   1.819  0.6296 -0.9058 -0.2860
  898MOL0     H21175   4.941   4.008   1.948  1.1005 -1.3384  0.3944
  898MOL0     H21176   5.064   3.904   1.887 -0.1456 -2.9770 -0.9323
  898MOL0     H21177   4.991   4.144   1.763 -1.7621  0.6530 -1.9906
  898MOL0     H21178   4.880   4.050   1.702 -1.0370 -4.2929 -0.1150
  898MOL0     H21179   5.081   3.878   1.624 -1.1246 -0.4638  1.5876
  898MOL0     H21180   5.080   4.051   1.562  0.8582  2.1841  0.9016
  898MOL0     H21181   5.230   4.223   1.769  1.8632 -0.4016  3.2386
  898MOL0     H21182   5.434   4.268   1.920  0.0377  0.7653  0.5359
  898MOL0     H21183   5.509   4.118   1.989 -2.2459  1.5359  2.2798
  898MOL0     H21184   5.558   4.247   1.714 -1.6498 -1.1853  0.2671
  898MOL0     H21185   5.666   4.287   1.852 -0.0766  0.9180 -1.9090
  898MOL0     H21186   5.654   4.011   1.715  1.6720  1.4600 -3.4253
  898MOL0     H21187   5.727   4.038   1.867  1.4129 -0.4142 -0.4421
  898MOL0     H21188   5.868   4.214   1.773 -0.8407 -0.5360  0.9674
  898MOL0     H21189   5.804   4.184   1.608 -0.6102 -1.5985 -0.5671
  898MOL0     H21190   6.107   3.850   1.707  1.4416 -0.0862  1.9231
  898MOL0     H21191   6.343   3.891   1.658  0.2879 -0.4304 -0.4850
  898MOL0     H21192   6.673   3.826   1.453 -2.7980  1.0284 -0.2170
  898MOL0     H21193   6.907   3.797   1.397 -0.2780  0.5285  0.7743
  898MOL0     H21194   7.164   3.950   1.670  1.1969  0.9552 -0.8686
  898MOL0     H21195   7.148   3.803   1.575  3.6513 -1.1538  3.4077
  898MOL0     H21196   7.349   3.807   1.485  0.9201  0.4194 -0.9526
  898MOL0     H21197   7.362   3.972   1.458  1.6795 -1.9011  0.6710
  898MOL0     H21198   7.410   4.011   1.691 -0.2058  0.9785 -0.8644
  898MOL0     H21199   7.396   3.845   1.740 -1.8453  0.4459 -0.7956
  898MOL0     H21200   7.591   3.983   1.537  1.8209  1.1186  1.6497
  898MOL0     H21201   7.574   3.807   1.551  1.7438 -0.3940  0.4766
  898MOL0     H21202   7.642   3.792   1.787  1.6640  1.6146  1.6117
  898MOL0     H21203   7.634   3.968   1.798  0.4274  1.4746 -0.4601
  898MOL0     H21204   7.864   3.877   1.795 -1.4319  1.7683  1.1412
  898MOL0     H21205   7.829   3.792   1.651 -0.4416  0.0746  1.2480
  898MOL0     H21206   7.818   4.095   1.633 -0.9565  0.5198  0.7968
  898MOL0     H21207   7.833   3.971   1.508 -0.1224 -1.1721 -0.4268
  898MOL0     H21208   8.049   4.079   1.534  1.9825 -0.9974 -0.9784
  898MOL0     H21209   8.062   4.061   1.704  0.4664 -2.7581  0.3835
  898MOL0     H21210   7.001   4.158   1.597  0.2647  0.5682 -0.0124
  898MOL0     H21211   6.742   4.195   1.663 -2.6125 -2.4168  1.6076
  898MOL0     H21212   6.246   4.305   1.559  0.3997 -0.1064 -0.7835
  898MOL0     H21213   6.019   4.257   1.606  0.1061  0.5566  1.9634
  898MOL0     H21214   4.314   3.718   2.203 -0.6037  0.4777 -0.1917
  898MOL0     H21215   4.129   3.575   2.269  1.0312  0.2126  0.1390
  898MOL0     H21216   3.765   3.393   2.358  1.4455  0.6377 -2.9143
  898MOL0     H21217   3.561   3.245   2.379  1.2637  0.8893  0.4430
  898MOL0     H21218   3.444   2.845   2.373  1.0911  0.7736  1.9312
  898MOL0     H21219   3.613   2.823   2.342  1.3943  2.7638  2.6836
  898MOL0     H21220   3.540   2.945   2.096  1.2272 -1.1858 -0.4074
  898MOL0     H21221   3.380   2.903   2.132 -0.1599  1.8012  0.6723
  898MOL0     H21222   3.490   2.663   2.187  1.8820  1.0144  0.6572
  898MOL0     H21223   3.624   2.725   2.115  0.0606 -0.2892  1.7124
  898MOL0     H21224   3.454   2.592   1.946  1.4636  0.9982  0.6041
  898MOL0     H21225   3.342   2.722   1.983 -0.3264  0.8148  2.2605
  898MOL0     H21226   3.595   2.873   1.683  3.2679 -1.5445  0.9381
  898MOL0     H21227   3.789   2.913   2.240 -0.2900 -0.6021  3.1624
  898MOL0     H21228   4.057   3.127   2.095  1.1102 -2.3008 -2.4178
  898MOL0     H21229   4.068   3.012   2.231  0.7677  2.8759  0.7862
  898MOL0     H21230   3.967   2.981   2.078  1.0728  1.4675 -1.7344
  899MOL0     O21231  11.007   0.613   6.793  0.3233  0.4646 -0.2270
  899MOL0     C21232  10.907   0.621   6.720  0.0134  1.1631 -0.3576
  899MOL0     O21233  10.909   0.657   6.589  0.0611  0.2308  0.9730
  899MOL0     C21234  11.034   0.696   6.542  0.3114 -0.4299  0.0606
  899MOL0     C21235  11.135   0.602   6.516  0.3133  0.6296 -0.4225
  899MOL0     C21236  11.257   0.645   6.465 -0.2474  0.2021 -0.7651
  899MOL0     C21237  11.285   0.785   6.444 -0.3585 -0.1303 -0.3492
  899MOL0     O21238  11.401   0.835   6.389  0.3459 -0.3813  0.5261
  899MOL0     C21239  11.430   0.781   6.250  0.0186 -0.0108  0.2643
  899MOL0     C21240  11.450   0.900   6.155 -0.4562 -0.0102  0.3780
  899MOL0     C21241  11.580   0.971   6.184  0.5875 -0.5376 -0.4867
  899MOL0     C21242  11.622   1.086   6.093  0.4091 -0.1013  0.7789
  899MOL0     C21243  11.759   1.140   6.128 -1.3582  0.4972  0.1599
  899MOL0     C21244  11.799   1.275   6.052  0.7707 -0.0016 -0.1697
  899MOL0     C21245  11.695   1.388   6.078  0.2060  0.3686 -0.9467
  899MOL0     C21246  11.734   1.525   6.016  0.0195  0.0841 -0.0158
  899MOL0     N21247  11.842   1.591   6.090 -0.4639 -0.5985  0.7604
  899MOL0     C21248  11.824   1.660   6.207  0.1229  0.1727  0.3911
  899MOL0     C21249  11.947   1.706   6.242  0.4865 -0.8789 -0.1872
  899MOL0     C21250  11.975   1.780   6.371  0.1948  0.7891  0.7886
  899MOL0     C21251  12.131   1.803   6.385  0.2166 -0.1057  0.1238
  899MOL0     C21252  12.177   1.885   6.508 -0.4225 -0.1444 -0.0524
  899MOL0     C21253  12.124   1.825   6.641 -0.8581 -0.0667  0.1283
  899MOL0     O21254  12.183   1.694   6.665 -0.5492 -0.0559 -0.2970
  899MOL0     C21255  12.313   1.697   6.707 -0.2092  0.1486  0.3885
  899MOL0     C21256  12.409   1.630   6.619  0.5314  0.2833  0.0973
  899MOL0     C21257  12.544   1.626   6.653 -0.3609 -0.4430 -0.8560
  899MOL0     C21258  12.588   1.697   6.766 -0.1484  0.6744 -0.2624
  899MOL0     C21259  12.731   1.695   6.796  0.0561 -0.0436 -0.0459
  899MOL0     O21260  12.813   1.619   6.718  0.7355  0.0454 -0.2415
  899MOL0     C21261  12.948   1.615   6.747  0.4386 -0.0505  0.5002
  899MOL0     C21262  13.018   1.733   6.765  0.0058  0.1410  0.2503
  899MOL0     C21263  13.158   1.736   6.783 -0.2952  0.6272 -0.0353
  899MOL0     C21264  13.227   1.611   6.775  0.8627  0.2146 -0.0516
  899MOL0     O21265  13.363   1.600   6.785 -0.1577 -0.3828 -0.7311
  899MOL0     C21266  13.451   1.709   6.743  0.2931  0.0560  0.5002
  899MOL0     C21267  13.590   1.657   6.768 -0.1055 -0.1494 -0.0480
  899MOL0     C21268  13.671   1.745   6.871  0.3328  0.3544 -0.6091
  899MOL0     C21269  13.809   1.683   6.912 -0.6178 -0.0841  0.9733
  899MOL0     C21270  13.913   1.650   6.797 -0.4527 -0.6379  0.5950
  899MOL0     C21271  13.947   1.766   6.702 -0.1199  0.8628 -0.6546
  899MOL0     C21272  14.027   1.706   6.574  0.0437  0.1450 -0.0155
  899MOL0     C21273  14.092   1.826   6.504  0.3845  0.7685  0.5789
  899MOL0    Cl21274  13.959   1.913   6.419 -0.3166 -0.0226 -0.0887
  899MOL0     C21275  13.149   1.492   6.747 -1.0319  0.2287 -0.5260
  899MOL0     C21276  13.009   1.491   6.738  0.4571  0.5342  0.1962
  899MOL0     O21277  12.764   1.771   6.881 -0.3909  0.3891 -0.1132
  899MOL0     C21278  12.491   1.761   6.848 -0.5831 -0.8428 -0.3006
  899MOL0     C21279  12.358   1.755   6.821  0.4590 -0.3460 -0.4464
  899MOL0     N21280  12.035   1.665   6.146 -0.6851 -0.0053 -0.7444
  899MOL0     N21281  11.972   1.593   6.054 -0.0916  0.0104  0.6769
  899MOL0     C21282  11.182   0.875   6.467 -0.9995  0.2784 -0.2984
  899MOL0     C21283  11.055   0.831   6.514  0.6633  0.4041  0.1338
  899MOL0     C21284  10.775   0.590   6.778 -0.4280 -0.6665 -0.5821
  899MOL0     C21285  10.669   0.654   6.707  0.3316 -0.6249 -0.9714
  899MOL0     C21286  10.542   0.640   6.738  0.7780  0.0702 -1.2426
  899MOL0     C21287  10.507   0.558   6.840 -0.7782 -0.0186 -0.1594
  899MOL0     O21288  10.377   0.507   6.859  0.1742 -0.6608  0.0409
  899MOL0     C21289  10.305   0.553   6.978  0.7192  0.3650 -0.1024
  899MOL0     C21290  10.263   0.436   7.068  0.2637  0.7676  0.3465
  899MOL0     C21291  10.162   0.359   6.989  0.1520 -0.0252 -0.2808
  899MOL0     C21292  10.106   0.251   7.070  1.0436 -0.2161 -0.7176
  899MOL0     C21293   9.960   0.232   7.048  0.2576  0.0102 -1.1339
  899MOL0     C21294   9.840   0.200   7.029 -0.1343  0.8068  0.1174
  899MOL0     C21295  10.608   0.500   6.922 -0.5701 -1.1397 -0.0409
  899MOL0     C21296  10.745   0.515   6.890 -0.7070 -0.0366  0.6013
  899MOL0     C21297  10.852   0.445   6.969  0.8711  0.2799  0.4795
  899MOL0     H21298  11.101   0.498   6.520 -1.3721  1.1334 -0.5647
  899MOL0     H21299  11.319   0.561   6.437 -1.8771 -1.2416 -0.2254
  899MOL0     H21300  11.518   0.717   6.253 -0.3587 -0.9207 -3.3960
  899MOL0     H21301  11.350   0.725   6.201 -0.3263  1.9816 -1.6062
  899MOL0     H21302  11.365   0.967   6.168  0.8828  1.6802  0.7652
  899MOL0     H21303  11.459   0.863   6.052  1.0855  2.3417 -0.4097
  899MOL0     H21304  11.655   0.891   6.189 -0.8498 -1.8709  1.8930
  899MOL0     H21305  11.570   1.015   6.284 -0.2513 -1.9377  0.0731
  899MOL0     H21306  11.611   1.059   5.987 -1.0022  0.7841  0.6687
  899MOL0     H21307  11.547   1.165   6.104  2.0971  1.6464  0.1186
  899MOL0     H21308  11.759   1.150   6.237 -0.5216 -1.5795  0.3903
  899MOL0     H21309  11.836   1.068   6.099  0.1955  1.9675  0.4355
  899MOL0     H21310  11.902   1.302   6.078  1.2074 -2.6848  1.2521
  899MOL0     H21311  11.791   1.249   5.946  2.0153  3.6003 -1.2896
  899MOL0     H21312  11.683   1.384   6.187  0.7739 -1.9647 -0.9029
  899MOL0     H21313  11.603   1.347   6.036  0.0479 -2.5794  1.8351
  899MOL0     H21314  11.745   1.512   5.908  0.7771 -0.6146  0.1449
  899MOL0     H21315  11.645   1.587   6.034 -0.9413 -0.9282 -1.0759
  899MOL0     H21316  11.729   1.663   6.260  1.3659 -2.3847  3.0433
  899MOL0     H21317  11.926   1.877   6.354  2.0645  1.2996 -2.2995
  899MOL0     H21318  11.937   1.725   6.458  1.3013 -2.4499 -0.6634
  899MOL0     H21319  12.167   1.700   6.395 -0.5350 -0.1487  3.8119
  899MOL0     H21320  12.161   1.858   6.295  0.3143 -0.9601 -0.3788
  899MOL0     H21321  12.148   1.990   6.502  0.5575  0.1500  0.2745
  899MOL0     H21322  12.286   1.886   6.508 -0.3450 -0.8016  2.7856
  899MOL0     H21323  12.014   1.826   6.639 -0.8631  2.1123 -0.7874
  899MOL0     H21324  12.155   1.894   6.719 -1.3725  0.8757 -0.4872
  899MOL0     H21325  12.378   1.578   6.529  0.0754  0.8133 -0.0587
  899MOL0     H21326  12.614   1.576   6.587  0.7414  1.0238 -0.8502
  899MOL0     H21327  12.964   1.827   6.771 -1.6044 -0.6354 -1.3124
  899MOL0     H21328  13.205   1.833   6.798  0.2133  0.8172 -2.4941
  899MOL0     H21329  13.432   1.732   6.638  3.9554 -2.1180 -0.8211
  899MOL0     H21330  13.433   1.798   6.804  3.1988  1.4750 -0.5262
  899MOL0     H21331  13.597   1.551   6.794  0.5421  0.3229  1.8626
  899MOL0     H21332  13.651   1.661   6.677  0.2026 -2.7047 -0.0405
  899MOL0     H21333  13.695   1.845   6.833  2.7485 -0.9999 -3.0085
  899MOL0     H21334  13.613   1.760   6.963  2.9591 -0.8819  1.3868
  899MOL0     H21335  13.796   1.588   6.966 -1.1781  0.6187  2.1259
  899MOL0     H21336  13.872   1.749   6.973  0.4260 -0.0915 -0.0712
  899MOL0     H21337  13.870   1.574   6.730  1.6891  1.3721 -3.4031
  899MOL0     H21338  14.002   1.603   6.840  0.2012 -2.5521 -2.5578
  899MOL0     H21339  13.856   1.813   6.663  1.1943  1.8136 -2.8052
  899MOL0     H21340  13.995   1.845   6.760 -1.7422 -0.5962  2.9578
  899MOL0     H21341  13.964   1.659   6.498  0.5811 -1.2756  0.3891
  899MOL0     H21342  14.099   1.632   6.608 -1.3235 -0.6502  1.2381
  899MOL0     H21343  14.150   1.888   6.573  1.0685  0.4715  0.2692
  899MOL0     H21344  14.157   1.800   6.420 -0.9420 -0.0810 -0.2322
  899MOL0     H21345  13.216   1.406   6.749  1.5555  2.0980  2.4860
  899MOL0     H21346  12.953   1.399   6.723  4.1926 -1.9422  0.0527
  899MOL0     H21347  12.528   1.822   6.930 -1.7239 -1.8617  1.0434
  899MOL0     H21348  12.282   1.808   6.877  0.1176 -0.2131 -1.0277
  899MOL0     H21349  11.207   0.974   6.429  1.6832  0.4952  1.6987
  899MOL0     H21350  10.970   0.897   6.531  0.9566  1.3203 -1.7545
  899MOL0     H21351  10.684   0.717   6.620 -0.9841  0.8488 -0.1847
  899MOL0     H21352  10.470   0.695   6.677  2.8179  1.1021 -2.8219
  899MOL0     H21353  10.216   0.609   6.945 -1.2899 -2.7378 -0.4033
  899MOL0     H21354  10.364   0.622   7.039 -1.1275  1.2532  0.7880
  899MOL0     H21355  10.220   0.478   7.160 -0.3048  0.6820  0.1244
  899MOL0     H21356  10.346   0.368   7.092 -0.1066  0.3345  0.4223
  899MOL0     H21357  10.213   0.312   6.904  1.5339  0.0489  0.4868
  899MOL0     H21358  10.083   0.429   6.959 -2.0215 -0.9462  2.8319
  899MOL0     H21359  10.148   0.154   7.043 -1.8563 -1.8422  0.1533
  899MOL0     H21360  10.126   0.264   7.177 -0.3375 -1.0307 -0.3286
  899MOL0     H21361   9.735   0.182   7.034 -0.1057  1.0112  3.2137
  899MOL0     H21362  10.584   0.432   7.003  0.9173 -2.7114 -0.8777
  899MOL0     H21363  10.807   0.358   7.019  1.1461 -1.6033 -2.3553
  899MOL0     H21364  10.923   0.399   6.901  0.5676  0.7448 -0.1574
  899MOL0     H21365  10.910   0.511   7.035  0.4458  0.1418  0.9998
  900MOL0     O21366   6.294   0.439   2.249 -0.8091  0.7334  0.1180
  900MOL0     C21367   6.336   0.549   2.226 -0.3708 -0.6883  0.2733
  900MOL0     O21368   6.467   0.574   2.187 -0.6006  0.3031  0.0077
  900MOL0     C21369   6.543   0.473   2.123 -0.3636 -0.9910  0.0019
  900MOL0     C21370   6.655   0.409   2.185 -0.1161  0.1535 -0.1107
  900MOL0     C21371   6.738   0.329   2.104  0.3389  1.2339  0.8816
  900MOL0     C21372   6.704   0.309   1.970  0.1228 -0.3144 -0.0724
  900MOL0     O21373   6.802   0.253   1.889 -0.9615 -0.0447  0.4747
  900MOL0     C21374   6.775   0.136   1.809  0.0786 -0.2193  0.5059
  900MOL0     C21375   6.907   0.100   1.745  0.3147 -0.4098  0.5495
  900MOL0     C21376   6.998   0.017   1.832 -0.6771 -0.6554 -0.6546
  900MOL0     C21377   7.082   0.096   1.941 -0.1305  0.7057 -0.2103
  900MOL0     C21378   7.200   0.008   1.983 -0.1061 -1.0653  0.3883
  900MOL0     C21379   7.276   0.085   2.096 -0.5319 -0.6071 -0.4340
  900MOL0     C21380   7.428   0.041   2.104  0.7436  0.4845 -0.3970
  900MOL0     C21381   7.515   0.143   2.178 -0.7662  0.3493 -0.2435
  900MOL0     N21382   7.506   0.123   2.321 -0.3105  1.3540  0.3278
  900MOL0     C21383   7.596   0.046   2.391 -0.3614  0.2220  0.1827
  900MOL0     C21384   7.561   0.061   2.515  0.0096 -0.0528  0.1623
  900MOL0     C21385   7.622  -0.018   2.632  0.1701 -0.0689 -0.2042
  900MOL0     C21386   7.763   0.035   2.664 -0.9633 -0.0492 -0.2128
  900MOL0     C21387   7.778   0.186   2.705  0.0960  0.1133  0.0846
  900MOL0     C21388   7.692   0.233   2.812  0.6398 -0.3034  0.5531
  900MOL0     O21389   7.687   0.163   2.933 -0.4351 -0.0793 -0.9376
  900MOL0     C21390   7.810   0.125   2.999  0.7119 -0.2000 -1.3505
  900MOL0     C21391   7.921   0.212   2.988  0.0849 -0.1518 -0.2231
  900MOL0     C21392   8.035   0.200   3.073 -0.4694  0.4837  0.9865
  900MOL0     C21393   8.030   0.096   3.175 -0.1280  1.1864 -0.8125
  900MOL0     C21394   8.147   0.061   3.263  0.1358  0.4529  0.2617
  900MOL0     O21395   8.257   0.145   3.265  0.0179 -0.0075  0.6581
  900MOL0     C21396   8.354   0.122   3.356 -0.5894  0.3055  0.0152
  900MOL0     C21397   8.339   0.180   3.485  0.6720  0.4205  1.3904
  900MOL0     C21398   8.429   0.148   3.586 -0.0288  0.8974 -0.3547
  900MOL0     C21399   8.542   0.064   3.566 -0.5934  0.1656 -0.0799
  900MOL0     O21400   8.631   0.042   3.669 -0.4108  0.8096  0.7152
  900MOL0     C21401   8.611   0.095   3.799 -0.2805 -0.4021  0.1233
  900MOL0     C21402   8.737   0.074   3.894  0.6598 -0.1957 -0.3427
  900MOL0     C21403   8.855   0.160   3.845 -0.8383  0.2878  0.2608
  900MOL0     C21404   8.967   0.165   3.959  0.5310 -0.1584  0.0619
  900MOL0     C21405   9.094   0.225   3.889 -0.2728 -0.3647 -0.8133
  900MOL0     C21406   9.219   0.229   3.979 -0.1622 -0.0436  0.5087
  900MOL0     C21407   9.348   0.242   3.892  0.6976 -0.2398  0.1845
  900MOL0     C21408   9.339   0.355   3.788  0.5845  0.7817 -0.3601
  900MOL0    Cl21409   9.353   0.503   3.885 -0.3264 -0.1611  0.1687
  900MOL0     C21410   8.558   0.011   3.435 -0.4371 -1.2244 -0.5985
  900MOL0     C21411   8.472   0.049   3.326  0.7258 -0.1684  0.1188
  900MOL0     O21412   8.141  -0.048   3.329 -0.7163  0.8243 -1.2209
  900MOL0     C21413   7.916   0.012   3.173 -0.1447  0.1085 -0.5991
  900MOL0     C21414   7.807   0.025   3.092 -0.1892  1.3375  0.1217
  900MOL0     N21415   7.468   0.159   2.527  1.1405  0.4975  0.1469
  900MOL0     N21416   7.433   0.198   2.406  0.1728 -0.8193  0.0694
  900MOL0     C21417   6.588   0.364   1.919  0.3907 -1.1005  1.7072
  900MOL0     C21418   6.508   0.450   1.990  1.0685 -0.4392  0.4585
  900MOL0     C21419   6.255   0.668   2.231 -0.3539  0.3815  0.3462
  900MOL0     C21420   6.310   0.792   2.200 -0.0420 -0.0974  0.0907
  900MOL0     C21421   6.240   0.914   2.206 -0.2598 -0.0477 -0.5570
  900MOL0     C21422   6.102   0.913   2.237 -0.3781  0.3887 -0.3568
  900MOL0     O21423   6.028   1.021   2.266  0.1487  0.2313 -0.7881
  900MOL0     C21424   6.080   1.151   2.238 -0.1583 -0.6014  0.0575
  900MOL0     C21425   6.131   1.219   2.369 -0.0222  0.3061  0.2886
  900MOL0     C21426   6.026   1.256   2.477 -0.0617  0.5944  0.4925
  900MOL0     C21427   5.904   1.342   2.439 -0.9921  0.6797 -0.7733
  900MOL0     C21428   5.920   1.447   2.339  0.0068 -0.1243 -0.3358
  900MOL0     C21429   5.944   1.534   2.259  0.0756  0.0995 -0.0011
  900MOL0     C21430   6.044   0.794   2.256 -0.4833  0.6774  0.2520
  900MOL0     C21431   6.117   0.673   2.250 -0.2441 -0.0669  0.1335
  900MOL0     C21432   6.035   0.548   2.270 -0.0696  0.6196 -0.5275
  900MOL0     H21433   6.667   0.414   2.293 -0.0335 -4.8474  0.3287
  900MOL0     H21434   6.824   0.270   2.135  0.8909  2.1967  1.2221
  900MOL0     H21435   6.738   0.051   1.868  0.2559 -0.8302 -0.2627
  900MOL0     H21436   6.703   0.160   1.731 -0.8565  4.2395  2.4455
  900MOL0     H21437   6.953   0.186   1.694 -0.7750 -1.0884 -1.7205
  900MOL0     H21438   6.884   0.029   1.665 -1.0284 -0.7850  1.2385
  900MOL0     H21439   7.061  -0.037   1.761 -0.2775 -2.6839  1.1286
  900MOL0     H21440   6.946  -0.064   1.884 -1.5259 -0.5168 -1.2722
  900MOL0     H21441   7.115   0.190   1.894  0.4055 -0.2208 -1.7642
  900MOL0     H21442   7.022   0.107   2.031  2.7044  1.2718  1.7445
  900MOL0     H21443   7.155  -0.076   2.037 -0.0033 -0.5443  1.2952
  900MOL0     H21444   7.266  -0.038   1.908  1.0653 -2.5723  2.2375
  900MOL0     H21445   7.279   0.190   2.068  2.8453 -0.8939 -1.5314
  900MOL0     H21446   7.221   0.080   2.191  1.5354 -0.1528  0.8387
  900MOL0     H21447   7.455   0.025   1.999 -2.5075  0.0361 -1.2927
  900MOL0     H21448   7.420  -0.054   2.157 -1.9856  1.8706  1.9497
  900MOL0     H21449   7.617   0.122   2.144 -0.3535  2.0867 -0.1695
  900MOL0     H21450   7.496   0.247   2.149  2.3570  1.3889  1.0586
  900MOL0     H21451   7.682  -0.008   2.352 -0.1010 -0.9948  2.3281
  900MOL0     H21452   7.557  -0.015   2.720 -1.3446  1.6314 -1.3153
  900MOL0     H21453   7.620  -0.124   2.605 -1.6952 -0.0114 -0.4118
  900MOL0     H21454   7.814  -0.026   2.740 -1.5757 -0.6633 -0.2870
  900MOL0     H21455   7.816   0.015   2.571 -0.1891 -1.3013  0.4695
  900MOL0     H21456   7.758   0.243   2.613 -2.6444  0.4084  0.7814
  900MOL0     H21457   7.877   0.214   2.740 -0.1479  0.8491  0.2178
  900MOL0     H21458   7.590   0.221   2.773  0.6648  0.2293  0.3148
  900MOL0     H21459   7.695   0.342   2.821 -1.5739  0.0775 -1.9137
  900MOL0     H21460   7.920   0.294   2.917 -3.3542 -0.9038 -1.1997
  900MOL0     H21461   8.124   0.260   3.056 -0.1284  0.1633  1.6010
  900MOL0     H21462   8.250   0.240   3.502  0.0136 -0.0582 -0.1753
  900MOL0     H21463   8.396   0.184   3.682  1.2573 -0.0020  0.4652
  900MOL0     H21464   8.593   0.203   3.799 -4.9934 -0.9871 -0.1522
  900MOL0     H21465   8.523   0.051   3.845 -0.3365 -0.2816  0.1308
  900MOL0     H21466   8.703   0.116   3.990 -0.6136  2.5400 -1.8863
  900MOL0     H21467   8.768  -0.030   3.910  1.0297 -0.0401 -0.0050
  900MOL0     H21468   8.896   0.116   3.754  1.2721 -1.6397  2.0073
  900MOL0     H21469   8.815   0.261   3.831 -0.3366  0.2945 -1.2861
  900MOL0     H21470   8.985   0.063   3.992  1.1041  0.3400  1.3480
  900MOL0     H21471   8.937   0.233   4.040 -1.7433  0.5631 -1.2895
  900MOL0     H21472   9.077   0.328   3.858  3.5293  0.7512  0.2871
  900MOL0     H21473   9.113   0.156   3.807  2.4224 -1.5420  0.6674
  900MOL0     H21474   9.215   0.312   4.050  1.2134  1.4969 -1.1339
  900MOL0     H21475   9.241   0.141   4.041  0.9134 -0.4046 -0.3573
  900MOL0     H21476   9.370   0.143   3.852 -0.6250 -0.3878 -0.2435
  900MOL0     H21477   9.436   0.266   3.953  0.4129  2.7531 -0.4020
  900MOL0     H21478   9.424   0.344   3.720  1.3399 -1.1604  0.8285
  900MOL0     H21479   9.246   0.353   3.731 -0.1178  2.9641  0.6009
  900MOL0     H21480   8.646  -0.048   3.414  0.3001 -0.4890  0.3400
  900MOL0     H21481   8.505   0.009   3.231 -0.0439 -0.4069 -0.0537
  900MOL0     H21482   7.901  -0.066   3.247 -1.1916  0.6764 -0.1824
  900MOL0     H21483   7.729  -0.050   3.100  2.2728 -1.1226  4.6606
  900MOL0     H21484   6.556   0.337   1.819  0.2881  1.0763  1.0870
  900MOL0     H21485   6.433   0.504   1.934  3.3509  0.1476 -2.2299
  900MOL0     H21486   6.417   0.800   2.184  0.5072  1.9456  3.7880
  900MOL0     H21487   6.296   1.006   2.194  1.2399 -0.5336  2.0877
  900MOL0     H21488   6.004   1.212   2.188 -0.8025 -0.2693  1.3842
  900MOL0     H21489   6.160   1.155   2.165  0.3648  0.7126  0.6788
  900MOL0     H21490   6.189   1.309   2.351  1.0603 -0.3171  0.5748
  900MOL0     H21491   6.211   1.159   2.414  1.2025  0.0206 -2.1157
  900MOL0     H21492   6.082   1.310   2.554  1.5645 -1.2242  0.6888
  900MOL0     H21493   5.997   1.158   2.517 -0.8649 -0.0997 -1.6781
  900MOL0     H21494   5.830   1.275   2.395 -1.5467  0.5900  0.2763
  900MOL0     H21495   5.871   1.384   2.534 -0.9284 -0.6916 -0.1325
  900MOL0     H21496   5.963   1.612   2.189  2.3919 -0.3596  0.0074
  900MOL0     H21497   5.940   0.784   2.285  0.0460 -0.2168  1.9325
  900MOL0     H21498   5.928   0.554   2.291  0.4461  1.1429  2.5092
  900MOL0     H21499   6.041   0.477   2.187 -2.1899 -1.5484  1.0255
  900MOL0     H21500   6.072   0.494   2.358 -0.3518  0.7883 -0.3033
  901MOL0     O21501   9.400   8.889  11.038 -0.2665 -0.6140  0.2298
  901MOL0     C21502   9.321   8.977  11.073 -0.7483 -0.3063 -1.0241
  901MOL0     O21503   9.328   9.104  11.019 -0.7646 -0.5027 -0.0461
  901MOL0     C21504   9.453   9.134  10.959 -0.4009 -0.5412 -0.9755
  901MOL0     C21505   9.487   9.084  10.836 -0.3571  0.0119 -0.6587
  901MOL0     C21506   9.602   9.126  10.771 -0.5018  0.7684 -0.7963
  901MOL0     C21507   9.703   9.204  10.834  0.2577  0.0335 -1.0677
  901MOL0     O21508   9.814   9.232  10.762  0.4697 -0.5871  0.0638
  901MOL0     C21509   9.919   9.303  10.831  0.0056 -0.2156  0.2992
  901MOL0     C21510  10.046   9.301  10.747 -0.2894  0.3996 -0.6641
  901MOL0     C21511  10.125   9.416  10.788 -1.0096  0.0366 -0.1164
  901MOL0     C21512  10.266   9.410  10.733  1.3029  0.9714  0.1553
  901MOL0     C21513  10.350   9.528  10.781 -0.0825  0.0629  0.0005
  901MOL0     C21514  10.481   9.544  10.703 -0.5655 -0.5394 -0.2687
  901MOL0     C21515  10.545   9.675  10.746  0.8111 -0.0166 -0.5560
  901MOL0     C21516  10.671   9.703  10.659 -1.1957  0.7091  0.1787
  901MOL0     N21517  10.772   9.590  10.685 -1.1027  0.1037  0.5245
  901MOL0     C21518  10.864   9.558  10.590 -0.1214  1.0305  0.3462
  901MOL0     C21519  10.968   9.501  10.649  0.4004  0.3596 -0.5101
  901MOL0     C21520  11.103   9.465  10.581  0.2212  0.9966  0.2777
  901MOL0     C21521  11.219   9.553  10.624  1.0347  0.0470 -0.0681
  901MOL0     C21522  11.334   9.540  10.529  1.2339  0.0496  0.4814
  901MOL0     C21523  11.446   9.630  10.565 -0.0878 -0.0830  0.9730
  901MOL0     O21524  11.412   9.740  10.656  0.0232 -0.6363  0.2362
  901MOL0     C21525  11.517   9.823  10.697  0.5814 -0.3777  0.2778
  901MOL0     C21526  11.651   9.794  10.695 -0.3107  0.4518 -0.6414
  901MOL0     C21527  11.749   9.883  10.739 -0.1609 -0.0985 -0.3525
  901MOL0     C21528  11.710  10.011  10.787  0.0197 -0.6532 -0.1482
  901MOL0     C21529  11.806  10.106  10.848 -0.2460 -0.0442  0.9233
  901MOL0     O21530  11.933  10.052  10.841 -0.2654  0.4269  0.7935
  901MOL0     C21531  12.045  10.131  10.869 -0.1389 -0.3740 -0.7039
  901MOL0     C21532  12.055  10.271  10.874  0.4339  0.3131  0.1282
  901MOL0     C21533  12.177  10.333  10.884 -0.5136  0.0775  0.1220
  901MOL0     C21534  12.296  10.252  10.902  0.2141  0.0471  1.0859
  901MOL0     O21535  12.407  10.325  10.924 -0.3638 -0.2785  0.5367
  901MOL0     C21536  12.537  10.270  10.950 -0.4381  1.0437 -0.4241
  901MOL0     C21537  12.648  10.378  10.979  0.9565  0.4758  0.0546
  901MOL0     C21538  12.785  10.326  10.988  0.6072  0.0730  0.8406
  901MOL0     C21539  12.896  10.437  10.991 -0.5085  0.2114  0.0843
  901MOL0     C21540  13.030  10.401  10.928  0.1404  1.1875  0.8393
  901MOL0     C21541  13.137  10.501  10.978  0.5794  0.5390 -0.4828
  901MOL0     C21542  13.281  10.449  10.947 -0.2174 -0.3650  0.7380
  901MOL0     C21543  13.317  10.319  11.025  0.5331 -0.6289 -0.2603
  901MOL0    Cl21544  13.486  10.294  11.030  0.2753 -0.0644  0.3694
  901MOL0     C21545  12.287  10.109  10.887 -0.5589 -0.2284  0.0500
  901MOL0     C21546  12.159  10.058  10.880  0.2366  0.9696  0.2158
  901MOL0     O21547  11.771  10.199  10.917  0.2397 -0.3872  0.1287
  901MOL0     C21548  11.571  10.040  10.792 -0.2851 -0.1047 -0.2923
  901MOL0     C21549  11.479   9.945  10.745  0.5309 -0.3524  0.2087
  901MOL0     N21550  10.944   9.498  10.789 -0.0149 -0.2075  0.1338
  901MOL0     N21551  10.832   9.558  10.802  0.3362  0.2810 -0.1907
  901MOL0     C21552   9.673   9.261  10.963 -0.4146  0.1603  0.3063
  901MOL0     C21553   9.555   9.213  11.020  1.6545 -0.1075  1.3031
  901MOL0     C21554   9.236   8.968  11.191  0.0189 -0.3481  0.0066
  901MOL0     C21555   9.171   9.091  11.241 -0.1176  0.3138  0.0485
  901MOL0     C21556   9.074   9.083  11.342  0.3350  0.1021  0.0636
  901MOL0     C21557   9.037   8.967  11.403 -0.0473 -0.0206  1.1225
  901MOL0     O21558   8.930   8.975  11.487 -0.1477 -0.3744 -0.3398
  901MOL0     C21559   8.804   8.949  11.421 -0.3039 -0.6897  0.8184
  901MOL0     C21560   8.713   9.073  11.417 -0.1241 -0.1199  1.3218
  901MOL0     C21561   8.647   9.114  11.550 -0.9150 -0.7568 -0.4403
  901MOL0     C21562   8.607   9.262  11.559 -0.3084 -0.2291 -0.7502
  901MOL0     C21563   8.512   9.275  11.448  0.0190  0.3589  0.1025
  901MOL0     C21564   8.454   9.281  11.343 -0.0998 -0.4865 -0.1226
  901MOL0     C21565   9.112   8.856  11.370  0.1281  1.0321  0.0883
  901MOL0     C21566   9.208   8.854  11.268  0.0013  0.5581  0.9197
  901MOL0     C21567   9.268   8.720  11.250 -0.0164  0.4111 -0.1917
  901MOL0     H21568   9.421   9.010  10.792 -0.3043 -1.0553  0.9730
  901MOL0     H21569   9.633   9.088  10.674  2.0132  5.3828 -2.1071
  901MOL0     H21570   9.890   9.408  10.841  0.7761  0.2887 -1.9827
  901MOL0     H21571   9.944   9.262  10.929  0.9480 -0.1455  0.0989
  901MOL0     H21572  10.024   9.314  10.640  1.9110  1.9871 -1.0055
  901MOL0     H21573  10.101   9.208  10.763  0.5803  1.0533  0.3662
  901MOL0     H21574  10.131   9.418  10.897 -0.1758 -1.9146 -0.0920
  901MOL0     H21575  10.078   9.512  10.766  1.6302  1.8064  1.4225
  901MOL0     H21576  10.315   9.314  10.754 -0.5802 -0.3174 -1.0331
  901MOL0     H21577  10.258   9.419  10.625 -0.5554 -0.8771  0.0770
  901MOL0     H21578  10.295   9.619  10.756  0.7068  0.2177 -1.2451
  901MOL0     H21579  10.364   9.530  10.890 -0.9807  0.2679  0.1200
  901MOL0     H21580  10.537   9.450  10.715 -2.6293 -1.5531  2.5438
  901MOL0     H21581  10.455   9.566  10.599  0.2533  0.5109 -0.2737
  901MOL0     H21582  10.564   9.673  10.854 -0.6319  1.2998 -0.2635
  901MOL0     H21583  10.475   9.755  10.724 -0.6025 -0.6648  1.3012
  901MOL0     H21584  10.643   9.706  10.553  0.8207 -0.5571 -0.4373
  901MOL0     H21585  10.718   9.799  10.680 -2.5205  1.2535  0.7511
  901MOL0     H21586  10.856   9.564  10.482 -0.4789  1.6360  0.4024
  901MOL0     H21587  11.138   9.363  10.596 -0.3819  0.9285  1.2869
  901MOL0     H21588  11.088   9.472  10.472 -0.3034 -2.3673  0.0514
  901MOL0     H21589  11.188   9.655  10.646  2.7285  0.6624 -0.4352
  901MOL0     H21590  11.258   9.512  10.718 -1.4325  3.2417  2.5856
  901MOL0     H21591  11.301   9.582  10.433 -0.5193 -2.3490 -0.0833
  901MOL0     H21592  11.370   9.439  10.506  1.3822  0.3546 -0.6822
  901MOL0     H21593  11.479   9.677  10.471 -0.5978 -0.5825  0.5343
  901MOL0     H21594  11.518   9.558  10.605 -2.0813 -3.4070 -0.8817
  901MOL0     H21595  11.675   9.694  10.662 -1.6668 -0.4002  0.8339
  901MOL0     H21596  11.852   9.850  10.744 -0.0798  0.2903  2.2181
  901MOL0     H21597  11.967  10.334  10.859  0.2922  0.1593  0.3118
  901MOL0     H21598  12.181  10.441  10.888 -2.5947  0.2598 -1.2156
  901MOL0     H21599  12.533  10.210  11.042  1.1339  3.0498  1.0341
  901MOL0     H21600  12.577  10.201  10.875  3.4400  0.0458  2.2425
  901MOL0     H21601  12.642  10.457  10.904 -0.7919  1.1378  0.8354
  901MOL0     H21602  12.608  10.423  11.071 -2.2430  1.6549 -1.7743
  901MOL0     H21603  12.799  10.267  11.078  0.5967  0.8746  1.3743
  901MOL0     H21604  12.809  10.267  10.899 -2.3562 -0.1397  0.0483
  901MOL0     H21605  12.917  10.456  11.097 -3.5186 -2.8933  1.4237
  901MOL0     H21606  12.858  10.536  10.961 -3.7462 -1.0417 -0.3496
  901MOL0     H21607  13.013  10.410  10.820  0.3720  0.1890  0.7095
  901MOL0     H21608  13.067  10.301  10.954  1.6330  2.0217  2.0872
  901MOL0     H21609  13.115  10.600  10.937  0.8606  1.3161  1.1548
  901MOL0     H21610  13.120  10.503  11.086 -0.1682 -0.0462 -0.5868
  901MOL0     H21611  13.350  10.528  10.978  0.0170 -0.6524  0.9635
  901MOL0     H21612  13.288  10.430  10.840  2.3648 -1.0132  0.9389
  901MOL0     H21613  13.272  10.322  11.125  1.6570 -3.1026  0.3837
  901MOL0     H21614  13.267  10.231  10.983  1.3716 -0.9563 -0.5745
  901MOL0     H21615  12.377  10.049  10.899 -0.2308  0.4598  1.2033
  901MOL0     H21616  12.157   9.950  10.870  0.8683  0.8457  1.2778
  901MOL0     H21617  11.539  10.138  10.827  0.5803 -0.0336  0.3461
  901MOL0     H21618  11.374   9.974  10.743  0.2890 -1.0648 -3.5874
  901MOL0     H21619   9.742   9.311  11.029 -0.5027  2.4900 -1.2560
  901MOL0     H21620   9.536   9.246  11.122  1.7486  1.6781  0.7832
  901MOL0     H21621   9.184   9.187  11.192 -1.0734 -0.3164 -1.4966
  901MOL0     H21622   9.022   9.176  11.362  0.7940  0.9685 -2.4226
  901MOL0     H21623   8.753   8.863  11.464  1.5185 -1.2058  2.0621
  901MOL0     H21624   8.826   8.916  11.319  0.6879  1.4765  0.2625
  901MOL0     H21625   8.632   9.042  11.350  1.4249  1.3586 -1.4279
  901MOL0     H21626   8.766   9.154  11.366  1.3979 -1.6613  0.3440
  901MOL0     H21627   8.717   9.092  11.632 -0.4441 -1.8928 -1.1175
  901MOL0     H21628   8.562   9.047  11.564 -0.3938 -1.4873 -0.6704
  901MOL0     H21629   8.565   9.287  11.657  2.6619 -1.6552  1.0289
  901MOL0     H21630   8.693   9.328  11.547 -0.2421 -0.4372 -1.4372
  901MOL0     H21631   8.405   9.280  11.248  1.4041 -4.9737 -1.0859
  901MOL0     H21632   9.097   8.763  11.423  1.4371  0.8327  0.1414
  901MOL0     H21633   9.193   8.644  11.268 -0.7375  1.4594  1.4820
  901MOL0     H21634   9.298   8.692  11.148 -3.9971 -4.1817 -0.4534
  901MOL0     H21635   9.346   8.700  11.325  2.3902 -0.3251 -2.7070
  902MOL0     O21636   8.138   5.394   1.471  1.1806  0.0795  0.0378
  902MOL0     C21637   8.128   5.372   1.593  0.4738  1.1128  0.8699
  902MOL0     O21638   8.232   5.326   1.669  0.1780  0.2613  0.0491
  902MOL0     C21639   8.351   5.328   1.609  0.1399  0.5729  0.3523
  902MOL0     C21640   8.406   5.207   1.557  0.1496 -1.0166 -0.0072
  902MOL0     C21641   8.535   5.208   1.498  0.5071 -0.0931 -0.2799
  902MOL0     C21642   8.610   5.331   1.484 -0.0649  1.3261 -0.4588
  902MOL0     O21643   8.737   5.338   1.436  0.4128  0.0843  0.4047
  902MOL0     C21644   8.768   5.284   1.312  0.4060 -0.3826  0.5466
  902MOL0     C21645   8.862   5.368   1.235 -0.2127  0.3716 -0.1495
  902MOL0     C21646   9.002   5.351   1.294  0.2597  0.2677  0.1080
  902MOL0     C21647   9.095   5.447   1.228 -0.6108 -0.8340 -0.4985
  902MOL0     C21648   9.234   5.434   1.305 -0.0644 -0.4272  0.1854
  902MOL0     C21649   9.337   5.551   1.281 -0.7860  1.2854  0.1408
  902MOL0     C21650   9.379   5.577   1.133 -0.2618 -0.6021  0.1190
  902MOL0     C21651   9.482   5.475   1.082  0.3837 -0.5634 -0.3246
  902MOL0     N21652   9.512   5.489   0.932  0.0895  0.1527  0.0997
  902MOL0     C21653   9.612   5.560   0.877  0.0831 -0.1417  0.0138
  902MOL0     C21654   9.611   5.525   0.736  0.2460  0.7505 -0.9028
  902MOL0     C21655   9.700   5.575   0.633 -0.7249  0.3510  0.4332
  902MOL0     C21656   9.848   5.520   0.646  1.8042  0.1386 -0.0025
  902MOL0     C21657   9.936   5.570   0.537  0.2142  0.0190  0.1388
  902MOL0     C21658  10.069   5.505   0.535  0.4085 -0.1762  0.5956
  902MOL0     O21659  10.149   5.582   0.440 -0.4883  0.1448  0.0281
  902MOL0     C21660  10.283   5.573   0.446 -0.4206 -0.1551 -0.5381
  902MOL0     C21661  10.356   5.675   0.383 -0.1762  0.0720 -0.5915
  902MOL0     C21662  10.494   5.686   0.386 -0.4461  0.1591  0.4351
  902MOL0     C21663  10.570   5.574   0.432  0.1138 -0.1481  0.6651
  902MOL0     C21664  10.714   5.562   0.417 -0.9339 -1.0659  0.3027
  902MOL0     O21665  10.785   5.676   0.445  0.6732  1.0141  1.7551
  902MOL0     C21666  10.917   5.673   0.444 -0.4626  0.7080 -0.8379
  902MOL0     C21667  10.979   5.651   0.322 -0.6775 -0.4558  0.7007
  902MOL0     C21668  11.117   5.639   0.313  0.4484  0.0166  0.0363
  902MOL0     C21669  11.192   5.669   0.428  1.3047  0.9440  0.1729
  902MOL0     O21670  11.328   5.663   0.437  0.4535 -0.3942  0.2064
  902MOL0     C21671  11.396   5.616   0.317 -1.4033 -0.8177 -0.5394
  902MOL0     C21672  11.548   5.620   0.338 -0.2360 -0.0458  0.1236
  902MOL0     C21673  11.631   5.549   0.228 -0.0523  0.1718  0.6342
  902MOL0     C21674  11.763   5.614   0.202  0.5236 -0.3795 -0.6765
  902MOL0     C21675  11.812   5.588   0.062  0.4584  0.6341 -0.0249
  902MOL0     C21676  11.949   5.647   0.035 -0.0580 -0.2689  0.4931
  902MOL0     C21677  11.995   5.595  -0.104 -0.2212  0.3942  0.0270
  902MOL0     C21678  11.922   5.662  -0.217 -0.5071 -0.3128 -0.1124
  902MOL0    Cl21679  11.959   5.571  -0.367 -0.2291  0.2068 -0.2199
  902MOL0     C21680  11.128   5.709   0.551 -0.5453 -0.3226  0.3408
  902MOL0     C21681  10.992   5.708   0.560 -0.1787 -0.2318 -0.4781
  902MOL0     O21682  10.768   5.461   0.372  0.1699  0.0190 -0.0868
  902MOL0     C21683  10.495   5.467   0.491  0.5224 -0.0546  0.7866
  902MOL0     C21684  10.355   5.466   0.498 -0.4009 -0.1911 -0.3925
  902MOL0     N21685   9.507   5.447   0.717  0.2453 -0.3435 -0.7219
  902MOL0     N21686   9.447   5.431   0.827 -0.3014 -0.8835  0.8153
  902MOL0     C21687   8.562   5.447   1.553  0.1743 -0.2368 -0.1509
  902MOL0     C21688   8.429   5.444   1.604 -1.1182  0.1746 -0.5763
  902MOL0     C21689   7.999   5.395   1.660  0.3997  0.2573  0.4000
  902MOL0     C21690   7.973   5.326   1.783 -0.3413 -0.0166 -0.1912
  902MOL0     C21691   7.869   5.358   1.861 -0.2196 -0.3223  0.3352
  902MOL0     C21692   7.772   5.447   1.816 -0.3709  0.3414  0.4368
  902MOL0     O21693   7.665   5.464   1.903  0.2840  0.4879 -0.2067
  902MOL0     C21694   7.575   5.579   1.888  0.5074  0.4373 -0.3516
  902MOL0     C21695   7.456   5.554   1.984 -0.8876 -0.2206  0.3434
  902MOL0     C21696   7.329   5.603   1.914  0.2952 -0.7249 -0.2747
  902MOL0     C21697   7.272   5.501   1.824  0.1564  0.5480  1.4158
  902MOL0     C21698   7.169   5.539   1.722 -0.7535 -0.0671 -1.1217
  902MOL0     C21699   7.097   5.562   1.625 -0.0801  0.3420  0.3531
  902MOL0     C21700   7.790   5.511   1.692  0.1157  0.7047  0.6947
  902MOL0     C21701   7.904   5.491   1.613  0.5001  0.2984  0.9075
  902MOL0     C21702   7.916   5.570   1.484 -0.8546 -0.6385  0.3775
  902MOL0     H21703   8.339   5.122   1.556 -1.4974  0.1885  1.0759
  902MOL0     H21704   8.575   5.113   1.466  0.4591 -0.3340  0.3538
  902MOL0     H21705   8.810   5.187   1.338  0.3273  0.2203  3.2253
  902MOL0     H21706   8.681   5.264   1.249  0.7253  3.4773 -1.4218
  902MOL0     H21707   8.827   5.471   1.229 -1.0421  0.2497  1.7312
  902MOL0     H21708   8.858   5.341   1.129  1.4141 -0.4965 -0.0264
  902MOL0     H21709   9.033   5.247   1.287  0.0625  0.2453 -0.4518
  902MOL0     H21710   9.004   5.369   1.402 -1.9508  1.0697  0.0781
  902MOL0     H21711   9.111   5.418   1.124  0.2696  0.4662 -0.7516
  902MOL0     H21712   9.062   5.551   1.240  0.1619 -0.6297 -0.0482
  902MOL0     H21713   9.212   5.414   1.411 -0.7149  0.7285  0.2873
  902MOL0     H21714   9.288   5.347   1.268  0.3052 -0.4888  0.8457
  902MOL0     H21715   9.305   5.648   1.321 -1.6055 -0.0322  2.9183
  902MOL0     H21716   9.420   5.527   1.349 -0.2006  1.9262 -0.3322
  902MOL0     H21717   9.434   5.669   1.114  1.7624 -2.1136 -1.7733
  902MOL0     H21718   9.291   5.594   1.070  0.1783  1.3358 -0.0323
  902MOL0     H21719   9.573   5.482   1.141 -0.6610  0.7126  1.2177
  902MOL0     H21720   9.436   5.377   1.096  1.2837 -0.8470  0.7583
  902MOL0     H21721   9.671   5.635   0.929  0.4266  0.0625 -0.6516
  902MOL0     H21722   9.652   5.537   0.542 -0.8172 -2.1424  1.4452
  902MOL0     H21723   9.700   5.684   0.623  2.3167  0.2724 -1.8055
  902MOL0     H21724   9.902   5.545   0.738  0.9831  0.7767  0.3238
  902MOL0     H21725   9.849   5.410   0.643  2.9999 -0.0142  2.8113
  902MOL0     H21726   9.942   5.678   0.550  0.0079  0.3184 -1.8746
  902MOL0     H21727   9.893   5.559   0.437 -0.2620 -0.8435  0.4212
  902MOL0     H21728  10.050   5.401   0.505 -0.8882 -1.3272  4.6120
  902MOL0     H21729  10.115   5.502   0.635  2.4565 -0.6675 -0.3129
  902MOL0     H21730  10.296   5.758   0.346 -1.3196 -1.2343 -1.7874
  902MOL0     H21731  10.561   5.756   0.336  0.9338 -2.5843 -1.9101
  902MOL0     H21732  10.920   5.626   0.234 -0.1012 -1.6896  0.6364
  902MOL0     H21733  11.148   5.609   0.213 -1.7798 -0.9524 -0.4226
  902MOL0     H21734  11.366   5.513   0.295 -0.2133 -1.8810  2.2762
  902MOL0     H21735  11.385   5.669   0.222  1.4744 -2.5459 -1.9770
  902MOL0     H21736  11.582   5.724   0.336 -1.6312  0.4636  1.3692
  902MOL0     H21737  11.570   5.576   0.436  0.1970  0.3976  0.2276
  902MOL0     H21738  11.636   5.448   0.269  1.1791 -0.9064 -1.9573
  902MOL0     H21739  11.573   5.560   0.136  1.0461  2.2862  0.1163
  902MOL0     H21740  11.837   5.582   0.276 -0.5320 -3.0363 -0.6719
  902MOL0     H21741  11.756   5.723   0.214 -0.6765 -0.5796  0.8399
  902MOL0     H21742  11.743   5.630  -0.012  1.0895  2.5385  0.4074
  902MOL0     H21743  11.825   5.480   0.052  0.4391  0.1667  3.6739
  902MOL0     H21744  11.953   5.755   0.047 -1.1117 -0.2454  0.7361
  902MOL0     H21745  12.020   5.612   0.111  2.2511  0.1519 -1.3576
  902MOL0     H21746  11.992   5.486  -0.115  1.3803 -0.1155  3.3380
  902MOL0     H21747  12.098   5.629  -0.121 -0.2223  0.3220 -0.1304
  902MOL0     H21748  11.816   5.677  -0.193 -0.3983 -1.3568  1.1374
  902MOL0     H21749  11.956   5.765  -0.229 -1.7564  0.5819  2.8411
  902MOL0     H21750  11.181   5.739   0.641  0.0414  2.4698 -0.8603
  902MOL0     H21751  10.947   5.740   0.654  1.4901 -2.5070  1.2192
  902MOL0     H21752  10.545   5.374   0.518 -0.0287 -1.1211 -1.6198
  902MOL0     H21753  10.298   5.384   0.540 -0.0341 -0.1194  0.2713
  902MOL0     H21754   8.624   5.536   1.560 -2.7475  1.8442  1.5710
  902MOL0     H21755   8.395   5.537   1.649 -0.3930  0.0040  0.3474
  902MOL0     H21756   8.043   5.248   1.813 -1.0441 -0.5725  0.0234
  902MOL0     H21757   7.858   5.312   1.959  0.0588 -0.4510  0.3052
  902MOL0     H21758   7.550   5.579   1.782  0.8623  2.3446 -0.4623
  902MOL0     H21759   7.630   5.672   1.904  0.3844  0.4787 -0.1699
  902MOL0     H21760   7.462   5.607   2.079 -2.0095 -1.5017  1.1652
  902MOL0     H21761   7.449   5.449   2.013  1.6686 -1.2616 -2.2796
  902MOL0     H21762   7.350   5.696   1.861  3.5383 -1.9381 -1.3385
  902MOL0     H21763   7.258   5.623   1.995  1.2715  1.2108  0.1513
  902MOL0     H21764   7.361   5.471   1.767 -0.1560 -1.4806  1.9113
  902MOL0     H21765   7.221   5.418   1.873 -2.3029  1.2909  0.2940
  902MOL0     H21766   7.030   5.578   1.544  1.0009 -0.5254 -0.7542
  902MOL0     H21767   7.711   5.575   1.656 -1.5482 -1.7688 -0.3131
  902MOL0     H21768   7.942   5.503   1.402  1.5744  0.8064 -0.1496
  902MOL0     H21769   7.833   5.635   1.453  0.2432 -0.3173 -2.1313
  902MOL0     H21770   8.002   5.637   1.482 -0.8294 -0.6645  0.5824
  903MOL0     O21771  10.020   1.239   6.133  0.6271 -0.8291 -0.1179
  903MOL0     C21772  10.015   1.151   6.219  1.4180 -0.9578  1.2597
  903MOL0     O21773  10.117   1.123   6.315 -0.2247  1.5074  0.8946
  903MOL0     C21774  10.240   1.184   6.297  0.7492  0.3917 -0.3076
  903MOL0     C21775  10.315   1.176   6.182 -0.3611 -0.7059  0.4201
  903MOL0     C21776  10.435   1.240   6.165  0.0944 -0.0767 -0.1047
  903MOL0     C21777  10.493   1.307   6.281  0.7851  0.5681  0.5668
  903MOL0     O21778  10.616   1.367   6.255 -0.1238  0.2608  0.9134
  903MOL0     C21779  10.677   1.442   6.366 -0.4297 -0.1243 -0.7413
  903MOL0     C21780  10.795   1.521   6.307 -0.4105 -1.2408  0.1459
  903MOL0     C21781  10.883   1.575   6.412 -0.6103  1.0490 -0.8220
  903MOL0     C21782  11.001   1.644   6.354 -0.9563 -0.6337  1.4184
  903MOL0     C21783  11.091   1.690   6.462 -0.0494  0.4519  0.2518
  903MOL0     C21784  11.204   1.786   6.415 -0.8586 -0.1897  1.1578
  903MOL0     C21785  11.268   1.869   6.530 -0.2776  0.8521  0.8803
  903MOL0     C21786  11.371   1.967   6.471 -0.1549 -0.1183 -0.0704
  903MOL0     N21787  11.441   2.016   6.586 -0.2539 -0.0017  0.0562
  903MOL0     C21788  11.395   2.125   6.653  0.3341 -0.5006 -0.0608
  903MOL0     C21789  11.502   2.171   6.715  0.0589 -0.4745 -0.0839
  903MOL0     C21790  11.502   2.297   6.800  0.1080 -0.4588 -0.2529
  903MOL0     C21791  11.489   2.255   6.948  0.2641 -0.8179  0.1913
  903MOL0     C21792  11.447   2.377   7.035  0.0737  0.2448  0.0944
  903MOL0     C21793  11.431   2.352   7.182 -0.3508  0.1429  0.9014
  903MOL0     O21794  11.558   2.312   7.229  0.6623 -0.1401 -0.0087
  903MOL0     C21795  11.657   2.398   7.271  0.6714  0.4055  0.0578
  903MOL0     C21796  11.631   2.534   7.307 -0.2729 -0.0550  0.4128
  903MOL0     C21797  11.740   2.615   7.349  0.5897 -0.5319  0.0475
  903MOL0     C21798  11.864   2.560   7.375 -0.7432  0.1895  0.3136
  903MOL0     C21799  11.974   2.628   7.448 -0.2882  0.2239  0.9383
  903MOL0     O21800  12.059   2.545   7.514 -0.3383  0.4415 -0.5653
  903MOL0     C21801  12.165   2.592   7.591 -0.4437  0.3134 -0.2334
  903MOL0     C21802  12.172   2.548   7.722 -0.1080  0.3266  0.1592
  903MOL0     C21803  12.287   2.557   7.796  0.3883  0.2478 -0.6678
  903MOL0     C21804  12.379   2.643   7.751 -0.7309 -0.6982 -0.2925
  903MOL0     O21805  12.482   2.670   7.842  0.1551  0.2947 -0.7992
  903MOL0     C21806  12.594   2.744   7.803 -0.8508  0.5662 -0.4843
  903MOL0     C21807  12.686   2.751   7.927  0.9097 -0.4031 -1.4586
  903MOL0     C21808  12.731   2.611   7.970  0.2836  0.0753 -1.6375
  903MOL0     C21809  12.871   2.611   8.043  0.8043 -0.3197  0.0440
  903MOL0     C21810  12.922   2.472   8.096  0.1879  0.4683  0.7825
  903MOL0     C21811  13.062   2.469   8.160 -0.3787  0.5657 -1.3483
  903MOL0     C21812  13.114   2.331   8.218 -0.4118 -0.1710 -1.1367
  903MOL0     C21813  13.270   2.326   8.251 -0.8440 -0.2483  0.1341
  903MOL0    Cl21814  13.309   2.148   8.278 -0.3593 -0.1892 -0.4888
  903MOL0     C21815  12.373   2.705   7.629 -0.3633 -0.2114  0.7716
  903MOL0     C21816  12.264   2.671   7.542 -0.3306  0.0592 -0.2731
  903MOL0     O21817  11.980   2.754   7.445 -0.4124 -0.2271 -0.5277
  903MOL0     C21818  11.882   2.428   7.335  0.0614  0.4378  0.4878
  903MOL0     C21819  11.784   2.355   7.272  0.5892  0.0534  0.4628
  903MOL0     N21820  11.614   2.091   6.687  0.5951  0.8184 -0.3704
  903MOL0     N21821  11.580   2.004   6.593 -0.3026 -0.2553 -0.7521
  903MOL0     C21822  10.416   1.306   6.398 -0.0559  0.1232  0.6688
  903MOL0     C21823  10.285   1.250   6.406  0.2115 -0.9086  0.4134
  903MOL0     C21824   9.897   1.062   6.224  0.2270  0.6785 -0.0119
  903MOL0     C21825   9.878   0.980   6.337  1.0918 -0.1005 -0.1331
  903MOL0     C21826   9.786   0.869   6.341 -0.5065  1.2010  0.2430
  903MOL0     C21827   9.702   0.840   6.229 -0.5624 -0.3727 -0.1611
  903MOL0     O21828   9.611   0.733   6.228 -0.2424 -1.1095 -0.4590
  903MOL0     C21829   9.527   0.700   6.110  1.0484 -0.5341 -0.6288
  903MOL0     C21830   9.397   0.781   6.111 -0.1776 -0.0754 -0.0519
  903MOL0     C21831   9.316   0.755   5.981  0.4135 -0.3093 -0.0241
  903MOL0     C21832   9.201   0.853   5.946 -0.6913 -0.1759  0.1281
  903MOL0     C21833   9.090   0.837   6.035  0.4787  0.4990  0.0934
  903MOL0     C21834   8.987   0.825   6.104  0.0368 -0.9882 -0.5884
  903MOL0     C21835   9.715   0.930   6.124  0.0892 -0.8234 -0.2388
  903MOL0     C21836   9.803   1.040   6.117 -0.6434  0.7068  0.2485
  903MOL0     C21837   9.803   1.127   5.993  0.0202  0.5861  0.8211
  903MOL0     H21838  10.281   1.125   6.093 -1.9177  0.9176  0.0110
  903MOL0     H21839  10.490   1.234   6.071  1.7503  1.9342  0.6624
  903MOL0     H21840  10.603   1.501   6.422 -2.8698 -3.6535  0.0629
  903MOL0     H21841  10.725   1.375   6.438  1.7708 -0.7703 -2.6689
  903MOL0     H21842  10.757   1.595   6.236 -0.3243 -1.0203  0.3269
  903MOL0     H21843  10.858   1.459   6.244 -0.3294  0.0616 -1.0941
  903MOL0     H21844  10.920   1.488   6.466  0.5939  1.6619 -0.6170
  903MOL0     H21845  10.820   1.623   6.488 -3.0244 -1.8129 -0.8413
  903MOL0     H21846  11.064   1.590   6.283  0.7712 -0.0555  2.4408
  903MOL0     H21847  10.954   1.732   6.307 -0.7309 -0.5979  1.2615
  903MOL0     H21848  11.029   1.744   6.535 -2.3273 -0.6075 -0.8140
  903MOL0     H21849  11.144   1.610   6.514 -0.0265  0.8936  0.9232
  903MOL0     H21850  11.284   1.726   6.371 -1.2934  1.3327 -1.9819
  903MOL0     H21851  11.158   1.861   6.350  1.7425 -0.1146 -0.7582
  903MOL0     H21852  11.314   1.798   6.599  2.3702 -0.4797 -2.0274
  903MOL0     H21853  11.189   1.928   6.578 -1.2401  1.8092 -1.7240
  903MOL0     H21854  11.442   1.920   6.403  0.4447 -0.5353  0.8293
  903MOL0     H21855  11.323   2.052   6.422  2.2775  1.9255  0.8097
  903MOL0     H21856  11.294   2.165   6.651  0.4017 -0.2360  1.0571
  903MOL0     H21857  11.590   2.359   6.780 -0.8186  0.7663 -0.6665
  903MOL0     H21858  11.420   2.365   6.774  0.9042  0.4060 -0.5362
  903MOL0     H21859  11.412   2.177   6.950  1.1697 -1.7175  0.9697
  903MOL0     H21860  11.580   2.211   6.989  0.2014 -1.1323 -0.0082
  903MOL0     H21861  11.349   2.413   7.002 -0.6295  1.6895  3.3320
  903MOL0     H21862  11.516   2.462   7.029  2.9143 -2.0132 -1.4381
  903MOL0     H21863  11.360   2.273   7.209  1.1830 -2.2559 -1.5598
  903MOL0     H21864  11.404   2.449   7.226  2.1053  0.9050  0.9156
  903MOL0     H21865  11.531   2.577   7.305  0.4822  2.1811  3.2381
  903MOL0     H21866  11.734   2.721   7.372  0.6608 -1.0228  2.7127
  903MOL0     H21867  12.086   2.497   7.764  0.4749 -0.0491  0.9162
  903MOL0     H21868  12.277   2.518   7.897 -0.1506  2.3713  0.1501
  903MOL0     H21869  12.650   2.695   7.722 -0.3625 -2.7795  1.6720
  903MOL0     H21870  12.558   2.843   7.773  3.3141  3.4985  3.0176
  903MOL0     H21871  12.767   2.822   7.908 -0.9395  2.1489 -0.4934
  903MOL0     H21872  12.615   2.806   7.990  1.7678 -1.0625  0.1457
  903MOL0     H21873  12.659   2.562   8.036  1.6804 -0.0774 -0.1740
  903MOL0     H21874  12.752   2.565   7.873 -2.7061 -2.2853 -1.2961
  903MOL0     H21875  12.863   2.666   8.138 -1.3545 -2.2676  1.0853
  903MOL0     H21876  12.940   2.652   7.969 -0.0048 -1.0644 -1.1628
  903MOL0     H21877  12.935   2.409   8.007 -0.6972  1.7629 -0.3058
  903MOL0     H21878  12.846   2.420   8.156 -1.2972 -1.1679 -2.2764
  903MOL0     H21879  13.134   2.511   8.089  2.4061 -3.1296 -1.0283
  903MOL0     H21880  13.070   2.542   8.241 -0.4094  0.0264 -0.8528
  903MOL0     H21881  13.102   2.254   8.142 -2.6518 -2.2985  1.1886
  903MOL0     H21882  13.059   2.305   8.309  0.8714  1.4810  0.1783
  903MOL0     H21883  13.332   2.365   8.170 -1.2473 -0.2817 -0.1911
  903MOL0     H21884  13.298   2.384   8.339  0.2238 -0.4735 -0.0468
  903MOL0     H21885  12.448   2.762   7.575 -0.3552 -1.8208 -1.0625
  903MOL0     H21886  12.252   2.712   7.442 -1.9263  2.5968  0.8491
  903MOL0     H21887  11.979   2.379   7.339 -0.2770 -0.4340 -0.9264
  903MOL0     H21888  11.813   2.254   7.241 -0.3787 -0.1795  0.2883
  903MOL0     H21889  10.462   1.358   6.481 -0.3280  1.1654  0.1847
  903MOL0     H21890  10.226   1.264   6.496 -2.3117 -1.7587 -1.0063
  903MOL0     H21891   9.940   0.997   6.424 -1.6095 -1.7523  2.3211
  903MOL0     H21892   9.794   0.792   6.417  3.0162 -0.8490 -1.8872
  903MOL0     H21893   9.507   0.592   6.108  1.4439 -0.7983  2.9129
  903MOL0     H21894   9.578   0.713   6.014  2.0635 -1.3432 -0.2148
  903MOL0     H21895   9.413   0.889   6.124 -0.8153 -0.0189  0.3213
  903MOL0     H21896   9.340   0.753   6.200 -1.2661 -0.2179 -0.7613
  903MOL0     H21897   9.270   0.656   5.991 -2.3154  0.8832 -0.1357
  903MOL0     H21898   9.388   0.758   5.898 -0.4008 -0.2795 -0.7418
  903MOL0     H21899   9.234   0.956   5.933 -0.9361 -0.2237 -1.0795
  903MOL0     H21900   9.166   0.813   5.849  0.0848 -1.5855  0.4021
  903MOL0     H21901   8.898   0.836   6.161 -1.5276  1.4805 -3.2525
  903MOL0     H21902   9.652   0.930   6.035 -0.0962  2.4059 -0.2252
  903MOL0     H21903   9.755   1.071   5.913  1.6120 -2.1952  1.6791
  903MOL0     H21904   9.765   1.229   6.002 -1.4727  0.4380 -2.3485
  903MOL0     H21905   9.907   1.133   5.958 -0.1131  0.4954  0.3949
  904MOL0     O21906   3.263   1.104   3.914  0.3436  0.2538  0.0334
  904MOL0     C21907   3.241   1.208   3.968 -0.0299  0.5113 -0.5478
  904MOL0     O21908   3.116   1.260   3.989  0.5273 -0.0808 -0.7848
  904MOL0     C21909   3.002   1.181   3.957  0.4952  0.8692 -0.4408
  904MOL0     C21910   2.986   1.122   3.826  0.6575 -0.3759  0.1129
  904MOL0     C21911   2.871   1.038   3.791 -0.0326 -0.3828  0.1021
  904MOL0     C21912   2.770   1.018   3.889  0.4516  0.2933 -0.2305
  904MOL0     O21913   2.659   0.943   3.858 -0.4607 -0.0168  0.1339
  904MOL0     C21914   2.601   0.867   3.963  0.1713  0.1388  0.5555
  904MOL0     C21915   2.500   0.768   3.902  0.0900  0.3443 -0.0396
  904MOL0     C21916   2.392   0.827   3.806 -0.0392  1.0372  0.1746
  904MOL0     C21917   2.328   0.734   3.706 -0.2491  0.6125  0.7958
  904MOL0     C21918   2.284   0.601   3.781  0.2573 -0.4802 -0.0666
  904MOL0     C21919   2.184   0.529   3.694 -0.1314  0.2427  0.2211
  904MOL0     C21920   2.215   0.517   3.536 -0.3445 -0.4581 -1.0629
  904MOL0     C21921   2.129   0.390   3.484 -0.2246 -0.7977  0.3221
  904MOL0     N21922   2.155   0.384   3.346 -0.4572 -0.2897  0.1041
  904MOL0     C21923   2.196   0.269   3.281  0.3356  0.3505  0.1274
  904MOL0     C21924   2.201   0.299   3.154 -0.5886  0.5794  0.1397
  904MOL0     C21925   2.243   0.207   3.030 -0.1862 -0.7623  0.1224
  904MOL0     C21926   2.205   0.064   3.049  0.0778  1.3291  0.0309
  904MOL0     C21927   2.235  -0.011   2.912  0.2086  0.9327 -1.4620
  904MOL0     C21928   2.192  -0.159   2.911  0.3133 -0.7040 -0.2716
  904MOL0     O21929   2.202  -0.207   2.779  0.8715  0.0300 -0.1006
  904MOL0     C21930   2.327  -0.233   2.735 -0.4738 -1.8225 -0.2090
  904MOL0     C21931   2.361  -0.212   2.598 -0.2763 -0.4452  0.5882
  904MOL0     C21932   2.497  -0.229   2.551  0.7381 -0.6375 -0.6202
  904MOL0     C21933   2.592  -0.282   2.641  0.5968 -0.7498 -0.1996
  904MOL0     C21934   2.735  -0.303   2.593 -0.0633  0.2956 -0.3883
  904MOL0     O21935   2.755  -0.274   2.463  0.0316  0.4072 -0.4605
  904MOL0     C21936   2.870  -0.311   2.405 -0.0610  0.1697  0.2465
  904MOL0     C21937   2.954  -0.228   2.339  0.7148 -0.6843  0.5793
  904MOL0     C21938   3.065  -0.276   2.277 -0.4609  0.6369  0.3332
  904MOL0     C21939   3.106  -0.416   2.286  0.1081  0.1201  0.4688
  904MOL0     O21940   3.223  -0.464   2.236 -0.0090  0.3252 -0.2203
  904MOL0     C21941   3.331  -0.366   2.223  0.0584  0.2670 -0.0029
  904MOL0     C21942   3.385  -0.326   2.369 -0.5880  0.1983  0.3385
  904MOL0     C21943   3.435  -0.453   2.445 -0.1895  1.0019 -0.0604
  904MOL0     C21944   3.459  -0.416   2.595 -0.2993 -0.2140  0.3381
  904MOL0     C21945   3.568  -0.498   2.684 -0.0048 -0.5722  0.1648
  904MOL0     C21946   3.588  -0.415   2.808  0.2347 -0.9225 -0.1394
  904MOL0     C21947   3.704  -0.480   2.895  0.3556 -0.0990  0.6577
  904MOL0     C21948   3.657  -0.609   2.957  0.3210 -0.3959  0.1512
  904MOL0    Cl21949   3.795  -0.707   3.015 -0.5283 -0.0568  0.0842
  904MOL0     C21950   3.026  -0.501   2.361 -0.3576 -0.0167 -0.8455
  904MOL0     C21951   2.903  -0.450   2.419  0.0210  0.0165 -0.0605
  904MOL0     O21952   2.816  -0.312   2.685 -0.0271  0.5592  0.2650
  904MOL0     C21953   2.551  -0.323   2.768 -0.4183 -0.3266 -0.6808
  904MOL0     C21954   2.423  -0.295   2.815  0.8559 -0.3871  0.1703
  904MOL0     N21955   2.163   0.435   3.140  0.0799  1.0433 -0.1160
  904MOL0     N21956   2.139   0.486   3.258  0.6283  0.1971 -0.2034
  904MOL0     C21957   2.792   1.076   4.011 -0.0936  0.6904 -0.3968
  904MOL0     C21958   2.895   1.161   4.045 -0.1689  0.1614 -0.3527
  904MOL0     C21959   3.349   1.291   4.011 -0.1923  0.0163  0.2963
  904MOL0     C21960   3.330   1.385   4.119 -0.0287 -0.2737  0.6643
  904MOL0     C21961   3.436   1.437   4.190 -0.4609 -0.0253 -0.1771
  904MOL0     C21962   3.565   1.405   4.163 -0.3968 -0.1372  0.5799
  904MOL0     O21963   3.686   1.445   4.220 -0.0615  0.7014  0.3673
  904MOL0     C21964   3.682   1.529   4.336  0.7948  0.9421  0.3211
  904MOL0     C21965   3.817   1.592   4.358 -0.9241 -0.0573  0.1714
  904MOL0     C21966   3.929   1.487   4.389  0.1670  0.7154 -0.6053
  904MOL0     C21967   3.922   1.448   4.545 -1.1027  0.0596  0.5962
  904MOL0     C21968   4.035   1.362   4.570  0.5576  0.0892  0.4734
  904MOL0     C21969   4.117   1.281   4.602  0.7575  0.4750  0.7138
  904MOL0     C21970   3.590   1.337   4.048 -1.1855  0.0537  0.3596
  904MOL0     C21971   3.481   1.286   3.971 -0.1392  0.4755 -0.1780
  904MOL0     C21972   3.515   1.208   3.835 -1.2867 -0.2319 -0.3365
  904MOL0     H21973   3.062   1.143   3.751 -0.6477 -0.9469 -1.4384
  904MOL0     H21974   2.861   0.997   3.691  2.1687  0.2345 -0.4285
  904MOL0     H21975   2.675   0.809   4.020 -0.6413 -1.6160 -0.0971
  904MOL0     H21976   2.551   0.924   4.041 -2.0207  2.3564 -2.2212
  904MOL0     H21977   2.445   0.716   3.981 -0.6298 -1.5058 -1.6883
  904MOL0     H21978   2.562   0.697   3.845 -3.7177 -2.4584 -1.0875
  904MOL0     H21979   2.431   0.913   3.751 -0.9161  1.6917  0.5484
  904MOL0     H21980   2.310   0.857   3.871  0.3060 -0.3815  1.3039
  904MOL0     H21981   2.238   0.786   3.670  0.2211  0.5750 -0.4981
  904MOL0     H21982   2.394   0.718   3.621 -0.9447  3.5540 -0.4271
  904MOL0     H21983   2.358   0.523   3.802 -0.9210 -1.1115  2.0327
  904MOL0     H21984   2.235   0.624   3.876 -0.0022 -1.3649  0.0194
  904MOL0     H21985   2.173   0.429   3.738 -0.8149 -0.3946 -1.2881
  904MOL0     H21986   2.091   0.585   3.709 -1.7540 -2.8446  2.9071
  904MOL0     H21987   2.319   0.485   3.528 -0.3805 -1.0687  0.4757
  904MOL0     H21988   2.192   0.610   3.483  1.4952  0.4452 -0.3640
  904MOL0     H21989   2.155   0.295   3.532  0.1522 -1.0676 -0.3968
  904MOL0     H21990   2.021   0.406   3.495 -0.2140  2.5486 -2.5328
  904MOL0     H21991   2.224   0.179   3.335 -0.5706  0.6261  1.1088
  904MOL0     H21992   2.201   0.250   2.939  1.6927  0.8118 -0.0640
  904MOL0     H21993   2.351   0.223   3.021  0.3527 -2.8726  1.9512
  904MOL0     H21994   2.266   0.017   3.127 -0.2982 -3.0467 -1.9678
  904MOL0     H21995   2.099   0.055   3.076  0.2701 -0.4068  0.3647
  904MOL0     H21996   2.342  -0.003   2.889  1.0695 -0.0820  1.7024
  904MOL0     H21997   2.177   0.038   2.833  0.4162  1.5342 -1.2422
  904MOL0     H21998   2.087  -0.176   2.935  0.4449 -1.7895 -0.4324
  904MOL0     H21999   2.244  -0.219   2.987 -0.3878 -0.9514  0.0174
  904MOL0     H22000   2.292  -0.174   2.523  1.1733  2.4090  0.5856
  904MOL0     H22001   2.518  -0.213   2.446  1.6610 -1.0213 -0.5036
  904MOL0     H22002   2.924  -0.124   2.328  3.2994 -0.0755 -2.2917
  904MOL0     H22003   3.109  -0.203   2.209 -1.8837  0.7634 -0.5123
  904MOL0     H22004   3.416  -0.409   2.169  2.4815  2.2388  1.9830
  904MOL0     H22005   3.300  -0.272   2.177  1.3881  0.1717 -1.1700
  904MOL0     H22006   3.471  -0.261   2.355 -1.7711  1.8202  0.2395
  904MOL0     H22007   3.304  -0.277   2.424 -1.3718 -0.7957  0.0996
  904MOL0     H22008   3.367  -0.539   2.439  1.3429 -0.1618 -1.9796
  904MOL0     H22009   3.527  -0.487   2.398  0.0113 -2.2830  2.3491
  904MOL0     H22010   3.362  -0.434   2.643  0.4738 -3.2193  0.9930
  904MOL0     H22011   3.486  -0.310   2.594  1.7541 -0.6827  1.3280
  904MOL0     H22012   3.660  -0.520   2.629 -0.6642 -3.4674  0.0698
  904MOL0     H22013   3.524  -0.593   2.713  0.8685 -0.7789  0.8562
  904MOL0     H22014   3.610  -0.311   2.781 -3.0103  0.6036  2.4387
  904MOL0     H22015   3.504  -0.387   2.873  0.5107  1.6998 -0.7663
  904MOL0     H22016   3.746  -0.410   2.968  0.6328 -0.9374  1.3185
  904MOL0     H22017   3.778  -0.510   2.820 -2.2582 -0.2476 -2.0450
  904MOL0     H22018   3.594  -0.586   3.043  0.1518 -0.3678  0.0196
  904MOL0     H22019   3.601  -0.673   2.889  2.0710 -0.9756 -0.8205
  904MOL0     H22020   3.068  -0.600   2.372  1.0839  0.5886 -0.7342
  904MOL0     H22021   2.836  -0.511   2.478  0.0665  0.5326  0.5412
  904MOL0     H22022   2.628  -0.377   2.824  1.8832  0.8564 -2.5270
  904MOL0     H22023   2.392  -0.329   2.913 -0.1325  2.8231  1.0868
  904MOL0     H22024   2.715   1.058   4.086 -1.2303  1.6424 -1.3017
  904MOL0     H22025   2.899   1.213   4.141 -0.0459  1.2403 -0.9276
  904MOL0     H22026   3.229   1.410   4.150  0.4367  2.0299  0.4836
  904MOL0     H22027   3.420   1.508   4.271  1.2876  2.0142 -1.4937
  904MOL0     H22028   3.665   1.457   4.416  1.6203  0.3798  0.0134
  904MOL0     H22029   3.602   1.603   4.329 -0.8609 -0.7993  0.1020
  904MOL0     H22030   3.827   1.660   4.443 -4.0684  1.6918 -0.7010
  904MOL0     H22031   3.840   1.649   4.267  0.1083 -0.9866 -0.1746
  904MOL0     H22032   4.029   1.519   4.360  0.1062  1.2869 -0.1784
  904MOL0     H22033   3.908   1.393   4.336 -0.4188 -2.1002  4.0008
  904MOL0     H22034   3.928   1.540   4.603  2.5443 -0.3015  1.0492
  904MOL0     H22035   3.830   1.395   4.573 -0.3046 -2.3422 -0.9675
  904MOL0     H22036   4.200   1.216   4.622  2.5086  1.3871 -2.6777
  904MOL0     H22037   3.694   1.325   4.020 -1.2882 -1.4960  0.5542
  904MOL0     H22038   3.614   1.246   3.810 -1.5551  1.4101  0.9370
  904MOL0     H22039   3.524   1.099   3.842  2.1122  0.0121  0.7881
  904MOL0     H22040   3.447   1.244   3.758  1.6453  2.1335 -2.0284
  905MOL0     O22041   8.487   9.776   4.986  0.1875  0.2387  0.2509
  905MOL0     C22042   8.452   9.740   5.094 -0.0297  0.5152 -1.0580
  905MOL0     O22043   8.534   9.665   5.181  0.6011  0.1305  0.6578
  905MOL0     C22044   8.668   9.624   5.143  0.2011 -0.0880 -0.4853
  905MOL0     C22045   8.687   9.501   5.077  0.9592  0.3662  0.4208
  905MOL0     C22046   8.816   9.455   5.028 -0.8385  0.0510 -0.1833
  905MOL0     C22047   8.929   9.539   5.069 -0.3077 -0.1128  0.0383
  905MOL0     O22048   9.055   9.492   5.032 -0.2270  0.5950 -0.5709
  905MOL0     C22049   9.170   9.582   5.038 -0.1154  0.6266 -0.7040
  905MOL0     C22050   9.253   9.546   4.918  0.1903 -0.0813 -1.1061
  905MOL0     C22051   9.373   9.645   4.932  0.2025  0.3034  1.0489
  905MOL0     C22052   9.482   9.589   4.854  0.5697  0.2205  0.5012
  905MOL0     C22053   9.608   9.661   4.848 -0.2223 -0.6814  0.4966
  905MOL0     C22054   9.591   9.790   4.762  0.5280  0.1277  0.4844
  905MOL0     C22055   9.725   9.868   4.736  0.2163  0.2381 -1.0959
  905MOL0     C22056   9.857   9.811   4.665  0.6067  0.0684  0.0421
  905MOL0     N22057   9.956   9.911   4.631 -0.4244 -0.4553 -0.5674
  905MOL0     C22058  10.078   9.926   4.694 -0.7009 -0.1791  0.0947
  905MOL0     C22059  10.159   9.994   4.605 -0.2140  0.2736  0.3100
  905MOL0     C22060  10.302  10.038   4.621  0.2761  0.0895 -0.8229
  905MOL0     C22061  10.408   9.948   4.546  0.8004 -0.2409  0.1726
  905MOL0     C22062  10.551   9.991   4.591 -0.4991  0.2613  0.2772
  905MOL0     C22063  10.659   9.935   4.498  0.2564  0.5761 -0.2053
  905MOL0     O22064  10.789   9.987   4.534  0.0577 -0.2639 -0.0751
  905MOL0     C22065  10.886   9.979   4.442 -0.1783  0.4068  0.0379
  905MOL0     C22066  11.015   9.997   4.497 -0.0076 -0.0011  0.3200
  905MOL0     C22067  11.137   9.968   4.419  0.1183  0.3959 -0.1198
  905MOL0     C22068  11.121   9.937   4.282 -0.2280  0.5805 -0.0518
  905MOL0     C22069  11.245   9.912   4.203 -0.3920 -1.0454  0.7000
  905MOL0     O22070  11.347   9.849   4.267  0.8616  0.4505 -0.3124
  905MOL0     C22071  11.466   9.850   4.203  0.3738 -0.4785  0.2184
  905MOL0     C22072  11.566   9.906   4.280 -0.1791 -0.2003 -0.1515
  905MOL0     C22073  11.698   9.927   4.230  0.9017 -0.8048 -0.1072
  905MOL0     C22074  11.731   9.900   4.094  1.1002 -0.6521  0.1583
  905MOL0     O22075  11.843   9.955   4.027  0.2523 -0.2846 -0.7080
  905MOL0     C22076  11.921  10.044   4.109 -0.1395  0.8428  0.3571
  905MOL0     C22077  12.017  10.131   4.023 -0.0607  0.3923  0.3849
  905MOL0     C22078  11.940  10.200   3.918  0.5692 -0.5558  0.7087
  905MOL0     C22079  12.029  10.260   3.812  1.8321  0.3886 -0.4244
  905MOL0     C22080  11.961  10.368   3.730 -0.2000 -0.2127 -0.3251
  905MOL0     C22081  12.065  10.418   3.624  0.5710  0.2734 -0.6284
  905MOL0     C22082  12.132  10.544   3.682 -1.1609 -0.4658  0.2631
  905MOL0     C22083  12.246  10.591   3.593  0.3694 -0.0217 -0.1118
  905MOL0    Cl22084  12.399  10.493   3.612  0.1011 -0.0906  0.2614
  905MOL0     C22085  11.623   9.844   4.020  0.7411 -0.4598  0.3416
  905MOL0     C22086  11.498   9.803   4.073  0.1087 -0.0851 -0.1004
  905MOL0     O22087  11.245   9.961   4.090  0.3673  0.0527  0.0639
  905MOL0     C22088  10.992   9.926   4.229 -1.1963  0.0043  0.3823
  905MOL0     C22089  10.874   9.942   4.302 -0.3069 -0.1020 -0.1987
  905MOL0     N22090  10.079  10.016   4.492  0.3326  0.3039 -0.1447
  905MOL0     N22091   9.958   9.973   4.512 -0.1831  0.3616 -0.0339
  905MOL0     C22092   8.910   9.647   5.157 -0.2533  0.2102  0.3580
  905MOL0     C22093   8.786   9.695   5.185 -0.4320  1.0772  0.4530
  905MOL0     C22094   8.323   9.803   5.145  0.5128  0.2747 -0.7522
  905MOL0     C22095   8.308   9.803   5.289  0.4103  0.3842  0.3842
  905MOL0     C22096   8.199   9.854   5.348  0.7528  0.1425  0.4519
  905MOL0     C22097   8.095   9.903   5.269  0.1686 -0.4391  0.0644
  905MOL0     O22098   7.980   9.967   5.306  0.1566 -0.2396 -0.0072
  905MOL0     C22099   7.964  10.023   5.438  0.0068  0.4592 -0.3060
  905MOL0     C22100   7.825   9.993   5.492 -0.9641  0.3398  0.0610
  905MOL0     C22101   7.702  10.048   5.420  0.3753  0.6909 -0.4811
  905MOL0     C22102   7.576  10.004   5.494  0.2601  0.7862 -0.6641
  905MOL0     C22103   7.449  10.017   5.417  1.0194 -0.1462  0.0680
  905MOL0     C22104   7.353  10.022   5.338  0.5594 -0.0263 -0.5112
  905MOL0     C22105   8.108   9.900   5.127 -0.1529 -0.1305  0.1000
  905MOL0     C22106   8.216   9.847   5.063 -0.5859  0.2774  1.3166
  905MOL0     C22107   8.221   9.853   4.907 -0.3871  0.1270 -0.6054
  905MOL0     H22108   8.598   9.445   5.048 -0.3742  2.3942  0.3880
  905MOL0     H22109   8.834   9.355   4.992 -0.7316 -0.1521  0.4128
  905MOL0     H22110   9.125   9.681   5.037 -0.9537  0.2776  0.1930
  905MOL0     H22111   9.225   9.559   5.130 -3.1455 -1.4093  0.7491
  905MOL0     H22112   9.191   9.580   4.835 -0.6855  1.2894  0.0680
  905MOL0     H22113   9.282   9.441   4.917 -0.4655 -0.2896  0.2361
  905MOL0     H22114   9.414   9.660   5.032 -0.8480  3.0813  1.1434
  905MOL0     H22115   9.338   9.736   4.882 -0.1418 -1.2109 -1.6995
  905MOL0     H22116   9.512   9.489   4.887  0.3510 -0.3808 -1.0379
  905MOL0     H22117   9.463   9.581   4.746  3.8943 -0.0914 -0.1767
  905MOL0     H22118   9.638   9.709   4.943  0.1945  1.3654 -0.6019
  905MOL0     H22119   9.686   9.593   4.812 -0.6766 -0.5132 -0.8282
  905MOL0     H22120   9.546   9.760   4.667 -1.2499  2.3912  0.5312
  905MOL0     H22121   9.522   9.867   4.796 -0.8609 -1.0575  0.4442
  905MOL0     H22122   9.758   9.901   4.835 -1.8989 -0.2966 -0.1749
  905MOL0     H22123   9.701   9.961   4.682  0.6059  1.2631  0.4229
  905MOL0     H22124   9.902   9.729   4.721  1.4991  1.0145  0.7553
  905MOL0     H22125   9.812   9.766   4.576 -2.4968  0.3263  1.3435
  905MOL0     H22126  10.109   9.916   4.797  1.7569  1.8416 -0.3549
  905MOL0     H22127  10.316  10.135   4.573  1.3604 -1.7596 -4.6405
  905MOL0     H22128  10.321  10.020   4.728 -0.6701  0.5767 -0.5620
  905MOL0     H22129  10.393   9.842   4.568  0.8102 -0.6873 -1.8646
  905MOL0     H22130  10.402   9.970   4.439  0.4372 -0.4062  0.1566
  905MOL0     H22131  10.574   9.950   4.690 -0.0268 -0.0722  0.0356
  905MOL0     H22132  10.566  10.099   4.590  0.2387  0.1658  0.1189
  905MOL0     H22133  10.628   9.955   4.395  0.7269 -1.0357 -0.6846
  905MOL0     H22134  10.657   9.826   4.510 -0.5146  0.8103  2.4070
  905MOL0     H22135  11.041  10.027   4.598  0.7970  2.1755 -0.4853
  905MOL0     H22136  11.240   9.976   4.451  0.8919 -0.7141 -2.1062
  905MOL0     H22137  11.546   9.938   4.382  1.5326 -0.8440  0.4147
  905MOL0     H22138  11.770   9.965   4.302  0.5891 -0.1598 -0.1283
  905MOL0     H22139  11.865  10.119   4.166  0.9116  0.5328  1.8510
  905MOL0     H22140  11.984   9.992   4.182  0.0559 -0.9017 -0.9813
  905MOL0     H22141  12.073  10.196   4.091  1.9265 -2.5774  1.7598
  905MOL0     H22142  12.082  10.060   3.972 -0.3732  0.9298 -0.8096
  905MOL0     H22143  11.884  10.123   3.864 -1.4722  0.0309  1.8816
  905MOL0     H22144  11.868  10.267   3.965  1.5672  0.1495  1.2778
  905MOL0     H22145  12.056  10.174   3.750 -2.3629 -0.5482 -1.2594
  905MOL0     H22146  12.118  10.300   3.860  1.0001  2.5788 -0.5573
  905MOL0     H22147  11.926  10.447   3.797 -1.2561 -0.2069 -0.8585
  905MOL0     H22148  11.875  10.330   3.674 -0.4629  0.8482 -0.6634
  905MOL0     H22149  12.139  10.342   3.595 -0.9714 -2.5747  2.2518
  905MOL0     H22150  12.015  10.447   3.531 -1.1731 -2.1371 -0.5238
  905MOL0     H22151  12.157  10.538   3.788 -0.3021  0.8122  0.1636
  905MOL0     H22152  12.048  10.615   3.684 -1.3612 -0.6618 -0.7979
  905MOL0     H22153  12.217  10.593   3.488  1.1585  0.0081 -0.3385
  905MOL0     H22154  12.276  10.691   3.626  0.4340 -0.0740 -0.0099
  905MOL0     H22155  11.645   9.840   3.914 -0.0411  1.1943  0.0870
  905MOL0     H22156  11.432   9.741   4.013 -1.3087 -0.7083  2.0071
  905MOL0     H22157  10.986   9.909   4.122 -0.1391  2.6042 -0.1633
  905MOL0     H22158  10.778   9.925   4.255  0.3961 -3.1914 -0.7120
  905MOL0     H22159   8.991   9.706   5.201 -0.3071 -0.3625  1.2572
  905MOL0     H22160   8.760   9.785   5.239 -0.3508  1.2405  0.2220
  905MOL0     H22161   8.384   9.765   5.356 -0.7576 -1.3400  0.7926
  905MOL0     H22162   8.212   9.859   5.456 -0.0490 -0.4011  0.5829
  905MOL0     H22163   7.970  10.132   5.424 -0.1491  0.7222  1.4487
  905MOL0     H22164   8.047  10.005   5.506 -0.0009 -0.6344 -0.5745
  905MOL0     H22165   7.830  10.035   5.592 -1.9093  0.6105  0.0051
  905MOL0     H22166   7.823   9.883   5.487  2.6913  0.0869  0.9627
  905MOL0     H22167   7.695   9.996   5.324  0.2609 -2.9287  1.3167
  905MOL0     H22168   7.705  10.158   5.422 -0.2286  0.6955  0.8726
  905MOL0     H22169   7.591   9.896   5.504  0.7647  0.7372 -1.7823
  905MOL0     H22170   7.566  10.051   5.592  0.7769 -0.8881  0.2338
  905MOL0     H22171   7.272  10.008   5.269 -0.0637 -1.4312  0.4405
  905MOL0     H22172   8.037   9.950   5.062  1.7381  1.7112 -0.6495
  905MOL0     H22173   8.283   9.941   4.886 -0.2603  0.3758  0.7144
  905MOL0     H22174   8.269   9.765   4.863  1.7287  0.2377  1.2742
  905MOL0     H22175   8.122   9.872   4.864 -0.5907 -0.4961 -0.4175
  906MOL0     O22176   7.581   4.418   8.080  0.4455 -1.2982  0.2575
  906MOL0     C22177   7.581   4.448   7.964  0.2702 -0.2816 -0.5009
  906MOL0     O22178   7.494   4.536   7.910 -0.2795 -0.0121  0.1480
  906MOL0     C22179   7.398   4.593   7.995 -0.5453 -0.7483  0.4941
  906MOL0     C22180   7.299   4.520   8.054  0.8244  1.2676 -0.1246
  906MOL0     C22181   7.197   4.582   8.116 -0.4545  0.1312 -0.3318
  906MOL0     C22182   7.189   4.726   8.119 -0.1658  0.7437  0.6355
  906MOL0     O22183   7.083   4.786   8.191 -0.1126  0.9780 -0.1414
  906MOL0     C22184   6.987   4.723   8.285  0.1438 -1.4581  0.6226
  906MOL0     C22185   6.899   4.835   8.347 -0.0236  0.0692 -0.4794
  906MOL0     C22186   6.794   4.897   8.258  0.0077  0.5620 -0.2084
  906MOL0     C22187   6.737   5.016   8.337 -0.3857  0.0592 -0.1987
  906MOL0     C22188   6.625   5.082   8.246  0.3917  0.7461  0.1891
  906MOL0     C22189   6.563   5.201   8.322  0.4070 -0.5949 -0.1442
  906MOL0     C22190   6.430   5.245   8.262  0.1137  0.3030  0.0492
  906MOL0     C22191   6.391   5.394   8.271 -0.7604  0.6976  0.3989
  906MOL0     N22192   6.313   5.424   8.390 -0.5685  0.9137 -0.0012
  906MOL0     C22193   6.187   5.485   8.383 -0.5505  0.4484  0.4534
  906MOL0     C22194   6.148   5.520   8.507  0.2007  0.2324  0.4546
  906MOL0     C22195   6.020   5.576   8.551  0.1859  0.1040 -1.0529
  906MOL0     C22196   6.034   5.710   8.621  0.4894  0.2444 -0.4551
  906MOL0     C22197   6.090   5.705   8.763  0.5330 -0.1277 -0.1455
  906MOL0     C22198   6.090   5.837   8.839 -0.8028 -0.8329  0.1061
  906MOL0     O22199   6.185   5.931   8.781 -0.6609  0.4858 -0.2671
  906MOL0     C22200   6.314   5.927   8.834  0.1182  0.7687 -0.1217
  906MOL0     C22201   6.409   5.826   8.808 -0.0018  0.0569 -0.8901
  906MOL0     C22202   6.541   5.828   8.853 -0.5050  0.0781  0.4541
  906MOL0     C22203   6.590   5.935   8.924 -0.0489  0.5920 -0.1002
  906MOL0     C22204   6.734   5.936   8.968  0.5571 -0.3472 -0.0905
  906MOL0     O22205   6.826   5.853   8.897 -0.1158 -0.5623 -0.3791
  906MOL0     C22206   6.958   5.858   8.936  0.8576 -0.4646 -0.0442
  906MOL0     C22207   7.028   5.738   8.949  0.0299  0.3638  0.1501
  906MOL0     C22208   7.170   5.737   8.963  0.3145 -0.6668 -0.6028
  906MOL0     C22209   7.236   5.861   8.961  0.4374  0.0671 -0.4210
  906MOL0     O22210   7.368   5.864   8.995  0.2602 -0.1036  0.0286
  906MOL0     C22211   7.464   5.925   8.904  0.6623 -0.1374  1.1997
  906MOL0     C22212   7.605   5.917   8.961  0.6775 -0.3883  0.1945
  906MOL0     C22213   7.720   5.995   8.893  0.8649  0.5068  0.7346
  906MOL0     C22214   7.683   6.013   8.745  0.2684  0.2990  1.2391
  906MOL0     C22215   7.806   6.070   8.672 -0.5797 -0.9189  0.0113
  906MOL0     C22216   7.908   5.952   8.628 -0.9401  0.0060 -0.3268
  906MOL0     C22217   8.036   6.027   8.587  1.1545  0.6746 -0.4694
  906MOL0     C22218   8.133   5.922   8.534 -0.5271 -0.2487  0.3539
  906MOL0    Cl22219   8.283   6.015   8.471 -0.3389 -0.1149  0.0464
  906MOL0     C22220   7.164   5.976   8.970 -0.5323 -0.5889 -1.0447
  906MOL0     C22221   7.032   5.974   8.947  0.3547 -0.2343 -0.2562
  906MOL0     O22222   6.755   6.027   9.045  0.0539 -0.6553  0.1857
  906MOL0     C22223   6.491   6.042   8.957 -1.0527  0.3234 -0.3271
  906MOL0     C22224   6.360   6.044   8.910 -0.4062  0.3844  0.3647
  906MOL0     N22225   6.252   5.479   8.595  0.1756  0.3372  0.3766
  906MOL0     N22226   6.351   5.437   8.525 -0.1991 -0.3727  0.8096
  906MOL0     C22227   7.289   4.798   8.048  0.3480  0.7846  0.0084
  906MOL0     C22228   7.396   4.729   7.991  0.1933 -0.1287 -0.6413
  906MOL0     C22229   7.688   4.378   7.881  0.1483  1.0967 -0.4600
  906MOL0     C22230   7.732   4.434   7.764  0.0773  0.2890  0.2497
  906MOL0     C22231   7.836   4.384   7.683 -0.4778  0.4485 -0.0928
  906MOL0     C22232   7.905   4.261   7.726  0.5193 -0.5056  0.2757
  906MOL0     O22233   8.009   4.218   7.648  0.2907  0.6305  0.3124
  906MOL0     C22234   8.082   4.093   7.683 -0.3833 -0.3889  0.2774
  906MOL0     C22235   8.198   4.076   7.580 -0.2302  0.0327  0.4252
  906MOL0     C22236   8.169   3.980   7.460  0.7992 -0.1760 -0.0626
  906MOL0     C22237   8.260   4.008   7.339  0.3576 -0.4375 -0.3436
  906MOL0     C22238   8.399   4.040   7.386  0.5889 -0.3392 -0.6877
  906MOL0     C22239   8.506   4.072   7.418  0.7107  0.4769  0.2696
  906MOL0     C22240   7.854   4.196   7.839 -1.4428 -0.7192  0.3883
  906MOL0     C22241   7.757   4.260   7.920 -0.2281  0.2574  0.2915
  906MOL0     C22242   7.723   4.181   8.045 -0.5227  1.1278  0.2323
  906MOL0     H22243   7.291   4.412   8.063  1.3476  1.0694 -1.6299
  906MOL0     H22244   7.117   4.520   8.156  1.0662 -0.7436  1.5520
  906MOL0     H22245   6.922   4.650   8.237 -1.0324 -0.0765  0.0185
  906MOL0     H22246   7.047   4.672   8.361  3.2595  0.8808 -0.0247
  906MOL0     H22247   6.971   4.912   8.378 -1.2522 -0.2651  3.7180
  906MOL0     H22248   6.844   4.788   8.429  1.3130  0.6678  0.7972
  906MOL0     H22249   6.709   4.836   8.227  0.2681  0.0115  0.1397
  906MOL0     H22250   6.846   4.926   8.166  1.9750  1.6284  1.1632
  906MOL0     H22251   6.691   4.983   8.430 -1.0507  3.0677  0.6491
  906MOL0     H22252   6.815   5.090   8.355 -0.7254  0.1664  0.9185
  906MOL0     H22253   6.665   5.117   8.150 -0.7580 -2.9172 -1.8437
  906MOL0     H22254   6.550   5.006   8.222  2.3620 -2.1006  2.3350
  906MOL0     H22255   6.559   5.170   8.427 -0.2551 -1.8047 -0.5017
  906MOL0     H22256   6.635   5.283   8.335 -0.7098  0.1063  2.1580
  906MOL0     H22257   6.346   5.186   8.298  2.1525 -2.9909 -0.1894
  906MOL0     H22258   6.431   5.224   8.155 -0.4222  1.9001 -0.3044
  906MOL0     H22259   6.490   5.440   8.272 -0.9901  1.2979 -1.4873
  906MOL0     H22260   6.330   5.428   8.188 -1.5736  0.8427  1.0451
  906MOL0     H22261   6.129   5.480   8.292  0.7094 -0.0906 -0.3492
  906MOL0     H22262   5.943   5.587   8.474  0.6096 -1.2817 -1.7180
  906MOL0     H22263   5.981   5.503   8.623 -0.8521  1.1060 -0.5563
  906MOL0     H22264   6.093   5.776   8.557  1.1320 -0.9219 -1.0932
  906MOL0     H22265   5.933   5.750   8.622  0.3741 -0.0442  0.4758
  906MOL0     H22266   6.193   5.671   8.776  0.8226  1.4791  2.5872
  906MOL0     H22267   6.028   5.634   8.819  0.1474  0.0785 -0.3027
  906MOL0     H22268   6.107   5.822   8.946 -1.9521  3.0528  1.0078
  906MOL0     H22269   5.989   5.879   8.834  0.2373  1.8490  0.2967
  906MOL0     H22270   6.384   5.744   8.741  1.3727  0.2237 -1.6454
  906MOL0     H22271   6.605   5.750   8.813 -0.3038  1.1786 -1.5016
  906MOL0     H22272   6.972   5.645   8.951  1.0980 -0.3039  2.5663
  906MOL0     H22273   7.220   5.643   8.983 -2.2932 -1.6821  1.8033
  906MOL0     H22274   7.450   5.869   8.811  1.8492 -0.3170  1.1135
  906MOL0     H22275   7.434   6.026   8.874 -1.1149 -1.2857 -1.2414
  906MOL0     H22276   7.600   5.945   9.066  2.0218 -2.6892  0.9516
  906MOL0     H22277   7.635   5.812   8.968  1.0976 -0.1642  2.7712
  906MOL0     H22278   7.732   6.093   8.940 -4.1692  1.1691  1.1232
  906MOL0     H22279   7.802   5.921   8.896 -1.8220 -2.6920  1.5535
  906MOL0     H22280   7.597   6.079   8.744 -0.8648 -1.0672 -1.6887
  906MOL0     H22281   7.660   5.918   8.695  1.4032 -1.4543  3.8109
  906MOL0     H22282   7.853   6.141   8.741 -2.1208 -0.0792  0.2414
  906MOL0     H22283   7.770   6.125   8.585  0.2762  0.0831  0.2701
  906MOL0     H22284   7.934   5.891   8.715  0.9288  0.0894 -0.7912
  906MOL0     H22285   7.865   5.899   8.542 -0.3950  0.4900 -0.9065
  906MOL0     H22286   8.067   6.087   8.673  1.0717  0.4642 -0.2938
  906MOL0     H22287   8.007   6.098   8.508 -1.0841  1.3333  0.8445
  906MOL0     H22288   8.162   5.866   8.624  1.3759  0.4448  0.2147
  906MOL0     H22289   8.091   5.856   8.458  0.7737 -0.1664 -0.4679
  906MOL0     H22290   7.222   6.065   8.995  1.7416 -2.4091  0.6059
  906MOL0     H22291   6.976   6.066   8.937  1.0141  0.0860 -1.1197
  906MOL0     H22292   6.529   6.124   9.017 -0.5160  0.6317 -1.0742
  906MOL0     H22293   6.304   6.137   8.918 -0.7381  0.2865 -0.6158
  906MOL0     H22294   7.293   4.906   8.057 -0.7056  0.6596  2.7613
  906MOL0     H22295   7.479   4.783   7.946  1.8573 -2.3664 -0.4478
  906MOL0     H22296   7.698   4.534   7.738  0.4469  1.2238  2.9874
  906MOL0     H22297   7.886   4.440   7.604  0.5795  2.9362  2.1912
  906MOL0     H22298   8.031   3.998   7.669 -1.2955 -0.2446  2.3608
  906MOL0     H22299   8.122   4.100   7.784  0.6899  3.2330 -0.2492
  906MOL0     H22300   8.288   4.035   7.627 -0.1966 -3.9726 -2.5958
  906MOL0     H22301   8.234   4.172   7.540  0.6863  0.6124  2.5097
  906MOL0     H22302   8.063   3.994   7.436  1.1447  1.1317 -0.9311
  906MOL0     H22303   8.173   3.879   7.501 -3.6554  0.2551  2.0723
  906MOL0     H22304   8.256   3.923   7.270 -1.2423 -0.7248  0.0506
  906MOL0     H22305   8.223   4.095   7.283  1.5023  0.9880  1.0318
  906MOL0     H22306   8.603   4.110   7.441 -0.3702  1.9688  2.7283
  906MOL0     H22307   7.906   4.107   7.871 -0.6260  0.1707  1.6190
  906MOL0     H22308   7.729   4.253   8.128 -1.1787 -0.2367  1.5052
  906MOL0     H22309   7.623   4.137   8.040  0.3966 -0.9936 -0.7777
  906MOL0     H22310   7.805   4.112   8.067 -1.7526 -0.4636  0.0180
  907MOL0     O22311   9.356   6.005   7.534 -0.2335  0.1743  0.1119
  907MOL0     C22312   9.274   6.084   7.487 -0.4357  1.0642 -0.3742
  907MOL0     O22313   9.305   6.190   7.409  0.4670  0.4006 -0.5280
  907MOL0     C22314   9.429   6.250   7.385  0.2876 -0.3724  0.2670
  907MOL0     C22315   9.441   6.350   7.286 -0.7083 -0.3139 -0.0546
  907MOL0     C22316   9.566   6.398   7.245 -0.8104  0.8822 -0.0336
  907MOL0     C22317   9.689   6.354   7.307  0.5954  0.0249 -0.1433
  907MOL0     O22318   9.810   6.401   7.263  0.7387 -0.0317 -0.2234
  907MOL0     C22319   9.936   6.324   7.275  0.9350 -1.2922 -0.1826
  907MOL0     C22320  10.023   6.363   7.399  0.9959 -0.0163 -0.3367
  907MOL0     C22321  10.155   6.291   7.424  0.1146  0.6332  0.1195
  907MOL0     C22322  10.253   6.359   7.323 -0.9968 -0.0067  0.7731
  907MOL0     C22323  10.396   6.334   7.364  0.3144  0.2260 -0.6609
  907MOL0     C22324  10.443   6.437   7.463  0.2106 -0.7667  0.8055
  907MOL0     C22325  10.596   6.426   7.473  0.4394 -0.9333  0.3353
  907MOL0     C22326  10.656   6.521   7.579 -0.7791 -0.5716 -0.7242
  907MOL0     N22327  10.795   6.563   7.564  0.9019 -0.2846  0.1493
  907MOL0     C22328  10.900   6.504   7.623 -0.1641 -0.1692 -0.5177
  907MOL0     C22329  11.005   6.587   7.604  0.0560  0.1517  0.4557
  907MOL0     C22330  11.143   6.570   7.662  0.4866 -0.3424  0.0530
  907MOL0     C22331  11.253   6.647   7.595 -1.0696 -0.3421  0.4317
  907MOL0     C22332  11.390   6.603   7.656 -1.7152  0.1791  0.1852
  907MOL0     C22333  11.521   6.687   7.624  0.8118  0.0270  0.1721
  907MOL0     O22334  11.566   6.663   7.490 -0.0986  0.0087  0.7907
  907MOL0     C22335  11.700   6.700   7.461 -0.4055  0.2577 -0.5974
  907MOL0     C22336  11.796   6.741   7.562  1.1535  0.0090 -0.1554
  907MOL0     C22337  11.928   6.774   7.516 -0.0704 -0.7637  0.2415
  907MOL0     C22338  11.961   6.775   7.378 -0.0627 -0.7748 -0.8205
  907MOL0     C22339  12.089   6.818   7.336  0.5590 -0.6297 -1.3338
  907MOL0     O22340  12.103   6.829   7.206  0.2584 -0.2551 -0.5548
  907MOL0     C22341  12.229   6.850   7.160  0.1437  0.5169 -0.8318
  907MOL0     C22342  12.298   6.741   7.123  0.2352 -0.3989  0.6000
  907MOL0     C22343  12.442   6.755   7.093  1.8489 -0.2929 -0.1850
  907MOL0     C22344  12.495   6.884   7.083  0.1012 -0.3376  0.3679
  907MOL0     O22345  12.626   6.908   7.055 -0.0954  0.4051  0.0262
  907MOL0     C22346  12.653   6.930   6.918 -1.2742  0.0819  0.0187
  907MOL0     C22347  12.806   6.897   6.904  0.9483 -0.2695  0.1586
  907MOL0     C22348  12.901   7.011   6.954  0.1443  0.3288  0.3739
  907MOL0     C22349  13.047   6.976   6.928  0.0917 -0.7295  0.1973
  907MOL0     C22350  13.151   7.069   6.990 -0.2945  0.1846  0.7322
  907MOL0     C22351  13.288   7.005   6.960  0.1862  0.0706 -0.9265
  907MOL0     C22352  13.413   7.115   6.980  0.6344  0.2296  1.0942
  907MOL0     C22353  13.405   7.166   7.116  0.7064 -0.5696 -0.1911
  907MOL0    Cl22354  13.447   7.027   7.230 -0.0586  0.4568 -0.4875
  907MOL0     C22355  12.417   6.993   7.105  0.1946 -0.1062  0.2318
  907MOL0     C22356  12.282   6.975   7.150 -0.9209  0.1418  0.2385
  907MOL0     O22357  12.176   6.841   7.423 -0.0701  0.9588  0.1495
  907MOL0     C22358  11.862   6.727   7.288 -0.3029 -0.5422  0.5527
  907MOL0     C22359  11.736   6.689   7.329 -0.5626  0.5385  0.8846
  907MOL0     N22360  10.964   6.695   7.527  0.2794  0.4651 -0.9491
  907MOL0     N22361  10.835   6.682   7.510 -0.3415 -0.4575 -0.4255
  907MOL0     C22362   9.675   6.259   7.409  1.1405  0.4002  0.0212
  907MOL0     C22363   9.549   6.205   7.452 -0.2964 -0.9915  0.0770
  907MOL0     C22364   9.134   6.073   7.522 -0.1807  0.1752  0.0030
  907MOL0     C22365   9.044   6.089   7.408 -0.6540 -0.8489  0.0155
  907MOL0     C22366   8.908   6.067   7.418 -0.2715 -0.2653 -0.5656
  907MOL0     C22367   8.852   6.039   7.548  0.1325 -0.0668  0.0298
  907MOL0     O22368   8.717   6.024   7.574 -0.2715  0.5015  0.1346
  907MOL0     C22369   8.616   6.047   7.480 -0.7906  0.7880  1.5849
  907MOL0     C22370   8.584   5.931   7.386 -0.2061  0.0772  1.1152
  907MOL0     C22371   8.558   5.805   7.461 -0.0619  0.3548  0.4887
  907MOL0     C22372   8.486   5.688   7.385  0.2401  0.2256 -0.3775
  907MOL0     C22373   8.452   5.571   7.473 -0.3239 -0.0973  0.1690
  907MOL0     C22374   8.406   5.486   7.553  0.9929  0.0404  0.7734
  907MOL0     C22375   8.940   6.013   7.652  0.5094 -0.5216  0.1073
  907MOL0     C22376   9.076   6.030   7.647 -0.3650 -0.0858  0.8106
  907MOL0     C22377   9.156   6.011   7.770 -0.3378  0.4047  0.0023
  907MOL0     H22378   9.351   6.390   7.239 -1.2146  0.0638  1.1915
  907MOL0     H22379   9.583   6.479   7.175  2.0356 -0.1438 -0.6633
  907MOL0     H22380   9.906   6.220   7.290 -0.3574 -1.1838 -1.7834
  907MOL0     H22381   9.995   6.325   7.183 -2.0028 -4.9673 -2.3970
  907MOL0     H22382   9.961   6.356   7.489 -0.1661 -0.3368 -1.1287
  907MOL0     H22383  10.051   6.468   7.398 -1.4136  0.6920 -0.5862
  907MOL0     H22384  10.155   6.184   7.403 -0.7542  0.5422  0.5566
  907MOL0     H22385  10.192   6.321   7.523  1.0088  1.4152 -0.4326
  907MOL0     H22386  10.237   6.311   7.226  0.6805  1.0261 -0.0695
  907MOL0     H22387  10.239   6.467   7.312 -0.4565 -0.1086 -1.4801
  907MOL0     H22388  10.409   6.238   7.414 -1.0088 -1.3212 -3.1330
  907MOL0     H22389  10.466   6.336   7.280 -0.4106 -0.2957 -1.2886
  907MOL0     H22390  10.414   6.539   7.438 -2.1725 -1.0377  2.1496
  907MOL0     H22391  10.404   6.412   7.562  3.5231 -2.1704  1.9240
  907MOL0     H22392  10.633   6.463   7.378  0.4453  1.1709  1.1055
  907MOL0     H22393  10.633   6.324   7.485  0.0983 -1.0925  0.0697
  907MOL0     H22394  10.595   6.611   7.570 -0.2989 -0.1077  0.4212
  907MOL0     H22395  10.634   6.481   7.679  1.3984  1.8712  0.8707
  907MOL0     H22396  10.901   6.411   7.678  0.7109  1.2958  2.1223
  907MOL0     H22397  11.140   6.601   7.767  2.6502 -1.8697  0.6160
  907MOL0     H22398  11.165   6.463   7.659  0.4340 -0.3302 -1.0301
  907MOL0     H22399  11.259   6.640   7.486 -0.8715  1.4153  0.3019
  907MOL0     H22400  11.238   6.751   7.625 -0.6921  0.7493 -2.7779
  907MOL0     H22401  11.411   6.498   7.635  0.6668  0.3123  1.6186
  907MOL0     H22402  11.381   6.605   7.765  0.7792  1.4715  0.4482
  907MOL0     H22403  11.591   6.662   7.704  0.5749 -2.2120 -0.2544
  907MOL0     H22404  11.490   6.791   7.638 -1.6276 -0.5516 -0.4932
  907MOL0     H22405  11.779   6.737   7.669 -2.0666 -1.0981 -0.6095
  907MOL0     H22406  12.008   6.801   7.584  0.7237 -1.4194 -0.4191
  907MOL0     H22407  12.253   6.642   7.130  0.1125 -0.3124  1.0204
  907MOL0     H22408  12.502   6.666   7.073  1.4608 -0.7819  0.7930
  907MOL0     H22409  12.610   6.861   6.844  1.5572  0.1449 -1.8426
  907MOL0     H22410  12.645   7.037   6.897  0.8771  0.1987 -0.4710
  907MOL0     H22411  12.833   6.803   6.952 -0.5054 -0.2091  1.1822
  907MOL0     H22412  12.820   6.892   6.795  0.0496 -0.0624  0.0195
  907MOL0     H22413  12.874   7.103   6.901 -0.5832 -0.5281 -0.7882
  907MOL0     H22414  12.882   7.024   7.061 -0.7826  1.4133  0.1034
  907MOL0     H22415  13.053   6.978   6.819  0.1385 -0.1686  0.2045
  907MOL0     H22416  13.071   6.872   6.952  2.6544 -0.5733 -1.2233
  907MOL0     H22417  13.129   7.081   7.097 -0.8557  0.2971  0.6088
  907MOL0     H22418  13.140   7.170   6.949 -0.3444 -0.5484 -1.1175
  907MOL0     H22419  13.310   6.919   7.024 -1.7736  0.5456  0.4841
  907MOL0     H22420  13.310   6.967   6.860  0.6696 -1.9998 -0.0822
  907MOL0     H22421  13.408   7.186   6.897 -1.2309  2.5965  3.0955
  907MOL0     H22422  13.512   7.070   6.974 -0.1365 -1.3652 -2.6515
  907MOL0     H22423  13.465   7.256   7.128 -0.3344  0.0165  0.9143
  907MOL0     H22424  13.301   7.195   7.136  0.9733  1.5298 -1.6297
  907MOL0     H22425  12.448   7.096   7.089  0.3520 -0.1955 -0.0628
  907MOL0     H22426  12.231   7.063   7.190  0.7744  1.6146 -0.7042
  907MOL0     H22427  11.894   6.717   7.184  1.3625 -1.6631  1.1302
  907MOL0     H22428  11.655   6.668   7.259 -0.3751 -1.6533  1.2632
  907MOL0     H22429   9.765   6.228   7.461  1.2152 -0.8972 -0.8363
  907MOL0     H22430   9.537   6.138   7.536  1.5564 -1.2825  0.1418
  907MOL0     H22431   9.082   6.119   7.311  1.1770 -3.6749 -0.2731
  907MOL0     H22432   8.841   6.090   7.335  0.6227  3.5241 -0.3800
  907MOL0     H22433   8.653   6.130   7.418  3.1175  0.2065  2.8822
  907MOL0     H22434   8.520   6.073   7.526 -0.4520  0.2863  2.6028
  907MOL0     H22435   8.668   5.914   7.319  0.1088  1.6280  1.0902
  907MOL0     H22436   8.501   5.943   7.316  0.6205  0.8646  0.2574
  907MOL0     H22437   8.486   5.834   7.538 -0.1262 -0.1122  0.6061
  907MOL0     H22438   8.648   5.756   7.500  0.7561  1.6430  0.3059
  907MOL0     H22439   8.396   5.721   7.333 -0.0765 -0.8052 -0.4960
  907MOL0     H22440   8.553   5.646   7.309 -1.1265  0.1068 -1.5589
  907MOL0     H22441   8.360   5.421   7.625 -1.6512 -1.6279 -2.2148
  907MOL0     H22442   8.880   5.978   7.735  1.8819 -1.0240  0.9124
  907MOL0     H22443   9.101   5.950   7.843  1.2471 -1.7550 -0.5138
  907MOL0     H22444   9.244   5.949   7.755  1.0880  2.5353 -0.9514
  907MOL0     H22445   9.191   6.105   7.814 -2.5847  0.3734  2.0744
  908MOL0     O22446   8.816   7.849   5.194  0.3593  0.5319 -0.6858
  908MOL0     C22447   8.698   7.848   5.154  0.2282  0.6764  0.7640
  908MOL0     O22448   8.644   7.751   5.074 -0.0053 -0.3719  0.6291
  908MOL0     C22449   8.735   7.655   5.038  0.7170  0.0713  0.6500
  908MOL0     C22450   8.702   7.523   5.074 -0.5755 -0.1116  0.9272
  908MOL0     C22451   8.782   7.413   5.020 -0.2085 -0.6492 -0.0469
  908MOL0     C22452   8.889   7.446   4.930 -0.2766  0.8045 -0.7755
  908MOL0     O22453   8.962   7.341   4.878 -0.0339 -0.6262  0.3903
  908MOL0     C22454   9.110   7.346   4.883  0.0658 -0.0274  0.8644
  908MOL0     C22455   9.163   7.309   5.022 -0.5036 -0.2412 -0.5579
  908MOL0     C22456   9.221   7.168   5.045  0.4084 -0.2840  0.7516
  908MOL0     C22457   9.275   7.167   5.192 -0.2183 -0.2098  0.6758
  908MOL0     C22458   9.342   7.033   5.215 -0.2880 -0.3660 -0.4788
  908MOL0     C22459   9.365   7.015   5.367 -0.6922 -0.7800  0.2034
  908MOL0     C22460   9.427   6.885   5.406 -0.0889 -0.7609  0.1425
  908MOL0     C22461   9.579   6.893   5.387  1.1725 -0.2315 -0.9111
  908MOL0     N22462   9.641   6.766   5.423 -0.3041  0.1114  0.0573
  908MOL0     C22463   9.634   6.659   5.342 -0.0894 -0.4203 -0.3967
  908MOL0     C22464   9.743   6.588   5.380 -0.6108 -0.3572 -0.0999
  908MOL0     C22465   9.787   6.458   5.309  0.4577 -0.2385  0.5971
  908MOL0     C22466   9.932   6.430   5.336  0.0888  0.0352  0.0283
  908MOL0     C22467  10.003   6.321   5.246  0.3765 -1.0825 -0.4089
  908MOL0     C22468  10.152   6.320   5.265  0.8548 -0.0273  0.0766
  908MOL0     O22469  10.178   6.300   5.403  0.2979  0.1277  0.0323
  908MOL0     C22470  10.301   6.362   5.442  0.9074 -0.2272  0.5928
  908MOL0     C22471  10.412   6.357   5.358  0.1986 -0.5803 -0.3942
  908MOL0     C22472  10.536   6.408   5.408 -0.2748  0.2968  0.3164
  908MOL0     C22473  10.543   6.461   5.539 -0.6680 -0.6025  0.1828
  908MOL0     C22474  10.674   6.506   5.594 -0.5992  0.3413  0.7617
  908MOL0     O22475  10.679   6.515   5.729 -0.4791  0.0476 -0.1521
  908MOL0     C22476  10.795   6.553   5.801  0.4715 -0.6879 -0.5710
  908MOL0     C22477  10.783   6.627   5.923  0.0549  0.1520  0.3764
  908MOL0     C22478  10.886   6.664   6.009  0.4127  0.1989  0.3713
  908MOL0     C22479  11.014   6.620   5.975 -0.4088  0.2022  1.0326
  908MOL0     O22480  11.124   6.643   6.043 -0.3538 -0.0697  0.2210
  908MOL0     C22481  11.147   6.784   6.065  0.3599  0.4517  0.6312
  908MOL0     C22482  11.305   6.793   6.066  0.1232  0.3692  0.0989
  908MOL0     C22483  11.353   6.934   6.077 -0.1115 -0.7604  0.3187
  908MOL0     C22484  11.280   7.026   5.981  0.5716 -0.8606 -0.4925
  908MOL0     C22485  11.367   7.138   5.931 -0.2814  0.1041  0.5353
  908MOL0     C22486  11.287   7.225   5.826  0.5159 -0.7994 -1.3327
  908MOL0     C22487  11.228   7.155   5.708  0.0227 -0.1111  0.4278
  908MOL0     C22488  11.330   7.071   5.626  0.5451 -0.3807 -0.7085
  908MOL0    Cl22489  11.458   7.182   5.560  0.1298  0.1599 -0.4043
  908MOL0     C22490  11.034   6.548   5.860  0.1918  0.2591 -0.1323
  908MOL0     C22491  10.928   6.513   5.770 -0.3570 -0.0609  0.1288
  908MOL0     O22492  10.766   6.534   5.509 -0.0909 -0.0851 -0.3143
  908MOL0     C22493  10.426   6.474   5.619  0.7946 -0.4703  0.1749
  908MOL0     C22494  10.307   6.428   5.568 -0.4716 -0.7425  0.5957
  908MOL0     N22495   9.796   6.643   5.500  0.7908  0.6939 -0.0316
  908MOL0     N22496   9.731   6.746   5.528 -0.4414  0.8836  0.5622
  908MOL0     C22497   8.913   7.580   4.886  0.0538 -0.3254  0.2592
  908MOL0     C22498   8.826   7.681   4.932  0.0191 -0.1445 -0.1589
  908MOL0     C22499   8.611   7.963   5.186 -0.4041  0.3513 -0.4590
  908MOL0     C22500   8.500   7.976   5.103  0.4615  0.1302  0.2538
  908MOL0     C22501   8.407   8.081   5.119  0.5066 -0.4630  0.3397
  908MOL0     C22502   8.426   8.171   5.216  0.0617  0.5128 -0.2968
  908MOL0     O22503   8.332   8.267   5.220  0.5445 -0.1909  0.0709
  908MOL0     C22504   8.330   8.375   5.322  0.7146 -0.1186  0.3309
  908MOL0     C22505   8.183   8.408   5.359  0.2280  0.4131  1.1365
  908MOL0     C22506   8.080   8.432   5.236  0.0420 -0.1015 -0.2883
  908MOL0     C22507   7.996   8.309   5.184  0.0782 -0.1734 -0.0501
  908MOL0     C22508   7.848   8.332   5.174  0.1954  0.2091  0.9601
  908MOL0     C22509   7.725   8.344   5.166 -0.0984 -0.5017  0.2044
  908MOL0     C22510   8.534   8.159   5.298  0.0506 -0.0416  0.0606
  908MOL0     C22511   8.633   8.056   5.293 -0.1598  0.3889  0.2232
  908MOL0     C22512   8.744   8.055   5.390 -0.4848 -0.1114 -0.3430
  908MOL0     H22513   8.613   7.502   5.132 -0.2972  0.7866  1.7113
  908MOL0     H22514   8.760   7.312   5.053 -0.0750 -0.4173  0.8003
  908MOL0     H22515   9.143   7.272   4.810 -2.0989  0.6877 -0.9712
  908MOL0     H22516   9.153   7.444   4.861 -0.1098 -0.1853 -0.2005
  908MOL0     H22517   9.092   7.333   5.102  1.3850  1.3647  0.7483
  908MOL0     H22518   9.247   7.378   5.037 -0.6340 -0.0504 -0.6935
  908MOL0     H22519   9.306   7.148   4.980  0.2018 -0.4799  0.5365
  908MOL0     H22520   9.149   7.088   5.022  2.7801 -2.7963  1.5042
  908MOL0     H22521   9.344   7.250   5.211  0.4802 -0.0823 -2.0020
  908MOL0     H22522   9.182   7.177   5.249 -1.2666  0.0304 -0.9872
  908MOL0     H22523   9.277   6.958   5.169  0.8531 -0.5338 -1.8880
  908MOL0     H22524   9.438   7.039   5.164 -0.3118  2.0122 -0.3155
  908MOL0     H22525   9.424   7.100   5.403 -0.1200 -0.7916 -0.6690
  908MOL0     H22526   9.274   7.029   5.425 -0.1566  1.5083  0.6123
  908MOL0     H22527   9.380   6.802   5.353 -0.6316 -1.5247  1.7346
  908MOL0     H22528   9.411   6.865   5.513  1.6773 -2.0655  0.2044
  908MOL0     H22529   9.599   6.908   5.280 -2.2462 -2.6687 -2.0657
  908MOL0     H22530   9.620   6.966   5.458  1.2593 -2.5343  1.5717
  908MOL0     H22531   9.566   6.634   5.262 -0.6555  0.7991 -0.3187
  908MOL0     H22532   9.721   6.376   5.339 -1.7047  0.6874 -1.3300
  908MOL0     H22533   9.770   6.467   5.202 -0.1928 -1.2985  0.5935
  908MOL0     H22534   9.986   6.521   5.310  0.2144 -0.3160 -1.0071
  908MOL0     H22535   9.928   6.395   5.439 -3.8646  0.1328  0.0625
  908MOL0     H22536   9.981   6.340   5.141 -0.4412  1.5076  0.1532
  908MOL0     H22537   9.954   6.228   5.276 -0.1756 -0.2078  1.6146
  908MOL0     H22538  10.183   6.419   5.232  1.5515  0.1686  1.2529
  908MOL0     H22539  10.186   6.241   5.197 -0.5451 -0.5554 -0.0554
  908MOL0     H22540  10.405   6.323   5.256  2.6223  2.3434 -1.6847
  908MOL0     H22541  10.621   6.422   5.343 -0.8883  2.8994 -0.0353
  908MOL0     H22542  10.686   6.665   5.953 -1.6327 -4.2791  1.2473
  908MOL0     H22543  10.864   6.697   6.111 -1.1891 -1.2866  0.5509
  908MOL0     H22544  11.105   6.838   5.980 -0.3464  0.9053  1.2615
  908MOL0     H22545  11.106   6.823   6.158 -1.5096  1.4113 -0.5491
  908MOL0     H22546  11.345   6.729   6.146 -2.0267 -1.7206 -0.4130
  908MOL0     H22547  11.343   6.755   5.971 -1.2212  0.1096 -0.3491
  908MOL0     H22548  11.335   6.969   6.179  0.3506 -1.1544  0.5359
  908MOL0     H22549  11.462   6.938   6.068 -0.2786  2.9415 -3.8739
  908MOL0     H22550  11.196   7.068   6.037  1.7592 -0.9251  1.4572
  908MOL0     H22551  11.247   6.969   5.894 -0.0146 -0.1799 -0.7308
  908MOL0     H22552  11.453   7.088   5.887 -0.9477  1.2185 -2.2287
  908MOL0     H22553  11.425   7.199   6.002 -0.9151 -0.5358  1.6394
  908MOL0     H22554  11.203   7.269   5.881  0.2842 -1.4538 -1.1531
  908MOL0     H22555  11.350   7.310   5.797  3.3037 -1.5018  2.0711
  908MOL0     H22556  11.183   7.231   5.643  2.1050 -0.9808 -2.2093
  908MOL0     H22557  11.146   7.096   5.749  0.8057 -0.6595  1.2495
  908MOL0     H22558  11.379   7.001   5.695  0.8693  1.3015  0.8616
  908MOL0     H22559  11.283   7.012   5.547  1.0893 -2.8729  0.7023
  908MOL0     H22560  11.135   6.509   5.849 -0.3352 -0.9414 -0.9697
  908MOL0     H22561  10.965   6.458   5.684 -1.2511 -1.3356  0.5275
  908MOL0     H22562  10.431   6.511   5.721  0.7647 -0.9165  0.3412
  908MOL0     H22563  10.213   6.432   5.623 -1.4917 -2.6647 -0.8722
  908MOL0     H22564   9.009   7.611   4.845  0.2158 -0.2017  0.7206
  908MOL0     H22565   8.844   7.782   4.894  3.8776 -1.2109 -1.6264
  908MOL0     H22566   8.473   7.910   5.021 -0.9024  0.4402  0.4350
  908MOL0     H22567   8.319   8.091   5.057  1.0635  0.0242 -0.3823
  908MOL0     H22568   8.373   8.465   5.276 -3.0957  0.1494 -3.2718
  908MOL0     H22569   8.377   8.343   5.415 -0.1451 -1.7981  0.2192
  908MOL0     H22570   8.180   8.498   5.422  1.3678  0.6694  0.8555
  908MOL0     H22571   8.127   8.332   5.414 -1.7530  2.2247  1.7439
  908MOL0     H22572   8.129   8.476   5.150  1.1800 -0.3192  0.2290
  908MOL0     H22573   8.004   8.499   5.278  0.6594  1.0233 -0.9313
  908MOL0     H22574   8.033   8.266   5.091  1.0490 -0.2302  0.3518
  908MOL0     H22575   7.993   8.225   5.253 -3.1683  0.9292  1.3674
  908MOL0     H22576   7.620   8.362   5.153 -0.5290 -2.2944  0.8754
  908MOL0     H22577   8.553   8.224   5.384  0.7605 -1.5630  1.1018
  908MOL0     H22578   8.735   8.136   5.463  1.2319 -1.0052  0.9356
  908MOL0     H22579   8.744   7.958   5.442 -1.9976 -1.8411 -3.2858
  908MOL0     H22580   8.839   8.066   5.338  1.0527 -2.2930  1.7556
  909MOL0     O22581   6.337   7.157   3.411  0.0199 -0.3250 -0.8775
  909MOL0     C22582   6.281   7.060   3.375  0.4933 -0.2239  0.5589
  909MOL0     O22583   6.339   6.941   3.340  0.3588 -0.3209 -0.0879
  909MOL0     C22584   6.476   6.944   3.350  0.5669 -0.3956 -0.0203
  909MOL0     C22585   6.547   7.004   3.252 -0.8439 -0.5433  0.2989
  909MOL0     C22586   6.687   7.014   3.254  0.0104  0.0457 -0.1802
  909MOL0     C22587   6.753   6.962   3.364 -0.0361 -0.4413  1.1003
  909MOL0     O22588   6.895   6.977   3.366  0.1164 -0.0772 -0.0696
  909MOL0     C22589   6.957   6.874   3.444  1.1306 -0.1639 -0.5241
  909MOL0     C22590   7.107   6.891   3.421 -0.0653  0.5247 -0.9566
  909MOL0     C22591   7.167   6.815   3.301  0.1421  0.9334 -0.1652
  909MOL0     C22592   7.319   6.822   3.312  0.0298 -0.3189  0.2499
  909MOL0     C22593   7.379   6.741   3.202 -1.6712  0.4380  0.5444
  909MOL0     C22594   7.532   6.748   3.199 -0.4497  0.1088 -0.6178
  909MOL0     C22595   7.596   6.735   3.058 -0.0350 -0.6657  1.4017
  909MOL0     C22596   7.750   6.734   3.080  0.0235  0.9233 -0.7225
  909MOL0     N22597   7.836   6.709   2.962 -0.0689 -0.0439  0.7347
  909MOL0     C22598   7.969   6.741   2.949  0.0875  0.0631  0.8405
  909MOL0     C22599   8.028   6.640   2.875  0.0334  0.0007 -0.9497
  909MOL0     C22600   8.172   6.630   2.840 -0.1936 -0.1050  0.0536
  909MOL0     C22601   8.259   6.621   2.966 -0.3167  0.4083  0.1945
  909MOL0     C22602   8.401   6.550   2.959 -1.0347  0.5249 -0.1665
  909MOL0     C22603   8.508   6.631   2.892 -0.1776  0.3032  0.9752
  909MOL0     O22604   8.510   6.759   2.950 -0.5603 -0.2726 -0.7322
  909MOL0     C22605   8.606   6.849   2.909 -0.5005  0.6444  0.1123
  909MOL0     C22606   8.697   6.833   2.806 -0.4184 -0.2684  0.2406
  909MOL0     C22607   8.784   6.933   2.767  0.2987  0.1825  0.6586
  909MOL0     C22608   8.790   7.052   2.833 -0.3381 -0.7356  0.0959
  909MOL0     C22609   8.889   7.156   2.789 -0.0198  0.1857 -0.5672
  909MOL0     O22610   8.945   7.226   2.892  0.2104  0.2924 -0.2121
  909MOL0     C22611   9.058   7.306   2.861 -0.1218 -0.7299 -0.4111
  909MOL0     C22612   9.067   7.428   2.927  1.1771  0.0217  0.0080
  909MOL0     C22613   9.179   7.503   2.913  0.4815 -0.4288 -0.6351
  909MOL0     C22614   9.283   7.459   2.833  0.1621 -0.5529  0.3712
  909MOL0     O22615   9.394   7.545   2.840  0.3723  0.4877 -0.1759
  909MOL0     C22616   9.455   7.557   2.713 -0.8653 -0.0011  1.2082
  909MOL0     C22617   9.532   7.693   2.682 -0.0984  0.5250  0.1138
  909MOL0     C22618   9.460   7.821   2.715 -0.2880  0.2780  0.0948
  909MOL0     C22619   9.545   7.941   2.684  0.4297 -0.4535 -0.5975
  909MOL0     C22620   9.502   8.058   2.768  0.7008  0.4609  0.6263
  909MOL0     C22621   9.563   8.196   2.717 -1.3806  0.4528 -0.3230
  909MOL0     C22622   9.698   8.237   2.782 -0.5730  0.2491 -0.5636
  909MOL0     C22623   9.793   8.319   2.703 -0.2679 -0.4968  0.1346
  909MOL0    Cl22624   9.886   8.203   2.594 -0.0160  0.1128  0.0723
  909MOL0     C22625   9.277   7.349   2.758  0.7353  1.1245 -0.0506
  909MOL0     C22626   9.159   7.268   2.768  0.1940 -0.7084  0.2307
  909MOL0     O22627   8.920   7.158   2.667 -1.0999  0.2925 -0.9096
  909MOL0     C22628   8.695   7.073   2.939 -0.7413 -0.7121  0.1764
  909MOL0     C22629   8.615   6.966   2.982 -0.5311  0.2234  0.7849
  909MOL0     N22630   7.930   6.548   2.839 -0.0498 -0.6075  0.6420
  909MOL0     N22631   7.824   6.589   2.900  0.0395 -0.0300 -0.0454
  909MOL0     C22632   6.680   6.898   3.468  0.0564  1.0021  0.6921
  909MOL0     C22633   6.545   6.886   3.453  0.4872 -0.3824 -0.5684
  909MOL0     C22634   6.139   7.048   3.395 -0.8276 -0.3562  0.5375
  909MOL0     C22635   6.081   6.935   3.454  0.4914  0.5722 -0.4352
  909MOL0     C22636   5.939   6.914   3.463 -0.6504  0.2338  0.2157
  909MOL0     C22637   5.850   7.003   3.404  0.0949 -0.0837  0.5294
  909MOL0     O22638   5.717   6.975   3.421 -0.0106 -0.1579  0.0933
  909MOL0     C22639   5.625   7.063   3.365  0.4232 -0.8407 -0.0269
  909MOL0     C22640   5.488   7.004   3.378 -0.5509 -0.0618 -0.5220
  909MOL0     C22641   5.380   7.099   3.344  0.2111  0.2567  0.0129
  909MOL0     C22642   5.239   7.055   3.391  0.1218 -0.1131  0.5661
  909MOL0     C22643   5.215   6.923   3.330 -0.5210  0.5488  0.5008
  909MOL0     C22644   5.191   6.823   3.261 -0.2048 -0.1582 -0.5668
  909MOL0     C22645   5.913   7.122   3.342  0.5651  0.6974 -0.6857
  909MOL0     C22646   6.050   7.147   3.344 -0.3772 -0.1886  0.5486
  909MOL0     C22647   6.101   7.271   3.269 -1.0019  0.4097 -0.4782
  909MOL0     H22648   6.507   7.054   3.165  0.3212  2.4703  1.3849
  909MOL0     H22649   6.743   7.077   3.186  2.5548 -2.7831 -0.9607
  909MOL0     H22650   6.930   6.897   3.547 -2.3634  2.6660 -1.8466
  909MOL0     H22651   6.919   6.776   3.414 -0.1098 -0.3752  1.5391
  909MOL0     H22652   7.149   6.840   3.509 -1.4667  0.5647 -0.2434
  909MOL0     H22653   7.130   6.998   3.426  0.3036  0.4329 -0.6072
  909MOL0     H22654   7.132   6.854   3.205 -1.0553 -1.8952 -0.9785
  909MOL0     H22655   7.141   6.709   3.302  2.5353  0.2661 -1.9161
  909MOL0     H22656   7.360   6.923   3.301  0.1090 -0.1882  1.5552
  909MOL0     H22657   7.356   6.781   3.406 -2.0894 -0.7885  0.9418
  909MOL0     H22658   7.356   6.636   3.219  0.9373 -0.4667 -0.9252
  909MOL0     H22659   7.339   6.772   3.105 -0.2763  1.1489  0.1774
  909MOL0     H22660   7.556   6.850   3.231  1.5970 -1.3496  3.2269
  909MOL0     H22661   7.574   6.672   3.265 -0.0596  0.3813 -0.5496
  909MOL0     H22662   7.574   6.825   2.999  0.1069 -0.9158  0.9676
  909MOL0     H22663   7.567   6.646   3.002 -2.1837  0.0604  1.2440
  909MOL0     H22664   7.783   6.829   3.122  0.7561 -0.0339  0.9566
  909MOL0     H22665   7.763   6.655   3.155 -1.4002 -0.4944 -1.8968
  909MOL0     H22666   8.015   6.834   2.981  1.2556 -0.1138 -0.2564
  909MOL0     H22667   8.175   6.535   2.785 -2.0237 -0.3526  0.3154
  909MOL0     H22668   8.202   6.713   2.777 -0.3206 -1.1369 -1.4233
  909MOL0     H22669   8.262   6.720   3.012 -0.4424 -0.4033  2.0199
  909MOL0     H22670   8.208   6.546   3.027  0.7542 -0.0996  0.4695
  909MOL0     H22671   8.405   6.444   2.931  2.2749  0.4802  0.0633
  909MOL0     H22672   8.436   6.558   3.062  0.5976 -0.5703 -0.6051
  909MOL0     H22673   8.484   6.644   2.786  1.5485  2.5518  0.7906
  909MOL0     H22674   8.607   6.586   2.901  0.5859  1.8181  0.4153
  909MOL0     H22675   8.684   6.742   2.747 -2.2753  0.0671  0.0863
  909MOL0     H22676   8.861   6.906   2.696  1.4967  1.2263  1.5205
  909MOL0     H22677   8.988   7.460   2.993  0.9564  1.2024 -0.7988
  909MOL0     H22678   9.191   7.590   2.977  0.7612 -1.6128  0.9705
  909MOL0     H22679   9.527   7.476   2.696 -0.4506  0.2383  1.8011
  909MOL0     H22680   9.385   7.556   2.629  0.4286 -2.3980  0.0210
  909MOL0     H22681   9.618   7.693   2.750 -1.8094  0.1178  2.3905
  909MOL0     H22682   9.572   7.690   2.580  2.2396 -2.1339  0.9638
  909MOL0     H22683   9.374   7.823   2.647  1.1934  2.4115 -1.8879
  909MOL0     H22684   9.427   7.829   2.819  1.1361  2.5031  0.4397
  909MOL0     H22685   9.535   7.973   2.580  0.9994  2.8758  0.2245
  909MOL0     H22686   9.646   7.923   2.722 -0.5224 -1.6548  1.5148
  909MOL0     H22687   9.517   8.036   2.874 -4.2879  0.7172  1.6322
  909MOL0     H22688   9.394   8.066   2.749 -0.0346 -4.9733  0.6786
  909MOL0     H22689   9.571   8.207   2.608  1.1658  1.7162 -0.0974
  909MOL0     H22690   9.494   8.275   2.747 -0.2843  0.7561  1.5464
  909MOL0     H22691   9.752   8.148   2.814 -0.5507  0.4885  0.0719
  909MOL0     H22692   9.673   8.276   2.881 -0.0798 -3.4607  1.1827
  909MOL0     H22693   9.719   8.382   2.652 -2.2550 -3.2573 -0.6353
  909MOL0     H22694   9.858   8.380   2.767 -0.8060  0.7200 -0.4533
  909MOL0     H22695   9.363   7.319   2.698  0.2047  1.7766 -1.1890
  909MOL0     H22696   9.145   7.177   2.710  1.6498 -1.5309  1.1187
  909MOL0     H22697   8.705   7.169   2.989 -0.4086 -0.1028 -0.9992
  909MOL0     H22698   8.562   6.976   3.076  0.3343  0.4374  1.2653
  909MOL0     H22699   6.724   6.842   3.550 -2.0006  0.0567  1.1930
  909MOL0     H22700   6.500   6.838   3.539  2.6690  1.3715  1.6991
  909MOL0     H22701   6.143   6.856   3.494  1.0668  0.8551 -0.7527
  909MOL0     H22702   5.904   6.829   3.521  1.9320 -2.1449 -1.4696
  909MOL0     H22703   5.644   7.073   3.258  0.0022  2.9011  0.1104
  909MOL0     H22704   5.623   7.164   3.406 -2.7228 -1.6877  2.3247
  909MOL0     H22705   5.478   6.984   3.486 -1.2250  2.6952  0.0127
  909MOL0     H22706   5.490   6.909   3.324  1.9508  0.5813 -1.6843
  909MOL0     H22707   5.382   7.113   3.235 -0.2978  1.0488  0.0894
  909MOL0     H22708   5.406   7.201   3.375  1.6415  0.5960 -2.0648
  909MOL0     H22709   5.247   7.043   3.500  0.1648 -2.6303  0.3385
  909MOL0     H22710   5.169   7.135   3.364 -1.5571 -0.0206  4.4991
  909MOL0     H22711   5.167   6.744   3.192  0.6023 -0.0151 -1.0191
  909MOL0     H22712   5.849   7.194   3.292 -0.5416  0.6791  0.6509
  909MOL0     H22713   6.183   7.247   3.201  0.0324 -0.0695  0.9011
  909MOL0     H22714   6.017   7.309   3.209 -1.2108 -2.1331 -1.9705
  909MOL0     H22715   6.136   7.341   3.345  0.5399 -1.1198  0.2801
  910MOL0     O22716   6.645   6.750   5.158 -0.1449  0.4469 -0.2012
  910MOL0     C22717   6.579   6.648   5.174 -1.2100  1.1724  0.1550
  910MOL0     O22718   6.614   6.520   5.136 -0.7643  0.4424 -0.1883
  910MOL0     C22719   6.744   6.503   5.100 -0.4464  0.1034 -0.1445
  910MOL0     C22720   6.843   6.514   5.198 -1.4317 -0.5074  0.6221
  910MOL0     C22721   6.982   6.520   5.168 -0.3824  0.2762  0.1314
  910MOL0     C22722   7.020   6.495   5.036 -0.4848 -0.8093 -0.0253
  910MOL0     O22723   7.161   6.499   5.011  0.2865  0.2453  0.0787
  910MOL0     C22724   7.219   6.407   4.914  0.2673 -0.5603 -0.4035
  910MOL0     C22725   7.378   6.403   4.939  0.5015  0.6046  0.3492
  910MOL0     C22726   7.408   6.354   5.081  0.0090  0.3504  0.4083
  910MOL0     C22727   7.551   6.381   5.113 -0.7634  0.1193  0.4463
  910MOL0     C22728   7.590   6.330   5.253  1.2045  0.7524 -0.3789
  910MOL0     C22729   7.731   6.341   5.274 -1.2895  0.0308 -0.1468
  910MOL0     C22730   7.766   6.325   5.424  0.0212  0.9353  0.5291
  910MOL0     C22731   7.771   6.176   5.459  0.3197 -0.8653  1.0687
  910MOL0     N22732   7.881   6.107   5.385  0.0560 -0.2917  0.0987
  910MOL0     C22733   8.014   6.147   5.383 -0.7175 -0.2266 -0.3549
  910MOL0     C22734   8.072   6.055   5.301 -0.2864 -0.7382 -0.5813
  910MOL0     C22735   8.213   6.070   5.254 -0.2127  0.0365  0.0806
  910MOL0     C22736   8.301   5.947   5.286  0.5338 -0.1896  0.1467
  910MOL0     C22737   8.451   5.962   5.242  0.3208 -0.5706  0.9656
  910MOL0     C22738   8.523   5.829   5.252  0.1770  0.4505  0.0800
  910MOL0     O22739   8.636   5.825   5.171 -0.5232 -0.5521 -0.4628
  910MOL0     C22740   8.752   5.873   5.227  0.2108 -0.3474  0.7131
  910MOL0     C22741   8.866   5.840   5.156 -0.7284  0.0171  0.0600
  910MOL0     C22742   8.992   5.882   5.188  0.0995  0.5871 -0.7716
  910MOL0     C22743   9.007   5.966   5.299 -0.1447 -0.4163  0.3047
  910MOL0     C22744   9.140   6.014   5.335 -0.6280 -0.0300 -0.4449
  910MOL0     O22745   9.248   5.956   5.275 -0.3342 -0.7283 -0.2925
  910MOL0     C22746   9.370   5.981   5.316 -0.3998 -0.1654 -0.1578
  910MOL0     C22747   9.453   6.077   5.255  0.3123 -1.2015  0.1895
  910MOL0     C22748   9.585   6.091   5.304  0.3480 -0.7363 -0.5116
  910MOL0     C22749   9.636   6.013   5.415  0.1740 -0.5517  0.1744
  910MOL0     O22750   9.760   6.027   5.460 -0.0755 -0.1184 -0.2333
  910MOL0     C22751   9.769   6.123   5.563 -0.2674 -0.4378  0.1565
  910MOL0     C22752   9.870   6.068   5.660 -0.5549 -0.3628 -0.3431
  910MOL0     C22753   9.915   6.159   5.775  0.9105  0.1450  0.7534
  910MOL0     C22754   9.969   6.300   5.743 -0.7819 -0.1336  0.2687
  910MOL0     C22755   9.871   6.414   5.755 -0.7016 -0.0467 -0.3699
  910MOL0     C22756   9.835   6.451   5.898 -0.0710 -0.1862 -0.1877
  910MOL0     C22757   9.940   6.475   6.014  0.2562  0.2388 -0.4520
  910MOL0     C22758  10.004   6.612   6.005 -0.5044  0.4455  0.7387
  910MOL0    Cl22759  10.182   6.613   6.054  0.5190 -0.7533  0.0507
  910MOL0     C22760   9.547   5.929   5.483  0.5359 -0.9447  1.1667
  910MOL0     C22761   9.421   5.913   5.427 -0.5211  0.8256 -0.4977
  910MOL0     O22762   9.140   6.097   5.427  0.0836 -0.2304 -0.3266
  910MOL0     C22763   8.896   6.005   5.374 -0.3038 -0.0818  0.0560
  910MOL0     C22764   8.765   5.952   5.349 -0.2792 -0.1062  0.7461
  910MOL0     N22765   7.978   5.963   5.262  0.0651 -0.1453  0.1883
  910MOL0     N22766   7.861   5.995   5.307  0.1078 -0.2100 -0.1948
  910MOL0     C22767   6.916   6.472   4.940 -0.1185  0.0366 -0.0573
  910MOL0     C22768   6.782   6.489   4.963 -0.3738 -0.1764 -0.2152
  910MOL0     C22769   6.442   6.673   5.222 -0.5377 -0.6579 -0.4782
  910MOL0     C22770   6.370   6.778   5.169 -0.0473  0.2079 -0.2124
  910MOL0     C22771   6.236   6.793   5.180 -0.0818  0.0212 -0.3285
  910MOL0     C22772   6.158   6.708   5.262  0.2501  0.2848 -0.2657
  910MOL0     O22773   6.019   6.717   5.278 -0.0223 -0.2858 -0.7171
  910MOL0     C22774   5.949   6.829   5.226  0.1806 -0.7500  1.1060
  910MOL0     C22775   5.804   6.816   5.272  0.1174  0.9503 -0.7701
  910MOL0     C22776   5.710   6.932   5.229  0.1313 -0.3938  0.8256
  910MOL0     C22777   5.580   6.938   5.311 -0.1151  0.0583 -0.2234
  910MOL0     C22778   5.495   6.825   5.278 -0.5639 -0.4827 -0.0743
  910MOL0     C22779   5.429   6.727   5.243 -0.0479  0.6129 -0.5918
  910MOL0     C22780   6.227   6.607   5.327  0.0411 -0.0301 -0.2602
  910MOL0     C22781   6.364   6.577   5.302  0.6035  0.5851  0.1741
  910MOL0     C22782   6.422   6.458   5.366  0.3307 -0.2646  0.0892
  910MOL0     H22783   6.806   6.541   5.296  1.9720  2.5066  1.2615
  910MOL0     H22784   7.054   6.556   5.241 -1.7420 -1.0903  2.2524
  910MOL0     H22785   7.172   6.308   4.913 -1.1139 -0.4342  6.3970
  910MOL0     H22786   7.206   6.458   4.818  2.2082 -0.3208 -0.5871
  910MOL0     H22787   7.408   6.508   4.943  0.5333  0.6981 -1.4888
  910MOL0     H22788   7.442   6.348   4.869 -0.5285 -0.8644  0.5236
  910MOL0     H22789   7.380   6.248   5.074 -1.7432  0.8513 -1.1834
  910MOL0     H22790   7.347   6.404   5.157  2.3169  2.9052  0.6866
  910MOL0     H22791   7.614   6.343   5.032 -1.1515  0.4886 -0.0292
  910MOL0     H22792   7.583   6.485   5.107  4.3279 -0.9570  2.8556
  910MOL0     H22793   7.528   6.372   5.334 -3.1371 -2.4339 -1.7090
  910MOL0     H22794   7.573   6.223   5.266  1.5494  0.9713  2.9223
  910MOL0     H22795   7.795   6.283   5.207 -0.9921  0.1613  0.0218
  910MOL0     H22796   7.753   6.446   5.251 -0.2297 -0.5826 -2.2005
  910MOL0     H22797   7.701   6.380   5.493  0.3154 -1.2942  2.7284
  910MOL0     H22798   7.868   6.360   5.443  0.4870 -0.3543  0.4875
  910MOL0     H22799   7.773   6.156   5.567 -0.3899 -2.6165  0.7785
  910MOL0     H22800   7.672   6.139   5.434  0.7983 -2.3502  1.2736
  910MOL0     H22801   8.067   6.236   5.415  0.0588 -0.2421 -1.5425
  910MOL0     H22802   8.214   6.088   5.146  1.5242  1.1048  0.2320
  910MOL0     H22803   8.258   6.157   5.302 -0.5610  0.4042 -0.2636
  910MOL0     H22804   8.292   5.938   5.395 -4.6747 -2.1582 -0.1511
  910MOL0     H22805   8.267   5.850   5.247  0.3310  0.6255 -1.7729
  910MOL0     H22806   8.505   6.036   5.302  0.0226 -0.7301  1.4326
  910MOL0     H22807   8.458   5.985   5.135 -0.8436 -1.2903  0.7229
  910MOL0     H22808   8.461   5.744   5.221 -0.8407  0.9912  0.5781
  910MOL0     H22809   8.540   5.813   5.359 -1.3283 -1.1299  0.1356
  910MOL0     H22810   8.844   5.792   5.061  0.1577  0.6367 -0.4752
  910MOL0     H22811   9.073   5.860   5.119  0.0971 -0.2049 -0.5326
  910MOL0     H22812   9.418   6.131   5.168  2.1666  0.8699  0.6537
  910MOL0     H22813   9.642   6.170   5.256  1.5290 -2.4071 -1.9867
  910MOL0     H22814   9.799   6.222   5.528  0.5658 -0.9977 -0.7816
  910MOL0     H22815   9.674   6.139   5.613 -0.0313  2.1822 -0.0722
  910MOL0     H22816   9.830   5.974   5.700 -3.0244  0.3106 -1.0409
  910MOL0     H22817   9.958   6.037   5.603  0.5208  0.0067  1.0702
  910MOL0     H22818   9.836   6.169   5.851  1.3821 -2.2419  1.6433
  910MOL0     H22819   9.993   6.112   5.835  1.8388  2.6862  1.6542
  910MOL0     H22820  10.010   6.298   5.641 -1.3801 -1.1359  0.0338
  910MOL0     H22821  10.055   6.330   5.804 -0.7178  1.0145 -0.3538
  910MOL0     H22822   9.782   6.399   5.693 -0.4210 -2.0978 -0.3419
  910MOL0     H22823   9.917   6.503   5.712 -1.7550  0.6646 -0.0613
  910MOL0     H22824   9.761   6.532   5.896 -3.2362 -2.8377  0.3171
  910MOL0     H22825   9.766   6.377   5.939  0.2353  0.4528  1.6019
  910MOL0     H22826  10.015   6.396   6.021 -0.7465 -1.0592 -3.1385
  910MOL0     H22827   9.873   6.476   6.101 -3.7084  2.4506 -3.2185
  910MOL0     H22828  10.001   6.640   5.899 -2.7862 -4.0612 -0.6206
  910MOL0     H22829   9.946   6.693   6.051 -0.7181  1.1597 -0.7370
  910MOL0     H22830   9.579   5.869   5.567  2.4043 -1.7406 -0.0388
  910MOL0     H22831   9.354   5.838   5.466 -2.2687  1.1753 -2.6534
  910MOL0     H22832   8.910   6.066   5.463  1.2018  0.9495 -0.8601
  910MOL0     H22833   8.683   5.971   5.418  0.9510  2.2397  1.7043
  910MOL0     H22834   6.951   6.469   4.837 -0.6211 -1.0652 -0.2140
  910MOL0     H22835   6.711   6.483   4.881 -0.6672 -3.8865  0.1516
  910MOL0     H22836   6.421   6.853   5.110  2.3036 -0.0283  1.3431
  910MOL0     H22837   6.189   6.880   5.135 -0.4506 -0.0398 -0.0586
  910MOL0     H22838   5.958   6.846   5.119  1.5681 -1.6005  1.0617
  910MOL0     H22839   5.996   6.919   5.266 -2.0805  0.6084  0.8437
  910MOL0     H22840   5.814   6.808   5.381 -0.1611 -3.3012 -0.8725
  910MOL0     H22841   5.756   6.726   5.232 -1.7922  3.0954 -3.6724
  910MOL0     H22842   5.689   6.900   5.127  2.8040  1.6350 -0.4918
  910MOL0     H22843   5.758   7.030   5.229  0.2735 -0.4463 -0.2210
  910MOL0     H22844   5.604   6.932   5.418 -1.0494  1.8438  0.1184
  910MOL0     H22845   5.537   7.037   5.298 -1.1240 -0.3284  0.1109
  910MOL0     H22846   5.386   6.640   5.198  1.4614  1.5361 -4.1233
  910MOL0     H22847   6.165   6.552   5.397  1.0973 -0.7793  0.1135
  910MOL0     H22848   6.430   6.382   5.288  0.9785  2.1438 -2.3344
  910MOL0     H22849   6.521   6.487   5.403  0.1790  0.6569 -0.2076
  910MOL0     H22850   6.364   6.422   5.452  2.0923 -1.2447  0.9456
  911MOL0     O22851   0.672   3.508   2.358 -0.1696 -0.3323  0.0895
  911MOL0     C22852   0.673   3.551   2.243 -0.0392 -0.0765 -0.6204
  911MOL0     O22853   0.779   3.565   2.161  0.3177 -0.2561  0.0724
  911MOL0     C22854   0.877   3.468   2.164  0.3871 -0.5800 -0.3005
  911MOL0     C22855   0.862   3.330   2.193  0.4081  0.1047 -0.3221
  911MOL0     C22856   0.979   3.243   2.188 -0.1135  0.0948  0.5227
  911MOL0     C22857   1.108   3.293   2.164 -1.0348  0.7273 -0.3177
  911MOL0     O22858   1.211   3.202   2.178  0.5702  0.6095 -0.0594
  911MOL0     C22859   1.344   3.224   2.135  0.0173  0.2343  0.2270
  911MOL0     C22860   1.415   3.099   2.144  0.2162 -0.5175  0.6928
  911MOL0     C22861   1.559   3.122   2.177 -0.9270  0.5988  0.4690
  911MOL0     C22862   1.642   3.006   2.105 -0.2186 -0.1620 -0.1637
  911MOL0     C22863   1.795   3.016   2.103 -0.0184 -0.5556 -0.5076
  911MOL0     C22864   1.867   2.982   2.229 -0.2971 -0.0799 -0.5918
  911MOL0     C22865   2.017   2.941   2.203  0.2529  0.4386  0.0139
  911MOL0     C22866   2.054   2.797   2.152 -0.0626 -0.8179 -0.1657
  911MOL0     N22867   2.198   2.766   2.178  0.5586 -0.7089 -0.0419
  911MOL0     C22868   2.258   2.730   2.300  1.0903 -0.4484 -0.3656
  911MOL0     C22869   2.388   2.736   2.279 -0.0674 -0.3276 -0.4369
  911MOL0     C22870   2.496   2.707   2.379 -0.2578 -0.1692 -0.4748
  911MOL0     C22871   2.509   2.561   2.413  0.5396  0.6661  0.7515
  911MOL0     C22872   2.647   2.495   2.437  1.1352  0.2239 -0.5153
  911MOL0     C22873   2.731   2.502   2.317 -0.2939 -0.1299 -0.1565
  911MOL0     O22874   2.677   2.394   2.235 -0.9373  0.1978  0.4769
  911MOL0     C22875   2.765   2.351   2.131  0.5452  0.0798 -1.2283
  911MOL0     C22876   2.882   2.415   2.093 -1.1337  0.1649 -0.3834
  911MOL0     C22877   2.969   2.357   1.998  0.4056  0.2824  0.1240
  911MOL0     C22878   2.925   2.243   1.921  0.1503  0.5413 -0.4756
  911MOL0     C22879   3.003   2.193   1.803  0.1283 -0.4606 -0.3315
  911MOL0     O22880   3.128   2.248   1.783  0.6046  0.7757  0.2635
  911MOL0     C22881   3.225   2.204   1.695 -0.4521 -0.2383  0.1194
  911MOL0     C22882   3.218   2.108   1.594 -0.4525  0.1588  0.4823
  911MOL0     C22883   3.338   2.072   1.536 -0.4208  0.1327  0.1703
  911MOL0     C22884   3.457   2.134   1.555 -0.1444 -1.0321 -0.2605
  911MOL0     O22885   3.564   2.083   1.487  0.1059 -0.2188 -1.1993
  911MOL0     C22886   3.692   2.153   1.495  0.2411  0.7453  0.9887
  911MOL0     C22887   3.793   2.065   1.416 -0.7227  0.2901  0.5550
  911MOL0     C22888   3.831   1.939   1.488  0.2813 -0.3515 -0.3877
  911MOL0     C22889   3.935   1.865   1.408  0.3639  0.6879 -0.3700
  911MOL0     C22890   4.024   1.779   1.504  0.1154  0.0901  0.2484
  911MOL0     C22891   4.101   1.669   1.429  0.5343 -0.3688  0.2342
  911MOL0     C22892   4.191   1.577   1.523 -0.8297  0.3412  0.1961
  911MOL0     C22893   4.308   1.640   1.605  1.1751 -0.6315  0.9021
  911MOL0    Cl22894   4.420   1.738   1.509 -0.1022 -0.1953 -0.0261
  911MOL0     C22895   3.463   2.247   1.641  0.2376  0.0584 -1.0884
  911MOL0     C22896   3.345   2.274   1.716 -0.0740  0.7056 -0.5601
  911MOL0     O22897   2.953   2.099   1.736 -0.1580 -0.2771  0.1872
  911MOL0     C22898   2.807   2.180   1.969 -0.1716 -0.7048  0.4512
  911MOL0     C22899   2.728   2.229   2.078  0.2988  0.2165 -0.0704
  911MOL0     N22900   2.407   2.747   2.145  0.0911 -0.2448 -0.2171
  911MOL0     N22901   2.300   2.779   2.090  0.0575 -1.1498  0.3609
  911MOL0     C22902   1.121   3.432   2.129  0.2797  0.7030  0.0888
  911MOL0     C22903   1.009   3.515   2.133  0.2499 -0.7868  0.2229
  911MOL0     C22904   0.552   3.631   2.205 -0.2040  0.5760  0.2967
  911MOL0     C22905   0.548   3.691   2.079  1.0743 -0.1899  0.4976
  911MOL0     C22906   0.434   3.752   2.026  0.5077  0.8439  0.5122
  911MOL0     C22907   0.320   3.755   2.105  0.8701  0.3723 -0.6279
  911MOL0     O22908   0.213   3.790   2.027  0.0980 -0.1452 -0.2350
  911MOL0     C22909   0.082   3.734   2.050  1.2347  0.5371  0.1446
  911MOL0     C22910   0.077   3.593   1.999  0.1844  1.2859 -0.2919
  911MOL0     C22911  -0.056   3.563   1.930 -0.8857  0.2638 -0.3859
  911MOL0     C22912  -0.075   3.418   1.893  1.3958  0.4844  0.2249
  911MOL0     C22913  -0.206   3.407   1.841 -0.5764 -0.9092  0.2916
  911MOL0     C22914  -0.316   3.384   1.790  0.1223 -0.2447 -0.7271
  911MOL0     C22915   0.324   3.708   2.230 -0.3279 -0.8428 -0.9070
  911MOL0     C22916   0.435   3.644   2.291  0.3792 -0.5395 -0.7997
  911MOL0     C22917   0.423   3.610   2.439 -0.6940 -0.6775  0.5332
  911MOL0     H22918   0.766   3.295   2.230 -0.5302  3.8822  1.3141
  911MOL0     H22919   0.952   3.141   2.214 -3.1471  0.1393 -1.8014
  911MOL0     H22920   1.337   3.262   2.032 -3.8235  0.9797  0.5998
  911MOL0     H22921   1.379   3.302   2.203 -1.6333  1.5778 -0.3968
  911MOL0     H22922   1.406   3.048   2.047 -1.5473  3.0773 -1.2269
  911MOL0     H22923   1.366   3.036   2.218 -0.0672 -0.6163  0.4229
  911MOL0     H22924   1.558   3.104   2.285  1.2724  1.5034  0.6790
  911MOL0     H22925   1.593   3.224   2.155 -2.0267  0.8702 -0.0726
  911MOL0     H22926   1.607   2.905   2.127 -1.9001  0.4300 -0.0129
  911MOL0     H22927   1.604   3.018   2.003 -2.9044  0.3180  0.8042
  911MOL0     H22928   1.841   2.954   2.025  1.0891 -1.2640  0.6779
  911MOL0     H22929   1.815   3.122   2.089 -1.1147 -0.1455  0.8209
  911MOL0     H22930   1.863   3.068   2.296 -0.1875  1.7852 -2.8964
  911MOL0     H22931   1.826   2.888   2.269  1.8000  0.6008  3.7661
  911MOL0     H22932   2.077   2.957   2.294  0.1593  0.0212  0.1513
  911MOL0     H22933   2.062   3.011   2.131 -2.1738  0.8961 -1.1520
  911MOL0     H22934   1.993   2.731   2.214 -2.4247  2.1498  0.9221
  911MOL0     H22935   2.026   2.782   2.047 -0.8640  0.5358 -0.1712
  911MOL0     H22936   2.206   2.708   2.392 -1.2590 -1.3865 -1.8169
  911MOL0     H22937   2.590   2.751   2.345 -0.5147  1.8801  1.2873
  911MOL0     H22938   2.485   2.768   2.470 -1.1966  0.8540 -1.2548
  911MOL0     H22939   2.450   2.547   2.504 -0.2445  1.1596  0.3218
  911MOL0     H22940   2.462   2.496   2.339  2.4221 -0.7170  0.6722
  911MOL0     H22941   2.633   2.393   2.472 -1.1389  0.7729  0.4017
  911MOL0     H22942   2.697   2.540   2.524  0.4302  0.4237 -0.2020
  911MOL0     H22943   2.837   2.490   2.342 -0.4880 -0.0919  0.7234
  911MOL0     H22944   2.720   2.593   2.258  1.6141  0.3032  0.0922
  911MOL0     H22945   2.921   2.510   2.129 -0.3345  0.7400 -2.5461
  911MOL0     H22946   3.063   2.403   1.972  1.0667 -0.5683  0.9114
  911MOL0     H22947   3.122   2.067   1.565 -1.0803  2.0347 -0.2613
  911MOL0     H22948   3.346   1.987   1.469 -1.3590 -2.4560  3.0730
  911MOL0     H22949   3.681   2.250   1.445  1.1242  0.6806  0.6555
  911MOL0     H22950   3.735   2.163   1.595  2.9016 -0.7236  0.0934
  911MOL0     H22951   3.752   2.049   1.316 -3.1049 -1.5786  1.7181
  911MOL0     H22952   3.879   2.132   1.405  0.8006 -1.0572  3.2777
  911MOL0     H22953   3.879   1.969   1.582 -0.6936  1.2759 -0.3900
  911MOL0     H22954   3.743   1.876   1.504 -1.2471  2.0095  1.0009
  911MOL0     H22955   4.001   1.918   1.339 -0.8515 -1.4083 -3.3809
  911MOL0     H22956   3.892   1.789   1.343  2.5187 -0.4825 -0.5052
  911MOL0     H22957   3.951   1.731   1.571  0.2276  1.2310  1.2235
  911MOL0     H22958   4.087   1.840   1.570 -0.0350 -0.4135  0.8702
  911MOL0     H22959   4.033   1.609   1.368 -0.7915  1.5968 -0.3210
  911MOL0     H22960   4.165   1.726   1.361 -2.4902 -0.2727 -2.8010
  911MOL0     H22961   4.243   1.509   1.455  0.4556  3.5570 -2.3272
  911MOL0     H22962   4.128   1.523   1.593  0.2877  2.3621  2.9360
  911MOL0     H22963   4.264   1.705   1.681  1.0575 -0.7563  0.9418
  911MOL0     H22964   4.370   1.565   1.656  2.9841  0.6458  0.6919
  911MOL0     H22965   3.552   2.305   1.661 -1.6759  2.4864  1.0023
  911MOL0     H22966   3.355   2.354   1.788 -1.1351  0.4860 -0.1541
  911MOL0     H22967   2.782   2.082   1.931  1.4991  0.0474 -3.0889
  911MOL0     H22968   2.635   2.180   2.106 -0.6012  0.9393 -1.6791
  911MOL0     H22969   1.224   3.455   2.104  1.0025 -1.5117  0.7496
  911MOL0     H22970   1.019   3.622   2.117 -1.5983 -0.4916  0.7975
  911MOL0     H22971   0.640   3.681   2.023 -0.2100 -1.7173 -1.4434
  911MOL0     H22972   0.431   3.805   1.932 -0.9619  2.0661  1.1997
  911MOL0     H22973   0.003   3.792   2.001  1.2351 -0.5484 -1.2010
  911MOL0     H22974   0.066   3.727   2.158  0.3939  0.8676  0.0511
  911MOL0     H22975   0.086   3.523   2.082  1.2593  2.1223  0.3160
  911MOL0     H22976   0.158   3.570   1.929  0.7886  0.1458  0.7547
  911MOL0     H22977  -0.066   3.638   1.850 -1.4257  2.8484  1.9567
  911MOL0     H22978  -0.128   3.587   2.009  1.3056  1.6450  1.3114
  911MOL0     H22979  -0.004   3.376   1.821  0.7750 -1.7636  0.8239
  911MOL0     H22980  -0.068   3.364   1.988  1.1065  2.1416  1.2200
  911MOL0     H22981  -0.417   3.362   1.762 -0.8516  1.3831  1.2105
  911MOL0     H22982   0.234   3.712   2.290 -0.6188  0.4259 -1.3931
  911MOL0     H22983   0.335   3.654   2.486 -1.2030  0.6245 -1.4954
  911MOL0     H22984   0.420   3.500   2.432  1.0527 -0.9147  2.6256
  911MOL0     H22985   0.514   3.628   2.495 -0.9213 -0.7355  0.9249
  912MOL0     O22986   7.907   4.970   3.442  0.2925  0.8318  0.2190
  912MOL0     C22987   7.898   4.953   3.321 -0.2574  0.9885 -0.3475
  912MOL0     O22988   7.780   4.969   3.251 -0.4033  0.4724  0.2281
  912MOL0     C22989   7.680   5.023   3.327  0.0579 -1.3460 -0.3716
  912MOL0     C22990   7.610   5.137   3.280 -0.0910 -1.0337 -0.2132
  912MOL0     C22991   7.512   5.203   3.363 -0.6822  0.0916 -0.1380
  912MOL0     C22992   7.465   5.142   3.480  0.3356 -0.7576  0.3451
  912MOL0     O22993   7.363   5.215   3.541 -1.1553 -0.4954 -0.5533
  912MOL0     C22994   7.258   5.146   3.613  0.0663  0.1206 -0.3339
  912MOL0     C22995   7.159   5.083   3.517 -0.2019 -0.0921 -0.9290
  912MOL0     C22996   7.041   5.042   3.589 -0.3422 -0.2393  0.2035
  912MOL0     C22997   7.014   4.887   3.588 -0.2865  0.4222  0.0201
  912MOL0     C22998   6.881   4.858   3.657  0.2838  0.2571 -0.0252
  912MOL0     C22999   6.887   4.711   3.697 -0.3930  0.4957 -0.4451
  912MOL0     C23000   6.753   4.653   3.755 -0.0823 -0.1876  0.4123
  912MOL0     C23001   6.723   4.716   3.887 -0.4702 -0.3376  0.9027
  912MOL0     N23002   6.596   4.666   3.948  0.1702 -0.0892 -0.0559
  912MOL0     C23003   6.581   4.546   4.007  0.6641  1.1029 -1.2399
  912MOL0     C23004   6.454   4.551   4.052  0.0220  0.1998 -0.5204
  912MOL0     C23005   6.374   4.445   4.118 -0.9989 -0.6074  0.5909
  912MOL0     C23006   6.318   4.488   4.252 -0.5588  0.3489  0.4068
  912MOL0     C23007   6.168   4.531   4.251 -0.8056 -0.3733  0.2071
  912MOL0     C23008   6.068   4.426   4.309  0.8078 -0.0042 -0.8145
  912MOL0     O23009   5.950   4.487   4.356  0.1738 -0.5341 -0.8688
  912MOL0     C23010   5.833   4.422   4.394  0.5961 -0.0618  0.0492
  912MOL0     C23011   5.795   4.285   4.385  0.1113 -0.9464  0.3385
  912MOL0     C23012   5.664   4.235   4.400  0.1337 -0.0076  0.7465
  912MOL0     C23013   5.557   4.318   4.434 -0.6014 -0.4478 -0.2101
  912MOL0     C23014   5.425   4.272   4.472  0.6157 -0.2902 -0.2258
  912MOL0     O23015   5.369   4.360   4.559 -0.3955 -0.0410 -0.6916
  912MOL0     C23016   5.247   4.329   4.618 -0.4059 -0.2457 -0.1907
  912MOL0     C23017   5.230   4.217   4.709 -0.7753  0.1263  0.5278
  912MOL0     C23018   5.109   4.189   4.773  0.8931  0.2385  0.1530
  912MOL0     C23019   4.997   4.266   4.742  1.2447 -0.6297 -0.0277
  912MOL0     O23020   4.875   4.238   4.800  0.8162  0.4405 -0.4604
  912MOL0     C23021   4.754   4.297   4.748  1.0278  0.8008  0.8815
  912MOL0     C23022   4.625   4.270   4.840 -0.2146  0.4687  0.5795
  912MOL0     C23023   4.504   4.346   4.789 -0.0793  0.2917 -0.8174
  912MOL0     C23024   4.382   4.320   4.881  0.5845 -0.4813  0.2225
  912MOL0     C23025   4.379   4.413   4.999 -0.0689 -0.1083 -0.7099
  912MOL0     C23026   4.262   4.385   5.101 -0.3173 -0.5973 -0.3988
  912MOL0     C23027   4.242   4.500   5.187  0.2111 -0.4795 -0.9611
  912MOL0     C23028   4.124   4.498   5.273 -0.1596  0.3639  0.7608
  912MOL0    Cl23029   4.131   4.376   5.404  0.2042 -0.2976 -0.3652
  912MOL0     C23030   5.006   4.364   4.638  0.2910 -0.4151 -0.3444
  912MOL0     C23031   5.126   4.396   4.583 -0.0407 -0.1181 -0.5664
  912MOL0     O23032   5.376   4.167   4.429  0.3586 -1.0031  0.3754
  912MOL0     C23033   5.590   4.451   4.450 -0.5719 -0.1916  0.1613
  912MOL0     C23034   5.719   4.504   4.425  0.3727  0.3706  0.6925
  912MOL0     N23035   6.394   4.664   4.007  0.3680  0.5118 -0.3666
  912MOL0     N23036   6.484   4.740   3.953 -0.1561 -0.0987  0.4792
  912MOL0     C23037   7.524   5.026   3.525 -0.2716 -0.0679 -0.8056
  912MOL0     C23038   7.630   4.966   3.450  0.8635  0.4334  0.9822
  912MOL0     C23039   8.024   4.936   3.240  0.0751 -0.9696  0.5409
  912MOL0     C23040   8.004   4.918   3.105  0.6961 -0.5023 -0.0352
  912MOL0     C23041   8.117   4.896   3.017 -0.2766 -0.4965 -0.3473
  912MOL0     C23042   8.246   4.885   3.068 -0.9950  0.6902 -0.3906
  912MOL0     O23043   8.331   4.843   2.976  0.0451 -0.2357  0.0134
  912MOL0     C23044   8.460   4.791   3.020  0.6574  0.3302  0.3849
  912MOL0     C23045   8.559   4.800   2.908 -1.1915  0.7140 -1.0629
  912MOL0     C23046   8.515   4.697   2.803 -0.7842  0.4833  0.0277
  912MOL0     C23047   8.613   4.690   2.690 -0.1813 -0.4390  0.8331
  912MOL0     C23048   8.738   4.624   2.730 -0.3704 -0.2436 -0.0804
  912MOL0     C23049   8.852   4.584   2.752 -0.6237  0.2815 -0.2123
  912MOL0     C23050   8.261   4.900   3.205 -0.0439 -0.2241 -0.2581
  912MOL0     C23051   8.152   4.926   3.290  0.2534  0.4917  0.7325
  912MOL0     C23052   8.181   4.930   3.441 -0.3143  0.0619  0.5516
  912MOL0     H23053   7.623   5.184   3.183  1.5080 -0.1869  0.3893
  912MOL0     H23054   7.455   5.289   3.328 -1.8537 -1.1138 -1.3594
  912MOL0     H23055   7.296   5.072   3.683  1.5792  0.9435 -0.2323
  912MOL0     H23056   7.205   5.224   3.668 -1.6285 -1.0118 -0.2896
  912MOL0     H23057   7.204   4.995   3.470 -1.4473 -1.7348  0.7816
  912MOL0     H23058   7.133   5.150   3.435 -3.2097  0.3604  0.2469
  912MOL0     H23059   6.950   5.084   3.543 -0.6355 -0.2267  0.7953
  912MOL0     H23060   7.048   5.082   3.690 -0.2793  2.9526 -0.9419
  912MOL0     H23061   7.009   4.832   3.493 -2.3289 -0.6228  0.6734
  912MOL0     H23062   7.097   4.841   3.642 -2.7839 -1.1134  2.8791
  912MOL0     H23063   6.877   4.927   3.742  0.1003 -0.6466  0.7229
  912MOL0     H23064   6.799   4.884   3.590 -0.2992 -2.3121 -0.3947
  912MOL0     H23065   6.902   4.647   3.610 -2.5107 -0.7586  0.0442
  912MOL0     H23066   6.962   4.703   3.776 -0.1802  0.4934 -0.6483
  912MOL0     H23067   6.747   4.546   3.773  0.8466  0.1438  3.2080
  912MOL0     H23068   6.671   4.672   3.686  0.0444  0.1769  0.3575
  912MOL0     H23069   6.800   4.692   3.961  0.8463 -1.4129 -0.7380
  912MOL0     H23070   6.712   4.824   3.873  1.1170 -0.2523  0.1403
  912MOL0     H23071   6.660   4.472   4.010  1.6244  2.1156 -0.5827
  912MOL0     H23072   6.293   4.411   4.053 -1.0003 -3.0477  1.7559
  912MOL0     H23073   6.445   4.363   4.129 -0.2042 -0.2348 -1.4237
  912MOL0     H23074   6.348   4.413   4.327 -1.3093 -0.0238  0.3372
  912MOL0     H23075   6.379   4.576   4.274  1.6928 -1.0779  0.2376
  912MOL0     H23076   6.135   4.564   4.152 -0.3614  2.5173  0.9550
  912MOL0     H23077   6.161   4.622   4.310 -2.6609  0.8162 -1.6997
  912MOL0     H23078   6.122   4.371   4.386  1.0993  0.8089 -0.4260
  912MOL0     H23079   6.036   4.357   4.231 -1.8649  0.0802  0.0833
  912MOL0     H23080   5.876   4.219   4.357  1.7878  1.1527 -0.0525
  912MOL0     H23081   5.640   4.130   4.386  0.2867  0.0477  0.0370
  912MOL0     H23082   5.315   4.162   4.748 -0.8585  1.2172  2.3445
  912MOL0     H23083   5.101   4.100   4.834 -1.9834 -0.0873 -0.5796
  912MOL0     H23084   4.765   4.405   4.748 -1.0538  1.0658 -0.6194
  912MOL0     H23085   4.734   4.276   4.643  2.6864  2.1089  0.2727
  912MOL0     H23086   4.604   4.164   4.823 -3.1758  1.3102 -1.9262
  912MOL0     H23087   4.642   4.293   4.945 -0.7432 -0.8186  0.9642
  912MOL0     H23088   4.527   4.453   4.792  0.0629  0.2746  2.5500
  912MOL0     H23089   4.487   4.312   4.686 -0.3763  1.0643 -1.0354
  912MOL0     H23090   4.379   4.214   4.910  1.9900 -0.6711 -0.2365
  912MOL0     H23091   4.289   4.337   4.826  1.5635 -1.6489 -1.9492
  912MOL0     H23092   4.359   4.509   4.951 -2.3364 -1.7731 -3.3894
  912MOL0     H23093   4.473   4.415   5.055 -0.8884  0.5967  0.6938
  912MOL0     H23094   4.169   4.369   5.046 -1.1513 -0.7559  1.0013
  912MOL0     H23095   4.281   4.287   5.146  1.4250  0.0890  0.4494
  912MOL0     H23096   4.230   4.593   5.131 -3.9217  0.8955  1.7864
  912MOL0     H23097   4.326   4.510   5.258 -1.7579  1.0635  1.3193
  912MOL0     H23098   4.112   4.595   5.322 -0.9963  0.8485 -0.3337
  912MOL0     H23099   4.040   4.489   5.204  1.7792 -1.0332 -1.5807
  912MOL0     H23100   4.918   4.421   4.609 -2.5923 -3.9714  0.6290
  912MOL0     H23101   5.132   4.462   4.496 -1.5242  0.0479 -0.5725
  912MOL0     H23102   5.512   4.521   4.479 -2.4691 -2.0067 -0.3153
  912MOL0     H23103   5.738   4.610   4.428 -0.9423  0.5954  2.2817
  912MOL0     H23104   7.501   4.971   3.615  0.4201  0.9787  0.0378
  912MOL0     H23105   7.680   4.881   3.496 -0.3625 -0.4290  0.7608
  912MOL0     H23106   7.906   4.918   3.058 -0.0171  2.7425  1.1546
  912MOL0     H23107   8.102   4.871   2.912 -1.2157 -2.5344  0.2173
  912MOL0     H23108   8.436   4.690   3.057 -1.4241 -0.3370 -2.4166
  912MOL0     H23109   8.502   4.850   3.102 -0.5748 -0.0920  1.3414
  912MOL0     H23110   8.659   4.780   2.947 -0.4350  2.1770 -2.1553
  912MOL0     H23111   8.568   4.903   2.873 -0.4745  1.4867  1.2450
  912MOL0     H23112   8.414   4.718   2.765 -1.1555 -0.1432  0.6222
  912MOL0     H23113   8.508   4.600   2.853  0.4443  0.2142 -0.2954
  912MOL0     H23114   8.564   4.623   2.619 -2.1393  0.8164  0.9186
  912MOL0     H23115   8.630   4.787   2.642  2.9463 -1.4580 -0.3391
  912MOL0     H23116   8.953   4.557   2.777 -0.1175  1.2191 -1.1579
  912MOL0     H23117   8.361   4.886   3.246  0.1040  3.2129  0.8944
  912MOL0     H23118   8.287   4.906   3.456  0.1585  1.5528 -0.2424
  912MOL0     H23119   8.153   5.024   3.487 -4.0766 -0.1979 -0.8445
  912MOL0     H23120   8.126   4.851   3.492  0.5163 -0.2584  0.9815
  913MOL0     O23121   7.799   4.934   2.617 -0.9579  0.1022 -0.0135
  913MOL0     C23122   7.778   4.919   2.734  0.2983  0.4599 -0.0795
  913MOL0     O23123   7.852   4.840   2.822 -0.2564 -0.2912  0.0752
  913MOL0     C23124   7.930   4.747   2.757  0.1375 -0.7647  0.7091
  913MOL0     C23125   7.892   4.612   2.778 -0.5613 -0.4573 -0.6809
  913MOL0     C23126   7.966   4.515   2.724  0.0317 -0.3113  0.1545
  913MOL0     C23127   8.073   4.543   2.637 -0.8184  0.7165  0.5662
  913MOL0     O23128   8.164   4.445   2.598  0.1751  0.5960  0.3661
  913MOL0     C23129   8.119   4.308   2.591 -0.1557  0.5733  0.0327
  913MOL0     C23130   8.244   4.246   2.531 -0.0855 -0.5143 -0.0043
  913MOL0     C23131   8.276   4.303   2.388 -0.5089  0.3324  0.4819
  913MOL0     C23132   8.389   4.214   2.314  0.5141  0.3699 -0.1552
  913MOL0     C23133   8.534   4.249   2.374  0.2626  0.2569 -0.3443
  913MOL0     C23134   8.576   4.384   2.339 -0.0225 -0.5265 -0.1274
  913MOL0     C23135   8.721   4.402   2.383  0.9700 -0.4031  0.4179
  913MOL0     C23136   8.783   4.543   2.351  0.1652  0.1895  0.1245
  913MOL0     N23137   8.933   4.533   2.333  0.0673  0.2140  0.2968
  913MOL0     C23138   8.990   4.444   2.242  1.3448 -0.5871 -0.2298
  913MOL0     C23139   9.122   4.443   2.278 -0.2846  0.0415  0.3957
  913MOL0     C23140   9.232   4.347   2.224  0.1186  0.1259 -0.3242
  913MOL0     C23141   9.346   4.413   2.135  0.6393 -0.0944 -0.8476
  913MOL0     C23142   9.428   4.520   2.208 -0.0775 -0.0068  0.3723
  913MOL0     C23143   9.547   4.553   2.121 -0.0046 -0.8883  0.2419
  913MOL0     O23144   9.640   4.613   2.209 -1.0269  0.0869  0.6270
  913MOL0     C23145   9.754   4.662   2.158 -1.3333  0.9109 -0.1111
  913MOL0     C23146   9.815   4.616   2.044  0.4519 -0.1594  0.1864
  913MOL0     C23147   9.931   4.663   1.989  0.0254  0.7972  0.6496
  913MOL0     C23148   9.998   4.761   2.059  0.0777 -1.2835  0.0357
  913MOL0     C23149  10.126   4.811   2.022  0.0991  0.2030 -0.7805
  913MOL0     O23150  10.187   4.905   2.107 -0.1225 -0.7221 -0.0758
  913MOL0     C23151  10.280   4.986   2.061  0.6706  0.0559  0.0446
  913MOL0     C23152  10.365   5.051   2.157 -0.5894 -0.4953 -0.2965
  913MOL0     C23153  10.465   5.137   2.122  1.0115  0.2501 -1.0860
  913MOL0     C23154  10.474   5.181   1.992 -0.0759 -0.2359  0.0425
  913MOL0     O23155  10.559   5.284   1.956 -0.2883  0.9597 -0.6691
  913MOL0     C23156  10.640   5.254   1.846 -0.0488 -0.3447 -0.5078
  913MOL0     C23157  10.786   5.292   1.887 -0.5052 -0.0336 -0.3101
  913MOL0     C23158  10.873   5.258   1.765 -0.7017  0.6026  0.3610
  913MOL0     C23159  10.920   5.384   1.689 -0.2929 -0.2661 -0.1532
  913MOL0     C23160  11.025   5.347   1.584  0.5190 -0.2811 -0.8569
  913MOL0     C23161  11.177   5.362   1.627  0.5316  0.7501  0.0819
  913MOL0     C23162  11.237   5.499   1.631  0.0337 -0.6206  0.3832
  913MOL0     C23163  11.389   5.509   1.639  0.6440  0.9475  0.1371
  913MOL0    Cl23164  11.455   5.439   1.497 -0.2699  0.8403 -0.1603
  913MOL0     C23165  10.400   5.116   1.895 -0.2575  0.3005 -0.1859
  913MOL0     C23166  10.308   5.017   1.923 -0.0312 -0.5392  0.5770
  913MOL0     O23167  10.180   4.761   1.926  0.2693 -0.7859  0.3683
  913MOL0     C23168   9.935   4.815   2.172  0.0080 -0.6138 -0.1648
  913MOL0     C23169   9.821   4.764   2.224 -0.0490  0.1796  0.0409
  913MOL0     N23170   9.141   4.537   2.377  0.4362  0.1709  0.8893
  913MOL0     N23171   9.026   4.595   2.409 -0.5262  0.4542  0.2421
  913MOL0     C23172   8.107   4.676   2.616 -0.2880 -0.1723 -0.1885
  913MOL0     C23173   8.037   4.783   2.673 -0.0031  0.1303  0.1943
  913MOL0     C23174   7.666   4.994   2.793 -0.6140  0.4605  0.0176
  913MOL0     C23175   7.609   4.940   2.912  0.1863 -0.0379 -0.5785
  913MOL0     C23176   7.496   5.002   2.967 -0.5428 -0.7546  0.2436
  913MOL0     C23177   7.434   5.114   2.910 -0.3399 -0.2400 -0.2555
  913MOL0     O23178   7.310   5.154   2.954  0.5455  0.2200 -0.0799
  913MOL0     C23179   7.262   5.137   3.084 -0.2495  0.8751  0.3503
  913MOL0     C23180   7.132   5.207   3.105  0.6483 -0.3014 -0.0220
  913MOL0     C23181   7.133   5.365   3.116  0.2541  0.2778 -0.2190
  913MOL0     C23182   6.996   5.425   3.134 -1.1780 -0.0398 -0.5675
  913MOL0     C23183   6.987   5.564   3.095  0.4392  0.6682  0.1824
  913MOL0     C23184   6.985   5.672   3.048 -0.1469  0.0979  0.2404
  913MOL0     C23185   7.496   5.172   2.807  0.3654 -0.0923  0.0925
  913MOL0     C23186   7.611   5.119   2.746 -0.0564  0.1061  0.4495
  913MOL0     C23187   7.646   5.180   2.618 -0.1083 -0.0079  0.2447
  913MOL0     H23188   7.808   4.594   2.845  1.5897 -3.5685  1.4808
  913MOL0     H23189   7.955   4.412   2.758 -3.0143  0.0162  0.4225
  913MOL0     H23190   8.111   4.280   2.697  1.3889  0.8133  0.2336
  913MOL0     H23191   8.026   4.284   2.539 -0.3295  2.0544 -0.3891
  913MOL0     H23192   8.210   4.143   2.522 -0.9780 -0.8877  5.0264
  913MOL0     H23193   8.325   4.257   2.603 -1.4085 -0.2676  1.5080
  913MOL0     H23194   8.303   4.409   2.392 -3.1305  1.1094 -0.3524
  913MOL0     H23195   8.180   4.290   2.337 -0.3591  0.1703  0.2385
  913MOL0     H23196   8.363   4.108   2.310  1.5273  0.1463 -3.5650
  913MOL0     H23197   8.397   4.257   2.214  0.0379  3.8801  1.1527
  913MOL0     H23198   8.528   4.236   2.483  0.0166 -1.0582 -0.4929
  913MOL0     H23199   8.614   4.187   2.332  1.2025  2.1278 -1.4299
  913MOL0     H23200   8.573   4.385   2.229 -0.7388  1.0964 -0.1183
  913MOL0     H23201   8.506   4.459   2.376  1.3849  0.3656  0.8234
  913MOL0     H23202   8.788   4.330   2.335  0.2492  0.9951 -2.9647
  913MOL0     H23203   8.731   4.404   2.492  1.1821  0.2264  0.3914
  913MOL0     H23204   8.737   4.583   2.260 -1.0308  1.5058  1.2595
  913MOL0     H23205   8.759   4.614   2.431 -0.4957  0.5383 -0.3703
  913MOL0     H23206   8.949   4.391   2.157  1.6747  1.2672 -1.6158
  913MOL0     H23207   9.288   4.313   2.311  0.0345  2.6409  0.8074
  913MOL0     H23208   9.186   4.254   2.188 -0.3125  0.8694 -1.8048
  913MOL0     H23209   9.411   4.332   2.100 -0.1178 -0.8600 -0.5228
  913MOL0     H23210   9.296   4.450   2.045 -3.2593  1.8980  1.8437
  913MOL0     H23211   9.454   4.474   2.304 -2.5791 -1.3595  0.4939
  913MOL0     H23212   9.373   4.613   2.223 -0.5373  0.6530 -4.0241
  913MOL0     H23213   9.530   4.615   2.033  0.1632 -0.3705  0.5695
  913MOL0     H23214   9.591   4.458   2.091  0.5059 -1.4092  2.4386
  913MOL0     H23215   9.763   4.539   1.987 -2.4918  2.4861 -1.0197
  913MOL0     H23216   9.965   4.618   1.897 -1.4317 -0.9451  0.9026
  913MOL0     H23217  10.360   5.018   2.261  1.2349 -1.2413 -0.4002
  913MOL0     H23218  10.527   5.185   2.197 -1.3280  0.5868  0.7501
  913MOL0     H23219  10.642   5.149   1.814  0.1132 -0.4509 -0.1519
  913MOL0     H23220  10.607   5.317   1.763 -2.5103 -1.7861 -0.7172
  913MOL0     H23221  10.790   5.397   1.916  0.0785 -0.8840  3.1412
  913MOL0     H23222  10.814   5.232   1.974 -0.6323  0.5095  0.1105
  913MOL0     H23223  10.968   5.209   1.788  2.0262  4.4202 -1.6330
  913MOL0     H23224  10.814   5.203   1.691 -1.3912  0.8913  0.6933
  913MOL0     H23225  10.963   5.455   1.760 -1.2083  1.1478 -0.9508
  913MOL0     H23226  10.826   5.430   1.656 -2.1600 -2.0177  2.3345
  913MOL0     H23227  11.014   5.406   1.493  1.4874 -0.9002 -1.3913
  913MOL0     H23228  11.001   5.250   1.539  1.2126 -0.6024 -0.5511
  913MOL0     H23229  11.197   5.312   1.723  0.3193 -1.0838 -0.7840
  913MOL0     H23230  11.230   5.306   1.549 -1.9847 -0.6011 -0.7804
  913MOL0     H23231  11.206   5.545   1.726 -0.2360 -4.2823  2.2517
  913MOL0     H23232  11.203   5.559   1.546 -0.2212 -0.3204  0.6922
  913MOL0     H23233  11.418   5.614   1.638 -0.2362  1.2829 -3.3509
  913MOL0     H23234  11.414   5.456   1.732 -0.9458  1.6400  0.9995
  913MOL0     H23235  10.403   5.149   1.792  0.5383 -0.3275 -0.3745
  913MOL0     H23236  10.241   4.979   1.847 -1.1323 -0.2062  1.3594
  913MOL0     H23237   9.971   4.901   2.228 -0.5608 -1.3878  1.4501
  913MOL0     H23238   9.776   4.815   2.308  0.0792 -0.4862  0.5249
  913MOL0     H23239   8.185   4.715   2.550 -0.0905  0.0183  0.1533
  913MOL0     H23240   8.067   4.887   2.670  1.3428 -0.1498  1.9546
  913MOL0     H23241   7.653   4.851   2.956 -1.2057 -0.4893 -0.0345
  913MOL0     H23242   7.458   4.969   3.063  1.1447 -2.1153  0.4809
  913MOL0     H23243   7.333   5.171   3.160 -1.0370  1.4013  0.8505
  913MOL0     H23244   7.239   5.030   3.089 -3.7547  1.5182  0.3018
  913MOL0     H23245   7.086   5.161   3.192  1.6094 -1.4537 -0.0972
  913MOL0     H23246   7.069   5.177   3.020 -1.8021  0.2169  1.5068
  913MOL0     H23247   7.178   5.408   3.026 -2.1849  0.2453 -1.5432
  913MOL0     H23248   7.189   5.398   3.204  1.5485 -0.5958 -0.6769
  913MOL0     H23249   6.924   5.375   3.069 -0.5876  0.9948 -2.0699
  913MOL0     H23250   6.954   5.404   3.233 -2.5793  1.7392 -0.7316
  913MOL0     H23251   6.982   5.769   3.003 -1.5417  0.6455  1.4573
  913MOL0     H23252   7.455   5.263   2.766  0.3250 -0.7170 -1.2940
  913MOL0     H23253   7.751   5.209   2.633 -0.5069  1.2320  0.7696
  913MOL0     H23254   7.629   5.113   2.533 -1.6092  2.2883 -1.3528
  913MOL0     H23255   7.589   5.271   2.599  0.0269 -0.1092 -0.6789
  914MOL0     O23256   2.475   1.018   1.642  0.2328 -0.2561  0.1649
  914MOL0     C23257   2.454   0.900   1.660  0.2038 -0.5535 -0.0386
  914MOL0     O23258   2.512   0.799   1.599 -0.8948 -0.4947  0.0363
  914MOL0     C23259   2.607   0.832   1.508 -0.9745 -0.1835 -0.5444
  914MOL0     C23260   2.733   0.868   1.556  0.5400  0.9537  0.0886
  914MOL0     C23261   2.827   0.893   1.459 -0.5921  0.2964 -0.3149
  914MOL0     C23262   2.799   0.894   1.322 -0.1244  0.7083  0.2272
  914MOL0     O23263   2.910   0.905   1.233  0.2293  0.1713 -0.2659
  914MOL0     C23264   2.886   0.967   1.106 -0.5449 -0.0863  0.1052
  914MOL0     C23265   3.025   0.997   1.043  0.2240 -0.7643  0.3062
  914MOL0     C23266   3.012   1.041   0.895  0.0375  0.3661 -0.6874
  914MOL0     C23267   3.152   1.069   0.832  0.3824 -0.1509  0.4520
  914MOL0     C23268   3.265   0.971   0.853 -0.3591  0.6923 -1.0334
  914MOL0     C23269   3.217   0.838   0.783  0.4588 -0.3506 -0.3141
  914MOL0     C23270   3.326   0.738   0.807  0.8394 -0.4688  0.4910
  914MOL0     C23271   3.261   0.601   0.776  0.3921 -0.0269  0.3254
  914MOL0     N23272   3.334   0.490   0.836 -0.8433 -0.2868  0.0508
  914MOL0     C23273   3.458   0.452   0.815 -0.1267  0.3583  0.3174
  914MOL0     C23274   3.481   0.338   0.886 -0.9182 -0.5441 -0.3360
  914MOL0     C23275   3.608   0.254   0.882 -0.1332 -0.4332 -0.5099
  914MOL0     C23276   3.639   0.186   0.746  0.0773  0.3059 -0.9763
  914MOL0     C23277   3.754   0.086   0.734 -0.6292  1.0912  0.3835
  914MOL0     C23278   3.744  -0.039   0.824 -0.8587  0.1837 -0.1879
  914MOL0     O23279   3.802  -0.010   0.951  0.0417  0.2924  0.7692
  914MOL0     C23280   3.932  -0.034   0.978  0.2786 -0.3356  0.2207
  914MOL0     C23281   3.969  -0.042   1.115  0.1618 -0.6441  0.1591
  914MOL0     C23282   4.097  -0.058   1.151 -0.7567  0.0001 -0.5938
  914MOL0     C23283   4.195  -0.075   1.059 -0.6317  0.7764 -0.0728
  914MOL0     C23284   4.334  -0.094   1.110 -1.3404  0.4860 -0.4417
  914MOL0     O23285   4.358  -0.098   1.247 -0.1343  0.2592 -0.2753
  914MOL0     C23286   4.488  -0.123   1.286  0.0129  0.0305 -0.0792
  914MOL0     C23287   4.594  -0.040   1.250 -0.1615  0.9432 -0.4935
  914MOL0     C23288   4.719  -0.069   1.298 -0.1431  0.3832 -0.5672
  914MOL0     C23289   4.735  -0.178   1.374 -0.1284 -0.2371  0.1742
  914MOL0     O23290   4.864  -0.205   1.414 -0.1272 -0.4555 -0.9988
  914MOL0     C23291   4.919  -0.338   1.379  0.4603 -1.1994  0.2495
  914MOL0     C23292   5.064  -0.354   1.381  0.3429  0.5493  0.0622
  914MOL0     C23293   5.131  -0.261   1.269 -0.3290 -0.0089 -0.0847
  914MOL0     C23294   5.275  -0.301   1.250 -0.0085 -0.3825 -0.3089
  914MOL0     C23295   5.362  -0.195   1.184 -0.2637 -0.8738 -0.2341
  914MOL0     C23296   5.506  -0.237   1.162 -0.4546  0.6584  0.2571
  914MOL0     C23297   5.596  -0.259   1.292  0.2546  0.0920  0.2227
  914MOL0     C23298   5.742  -0.306   1.264  0.6005  0.4861 -0.2777
  914MOL0    Cl23299   5.819  -0.178   1.171  0.3505  0.1717 -0.1951
  914MOL0     C23300   4.632  -0.268   1.410 -0.3409  0.3163 -0.8637
  914MOL0     C23301   4.509  -0.231   1.364  1.0271 -0.0301  0.2534
  914MOL0     O23302   4.427  -0.119   1.025  0.5438 -0.1560  0.6087
  914MOL0     C23303   4.162  -0.084   0.922 -0.1346  0.1095 -0.5845
  914MOL0     C23304   4.025  -0.059   0.884 -0.4905 -0.2163 -0.0588
  914MOL0     N23305   3.359   0.308   0.951 -0.7010  0.0322 -0.1106
  914MOL0     N23306   3.276   0.403   0.926 -0.0850  0.0857 -0.4723
  914MOL0     C23307   2.672   0.862   1.281 -0.2775  0.2695 -0.6153
  914MOL0     C23308   2.578   0.818   1.373  1.0493 -0.2024 -0.0378
  914MOL0     C23309   2.341   0.863   1.749  0.0406  0.0532  0.1502
  914MOL0     C23310   2.325   0.729   1.776  0.7032 -0.0953  0.1348
  914MOL0     C23311   2.235   0.676   1.874 -0.1452 -1.0912 -0.3583
  914MOL0     C23312   2.148   0.767   1.942  0.5479 -0.1523 -0.0956
  914MOL0     O23313   2.061   0.716   2.027  0.1013  0.1347  0.0358
  914MOL0     C23314   1.947   0.790   2.076  0.0009 -0.2019  0.7465
  914MOL0     C23315   1.934   0.799   2.227 -0.1209  0.7374  0.5928
  914MOL0     C23316   2.025   0.905   2.283 -0.4021  0.8762  0.0548
  914MOL0     C23317   1.972   0.952   2.421 -0.2475  1.0418 -0.4303
  914MOL0     C23318   1.844   1.017   2.415 -0.4451 -0.3072 -0.5871
  914MOL0     C23319   1.739   1.068   2.422 -0.2486  0.1642  0.0792
  914MOL0     C23320   2.157   0.904   1.907 -0.7398 -0.4377 -0.7148
  914MOL0     C23321   2.247   0.949   1.811  0.4790 -0.5713 -0.8108
  914MOL0     C23322   2.249   1.098   1.791  1.0602 -0.4264  0.4096
  914MOL0     H23323   2.763   0.859   1.660 -1.6992 -2.3277  0.5740
  914MOL0     H23324   2.932   0.908   1.485 -0.1287 -1.5311 -0.9904
  914MOL0     H23325   2.825   0.904   1.041  0.7902  1.0478 -2.3385
  914MOL0     H23326   2.837   1.060   1.138 -2.2887 -1.6283  2.3320
  914MOL0     H23327   3.085   0.905   1.046  1.9432  0.3273  1.7556
  914MOL0     H23328   3.067   1.078   1.104 -0.2686 -0.3057  0.0462
  914MOL0     H23329   2.954   1.134   0.891 -1.7901 -0.6829  0.1270
  914MOL0     H23330   2.963   0.959   0.842  0.0060 -0.8455  1.1230
  914MOL0     H23331   3.132   1.090   0.726  1.7840 -2.4901 -0.3328
  914MOL0     H23332   3.181   1.159   0.888 -2.4615 -1.1732  3.8909
  914MOL0     H23333   3.358   0.998   0.802 -0.0465  0.1952 -0.7431
  914MOL0     H23334   3.283   0.955   0.960  0.8320 -1.1705 -1.4638
  914MOL0     H23335   3.119   0.807   0.819  0.1140 -1.9476 -2.4045
  914MOL0     H23336   3.199   0.849   0.676 -1.3602  1.5671  0.1410
  914MOL0     H23337   3.363   0.735   0.910  1.0669  2.7848  0.6068
  914MOL0     H23338   3.402   0.760   0.732 -0.9231 -1.3298 -1.6345
  914MOL0     H23339   3.163   0.598   0.825  0.1199  3.4382  0.2353
  914MOL0     H23340   3.251   0.583   0.669  2.9659 -1.9645  0.3280
  914MOL0     H23341   3.516   0.502   0.738 -1.3575 -1.8486 -2.2359
  914MOL0     H23342   3.701   0.305   0.907 -1.0431 -0.2860  3.1896
  914MOL0     H23343   3.586   0.185   0.964  3.0043 -0.0205  0.8118
  914MOL0     H23344   3.546   0.153   0.698  0.1785  0.1169 -1.0428
  914MOL0     H23345   3.671   0.271   0.684  0.6461  1.9540  1.4092
  914MOL0     H23346   3.856   0.126   0.732 -0.1568  0.1112  2.4963
  914MOL0     H23347   3.743   0.053   0.630  0.3428  1.1097  0.2654
  914MOL0     H23348   3.809  -0.117   0.784  3.0114  1.3571  3.1231
  914MOL0     H23349   3.640  -0.071   0.821 -1.2017  1.0459  1.5147
  914MOL0     H23350   3.894  -0.034   1.193 -1.7703 -3.7273 -1.1781
  914MOL0     H23351   4.126  -0.067   1.256  2.6721 -2.1602 -1.5844
  914MOL0     H23352   4.577   0.050   1.191 -0.6396  0.1848 -1.5334
  914MOL0     H23353   4.808  -0.012   1.275  0.8087 -0.9875 -0.3921
  914MOL0     H23354   4.897  -0.414   1.454 -1.1027 -0.7657  0.2660
  914MOL0     H23355   4.887  -0.373   1.279  0.5217 -0.0278 -0.1916
  914MOL0     H23356   5.108  -0.324   1.477 -0.8635 -2.0487  1.5282
  914MOL0     H23357   5.093  -0.459   1.375  0.1067  0.4760  0.2151
  914MOL0     H23358   5.076  -0.277   1.176  1.6933 -3.3736 -0.8842
  914MOL0     H23359   5.128  -0.157   1.300  1.1373 -0.2427  0.9430
  914MOL0     H23360   5.283  -0.404   1.216  3.0109 -0.9589  1.7371
  914MOL0     H23361   5.315  -0.307   1.352  0.0019  1.8822 -0.1080
  914MOL0     H23362   5.352  -0.099   1.237 -0.0786  0.5410 -2.6132
  914MOL0     H23363   5.318  -0.167   1.088 -0.7906 -1.0731 -0.0543
  914MOL0     H23364   5.503  -0.328   1.102  0.6353  0.9556 -0.2671
  914MOL0     H23365   5.561  -0.158   1.110  1.5961  0.2617  1.7022
  914MOL0     H23366   5.551  -0.336   1.356 -0.7781 -0.8744 -1.5749
  914MOL0     H23367   5.613  -0.169   1.351  2.7647 -1.4334  2.0221
  914MOL0     H23368   5.786  -0.311   1.364  0.3433  0.6550 -0.1534
  914MOL0     H23369   5.736  -0.395   1.201  1.6507  0.5167 -0.4434
  914MOL0     H23370   4.640  -0.363   1.461 -2.3914  1.3516  1.6147
  914MOL0     H23371   4.423  -0.294   1.386 -1.1800  1.8896 -2.2324
  914MOL0     H23372   4.248  -0.101   0.857 -1.1075 -1.2869 -1.5762
  914MOL0     H23373   4.004  -0.068   0.778  1.2441  0.8488 -0.5406
  914MOL0     H23374   2.641   0.871   1.177  0.9331 -1.9107 -1.2294
  914MOL0     H23375   2.476   0.804   1.338  1.3877 -0.5565 -0.9298
  914MOL0     H23376   2.389   0.652   1.735  0.4886  0.0907 -0.5667
  914MOL0     H23377   2.243   0.574   1.910  0.3450 -1.8060 -2.3786
  914MOL0     H23378   1.862   0.726   2.048 -0.0958 -0.4486  1.5807
  914MOL0     H23379   1.933   0.884   2.021  1.2804 -0.5909 -0.3101
  914MOL0     H23380   1.954   0.696   2.258  0.1419  0.6590  0.1746
  914MOL0     H23381   1.832   0.820   2.258 -0.1690  0.3454  0.7050
  914MOL0     H23382   2.035   0.985   2.209 -0.7594  0.0549 -0.9155
  914MOL0     H23383   2.123   0.860   2.303 -1.8666 -1.4061  2.8232
  914MOL0     H23384   1.951   0.864   2.483  1.0361 -0.3369 -1.8342
  914MOL0     H23385   2.047   1.023   2.457  0.3140  1.2896 -1.9686
  914MOL0     H23386   1.650   1.123   2.443  1.8991  3.1986  2.0612
  914MOL0     H23387   2.097   0.982   1.953  1.0721 -0.9359  2.8356
  914MOL0     H23388   2.345   1.145   1.816  0.3331  1.5215 -0.2566
  914MOL0     H23389   2.229   1.109   1.684 -1.1878  0.0631  0.8274
  914MOL0     H23390   2.176   1.156   1.848 -0.0318 -1.8446  0.5053
  915MOL0     O23391   5.401   7.075   2.246 -0.5803 -0.4331 -0.0545
  915MOL0     C23392   5.329   7.074   2.346 -0.3957 -0.5210 -0.3036
  915MOL0     O23393   5.370   7.101   2.474  0.5601 -0.4540 -0.2756
  915MOL0     C23394   5.492   7.168   2.488  0.7781  0.2829 -0.4643
  915MOL0     C23395   5.602   7.089   2.508 -1.4150  0.4741 -1.0001
  915MOL0     C23396   5.715   7.153   2.545 -0.1028  0.3204 -0.1313
  915MOL0     C23397   5.725   7.296   2.544 -0.0972  0.0443  0.5088
  915MOL0     O23398   5.836   7.361   2.582  0.1951  0.4939  0.1316
  915MOL0     C23399   5.823   7.500   2.627  0.0995  0.3625  0.4787
  915MOL0     C23400   5.945   7.530   2.715  0.1549 -0.4511 -0.2072
  915MOL0     C23401   6.079   7.538   2.644 -0.5121 -0.1314 -0.2457
  915MOL0     C23402   6.183   7.575   2.750 -0.7250  0.0326 -0.1433
  915MOL0     C23403   6.323   7.590   2.696 -0.4363  0.4466  0.4627
  915MOL0     C23404   6.422   7.642   2.808  0.3690  0.4966 -0.4706
  915MOL0     C23405   6.564   7.658   2.774 -0.5718 -0.4402  0.9379
  915MOL0     C23406   6.597   7.793   2.691  0.2481 -0.4382 -0.8792
  915MOL0     N23407   6.739   7.814   2.670  0.5917 -0.0368 -0.3492
  915MOL0     C23408   6.829   7.856   2.756  0.5640  0.2403  0.6123
  915MOL0     C23409   6.946   7.833   2.702 -0.3091  0.1123  0.5408
  915MOL0     C23410   7.085   7.854   2.767  0.1006  0.2268 -0.6694
  915MOL0     C23411   7.137   7.708   2.793  0.6691  0.4806  0.3202
  915MOL0     C23412   7.287   7.704   2.832 -0.1643  0.3216  0.4772
  915MOL0     C23413   7.348   7.559   2.878 -0.2057 -1.0661 -0.3063
  915MOL0     O23414   7.491   7.569   2.916  0.3274  0.0869 -0.2362
  915MOL0     C23415   7.588   7.551   2.825  0.2815  0.0449  0.1716
  915MOL0     C23416   7.724   7.543   2.874  0.5248  0.3623 -0.0134
  915MOL0     C23417   7.824   7.520   2.786  0.0544 -0.1240 -0.2178
  915MOL0     C23418   7.804   7.509   2.649  0.1181 -0.5306 -0.2067
  915MOL0     C23419   7.919   7.497   2.558  0.1299  0.6287  0.6474
  915MOL0     O23420   8.035   7.541   2.598 -0.3217 -0.5101 -0.9660
  915MOL0     C23421   8.149   7.553   2.518  0.6154  0.2241 -0.2637
  915MOL0     C23422   8.163   7.677   2.454 -0.1495 -0.1477 -0.4743
  915MOL0     C23423   8.271   7.698   2.364 -0.2386  0.0847  0.8008
  915MOL0     C23424   8.351   7.595   2.325 -0.2076  0.2505  0.2612
  915MOL0     O23425   8.446   7.616   2.225 -0.4082 -0.2474 -0.3118
  915MOL0     C23426   8.574   7.557   2.236  0.7441  0.5630 -1.2143
  915MOL0     C23427   8.682   7.668   2.212  0.0272 -0.5679  0.1777
  915MOL0     C23428   8.676   7.787   2.314 -0.0873  0.0475  0.3750
  915MOL0     C23429   8.750   7.906   2.254 -0.0805 -1.0729 -0.0276
  915MOL0     C23430   8.753   8.022   2.352  0.0598  0.3171 -0.6075
  915MOL0     C23431   8.834   7.988   2.486  0.4535 -0.7911  0.6308
  915MOL0     C23432   8.958   7.905   2.468 -0.4293  0.2694  0.1663
  915MOL0     C23433   9.073   7.975   2.388 -0.1679  0.1224  0.7248
  915MOL0    Cl23434   9.122   8.119   2.476 -0.4560  0.6512  0.3492
  915MOL0     C23435   8.327   7.467   2.382  1.1727 -0.5678  0.2750
  915MOL0     C23436   8.232   7.450   2.482 -0.8555 -0.1849  0.1020
  915MOL0     O23437   7.903   7.443   2.443 -0.3395 -0.3917  0.3074
  915MOL0     C23438   7.672   7.526   2.593 -0.8394  0.4944 -0.0464
  915MOL0     C23439   7.566   7.546   2.683 -0.1491  0.6768  0.6656
  915MOL0     N23440   6.924   7.786   2.572 -0.1115  0.6097 -0.2592
  915MOL0     N23441   6.797   7.770   2.557 -0.9666  0.0720 -0.4310
  915MOL0     C23442   5.608   7.376   2.506 -0.9695  0.1334 -1.1172
  915MOL0     C23443   5.495   7.307   2.477  0.2829 -0.0116  0.4679
  915MOL0     C23444   5.184   7.042   2.322  0.0222  0.0376  0.3148
  915MOL0     C23445   5.101   7.077   2.428  0.1322  0.5405 -0.0243
  915MOL0     C23446   4.962   7.061   2.422  0.6768 -0.7599  0.4543
  915MOL0     C23447   4.907   7.018   2.303  0.3692  0.4723 -0.4892
  915MOL0     O23448   4.770   6.992   2.308  0.0458 -0.6972 -1.2267
  915MOL0     C23449   4.699   6.962   2.190 -0.2593  0.2535  0.5422
  915MOL0     C23450   4.555   6.940   2.242 -0.1342 -0.3457 -0.5026
  915MOL0     C23451   4.489   7.074   2.274  0.1471  0.5566  0.2433
  915MOL0     C23452   4.347   7.070   2.329 -0.1491 -0.0349 -0.5788
  915MOL0     C23453   4.343   6.996   2.459  0.7841 -0.0687 -0.0808
  915MOL0     C23454   4.335   6.947   2.575 -0.7278 -0.8726 -0.3775
  915MOL0     C23455   4.986   6.978   2.197 -0.1848  0.3482  0.3543
  915MOL0     C23456   5.124   6.995   2.198 -0.0848 -0.0231 -0.3864
  915MOL0     C23457   5.202   6.981   2.068  0.2336  0.3762  0.0766
  915MOL0     H23458   5.609   6.981   2.503 -0.5404  0.4752 -0.1316
  915MOL0     H23459   5.810   7.103   2.561  0.5040  1.3198 -0.5381
  915MOL0     H23460   5.838   7.547   2.529  0.1383 -1.8524 -0.6485
  915MOL0     H23461   5.731   7.525   2.680 -2.3661  0.3660 -3.3603
  915MOL0     H23462   5.946   7.450   2.790 -0.5245 -1.7020 -1.4807
  915MOL0     H23463   5.941   7.627   2.765 -2.3726 -0.0435 -1.0301
  915MOL0     H23464   6.073   7.622   2.574 -1.6488  0.0307  0.0333
  915MOL0     H23465   6.112   7.446   2.595  1.4223 -1.1695  2.7087
  915MOL0     H23466   6.159   7.667   2.805 -0.7610 -1.0221  1.6612
  915MOL0     H23467   6.191   7.499   2.828  2.7157  0.2066 -0.2001
  915MOL0     H23468   6.354   7.490   2.665 -1.9040  1.4747 -5.8535
  915MOL0     H23469   6.326   7.651   2.604  0.8640  0.8813  0.7704
  915MOL0     H23470   6.389   7.738   2.850  0.9709 -0.5126  2.6252
  915MOL0     H23471   6.410   7.572   2.891 -0.1791  0.7991 -0.2885
  915MOL0     H23472   6.598   7.571   2.717 -1.4697  1.7494 -3.4266
  915MOL0     H23473   6.625   7.671   2.863  1.3708  0.6078 -0.4846
  915MOL0     H23474   6.554   7.790   2.590 -0.4004 -2.9988 -0.6020
  915MOL0     H23475   6.549   7.874   2.746 -0.6058 -0.7627 -1.1256
  915MOL0     H23476   6.822   7.894   2.857  2.4139  4.0819 -0.5383
  915MOL0     H23477   7.152   7.906   2.697 -0.0753 -3.7672 -4.2354
  915MOL0     H23478   7.075   7.902   2.864  2.0427  0.2482 -0.4400
  915MOL0     H23479   7.078   7.663   2.873  2.1007 -1.0779  0.5587
  915MOL0     H23480   7.132   7.652   2.699  4.2911  1.2120 -0.4545
  915MOL0     H23481   7.299   7.769   2.919  1.1422 -1.7300  1.9330
  915MOL0     H23482   7.341   7.748   2.748 -0.5693  0.5546  0.3370
  915MOL0     H23483   7.334   7.490   2.795 -1.3445 -0.5778 -0.5416
  915MOL0     H23484   7.306   7.518   2.970 -3.0384  0.0120 -1.0140
  915MOL0     H23485   7.736   7.546   2.982  1.1706  2.6004 -0.0924
  915MOL0     H23486   7.922   7.496   2.828  0.8047  1.4656 -0.9622
  915MOL0     H23487   8.095   7.761   2.463 -0.3514  0.0868 -3.2414
  915MOL0     H23488   8.278   7.794   2.312  0.2501 -0.3161  0.1178
  915MOL0     H23489   8.591   7.520   2.338  1.5348  1.7207 -0.9049
  915MOL0     H23490   8.578   7.487   2.152  0.4326  0.2181 -0.9458
  915MOL0     H23491   8.773   7.611   2.233  0.2341  0.0705  1.0834
  915MOL0     H23492   8.682   7.700   2.108  2.5939  0.0314  0.2807
  915MOL0     H23493   8.576   7.820   2.345  0.7160  3.9163 -0.5692
  915MOL0     H23494   8.713   7.753   2.411 -3.0029  0.7109  1.8553
  915MOL0     H23495   8.699   7.942   2.163 -0.9480  1.8470  1.4858
  915MOL0     H23496   8.853   7.884   2.225  1.0495  0.5202  2.4830
  915MOL0     H23497   8.650   8.052   2.373 -0.1242  0.0708 -1.1434
  915MOL0     H23498   8.805   8.104   2.302  3.0205 -0.4993  0.8855
  915MOL0     H23499   8.861   8.074   2.548  0.3167 -1.1371  1.1780
  915MOL0     H23500   8.764   7.931   2.548  0.1950 -2.5729 -1.1948
  915MOL0     H23501   8.936   7.812   2.414  1.3756 -0.5957  0.8701
  915MOL0     H23502   9.004   7.892   2.566  0.0145 -1.5908 -0.2465
  915MOL0     H23503   9.159   7.907   2.387  0.1195  0.4561 -1.7640
  915MOL0     H23504   9.055   7.995   2.282  1.3080 -1.8286  0.0389
  915MOL0     H23505   8.364   7.378   2.333 -0.8112 -1.2910  0.0240
  915MOL0     H23506   8.203   7.353   2.523  0.3835  0.2100  2.0527
  915MOL0     H23507   7.658   7.513   2.486 -3.0795  0.8569  0.1631
  915MOL0     H23508   7.471   7.559   2.632 -1.4913 -0.7220  2.6858
  915MOL0     H23509   5.595   7.483   2.502  1.3545  0.4846 -0.8646
  915MOL0     H23510   5.401   7.356   2.453 -0.8341 -1.8597  0.8888
  915MOL0     H23511   5.146   7.093   2.525  1.8679 -2.6598 -0.1734
  915MOL0     H23512   4.891   7.092   2.499 -1.9179 -0.7660 -1.7972
  915MOL0     H23513   4.732   6.868   2.145 -0.9255 -0.1337  0.8296
  915MOL0     H23514   4.697   7.045   2.119  1.2557 -1.2563 -1.3391
  915MOL0     H23515   4.556   6.871   2.327  2.0206 -1.2225 -1.1906
  915MOL0     H23516   4.494   6.895   2.163 -0.5747 -0.1606 -0.2723
  915MOL0     H23517   4.489   7.125   2.177  0.3971 -1.9520 -1.1810
  915MOL0     H23518   4.553   7.122   2.348 -0.7307 -0.5037  1.7529
  915MOL0     H23519   4.310   7.172   2.344 -0.6139 -0.4821  1.6311
  915MOL0     H23520   4.283   7.025   2.253 -2.3799  1.3936  0.3637
  915MOL0     H23521   4.322   6.900   2.671  0.5462 -1.0752 -0.2874
  915MOL0     H23522   4.946   6.954   2.099  2.0491  2.1835 -1.1249
  915MOL0     H23523   5.134   6.936   1.994  1.2753  0.0337 -0.6848
  915MOL0     H23524   5.222   7.084   2.038  1.6162  0.6752  1.9176
  915MOL0     H23525   5.292   6.921   2.073 -1.4491 -2.3765 -0.5235
  916MOL0     O23526  11.182   7.462   6.922  0.4793  0.2885  0.2831
  916MOL0     C23527  11.123   7.438   7.024 -0.0249 -0.4975  0.4189
  916MOL0     O23528  11.155   7.500   7.144  0.6501 -0.5040 -0.1306
  916MOL0     C23529  11.259   7.591   7.142  0.5608 -0.0403  1.1887
  916MOL0     C23530  11.382   7.532   7.183  0.3807  0.4250 -0.2701
  916MOL0     C23531  11.505   7.607   7.164  0.4182 -0.7157  0.0208
  916MOL0     C23532  11.500   7.741   7.114 -0.8023  0.4243  0.6159
  916MOL0     O23533  11.602   7.826   7.094 -0.7392  0.2202  0.2418
  916MOL0     C23534  11.711   7.824   7.181  0.7194 -0.2520  0.8741
  916MOL0     C23535  11.820   7.912   7.127 -0.3085  0.3902 -0.1014
  916MOL0     C23536  11.968   7.884   7.168 -0.5388 -0.7414 -0.5199
  916MOL0     C23537  12.023   7.774   7.081 -0.3128  0.1588 -0.2783
  916MOL0     C23538  12.164   7.755   7.131 -0.7587  0.0421  0.0289
  916MOL0     C23539  12.271   7.857   7.095 -0.9044 -0.5207 -0.3655
  916MOL0     C23540  12.409   7.804   7.116  0.1995 -0.7798  0.5035
  916MOL0     C23541  12.501   7.915   7.063 -0.2363  0.0881  0.1547
  916MOL0     N23542  12.647   7.875   7.083  0.9644 -0.2039  0.7422
  916MOL0     C23543  12.717   7.894   7.197  0.3048 -0.2182  0.3279
  916MOL0     C23544  12.837   7.835   7.168 -0.6130  0.7459 -0.3488
  916MOL0     C23545  12.958   7.813   7.262 -0.2579  0.4218  0.7554
  916MOL0     C23546  13.077   7.888   7.200 -0.8542  0.3828 -0.5298
  916MOL0     C23547  13.207   7.885   7.292  0.0059 -0.0544 -0.4730
  916MOL0     C23548  13.318   7.981   7.235  1.0870  0.3322  0.2366
  916MOL0     O23549  13.431   7.986   7.326  0.3972  0.4243  0.4580
  916MOL0     C23550  13.534   8.075   7.302  0.5304  0.0300 -0.8553
  916MOL0     C23551  13.555   8.136   7.179  0.8067 -0.8914  0.1558
  916MOL0     C23552  13.658   8.209   7.152 -0.1703 -0.6609  0.0274
  916MOL0     C23553  13.750   8.238   7.263 -0.3320  0.3228 -0.6162
  916MOL0     C23554  13.855   8.333   7.252 -0.5353  0.5020 -0.6649
  916MOL0     O23555  13.955   8.322   7.349  0.2158 -0.1710  0.3446
  916MOL0     C23556  14.060   8.403   7.351 -0.9521  0.7800 -0.0629
  916MOL0     C23557  14.127   8.418   7.475  0.4695 -1.7326 -0.1900
  916MOL0     C23558  14.238   8.497   7.488  0.5968  0.0605  0.7715
  916MOL0     C23559  14.289   8.567   7.376  0.4912  0.2368 -0.3236
  916MOL0     O23560  14.405   8.628   7.398  0.7566  0.1979  0.6149
  916MOL0     C23561  14.485   8.655   7.291 -0.6239  0.1155  0.1940
  916MOL0     C23562  14.624   8.709   7.334 -0.9005 -0.2412 -0.2264
  916MOL0     C23563  14.687   8.654   7.466  0.0736 -0.4983 -0.0307
  916MOL0     C23564  14.839   8.686   7.466  0.1266  0.0539 -0.3013
  916MOL0     C23565  14.878   8.655   7.613 -0.4382 -0.7385 -0.6868
  916MOL0     C23566  15.028   8.667   7.648 -0.2984 -0.0866 -0.8444
  916MOL0     C23567  15.084   8.811   7.607  0.8547  0.2226 -0.5319
  916MOL0     C23568  15.214   8.848   7.675  0.6685 -0.9522 -0.3536
  916MOL0    Cl23569  15.338   8.724   7.626 -0.3843 -0.0435  0.0153
  916MOL0     C23570  14.225   8.549   7.252  0.1803 -0.6230 -0.5294
  916MOL0     C23571  14.120   8.464   7.238  0.4441 -0.0381 -0.1814
  916MOL0     O23572  13.855   8.413   7.154  0.1695 -0.0895 -0.6489
  916MOL0     C23573  13.736   8.176   7.389 -0.7207 -0.0012  0.0398
  916MOL0     C23574  13.628   8.094   7.404  0.5460 -0.4546 -0.0268
  916MOL0     N23575  12.838   7.793   7.036  0.0198  0.1614  0.5554
  916MOL0     N23576  12.723   7.811   6.991 -0.2748  0.9467 -0.3947
  916MOL0     C23577  11.378   7.791   7.065  0.0623  0.9397 -0.1413
  916MOL0     C23578  11.262   7.721   7.076 -0.4760  0.1086 -0.7119
  916MOL0     C23579  11.041   7.314   7.040  0.5836 -0.1766 -0.9088
  916MOL0     C23580  11.015   7.269   7.172 -0.6294 -0.0376  1.1430
  916MOL0     C23581  10.924   7.168   7.197  0.2086 -0.4735 -0.5520
  916MOL0     C23582  10.874   7.094   7.091  0.0722 -1.0982 -0.6276
  916MOL0     O23583  10.799   6.987   7.132  0.5296 -0.3214 -0.1050
  916MOL0     C23584  10.745   6.896   7.035  0.2505 -0.8570 -0.2682
  916MOL0     C23585  10.705   6.774   7.120  0.0604 -0.1256 -0.4974
  916MOL0     C23586  10.572   6.775   7.197  0.3944  0.0426  0.2486
  916MOL0     C23587  10.481   6.660   7.151 -1.1118  0.2830 -0.6434
  916MOL0     C23588  10.433   6.675   7.016 -0.4543 -0.6950 -0.2867
  916MOL0     C23589  10.404   6.695   6.900 -0.6376  0.0448  0.4087
  916MOL0     C23590  10.891   7.142   6.954  0.3812 -0.5209  0.3552
  916MOL0     C23591  10.973   7.251   6.927  0.6622 -0.4148 -0.2559
  916MOL0     C23592  10.978   7.300   6.781 -0.0574 -1.2026 -0.7583
  916MOL0     H23593  11.371   7.435   7.229 -3.1870  2.0340  2.8185
  916MOL0     H23594  11.600   7.569   7.199  1.0542  0.0115 -0.8715
  916MOL0     H23595  11.669   7.876   7.268 -3.4280  0.6280 -1.3729
  916MOL0     H23596  11.753   7.725   7.201 -2.3443 -1.0791  4.4562
  916MOL0     H23597  11.798   8.014   7.159 -0.8470  0.4266 -0.5594
  916MOL0     H23598  11.812   7.923   7.018 -1.8746 -1.1451 -0.1902
  916MOL0     H23599  11.976   7.864   7.275 -2.3817  4.3774  0.8739
  916MOL0     H23600  12.019   7.980   7.157  0.7312 -1.3177  0.1557
  916MOL0     H23601  11.972   7.678   7.094 -0.2146 -0.0067 -1.0810
  916MOL0     H23602  12.033   7.793   6.974 -0.2485 -1.1974 -0.5322
  916MOL0     H23603  12.154   7.738   7.239  0.3014 -2.5909 -0.2190
  916MOL0     H23604  12.210   7.662   7.096  1.3822  1.5382 -1.4221
  916MOL0     H23605  12.248   7.879   6.990 -0.9572 -0.8536 -0.4243
  916MOL0     H23606  12.259   7.948   7.154 -1.0452 -0.1302 -0.9836
  916MOL0     H23607  12.428   7.711   7.061  1.5503 -0.3182  0.1492
  916MOL0     H23608  12.420   7.775   7.221 -1.6391 -1.1132  0.6423
  916MOL0     H23609  12.490   7.913   6.954  0.4662 -4.5182 -0.0366
  916MOL0     H23610  12.471   8.012   7.104 -1.2583 -0.4216  0.6566
  916MOL0     H23611  12.677   7.930   7.291 -0.2625  1.2253 -0.4452
  916MOL0     H23612  12.929   7.845   7.362 -0.8845  3.3463 -0.2556
  916MOL0     H23613  12.977   7.705   7.257  1.0010  0.6053  1.3124
  916MOL0     H23614  13.096   7.848   7.100 -1.2563  0.6835 -0.7291
  916MOL0     H23615  13.050   7.994   7.198  0.0787  0.6502  0.2997
  916MOL0     H23616  13.252   7.788   7.317 -2.0321 -1.0411 -0.4690
  916MOL0     H23617  13.184   7.934   7.388 -0.3845 -0.4142 -0.3826
  916MOL0     H23618  13.277   8.082   7.226  0.7313  0.2992  1.3235
  916MOL0     H23619  13.349   7.953   7.134 -0.3517  0.2778 -0.2068
  916MOL0     H23620  13.493   8.113   7.092 -1.5847 -1.4826  1.9194
  916MOL0     H23621  13.661   8.273   7.064 -0.4820 -0.2224  0.3302
  916MOL0     H23622  14.090   8.362   7.560  0.8840 -0.0124  1.1749
  916MOL0     H23623  14.284   8.521   7.583  0.2050  1.2175  0.6862
  916MOL0     H23624  14.509   8.567   7.232  3.9239  0.0607  1.7443
  916MOL0     H23625  14.438   8.738   7.236  0.1040 -0.1053 -0.7812
  916MOL0     H23626  14.691   8.717   7.248  1.7515 -2.2826  1.5027
  916MOL0     H23627  14.606   8.813   7.365  1.3324  0.9569 -2.5406
  916MOL0     H23628  14.641   8.694   7.557 -0.2006  2.2762 -1.2934
  916MOL0     H23629  14.672   8.547   7.449 -0.4176  0.0786 -4.2614
  916MOL0     H23630  14.849   8.792   7.441 -1.7215  0.8580  2.0512
  916MOL0     H23631  14.883   8.624   7.387 -1.8194  0.7222 -2.0294
  916MOL0     H23632  14.843   8.553   7.634 -1.3530 -0.8683 -2.5967
  916MOL0     H23633  14.820   8.721   7.679 -4.0615 -1.6946 -2.6159
  916MOL0     H23634  15.037   8.649   7.755  1.8254 -2.4160 -1.3306
  916MOL0     H23635  15.093   8.599   7.592  2.3265  0.0839  1.7644
  916MOL0     H23636  15.011   8.888   7.635 -0.2848 -0.0129 -2.6619
  916MOL0     H23637  15.092   8.819   7.499  1.6103  1.9146 -0.3803
  916MOL0     H23638  15.240   8.951   7.651  0.4127 -0.4886  1.2209
  916MOL0     H23639  15.204   8.842   7.784 -0.2891 -2.4553 -0.4967
  916MOL0     H23640  14.258   8.595   7.160 -0.9884  1.4366  0.0182
  916MOL0     H23641  14.079   8.453   7.138 -0.9540  1.6045  0.1562
  916MOL0     H23642  13.797   8.183   7.479 -2.7138 -1.7554  1.6117
  916MOL0     H23643  13.612   8.043   7.498  0.3147 -3.0259 -1.3593
  916MOL0     H23644  11.378   7.889   7.019 -2.3803  1.2825  0.4830
  916MOL0     H23645  11.174   7.747   7.019 -0.8535 -0.9626 -0.6453
  916MOL0     H23646  11.078   7.295   7.257  0.9155 -1.0043  0.3516
  916MOL0     H23647  10.907   7.155   7.303 -0.3453  1.3611 -0.3798
  916MOL0     H23648  10.819   6.867   6.960 -1.3981 -0.9858 -1.9153
  916MOL0     H23649  10.659   6.939   6.983  0.2797  0.4558  0.7047
  916MOL0     H23650  10.783   6.768   7.196  0.5256  1.4480 -0.8020
  916MOL0     H23651  10.704   6.684   7.058 -0.3601 -0.1369 -0.4799
  916MOL0     H23652  10.526   6.874   7.197  0.6252  0.1539  0.9900
  916MOL0     H23653  10.600   6.750   7.299  2.4890 -0.3807 -0.3917
  916MOL0     H23654  10.532   6.564   7.164  0.9041  1.4321  0.4511
  916MOL0     H23655  10.392   6.659   7.216 -2.2941 -1.1436 -2.2070
  916MOL0     H23656  10.383   6.730   6.802  2.0040 -0.3876 -0.4037
  916MOL0     H23657  10.828   7.098   6.878 -3.2510  0.4666  2.5453
  916MOL0     H23658  10.915   7.252   6.706  2.4581 -2.7196 -2.0515
  916MOL0     H23659  10.976   7.408   6.768 -1.9515 -1.2366 -0.9442
  916MOL0     H23660  11.078   7.269   6.750  0.8904  0.5092  0.3974
  917MOL0     O23661   5.055   3.283   9.132 -0.2912 -1.0302  0.2835
  917MOL0     C23662   5.028   3.404   9.146 -0.2775  0.6208 -1.3793
  917MOL0     O23663   5.092   3.502   9.095  0.5070 -0.0606 -0.2387
  917MOL0     C23664   5.215   3.491   9.036 -0.3961  0.5812 -0.1756
  917MOL0     C23665   5.247   3.597   8.951  0.3548  0.5556  0.1514
  917MOL0     C23666   5.377   3.609   8.895  0.6192  0.1747  0.0467
  917MOL0     C23667   5.472   3.516   8.936 -0.3248 -0.5375  1.0736
  917MOL0     O23668   5.602   3.535   8.898 -0.5359  0.1499  0.4368
  917MOL0     C23669   5.658   3.634   8.983  0.5157  0.7750  0.4586
  917MOL0     C23670   5.791   3.681   8.918 -0.6946 -0.0447 -0.9464
  917MOL0     C23671   5.852   3.781   9.023 -0.8519  0.0948  0.1676
  917MOL0     C23672   6.007   3.789   9.008 -0.4973  1.1801 -0.7238
  917MOL0     C23673   6.077   3.851   9.134  0.2812 -1.1283 -0.2624
  917MOL0     C23674   6.064   3.771   9.263 -0.2449  0.1247 -0.0189
  917MOL0     C23675   6.093   3.616   9.256  0.4190 -0.3616 -1.0005
  917MOL0     C23676   6.090   3.541   9.395 -0.8342 -0.0024 -0.7922
  917MOL0     N23677   6.132   3.402   9.393  0.6179  0.5189  0.8401
  917MOL0     C23678   6.130   3.311   9.289 -0.8957 -0.1620 -0.6491
  917MOL0     C23679   6.188   3.198   9.339  0.6983  0.2330  0.6457
  917MOL0     C23680   6.217   3.071   9.264 -0.6128 -0.1852  0.0162
  917MOL0     C23681   6.289   3.086   9.139 -0.1527 -0.1403  0.0936
  917MOL0     C23682   6.429   3.152   9.144 -0.0063 -0.8065 -0.1040
  917MOL0     C23683   6.530   3.090   9.243  0.9460  0.1093 -0.9680
  917MOL0     O23684   6.563   2.970   9.189  0.4062 -0.5187 -0.0313
  917MOL0     C23685   6.685   2.909   9.212  0.2371  0.1806  0.0445
  917MOL0     C23686   6.759   2.914   9.335  0.5555  0.5882  0.1001
  917MOL0     C23687   6.889   2.848   9.344  0.0322 -0.4902  0.3588
  917MOL0     C23688   6.937   2.782   9.232 -1.0696 -0.9793 -0.2203
  917MOL0     C23689   7.057   2.708   9.255  0.2803  0.2948  0.1431
  917MOL0     O23690   7.110   2.635   9.147  0.1867  0.1265 -0.1398
  917MOL0     C23691   7.229   2.570   9.152  0.0956 -0.0257  0.8089
  917MOL0     C23692   7.337   2.640   9.201 -0.6583 -0.5517  0.7532
  917MOL0     C23693   7.462   2.574   9.201 -0.9151 -0.4537  0.4991
  917MOL0     C23694   7.480   2.448   9.152 -1.5973 -0.5883  0.2796
  917MOL0     O23695   7.596   2.379   9.152  0.3546  0.4150  0.8130
  917MOL0     C23696   7.714   2.454   9.189 -0.3570  0.4377  0.8072
  917MOL0     C23697   7.827   2.366   9.232 -0.2088  0.4308 -0.2716
  917MOL0     C23698   7.889   2.302   9.111 -0.5409 -0.5982 -0.1992
  917MOL0     C23699   8.020   2.248   9.154  1.3078  0.2170 -0.1261
  917MOL0     C23700   8.094   2.190   9.035 -0.5610  0.7288  1.1999
  917MOL0     C23701   8.221   2.117   9.073 -0.2273  0.2679  0.1255
  917MOL0     C23702   8.292   2.055   8.951 -0.7326  0.8692 -0.2925
  917MOL0     C23703   8.440   2.014   8.970 -0.3282  0.5704  0.2691
  917MOL0    Cl23704   8.475   1.912   9.113 -0.2309 -0.0836  0.0093
  917MOL0     C23705   7.369   2.381   9.110  0.3859 -0.0191  0.3857
  917MOL0     C23706   7.241   2.436   9.114 -0.5525 -0.0630  0.6867
  917MOL0     O23707   7.109   2.711   9.366  0.3221 -0.0568  0.1326
  917MOL0     C23708   6.866   2.776   9.115  0.6240  0.1604 -0.4329
  917MOL0     C23709   6.738   2.836   9.109 -0.6297 -0.5204 -0.1953
  917MOL0     N23710   6.231   3.230   9.463 -0.0187 -0.8819  0.0579
  917MOL0     N23711   6.211   3.352   9.492 -0.1441 -0.0581 -0.1614
  917MOL0     C23712   5.447   3.407   9.016 -0.0530  0.5570 -0.3010
  917MOL0     C23713   5.318   3.392   9.072 -0.1639  0.0184  1.2267
  917MOL0     C23714   4.897   3.438   9.215 -0.1033 -0.5135 -0.2739
  917MOL0     C23715   4.858   3.367   9.334 -0.2629 -0.6817  1.0140
  917MOL0     C23716   4.761   3.431   9.410  0.0023  0.0510 -0.3428
  917MOL0     C23717   4.673   3.528   9.364 -0.3367  0.3376 -0.1008
  917MOL0     O23718   4.571   3.566   9.449  0.3952  0.8235 -0.1238
  917MOL0     C23719   4.495   3.685   9.408 -0.5108  0.5041 -0.4893
  917MOL0     C23720   4.376   3.658   9.313 -0.1598  0.9879 -0.7822
  917MOL0     C23721   4.259   3.590   9.393  0.0255 -0.5304  0.5429
  917MOL0     C23722   4.134   3.564   9.310 -0.6136 -0.1832 -0.6853
  917MOL0     C23723   4.020   3.653   9.355 -0.4477 -0.0497 -0.0759
  917MOL0     C23724   3.920   3.725   9.375 -1.2814 -0.6702 -0.3493
  917MOL0     C23725   4.695   3.579   9.238 -0.8000 -0.6278  0.3980
  917MOL0     C23726   4.809   3.540   9.162 -0.3282 -0.3591  0.1873
  917MOL0     C23727   4.817   3.612   9.027  0.1464 -0.2857  0.1345
  917MOL0     H23728   5.172   3.674   8.937 -0.6214 -0.6406 -1.5459
  917MOL0     H23729   5.405   3.686   8.823  2.3047 -1.4022 -1.0734
  917MOL0     H23730   5.590   3.719   8.984 -0.3716  0.1050 -0.3069
  917MOL0     H23731   5.681   3.591   9.081 -2.0979  3.0824  2.1970
  917MOL0     H23732   5.781   3.721   8.816 -1.4378  3.2214  0.2832
  917MOL0     H23733   5.854   3.591   8.915  0.5686  0.6523  1.8979
  917MOL0     H23734   5.840   3.742   9.124  3.4221 -1.3197  0.3574
  917MOL0     H23735   5.806   3.880   9.019 -1.2701  0.3268  5.0449
  917MOL0     H23736   6.046   3.687   8.999 -2.4524 -0.2652  4.2589
  917MOL0     H23737   6.026   3.855   8.922 -0.4072  2.2476  0.1054
  917MOL0     H23738   6.184   3.867   9.114  0.3888 -2.3916 -0.7904
  917MOL0     H23739   6.038   3.952   9.148 -0.4046 -1.7250  3.1191
  917MOL0     H23740   6.137   3.810   9.335 -0.7274 -0.7160  0.9434
  917MOL0     H23741   5.966   3.793   9.307  0.1963  1.3527  0.4143
  917MOL0     H23742   6.191   3.599   9.211  1.3686 -2.5867  1.6428
  917MOL0     H23743   6.020   3.563   9.194 -4.5856  3.6491  0.7497
  917MOL0     H23744   6.149   3.598   9.467 -0.3581 -0.2409 -0.9899
  917MOL0     H23745   5.986   3.543   9.430 -0.1487 -2.1308  1.5814
  917MOL0     H23746   6.093   3.319   9.187 -0.7554 -1.9419 -0.8696
  917MOL0     H23747   6.268   3.007   9.336 -0.8487  0.1125  0.4484
  917MOL0     H23748   6.123   3.019   9.243 -0.9201 -0.1695  1.3158
  917MOL0     H23749   6.298   2.989   9.091 -1.4740  0.2686 -1.0723
  917MOL0     H23750   6.232   3.145   9.066 -0.4939  0.5652  0.9075
  917MOL0     H23751   6.404   3.251   9.184 -1.2013 -0.6959 -1.0358
  917MOL0     H23752   6.476   3.144   9.045 -1.1357 -1.9627 -0.5807
  917MOL0     H23753   6.491   3.082   9.345 -4.9732  0.9392 -2.8133
  917MOL0     H23754   6.615   3.157   9.261  0.5301  0.9388 -2.0339
  917MOL0     H23755   6.736   2.968   9.426  1.4530  1.4656 -0.1783
  917MOL0     H23756   6.939   2.854   9.440  2.3165  0.5789 -0.8357
  917MOL0     H23757   7.341   2.746   9.221  1.8908  0.0907 -2.3898
  917MOL0     H23758   7.544   2.634   9.239 -2.4415  0.6692  2.1782
  917MOL0     H23759   7.757   2.517   9.110  0.2323  1.1027  1.6505
  917MOL0     H23760   7.694   2.518   9.275 -0.4199 -2.2505  2.9031
  917MOL0     H23761   7.899   2.427   9.287 -1.3100 -0.4702  2.3524
  917MOL0     H23762   7.794   2.290   9.304 -0.3781  3.0609  2.6523
  917MOL0     H23763   7.825   2.244   9.044 -0.5759  0.1946 -0.8735
  917MOL0     H23764   7.911   2.386   9.044 -1.2831 -0.5314 -0.3693
  917MOL0     H23765   8.004   2.180   9.238  2.3722 -0.3011 -0.3222
  917MOL0     H23766   8.088   2.324   9.194 -0.3223  1.6816  0.0039
  917MOL0     H23767   8.105   2.268   8.959  0.6889 -0.6482 -0.1020
  917MOL0     H23768   8.032   2.114   8.987  1.1653  0.4489 -0.7274
  917MOL0     H23769   8.291   2.188   9.118 -1.9932  0.4107  2.9182
  917MOL0     H23770   8.199   2.026   9.129 -0.1882 -1.5945 -2.6960
  917MOL0     H23771   8.302   2.116   8.861  0.4189  0.1913 -0.6451
  917MOL0     H23772   8.234   1.965   8.928  1.4702 -2.0233  4.1793
  917MOL0     H23773   8.471   1.981   8.870  0.2154  1.2123  0.2193
  917MOL0     H23774   8.484   2.112   8.987  1.2666 -0.3831  1.9661
  917MOL0     H23775   7.366   2.280   9.071 -0.7495 -1.0077  2.7653
  917MOL0     H23776   7.147   2.382   9.105 -1.9573  2.4309 -0.8110
  917MOL0     H23777   6.903   2.719   9.031  0.2943 -0.8369  0.0728
  917MOL0     H23778   6.681   2.834   9.016 -2.9598  2.2285  1.0141
  917MOL0     H23779   5.526   3.334   9.032 -0.5099 -0.2738 -1.7031
  917MOL0     H23780   5.302   3.305   9.134  2.1416 -0.7663  0.7969
  917MOL0     H23781   4.926   3.293   9.376  2.1025 -0.0147 -1.3612
  917MOL0     H23782   4.746   3.388   9.509 -0.3251 -0.1474 -0.4734
  917MOL0     H23783   4.552   3.763   9.356 -3.3309  1.5878 -2.1808
  917MOL0     H23784   4.451   3.720   9.502  1.9846 -0.0627  0.9940
  917MOL0     H23785   4.407   3.596   9.228 -1.1460 -0.7330  0.0473
  917MOL0     H23786   4.335   3.751   9.273 -2.2150 -0.9721 -3.6161
  917MOL0     H23787   4.232   3.645   9.484 -1.5551  0.3749 -0.4207
  917MOL0     H23788   4.302   3.492   9.414  0.1376 -0.6652 -0.2812
  917MOL0     H23789   4.156   3.584   9.204 -3.7735 -0.3604 -1.4705
  917MOL0     H23790   4.100   3.461   9.316 -0.8624 -0.1608 -1.5455
  917MOL0     H23791   3.848   3.801   9.399 -1.9504 -0.4712 -2.7463
  917MOL0     H23792   4.631   3.656   9.196  1.7589  1.5451  0.2425
  917MOL0     H23793   4.734   3.680   9.003  0.4212 -0.5061 -1.5295
  917MOL0     H23794   4.905   3.674   9.010 -0.4121  0.1262 -1.3851
  917MOL0     H23795   4.816   3.530   8.955 -1.0853  0.4416 -0.7203
  918MOL0     O23796   2.680   4.707   5.152 -0.4130  0.2674 -0.3445
  918MOL0     C23797   2.702   4.812   5.096 -0.2995  0.4891 -0.2851
  918MOL0     O23798   2.828   4.872   5.093  0.0502 -0.0132  0.0704
  918MOL0     C23799   2.942   4.824   5.154 -0.3773 -1.0369 -0.6448
  918MOL0     C23800   2.963   4.716   5.235 -0.2510  0.3934  0.4591
  918MOL0     C23801   3.068   4.695   5.321  0.2887  0.1443 -0.7621
  918MOL0     C23802   3.177   4.780   5.320 -0.7301 -0.3330  0.1719
  918MOL0     O23803   3.284   4.781   5.406  0.5225  0.2001  0.3684
  918MOL0     C23804   3.286   4.687   5.515 -0.4903  0.0265  0.0399
  918MOL0     C23805   3.428   4.689   5.575  0.0326 -0.2353  0.2381
  918MOL0     C23806   3.532   4.646   5.468 -0.3081  0.2403 -0.1682
  918MOL0     C23807   3.673   4.627   5.532 -0.6984  0.6113 -0.0347
  918MOL0     C23808   3.747   4.762   5.548 -0.0821 -0.4505  0.2539
  918MOL0     C23809   3.884   4.748   5.627 -0.1237  0.6798 -0.8733
  918MOL0     C23810   3.982   4.872   5.611  0.1704  0.7135  0.4867
  918MOL0     C23811   4.075   4.876   5.492  1.0855  0.0312 -0.0720
  918MOL0     N23812   4.190   4.779   5.511 -0.0215  0.5127  0.6197
  918MOL0     C23813   4.207   4.684   5.607 -0.0291 -0.6187 -0.3201
  918MOL0     C23814   4.318   4.616   5.572  0.2481 -0.0318 -0.5814
  918MOL0     C23815   4.373   4.491   5.636  0.2911 -1.1007  0.4055
  918MOL0     C23816   4.444   4.514   5.768  0.1124 -0.0932  0.2151
  918MOL0     C23817   4.488   4.378   5.833  0.0545 -0.4333  0.0369
  918MOL0     C23818   4.610   4.319   5.765 -0.2323  0.5466 -0.1120
  918MOL0     O23819   4.727   4.371   5.828 -0.3404  0.4641  0.2916
  918MOL0     C23820   4.840   4.356   5.762  0.3934 -0.3162 -0.1884
  918MOL0     C23821   4.922   4.464   5.752  0.6090 -0.6109 -0.1552
  918MOL0     C23822   5.044   4.447   5.692  0.3045 -0.4281  0.7472
  918MOL0     C23823   5.078   4.328   5.626 -0.4591 -0.4519 -0.4200
  918MOL0     C23824   5.208   4.312   5.557 -0.4534 -0.5305 -0.4369
  918MOL0     O23825   5.270   4.197   5.574 -0.5118  0.2082 -0.1848
  918MOL0     C23826   5.391   4.168   5.514  0.1477  0.1351  0.3825
  918MOL0     C23827   5.505   4.220   5.555  0.0286  0.0970 -0.5596
  918MOL0     C23828   5.627   4.176   5.495  0.2753 -0.1060 -0.4146
  918MOL0     C23829   5.627   4.074   5.394  0.2171  0.6349  0.7735
  918MOL0     O23830   5.733   4.024   5.314 -0.2554 -1.3565  0.2691
  918MOL0     C23831   5.857   4.005   5.387 -0.3175  0.2754  0.1261
  918MOL0     C23832   5.945   3.937   5.288 -0.5135  0.5103 -0.0462
  918MOL0     C23833   6.086   3.945   5.332 -0.5568  0.1259  0.7992
  918MOL0     C23834   6.183   3.908   5.214  0.7656 -0.7643 -0.2648
  918MOL0     C23835   6.331   3.888   5.259 -0.1724  0.8710  0.4083
  918MOL0     C23836   6.428   3.863   5.142  0.0449  0.6675 -0.4215
  918MOL0     C23837   6.573   3.902   5.182  0.2336 -0.0099 -0.7583
  918MOL0     C23838   6.673   3.892   5.070 -0.2533  1.3699  0.4997
  918MOL0    Cl23839   6.720   3.723   5.058  0.2276 -0.5733  0.1576
  918MOL0     C23840   5.505   4.027   5.352  0.4602  0.3760 -0.8635
  918MOL0     C23841   5.393   4.070   5.412 -0.0975 -0.2148 -0.8368
  918MOL0     O23842   5.239   4.402   5.473  0.1061  0.4271 -0.5084
  918MOL0     C23843   5.003   4.209   5.659  0.2376  0.8957  0.5321
  918MOL0     C23844   4.881   4.230   5.722  0.5372 -0.3343 -0.6128
  918MOL0     N23845   4.370   4.673   5.459  0.2952 -0.7017  0.2982
  918MOL0     N23846   4.296   4.774   5.424 -0.5537 -0.0170  0.1562
  918MOL0     C23847   3.161   4.896   5.234 -0.4682 -0.0427  1.0960
  918MOL0     C23848   3.044   4.911   5.156 -0.5353  0.0461  0.4891
  918MOL0     C23849   2.584   4.874   5.051 -0.5700 -0.6660  0.1117
  918MOL0     C23850   2.461   4.802   5.033  0.3442  0.4583 -0.6261
  918MOL0     C23851   2.342   4.853   5.002 -0.1596  0.3015  0.9032
  918MOL0     C23852   2.331   4.992   4.969 -0.3088  0.4991 -0.6307
  918MOL0     O23853   2.217   5.058   4.942  0.5597 -0.1264 -0.3054
  918MOL0     C23854   2.089   4.992   4.946 -1.1371  0.1322  0.3947
  918MOL0     C23855   1.995   5.109   4.915  1.1963  0.0781 -0.2095
  918MOL0     C23856   1.849   5.074   4.950  0.4581 -0.5958 -0.6758
  918MOL0     C23857   1.762   5.204   4.952 -0.2796 -0.5900  0.0685
  918MOL0     C23858   1.788   5.295   5.064  0.7212  0.2240 -0.5372
  918MOL0     C23859   1.796   5.379   5.153 -0.4379  0.3191  0.5770
  918MOL0     C23860   2.455   5.071   4.973  0.5191 -0.0836  0.3268
  918MOL0     C23861   2.574   5.018   5.029  0.1145 -0.0950  0.5566
  918MOL0     C23862   2.690   5.117   5.036  0.6153  0.2336 -0.2589
  918MOL0     H23863   2.884   4.641   5.240 -0.9128  1.0040 -0.6044
  918MOL0     H23864   3.065   4.614   5.393 -0.2669 -1.7043 -2.7738
  918MOL0     H23865   3.217   4.709   5.598  1.6514 -0.0718  1.9568
  918MOL0     H23866   3.264   4.587   5.477  1.3962 -0.0990 -0.7809
  918MOL0     H23867   3.444   4.627   5.664 -0.7184  0.1154  0.6276
  918MOL0     H23868   3.449   4.790   5.611  1.4253 -1.4136  2.9930
  918MOL0     H23869   3.530   4.716   5.384  0.0529 -1.2782 -1.4991
  918MOL0     H23870   3.495   4.548   5.435 -0.3364 -1.0821  3.4117
  918MOL0     H23871   3.661   4.570   5.625 -0.1235  0.9713  0.2652
  918MOL0     H23872   3.734   4.571   5.460  1.0256  1.4038  0.7548
  918MOL0     H23873   3.767   4.800   5.448 -1.9731  2.7896  0.9428
  918MOL0     H23874   3.683   4.827   5.609 -0.5448 -1.2148  0.6064
  918MOL0     H23875   3.855   4.745   5.732 -0.5387 -2.8704 -0.9637
  918MOL0     H23876   3.944   4.660   5.599 -1.7256 -0.8660  0.3576
  918MOL0     H23877   4.039   4.877   5.704  3.3877 -0.3408 -1.2959
  918MOL0     H23878   3.925   4.965   5.609  1.3575  1.4605 -1.1763
  918MOL0     H23879   4.022   4.842   5.403  3.2590 -2.5262 -0.5339
  918MOL0     H23880   4.109   4.978   5.476 -2.4096  1.2940 -0.3121
  918MOL0     H23881   4.141   4.669   5.692 -0.9544 -0.1876 -0.9500
  918MOL0     H23882   4.303   4.409   5.653 -0.0446 -1.1657 -1.1259
  918MOL0     H23883   4.445   4.444   5.569 -1.8419 -2.7410 -0.8532
  918MOL0     H23884   4.535   4.571   5.747  0.4928 -1.2721 -1.5895
  918MOL0     H23885   4.392   4.576   5.841 -2.7306  0.8249 -2.3938
  918MOL0     H23886   4.405   4.307   5.827  0.9307 -1.5721  0.9080
  918MOL0     H23887   4.509   4.403   5.938 -1.7622  2.7769 -0.2174
  918MOL0     H23888   4.613   4.348   5.659  2.0646  0.9220  0.0165
  918MOL0     H23889   4.606   4.211   5.779 -0.9923  0.9039  3.5551
  918MOL0     H23890   4.889   4.557   5.797 -0.8073 -0.9005 -0.5608
  918MOL0     H23891   5.107   4.534   5.698 -0.8755  0.3803  2.0743
  918MOL0     H23892   5.513   4.289   5.638 -0.1293  0.0269 -0.4842
  918MOL0     H23893   5.724   4.219   5.519 -0.9952  3.2475 -0.7666
  918MOL0     H23894   5.901   4.096   5.428  2.8957 -0.6861 -0.8833
  918MOL0     H23895   5.835   3.938   5.470  0.1773 -1.4137 -1.0420
  918MOL0     H23896   5.916   3.832   5.273 -0.2661  0.0890  2.1562
  918MOL0     H23897   5.943   3.992   5.193  1.9715  0.2557 -0.3292
  918MOL0     H23898   6.112   4.043   5.371 -1.0044  0.4688  0.2442
  918MOL0     H23899   6.107   3.873   5.412 -0.4449  0.5893  1.1877
  918MOL0     H23900   6.176   3.977   5.129 -0.4237 -1.4291 -0.7223
  918MOL0     H23901   6.151   3.812   5.173  0.5873 -1.1904  0.8370
  918MOL0     H23902   6.352   3.802   5.323  1.9952  2.8095  2.5061
  918MOL0     H23903   6.368   3.977   5.310  0.6712  0.4414  0.5690
  918MOL0     H23904   6.435   3.759   5.110  0.6968  0.2497  1.0059
  918MOL0     H23905   6.402   3.931   5.061 -0.9642  0.8750  0.0608
  918MOL0     H23906   6.599   3.839   5.268 -2.0975  1.5069  1.2124
  918MOL0     H23907   6.588   4.003   5.223  1.0741 -0.8635  1.1622
  918MOL0     H23908   6.622   3.922   4.978 -2.5437  0.2884  1.3419
  918MOL0     H23909   6.767   3.946   5.085 -0.4759  1.2809  2.5181
  918MOL0     H23910   5.508   3.970   5.259  3.1903  1.6713 -1.6518
  918MOL0     H23911   5.292   4.051   5.376 -0.8997  2.2110 -0.0585
  918MOL0     H23912   5.027   4.109   5.626 -3.0215 -0.0166  0.5781
  918MOL0     H23913   4.807   4.154   5.741  1.7143 -1.0605  1.4300
  918MOL0     H23914   3.234   4.977   5.233 -1.7258  1.1279  1.1863
  918MOL0     H23915   3.043   5.004   5.100  1.5405  0.5962  1.2857
  918MOL0     H23916   2.452   4.695   5.048 -0.7133  0.7011  0.6802
  918MOL0     H23917   2.261   4.781   5.000  0.9338 -0.9522 -0.9243
  918MOL0     H23918   2.063   4.957   5.047 -0.2820 -1.8763 -0.0320
  918MOL0     H23919   2.079   4.913   4.871 -3.0981  0.1422  0.6053
  918MOL0     H23920   2.009   5.125   4.808  2.1528 -1.1408 -0.2871
  918MOL0     H23921   2.004   5.202   4.971 -0.4420  0.7041 -0.9106
  918MOL0     H23922   1.843   5.034   5.052 -3.2046  1.2552  0.0289
  918MOL0     H23923   1.815   5.009   4.869 -1.3386  0.6667 -1.0078
  918MOL0     H23924   1.779   5.249   4.854 -1.0687  1.8129  0.9659
  918MOL0     H23925   1.658   5.171   4.954 -0.7082  0.6836 -0.0565
  918MOL0     H23926   1.782   5.468   5.211 -0.5436 -0.0582  1.1473
  918MOL0     H23927   2.443   5.176   4.950 -2.0945  0.5144  3.5860
  918MOL0     H23928   2.727   5.100   5.138 -2.2346  1.1655  1.0498
  918MOL0     H23929   2.768   5.091   4.964  4.6735 -0.8244  3.9986
  918MOL0     H23930   2.647   5.218   5.035  1.8246  0.7705 -1.4617
  919MOL0     O23931  10.786   7.258   8.631 -0.7228 -0.1269  0.1761
  919MOL0     C23932  10.773   7.281   8.753  0.8260 -0.3121  0.1772
  919MOL0     O23933  10.870   7.295   8.842  0.6326  0.3533 -0.0133
  919MOL0     C23934  11.000   7.321   8.800  0.5628  0.1479  0.1001
  919MOL0     C23935  11.041   7.409   8.702  0.1459 -0.5307  0.1099
  919MOL0     C23936  11.172   7.424   8.666  0.6300  0.0312 -0.3463
  919MOL0     C23937  11.269   7.351   8.722 -0.0754  0.2745 -0.7018
  919MOL0     O23938  11.405   7.361   8.692 -0.2217  1.0787  0.0833
  919MOL0     C23939  11.452   7.485   8.751  0.4044 -0.4653 -0.0221
  919MOL0     C23940  11.592   7.496   8.697 -0.6088 -0.2139  0.4896
  919MOL0     C23941  11.661   7.636   8.735  0.3080  0.1725  0.8345
  919MOL0     C23942  11.762   7.617   8.846  0.3410 -0.5795  0.7922
  919MOL0     C23943  11.893   7.560   8.797  0.7207 -0.0693  0.0824
  919MOL0     C23944  11.995   7.576   8.906  0.7222 -1.0221 -1.3217
  919MOL0     C23945  12.125   7.504   8.872  0.1160 -0.0162 -0.1890
  919MOL0     C23946  12.222   7.540   8.976 -0.2730 -0.0214 -0.4865
  919MOL0     N23947  12.353   7.486   8.963  0.4702  0.7428  0.7666
  919MOL0     C23948  12.456   7.489   9.053 -0.2587  0.1621  1.1858
  919MOL0     C23949  12.565   7.427   8.996  1.0234 -0.0387 -0.4324
  919MOL0     C23950  12.703   7.400   9.048  0.6736  0.1440 -0.3499
  919MOL0     C23951  12.798   7.359   8.938 -0.7269 -0.2107  0.6329
  919MOL0     C23952  12.943   7.411   8.966  0.6823 -0.6127 -0.2226
  919MOL0     C23953  13.048   7.344   8.869 -0.1591 -0.3672  0.0625
  919MOL0     O23954  13.175   7.405   8.895  0.6983 -0.7974 -0.9675
  919MOL0     C23955  13.289   7.347   8.832  0.3229  0.0880 -0.4676
  919MOL0     C23956  13.279   7.259   8.728  0.0749  0.3417 -0.2889
  919MOL0     C23957  13.391   7.208   8.656 -0.9941  0.4480  0.2610
  919MOL0     C23958  13.519   7.260   8.690  0.7783 -0.0646 -0.3738
  919MOL0     C23959  13.643   7.226   8.607  0.2759 -0.7375 -0.0239
  919MOL0     O23960  13.620   7.164   8.496 -0.4047  0.6708  0.1782
  919MOL0     C23961  13.734   7.115   8.428  0.2247  0.3559 -0.4346
  919MOL0     C23962  13.732   7.116   8.288  0.0531  0.5429  0.5047
  919MOL0     C23963  13.839   7.060   8.217  0.9032  0.3775  0.0755
  919MOL0     C23964  13.931   6.976   8.278  0.1597 -1.0035 -0.2272
  919MOL0     O23965  14.029   6.919   8.203  0.0992 -0.0652 -0.0476
  919MOL0     C23966  14.159   6.898   8.277  0.3711  0.2266 -0.7677
  919MOL0     C23967  14.284   6.908   8.188 -0.1354 -0.2119 -0.3820
  919MOL0     C23968  14.405   6.841   8.262  0.3525  0.1508  0.5898
  919MOL0     C23969  14.510   6.801   8.157 -0.0467 -1.0613  0.3383
  919MOL0     C23970  14.646   6.762   8.208  0.9844 -0.1983  1.1822
  919MOL0     C23971  14.641   6.627   8.271 -0.5599  0.0816 -0.4548
  919MOL0     C23972  14.784   6.582   8.310 -0.6248  0.4846  0.0363
  919MOL0     C23973  14.786   6.450   8.403  0.3779  0.1733  0.5206
  919MOL0    Cl23974  14.956   6.411   8.451  0.4644 -0.0406  0.5435
  919MOL0     C23975  13.921   6.966   8.419 -0.1327  0.0351  0.0175
  919MOL0     C23976  13.829   7.039   8.492  0.0692  0.0016 -0.7005
  919MOL0     O23977  13.753   7.272   8.646  0.3932  0.1223  0.3590
  919MOL0     C23978  13.528   7.344   8.806  0.3870 -0.0178  0.5026
  919MOL0     C23979  13.415   7.397   8.869 -0.7751  0.3121  0.2272
  919MOL0     N23980  12.519   7.375   8.875 -0.2416  0.6974 -0.2235
  919MOL0     N23981  12.399   7.406   8.864 -0.4437  0.0354 -0.1801
  919MOL0     C23982  11.232   7.256   8.823  0.4270 -0.0358  0.8977
  919MOL0     C23983  11.099   7.237   8.858 -0.9275 -0.0255  0.3579
  919MOL0     C23984  10.627   7.300   8.801  0.4048  0.3329 -0.0060
  919MOL0     C23985  10.527   7.344   8.699 -0.6253 -0.7037  0.1455
  919MOL0     C23986  10.398   7.353   8.731 -0.0797  0.5212 -0.0867
  919MOL0     C23987  10.344   7.322   8.857  0.0524 -0.9328  0.8540
  919MOL0     O23988  10.208   7.316   8.886 -0.3498 -0.2570 -0.3702
  919MOL0     C23989  10.119   7.345   8.781 -0.1282  0.4561  1.0077
  919MOL0     C23990   9.983   7.292   8.824 -0.2342 -0.3838 -0.6962
  919MOL0     C23991   9.871   7.315   8.718  0.3123  0.1969 -0.6832
  919MOL0     C23992   9.721   7.296   8.774  0.5233  0.6084  0.1604
  919MOL0     C23993   9.703   7.161   8.839  0.2887  0.3420  0.6131
  919MOL0     C23994   9.659   7.064   8.895  0.1292 -0.1434 -0.5983
  919MOL0     C23995  10.434   7.267   8.951 -0.3480 -0.3801 -0.1763
  919MOL0     C23996  10.578   7.264   8.928  0.5790  0.3632  0.0624
  919MOL0     C23997  10.663   7.198   9.041  0.0148  0.1516  0.4010
  919MOL0     H23998  10.966   7.470   8.653  2.0663  0.6858 -1.4821
  919MOL0     H23999  11.197   7.501   8.594 -0.8342  1.5851  0.7569
  919MOL0     H24000  11.394   7.573   8.723  0.3871 -0.0094  1.3523
  919MOL0     H24001  11.444   7.481   8.860  3.0815 -1.7661  0.2101
  919MOL0     H24002  11.586   7.483   8.588  0.5249 -0.5871  0.4602
  919MOL0     H24003  11.663   7.417   8.725 -0.1822 -0.5914 -1.4866
  919MOL0     H24004  11.580   7.699   8.773  0.1178  0.0493  0.6366
  919MOL0     H24005  11.702   7.675   8.641 -1.0847 -1.6032 -0.5806
  919MOL0     H24006  11.788   7.715   8.887  0.2874 -0.5791  0.8257
  919MOL0     H24007  11.718   7.553   8.924 -2.0062  0.6527  0.5716
  919MOL0     H24008  11.876   7.454   8.778  1.4989 -0.0321 -0.8755
  919MOL0     H24009  11.910   7.616   8.704 -1.1113  0.0723 -0.2052
  919MOL0     H24010  12.014   7.682   8.921  0.7537 -1.5016  4.3544
  919MOL0     H24011  11.955   7.545   9.004 -0.8590  3.2781 -0.3818
  919MOL0     H24012  12.167   7.524   8.773  1.2064  2.0786  0.6470
  919MOL0     H24013  12.104   7.397   8.882 -1.1576  0.4226  3.1264
  919MOL0     H24014  12.230   7.650   8.978  2.1464 -0.1435  0.2148
  919MOL0     H24015  12.180   7.511   9.073  0.7177  2.7898  0.9130
  919MOL0     H24016  12.455   7.533   9.152 -1.3581  0.3675  1.0948
  919MOL0     H24017  12.729   7.496   9.094 -2.3404  0.2756  1.3396
  919MOL0     H24018  12.704   7.321   9.123 -0.3655  0.9998  0.6096
  919MOL0     H24019  12.804   7.250   8.928 -3.1389 -0.3694  0.2999
  919MOL0     H24020  12.768   7.394   8.838  0.5411 -2.2746 -0.5457
  919MOL0     H24021  12.958   7.382   9.071 -1.6081  1.1430  0.6908
  919MOL0     H24022  12.942   7.520   8.974  1.1739 -0.5330 -1.1451
  919MOL0     H24023  13.026   7.355   8.763  2.1468 -1.4318 -0.5881
  919MOL0     H24024  13.048   7.235   8.874  2.8148 -0.4815 -0.7833
  919MOL0     H24025  13.183   7.213   8.705  1.0674 -1.4840 -1.0206
  919MOL0     H24026  13.382   7.135   8.577  1.0174 -0.4755  0.8313
  919MOL0     H24027  13.650   7.161   8.232  0.4205  1.7187  0.8920
  919MOL0     H24028  13.855   7.086   8.113  1.4973 -1.7464 -0.4106
  919MOL0     H24029  14.161   6.971   8.359 -4.0366 -0.1713 -0.0716
  919MOL0     H24030  14.153   6.804   8.332  0.0886  0.2778 -0.7046
  919MOL0     H24031  14.262   6.858   8.093  2.3633  0.4422 -1.3580
  919MOL0     H24032  14.303   7.012   8.160  2.7371 -0.2175  1.1703
  919MOL0     H24033  14.443   6.919   8.328 -0.1719  0.7926  0.1400
  919MOL0     H24034  14.361   6.756   8.315  2.4503 -0.4162  1.5426
  919MOL0     H24035  14.532   6.892   8.101  0.7337 -0.4485  1.6096
  919MOL0     H24036  14.464   6.727   8.091  0.5534 -1.1950  0.0635
  919MOL0     H24037  14.686   6.831   8.283  2.4488 -0.3248  0.5468
  919MOL0     H24038  14.718   6.759   8.125 -0.8678 -0.1242 -0.4868
  919MOL0     H24039  14.581   6.634   8.362 -1.8626 -0.5875 -1.2277
  919MOL0     H24040  14.593   6.548   8.213 -0.5558 -2.4710  2.7129
  919MOL0     H24041  14.833   6.663   8.364 -2.7567  1.6488  0.3452
  919MOL0     H24042  14.839   6.558   8.218 -0.6272  0.4967  0.0322
  919MOL0     H24043  14.728   6.462   8.495 -0.0626  0.2077  0.2411
  919MOL0     H24044  14.744   6.366   8.346  1.6977 -2.1605  2.7481
  919MOL0     H24045  13.983   6.901   8.480 -0.1466 -0.9510 -1.0047
  919MOL0     H24046  13.824   7.032   8.600 -4.7621 -0.4344 -0.7700
  919MOL0     H24047  13.624   7.363   8.853  0.5587 -0.0572  0.1745
  919MOL0     H24048  13.423   7.471   8.948  0.7171 -1.6318  1.9792
  919MOL0     H24049  11.311   7.205   8.878  0.6808 -0.0933  0.4853
  919MOL0     H24050  11.089   7.171   8.943  1.3094 -0.4918  0.3438
  919MOL0     H24051  10.571   7.375   8.605  2.8103 -2.4204  1.0561
  919MOL0     H24052  10.338   7.385   8.647 -0.9036 -0.9699 -0.0948
  919MOL0     H24053  10.145   7.301   8.685  0.8043  0.7052  1.1270
  919MOL0     H24054  10.113   7.452   8.756  0.9046 -0.0300 -1.6366
  919MOL0     H24055   9.965   7.350   8.915  0.6261 -0.7780 -0.2554
  919MOL0     H24056  10.005   7.190   8.856  2.7984  0.0005 -1.2261
  919MOL0     H24057   9.872   7.245   8.633 -2.5418  0.1185 -0.7239
  919MOL0     H24058   9.879   7.417   8.680  1.7132  0.4209  0.1532
  919MOL0     H24059   9.684   7.372   8.844  0.1285  1.7149 -1.2108
  919MOL0     H24060   9.659   7.301   8.684  0.7513 -3.4485 -0.4298
  919MOL0     H24061   9.619   6.974   8.937  0.3433  0.9228  2.0809
  919MOL0     H24062  10.388   7.236   9.044 -1.3564  1.6670  0.0528
  919MOL0     H24063  10.624   7.222   9.141  1.5608  1.2110  0.7708
  919MOL0     H24064  10.666   7.090   9.021 -2.5193  0.2737 -0.9996
  919MOL0     H24065  10.764   7.239   9.045 -0.1586  0.7282 -0.8433
  920MOL0     O24066   1.871  10.403   1.861 -0.1275 -0.6315 -0.5265
  920MOL0     C24067   1.847  10.328   1.958 -1.0988 -0.4347  0.8060
  920MOL0     O24068   1.941  10.269   2.039  0.2634 -0.1486  0.0687
  920MOL0     C24069   2.062  10.324   2.033  0.5707 -0.0710 -0.0448
  920MOL0     C24070   2.159  10.283   1.937  0.0663  0.0751 -0.6410
  920MOL0     C24071   2.285  10.335   1.932  0.0900 -0.3968  0.9648
  920MOL0     C24072   2.325  10.425   2.031  0.0840 -0.0260 -0.3329
  920MOL0     O24073   2.445  10.495   2.038 -0.2765 -0.3392  0.6546
  920MOL0     C24074   2.540  10.474   1.931  0.5704 -0.4234 -0.3879
  920MOL0     C24075   2.514  10.546   1.804 -0.1891 -0.8209  0.6974
  920MOL0     C24076   2.621  10.523   1.697 -0.5303 -0.4215  1.0556
  920MOL0     C24077   2.589  10.594   1.572 -0.6281  0.3783 -0.2557
  920MOL0     C24078   2.708  10.568   1.467 -0.2128  0.4547  0.6526
  920MOL0     C24079   2.830  10.648   1.511 -0.3194  0.0579 -0.1903
  920MOL0     C24080   2.943  10.631   1.413 -0.9456 -0.5433  0.3345
  920MOL0     C24081   2.910  10.685   1.271 -0.4439 -0.4603 -0.7928
  920MOL0     N24082   3.036  10.705   1.187  0.1739 -0.5625 -0.1648
  920MOL0     C24083   3.120  10.605   1.146  0.4495  0.4984 -0.2870
  920MOL0     C24084   3.214  10.662   1.066  0.2009 -0.0037  1.4854
  920MOL0     C24085   3.338  10.600   1.007  0.2357  0.2882 -0.3546
  920MOL0     C24086   3.356  10.636   0.857  0.0059  0.4040 -0.3520
  920MOL0     C24087   3.476  10.577   0.792 -0.1012  0.8866  0.5920
  920MOL0     C24088   3.488  10.631   0.648 -0.4476  0.5096 -1.3294
  920MOL0     O24089   3.550  10.770   0.652  0.5568 -0.1977 -0.0828
  920MOL0     C24090   3.682  10.777   0.642 -0.0808  0.1573 -0.1968
  920MOL0     C24091   3.732  10.905   0.615  0.3355  0.2232  0.2374
  920MOL0     C24092   3.860  10.922   0.570 -0.2916 -0.6790 -0.4807
  920MOL0     C24093   3.951  10.818   0.554 -0.7527 -0.5223  0.6064
  920MOL0     C24094   4.082  10.850   0.501  0.0802  0.3149 -0.3552
  920MOL0     O24095   4.090  10.974   0.443  0.1146  0.3010  0.2290
  920MOL0     C24096   4.203  11.008   0.383  0.2200 -0.2493 -0.3187
  920MOL0     C24097   4.318  11.042   0.454  0.3462  0.0298  0.3167
  920MOL0     C24098   4.423  11.111   0.392 -0.2909 -0.4626  0.4589
  920MOL0     C24099   4.414  11.132   0.251  1.0128  0.4287 -0.3357
  920MOL0     O24100   4.514  11.187   0.182  0.4156 -0.1985  0.3934
  920MOL0     C24101   4.576  11.104   0.081 -0.2822 -0.2309  0.6621
  920MOL0     C24102   4.725  11.126   0.096  0.4004  0.8095  0.0640
  920MOL0     C24103   4.816  11.144  -0.034 -0.6962 -0.5110 -0.4451
  920MOL0     C24104   4.807  11.296  -0.070 -0.0411  0.1639 -0.5761
  920MOL0     C24105   4.889  11.333  -0.191  1.5534 -0.1250 -0.5781
  920MOL0     C24106   5.039  11.329  -0.161  0.6876  0.6584 -0.6514
  920MOL0     C24107   5.120  11.398  -0.278  0.2248 -0.4469  0.8109
  920MOL0     C24108   5.259  11.440  -0.217  0.0781  0.5757  0.1750
  920MOL0    Cl24109   5.337  11.511  -0.357 -0.4184  0.0812 -0.1589
  920MOL0     C24110   4.298  11.104   0.177 -0.2685  0.5280 -0.6549
  920MOL0     C24111   4.192  11.044   0.245 -0.3432  0.6814 -0.1227
  920MOL0     O24112   4.170  10.760   0.518 -0.0173  0.1858  0.3201
  920MOL0     C24113   3.908  10.689   0.606  0.5439 -0.3586 -0.1163
  920MOL0     C24114   3.771  10.672   0.637 -0.5276  1.1312 -0.0466
  920MOL0     N24115   3.188  10.795   1.062  0.2626 -0.1856 -0.8801
  920MOL0     N24116   3.075  10.822   1.130  0.2925  1.1177 -0.4886
  920MOL0     C24117   2.235  10.466   2.135 -0.0148  0.0676 -0.0980
  920MOL0     C24118   2.106  10.417   2.133 -0.0351 -0.4521  0.4729
  920MOL0     C24119   1.700  10.297   1.980 -0.4950 -0.0759  0.0364
  920MOL0     C24120   1.658  10.285   2.106  0.8310 -0.0519  0.4997
  920MOL0     C24121   1.523  10.265   2.140  0.7660 -0.8061  0.0680
  920MOL0     C24122   1.431  10.248   2.038  0.1503  0.6187  0.5967
  920MOL0     O24123   1.305  10.222   2.054  0.1878  0.7423 -0.1415
  920MOL0     C24124   1.245  10.344   2.088 -0.0233 -0.2528 -0.3024
  920MOL0     C24125   1.146  10.378   1.976  0.6319 -0.0969 -0.6830
  920MOL0     C24126   1.036  10.477   2.016  0.1957  0.8969  0.2838
  920MOL0     C24127   0.938  10.511   1.899 -0.3417 -0.2795 -0.2238
  920MOL0     C24128   0.999  10.614   1.824 -1.4411  0.0425 -0.3559
  920MOL0     C24129   1.057  10.703   1.769 -0.0447  0.6028 -0.2957
  920MOL0     C24130   1.477  10.254   1.906  0.2052  0.5216 -0.1941
  920MOL0     C24131   1.613  10.276   1.874 -0.8448  1.2624  0.7514
  920MOL0     C24132   1.652  10.265   1.729 -0.4455 -0.5492  0.0907
  920MOL0     H24133   2.122  10.205   1.871 -0.3686  0.1019 -0.4362
  920MOL0     H24134   2.346  10.298   1.850 -0.6860  0.8043 -0.2024
  920MOL0     H24135   2.640  10.491   1.973  1.1835 -0.8017 -1.6507
  920MOL0     H24136   2.551  10.370   1.900 -0.1004 -0.8428  0.7501
  920MOL0     H24137   2.513  10.655   1.813  0.1431 -0.6310 -1.2399
  920MOL0     H24138   2.419  10.518   1.758  0.4770 -0.9698 -0.6199
  920MOL0     H24139   2.627  10.417   1.670  1.6288  0.2619 -1.5714
  920MOL0     H24140   2.711  10.566   1.742 -0.7334 -0.0992  1.1530
  920MOL0     H24141   2.490  10.567   1.535 -2.4485  2.6918  2.5137
  920MOL0     H24142   2.592  10.702   1.591  1.1334  0.3501 -0.2168
  920MOL0     H24143   2.720  10.462   1.447 -1.6564  0.5978 -1.2435
  920MOL0     H24144   2.664  10.612   1.377 -0.4474  1.2682  1.1451
  920MOL0     H24145   2.813  10.754   1.532  0.5918  0.2185 -0.2330
  920MOL0     H24146   2.872  10.619   1.608  0.1785  2.3352  0.3337
  920MOL0     H24147   2.961  10.523   1.410  0.2185 -0.3506 -0.0933
  920MOL0     H24148   3.038  10.672   1.449 -1.5045  0.4105  0.7603
  920MOL0     H24149   2.852  10.607   1.222 -0.0803 -0.3591 -1.3919
  920MOL0     H24150   2.855  10.779   1.265  3.2424  1.7925 -2.6312
  920MOL0     H24151   3.098  10.502   1.172 -1.9643  1.4491  1.8513
  920MOL0     H24152   3.420  10.618   1.078 -2.9082  1.3485  3.3672
  920MOL0     H24153   3.321  10.493   1.019 -1.5774  0.7303  1.5722
  920MOL0     H24154   3.269  10.596   0.803  0.5142 -2.9429  1.0713
  920MOL0     H24155   3.361  10.746   0.856  0.8015  0.3723 -1.1222
  920MOL0     H24156   3.463  10.470   0.775  0.9558  0.8912 -0.3863
  920MOL0     H24157   3.566  10.584   0.854 -0.0748 -1.2097  0.8435
  920MOL0     H24158   3.392  10.632   0.597 -1.6381  0.0429  0.8066
  920MOL0     H24159   3.549  10.561   0.590 -0.5332 -2.5329  1.8886
  920MOL0     H24160   3.667  10.992   0.623 -0.2222  0.1864 -2.7246
  920MOL0     H24161   3.882  11.023   0.538 -1.1167 -1.0283 -2.2648
  920MOL0     H24162   4.327  11.019   0.560  0.4316  0.2631  0.3613
  920MOL0     H24163   4.509  11.153   0.442 -1.1726  1.8859  0.1090
  920MOL0     H24164   4.552  10.998   0.093  0.2304 -0.7094 -1.9946
  920MOL0     H24165   4.540  11.137  -0.017  1.1449  1.5507  0.6883
  920MOL0     H24166   4.742  11.201   0.173 -1.7896 -0.3656  1.7997
  920MOL0     H24167   4.764  11.030   0.133  4.2824  2.8142  1.7089
  920MOL0     H24168   4.923  11.125  -0.018  0.1921  2.3970 -2.2008
  920MOL0     H24169   4.767  11.083  -0.110 -3.7799  0.6068  0.4901
  920MOL0     H24170   4.834  11.349   0.022 -0.2525 -2.4198  1.0571
  920MOL0     H24171   4.704  11.323  -0.093  0.1234  0.4417 -1.0027
  920MOL0     H24172   4.867  11.433  -0.229 -2.6259 -1.1878 -1.4053
  920MOL0     H24173   4.868  11.266  -0.274  0.4299  0.2750 -0.6258
  920MOL0     H24174   5.058  11.375  -0.063  0.4472 -0.7804  0.1153
  920MOL0     H24175   5.073  11.226  -0.143 -0.4122  0.4966  0.7414
  920MOL0     H24176   5.073  11.491  -0.314  0.6897 -1.1368 -1.7736
  920MOL0     H24177   5.131  11.326  -0.360  2.6307 -2.3405  2.6716
  920MOL0     H24178   5.241  11.502  -0.128 -1.4672 -2.0014  1.7721
  920MOL0     H24179   5.312  11.351  -0.184 -2.6684 -0.9310  0.8298
  920MOL0     H24180   4.302  11.121   0.069  0.0935 -0.7875 -0.8688
  920MOL0     H24181   4.104  11.018   0.187  0.8143 -2.7483 -0.5497
  920MOL0     H24182   3.969  10.600   0.610 -0.7641 -1.2447  2.4482
  920MOL0     H24183   3.743  10.568   0.654  1.2468  0.7365  0.7062
  920MOL0     H24184   2.257  10.535   2.216 -1.2605 -1.1674  1.3585
  920MOL0     H24185   2.034  10.432   2.213 -0.4214  0.0905  0.0262
  920MOL0     H24186   1.725  10.297   2.191  0.7099  2.5238  0.2862
  920MOL0     H24187   1.484  10.261   2.241  0.2610 -0.6127 -0.1149
  920MOL0     H24188   1.307  10.430   2.115  0.5211  0.7415 -4.1432
  920MOL0     H24189   1.186  10.327   2.179 -1.3235  2.8653 -0.4051
  920MOL0     H24190   1.104  10.280   1.954  1.5111 -0.4091 -1.0156
  920MOL0     H24191   1.199  10.407   1.884 -0.0614  0.2945 -0.9630
  920MOL0     H24192   1.084  10.564   2.064  0.9072  0.8394 -0.2998
  920MOL0     H24193   0.977  10.430   2.095  0.4732 -0.2641 -0.1796
  920MOL0     H24194   0.912  10.425   1.838 -3.0264 -0.0946  0.5333
  920MOL0     H24195   0.841  10.542   1.940 -0.6598 -3.6346  2.0296
  920MOL0     H24196   1.118  10.771   1.712  0.3831  0.1860 -0.3389
  920MOL0     H24197   1.403  10.237   1.828 -0.0821 -0.4133  0.2718
  920MOL0     H24198   1.570  10.215   1.675 -0.6495  0.8573 -0.9472
  920MOL0     H24199   1.676  10.364   1.691  0.4668 -0.9561 -0.4357
  920MOL0     H24200   1.741  10.201   1.719 -0.5730 -0.7772  0.3848
  921MOL0     O24201   7.981   9.880   7.479  0.3961 -0.1636  0.5889
  921MOL0     C24202   7.927   9.846   7.584  0.1625 -0.1505 -0.4494
  921MOL0     O24203   7.993   9.837   7.707  0.0822 -0.1153 -0.6061
  921MOL0     C24204   8.122   9.879   7.703 -0.4087 -0.0480 -0.4107
  921MOL0     C24205   8.148   9.997   7.768 -0.3773 -0.3592  0.1394
  921MOL0     C24206   8.276  10.049   7.774  0.8448 -0.3481 -0.5591
  921MOL0     C24207   8.387   9.982   7.714  0.4740 -0.3348  0.1610
  921MOL0     O24208   8.516  10.018   7.714  0.1491 -1.0553  0.3226
  921MOL0     C24209   8.538  10.144   7.645  0.0818 -0.4209 -0.6108
  921MOL0     C24210   8.684  10.196   7.636  0.3277  0.1293  0.5022
  921MOL0     C24211   8.752  10.209   7.773  0.7882 -0.0980 -0.2734
  921MOL0     C24212   8.679  10.297   7.873 -0.8591 -0.6877  0.6269
  921MOL0     C24213   8.763  10.313   7.998  0.6058  0.8162 -0.2837
  921MOL0     C24214   8.684  10.380   8.108  0.4245  0.3019 -0.2605
  921MOL0     C24215   8.611  10.509   8.086 -0.1417 -0.0319  0.0662
  921MOL0     C24216   8.531  10.554   8.210 -1.0916 -0.1028 -0.6865
  921MOL0     N24217   8.493  10.693   8.203  0.0021 -0.0127  0.5722
  921MOL0     C24218   8.439  10.764   8.299  0.1369  0.8533  0.3969
  921MOL0     C24219   8.410  10.889   8.242  0.4780  0.2114  0.3891
  921MOL0     C24220   8.328  10.996   8.299 -0.1166 -0.5646  0.5408
  921MOL0     C24221   8.402  11.127   8.313  0.9105 -0.1891  0.2574
  921MOL0     C24222   8.520  11.120   8.417 -0.2932 -0.5567 -0.1231
  921MOL0     C24223   8.653  11.172   8.359  0.3375  0.0307  0.1161
  921MOL0     O24224   8.765  11.153   8.448 -0.1459 -0.4152  0.3205
  921MOL0     C24225   8.876  11.233   8.431 -0.7950 -0.1583 -0.3263
  921MOL0     C24226   8.976  11.220   8.531 -0.1519 -0.1951  0.1723
  921MOL0     C24227   9.097  11.294   8.518  0.6146  0.5043  0.3935
  921MOL0     C24228   9.122  11.376   8.407  0.5455  0.4870  0.2094
  921MOL0     C24229   9.251  11.444   8.393  0.4174  0.4139  0.3536
  921MOL0     O24230   9.343  11.398   8.481 -0.9952 -0.5529 -0.0663
  921MOL0     C24231   9.446  11.487   8.520 -0.2960 -0.6528 -0.1264
  921MOL0     C24232   9.564  11.424   8.559  0.6719 -0.4229  0.3765
  921MOL0     C24233   9.662  11.509   8.613  1.1717  0.0056  0.0346
  921MOL0     C24234   9.640  11.647   8.631  0.0586  0.0420 -0.3228
  921MOL0     O24235   9.725  11.722   8.701  0.7532  0.2166 -0.1194
  921MOL0     C24236   9.790  11.669   8.819  1.0818 -0.7732 -0.1938
  921MOL0     C24237   9.880  11.776   8.894 -1.1925 -0.6331 -0.0775
  921MOL0     C24238  10.002  11.795   8.803  0.1300 -0.3687 -1.0986
  921MOL0     C24239  10.090  11.913   8.849 -0.5872  0.0539  0.6099
  921MOL0     C24240  10.219  11.920   8.758 -0.5650 -0.2934 -0.0904
  921MOL0     C24241  10.289  12.040   8.812  0.9008 -0.0275  0.0408
  921MOL0     C24242  10.400  12.093   8.713 -0.4605 -0.1342 -0.8246
  921MOL0     C24243  10.526  12.010   8.743 -0.2152  0.0458  0.2842
  921MOL0    Cl24244  10.587  12.101   8.887  0.3535 -0.2876  0.0290
  921MOL0     C24245   9.524  11.706   8.585 -0.6355 -0.4049 -0.2333
  921MOL0     C24246   9.431  11.627   8.523  0.0927 -0.6024  0.2600
  921MOL0     O24247   9.272  11.527   8.306 -0.1809  0.0573 -0.7405
  921MOL0     C24248   9.021  11.385   8.307 -0.5020  0.4581  0.2103
  921MOL0     C24249   8.904  11.318   8.320  0.1231 -0.0142  0.4240
  921MOL0     N24250   8.454  10.899   8.120  0.5216  0.3975 -0.1320
  921MOL0     N24251   8.503  10.778   8.094  0.4967 -0.7490 -0.1184
  921MOL0     C24252   8.357   9.850   7.659 -0.9236 -1.1762 -0.0767
  921MOL0     C24253   8.229   9.801   7.649 -0.5433  0.1813 -0.3088
  921MOL0     C24254   7.782   9.832   7.597  0.1592 -0.1909 -0.2760
  921MOL0     C24255   7.719   9.852   7.726 -0.0487  0.6098  0.4577
  921MOL0     C24256   7.585   9.821   7.750  0.2646  0.9599 -0.7978
  921MOL0     C24257   7.500   9.778   7.646  0.0317  0.1795 -0.8508
  921MOL0     O24258   7.360   9.765   7.677 -0.1853  0.1972  0.6488
  921MOL0     C24259   7.274   9.759   7.566 -0.1479  0.5722  0.4391
  921MOL0     C24260   7.116   9.742   7.601  0.0373 -0.5953 -0.1966
  921MOL0     C24261   7.086   9.781   7.749 -0.6639  0.0959 -0.0296
  921MOL0     C24262   6.939   9.744   7.795 -0.3690 -0.3929  0.2241
  921MOL0     C24263   6.845   9.846   7.752 -0.5722  0.3046 -0.0347
  921MOL0     C24264   6.780   9.936   7.706 -0.3169  0.4567  0.2506
  921MOL0     C24265   7.554   9.769   7.520 -0.0868  0.3323  0.3642
  921MOL0     C24266   7.687   9.795   7.493  0.4075 -0.5745  0.4136
  921MOL0     C24267   7.727   9.782   7.347  0.1100 -1.0175 -0.3653
  921MOL0     H24268   8.073  10.059   7.817  0.4898 -0.3549  1.5237
  921MOL0     H24269   8.288  10.146   7.821 -0.8308 -1.0919  1.5852
  921MOL0     H24270   8.493  10.153   7.546  2.1668  0.4798 -1.5314
  921MOL0     H24271   8.487  10.225   7.698 -0.3381 -0.7666 -0.4776
  921MOL0     H24272   8.681  10.289   7.579 -0.4346 -0.8090 -1.0408
  921MOL0     H24273   8.738  10.126   7.572 -1.0830 -0.6390  0.1187
  921MOL0     H24274   8.854  10.246   7.760  1.0491 -0.6357  0.2113
  921MOL0     H24275   8.758  10.108   7.814 -2.4174 -1.1365 -1.9774
  921MOL0     H24276   8.667  10.392   7.820 -0.2379  0.2972  2.1694
  921MOL0     H24277   8.585  10.258   7.912 -0.2335  0.7680  3.9349
  921MOL0     H24278   8.800  10.222   8.045  2.9747  1.9351  0.1847
  921MOL0     H24279   8.851  10.378   7.985  0.3558  1.2468  0.1608
  921MOL0     H24280   8.601  10.318   8.143  0.3458  1.2779  1.3936
  921MOL0     H24281   8.756  10.390   8.190 -0.6868  1.1257  0.6505
  921MOL0     H24282   8.533  10.502   8.009 -1.3419  0.3343  1.1969
  921MOL0     H24283   8.688  10.582   8.060  2.3229 -2.7955 -0.8558
  921MOL0     H24284   8.436  10.502   8.224 -0.6975 -0.7941 -0.5265
  921MOL0     H24285   8.592  10.551   8.301 -2.2318 -1.4312  0.0618
  921MOL0     H24286   8.407  10.718   8.391  1.8627 -3.2118 -0.7947
  921MOL0     H24287   8.241  11.003   8.234  0.6685  0.1055 -0.4669
  921MOL0     H24288   8.279  10.969   8.393  1.8441 -0.1571  1.7515
  921MOL0     H24289   8.458  11.156   8.224  2.1038 -2.8362  0.0744
  921MOL0     H24290   8.335  11.203   8.355 -0.8073 -2.5580  2.1086
  921MOL0     H24291   8.539  11.017   8.449  0.5159  0.2365  2.1135
  921MOL0     H24292   8.507  11.180   8.507 -0.9050  1.4542 -1.4855
  921MOL0     H24293   8.632  11.275   8.327  0.5383  0.0998  0.2106
  921MOL0     H24294   8.677  11.116   8.268  1.1825  4.1134 -2.4702
  921MOL0     H24295   8.953  11.166   8.623  2.6035 -0.8670  0.5521
  921MOL0     H24296   9.161  11.281   8.605  1.0312 -0.4725 -0.0473
  921MOL0     H24297   9.575  11.317   8.545  0.5602 -0.3104 -0.6090
  921MOL0     H24298   9.763  11.472   8.625  1.5335  1.5192  2.0316
  921MOL0     H24299   9.713  11.634   8.888 -0.1501 -1.2300 -1.7437
  921MOL0     H24300   9.851  11.581   8.797  0.6720 -0.8210 -1.1901
  921MOL0     H24301   9.825  11.868   8.918  0.6059  0.4271  0.1897
  921MOL0     H24302   9.921  11.740   8.989  0.2141  2.5536  0.6714
  921MOL0     H24303  10.064  11.706   8.818 -2.4306 -2.4793 -2.1540
  921MOL0     H24304   9.973  11.810   8.699 -1.8387  1.2196 -0.3836
  921MOL0     H24305  10.111  11.909   8.956 -1.5625  0.1071  0.8119
  921MOL0     H24306  10.028  12.002   8.835 -0.7994 -0.1348  0.3184
  921MOL0     H24307  10.183  11.921   8.655 -3.0819  0.5000  0.7338
  921MOL0     H24308  10.283  11.832   8.770 -2.9842 -2.4629 -1.8830
  921MOL0     H24309  10.226  12.126   8.832  0.5415 -0.6143  1.5328
  921MOL0     H24310  10.327  12.010   8.910  0.7840 -1.3450 -0.2867
  921MOL0     H24311  10.419  12.196   8.744 -0.7650 -0.9216  2.3486
  921MOL0     H24312  10.372  12.086   8.608 -1.5674 -2.5521 -0.4478
  921MOL0     H24313  10.498  11.908   8.769  0.8506  0.1415  1.9326
  921MOL0     H24314  10.601  12.007   8.664 -0.0421 -0.8099  0.4740
  921MOL0     H24315   9.509  11.811   8.604 -0.9984 -0.6105  0.6750
  921MOL0     H24316   9.347  11.681   8.483 -0.5100 -0.1536  2.0327
  921MOL0     H24317   9.035  11.437   8.213 -0.5671  2.0964  1.0540
  921MOL0     H24318   8.833  11.314   8.238 -1.4956 -1.0269  1.7948
  921MOL0     H24319   8.443   9.795   7.624  0.1359 -2.1070  3.5038
  921MOL0     H24320   8.205   9.705   7.603 -0.3846 -1.4384  2.7249
  921MOL0     H24321   7.775   9.893   7.809  1.7767  0.0226 -0.4269
  921MOL0     H24322   7.541   9.839   7.848  2.0112 -0.8753  0.4295
  921MOL0     H24323   7.309   9.675   7.505  3.7444  2.2251  0.1307
  921MOL0     H24324   7.292   9.842   7.497 -0.2766 -1.1126 -1.7435
  921MOL0     H24325   7.093   9.638   7.578  1.3226 -0.9152 -0.1006
  921MOL0     H24326   7.055   9.804   7.534 -0.4146 -0.0473  0.6935
  921MOL0     H24327   7.099   9.890   7.746 -2.6859  0.3555 -1.2740
  921MOL0     H24328   7.154   9.739   7.823 -1.7460  0.8733  1.4436
  921MOL0     H24329   6.906   9.645   7.761 -0.8310 -0.6035  1.2613
  921MOL0     H24330   6.935   9.744   7.904 -0.1272 -0.8764  0.2372
  921MOL0     H24331   6.741  10.025   7.661  1.1392  1.2880  0.5636
  921MOL0     H24332   7.489   9.742   7.439 -0.5186 -1.9168  1.3976
  921MOL0     H24333   7.649   9.748   7.278 -1.5959  2.9013 -0.6477
  921MOL0     H24334   7.773   9.868   7.298 -2.3363  0.2832 -0.5469
  921MOL0     H24335   7.811   9.712   7.356  0.4883 -0.3377  2.0094
  922MOL0     O24336   6.565  10.658   8.405  0.2988  0.5444  0.1986
  922MOL0     C24337   6.473  10.581   8.381 -0.0374 -1.1473  0.8285
  922MOL0     O24338   6.492  10.452   8.364 -0.7909  0.3463 -0.7158
  922MOL0     C24339   6.623  10.404   8.363  0.5183 -0.3798 -0.2656
  922MOL0     C24340   6.691  10.393   8.238  0.2191 -0.8898 -0.3564
  922MOL0     C24341   6.833  10.350   8.231  0.3508  0.5506 -0.7563
  922MOL0     C24342   6.904  10.320   8.353 -0.1509  0.1891 -0.1651
  922MOL0     O24343   7.040  10.282   8.355  0.3388  0.0142 -0.0347
  922MOL0     C24344   7.087  10.217   8.472 -0.3826 -1.1373  0.3980
  922MOL0     C24345   7.188  10.121   8.423 -0.1286  0.3967  0.4234
  922MOL0     C24346   7.308  10.197   8.370  0.1049 -0.7287 -0.0928
  922MOL0     C24347   7.373  10.118   8.249 -0.1326 -0.0708 -0.2672
  922MOL0     C24348   7.493  10.189   8.200  0.5140 -0.3581 -0.6097
  922MOL0     C24349   7.599  10.118   8.113  0.0308 -1.0238  0.2077
  922MOL0     C24350   7.716  10.050   8.196 -0.2578  0.1313  0.3939
  922MOL0     C24351   7.833  10.023   8.099  0.4176  0.7992 -0.4416
  922MOL0     N24352   7.955   9.960   8.173  0.7258 -0.4338  0.7965
  922MOL0     C24353   8.053   9.889   8.104  0.3339  0.2953 -0.5291
  922MOL0     C24354   8.144   9.879   8.198 -0.0243 -0.0792 -0.0648
  922MOL0     C24355   8.268   9.793   8.177 -0.0155 -0.7950 -0.4799
  922MOL0     C24356   8.376   9.850   8.093 -0.0944 -0.1722  0.2988
  922MOL0     C24357   8.487   9.751   8.059  0.5315 -0.0500  0.6731
  922MOL0     C24358   8.587   9.822   7.959 -0.3273 -0.7445  0.0077
  922MOL0     O24359   8.709   9.745   7.957 -0.7868  0.7421 -0.5612
  922MOL0     C24360   8.803   9.769   7.869 -0.2682  0.0772 -0.5971
  922MOL0     C24361   8.784   9.825   7.744 -0.6613 -0.1238  0.3859
  922MOL0     C24362   8.886   9.839   7.655 -0.6845 -0.3665  1.0356
  922MOL0     C24363   9.019   9.805   7.685 -0.5359 -0.2048  0.5097
  922MOL0     C24364   9.137   9.831   7.597  0.0615  0.1261 -0.1516
  922MOL0     O24365   9.261   9.770   7.615 -0.0332  0.1550  0.0638
  922MOL0     C24366   9.373   9.817   7.553 -0.4716 -0.1795 -0.1380
  922MOL0     C24367   9.478   9.730   7.530 -0.4020  0.4106  0.4291
  922MOL0     C24368   9.599   9.771   7.475 -0.5631  0.2765  0.9102
  922MOL0     C24369   9.623   9.904   7.448  0.6801 -1.0949 -0.8150
  922MOL0     O24370   9.742   9.928   7.387  0.8054  0.4329 -0.1572
  922MOL0     C24371   9.803  10.055   7.415  0.2949  0.3133  0.1346
  922MOL0     C24372   9.952  10.027   7.390  0.5067 -0.1002 -0.4165
  922MOL0     C24373  10.028  10.160   7.402 -0.2474  1.2414 -0.3798
  922MOL0     C24374  10.173  10.118   7.380  0.2196 -0.1047 -0.1873
  922MOL0     C24375  10.268  10.244   7.397 -1.3627  0.5491  0.4749
  922MOL0     C24376  10.362  10.260   7.272 -0.4488 -0.8612 -0.3362
  922MOL0     C24377  10.495  10.331   7.294  0.1010 -0.5894  0.8060
  922MOL0     C24378  10.511  10.466   7.361 -0.0812 -0.2139 -0.1646
  922MOL0    Cl24379  10.392  10.572   7.286  0.3525 -0.2693  0.2320
  922MOL0     C24380   9.515  10.000   7.471 -0.3588 -0.6001  0.2400
  922MOL0     C24381   9.391   9.954   7.527 -0.2921  0.1309 -0.1637
  922MOL0     O24382   9.117   9.896   7.499  0.3043 -0.0763 -0.1093
  922MOL0     C24383   9.041   9.748   7.810 -0.5115  0.8042  0.2645
  922MOL0     C24384   8.933   9.731   7.899 -0.7512 -0.2379 -0.5263
  922MOL0     N24385   8.107   9.942   8.322  0.1089 -0.5268 -0.1889
  922MOL0     N24386   7.990   9.990   8.298  0.2951 -0.5792  0.3643
  922MOL0     C24387   6.843  10.353   8.471  0.8148  0.1009  0.3407
  922MOL0     C24388   6.700  10.380   8.473 -0.6599 -0.3621 -0.5019
  922MOL0     C24389   6.333  10.627   8.412 -0.5853 -1.4119  0.1351
  922MOL0     C24390   6.320  10.730   8.504 -0.8160  1.3270 -0.8142
  922MOL0     C24391   6.200  10.793   8.525  0.5598  0.5772 -0.0746
  922MOL0     C24392   6.085  10.761   8.455  0.4753  0.4643 -0.8181
  922MOL0     O24393   5.988  10.850   8.494  0.2567 -0.1324  0.5599
  922MOL0     C24394   5.861  10.870   8.427 -0.0609 -0.2550 -0.4385
  922MOL0     C24395   5.773  10.974   8.499 -0.4732 -0.0428 -0.0264
  922MOL0     C24396   5.634  10.973   8.449 -0.4388 -0.1966  0.3923
  922MOL0     C24397   5.599  11.112   8.402  0.0459  0.1305 -0.1846
  922MOL0     C24398   5.462  11.135   8.395  0.3577  0.2403 -0.2067
  922MOL0     C24399   5.348  11.167   8.379 -0.7173 -0.8366 -0.3069
  922MOL0     C24400   6.093  10.668   8.352  0.5732 -0.0485  0.0595
  922MOL0     C24401   6.219  10.590   8.333  0.1444 -0.3842  0.2336
  922MOL0     C24402   6.214  10.485   8.232  0.3568  0.0015 -0.0166
  922MOL0     H24403   6.642  10.405   8.142 -1.1565  0.3195  0.4403
  922MOL0     H24404   6.880  10.336   8.135 -1.2835 -1.4295 -1.3452
  922MOL0     H24405   7.128  10.282   8.550 -0.2661 -0.9146  0.1515
  922MOL0     H24406   7.001  10.159   8.508 -1.4088  0.1162  0.0673
  922MOL0     H24407   7.152  10.060   8.340  3.4605 -0.2326 -0.8244
  922MOL0     H24408   7.219  10.058   8.507  0.2264 -2.8494 -1.9690
  922MOL0     H24409   7.378  10.202   8.454 -4.3457 -1.0053  4.1118
  922MOL0     H24410   7.280  10.297   8.339  0.1985 -1.4153 -2.5680
  922MOL0     H24411   7.412  10.022   8.286  1.3349  0.4143 -0.5036
  922MOL0     H24412   7.301  10.101   8.169  0.8168  2.3583 -1.7367
  922MOL0     H24413   7.460  10.267   8.132 -3.0888 -1.6986 -0.6142
  922MOL0     H24414   7.534  10.241   8.287 -1.6555 -2.6565  1.9997
  922MOL0     H24415   7.557  10.052   8.037  0.7356 -2.6586  1.1692
  922MOL0     H24416   7.645  10.201   8.058  1.6152 -0.5658  2.1068
  922MOL0     H24417   7.681   9.957   8.243 -0.3922 -0.0121  0.0121
  922MOL0     H24418   7.748  10.123   8.270  1.9598  1.3745 -1.6895
  922MOL0     H24419   7.794   9.958   8.021  0.1105 -1.4052  1.4173
  922MOL0     H24420   7.867  10.117   8.055  1.7405  2.6385  3.9462
  922MOL0     H24421   8.051   9.839   8.008 -1.2119 -2.5825  0.8607
  922MOL0     H24422   8.308   9.768   8.275 -0.1774 -2.7465 -0.8774
  922MOL0     H24423   8.237   9.695   8.141  1.4505 -1.0410 -1.1081
  922MOL0     H24424   8.336   9.895   8.001  0.4745  1.1537  0.6680
  922MOL0     H24425   8.399   9.942   8.149 -1.8206  0.1424  0.5674
  922MOL0     H24426   8.448   9.669   7.998  0.6300 -1.4314  2.4056
  922MOL0     H24427   8.534   9.706   8.147  0.1495  1.3664  1.6400
  922MOL0     H24428   8.597   9.929   7.982  2.1396 -1.2490  1.6352
  922MOL0     H24429   8.547   9.810   7.858  0.3874 -1.8542 -0.1537
  922MOL0     H24430   8.694   9.859   7.694 -0.2673 -1.0091 -1.0061
  922MOL0     H24431   8.872   9.883   7.557 -1.5564 -1.7858  0.4900
  922MOL0     H24432   9.457   9.626   7.552 -1.3727  0.4927 -0.0549
  922MOL0     H24433   9.685   9.707   7.461 -0.7672  0.3698 -0.9549
  922MOL0     H24434   9.759  10.133   7.354 -2.4441 -0.0398  1.4983
  922MOL0     H24435   9.793  10.087   7.519  2.0404 -2.1385  1.1641
  922MOL0     H24436   9.989   9.961   7.469 -1.8106  0.6206  1.3737
  922MOL0     H24437   9.971   9.988   7.290  0.9635  0.0857 -0.4041
  922MOL0     H24438  10.014  10.243   7.332 -0.1267  0.9818 -0.7143
  922MOL0     H24439  10.025  10.194   7.506  2.9706 -0.5106  0.4039
  922MOL0     H24440  10.183  10.082   7.277  1.4515 -3.6722  1.0308
  922MOL0     H24441  10.206  10.041   7.450 -0.1016 -1.8418 -1.8625
  922MOL0     H24442  10.318  10.244   7.494 -2.4127 -1.6335  1.0896
  922MOL0     H24443  10.214  10.339   7.406 -0.0928  1.1689  1.9945
  922MOL0     H24444  10.376  10.161   7.228 -4.8662 -2.4521  1.2956
  922MOL0     H24445  10.312  10.312   7.190  0.1212 -0.1272 -0.2359
  922MOL0     H24446  10.543  10.346   7.197 -1.8073 -0.8682 -0.2315
  922MOL0     H24447  10.561  10.259   7.345  2.1734  0.0739 -0.7748
  922MOL0     H24448  10.504  10.464   7.470  2.7004 -2.1429  0.0819
  922MOL0     H24449  10.612  10.497   7.334  0.0921  0.3673  1.0836
  922MOL0     H24450   9.546  10.103   7.457  1.4107 -1.0780  0.3753
  922MOL0     H24451   9.323  10.028   7.567  0.7772  1.3976 -0.6047
  922MOL0     H24452   9.138   9.707   7.836 -1.6991 -1.5245  1.3619
  922MOL0     H24453   8.950   9.670   7.987 -0.3466  0.7874  0.1183
  922MOL0     H24454   6.883  10.340   8.571 -1.3899 -2.4836  1.0027
  922MOL0     H24455   6.649  10.396   8.568  0.3556  1.3596 -0.1982
  922MOL0     H24456   6.412  10.771   8.545 -0.4657  0.6737 -0.9363
  922MOL0     H24457   6.195  10.872   8.599  3.0496 -1.1908  2.1818
  922MOL0     H24458   5.812  10.772   8.431 -2.1424  0.7603 -0.0801
  922MOL0     H24459   5.867  10.895   8.321 -2.0077  1.5476 -0.1900
  922MOL0     H24460   5.820  11.072   8.500 -1.2876  0.4060  2.7191
  922MOL0     H24461   5.782  10.955   8.607 -0.8143  2.5167  0.5130
  922MOL0     H24462   5.567  10.951   8.532 -1.5499  0.6477 -0.2603
  922MOL0     H24463   5.622  10.893   8.376  0.0810 -1.2798  1.4417
  922MOL0     H24464   5.632  11.183   8.478 -0.7683 -1.2270  1.5002
  922MOL0     H24465   5.648  11.134   8.307  0.2519 -0.4218 -0.2112
  922MOL0     H24466   5.254  11.203   8.343  0.5782 -1.7607 -5.3212
  922MOL0     H24467   6.002  10.646   8.297 -0.1243 -0.9650  1.5149
  922MOL0     H24468   6.311  10.446   8.199 -0.7124 -3.5259  0.5885
  922MOL0     H24469   6.158  10.403   8.277 -1.3703  1.2526  0.2386
  922MOL0     H24470   6.155  10.519   8.146 -2.0414  1.0579  1.9271
  923MOL0     O24471   8.059   1.356   8.163  0.0510  0.5222 -0.4655
  923MOL0     C24472   8.150   1.283   8.202  0.1537 -0.3944  0.6952
  923MOL0     O24473   8.284   1.307   8.190 -1.0768  0.0181 -0.1639
  923MOL0     C24474   8.337   1.429   8.150  0.0372 -0.8008 -0.3500
  923MOL0     C24475   8.320   1.480   8.023  0.4714 -0.0900  0.2148
  923MOL0     C24476   8.374   1.605   7.986 -0.7726  0.0632 -0.1767
  923MOL0     C24477   8.448   1.681   8.079 -0.6985 -0.7051  0.4197
  923MOL0     O24478   8.484   1.807   8.030 -0.2540  0.1653  0.3913
  923MOL0     C24479   8.600   1.869   8.093  0.4544 -0.0525  0.0419
  923MOL0     C24480   8.663   1.979   8.009 -0.0408  0.2162  0.0688
  923MOL0     C24481   8.783   2.033   8.083 -0.1055 -0.1652 -0.3383
  923MOL0     C24482   8.847   2.146   8.005  0.5418  0.4676  0.5913
  923MOL0     C24483   8.981   2.200   8.069 -0.4222 -0.3400  0.4766
  923MOL0     C24484   9.018   2.339   8.018 -0.4825 -0.0873 -0.3211
  923MOL0     C24485   9.159   2.374   8.052 -0.2612 -0.6427  0.5094
  923MOL0     C24486   9.179   2.535   8.065  0.4514 -0.3112 -0.2075
  923MOL0     N24487   9.083   2.575   8.169 -0.5701  0.0869  0.0652
  923MOL0     C24488   9.095   2.561   8.300 -0.0963  0.3572  0.5060
  923MOL0     C24489   9.000   2.640   8.354 -0.0536 -0.6320 -0.5964
  923MOL0     C24490   8.983   2.661   8.506 -0.4026 -0.6361 -0.1236
  923MOL0     C24491   9.079   2.765   8.569 -0.8544 -0.0244  0.3440
  923MOL0     C24492   9.078   2.905   8.506  0.2265  0.0059  0.1856
  923MOL0     C24493   8.945   2.973   8.510 -0.4897  0.5717  0.7006
  923MOL0     O24494   8.904   2.987   8.648 -0.2441  0.0493  0.5477
  923MOL0     C24495   8.804   3.071   8.685 -0.0933  0.8757 -0.1431
  923MOL0     C24496   8.714   3.125   8.598  0.3172 -0.8575  0.4007
  923MOL0     C24497   8.611   3.212   8.648 -0.2578  0.1431 -0.1746
  923MOL0     C24498   8.598   3.228   8.792 -0.0007  0.1747  0.9727
  923MOL0     C24499   8.488   3.311   8.849  0.1080  0.5590 -0.1172
  923MOL0     O24500   8.397   3.381   8.779  0.4649 -0.8358  0.7829
  923MOL0     C24501   8.309   3.458   8.843 -0.4864 -0.8678 -0.5270
  923MOL0     C24502   8.184   3.420   8.868 -0.5644 -0.3519  0.4543
  923MOL0     C24503   8.092   3.502   8.935 -0.2377 -0.8208 -0.4580
  923MOL0     C24504   8.127   3.634   8.973  0.6289  1.0224 -0.0826
  923MOL0     O24505   8.031   3.716   9.031  0.0486  0.0699 -0.8252
  923MOL0     C24506   8.057   3.853   9.029  0.1576 -0.0173  0.0500
  923MOL0     C24507   7.940   3.938   9.074  0.3594  0.5190 -0.0446
  923MOL0     C24508   7.830   3.944   8.971  0.6806  0.0430 -0.2343
  923MOL0     C24509   7.726   4.051   9.013 -0.5076 -0.0964  0.9611
  923MOL0     C24510   7.615   4.071   8.909 -0.8513  0.0204 -0.1473
  923MOL0     C24511   7.529   4.189   8.966 -0.3641  0.7746  0.0807
  923MOL0     C24512   7.381   4.177   8.933 -0.2579  0.6932  0.0552
  923MOL0     C24513   7.358   4.199   8.786  0.1137  1.5446 -0.8417
  923MOL0    Cl24514   7.188   4.146   8.758 -0.3264 -0.2395 -0.0574
  923MOL0     C24515   8.259   3.675   8.956 -0.1223 -0.6746 -0.5674
  923MOL0     C24516   8.348   3.586   8.895  0.4903  0.2652 -0.0996
  923MOL0     O24517   8.491   3.302   8.972 -1.1635 -0.5531  0.4070
  923MOL0     C24518   8.685   3.161   8.876  0.3014 -0.8100  0.8929
  923MOL0     C24519   8.795   3.091   8.824 -0.0941  1.4266 -0.1211
  923MOL0     N24520   8.924   2.694   8.255 -0.3385  0.1449 -0.8057
  923MOL0     N24521   8.984   2.661   8.149 -0.0343 -0.4707 -0.3287
  923MOL0     C24522   8.465   1.635   8.209 -0.0752  0.8137  0.0234
  923MOL0     C24523   8.413   1.510   8.241  0.1105  0.4684 -0.6277
  923MOL0     C24524   8.109   1.157   8.266 -0.0869 -0.4329  0.1186
  923MOL0     C24525   8.212   1.077   8.312 -0.8292 -0.4121 -0.3955
  923MOL0     C24526   8.191   0.955   8.378  0.4193 -0.2154  0.8261
  923MOL0     C24527   8.060   0.906   8.396  0.6589 -0.6161  0.3246
  923MOL0     O24528   8.049   0.784   8.451 -0.3325  0.6866  0.1996
  923MOL0     C24529   7.917   0.735   8.478  0.1245 -0.6210  0.1477
  923MOL0     C24530   7.913   0.584   8.504 -1.0057  0.1878  0.0507
  923MOL0     C24531   7.897   0.505   8.376 -0.2166  0.3683 -0.1148
  923MOL0     C24532   7.777   0.536   8.289 -0.6326 -0.0386  0.1332
  923MOL0     C24533   7.757   0.428   8.188  0.3864  0.2845  0.0413
  923MOL0     C24534   7.768   0.343   8.101 -1.2026 -0.4357  0.4647
  923MOL0     C24535   7.954   0.987   8.357 -0.3479 -0.3060 -0.1034
  923MOL0     C24536   7.977   1.113   8.300 -0.1935  0.3080  0.2620
  923MOL0     C24537   7.849   1.179   8.246 -0.2792  0.4527  0.6544
  923MOL0     H24538   8.265   1.428   7.944 -0.0464 -1.2358  1.2990
  923MOL0     H24539   8.352   1.665   7.898  3.2145  0.7632 -0.8747
  923MOL0     H24540   8.569   1.909   8.191  2.5233  0.1339  0.6686
  923MOL0     H24541   8.678   1.795   8.109 -2.1778 -4.4641 -4.7402
  923MOL0     H24542   8.596   2.062   7.985  0.2042  0.3504 -0.1524
  923MOL0     H24543   8.698   1.930   7.917 -2.2527 -1.4430  0.0280
  923MOL0     H24544   8.854   1.953   8.106  2.4317  1.7489 -0.9490
  923MOL0     H24545   8.737   2.063   8.178 -0.5274 -1.5283 -0.1003
  923MOL0     H24546   8.867   2.101   7.908 -0.1747 -2.2486  1.6049
  923MOL0     H24547   8.773   2.224   7.982 -0.8393 -0.9435  0.1118
  923MOL0     H24548   8.993   2.207   8.178 -2.2141  1.5601  0.6189
  923MOL0     H24549   9.057   2.128   8.037 -0.4269 -1.1495  2.1408
  923MOL0     H24550   9.007   2.343   7.909 -0.3576 -0.9454 -0.3746
  923MOL0     H24551   8.943   2.406   8.061 -2.4635 -0.7735 -2.4817
  923MOL0     H24552   9.225   2.333   7.975 -3.3363 -0.8757 -2.2476
  923MOL0     H24553   9.180   2.333   8.151  1.9707  1.8587  1.1774
  923MOL0     H24554   9.279   2.564   8.099  0.2444  3.3221 -2.1756
  923MOL0     H24555   9.156   2.589   7.972 -2.3615 -1.7498 -0.4365
  923MOL0     H24556   9.174   2.506   8.350  0.6622 -0.1658 -1.1989
  923MOL0     H24557   8.885   2.698   8.537  0.7760  0.2570  2.8784
  923MOL0     H24558   9.011   2.573   8.563  2.6901  1.2116  1.4914
  923MOL0     H24559   9.054   2.770   8.675 -4.1323 -1.1533 -0.2692
  923MOL0     H24560   9.182   2.726   8.565  0.1976  2.3632 -5.2887
  923MOL0     H24561   9.109   2.903   8.401 -1.7112  1.0657 -0.4633
  923MOL0     H24562   9.149   2.969   8.559  2.2239 -1.4374 -0.6492
  923MOL0     H24563   8.866   2.922   8.454 -1.5198  3.2303 -0.4183
  923MOL0     H24564   8.946   3.067   8.455  0.1082 -0.6073 -1.4175
  923MOL0     H24565   8.729   3.108   8.492  1.9562 -2.0700  0.7790
  923MOL0     H24566   8.554   3.264   8.571  1.8548  0.8757 -1.3261
  923MOL0     H24567   8.155   3.324   8.828 -0.0015  0.7807 -2.9781
  923MOL0     H24568   7.992   3.464   8.952 -0.3155  0.0204  1.1162
  923MOL0     H24569   8.149   3.877   9.083  1.3984  0.3265 -2.1068
  923MOL0     H24570   8.086   3.887   8.930  4.1876  2.3392  1.8067
  923MOL0     H24571   7.893   3.886   9.158  0.9428 -2.2363 -1.3353
  923MOL0     H24572   7.976   4.034   9.112  0.9279 -0.8965  3.3418
  923MOL0     H24573   7.860   3.963   8.868 -2.2879  0.5711 -1.1031
  923MOL0     H24574   7.785   3.845   8.970  0.2609  0.2112  0.5951
  923MOL0     H24575   7.776   4.148   9.022  0.0800 -0.1031 -1.5553
  923MOL0     H24576   7.682   4.021   9.108 -2.2941  0.6437  0.4089
  923MOL0     H24577   7.554   3.980   8.902  0.4547 -1.2256  2.8540
  923MOL0     H24578   7.658   4.109   8.816 -1.4539 -0.2533 -0.5482
  923MOL0     H24579   7.527   4.186   9.076 -3.0166  0.9044  0.0954
  923MOL0     H24580   7.574   4.280   8.927 -1.2974  0.9210 -0.6869
  923MOL0     H24581   7.330   4.265   8.973  2.3746  2.5836 -0.4920
  923MOL0     H24582   7.328   4.087   8.966  1.0893  0.0775  0.6069
  923MOL0     H24583   7.385   4.300   8.756 -0.0406  2.5261  2.0191
  923MOL0     H24584   7.422   4.136   8.725 -0.6027 -1.8077  1.5617
  923MOL0     H24585   8.309   3.764   8.993 -1.7536  0.2542 -0.5386
  923MOL0     H24586   8.453   3.611   8.881  0.5599  1.1254  1.7121
  923MOL0     H24587   8.700   3.171   8.983  5.4451  4.9508  0.2142
  923MOL0     H24588   8.874   3.051   8.887 -1.3195 -1.4953 -0.2551
  923MOL0     H24589   8.509   1.686   8.293  2.6771  4.3594 -3.2009
  923MOL0     H24590   8.415   1.480   8.345 -1.3528  3.3433  0.3063
  923MOL0     H24591   8.309   1.113   8.281 -1.2306 -0.1599 -1.3806
  923MOL0     H24592   8.285   0.905   8.400  1.6254  1.4538 -0.3213
  923MOL0     H24593   7.854   0.762   8.394  1.2837  0.2599 -0.4793
  923MOL0     H24594   7.887   0.783   8.572  0.8694  0.2201 -0.0257
  923MOL0     H24595   7.829   0.562   8.570 -0.9460  1.3642  0.5556
  923MOL0     H24596   7.999   0.548   8.560 -0.4180  1.6493  0.1356
  923MOL0     H24597   7.901   0.399   8.403  1.0405  1.0438  2.7285
  923MOL0     H24598   7.987   0.531   8.320  2.3028 -2.6414  2.1792
  923MOL0     H24599   7.689   0.535   8.354  0.4592  1.2552  1.7172
  923MOL0     H24600   7.789   0.633   8.240 -4.6663 -0.9969 -3.3147
  923MOL0     H24601   7.764   0.256   8.038 -2.2329 -0.4646  0.5589
  923MOL0     H24602   7.854   0.946   8.362  0.1808 -2.0850 -2.1615
  923MOL0     H24603   7.759   1.122   8.269  0.3095 -0.1665  1.4784
  923MOL0     H24604   7.849   1.273   8.302  1.5104  1.1163 -0.3734
  923MOL0     H24605   7.865   1.201   8.140  1.1582  0.7832  0.9136
  924MOL0     O24606   7.873  11.239   9.548  0.0290 -0.3024 -0.4189
  924MOL0     C24607   7.771  11.307   9.591  0.5709 -0.0065  0.0067
  924MOL0     O24608   7.775  11.431   9.628  0.5357  1.2836 -0.5933
  924MOL0     C24609   7.884  11.495   9.679 -0.3781  0.9539 -0.4114
  924MOL0     C24610   7.856  11.608   9.748 -0.0469 -0.3554 -0.1548
  924MOL0     C24611   7.951  11.672   9.822 -0.3953  0.3335 -0.9004
  924MOL0     C24612   8.088  11.643   9.800  0.6462 -0.3493 -0.3295
  924MOL0     O24613   8.172  11.747   9.838 -0.7504 -0.6415  0.1405
  924MOL0     C24614   8.310  11.762   9.778  0.8173 -0.6915 -0.6472
  924MOL0     C24615   8.306  11.807   9.633  0.5471  0.1111 -0.0734
  924MOL0     C24616   8.205  11.924   9.625  0.4299 -0.4771 -1.1984
  924MOL0     C24617   8.177  11.961   9.479 -0.3889  0.0475 -0.9873
  924MOL0     C24618   8.277  12.046   9.410 -0.3139  0.0554  0.7529
  924MOL0     C24619   8.247  12.050   9.260 -0.3380 -0.3789 -0.3155
  924MOL0     C24620   8.340  12.128   9.176  0.4881 -0.4338  0.4741
  924MOL0     C24621   8.323  12.284   9.196  0.5201 -0.3963  0.6195
  924MOL0     N24622   8.395  12.350   9.079  0.4183 -0.3093  0.5906
  924MOL0     C24623   8.330  12.402   8.966 -0.4282  1.1128  0.9535
  924MOL0     C24624   8.421  12.482   8.914  0.3640  0.3940 -0.7220
  924MOL0     C24625   8.425  12.557   8.778  0.1112 -0.1269 -0.1664
  924MOL0     C24626   8.447  12.472   8.649  0.0624 -0.6270 -0.3905
  924MOL0     C24627   8.575  12.382   8.661 -0.2162  0.4113 -0.5660
  924MOL0     C24628   8.607  12.304   8.531  0.1130 -0.2826  0.0106
  924MOL0     O24629   8.593  12.389   8.416  0.4317  0.2793 -0.2944
  924MOL0     C24630   8.685  12.493   8.392 -0.7339  0.2610  0.1834
  924MOL0     C24631   8.802  12.522   8.474  0.1843 -0.0554  0.0012
  924MOL0     C24632   8.864  12.647   8.466 -0.1811  0.3568 -0.3061
  924MOL0     C24633   8.828  12.741   8.364  0.0805  0.4024  0.0789
  924MOL0     C24634   8.904  12.870   8.343  0.3157 -1.5339  0.9182
  924MOL0     O24635   9.001  12.899   8.436  0.3594  0.2209 -0.3302
  924MOL0     C24636   9.080  13.013   8.433 -0.0326  0.8014 -0.1582
  924MOL0     C24637   9.052  13.134   8.365 -0.2686  0.8922  0.6438
  924MOL0     C24638   9.150  13.239   8.380  0.2997 -0.6536  0.6776
  924MOL0     C24639   9.271  13.225   8.444  0.7115  0.2494 -0.2868
  924MOL0     O24640   9.369  13.316   8.436 -0.0816  0.6760 -0.2099
  924MOL0     C24641   9.346  13.450   8.389  0.6358 -0.3084 -0.4471
  924MOL0     C24642   9.455  13.543   8.438  0.0008 -0.1234 -1.0077
  924MOL0     C24643   9.437  13.577   8.581  0.2373  0.2337  0.6714
  924MOL0     C24644   9.525  13.693   8.626  0.3399  0.5376 -0.4344
  924MOL0     C24645   9.645  13.633   8.702  0.0335  0.0582 -1.1106
  924MOL0     C24646   9.612  13.570   8.840  0.1331  0.4719 -0.3317
  924MOL0     C24647   9.739  13.515   8.903  0.1000 -1.0581 -0.6371
  924MOL0     C24648   9.724  13.456   9.041 -0.8425  0.6745 -0.1633
  924MOL0    Cl24649   9.871  13.446   9.131 -0.4877  0.2788  0.1554
  924MOL0     C24650   9.294  13.111   8.515  1.0312 -0.0652 -0.1030
  924MOL0     C24651   9.191  13.008   8.518  0.0172 -0.7578 -0.4060
  924MOL0     O24652   8.872  12.939   8.236 -0.9602 -0.0307  0.6060
  924MOL0     C24653   8.722  12.703   8.284 -0.8069 -0.4962  0.5811
  924MOL0     C24654   8.655  12.586   8.297  0.1501 -0.1157 -0.0057
  924MOL0     N24655   8.544  12.465   8.979  0.2195  0.4469  0.8677
  924MOL0     N24656   8.529  12.384   9.071  0.4804  0.3220  0.0734
  924MOL0     C24657   8.115  11.525   9.725  0.1944 -0.0667  0.2281
  924MOL0     C24658   8.016  11.448   9.667  0.0902 -0.2532 -0.1328
  924MOL0     C24659   7.632  11.242   9.594  0.3173  0.4708  1.1648
  924MOL0     C24660   7.521  11.310   9.653  0.0113 -0.0085 -0.1222
  924MOL0     C24661   7.390  11.263   9.645 -0.3622  0.1110  0.2173
  924MOL0     C24662   7.365  11.145   9.577  0.4114  0.0834  0.2214
  924MOL0     O24663   7.239  11.090   9.575  0.1013 -0.2425 -0.4253
  924MOL0     C24664   7.203  11.057   9.439  1.0896 -0.0341 -0.7441
  924MOL0     C24665   7.055  10.989   9.442 -0.0584 -0.4495  0.0892
  924MOL0     C24666   6.942  11.083   9.480  0.1613  0.9267 -0.1499
  924MOL0     C24667   6.942  11.107   9.631 -0.6818 -0.1466  0.0606
  924MOL0     C24668   6.819  11.147   9.691  0.6079 -0.3141  0.4968
  924MOL0     C24669   6.716  11.178   9.745  0.0692 -0.7921 -0.2897
  924MOL0     C24670   7.469  11.071   9.523  0.7163 -0.0374 -0.2616
  924MOL0     C24671   7.599  11.112   9.532  0.2158  0.0653  0.0948
  924MOL0     C24672   7.700  11.016   9.490  0.1605 -0.1662  0.2148
  924MOL0     H24673   7.753  11.642   9.741 -0.0515 -0.0764  1.0465
  924MOL0     H24674   7.928  11.758   9.885  0.9562 -0.1504  0.3228
  924MOL0     H24675   8.351  11.844   9.837  0.1242 -1.6418  1.2607
  924MOL0     H24676   8.377  11.676   9.786  1.0229 -0.4077  0.9471
  924MOL0     H24677   8.278  11.725   9.566 -1.8104  0.0413  0.8920
  924MOL0     H24678   8.408  11.836   9.605  0.9829 -2.2374 -1.2011
  924MOL0     H24679   8.249  12.007   9.681  1.3947 -2.6399  1.4669
  924MOL0     H24680   8.108  11.906   9.670 -0.2016  0.1074 -2.2789
  924MOL0     H24681   8.168  11.870   9.420  0.3021 -0.4064 -0.4102
  924MOL0     H24682   8.084  12.017   9.468  1.0030  3.1313  1.3511
  924MOL0     H24683   8.272  12.148   9.450 -0.0874  0.4417 -0.1774
  924MOL0     H24684   8.382  12.014   9.412 -0.3113 -0.0818 -0.7923
  924MOL0     H24685   8.252  11.948   9.219  1.8238  0.3264 -1.9723
  924MOL0     H24686   8.149  12.098   9.250 -0.8579 -1.0347  1.3061
  924MOL0     H24687   8.333  12.099   9.071  2.3073 -0.3474  0.2903
  924MOL0     H24688   8.443  12.106   9.207  1.7605  3.9493  0.1775
  924MOL0     H24689   8.219  12.315   9.197  0.7661  0.7866 -2.1245
  924MOL0     H24690   8.371  12.312   9.290 -2.5893  3.4839  1.3058
  924MOL0     H24691   8.228  12.377   8.938  0.8433  1.0121 -4.7132
  924MOL0     H24692   8.330  12.608   8.759  0.2543  0.0619 -0.3890
  924MOL0     H24693   8.500  12.637   8.785 -1.1347  1.1705 -1.0089
  924MOL0     H24694   8.365  12.402   8.628 -0.9052 -0.0191  1.1440
  924MOL0     H24695   8.469  12.543   8.569  0.1370 -0.3836 -0.1586
  924MOL0     H24696   8.568  12.306   8.740  1.2883 -0.1503 -0.9450
  924MOL0     H24697   8.660  12.443   8.690  0.4761 -1.4852  1.7696
  924MOL0     H24698   8.535  12.223   8.536 -0.0674 -0.0528  2.1005
  924MOL0     H24699   8.708  12.261   8.532  0.1194 -0.3012 -0.8050
  924MOL0     H24700   8.831  12.469   8.564  2.0439  4.2593  2.2686
  924MOL0     H24701   8.946  12.673   8.532 -1.3135  1.5817  0.6975
  924MOL0     H24702   8.956  13.153   8.320 -0.2525 -0.5033 -0.0547
  924MOL0     H24703   9.137  13.335   8.331  0.3724 -1.5418 -1.1986
  924MOL0     H24704   9.342  13.446   8.280 -1.4893  2.1076 -0.5430
  924MOL0     H24705   9.250  13.489   8.423  0.9849  0.6485 -0.5404
  924MOL0     H24706   9.553  13.501   8.413 -0.2229 -1.7954  0.6633
  924MOL0     H24707   9.452  13.637   8.383  2.9527  1.2570  0.9802
  924MOL0     H24708   9.329  13.595   8.592 -0.2089 -1.2409 -0.8743
  924MOL0     H24709   9.453  13.481   8.630  2.9830 -0.2176 -0.9387
  924MOL0     H24710   9.466  13.768   8.680  1.0827  1.8379 -1.3502
  924MOL0     H24711   9.556  13.750   8.538  0.7648  0.2467 -0.4758
  924MOL0     H24712   9.708  13.720   8.723 -0.5484 -0.3482  3.2703
  924MOL0     H24713   9.698  13.556   8.645  1.1118 -0.0690 -0.0028
  924MOL0     H24714   9.577  13.644   8.912  0.7547  0.3249  0.1296
  924MOL0     H24715   9.535  13.495   8.820 -2.2198  2.9689 -1.3858
  924MOL0     H24716   9.823  13.585   8.900 -0.4423 -0.4095 -1.3133
  924MOL0     H24717   9.779  13.441   8.833 -0.1295 -0.8824 -0.9615
  924MOL0     H24718   9.663  13.526   9.099 -1.6666  0.3916 -0.6762
  924MOL0     H24719   9.673  13.360   9.028 -0.2634  0.6944 -3.2838
  924MOL0     H24720   9.385  13.091   8.572  0.8407 -3.5471 -0.8052
  924MOL0     H24721   9.208  12.925   8.585  1.2833  2.5281  3.8311
  924MOL0     H24722   8.684  12.766   8.204  0.9809  0.5906  0.5251
  924MOL0     H24723   8.579  12.559   8.224  0.8017  0.4636 -0.9139
  924MOL0     H24724   8.217  11.490   9.709 -0.0467  0.1738 -2.2484
  924MOL0     H24725   8.040  11.354   9.619 -0.6088 -0.5501  0.0810
  924MOL0     H24726   7.546  11.384   9.729  0.3888 -2.9839  2.9161
  924MOL0     H24727   7.312  11.320   9.695  0.1323  1.9481 -1.0064
  924MOL0     H24728   7.264  10.975   9.402  0.3832 -0.8730 -0.0896
  924MOL0     H24729   7.204  11.145   9.373  2.3072 -0.7895 -1.7674
  924MOL0     H24730   7.064  10.898   9.502  0.9951 -1.3947 -1.4233
  924MOL0     H24731   7.039  10.953   9.340 -0.7990  3.3293 -1.3222
  924MOL0     H24732   6.844  11.044   9.451 -0.3161  1.7294  0.3685
  924MOL0     H24733   6.958  11.177   9.426 -3.8478  0.7469 -2.0229
  924MOL0     H24734   6.978  11.014   9.676 -0.4073 -0.8926 -1.6334
  924MOL0     H24735   7.010  11.191   9.648 -0.5980 -0.2460  0.2142
  924MOL0     H24736   6.624  11.206   9.793 -1.3075 -0.3753 -2.9799
  924MOL0     H24737   7.440  10.969   9.497 -2.0252 -0.3553  3.2480
  924MOL0     H24738   7.665  10.913   9.496  2.6799 -1.0737  0.3475
  924MOL0     H24739   7.726  11.042   9.387  1.8347  0.0677  0.6735
  924MOL0     H24740   7.786  11.021   9.557 -0.6485  1.9778  1.1907
  925MOL0     O24741   2.612   9.198   4.170 -0.5385  0.1998  0.0287
  925MOL0     C24742   2.609   9.186   4.293  0.4207  0.2702 -0.4207
  925MOL0     O24743   2.716   9.186   4.385  0.3606  0.1782  0.0265
  925MOL0     C24744   2.849   9.212   4.358 -0.2481 -0.4953  0.0134
  925MOL0     C24745   2.946   9.219   4.461  0.2563  0.8979  0.3004
  925MOL0     C24746   3.079   9.246   4.446 -0.5707  0.2416  0.1842
  925MOL0     C24747   3.125   9.292   4.324  0.5238  0.6665 -0.0944
  925MOL0     O24748   3.253   9.337   4.313  0.1052 -0.6953  0.3368
  925MOL0     C24749   3.350   9.240   4.358  1.1431  0.5851 -0.3250
  925MOL0     C24750   3.466   9.327   4.409  0.4629  0.0149  0.3391
  925MOL0     C24751   3.579   9.237   4.465 -0.2891  0.5102  0.1735
  925MOL0     C24752   3.700   9.312   4.452  0.1763 -0.5573  0.1777
  925MOL0     C24753   3.828   9.233   4.485  0.4771 -0.0867  0.3122
  925MOL0     C24754   3.947   9.331   4.483  0.5363  0.4920 -0.2056
  925MOL0     C24755   4.084   9.262   4.509 -0.6848 -0.3935 -0.1835
  925MOL0     C24756   4.195   9.334   4.436  0.4576  0.1184 -0.5988
  925MOL0     N24757   4.325   9.269   4.459  0.0773  0.4260 -0.7885
  925MOL0     C24758   4.353   9.136   4.496  0.3797  0.0124 -0.4400
  925MOL0     C24759   4.482   9.115   4.478 -0.0208  0.0199 -0.0238
  925MOL0     C24760   4.557   8.977   4.486 -0.6899 -0.6891 -0.0319
  925MOL0     C24761   4.714   8.981   4.507  0.0160 -0.6544  0.8201
  925MOL0     C24762   4.741   9.058   4.638 -0.8493 -0.6594  0.5966
  925MOL0     C24763   4.879   9.020   4.694  0.3911  0.6150 -0.2203
  925MOL0     O24764   4.986   9.055   4.599 -0.3568 -0.4359 -0.8642
  925MOL0     C24765   5.114   9.047   4.632  0.0727 -0.3096  0.1568
  925MOL0     C24766   5.164   8.961   4.727 -0.1022  0.5529  0.1231
  925MOL0     C24767   5.299   8.953   4.756 -0.4433 -0.3447 -0.2766
  925MOL0     C24768   5.390   9.035   4.685 -0.0180  0.7937 -0.3200
  925MOL0     C24769   5.536   9.032   4.709 -0.4471  0.0078 -0.1982
  925MOL0     O24770   5.582   8.959   4.812 -0.5377  0.5484  0.1501
  925MOL0     C24771   5.726   8.965   4.840  1.3867 -0.2000  0.2489
  925MOL0     C24772   5.748   9.001   4.973 -0.3135  0.2900 -0.3020
  925MOL0     C24773   5.881   9.013   5.006 -0.3191 -0.8971 -0.0267
  925MOL0     C24774   5.983   8.995   4.916  0.2431  0.1264  0.1909
  925MOL0     O24775   6.115   9.002   4.954  0.2071 -0.3471  0.3006
  925MOL0     C24776   6.156   8.923   5.076 -0.2745 -1.0743  0.7885
  925MOL0     C24777   6.298   8.885   5.078 -1.1275  0.4082  1.2657
  925MOL0     C24778   6.338   8.784   4.965 -0.3616 -0.5062  0.5447
  925MOL0     C24779   6.477   8.738   4.984 -0.7192  0.3094 -0.8663
  925MOL0     C24780   6.591   8.846   4.972 -0.6618 -0.7067 -0.5232
  925MOL0     C24781   6.726   8.777   4.973  0.0027 -0.2564 -0.5079
  925MOL0     C24782   6.838   8.880   4.991  0.3482  1.1024  0.2572
  925MOL0     C24783   6.982   8.805   5.007 -0.4019  0.1879 -0.2126
  925MOL0    Cl24784   7.018   8.694   4.858 -0.5732 -0.0883 -1.2374
  925MOL0     C24785   5.952   8.966   4.786  0.4203  0.1963 -0.4162
  925MOL0     C24786   5.826   8.945   4.741  0.4231  0.1152  0.9083
  925MOL0     O24787   5.601   9.101   4.638  0.6038 -0.0687 -0.0018
  925MOL0     C24788   5.339   9.116   4.581  0.3570  0.0708 -0.2289
  925MOL0     C24789   5.205   9.122   4.558  0.4507 -0.7688  0.4040
  925MOL0     N24790   4.539   9.237   4.451  0.0332 -0.2874 -0.3820
  925MOL0     N24791   4.451   9.328   4.426  0.9477  0.4940 -0.4337
  925MOL0     C24792   3.034   9.309   4.212  0.2221 -0.0107 -1.1854
  925MOL0     C24793   2.899   9.274   4.234  0.1291  0.0410  1.1747
  925MOL0     C24794   2.475   9.199   4.350  0.4567 -0.1733  0.1065
  925MOL0     C24795   2.373   9.257   4.275 -0.7299  0.5441 -0.1782
  925MOL0     C24796   2.247   9.276   4.317 -0.1635  0.5816 -0.0136
  925MOL0     C24797   2.204   9.211   4.436 -0.0103 -0.0394  0.0543
  925MOL0     O24798   2.064   9.203   4.450 -0.5763  0.5632  0.1739
  925MOL0     C24799   2.000   9.128   4.561 -0.5895  0.0350  0.7434
  925MOL0     C24800   1.861   9.083   4.518  0.3159  0.4091 -0.1378
  925MOL0     C24801   1.764   9.199   4.488  0.2440  0.5495 -0.4378
  925MOL0     C24802   1.617   9.156   4.468 -0.5657  0.1477 -0.1463
  925MOL0     C24803   1.547   9.110   4.591 -0.3510 -0.1468 -0.5201
  925MOL0     C24804   1.478   9.079   4.687  0.1528 -0.0447 -1.0673
  925MOL0     C24805   2.303   9.152   4.522 -0.5940  0.1985  0.8155
  925MOL0     C24806   2.435   9.138   4.475  0.2787  0.0646  0.8353
  925MOL0     C24807   2.528   9.059   4.562 -0.8500  0.7140  0.3127
  925MOL0     H24808   2.910   9.208   4.563  0.7809  1.8537  0.5977
  925MOL0     H24809   3.147   9.260   4.529  0.9888 -0.0381 -0.9959
  925MOL0     H24810   3.308   9.161   4.421  0.6986  0.0226 -1.2859
  925MOL0     H24811   3.382   9.189   4.266  0.6738 -2.5534  1.1241
  925MOL0     H24812   3.429   9.400   4.482 -0.8168 -0.9171  0.6684
  925MOL0     H24813   3.498   9.381   4.320 -1.3751  0.1337 -0.2966
  925MOL0     H24814   3.587   9.144   4.409  1.1648 -0.1867  1.4745
  925MOL0     H24815   3.557   9.207   4.567  1.3013 -4.2693 -0.6601
  925MOL0     H24816   3.718   9.359   4.355 -1.6281  2.2778  1.0669
  925MOL0     H24817   3.692   9.408   4.504 -0.0940  0.8778 -2.3384
  925MOL0     H24818   3.824   9.191   4.586 -1.6890 -0.4230  0.1412
  925MOL0     H24819   3.842   9.144   4.423 -1.1012 -1.8918  2.3939
  925MOL0     H24820   3.950   9.368   4.380  1.0282  0.6234 -0.1444
  925MOL0     H24821   3.930   9.407   4.560  0.5171  0.4041 -0.1235
  925MOL0     H24822   4.082   9.157   4.477 -3.3417  0.4635 -3.3274
  925MOL0     H24823   4.104   9.272   4.617  1.3548  1.5354 -0.6702
  925MOL0     H24824   4.166   9.334   4.331  0.9442 -0.8811 -0.7400
  925MOL0     H24825   4.202   9.433   4.483  0.1187 -0.5199  0.8540
  925MOL0     H24826   4.276   9.065   4.526 -0.7812  1.0934 -0.7481
  925MOL0     H24827   4.493   8.920   4.554 -1.6150  1.0567  0.5980
  925MOL0     H24828   4.552   8.936   4.385 -1.3694  0.3074 -0.4117
  925MOL0     H24829   4.747   8.876   4.503 -1.7128 -1.4498  4.1992
  925MOL0     H24830   4.751   9.039   4.422  1.5181 -0.4067  1.6119
  925MOL0     H24831   4.666   9.031   4.713 -1.1771  0.6448  0.7621
  925MOL0     H24832   4.734   9.165   4.614 -2.2916 -1.4477 -3.4879
  925MOL0     H24833   4.876   8.911   4.705 -2.0409  0.5302 -1.0318
  925MOL0     H24834   4.898   9.070   4.789  3.0212  0.2527 -0.4746
  925MOL0     H24835   5.106   8.888   4.782  4.3088 -3.6487 -0.1374
  925MOL0     H24836   5.328   8.892   4.840  1.6708  0.6551 -0.2126
  925MOL0     H24837   5.667   9.006   5.045 -2.1153  1.9280 -2.3181
  925MOL0     H24838   5.893   9.035   5.112  0.8123 -0.6767 -0.1889
  925MOL0     H24839   6.145   8.983   5.167  1.3816  0.7121 -0.1127
  925MOL0     H24840   6.106   8.826   5.083 -1.1597 -0.6725  0.2857
  925MOL0     H24841   6.362   8.972   5.063 -2.8512  1.2259 -2.2250
  925MOL0     H24842   6.319   8.830   5.171  1.9687 -2.1149 -0.6971
  925MOL0     H24843   6.280   8.691   4.970  1.6099 -2.1812 -3.5388
  925MOL0     H24844   6.323   8.831   4.867 -0.8864  0.6160  1.1309
  925MOL0     H24845   6.506   8.653   4.921  2.7953  1.6319 -1.2045
  925MOL0     H24846   6.488   8.691   5.083 -1.4000 -0.3763 -1.1010
  925MOL0     H24847   6.594   8.903   5.065 -0.0263 -2.6304  0.6930
  925MOL0     H24848   6.589   8.913   4.886 -1.5413 -0.6617 -0.4757
  925MOL0     H24849   6.729   8.714   5.062  4.0559 -0.3099 -0.5148
  925MOL0     H24850   6.739   8.712   4.886  1.0387 -0.2427 -0.3712
  925MOL0     H24851   6.812   8.952   5.069 -0.5197  0.3836  0.6489
  925MOL0     H24852   6.844   8.942   4.902 -1.2273  0.2411 -0.4857
  925MOL0     H24853   7.061   8.880   5.013  0.0860 -0.2594 -0.8849
  925MOL0     H24854   6.980   8.744   5.098 -0.7563  1.2999  0.5380
  925MOL0     H24855   6.036   8.940   4.723  0.5711 -2.3715  0.6907
  925MOL0     H24856   5.807   8.906   4.642  0.7597  1.8431  0.1172
  925MOL0     H24857   5.399   9.182   4.520  0.8476 -0.4101 -0.2769
  925MOL0     H24858   5.166   9.194   4.486  0.6159 -0.2995  0.7746
  925MOL0     H24859   3.075   9.358   4.125  1.1314  1.2970 -0.0701
  925MOL0     H24860   2.842   9.289   4.143  1.3806 -3.2067 -0.3206
  925MOL0     H24861   2.403   9.295   4.179  0.6745  1.1570  0.4799
  925MOL0     H24862   2.176   9.307   4.241 -0.4592 -1.2545 -0.5243
  925MOL0     H24863   2.004   9.191   4.651  0.1241  1.3419 -0.1625
  925MOL0     H24864   2.044   9.029   4.576 -2.5583 -0.5338  3.4161
  925MOL0     H24865   1.837   9.020   4.604  0.5022 -2.0843 -1.8174
  925MOL0     H24866   1.858   9.008   4.439 -3.1041 -0.4420  0.6226
  925MOL0     H24867   1.795   9.257   4.401 -2.3331  0.0097 -1.8302
  925MOL0     H24868   1.763   9.280   4.561 -0.8323  0.2643 -0.1166
  925MOL0     H24869   1.565   9.241   4.422  1.8254  1.4981 -0.5388
  925MOL0     H24870   1.619   9.085   4.384 -1.9959  0.5731 -0.5777
  925MOL0     H24871   1.411   9.043   4.763 -0.4311 -0.6079 -1.8220
  925MOL0     H24872   2.271   9.091   4.606  0.7324  1.4135  2.2770
  925MOL0     H24873   2.481   9.022   4.653  2.3041  3.5485  3.4133
  925MOL0     H24874   2.566   8.976   4.502  1.9179  3.5393 -2.2497
  925MOL0     H24875   2.615   9.107   4.609  1.2845 -3.2411  0.7643
  926MOL0     O24876   9.419   4.800   5.399 -0.8881 -0.2445 -0.3735
  926MOL0     C24877   9.486   4.893   5.360 -0.4269  0.2590  0.1831
  926MOL0     O24878   9.614   4.916   5.401 -0.8119 -0.4601  0.0035
  926MOL0     C24879   9.663   4.844   5.514  0.0017  0.6715  0.4225
  926MOL0     C24880   9.598   4.839   5.634  0.0453  0.8806  0.2467
  926MOL0     C24881   9.667   4.780   5.742  0.2167 -1.0058 -0.6625
  926MOL0     C24882   9.797   4.723   5.724 -0.2640 -0.4684 -0.5576
  926MOL0     O24883   9.859   4.671   5.832  0.4857  0.3503 -0.0253
  926MOL0     C24884   9.995   4.705   5.844  0.2198  0.0744  0.0443
  926MOL0     C24885  10.014   4.698   5.997 -0.4307 -1.0345 -0.1502
  926MOL0     C24886  10.165   4.743   6.043  0.5074 -0.1542  0.1820
  926MOL0     C24887  10.224   4.653   6.151  0.1342  0.0607  0.1068
  926MOL0     C24888  10.364   4.708   6.186 -0.5643 -0.4299 -0.2579
  926MOL0     C24889  10.434   4.611   6.276 -1.1889 -0.1013 -0.5809
  926MOL0     C24890  10.579   4.653   6.295  0.1850  0.2572  0.2361
  926MOL0     C24891  10.643   4.555   6.400  0.0104  0.2589 -0.0378
  926MOL0     N24892  10.788   4.583   6.407  0.1415 -0.1491  0.1164
  926MOL0     C24893  10.850   4.681   6.482 -0.8111 -1.0242 -0.9041
  926MOL0     C24894  10.983   4.652   6.471 -0.0361  0.0189  0.3530
  926MOL0     C24895  11.081   4.718   6.563 -0.4488  0.3741  0.5464
  926MOL0     C24896  11.198   4.623   6.591 -0.1764 -1.1381  0.6669
  926MOL0     C24897  11.302   4.688   6.687  0.2457 -0.4954 -0.7962
  926MOL0     C24898  11.434   4.725   6.615  0.6729 -0.1042  0.3160
  926MOL0     O24899  11.530   4.781   6.713 -0.3289 -0.2196  0.1375
  926MOL0     C24900  11.654   4.797   6.672 -1.0005 -0.2020 -0.5101
  926MOL0     C24901  11.750   4.748   6.762 -0.5870 -0.2575 -0.1695
  926MOL0     C24902  11.884   4.753   6.725  0.5365  0.2454 -0.1581
  926MOL0     C24903  11.925   4.821   6.606 -0.1103 -0.0716  0.5523
  926MOL0     C24904  12.070   4.836   6.569  0.3381  0.8502 -0.2692
  926MOL0     O24905  12.150   4.772   6.651 -0.1663 -0.1779 -0.0229
  926MOL0     C24906  12.290   4.763   6.615  0.3326 -0.3352 -0.0471
  926MOL0     C24907  12.376   4.768   6.724  0.2531 -1.3478  0.6039
  926MOL0     C24908  12.518   4.746   6.704 -0.2749 -0.2391 -0.0759
  926MOL0     C24909  12.567   4.705   6.578  0.3196 -0.2670 -0.0546
  926MOL0     O24910  12.694   4.663   6.548 -0.1213  0.2163 -0.7856
  926MOL0     C24911  12.778   4.615   6.654 -0.7352 -0.1045 -0.4946
  926MOL0     C24912  12.897   4.554   6.579 -0.3693  0.3443 -0.1336
  926MOL0     C24913  12.992   4.467   6.671 -0.2188 -0.2840  0.1626
  926MOL0     C24914  13.027   4.541   6.802  0.2994 -0.0002  0.3416
  926MOL0     C24915  13.149   4.469   6.868 -0.0514 -0.1522 -0.3088
  926MOL0     C24916  13.286   4.466   6.806  0.4351 -0.2489 -0.2015
  926MOL0     C24917  13.391   4.420   6.907 -0.5209 -0.5131 -0.1476
  926MOL0     C24918  13.528   4.395   6.856  0.5158 -0.1878 -0.3147
  926MOL0    Cl24919  13.603   4.542   6.784  0.0405  0.0895  0.1618
  926MOL0     C24920  12.477   4.696   6.473  0.7033 -0.3318 -0.4536
  926MOL0     C24921  12.344   4.728   6.485  0.5508 -0.3800  0.9708
  926MOL0     O24922  12.102   4.901   6.476 -0.2619 -0.2492 -0.1585
  926MOL0     C24923  11.826   4.887   6.526 -0.3804  1.0078 -0.2206
  926MOL0     C24924  11.695   4.864   6.558  0.4579 -0.9962 -0.0814
  926MOL0     N24925  10.990   4.531   6.400  0.8262  0.0227 -0.5818
  926MOL0     N24926  10.877   4.495   6.354  0.0868 -0.1200 -0.3083
  926MOL0     C24927   9.865   4.737   5.599  0.0027  0.3991  0.0663
  926MOL0     C24928   9.794   4.795   5.499  0.6444 -0.5101 -0.3546
  926MOL0     C24929   9.437   4.975   5.253 -0.7836 -0.2329  0.5330
  926MOL0     C24930   9.542   5.034   5.179 -0.3478  0.0035 -0.8223
  926MOL0     C24931   9.520   5.111   5.069 -0.0269 -0.6328 -0.0603
  926MOL0     C24932   9.387   5.143   5.023 -0.4573  0.8115 -0.5205
  926MOL0     O24933   9.350   5.227   4.926 -0.1229 -0.0094 -0.1809
  926MOL0     C24934   9.458   5.269   4.837 -0.7156  0.7044 -0.7311
  926MOL0     C24935   9.519   5.155   4.755  0.0975 -0.7259 -0.5320
  926MOL0     C24936   9.408   5.114   4.658  0.7751 -0.3149 -0.3173
  926MOL0     C24937   9.453   4.997   4.562 -0.3795  0.3186  0.8991
  926MOL0     C24938   9.338   4.933   4.500  0.5208  0.6216  0.6297
  926MOL0     C24939   9.261   4.858   4.443  0.3532 -0.4018 -1.1792
  926MOL0     C24940   9.290   5.090   5.101 -0.2691  0.6913  1.0571
  926MOL0     C24941   9.306   5.006   5.212  0.0512  0.4346 -0.1038
  926MOL0     C24942   9.185   4.956   5.286 -0.3829 -0.3984  0.7290
  926MOL0     H24943   9.496   4.870   5.652 -0.8703  0.1608 -3.0239
  926MOL0     H24944   9.625   4.754   5.838 -1.5429  2.2166 -0.4117
  926MOL0     H24945  10.061   4.648   5.778 -0.3827  0.8601 -1.2721
  926MOL0     H24946  10.005   4.811   5.819  1.3673 -0.0918 -0.2505
  926MOL0     H24947   9.991   4.595   6.024 -0.7757 -1.2684 -1.2667
  926MOL0     H24948   9.939   4.763   6.043  1.8802  1.2192  0.6746
  926MOL0     H24949  10.159   4.844   6.083  0.5991  0.2303 -0.7512
  926MOL0     H24950  10.227   4.737   5.954  1.4933 -2.1550  0.9235
  926MOL0     H24951  10.170   4.664   6.245 -0.7723  0.0160 -0.3959
  926MOL0     H24952  10.224   4.546   6.128 -1.4049 -0.7344  3.2720
  926MOL0     H24953  10.425   4.717   6.095 -0.7383 -3.2089 -0.7544
  926MOL0     H24954  10.365   4.809   6.229  2.5852  0.0802 -1.2405
  926MOL0     H24955  10.389   4.611   6.375  0.8499  1.7918  0.4216
  926MOL0     H24956  10.439   4.518   6.218 -0.5360  1.4763 -3.2161
  926MOL0     H24957  10.577   4.753   6.339 -1.4312 -1.1560  3.8076
  926MOL0     H24958  10.631   4.654   6.199 -0.0303  0.7832  0.1176
  926MOL0     H24959  10.601   4.585   6.496 -0.3297  1.5411 -0.5646
  926MOL0     H24960  10.628   4.448   6.383 -1.5520  0.1161  1.9099
  926MOL0     H24961  10.800   4.757   6.539  2.7669  1.1303 -0.3649
  926MOL0     H24962  11.111   4.804   6.503 -0.7713  0.5450  0.6256
  926MOL0     H24963  11.037   4.748   6.659 -0.9963  1.1038  0.0774
  926MOL0     H24964  11.152   4.529   6.624 -3.4967 -2.5162 -6.2204
  926MOL0     H24965  11.254   4.593   6.502 -0.8563 -3.3847  0.9300
  926MOL0     H24966  11.323   4.612   6.763  4.1999 -1.5912 -2.7090
  926MOL0     H24967  11.267   4.779   6.735 -0.4157 -1.3808  0.4524
  926MOL0     H24968  11.422   4.790   6.528  2.5922  0.1815  0.2211
  926MOL0     H24969  11.479   4.638   6.566 -2.2258 -1.5376  0.0170
  926MOL0     H24970  11.700   4.707   6.848  0.2015 -2.4697 -0.7052
  926MOL0     H24971  11.948   4.723   6.808 -3.3457  3.4554  4.5852
  926MOL0     H24972  12.339   4.800   6.821  1.8925 -1.8456  1.4335
  926MOL0     H24973  12.588   4.750   6.787 -1.3147  1.1592  0.7942
  926MOL0     H24974  12.813   4.709   6.698 -0.0829 -0.9995  0.9653
  926MOL0     H24975  12.727   4.544   6.719 -0.7639 -0.1914 -0.6106
  926MOL0     H24976  12.861   4.494   6.495  1.5651  0.9886 -1.5015
  926MOL0     H24977  12.959   4.636   6.541  0.3261 -0.9105 -1.8349
  926MOL0     H24978  12.939   4.374   6.693  0.1858 -0.2957  1.1220
  926MOL0     H24979  13.084   4.447   6.614 -0.3915  0.6275 -0.4586
  926MOL0     H24980  12.943   4.549   6.871  0.9237 -2.7616  1.5719
  926MOL0     H24981  13.057   4.644   6.782 -0.2761  0.4047  1.5271
  926MOL0     H24982  13.114   4.366   6.855 -2.6021  0.7264 -1.0252
  926MOL0     H24983  13.164   4.494   6.973  0.0302  2.1620 -0.8076
  926MOL0     H24984  13.276   4.399   6.720  0.2340  0.5278 -0.7884
  926MOL0     H24985  13.315   4.568   6.780  2.0311 -0.1770  1.6416
  926MOL0     H24986  13.352   4.328   6.952 -1.1750 -0.0157  0.3370
  926MOL0     H24987  13.387   4.500   6.981 -0.4036  2.0589 -2.7407
  926MOL0     H24988  13.583   4.358   6.943 -1.3337  1.4683  1.6744
  926MOL0     H24989  13.533   4.315   6.781 -0.0562  0.4297 -1.0317
  926MOL0     H24990  12.510   4.672   6.372 -1.6773  0.5564 -1.5072
  926MOL0     H24991  12.275   4.729   6.402  2.1486 -1.4801 -0.4318
  926MOL0     H24992  11.851   4.941   6.435  1.1388 -0.0859 -0.4752
  926MOL0     H24993  11.617   4.907   6.496  0.3616  0.7758  1.2173
  926MOL0     H24994   9.972   4.725   5.590 -0.0572  0.4618 -0.7886
  926MOL0     H24995   9.843   4.826   5.406  0.6266 -3.0166 -1.2613
  926MOL0     H24996   9.645   5.033   5.214 -1.8177 -0.1309  4.3419
  926MOL0     H24997   9.599   5.168   5.020  0.0750  0.5036  1.3305
  926MOL0     H24998   9.530   5.317   4.904  0.5885  0.3719 -1.8452
  926MOL0     H24999   9.425   5.346   4.767 -1.2395  2.6126  1.4728
  926MOL0     H25000   9.532   5.071   4.824 -2.1197  0.9623  2.1487
  926MOL0     H25001   9.621   5.179   4.722  0.3177  0.6489  1.0719
  926MOL0     H25002   9.380   5.198   4.594 -0.7167 -1.8260 -1.7604
  926MOL0     H25003   9.321   5.078   4.714  1.0008  0.7983  0.7863
  926MOL0     H25004   9.514   5.034   4.479 -0.4603 -0.5917  0.4256
  926MOL0     H25005   9.517   4.922   4.609 -1.6152  0.3733  2.7777
  926MOL0     H25006   9.180   4.805   4.396  0.0481  0.2688 -1.4262
  926MOL0     H25007   9.186   5.109   5.075 -0.5119 -1.4376  0.2601
  926MOL0     H25008   9.186   4.847   5.279  2.8052 -0.7267  3.5843
  926MOL0     H25009   9.207   4.979   5.391  1.0380  0.5546  0.2533
  926MOL0     H25010   9.090   4.997   5.251  0.6771  0.8908 -0.7628
  927MOL0     O25011   4.187   1.656   8.917 -0.6063  0.6941  0.0882
  927MOL0     C25012   4.200   1.699   8.803 -0.2310 -0.0933 -0.3027
  927MOL0     O25013   4.308   1.671   8.730  0.3551  0.4862  0.5006
  927MOL0     C25014   4.418   1.601   8.781  0.0658 -0.4415  0.1588
  927MOL0     C25015   4.470   1.632   8.906  0.3941  0.3801 -0.2451
  927MOL0     C25016   4.578   1.561   8.954 -0.2575  0.4102  0.4507
  927MOL0     C25017   4.636   1.455   8.877 -0.8083  0.1574  0.9524
  927MOL0     O25018   4.744   1.391   8.929 -0.0759  0.2937 -0.4733
  927MOL0     C25019   4.708   1.310   9.047 -0.0628 -0.6075 -0.0777
  927MOL0     C25020   4.828   1.280   9.143 -0.7720  0.1242  0.2570
  927MOL0     C25021   4.870   1.409   9.202 -0.1660 -1.1656 -0.4072
  927MOL0     C25022   4.927   1.378   9.338 -0.1011 -0.7011 -0.6476
  927MOL0     C25023   5.077   1.333   9.337  0.6494  0.3200 -0.5157
  927MOL0     C25024   5.172   1.455   9.345  0.2615 -0.5200 -0.2976
  927MOL0     C25025   5.315   1.421   9.372 -0.3427  0.4951 -0.2086
  927MOL0     C25026   5.383   1.363   9.241  0.1834 -0.3164 -0.7636
  927MOL0     N25027   5.521   1.335   9.281  0.7561  0.4319  0.7267
  927MOL0     C25028   5.610   1.276   9.191  0.4679 -0.1753 -0.1809
  927MOL0     C25029   5.727   1.260   9.264 -0.2525 -0.9595 -0.7534
  927MOL0     C25030   5.846   1.196   9.202  0.0850 -0.0940 -0.5505
  927MOL0     C25031   5.963   1.290   9.189  0.5129 -0.5159 -0.2968
  927MOL0     C25032   5.952   1.418   9.099  0.3827  0.0087  0.2522
  927MOL0     C25033   6.077   1.502   9.104 -0.2872 -0.6234 -0.6986
  927MOL0     O25034   6.190   1.432   9.054  0.3513 -0.0420 -0.5656
  927MOL0     C25035   6.312   1.490   9.071  0.0898 -0.9110  0.9404
  927MOL0     C25036   6.333   1.621   9.108  0.2023  0.6992 -0.2942
  927MOL0     C25037   6.460   1.671   9.115  0.0897 -0.3339 -0.0358
  927MOL0     C25038   6.572   1.590   9.085  0.4452  0.5108 -0.3817
  927MOL0     C25039   6.713   1.628   9.108 -0.3893 -0.0422  0.0769
  927MOL0     O25040   6.817   1.572   9.035 -0.3831  0.2628 -0.4184
  927MOL0     C25041   6.954   1.585   9.066  0.0558 -0.2554  0.5200
  927MOL0     C25042   7.015   1.652   9.172  0.1773  0.4375  0.0382
  927MOL0     C25043   7.149   1.644   9.192  0.3196  0.3776  0.4901
  927MOL0     C25044   7.236   1.566   9.108 -0.4696  0.1840  0.2216
  927MOL0     O25045   7.373   1.563   9.128 -0.5358 -0.9842  0.0321
  927MOL0     C25046   7.445   1.448   9.080  0.2441 -0.6927  1.2881
  927MOL0     C25047   7.545   1.500   8.980 -1.1331 -0.3476  0.2243
  927MOL0     C25048   7.607   1.389   8.897 -1.2040  0.8329  1.0802
  927MOL0     C25049   7.693   1.446   8.774 -0.0784 -0.1827  0.8024
  927MOL0     C25050   7.609   1.514   8.667  0.0913 -0.2449 -0.4222
  927MOL0     C25051   7.529   1.415   8.580  0.1887  0.5246 -0.7057
  927MOL0     C25052   7.429   1.492   8.489 -0.1250 -0.1039 -0.6434
  927MOL0     C25053   7.348   1.382   8.423  0.2967  0.6596 -0.0478
  927MOL0    Cl25054   7.280   1.436   8.262  0.2158 -0.1965 -0.2237
  927MOL0     C25055   7.178   1.505   8.997 -0.2196  0.1734  0.0373
  927MOL0     C25056   7.037   1.512   8.977 -0.6252 -0.5267  0.4874
  927MOL0     O25057   6.730   1.697   9.206  0.0045 -0.1003  0.1624
  927MOL0     C25058   6.550   1.461   9.040 -0.4507  0.4891 -0.6528
  927MOL0     C25059   6.422   1.414   9.035 -0.3223  0.4610  0.2465
  927MOL0     N25060   5.708   1.312   9.398  0.3953  0.2816 -0.4697
  927MOL0     N25061   5.589   1.359   9.402  0.0125 -0.2574  0.0220
  927MOL0     C25062   4.583   1.423   8.751  0.5412 -0.2202 -0.2925
  927MOL0     C25063   4.474   1.498   8.702 -0.0559 -0.2616  0.3086
  927MOL0     C25064   4.080   1.758   8.743 -0.6924  0.3835  0.1360
  927MOL0     C25065   4.103   1.819   8.617  0.1899 -0.5035  1.3877
  927MOL0     C25066   4.017   1.904   8.556 -0.2660 -0.6381  0.0470
  927MOL0     C25067   3.891   1.922   8.608 -1.0399  0.4126  0.2827
  927MOL0     O25068   3.793   1.992   8.547  0.2679 -0.3680  0.1868
  927MOL0     C25069   3.819   2.102   8.460 -0.3324 -0.7467  0.7292
  927MOL0     C25070   3.871   2.215   8.544  0.1619 -0.5234  0.0431
  927MOL0     C25071   3.890   2.343   8.454  0.8646 -0.1893  0.0635
  927MOL0     C25072   4.009   2.340   8.360 -0.4356  0.1750  0.0833
  927MOL0     C25073   4.143   2.291   8.406 -0.0894  0.0445  0.5994
  927MOL0     C25074   4.238   2.230   8.441 -0.3810  0.0679 -0.3231
  927MOL0     C25075   3.860   1.849   8.721  0.3194  0.7207 -0.0905
  927MOL0     C25076   3.952   1.769   8.795 -0.2784  0.0908  0.7863
  927MOL0     C25077   3.899   1.689   8.911  0.3510 -0.0148 -0.4965
  927MOL0     H25078   4.425   1.714   8.962 -0.4974  0.2445 -0.7371
  927MOL0     H25079   4.617   1.599   9.048  1.8735 -0.6705  0.0691
  927MOL0     H25080   4.626   1.346   9.110  1.2471  2.1405  0.2154
  927MOL0     H25081   4.664   1.217   9.010 -0.6350  0.2812 -1.7465
  927MOL0     H25082   4.906   1.223   9.092  0.6700 -0.1820  2.6829
  927MOL0     H25083   4.788   1.205   9.212 -0.1969 -1.9777 -1.5796
  927MOL0     H25084   4.783   1.476   9.209  3.4270  4.1675 -0.6074
  927MOL0     H25085   4.940   1.464   9.139 -0.4977  0.0095  0.2016
  927MOL0     H25086   4.934   1.474   9.391  2.5432 -0.4319 -1.3466
  927MOL0     H25087   4.870   1.308   9.400 -2.7456  2.1051  0.3406
  927MOL0     H25088   5.101   1.275   9.427 -0.2388 -0.5532 -0.8243
  927MOL0     H25089   5.086   1.259   9.256 -0.7484 -0.7265  0.2443
  927MOL0     H25090   5.161   1.518   9.256  0.4374  0.0240  0.0604
  927MOL0     H25091   5.145   1.517   9.432 -0.0130 -1.7092  0.4795
  927MOL0     H25092   5.314   1.348   9.454 -0.3181  0.0807 -0.5755
  927MOL0     H25093   5.377   1.503   9.408 -0.5666 -0.8206  3.6852
  927MOL0     H25094   5.341   1.265   9.217  0.3323 -0.9306  1.2419
  927MOL0     H25095   5.375   1.433   9.158 -2.2117  0.8969  0.3745
  927MOL0     H25096   5.594   1.237   9.091  0.8111  1.0068 -0.7141
  927MOL0     H25097   5.873   1.106   9.259  3.2522  0.3989 -1.0780
  927MOL0     H25098   5.817   1.157   9.104  0.6287 -0.2347 -0.6608
  927MOL0     H25099   5.964   1.329   9.292 -0.4266 -1.1164 -0.0474
  927MOL0     H25100   6.050   1.233   9.157  0.1218 -1.1277 -0.2696
  927MOL0     H25101   5.871   1.486   9.125 -0.5442 -1.1774  0.5345
  927MOL0     H25102   5.930   1.390   8.996 -0.5127  2.3149 -0.2216
  927MOL0     H25103   6.100   1.536   9.206 -0.6755  3.6160 -1.8468
  927MOL0     H25104   6.059   1.594   9.048  0.0155  1.4797  2.3917
  927MOL0     H25105   6.248   1.687   9.126 -2.1979 -1.9149 -1.2096
  927MOL0     H25106   6.472   1.774   9.148 -0.0822  0.6744 -2.8597
  927MOL0     H25107   6.957   1.716   9.238  0.7152 -0.2887  1.2507
  927MOL0     H25108   7.192   1.693   9.279 -0.0420 -1.3337  1.6820
  927MOL0     H25109   7.508   1.412   9.163  2.7509  2.0326  0.7824
  927MOL0     H25110   7.387   1.368   9.034 -2.8043  1.3350  1.3080
  927MOL0     H25111   7.503   1.579   8.917  1.5507  1.0697  0.0801
  927MOL0     H25112   7.624   1.555   9.031 -1.5740  1.4445 -0.9216
  927MOL0     H25113   7.669   1.331   8.966  0.5272  0.8921 -0.3282
  927MOL0     H25114   7.527   1.322   8.864 -0.5827 -0.2250  1.6667
  927MOL0     H25115   7.757   1.360   8.751 -2.8934 -2.8025  2.0737
  927MOL0     H25116   7.764   1.521   8.808  2.2957 -1.3574 -1.2413
  927MOL0     H25117   7.678   1.563   8.597  0.3315  0.5944  0.3795
  927MOL0     H25118   7.548   1.591   8.715  1.0819 -2.2345  4.7315
  927MOL0     H25119   7.608   1.364   8.525  0.4993  1.9496 -1.6545
  927MOL0     H25120   7.471   1.345   8.641  2.2490 -0.2360  0.4444
  927MOL0     H25121   7.494   1.538   8.414 -2.0303  0.6349 -1.8911
  927MOL0     H25122   7.370   1.567   8.541 -2.7877 -2.5880  0.1853
  927MOL0     H25123   7.399   1.290   8.397  2.1781  2.1509 -1.9451
  927MOL0     H25124   7.256   1.370   8.482  0.3252 -1.3550 -0.3448
  927MOL0     H25125   7.243   1.455   8.926  2.7435  1.3217  1.7373
  927MOL0     H25126   6.995   1.466   8.888 -1.5955  0.7706  0.2430
  927MOL0     H25127   6.634   1.395   9.020 -1.0873 -0.9798  1.2366
  927MOL0     H25128   6.401   1.312   9.005 -1.7684  0.9764 -0.6204
  927MOL0     H25129   4.618   1.345   8.684  0.2795  0.0374 -0.7281
  927MOL0     H25130   4.433   1.463   8.608  0.0199 -0.1770  0.2436
  927MOL0     H25131   4.194   1.803   8.561  0.4135 -2.6048  2.2516
  927MOL0     H25132   4.045   1.956   8.464 -1.3080 -0.2965 -0.0896
  927MOL0     H25133   3.728   2.131   8.406 -0.4193 -0.6760  0.9155
  927MOL0     H25134   3.888   2.071   8.381 -2.5947  0.1189 -1.7523
  927MOL0     H25135   3.969   2.193   8.587 -0.6222  2.9066  4.2863
  927MOL0     H25136   3.804   2.236   8.628 -0.6161  0.2800 -0.7673
  927MOL0     H25137   3.892   2.432   8.518  0.8283  0.0225 -0.2267
  927MOL0     H25138   3.797   2.349   8.396  0.8061 -1.3621  0.0166
  927MOL0     H25139   3.980   2.283   8.271 -3.3040 -0.5806  1.3694
  927MOL0     H25140   4.021   2.442   8.322  0.2746  0.0605 -0.0004
  927MOL0     H25141   4.322   2.171   8.472  0.7670  1.7147 -0.1944
  927MOL0     H25142   3.754   1.855   8.742  0.1967 -0.7892 -0.1565
  927MOL0     H25143   3.903   1.773   8.982  1.5719  1.7260 -2.5059
  927MOL0     H25144   3.799   1.661   8.876 -0.0995  0.5840  0.2723
  927MOL0     H25145   3.957   1.604   8.946  1.3479  1.8569  2.8462
  928MOL0     O25146   9.382   3.252   1.573 -0.4633  0.7744  0.7600
  928MOL0     C25147   9.408   3.129   1.565  0.0211 -0.8771  0.0572
  928MOL0     O25148   9.435   3.063   1.447  0.5696 -0.1511 -0.5771
  928MOL0     C25149   9.457   3.132   1.331  0.6495  0.0624  0.1620
  928MOL0     C25150   9.354   3.131   1.223 -0.7893  0.5104  0.1803
  928MOL0     C25151   9.393   3.188   1.101  0.2855 -0.7100  0.1781
  928MOL0     C25152   9.520   3.238   1.084 -0.4326 -0.1785 -0.3225
  928MOL0     O25153   9.567   3.303   0.967 -0.8654 -0.2770  0.7756
  928MOL0     C25154   9.466   3.387   0.899 -0.1914 -0.1812  0.1063
  928MOL0     C25155   9.499   3.517   0.955  0.1297  0.1347  0.1544
  928MOL0     C25156   9.454   3.621   0.854  0.0730 -0.0417  0.0954
  928MOL0     C25157   9.434   3.751   0.926  0.3669 -0.5885 -0.3044
  928MOL0     C25158   9.387   3.862   0.833  0.1295 -0.0909 -0.0424
  928MOL0     C25159   9.431   4.001   0.890  0.2966  0.3839  0.5000
  928MOL0     C25160   9.584   4.027   0.895  0.4030  0.7656  0.3529
  928MOL0     C25161   9.608   4.181   0.911  0.1858 -0.4828 -0.9433
  928MOL0     N25162   9.751   4.225   0.904 -0.3600 -0.2113  0.3046
  928MOL0     C25163   9.863   4.162   0.951  0.4408 -0.0903  0.5948
  928MOL0     C25164   9.970   4.238   0.916  0.4508 -0.5820 -1.1536
  928MOL0     C25165  10.112   4.199   0.937 -0.3522 -0.9320  0.3201
  928MOL0     C25166  10.204   4.308   1.004 -0.0435 -0.7319 -0.1856
  928MOL0     C25167  10.354   4.274   1.008 -0.3992  0.7866 -0.4777
  928MOL0     C25168  10.442   4.382   1.069  1.2434  1.2632 -0.7460
  928MOL0     O25169  10.420   4.391   1.209 -0.3034 -0.9731  0.1628
  928MOL0     C25170  10.521   4.444   1.290 -0.5654  0.1927 -0.3097
  928MOL0     C25171  10.623   4.533   1.251  0.1692 -0.9185  0.1075
  928MOL0     C25172  10.709   4.601   1.342  0.7065  0.7408 -0.3280
  928MOL0     C25173  10.709   4.552   1.474  0.1537 -0.5853  0.4001
  928MOL0     C25174  10.806   4.605   1.574  0.2720 -1.3935 -0.2074
  928MOL0     O25175  10.877   4.716   1.534 -0.4317  0.1642 -0.8780
  928MOL0     C25176  10.991   4.762   1.594 -1.3948 -0.1090 -0.3415
  928MOL0     C25177  11.103   4.682   1.622  1.0134  0.1882  0.5384
  928MOL0     C25178  11.222   4.743   1.674  0.0314  0.1855 -0.8099
  928MOL0     C25179  11.229   4.876   1.697  1.2652 -0.6039  0.2435
  928MOL0     O25180  11.352   4.931   1.738  0.1357 -0.3862  0.1605
  928MOL0     C25181  11.398   5.037   1.651 -0.3152  0.0214 -0.0222
  928MOL0     C25182  11.523   5.106   1.713  0.3895 -0.2815  0.8036
  928MOL0     C25183  11.638   5.001   1.716 -0.2138  0.0937 -0.1243
  928MOL0     C25184  11.775   5.077   1.674  1.1077  0.7831  0.0487
  928MOL0     C25185  11.878   4.968   1.637  0.4036  0.2802  0.0865
  928MOL0     C25186  12.010   5.045   1.602  0.2783  0.4251  0.9719
  928MOL0     C25187  12.107   4.938   1.568  0.2785  0.2131 -0.3914
  928MOL0     C25188  12.244   4.991   1.530 -0.5573 -0.1825  0.2035
  928MOL0    Cl25189  12.345   4.998   1.675  0.4894 -0.2843 -0.0410
  928MOL0     C25190  11.118   4.954   1.662  0.3148 -0.0501 -0.4129
  928MOL0     C25191  11.006   4.900   1.601  0.6534 -0.2120  0.5483
  928MOL0     O25192  10.805   4.554   1.683  0.4211 -0.1742 -0.1790
  928MOL0     C25193  10.624   4.452   1.507  0.5785  0.4537 -0.4629
  928MOL0     C25194  10.521   4.405   1.421 -0.1602  0.4309 -0.2409
  928MOL0     N25195   9.924   4.348   0.851 -0.4900  0.1685 -0.0776
  928MOL0     N25196   9.796   4.341   0.846 -0.3338 -0.1562  0.3441
  928MOL0     C25197   9.619   3.233   1.192  0.5124  0.0873  0.2969
  928MOL0     C25198   9.585   3.175   1.315 -0.2804  0.5477 -0.3008
  928MOL0     C25199   9.419   3.039   1.699 -0.3030 -0.5757  1.3273
  928MOL0     C25200   9.518   2.945   1.693  0.2894  0.9592 -0.9388
  928MOL0     C25201   9.545   2.867   1.805 -0.8676 -0.6646 -0.4256
  928MOL0     C25202   9.475   2.884   1.927 -0.3335  0.6857 -0.2200
  928MOL0     O25203   9.492   2.791   2.021 -0.6330  0.3041  0.1275
  928MOL0     C25204   9.417   2.790   2.142 -0.1115 -0.8490 -0.0023
  928MOL0     C25205   9.406   2.651   2.199  0.1025 -0.7452 -0.2378
  928MOL0     C25206   9.324   2.570   2.101  0.0276 -0.2631  0.4423
  928MOL0     C25207   9.328   2.424   2.131 -0.8504 -0.0107  0.3806
  928MOL0     C25208   9.467   2.375   2.105 -1.2769  0.8285  0.3711
  928MOL0     C25209   9.586   2.345   2.088 -0.0947 -0.1826 -0.1503
  928MOL0     C25210   9.387   2.991   1.936  0.5018  0.2805  0.3300
  928MOL0     C25211   9.350   3.065   1.816  0.6821 -0.5885 -0.1584
  928MOL0     C25212   9.250   3.169   1.833 -0.1483 -0.0359 -0.0988
  928MOL0     H25213   9.255   3.093   1.245 -0.1869 -0.9610  0.4380
  928MOL0     H25214   9.306   3.184   1.036 -1.2951 -1.6329  2.2281
  928MOL0     H25215   9.482   3.386   0.791  1.4599 -2.1922  0.3156
  928MOL0     H25216   9.363   3.349   0.899 -0.0635 -0.5811 -0.8688
  928MOL0     H25217   9.607   3.525   0.971  0.3355  0.2864 -1.2319
  928MOL0     H25218   9.448   3.535   1.050  0.0289  0.3637  0.0556
  928MOL0     H25219   9.368   3.592   0.792 -0.4058  1.4652  0.0333
  928MOL0     H25220   9.535   3.644   0.783  1.3635  1.0529  1.8390
  928MOL0     H25221   9.348   3.747   0.993  0.4469 -1.3793 -0.2382
  928MOL0     H25222   9.525   3.773   0.983  1.1994 -0.6765 -1.5652
  928MOL0     H25223   9.439   3.850   0.737 -0.5551  1.9939 -0.7066
  928MOL0     H25224   9.281   3.857   0.807 -0.3045 -0.2066  1.6086
  928MOL0     H25225   9.386   4.079   0.828 -1.3424  0.0707  1.2402
  928MOL0     H25226   9.392   4.014   0.991 -0.8071 -2.9253  0.6086
  928MOL0     H25227   9.623   3.993   0.798 -1.1453  4.0625 -1.6187
  928MOL0     H25228   9.644   3.972   0.968  0.7492  2.6146  1.5264
  928MOL0     H25229   9.551   4.239   0.838 -2.6249 -0.6665  0.9473
  928MOL0     H25230   9.568   4.204   1.010  0.2236 -0.2540 -0.9801
  928MOL0     H25231   9.863   4.063   0.995  1.2216 -1.0189 -1.3580
  928MOL0     H25232  10.110   4.109   0.998 -1.7930  0.2949  2.2424
  928MOL0     H25233  10.138   4.178   0.833 -0.1753  0.1649  0.1280
  928MOL0     H25234  10.183   4.406   0.960 -1.7884 -2.0413 -2.4967
  928MOL0     H25235  10.159   4.325   1.102 -1.8899  1.4008 -1.3181
  928MOL0     H25236  10.384   4.263   0.903 -1.3279 -0.5567 -0.6283
  928MOL0     H25237  10.374   4.179   1.059  1.5831  2.4208  2.0473
  928MOL0     H25238  10.415   4.473   1.016 -4.0850  0.4145 -0.0249
  928MOL0     H25239  10.545   4.348   1.052  1.8511  2.4349  0.3926
  928MOL0     H25240  10.619   4.568   1.148  1.6715  1.4707  0.7701
  928MOL0     H25241  10.764   4.690   1.313 -1.4417  2.0979 -0.4843
  928MOL0     H25242  11.096   4.575   1.608  0.4283  0.5608 -2.8062
  928MOL0     H25243  11.304   4.678   1.701 -0.1648  0.7391  1.3055
  928MOL0     H25244  11.437   4.989   1.561 -1.6259  0.3702 -0.8016
  928MOL0     H25245  11.320   5.109   1.624 -0.3439 -0.7340 -2.0784
  928MOL0     H25246  11.553   5.183   1.641 -1.7095  1.2483  1.4643
  928MOL0     H25247  11.502   5.161   1.805 -0.6527  0.6595  0.0396
  928MOL0     H25248  11.640   4.980   1.824  0.5497 -2.9315 -0.6466
  928MOL0     H25249  11.625   4.901   1.673  0.1059 -0.5317  1.1573
  928MOL0     H25250  11.803   5.129   1.767 -0.5682 -0.4896  1.3348
  928MOL0     H25251  11.762   5.146   1.591 -0.8671 -0.7236 -0.9660
  928MOL0     H25252  11.848   4.908   1.551  1.5644  0.1493 -0.2490
  928MOL0     H25253  11.895   4.902   1.723 -0.2884 -1.2264 -0.8876
  928MOL0     H25254  11.988   5.111   1.517 -0.3110 -0.1300  0.6875
  928MOL0     H25255  12.042   5.098   1.692 -4.4282  1.6425  2.1714
  928MOL0     H25256  12.063   4.891   1.479  1.6768 -1.0635 -0.4610
  928MOL0     H25257  12.118   4.858   1.642 -0.5933 -0.8284 -1.3375
  928MOL0     H25258  12.294   4.917   1.468 -0.6587 -2.3906  2.5872
  928MOL0     H25259  12.230   5.093   1.494  0.4475 -0.1203 -0.0414
  928MOL0     H25260  11.115   5.055   1.704 -0.1052 -1.3016  2.9061
  928MOL0     H25261  10.920   4.956   1.567  0.3062 -1.2508 -0.3425
  928MOL0     H25262  10.639   4.416   1.608 -0.1196  1.3261 -0.0357
  928MOL0     H25263  10.458   4.323   1.456  1.2813 -0.5631  0.1172
  928MOL0     H25264   9.718   3.276   1.179 -0.3142  1.8880 -0.4292
  928MOL0     H25265   9.653   3.151   1.396 -1.0482  1.2294  0.5837
  928MOL0     H25266   9.584   2.921   1.610 -1.4634 -2.9485 -1.4223
  928MOL0     H25267   9.622   2.791   1.808  0.5241  0.7010 -0.0456
  928MOL0     H25268   9.315   2.828   2.136 -0.6025 -1.8797  1.4378
  928MOL0     H25269   9.475   2.852   2.211  1.0062 -0.2905 -1.3800
  928MOL0     H25270   9.345   2.664   2.289 -0.2968  0.6632 -0.6916
  928MOL0     H25271   9.503   2.606   2.222  0.0821 -1.2603 -1.1137
  928MOL0     H25272   9.351   2.596   1.998 -1.6057 -0.3353 -0.0303
  928MOL0     H25273   9.218   2.598   2.105 -0.1185 -0.9013  1.4352
  928MOL0     H25274   9.301   2.414   2.237 -2.6753 -1.6199 -0.1735
  928MOL0     H25275   9.251   2.362   2.083  0.5873 -0.2564 -1.7055
  928MOL0     H25276   9.692   2.326   2.081 -0.1523 -1.0321  0.9371
  928MOL0     H25277   9.343   3.025   2.029  0.6398 -0.5908  0.7223
  928MOL0     H25278   9.174   3.156   1.755  1.4950 -1.1796 -1.5821
  928MOL0     H25279   9.207   3.170   1.934  1.7637 -1.3747  0.7904
  928MOL0     H25280   9.303   3.262   1.814  2.5743 -1.7097 -1.3938
  929MOL0     O25281   6.179   8.213  10.252  0.0611  0.1849  0.0413
  929MOL0     C25282   6.153   8.305  10.171  0.0838 -0.2641 -0.4587
  929MOL0     O25283   6.242   8.371  10.093 -0.1098  0.6249  0.0720
  929MOL0     C25284   6.374   8.371  10.126 -0.4715 -0.3323  1.3868
  929MOL0     C25285   6.447   8.258  10.177  0.0388  0.5591 -0.8985
  929MOL0     C25286   6.589   8.265  10.194  0.4352 -0.4105  0.2010
  929MOL0     C25287   6.658   8.384  10.152  1.0894  0.3980  0.3360
  929MOL0     O25288   6.789   8.383  10.192 -0.3448  0.1105  0.5492
  929MOL0     C25289   6.888   8.465  10.116  0.2722  0.7743 -0.0091
  929MOL0     C25290   7.031   8.436  10.174 -0.0282 -0.2011 -0.3806
  929MOL0     C25291   7.143   8.471  10.079  0.2173  0.2573 -1.0146
  929MOL0     C25292   7.272   8.418  10.137  0.0611 -0.2449 -0.0711
  929MOL0     C25293   7.400   8.472  10.069 -0.1570 -0.7801  0.5400
  929MOL0     C25294   7.521   8.429  10.141 -0.2270 -0.3806  0.8990
  929MOL0     C25295   7.660   8.443  10.067 -0.2117 -0.7007  0.1474
  929MOL0     C25296   7.684   8.340   9.951  0.5006 -0.4070  0.1803
  929MOL0     N25297   7.825   8.349   9.904 -0.0332  0.8155  0.0564
  929MOL0     C25298   7.860   8.295   9.784  0.5871  0.1253  0.0715
  929MOL0     C25299   7.985   8.338   9.765 -0.1328 -0.1460  0.2103
  929MOL0     C25300   8.063   8.333   9.638 -0.9035 -0.1550  0.4158
  929MOL0     C25301   8.088   8.191   9.579  0.7643 -0.1788 -0.6555
  929MOL0     C25302   8.196   8.191   9.472 -0.8802  0.5770 -0.2707
  929MOL0     C25303   8.221   8.049   9.422  0.1486  0.2823 -0.8099
  929MOL0     O25304   8.281   7.963   9.518  0.0047  0.4979  0.1916
  929MOL0     C25305   8.413   7.913   9.501  0.0142  0.6582  0.1084
  929MOL0     C25306   8.488   7.895   9.619  0.4387 -0.4388 -0.0564
  929MOL0     C25307   8.616   7.850   9.613 -0.0713 -0.1293  0.1554
  929MOL0     C25308   8.682   7.844   9.484 -0.7377  0.7246 -0.2043
  929MOL0     C25309   8.826   7.814   9.483 -0.5275  0.3150 -0.1124
  929MOL0     O25310   8.879   7.792   9.608 -0.0264 -0.1117 -0.2165
  929MOL0     C25311   9.004   7.743   9.643  0.2264 -0.4885  1.1466
  929MOL0     C25312   9.096   7.684   9.556 -0.6759 -0.3601 -0.2962
  929MOL0     C25313   9.222   7.626   9.607 -0.4508  0.0704 -0.2644
  929MOL0     C25314   9.257   7.634   9.742 -0.8339  0.2673  0.0205
  929MOL0     O25315   9.371   7.558   9.778 -0.0153 -0.7108  0.1591
  929MOL0     C25316   9.407   7.550   9.920  0.0010 -0.3520  0.4398
  929MOL0     C25317   9.513   7.435   9.928  0.2588 -0.3766  0.4946
  929MOL0     C25318   9.654   7.479   9.894  0.6192  0.5830  0.5730
  929MOL0     C25319   9.754   7.362   9.875  0.1889 -0.3090  0.1956
  929MOL0     C25320   9.900   7.397   9.856  0.4014 -0.4526  1.1752
  929MOL0     C25321   9.984   7.280   9.840  0.3646  0.6079  0.1604
  929MOL0     C25322  10.134   7.313   9.850 -0.6793  0.5329  0.3258
  929MOL0     C25323  10.216   7.209   9.785  0.0969  0.2000  0.0577
  929MOL0    Cl25324  10.392   7.236   9.820  0.3271 -0.6549  0.0954
  929MOL0     C25325   9.166   7.705   9.829  0.3783 -1.2632  0.0146
  929MOL0     C25326   9.049   7.749   9.778  0.6775  0.2551 -0.6844
  929MOL0     O25327   8.887   7.821   9.377  0.5636  0.1022  0.5050
  929MOL0     C25328   8.603   7.860   9.357 -0.7632 -0.7694 -0.6281
  929MOL0     C25329   8.464   7.883   9.374  0.3450  0.2678  0.6115
  929MOL0     N25330   8.033   8.402   9.873 -0.2366 -0.8974  0.1419
  929MOL0     N25331   7.933   8.421   9.946  0.4551  0.2206 -0.8749
  929MOL0     C25332   6.588   8.494  10.097 -0.0163  0.7699 -0.6256
  929MOL0     C25333   6.452   8.487  10.093  0.9717 -0.3241 -0.1174
  929MOL0     C25334   6.020   8.364  10.164  0.8055  0.3247  0.1651
  929MOL0     C25335   5.996   8.505  10.165  0.4653 -0.0930  1.1635
  929MOL0     C25336   5.866   8.568  10.156 -0.8184  0.4298  0.4143
  929MOL0     C25337   5.751   8.488  10.159  0.1849  0.2223 -0.2792
  929MOL0     O25338   5.615   8.516  10.160  0.1937  0.2356  0.6187
  929MOL0     C25339   5.574   8.644  10.113 -0.6381 -0.6720  0.3021
  929MOL0     C25340   5.453   8.685  10.196  0.4006  0.1823 -0.9303
  929MOL0     C25341   5.492   8.777  10.302  0.3434  0.3049  0.2688
  929MOL0     C25342   5.380   8.852  10.371 -0.1424 -0.5624  0.0067
  929MOL0     C25343   5.307   8.782  10.477  0.3419  0.0639  0.2895
  929MOL0     C25344   5.220   8.733  10.543 -0.3487 -0.8033 -0.7085
  929MOL0     C25345   5.772   8.352  10.174  0.5101  0.2401 -0.6547
  929MOL0     C25346   5.897   8.288  10.175  0.9575 -0.5420 -0.0353
  929MOL0     C25347   5.902   8.138  10.172  0.9495  0.6217  0.9229
  929MOL0     H25348   6.402   8.165  10.210  0.4004  0.2156 -1.3676
  929MOL0     H25349   6.651   8.189  10.239  2.3126  0.8009 -0.2477
  929MOL0     H25350   6.892   8.420  10.017  2.3289 -1.2043  0.9109
  929MOL0     H25351   6.868   8.573  10.112 -0.2158  0.9156  3.0878
  929MOL0     H25352   7.033   8.329  10.198 -0.5029 -1.0527 -3.7359
  929MOL0     H25353   7.048   8.492  10.267 -1.3382 -0.8059  0.2428
  929MOL0     H25354   7.139   8.577  10.053 -0.3335  0.8186  1.1460
  929MOL0     H25355   7.134   8.405   9.992  0.6870  1.2089 -1.7987
  929MOL0     H25356   7.271   8.458  10.239  0.0670 -2.2580  0.7614
  929MOL0     H25357   7.274   8.309  10.135 -2.1461 -0.3340 -0.6456
  929MOL0     H25358   7.405   8.442   9.963  2.0411 -0.8034  0.6076
  929MOL0     H25359   7.396   8.581  10.071 -0.2106 -0.7899  1.4585
  929MOL0     H25360   7.527   8.477  10.238  0.6391 -0.6076  0.9640
  929MOL0     H25361   7.503   8.323  10.162  0.4973 -0.9269 -0.9995
  929MOL0     H25362   7.731   8.423  10.147 -0.0944  1.3772  0.6282
  929MOL0     H25363   7.676   8.543  10.025  2.0194 -2.0608 -2.6171
  929MOL0     H25364   7.674   8.243  10.000  3.9903  0.2639  2.6078
  929MOL0     H25365   7.612   8.340   9.868  0.8907  1.3369 -0.1857
  929MOL0     H25366   7.801   8.243   9.709  1.6604 -1.6675  0.4235
  929MOL0     H25367   8.003   8.388   9.565  0.5569  2.8877  1.3779
  929MOL0     H25368   8.161   8.377   9.654 -0.3486 -1.4525  0.7307
  929MOL0     H25369   8.114   8.115   9.653  1.0803 -0.9394 -1.5230
  929MOL0     H25370   7.998   8.161   9.525  2.5312 -2.4998 -2.5193
  929MOL0     H25371   8.282   8.232   9.525 -0.2710 -1.3674  0.3340
  929MOL0     H25372   8.153   8.250   9.391 -0.7587  1.4400  0.2779
  929MOL0     H25373   8.282   8.057   9.332  0.5773 -1.4607 -0.7023
  929MOL0     H25374   8.127   8.005   9.387  0.4596 -0.1942 -1.0605
  929MOL0     H25375   8.434   7.910   9.712 -2.2698 -2.5436 -1.1303
  929MOL0     H25376   8.674   7.826   9.702  1.8998 -2.5549 -1.6419
  929MOL0     H25377   9.080   7.670   9.449 -0.8082  0.0571 -0.3356
  929MOL0     H25378   9.298   7.585   9.541 -0.3701  0.5020 -0.4449
  929MOL0     H25379   9.453   7.640   9.963  0.0222 -0.3274  0.3660
  929MOL0     H25380   9.322   7.535   9.987 -0.5077 -0.2835 -0.1839
  929MOL0     H25381   9.514   7.399  10.031 -2.3129  2.5596  1.7114
  929MOL0     H25382   9.470   7.364   9.857 -1.3604  1.8401 -0.8879
  929MOL0     H25383   9.650   7.536   9.800  1.1315 -0.9558 -0.4240
  929MOL0     H25384   9.694   7.556   9.961 -1.8114  0.5471  2.1574
  929MOL0     H25385   9.721   7.318   9.780  1.1431  3.1003 -1.9188
  929MOL0     H25386   9.750   7.293   9.959  0.4910  2.5322  2.7003
  929MOL0     H25387   9.940   7.449   9.944 -0.6633  2.1251  0.2344
  929MOL0     H25388   9.907   7.461   9.767 -1.3638 -2.7107 -0.6967
  929MOL0     H25389   9.962   7.206   9.917  2.5295 -0.8392 -0.5461
  929MOL0     H25390   9.962   7.244   9.739 -1.6255  2.4429 -0.1477
  929MOL0     H25391  10.163   7.309   9.955  2.1721  0.1067 -0.3881
  929MOL0     H25392  10.157   7.411   9.807 -0.2805  0.4622  0.3763
  929MOL0     H25393  10.184   7.112   9.824 -3.6765  1.6660  1.0625
  929MOL0     H25394  10.213   7.197   9.676  1.2143 -1.1150  0.1393
  929MOL0     H25395   9.204   7.725   9.929  0.7591  0.0998 -0.3799
  929MOL0     H25396   8.982   7.804   9.844  0.9156 -0.1821 -0.0666
  929MOL0     H25397   8.649   7.829   9.264  3.4199  2.0671  0.1977
  929MOL0     H25398   8.411   7.896   9.281  0.1375  0.2045  0.7218
  929MOL0     H25399   6.630   8.588  10.064 -1.3175  1.6403  0.1301
  929MOL0     H25400   6.402   8.579  10.065  1.2573  0.7345  2.5483
  929MOL0     H25401   6.075   8.579  10.171  1.0044 -0.7676  2.9366
  929MOL0     H25402   5.858   8.675  10.140 -3.6132  0.6945  2.7473
  929MOL0     H25403   5.540   8.647  10.009 -2.2706  0.6704  0.8342
  929MOL0     H25404   5.652   8.721  10.126 -2.3467  1.5500 -1.7428
  929MOL0     H25405   5.405   8.598  10.240  1.1883 -1.0071 -2.3363
  929MOL0     H25406   5.381   8.743  10.138 -0.8816  0.1523  0.5556
  929MOL0     H25407   5.567   8.853  10.278  0.3347 -0.5603 -3.0427
  929MOL0     H25408   5.553   8.720  10.373  0.6823  0.8430  0.4163
  929MOL0     H25409   5.418   8.949  10.405  0.5357 -0.9892  0.4910
  929MOL0     H25410   5.303   8.884  10.300  0.5805  1.2072 -0.0469
  929MOL0     H25411   5.144   8.697  10.609 -0.4175  1.4680  0.5638
  929MOL0     H25412   5.679   8.299  10.193  1.2118 -0.8407 -0.1569
  929MOL0     H25413   5.967   8.093  10.096  0.5516  0.7834  0.4766
  929MOL0     H25414   5.920   8.103  10.274  0.8182 -1.1461  0.3740
  929MOL0     H25415   5.801   8.112  10.137  0.7228  1.9026  0.5348
  930MOL0     O25416   9.945   6.665  10.412 -0.2498 -0.2721 -0.2561
  930MOL0     C25417   9.912   6.606  10.312 -0.2411  0.2774  0.4079
  930MOL0     O25418   9.995   6.526  10.235  0.1225  0.2455  0.1524
  930MOL0     C25419  10.133   6.528  10.248 -0.9079 -0.1501  0.0112
  930MOL0     C25420  10.194   6.502  10.363 -0.8299 -1.1996 -0.3285
  930MOL0     C25421  10.331   6.517  10.390  0.2709  0.2104  0.5199
  930MOL0     C25422  10.414   6.548  10.285  0.2074  0.4268  0.0393
  930MOL0     O25423  10.552   6.568  10.287  0.2536 -0.0049  0.1170
  930MOL0     C25424  10.614   6.500  10.399  0.2989 -1.1372  0.0916
  930MOL0     C25425  10.760   6.516  10.394 -0.7226 -0.8336 -0.1688
  930MOL0     C25426  10.804   6.663  10.377  0.6193  0.3826  0.5906
  930MOL0     C25427  10.954   6.660  10.409  0.4374 -0.1279  0.5532
  930MOL0     C25428  11.015   6.788  10.366  0.4093  0.0908 -0.5290
  930MOL0     C25429  11.166   6.795  10.416  0.2265  0.7667 -0.5907
  930MOL0     C25430  11.256   6.671  10.380 -0.6114  0.5346  0.5332
  930MOL0     C25431  11.311   6.674  10.233 -0.1006 -0.4765  0.1842
  930MOL0     N25432  11.202   6.679  10.130 -0.2180  0.0590 -0.2576
  930MOL0     C25433  11.109   6.582  10.097 -0.5861  0.0971 -0.0316
  930MOL0     C25434  11.066   6.622   9.978  0.4356 -0.4508  0.1557
  930MOL0     C25435  10.962   6.561   9.890  0.0814 -0.4085 -0.3422
  930MOL0     C25436  10.812   6.586   9.934  0.3743  0.2448  0.1310
  930MOL0     C25437  10.773   6.736   9.962 -0.0559  0.3532 -0.7009
  930MOL0     C25438  10.790   6.832   9.848  0.1660  0.3455  0.1075
  930MOL0     O25439  10.725   6.801   9.730 -0.6026  0.2822 -0.5075
  930MOL0     C25440  10.591   6.785   9.712 -0.5300 -1.2042  0.1437
  930MOL0     C25441  10.556   6.711   9.602 -0.8528  0.2721  0.2218
  930MOL0     C25442  10.425   6.690   9.569  0.3905  0.4377 -1.2498
  930MOL0     C25443  10.320   6.750   9.635 -0.5838 -0.7941 -1.3045
  930MOL0     C25444  10.178   6.735   9.599 -0.5768 -0.7045  0.1531
  930MOL0     O25445  10.105   6.846   9.630 -0.0970 -0.2883 -0.2697
  930MOL0     C25446   9.974   6.845   9.584  1.3542  0.6953 -0.4465
  930MOL0     C25447   9.921   6.973   9.561 -0.1346 -0.2821  0.9266
  930MOL0     C25448   9.790   7.004   9.525 -0.2142 -0.4788 -0.0352
  930MOL0     C25449   9.698   6.896   9.514 -0.3701  0.9427 -0.4928
  930MOL0     O25450   9.566   6.926   9.487  0.1101  0.0513 -0.3382
  930MOL0     C25451   9.469   6.825   9.462  0.1873 -0.8282  0.0969
  930MOL0     C25452   9.332   6.885   9.445 -0.5801  0.8485  0.6264
  930MOL0     C25453   9.307   6.971   9.328 -0.2052 -0.7328 -0.0202
  930MOL0     C25454   9.174   7.048   9.335 -0.2217  0.5168  0.5572
  930MOL0     C25455   9.048   6.961   9.292  0.4138 -0.5023 -0.4006
  930MOL0     C25456   8.927   7.051   9.270  0.0088  0.5100  0.5446
  930MOL0     C25457   8.802   6.985   9.220  0.9057  0.9771  0.4345
  930MOL0     C25458   8.754   6.857   9.291 -0.1560  0.6897  0.7194
  930MOL0    Cl25459   8.769   6.852   9.468 -0.0896  0.0143 -0.1791
  930MOL0     C25460   9.735   6.767   9.561  0.4672 -0.0749  0.7831
  930MOL0     C25461   9.873   6.741   9.593  0.1152 -0.6200  0.0727
  930MOL0     O25462  10.145   6.640   9.530 -1.1299 -0.3349 -0.0351
  930MOL0     C25463  10.359   6.831   9.743  0.7002  0.7983  0.0126
  930MOL0     C25464  10.495   6.844   9.787  0.7637 -0.6001  0.2996
  930MOL0     N25465  11.123   6.756   9.952  0.1350  0.2586 -0.4012
  930MOL0     N25466  11.203   6.783  10.044 -0.2989 -0.3365 -0.0700
  930MOL0     C25467  10.355   6.569  10.158 -0.3385  0.0008 -0.2092
  930MOL0     C25468  10.218   6.556  10.134  0.4406  0.0826 -0.6646
  930MOL0     C25469   9.768   6.625  10.274  0.3074 -1.5948  0.2394
  930MOL0     C25470   9.711   6.538  10.182  0.5369  0.0344  0.0280
  930MOL0     C25471   9.580   6.547  10.142  0.0610 -0.8906  0.4580
  930MOL0     C25472   9.490   6.647  10.181  0.2137  0.4531  0.5545
  930MOL0     O25473   9.355   6.652  10.141  0.1267 -0.1860 -0.4525
  930MOL0     C25474   9.294   6.533  10.088 -0.8078  0.6116  0.2395
  930MOL0     C25475   9.144   6.554  10.083  0.2937  0.0574  0.2137
  930MOL0     C25476   9.108   6.659   9.983  0.1667 -0.1619  0.3037
  930MOL0     C25477   8.956   6.672   9.977  1.1188  0.3324  0.1854
  930MOL0     C25478   8.882   6.557   9.929  0.3861 -0.2686  0.4555
  930MOL0     C25479   8.818   6.473   9.865  0.5479  0.4120 -0.3704
  930MOL0     C25480   9.551   6.739  10.274  0.5099  0.5857  0.0558
  930MOL0     C25481   9.683   6.734  10.323 -0.4421  0.3402  0.2261
  930MOL0     C25482   9.715   6.835  10.419  0.0728  0.0263 -0.3621
  930MOL0     H25483  10.123   6.492  10.445 -0.7325 -1.0020 -0.2190
  930MOL0     H25484  10.368   6.513  10.492  0.1645  0.7000  0.5800
  930MOL0     H25485  10.578   6.540  10.495  1.7782  0.9989 -0.1797
  930MOL0     H25486  10.600   6.391  10.402 -1.5999 -0.9365 -0.3719
  930MOL0     H25487  10.800   6.451  10.316  0.5544 -0.1821 -0.0883
  930MOL0     H25488  10.806   6.474  10.484  2.3660  3.6068  0.7207
  930MOL0     H25489  10.745   6.735  10.435 -1.3670  0.1070 -1.0212
  930MOL0     H25490  10.780   6.685  10.273  0.8921 -1.1335  0.1820
  930MOL0     H25491  10.961   6.643  10.517 -2.5943 -0.7737  0.7426
  930MOL0     H25492  11.000   6.580  10.352  0.2612  0.9965 -1.2502
  930MOL0     H25493  10.996   6.808  10.260  1.1801 -0.3499 -0.7554
  930MOL0     H25494  10.954   6.867  10.411 -1.3880  1.0080 -4.1969
  930MOL0     H25495  11.205   6.888  10.373 -0.6911 -0.0240 -3.3623
  930MOL0     H25496  11.172   6.810  10.524  0.7174 -1.1266 -0.3152
  930MOL0     H25497  11.201   6.582  10.410  3.1568 -0.9767  3.8934
  930MOL0     H25498  11.337   6.677  10.454 -1.2606 -0.2481  1.3319
  930MOL0     H25499  11.377   6.760  10.222  1.0341 -1.4538 -0.8835
  930MOL0     H25500  11.378   6.590  10.215  0.9627  0.2508  0.6878
  930MOL0     H25501  11.069   6.502  10.158 -1.9171  0.2793 -0.6144
  930MOL0     H25502  10.959   6.617   9.797 -2.9900  1.6141  0.8249
  930MOL0     H25503  10.973   6.453   9.879 -0.5580 -0.2392 -3.4815
  930MOL0     H25504  10.737   6.542   9.868  1.1008 -3.1428  1.3679
  930MOL0     H25505  10.800   6.528  10.026  1.0202  0.0877  0.1204
  930MOL0     H25506  10.835   6.778  10.042  0.4801  0.4521 -1.1611
  930MOL0     H25507  10.672   6.729  10.004  0.8722  1.2935  1.8574
  930MOL0     H25508  10.896   6.841   9.822 -0.5217  1.4780 -2.7176
  930MOL0     H25509  10.770   6.936   9.876  1.2068  0.5347  0.1602
  930MOL0     H25510  10.640   6.674   9.545 -0.6026  1.3191 -0.1208
  930MOL0     H25511  10.404   6.623   9.487  0.4588 -0.6323 -0.4168
  930MOL0     H25512   9.996   7.049   9.581  1.0568 -1.0094 -0.5305
  930MOL0     H25513   9.753   7.103   9.502 -1.5174 -0.2661  2.6031
  930MOL0     H25514   9.498   6.772   9.371  0.2558 -1.2046  0.3346
  930MOL0     H25515   9.450   6.770   9.555  0.0923  2.6561  2.3375
  930MOL0     H25516   9.265   6.799   9.459  2.0394 -1.3731  0.3493
  930MOL0     H25517   9.317   6.943   9.537 -0.4848  0.3397  0.9683
  930MOL0     H25518   9.385   7.048   9.323 -1.1143  0.1705 -0.6579
  930MOL0     H25519   9.318   6.920   9.232  1.1441  1.6761 -1.2578
  930MOL0     H25520   9.195   7.122   9.257  2.1243  0.0534  0.6681
  930MOL0     H25521   9.160   7.090   9.434  2.1518  1.7653  0.4337
  930MOL0     H25522   9.019   6.889   9.369 -2.1431 -0.4687 -1.2452
  930MOL0     H25523   9.065   6.905   9.199 -0.6503 -0.2449 -0.7582
  930MOL0     H25524   8.897   7.087   9.369  1.0526 -1.1041  1.4820
  930MOL0     H25525   8.950   7.140   9.210  1.1712  0.4201  0.8337
  930MOL0     H25526   8.805   6.968   9.112  1.1868  2.5120  0.1870
  930MOL0     H25527   8.723   7.060   9.230 -0.6609 -0.3263 -1.2317
  930MOL0     H25528   8.645   6.852   9.283  0.0252 -2.0815 -2.4286
  930MOL0     H25529   8.803   6.773   9.239 -0.0597  1.8489 -1.1425
  930MOL0     H25530   9.670   6.680   9.556  2.0276 -1.2106 -0.4210
  930MOL0     H25531   9.896   6.640   9.624 -4.3877 -2.0586 -0.4742
  930MOL0     H25532  10.284   6.881   9.804  0.4047  2.2154 -1.4591
  930MOL0     H25533  10.530   6.916   9.861  1.4232  0.5018 -1.0266
  930MOL0     H25534  10.411   6.614  10.076  1.9197 -0.3645  1.0396
  930MOL0     H25535  10.179   6.583  10.036  0.3167 -0.8024 -0.8727
  930MOL0     H25536   9.770   6.459  10.135  1.2975  0.3902  0.3660
  930MOL0     H25537   9.550   6.475  10.066 -1.8335  2.1154 -1.9448
  930MOL0     H25538   9.319   6.452  10.157 -0.4991 -0.6048 -1.2463
  930MOL0     H25539   9.330   6.506   9.988 -0.2869 -0.8973  0.8063
  930MOL0     H25540   9.095   6.579  10.177 -0.0080 -0.8283  0.2960
  930MOL0     H25541   9.106   6.459  10.045 -1.2689  0.4622  0.7005
  930MOL0     H25542   9.146   6.632   9.884  1.3168 -0.4190  0.8027
  930MOL0     H25543   9.143   6.760  10.008  1.5464 -0.3920 -0.5752
  930MOL0     H25544   8.921   6.698  10.077  0.8212  2.1452 -0.3459
  930MOL0     H25545   8.932   6.757   9.913  3.2200  1.0726  0.2918
  930MOL0     H25546   8.755   6.403   9.814  0.1527  0.2311  0.3411
  930MOL0     H25547   9.477   6.809  10.310  0.2507  0.0099  0.6652
  930MOL0     H25548   9.627   6.893  10.447 -0.0318 -0.4986  0.4400
  930MOL0     H25549   9.746   6.786  10.513  2.4922  2.1643  0.0645
  930MOL0     H25550   9.795   6.903  10.388  1.1155 -1.6670 -1.5083
  931MOL0     O25551   1.632  10.232   5.608 -0.2008 -0.3027 -0.3024
  931MOL0     C25552   1.577  10.304   5.522  0.8173 -0.2332 -0.4376
  931MOL0     O25553   1.643  10.386   5.435  0.0956  0.0934  0.3566
  931MOL0     C25554   1.772  10.420   5.448  0.2687 -0.4236  0.7234
  931MOL0     C25555   1.841  10.432   5.323  0.2082  0.7609  0.0042
  931MOL0     C25556   1.971  10.479   5.327 -0.6506  0.2602  0.3853
  931MOL0     C25557   2.026  10.526   5.446 -0.9294 -0.2600  0.3306
  931MOL0     O25558   2.160  10.572   5.456 -0.7993 -0.5577 -0.1271
  931MOL0     C25559   2.254  10.566   5.354  0.0519  0.4528 -0.0726
  931MOL0     C25560   2.381  10.626   5.419  0.5928  0.4591  0.7280
  931MOL0     C25561   2.499  10.606   5.311  0.7632 -0.3458 -1.2658
  931MOL0     C25562   2.631  10.649   5.375 -0.5745  0.1779  0.0409
  931MOL0     C25563   2.760  10.653   5.280  0.4898  0.0844  0.9249
  931MOL0     C25564   2.868  10.746   5.343  0.7987  0.1213  0.5293
  931MOL0     C25565   2.974  10.664   5.421  0.1727 -0.0407  0.5297
  931MOL0     C25566   3.083  10.750   5.482  0.0496  0.3346 -0.8377
  931MOL0     N25567   3.188  10.674   5.557  0.6657 -0.7601  0.1006
  931MOL0     C25568   3.286  10.594   5.497 -0.1657 -1.4718  0.0637
  931MOL0     C25569   3.332  10.526   5.604 -0.7753 -0.1626 -0.0790
  931MOL0     C25570   3.438  10.415   5.609  0.2768 -0.0852  0.3393
  931MOL0     C25571   3.579  10.462   5.554  0.3135  0.4491  0.3172
  931MOL0     C25572   3.616  10.603   5.598  0.4149 -0.2176 -0.3248
  931MOL0     C25573   3.628  10.605   5.750 -0.4682  0.0818 -0.4297
  931MOL0     O25574   3.681  10.731   5.801 -0.2748  0.3215 -0.6791
  931MOL0     C25575   3.604  10.839   5.815 -0.0341  0.2879 -0.0588
  931MOL0     C25576   3.466  10.835   5.819  0.3628 -1.4260 -0.5103
  931MOL0     C25577   3.399  10.961   5.839  0.1378 -0.0713  0.0802
  931MOL0     C25578   3.459  11.082   5.862 -0.5012  0.5857 -0.6755
  931MOL0     C25579   3.371  11.204   5.892 -0.0152 -0.0321 -0.2582
  931MOL0     O25580   3.232  11.190   5.900 -0.4027 -0.0415 -0.0250
  931MOL0     C25581   3.153  11.305   5.900 -0.2571 -0.0709 -0.1190
  931MOL0     C25582   3.146  11.380   5.784  0.6153  0.0555  0.1297
  931MOL0     C25583   3.040  11.464   5.755 -0.0420 -0.5214 -0.2876
  931MOL0     C25584   2.934  11.485   5.845 -0.2916  0.6861 -0.6819
  931MOL0     O25585   2.827  11.560   5.805 -0.0769 -0.3557 -0.4913
  931MOL0     C25586   2.715  11.565   5.902  0.1093  0.4786 -0.2351
  931MOL0     C25587   2.592  11.631   5.838 -0.1096  0.0242 -0.6224
  931MOL0     C25588   2.468  11.604   5.927  0.4006  0.0252  0.6525
  931MOL0     C25589   2.348  11.695   5.885  0.2072 -0.2134 -0.1422
  931MOL0     C25590   2.241  11.628   5.812 -0.1675  0.5756 -0.9198
  931MOL0     C25591   2.140  11.719   5.732 -0.4775  0.2888  0.0897
  931MOL0     C25592   2.028  11.633   5.666 -0.5753  0.5176  0.5613
  931MOL0     C25593   1.965  11.722   5.554  0.5894 -0.5881 -0.0715
  931MOL0    Cl25594   1.871  11.855   5.640  0.0143  0.5286  0.5958
  931MOL0     C25595   2.954  11.415   5.967  0.9706 -0.0511 -0.7759
  931MOL0     C25596   3.048  11.317   5.987 -0.5983 -0.4209 -0.3522
  931MOL0     O25597   3.432  11.310   5.907  0.4113 -0.4097 -0.0519
  931MOL0     C25598   3.602  11.077   5.857 -0.3470 -0.1201 -0.0068
  931MOL0     C25599   3.675  10.960   5.835 -1.1611 -0.1671  0.5521
  931MOL0     N25600   3.256  10.560   5.720 -0.4096  0.6493 -0.4410
  931MOL0     N25601   3.172  10.646   5.690 -0.0041  0.7504 -0.5434
  931MOL0     C25602   1.967  10.504   5.569 -0.4294 -0.5410 -0.2709
  931MOL0     C25603   1.834  10.456   5.571 -0.9000 -0.2622  0.7660
  931MOL0     C25604   1.433  10.292   5.504  0.8946  0.7573  0.0709
  931MOL0     C25605   1.378  10.379   5.404 -0.5869  0.3382 -0.2509
  931MOL0     C25606   1.240  10.385   5.383  1.0797 -0.0045 -0.3281
  931MOL0     C25607   1.152  10.305   5.462 -0.5515 -0.0349  0.8022
  931MOL0     O25608   1.013  10.298   5.459 -0.0362  0.3261  0.7722
  931MOL0     C25609   0.952  10.363   5.341  0.1508  0.1585 -0.0736
  931MOL0     C25610   0.806  10.338   5.356  0.3235 -0.1761  0.1710
  931MOL0     C25611   0.738  10.414   5.470 -0.0643 -1.0905 -0.0407
  931MOL0     C25612   0.586  10.387   5.474 -0.2903 -0.4742 -1.5513
  931MOL0     C25613   0.548  10.252   5.534  0.0005  0.5338 -0.1685
  931MOL0     C25614   0.509  10.150   5.592 -0.9611 -0.2556 -0.3142
  931MOL0     C25615   1.205  10.205   5.546 -0.8717  0.7834  0.1799
  931MOL0     C25616   1.347  10.196   5.570  0.5424 -0.5199  0.4295
  931MOL0     C25617   1.413  10.091   5.667  0.1243  0.4309 -0.3249
  931MOL0     H25618   1.783  10.412   5.233 -0.2026  0.1576  0.3942
  931MOL0     H25619   2.024  10.475   5.232  0.4198 -3.0786  0.9938
  931MOL0     H25620   2.270  10.463   5.321  1.6664 -0.3383  2.7724
  931MOL0     H25621   2.234  10.619   5.261  4.0224  0.5199 -1.0666
  931MOL0     H25622   2.418  10.576   5.509  0.1964 -3.2977 -0.9908
  931MOL0     H25623   2.360  10.729   5.450 -0.1143  1.1621 -1.8691
  931MOL0     H25624   2.481  10.673   5.226  2.5165  2.0305  0.0825
  931MOL0     H25625   2.495  10.505   5.269  0.4081 -0.3562 -1.2071
  931MOL0     H25626   2.613  10.749   5.415  0.8830  0.4879 -0.0479
  931MOL0     H25627   2.638  10.586   5.464 -1.6919 -1.3482 -0.8958
  931MOL0     H25628   2.794  10.554   5.251 -0.1743  0.6918 -2.3251
  931MOL0     H25629   2.728  10.706   5.190  1.4614 -1.5188 -0.4119
  931MOL0     H25630   2.911  10.805   5.262 -0.9402  1.4708  0.5287
  931MOL0     H25631   2.822  10.819   5.411  0.0492 -0.2019  0.3738
  931MOL0     H25632   3.026  10.600   5.349  0.2431 -2.2636  2.4188
  931MOL0     H25633   2.916  10.608   5.495 -1.3151  0.1968 -0.4030
  931MOL0     H25634   3.135  10.804   5.402 -0.9453  0.3044 -1.5136
  931MOL0     H25635   3.035  10.828   5.541  0.2997  0.3911 -0.7052
  931MOL0     H25636   3.317  10.617   5.396 -0.3771  1.6653  0.5785
  931MOL0     H25637   3.449  10.390   5.715 -0.4809  0.9828  0.6746
  931MOL0     H25638   3.397  10.329   5.554  0.9352 -0.6190  0.6524
  931MOL0     H25639   3.665  10.403   5.587  0.7554 -0.2628 -1.9408
  931MOL0     H25640   3.582  10.457   5.444 -0.8705  1.4612  0.2224
  931MOL0     H25641   3.546  10.681   5.567  0.8542  0.5479  0.5778
  931MOL0     H25642   3.712  10.639   5.560 -1.1161  2.8394 -1.5811
  931MOL0     H25643   3.706  10.532   5.772 -0.2171  0.2677 -0.6870
  931MOL0     H25644   3.535  10.576   5.799 -0.2115 -0.3340 -0.1837
  931MOL0     H25645   3.412  10.741   5.820  0.6723 -1.6149  1.5678
  931MOL0     H25646   3.292  10.959   5.852  0.3344  1.4926  2.7703
  931MOL0     H25647   3.223  11.367   5.709 -0.9308 -1.2021 -1.3259
  931MOL0     H25648   3.043  11.518   5.661 -2.3776  1.4467  0.6611
  931MOL0     H25649   2.692  11.461   5.928  2.4719 -0.2234 -0.7033
  931MOL0     H25650   2.740  11.616   5.996  2.0545 -2.1602  0.7884
  931MOL0     H25651   2.610  11.739   5.846 -0.5936 -0.0428  2.1383
  931MOL0     H25652   2.579  11.598   5.735  0.1385  2.6929 -1.6033
  931MOL0     H25653   2.429  11.503   5.920 -1.4014  0.7809 -1.0982
  931MOL0     H25654   2.505  11.631   6.027  1.7889  3.1946 -0.5689
  931MOL0     H25655   2.374  11.768   5.808  0.4374 -1.4608 -1.2840
  931MOL0     H25656   2.300  11.740   5.972  2.7185 -2.7554  2.8193
  931MOL0     H25657   2.175  11.568   5.875 -1.7147  1.8294 -1.2644
  931MOL0     H25658   2.284  11.560   5.739  0.0428 -0.3594  0.0490
  931MOL0     H25659   2.086  11.788   5.797  0.8979  0.0865  1.5062
  931MOL0     H25660   2.195  11.781   5.660  1.8079  0.9503  2.2724
  931MOL0     H25661   1.960  11.595   5.743 -0.4523  0.2416  0.5372
  931MOL0     H25662   2.077  11.545   5.623  1.8917  1.3709  1.4481
  931MOL0     H25663   2.030  11.780   5.488 -0.5209  3.9736  2.4074
  931MOL0     H25664   1.891  11.658   5.504  0.9506 -1.6643  0.7396
  931MOL0     H25665   2.892  11.441   6.052  0.8584 -0.7373 -0.6432
  931MOL0     H25666   3.063  11.252   6.073  2.2449  0.0865 -0.3731
  931MOL0     H25667   3.644  11.177   5.868 -1.3975  0.1897  1.6291
  931MOL0     H25668   3.783  10.964   5.828 -1.0003  5.1562 -7.1462
  931MOL0     H25669   2.013  10.557   5.652  1.1036  1.1390 -2.0821
  931MOL0     H25670   1.769  10.464   5.658 -0.1930  3.0058  1.1141
  931MOL0     H25671   1.443  10.445   5.348  0.1764 -2.6494 -3.1585
  931MOL0     H25672   1.195  10.458   5.316  1.7591  1.9030  1.2137
  931MOL0     H25673   0.983  10.312   5.249  1.6121 -1.7604  1.3947
  931MOL0     H25674   0.979  10.469   5.338  0.9491 -0.0334 -2.9244
  931MOL0     H25675   0.795  10.232   5.379 -1.2020 -0.0879 -0.0253
  931MOL0     H25676   0.765  10.361   5.257  3.5326 -0.2675 -1.2818
  931MOL0     H25677   0.743  10.519   5.440 -0.9424 -1.0602 -0.1271
  931MOL0     H25678   0.792  10.408   5.564  0.2975 -0.9163 -0.2377
  931MOL0     H25679   0.546  10.462   5.542  1.5062 -0.0709 -0.8914
  931MOL0     H25680   0.537  10.415   5.380 -0.4608  2.5967 -0.6424
  931MOL0     H25681   0.462  10.065   5.637  1.3989 -2.0587 -1.0588
  931MOL0     H25682   1.140  10.127   5.586 -0.3542 -0.4095 -1.2221
  931MOL0     H25683   1.340  10.012   5.687 -2.6859  2.3499 -2.2002
  931MOL0     H25684   1.494  10.048   5.607 -0.5985  0.5933 -1.4489
  931MOL0     H25685   1.450  10.137   5.759 -0.0664  1.0109 -0.5315
  932MOL0     O25686   9.574  11.084   8.707  0.3469 -0.4040 -0.8862
  932MOL0     C25687   9.520  11.011   8.790  0.3776 -0.4521 -0.5743
  932MOL0     O25688   9.565  10.988   8.914  0.2402 -0.1060 -0.3526
  932MOL0     C25689   9.697  11.013   8.944 -0.2914 -0.6080  0.4210
  932MOL0     C25690   9.706  11.065   9.070  0.8603 -0.3778  0.0542
  932MOL0     C25691   9.835  11.104   9.124 -0.8357  0.1509 -0.3137
  932MOL0     C25692   9.945  11.072   9.046  0.7878  0.4851  0.5784
  932MOL0     O25693  10.075  11.092   9.079 -0.4783 -0.1045 -0.2822
  932MOL0     C25694  10.119  11.021   9.193  0.5764 -0.0449  0.2935
  932MOL0     C25695  10.261  11.059   9.235  0.1408 -0.1955 -0.1692
  932MOL0     C25696  10.310  10.952   9.322  0.3544  0.2128  0.2784
  932MOL0     C25697  10.460  10.947   9.344  0.2172  0.3729  0.7234
  932MOL0     C25698  10.516  11.094   9.344 -0.4154 -0.1051 -0.1427
  932MOL0     C25699  10.662  11.113   9.396 -0.0195  0.4158 -0.4386
  932MOL0     C25700  10.763  11.045   9.308  0.4315 -0.5835  0.4063
  932MOL0     C25701  10.903  11.113   9.314  0.0850  0.2456  0.4128
  932MOL0     N25702  10.951  11.104   9.455 -0.1628 -0.2131 -0.1838
  932MOL0     C25703  11.002  10.990   9.527 -0.8021  0.0946  0.7358
  932MOL0     C25704  11.051  11.047   9.646  0.0671  0.7036  0.4046
  932MOL0     C25705  11.107  10.965   9.757 -0.3475  0.0102 -0.7970
  932MOL0     C25706  11.240  10.892   9.717 -0.1589 -0.2031  0.9393
  932MOL0     C25707  11.340  10.996   9.663  0.1647  0.1774  0.7572
  932MOL0     C25708  11.469  10.920   9.670  0.4050 -0.6189  0.0147
  932MOL0     O25709  11.563  10.958   9.572 -0.1399  0.2949 -0.1210
  932MOL0     C25710  11.623  11.081   9.582  0.4108 -0.5026 -0.3703
  932MOL0     C25711  11.626  11.165   9.698 -0.1886 -0.5754 -0.8142
  932MOL0     C25712  11.703  11.276   9.709  0.4662 -0.7678 -0.2760
  932MOL0     C25713  11.792  11.307   9.604 -0.1216  0.5194 -0.0442
  932MOL0     C25714  11.885  11.421   9.615  0.5289 -0.6220 -0.6816
  932MOL0     O25715  11.902  11.466   9.736  0.1651 -0.0246 -0.6064
  932MOL0     C25716  12.010  11.544   9.766 -0.1050 -0.2952 -0.4403
  932MOL0     C25717  12.135  11.533   9.712 -0.0596 -0.2634  0.1075
  932MOL0     C25718  12.245  11.599   9.763 -0.9011 -0.5245  0.3667
  932MOL0     C25719  12.229  11.686   9.876  0.3402  0.7173  1.2871
  932MOL0     O25720  12.325  11.769   9.922 -0.3717  0.0108  0.1187
  932MOL0     C25721  12.409  11.822   9.824 -0.6683  0.2092 -0.0676
  932MOL0     C25722  12.474  11.948   9.893  0.4185 -0.1262 -0.6418
  932MOL0     C25723  12.568  12.020   9.798  0.1146  0.0318  0.9802
  932MOL0     C25724  12.621  12.146   9.860  0.6886  0.2775  0.3413
  932MOL0     C25725  12.722  12.219   9.762  0.1614  0.8111  0.6615
  932MOL0     C25726  12.838  12.133   9.715 -0.4288  0.0284 -0.1956
  932MOL0     C25727  12.955  12.220   9.666  0.1820 -0.3498 -0.4559
  932MOL0     C25728  13.089  12.147   9.663 -0.1842  0.4763 -0.0905
  932MOL0    Cl25729  13.126  12.072   9.508  0.0415 -0.0410 -0.1842
  932MOL0     C25730  12.104  11.699   9.938 -0.0368 -0.1268 -0.6384
  932MOL0     C25731  12.000  11.628   9.882  1.0148 -0.2356  0.0772
  932MOL0     O25732  11.934  11.469   9.515  0.2643  0.1749 -0.5656
  932MOL0     C25733  11.796  11.232   9.480  0.0122  0.3480  0.0534
  932MOL0     C25734  11.714  11.118   9.480  0.4557  0.1540 -0.2835
  932MOL0     N25735  11.030  11.183   9.646  0.3115  0.5062 -0.4240
  932MOL0     N25736  10.970  11.212   9.524  0.5036  0.2265 -1.0133
  932MOL0     C25737   9.927  11.015   8.917  0.3861 -0.3003 -0.6835
  932MOL0     C25738   9.805  10.997   8.860 -0.2095 -0.1466 -0.1271
  932MOL0     C25739   9.376  10.959   8.759 -1.2357 -0.4379  0.5839
  932MOL0     C25740   9.324  10.878   8.860 -0.7804  0.5277  0.5218
  932MOL0     C25741   9.201  10.813   8.842 -0.0919 -0.4101 -0.4033
  932MOL0     C25742   9.122  10.833   8.731  0.9619  0.0842  0.2805
  932MOL0     O25743   8.999  10.773   8.711  0.3282  0.6869  0.3998
  932MOL0     C25744   8.901  10.793   8.815  0.0379 -0.8108 -0.9508
  932MOL0     C25745   8.835  10.932   8.781  0.1786  0.0243 -0.5220
  932MOL0     C25746   8.744  10.983   8.900  0.2840 -0.5391  0.2459
  932MOL0     C25747   8.625  11.080   8.861 -1.1944  0.3025 -1.2580
  932MOL0     C25748   8.541  11.087   8.987 -0.0213  0.0610 -0.0731
  932MOL0     C25749   8.487  11.077   9.098  0.6694  0.2570 -0.7460
  932MOL0     C25750   9.179  10.917   8.629 -0.0122  0.5677  0.1694
  932MOL0     C25751   9.305  10.981   8.638  0.0577  1.0537  0.0375
  932MOL0     C25752   9.352  11.057   8.513  0.9740 -0.0573 -0.6374
  932MOL0     H25753   9.618  11.084   9.131 -0.4279 -2.5463 -1.0129
  932MOL0     H25754   9.849  11.142   9.225 -1.2752 -1.9645  0.6061
  932MOL0     H25755  10.060  11.046   9.282 -0.0413 -0.0387 -0.1169
  932MOL0     H25756  10.119  10.913   9.173 -1.0646  0.4110 -2.6820
  932MOL0     H25757  10.265  11.152   9.293  0.7279 -0.2680 -0.0871
  932MOL0     H25758  10.317  11.075   9.142  1.6008  3.0383  1.0952
  932MOL0     H25759  10.285  10.859   9.270  0.8917 -1.3315  2.6158
  932MOL0     H25760  10.247  10.947   9.411 -1.7285  0.2274 -1.1233
  932MOL0     H25761  10.483  10.887   9.433  0.2817  1.5755  1.5318
  932MOL0     H25762  10.496  10.903   9.251  0.1948  1.6376  0.0932
  932MOL0     H25763  10.511  11.134   9.242  5.4830 -0.5331 -0.9752
  932MOL0     H25764  10.455  11.155   9.410 -0.0384  0.3084 -0.1782
  932MOL0     H25765  10.686  11.220   9.404 -0.8607  0.5852 -0.1325
  932MOL0     H25766  10.667  11.073   9.498 -2.8142  0.0071 -0.3886
  932MOL0     H25767  10.722  11.049   9.207 -0.3520  2.2227  0.7300
  932MOL0     H25768  10.768  10.942   9.345  2.3605 -0.4457  0.6603
  932MOL0     H25769  10.981  11.074   9.247  0.5316  2.8097 -0.6747
  932MOL0     H25770  10.897  11.219   9.286 -1.9622  0.4832  1.5288
  932MOL0     H25771  11.007  10.885   9.500  1.2302  0.6413 -1.3765
  932MOL0     H25772  11.131  11.023   9.846 -0.7597 -1.7071  0.5005
  932MOL0     H25773  11.035  10.889   9.789  2.1440 -1.4121  1.9864
  932MOL0     H25774  11.278  10.842   9.807 -0.2977 -1.3666  0.3675
  932MOL0     H25775  11.208  10.817   9.644  0.0657 -0.3982  1.0435
  932MOL0     H25776  11.355  11.078   9.732  4.6487 -0.0233  0.2765
  932MOL0     H25777  11.305  11.037   9.567 -0.8525 -0.6840  0.7306
  932MOL0     H25778  11.440  10.817   9.646 -0.8276 -0.7660  1.9265
  932MOL0     H25779  11.523  10.919   9.765  2.2541  0.6083 -0.9686
  932MOL0     H25780  11.562  11.144   9.783  1.9736 -1.2012  0.7293
  932MOL0     H25781  11.699  11.328   9.804 -1.5280 -2.3332  0.5816
  932MOL0     H25782  12.154  11.472   9.624 -2.7699 -3.2023  1.3570
  932MOL0     H25783  12.339  11.576   9.714 -0.0396  1.9557  0.7329
  932MOL0     H25784  12.489  11.756   9.788 -0.2607  0.7533 -0.1737
  932MOL0     H25785  12.341  11.850   9.744 -1.5104 -2.7392 -0.5156
  932MOL0     H25786  12.391  12.011   9.925  0.9202 -0.6404  1.8990
  932MOL0     H25787  12.529  11.919   9.982 -0.8006 -1.3032 -0.2188
  932MOL0     H25788  12.643  11.948   9.765 -0.2290  0.6874 -1.4837
  932MOL0     H25789  12.518  12.055   9.707  0.8204  3.3369  1.7156
  932MOL0     H25790  12.678  12.123   9.950  1.8012  1.5591  0.0116
  932MOL0     H25791  12.547  12.214   9.902  0.4356 -0.4337  1.0524
  932MOL0     H25792  12.757  12.312   9.807  2.0757  1.0223 -1.1250
  932MOL0     H25793  12.675  12.249   9.668  3.2206  1.5402 -0.7369
  932MOL0     H25794  12.882  12.086   9.804 -1.4073 -1.1939 -0.3383
  932MOL0     H25795  12.809  12.050   9.650 -1.7400 -0.8682  1.4584
  932MOL0     H25796  12.957  12.304   9.735 -3.0312  0.6026 -1.3597
  932MOL0     H25797  12.946  12.261   9.565 -1.4415  1.1497  0.2448
  932MOL0     H25798  13.171  12.217   9.677  0.6544 -0.3687 -0.6494
  932MOL0     H25799  13.102  12.082   9.749  0.1854  2.5533  1.5023
  932MOL0     H25800  12.096  11.755  10.030  2.6566 -1.4850  0.5358
  932MOL0     H25801  11.898  11.636   9.920  1.0774  1.2316 -0.0067
  932MOL0     H25802  11.861  11.257   9.397 -2.1766  0.4536 -1.7209
  932MOL0     H25803  11.719  11.058   9.389 -0.4481  0.6661 -0.6920
  932MOL0     H25804  10.020  11.001   8.863  2.2981  1.3823  1.8913
  932MOL0     H25805   9.805  10.958   8.759  1.9483  0.5034 -0.4196
  932MOL0     H25806   9.371  10.866   8.957 -0.9506  0.9313  0.6528
  932MOL0     H25807   9.170  10.755   8.929 -2.7509 -0.8088 -1.5200
  932MOL0     H25808   8.950  10.804   8.912  1.9144 -0.2742 -1.9010
  932MOL0     H25809   8.824  10.717   8.831  0.3955 -1.1723 -0.8981
  932MOL0     H25810   8.768  10.915   8.696 -0.8691  0.5884  0.1575
  932MOL0     H25811   8.915  11.002   8.755  0.3025  0.1189  0.0781
  932MOL0     H25812   8.805  11.019   8.983  0.4583 -2.7074  1.1337
  932MOL0     H25813   8.716  10.890   8.950  3.0137 -1.2235  0.6894
  932MOL0     H25814   8.678  11.170   8.830  2.1127 -1.0857 -0.0762
  932MOL0     H25815   8.555  11.039   8.787 -0.9926 -3.7302  0.5440
  932MOL0     H25816   8.452  11.054   9.197  3.9674 -0.4766  0.3735
  932MOL0     H25817   9.111  10.938   8.547 -1.7722  2.8067  2.0534
  932MOL0     H25818   9.432  11.004   8.461  2.8209 -0.0513  1.9546
  932MOL0     H25819   9.275  11.082   8.440  0.5402  1.1670  0.1980
  932MOL0     H25820   9.380  11.156   8.551  1.2078 -1.0517  2.0198
  933MOL0     O25821  11.121  10.456  10.058  0.4284  0.1385  0.7299
  933MOL0     C25822  11.070  10.562  10.048  1.5560  0.3460 -0.7557
  933MOL0     O25823  11.131  10.676  10.046 -0.1003  0.5477  0.2495
  933MOL0     C25824  11.268  10.689  10.036  0.0543 -0.0553 -0.1296
  933MOL0     C25825  11.331  10.808  10.078  0.8544 -0.2069  0.7492
  933MOL0     C25826  11.467  10.831  10.042  0.3204  0.3132 -0.0080
  933MOL0     C25827  11.542  10.741   9.966  0.9958  0.2436 -0.4514
  933MOL0     O25828  11.671  10.779   9.935 -0.2719 -0.0714 -0.5300
  933MOL0     C25829  11.749  10.697   9.853 -0.2627 -0.2065 -0.6291
  933MOL0     C25830  11.885  10.755   9.825 -0.6497  0.3145 -0.6976
  933MOL0     C25831  11.880  10.885   9.749 -0.2038  0.2691 -0.3146
  933MOL0     C25832  12.021  10.914   9.705 -0.3460  0.1262  0.4778
  933MOL0     C25833  12.054  11.055   9.676  0.1103 -0.5319  0.3549
  933MOL0     C25834  12.205  11.061   9.640  1.0251 -1.0349  0.3598
  933MOL0     C25835  12.246  11.206   9.616  0.1362  0.7427 -0.2196
  933MOL0     C25836  12.370  11.221   9.532 -0.7193 -0.6626 -0.4116
  933MOL0     N25837  12.417  11.362   9.509  0.1755 -0.7972 -0.0938
  933MOL0     C25838  12.528  11.417   9.574  0.1859  0.1024  0.5423
  933MOL0     C25839  12.547  11.535   9.518 -0.2857 -0.9800 -0.4318
  933MOL0     C25840  12.667  11.619   9.534 -0.4468  0.5809 -0.1024
  933MOL0     C25841  12.741  11.644   9.404 -0.2906 -0.8665 -0.6081
  933MOL0     C25842  12.871  11.720   9.410  0.2521 -0.3318  0.0449
  933MOL0     C25843  12.988  11.628   9.462  0.7299 -0.6486  0.0803
  933MOL0     O25844  13.052  11.555   9.353 -0.2092 -0.3403 -0.1559
  933MOL0     C25845  13.167  11.607   9.299  0.8303 -0.7585  0.2532
  933MOL0     C25846  13.225  11.731   9.324 -0.1153  0.2736  0.8268
  933MOL0     C25847  13.353  11.758   9.281 -0.0883 -0.9663 -0.5485
  933MOL0     C25848  13.430  11.660   9.214  0.2740 -0.7361  0.9873
  933MOL0     C25849  13.565  11.688   9.172 -0.3287  0.0032 -0.2594
  933MOL0     O25850  13.645  11.586   9.196  0.3404  0.4431  0.1998
  933MOL0     C25851  13.786  11.606   9.175  0.7877 -0.2760 -0.9675
  933MOL0     C25852  13.866  11.715   9.196  0.0635 -0.6654  0.0050
  933MOL0     C25853  14.005  11.716   9.179  0.2844  0.6106 -0.0998
  933MOL0     C25854  14.072  11.606   9.129 -0.1290 -0.0765 -0.1033
  933MOL0     O25855  14.214  11.597   9.120  0.8484  0.7420  0.2525
  933MOL0     C25856  14.281  11.643   9.235  0.5592 -0.4806  0.4431
  933MOL0     C25857  14.436  11.612   9.236  0.5507 -1.3593 -0.2050
  933MOL0     C25858  14.472  11.461   9.243  0.2312  0.4079 -0.6225
  933MOL0     C25859  14.604  11.437   9.170 -0.5372  0.2488 -0.3566
  933MOL0     C25860  14.722  11.502   9.244  0.7664  0.2937 -0.1745
  933MOL0     C25861  14.867  11.475   9.190  0.1141  0.2459 -0.5204
  933MOL0     C25862  14.901  11.321   9.195 -0.3031  0.5325  0.0345
  933MOL0     C25863  14.891  11.261   9.334 -0.8297  0.1004  0.1004
  933MOL0    Cl25864  15.012  11.355   9.432 -0.0850 -0.0605  0.0146
  933MOL0     C25865  13.995  11.503   9.085  0.3559  0.3021  0.8016
  933MOL0     C25866  13.856  11.491   9.121 -0.8318  0.3196 -0.0623
  933MOL0     O25867  13.594  11.793   9.118 -0.3768  0.1288  0.4308
  933MOL0     C25868  13.363  11.543   9.172 -0.3351  0.0416 -0.5545
  933MOL0     C25869  13.229  11.517   9.218 -0.4321 -0.0240  0.0690
  933MOL0     N25870  12.447  11.554   9.421  0.4035 -0.0936  0.1841
  933MOL0     N25871  12.367  11.453   9.417  0.0436  0.5963 -0.4107
  933MOL0     C25872  11.483  10.626   9.922  0.8516  0.7884 -0.0385
  933MOL0     C25873  11.346  10.604   9.952 -0.5452 -0.4400  0.2298
  933MOL0     C25874  10.922  10.569  10.055  0.2590 -0.0309 -0.3131
  933MOL0     C25875  10.855  10.471   9.980  0.3089 -0.3471 -0.8066
  933MOL0     C25876  10.719  10.475   9.961 -0.2660  0.6734 -0.0304
  933MOL0     C25877  10.652  10.578  10.033 -0.2207 -0.1028  0.3472
  933MOL0     O25878  10.516  10.606  10.019  0.1674  0.2295  0.6484
  933MOL0     C25879  10.439  10.506   9.943 -0.0236 -0.6171  0.2457
  933MOL0     C25880  10.293  10.521   9.956 -0.5363 -0.4559 -0.4528
  933MOL0     C25881  10.222  10.443   9.844  0.2021 -0.5943  0.1178
  933MOL0     C25882  10.067  10.433   9.876 -0.1813  0.1171  0.8707
  933MOL0     C25883   9.999  10.366   9.767 -0.2457 -0.2775  0.2560
  933MOL0     C25884   9.946  10.291   9.689 -0.5685 -0.0165 -0.0073
  933MOL0     C25885  10.709  10.666  10.123 -0.1792  1.0349 -0.3629
  933MOL0     C25886  10.850  10.663  10.131  0.4248 -0.2650  0.3528
  933MOL0     C25887  10.911  10.773  10.223  0.2034  0.5964 -0.5305
  933MOL0     H25888  11.270  10.883  10.128 -1.1902  0.2436 -2.1138
  933MOL0     H25889  11.505  10.924  10.083  0.7720  0.3531 -0.5005
  933MOL0     H25890  11.768  10.604   9.906  0.1563 -0.3171 -0.9696
  933MOL0     H25891  11.704  10.667   9.758  0.7680 -1.4372 -0.7470
  933MOL0     H25892  11.937  10.681   9.764  4.1406  1.8387  1.0370
  933MOL0     H25893  11.930  10.761   9.925 -0.5319  0.7200 -0.7703
  933MOL0     H25894  11.832  10.959   9.814 -0.8397 -0.3047 -0.1223
  933MOL0     H25895  11.812  10.876   9.665 -2.0407 -0.0458  1.1508
  933MOL0     H25896  12.089  10.881   9.784  0.8140  0.3946 -0.3652
  933MOL0     H25897  12.039  10.859   9.612 -0.5828 -1.2883  1.2462
  933MOL0     H25898  11.996  11.091   9.591  0.2410  0.2895  0.5983
  933MOL0     H25899  12.039  11.120   9.763  1.0280 -0.3838  0.4152
  933MOL0     H25900  12.268  11.018   9.719  0.5212 -2.4085  0.0552
  933MOL0     H25901  12.211  10.995   9.552  3.8254 -2.5685  1.5798
  933MOL0     H25902  12.265  11.247   9.715  3.2431 -2.5789  0.8096
  933MOL0     H25903  12.165  11.261   9.567 -0.5462  0.8134  0.9616
  933MOL0     H25904  12.449  11.171   9.589 -2.2486  2.3732  5.1392
  933MOL0     H25905  12.359  11.167   9.437  2.2322  1.8383 -2.3629
  933MOL0     H25906  12.584  11.370   9.653  3.4518  0.5938 -1.3069
  933MOL0     H25907  12.640  11.720   9.568  0.8810  0.8655  0.1448
  933MOL0     H25908  12.729  11.555   9.597 -2.0656 -1.9833 -0.9700
  933MOL0     H25909  12.768  11.550   9.355  2.9449  0.2139 -1.1954
  933MOL0     H25910  12.668  11.690   9.337  0.5313 -0.7621 -1.4704
  933MOL0     H25911  12.855  11.818   9.455  3.2331  0.3320 -0.1762
  933MOL0     H25912  12.898  11.750   9.308  0.5729  2.7881  0.9435
  933MOL0     H25913  12.947  11.570   9.545 -1.5778  0.8104  0.0412
  933MOL0     H25914  13.044  11.692   9.531  0.4466 -0.6078  0.2738
  933MOL0     H25915  13.167  11.807   9.374 -4.0619 -0.9092 -1.5160
  933MOL0     H25916  13.391  11.856   9.305  0.2492 -0.3622 -3.2765
  933MOL0     H25917  13.814  11.804   9.230 -0.7628 -0.2727 -2.1544
  933MOL0     H25918  14.065  11.804   9.199  1.6527 -0.4025  0.4800
  933MOL0     H25919  14.262  11.750   9.248 -1.1766 -0.9594  2.5051
  933MOL0     H25920  14.232  11.590   9.318 -4.4806  0.7664 -1.3771
  933MOL0     H25921  14.474  11.653   9.142  1.5549  0.4151  0.9228
  933MOL0     H25922  14.475  11.674   9.318 -3.0095 -0.3336  0.9347
  933MOL0     H25923  14.472  11.417   9.343 -1.2183 -2.8554 -1.9307
  933MOL0     H25924  14.399  11.402   9.188 -0.3369  0.8505 -0.3554
  933MOL0     H25925  14.601  11.465   9.064  2.4948 -4.4352 -2.0184
  933MOL0     H25926  14.621  11.329   9.160 -0.7837  0.4177 -3.9779
  933MOL0     H25927  14.709  11.463   9.346  0.2535  1.9916  0.4461
  933MOL0     H25928  14.715  11.611   9.252 -2.2078  0.3420 -1.9663
  933MOL0     H25929  14.870  11.514   9.088 -2.4185  2.2887  0.0743
  933MOL0     H25930  14.941  11.533   9.246  1.8581 -2.0464 -0.3232
  933MOL0     H25931  15.006  11.298   9.174 -0.4432  0.5053 -0.6552
  933MOL0     H25932  14.831  11.263   9.135 -0.1547 -1.1439  1.4259
  933MOL0     H25933  14.792  11.285   9.374 -0.3081  1.5864  0.5925
  933MOL0     H25934  14.920  11.157   9.350  1.5839  0.7272  0.1103
  933MOL0     H25935  14.033  11.419   9.027  0.1014  0.5163  0.3222
  933MOL0     H25936  13.791  11.405   9.111 -2.1579  1.1912  0.6869
  933MOL0     H25937  13.403  11.463   9.111 -0.9924 -1.0663  0.4221
  933MOL0     H25938  13.172  11.425   9.208  0.6066 -0.7347  0.5705
  933MOL0     H25939  11.534  10.550   9.865 -1.2378 -0.5257 -0.2656
  933MOL0     H25940  11.295  10.518   9.910 -1.2896 -1.3618  2.8516
  933MOL0     H25941  10.913  10.398   9.924  0.5614  1.3343 -2.9071
  933MOL0     H25942  10.668  10.400   9.903  3.3718 -2.0435 -0.0670
  933MOL0     H25943  10.464  10.410   9.989 -0.0094 -0.5275  0.4289
  933MOL0     H25944  10.464  10.504   9.837  0.6331 -1.8895  0.3960
  933MOL0     H25945  10.268  10.627   9.951  2.6065  0.5674  2.1127
  933MOL0     H25946  10.251  10.503  10.056 -2.2251  1.7149 -0.7000
  933MOL0     H25947  10.259  10.340   9.832 -1.5686 -1.0284 -2.4020
  933MOL0     H25948  10.244  10.488   9.747  0.5287 -0.7000  0.1401
  933MOL0     H25949  10.040  10.380   9.967 -0.5284 -2.0389 -0.4094
  933MOL0     H25950  10.019  10.531   9.885 -1.3304 -0.3579  0.1828
  933MOL0     H25951   9.902  10.220   9.623  1.0918 -0.1119 -1.0906
  933MOL0     H25952  10.664  10.750  10.174 -0.8692  1.6394 -1.8776
  933MOL0     H25953  10.990  10.739  10.290 -0.4988 -0.5259 -0.2472
  933MOL0     H25954  10.943  10.857  10.161  0.5348 -0.9042 -2.5050
  933MOL0     H25955  10.838  10.820  10.289  0.6687  0.2752  0.2150
  934MOL0     O25956   0.484   5.211   7.756  0.0074 -0.9564  0.1537
  934MOL0     C25957   0.435   5.116   7.690 -0.3635  0.2374 -0.5858
  934MOL0     O25958   0.511   5.035   7.612  0.0872  0.4782  0.1416
  934MOL0     C25959   0.641   5.063   7.571  0.5583 -0.6236  0.1192
  934MOL0     C25960   0.735   4.961   7.572 -0.1242 -0.3391 -0.2380
  934MOL0     C25961   0.867   4.983   7.530 -0.1706  0.1943  0.4140
  934MOL0     C25962   0.908   5.111   7.471 -0.1318  0.2287 -0.8361
  934MOL0     O25963   1.027   5.151   7.420  0.5974 -0.0640 -0.6533
  934MOL0     C25964   1.141   5.058   7.447  0.3667  0.3794  0.4406
  934MOL0     C25965   1.270   5.138   7.434 -0.5477 -0.9242 -0.2395
  934MOL0     C25966   1.283   5.244   7.543  0.2696  0.6946 -0.7486
  934MOL0     C25967   1.399   5.340   7.524 -0.0169  0.6659  0.6051
  934MOL0     C25968   1.416   5.428   7.646  0.4692 -0.3880 -0.0501
  934MOL0     C25969   1.521   5.541   7.639  0.6966  0.4660  0.6654
  934MOL0     C25970   1.525   5.621   7.505 -0.7466 -0.4466 -0.1778
  934MOL0     C25971   1.647   5.707   7.499  0.0868  0.0839 -0.1990
  934MOL0     N25972   1.766   5.640   7.445  0.2269 -0.2292  0.5366
  934MOL0     C25973   1.884   5.710   7.412 -0.2660 -0.9755 -1.0681
  934MOL0     C25974   1.969   5.620   7.372 -0.5009 -0.5098 -0.5673
  934MOL0     C25975   2.111   5.655   7.339 -0.2916 -0.0345  0.3914
  934MOL0     C25976   2.174   5.555   7.241 -0.6661 -0.1768 -0.3150
  934MOL0     C25977   2.328   5.554   7.249  0.2786  0.7059 -0.0769
  934MOL0     C25978   2.385   5.694   7.201  0.2470  0.4575  0.3979
  934MOL0     O25979   2.519   5.674   7.158  0.7701  0.2279  0.9156
  934MOL0     C25980   2.625   5.658   7.242 -0.2598  0.0011 -0.3623
  934MOL0     C25981   2.744   5.654   7.176 -0.9163  0.1102  0.7200
  934MOL0     C25982   2.863   5.616   7.239 -0.2880 -0.4481 -0.2531
  934MOL0     C25983   2.865   5.585   7.378 -0.3258 -0.1608  0.4158
  934MOL0     C25984   2.986   5.531   7.438  0.1202 -0.1666 -0.4315
  934MOL0     O25985   3.096   5.504   7.354 -0.1914 -0.1728 -1.0014
  934MOL0     C25986   3.210   5.449   7.415 -0.2743 -0.2108 -0.3037
  934MOL0     C25987   3.328   5.533   7.406  0.7893 -0.6698 -0.0573
  934MOL0     C25988   3.446   5.488   7.473 -0.1230  0.3017  0.0079
  934MOL0     C25989   3.458   5.363   7.534  0.1653 -0.0517  0.1901
  934MOL0     O25990   3.569   5.318   7.600 -0.3940 -0.6428  0.4224
  934MOL0     C25991   3.629   5.203   7.539  0.3890 -0.2175 -0.4298
  934MOL0     C25992   3.744   5.244   7.452 -0.4495 -0.1839 -0.6514
  934MOL0     C25993   3.804   5.122   7.398  0.1845  0.6349  0.2189
  934MOL0     C25994   3.941   5.145   7.336 -0.0497  1.0285  0.8137
  934MOL0     C25995   4.002   5.038   7.249 -0.2815  0.1393 -0.5215
  934MOL0     C25996   4.149   5.072   7.203 -0.8156 -0.2669  0.7624
  934MOL0     C25997   4.216   4.949   7.137 -0.0314  0.4599  0.2813
  934MOL0     C25998   4.361   4.958   7.099 -0.3958  0.0551 -0.2971
  934MOL0    Cl25999   4.389   5.107   7.008  0.0515  0.0559 -0.3228
  934MOL0     C26000   3.342   5.283   7.535 -0.1468  0.1859 -0.6196
  934MOL0     C26001   3.219   5.327   7.487  0.3648 -0.5287  0.7969
  934MOL0     O26002   2.986   5.506   7.558 -0.3091 -0.0891  0.0145
  934MOL0     C26003   2.748   5.581   7.453  0.0375  0.5412 -0.3910
  934MOL0     C26004   2.631   5.628   7.384 -0.4829  0.2074 -0.0728
  934MOL0     N26005   1.902   5.493   7.379 -0.8494 -0.0321  0.4324
  934MOL0     N26006   1.778   5.507   7.410 -0.3586  0.1727  0.6324
  934MOL0     C26007   0.809   5.208   7.471  0.3868  0.1568 -0.4054
  934MOL0     C26008   0.676   5.187   7.523  0.4821  1.6700  1.2827
  934MOL0     C26009   0.283   5.089   7.719  0.4704 -0.5188 -0.2321
  934MOL0     C26010   0.198   5.194   7.756  0.1769 -0.0210  0.5504
  934MOL0     C26011   0.063   5.171   7.773  0.1558  0.0356 -0.2998
  934MOL0     C26012   0.008   5.039   7.741  0.3159 -0.3081  0.4357
  934MOL0     O26013  -0.127   5.006   7.768 -0.0457  0.1404 -0.2116
  934MOL0     C26014  -0.216   5.112   7.823 -0.0651 -0.9853 -0.0019
  934MOL0     C26015  -0.368   5.079   7.841 -0.5275  0.0165  0.7525
  934MOL0     C26016  -0.434   5.034   7.704  0.0815 -0.0820  0.1379
  934MOL0     C26017  -0.591   5.022   7.731  0.0856 -0.3014 -0.8452
  934MOL0     C26018  -0.668   5.004   7.609  0.5775  0.5001 -0.0094
  934MOL0     C26019  -0.722   4.988   7.502 -0.4367  0.6911 -0.1144
  934MOL0     C26020   0.090   4.939   7.706 -0.5133 -1.0124 -0.2310
  934MOL0     C26021   0.227   4.961   7.698  0.7501 -0.4555  0.3680
  934MOL0     C26022   0.318   4.848   7.679  0.3192 -0.1225  0.6691
  934MOL0     H26023   0.710   4.864   7.613 -2.6664 -0.6861 -2.3513
  934MOL0     H26024   0.936   4.899   7.539  0.3663  0.8668  3.5400
  934MOL0     H26025   1.136   5.019   7.550 -1.1768 -0.2986  0.1425
  934MOL0     H26026   1.148   4.975   7.376 -2.0245 -2.2511  3.0193
  934MOL0     H26027   1.269   5.179   7.333 -0.3543 -1.0112 -0.2774
  934MOL0     H26028   1.357   5.073   7.446  0.3985  0.0266 -1.5978
  934MOL0     H26029   1.300   5.185   7.634  0.1377 -0.2034 -1.2923
  934MOL0     H26030   1.184   5.291   7.542 -0.2386 -0.3363 -0.5108
  934MOL0     H26031   1.488   5.287   7.490 -1.1696 -0.5774 -0.6597
  934MOL0     H26032   1.371   5.396   7.434  1.1218 -5.2778 -4.1450
  934MOL0     H26033   1.324   5.486   7.641  0.9070  0.2259 -1.9751
  934MOL0     H26034   1.423   5.365   7.735 -1.9364  0.2743  0.6595
  934MOL0     H26035   1.497   5.614   7.717 -1.5368 -1.0681  1.5344
  934MOL0     H26036   1.616   5.496   7.667 -0.0897 -2.0570 -0.4170
  934MOL0     H26037   1.437   5.686   7.505 -0.8092 -0.4775 -2.0271
  934MOL0     H26038   1.517   5.562   7.414  3.0382  1.0800 -1.6902
  934MOL0     H26039   1.621   5.797   7.443  1.0802  1.4659  1.4594
  934MOL0     H26040   1.669   5.739   7.601 -3.6799 -2.8176  1.7831
  934MOL0     H26041   1.904   5.815   7.427 -1.3240 -0.7509 -1.1361
  934MOL0     H26042   2.112   5.759   7.304 -1.3184 -0.5334 -1.2333
  934MOL0     H26043   2.167   5.653   7.433 -3.3041  0.3210  2.2984
  934MOL0     H26044   2.130   5.456   7.255 -2.8942  0.3358 -2.9037
  934MOL0     H26045   2.144   5.580   7.139 -1.8031  1.4161  0.3682
  934MOL0     H26046   2.369   5.471   7.190  1.0316  1.0666 -0.0741
  934MOL0     H26047   2.362   5.540   7.352  0.0996  1.1538  0.0438
  934MOL0     H26048   2.364   5.774   7.273  0.6305  0.7924  0.1421
  934MOL0     H26049   2.321   5.714   7.115  0.4308 -0.2005  0.1033
  934MOL0     H26050   2.742   5.674   7.070  1.2064  1.1579  0.8182
  934MOL0     H26051   2.959   5.623   7.189  1.0687 -1.3000  2.0650
  934MOL0     H26052   3.328   5.625   7.348 -0.6044 -1.5980 -1.6125
  934MOL0     H26053   3.543   5.537   7.467  0.7273 -0.9562  2.3219
  934MOL0     H26054   3.670   5.152   7.627 -0.7445 -2.0663 -0.8959
  934MOL0     H26055   3.555   5.143   7.484 -1.2961  3.0843 -2.0366
  934MOL0     H26056   3.713   5.309   7.369  1.0889 -0.6796 -1.6644
  934MOL0     H26057   3.813   5.298   7.517 -0.3079 -0.0597 -0.9009
  934MOL0     H26058   3.831   5.048   7.474 -1.0331  0.8153  0.8587
  934MOL0     H26059   3.739   5.069   7.327  1.3790 -0.7665  0.1268
  934MOL0     H26060   4.003   5.175   7.422 -0.8921 -1.3935  2.3574
  934MOL0     H26061   3.924   5.231   7.270  0.2925  0.6699  0.2540
  934MOL0     H26062   3.938   5.017   7.163 -0.8319  2.4264 -0.7103
  934MOL0     H26063   4.016   4.943   7.302  0.0076  0.4366 -0.0610
  934MOL0     H26064   4.156   5.162   7.141  2.1872  0.3430  1.7726
  934MOL0     H26065   4.211   5.103   7.288  2.6819  0.6013 -1.8505
  934MOL0     H26066   4.156   4.932   7.048  1.3380 -2.0598 -0.2338
  934MOL0     H26067   4.195   4.862   7.199 -2.5418  1.4695  0.9887
  934MOL0     H26068   4.422   4.963   7.191 -0.2055  1.5842 -0.4771
  934MOL0     H26069   4.388   4.871   7.040  1.3662  0.8706 -0.7664
  934MOL0     H26070   3.349   5.187   7.585 -2.9999 -0.3131 -1.0365
  934MOL0     H26071   3.121   5.283   7.506 -0.2275  0.9756  1.3732
  934MOL0     H26072   2.745   5.542   7.554  1.2918 -2.8890 -1.5196
  934MOL0     H26073   2.536   5.631   7.436 -2.8416  0.9293 -3.9867
  934MOL0     H26074   0.838   5.299   7.420  0.7627 -0.6912 -1.7501
  934MOL0     H26075   0.593   5.256   7.508  1.8639  3.1916  0.3791
  934MOL0     H26076   0.244   5.290   7.780  1.8652 -0.6808  0.1060
  934MOL0     H26077  -0.008   5.248   7.803  0.9939  0.1460  1.5360
  934MOL0     H26078  -0.209   5.194   7.752 -1.5809 -1.6383 -0.9547
  934MOL0     H26079  -0.174   5.145   7.918  0.5474  0.9412 -0.8887
  934MOL0     H26080  -0.417   5.176   7.852  1.6717  1.4694 -1.1104
  934MOL0     H26081  -0.396   5.005   7.917  0.9953 -0.2388  1.1025
  934MOL0     H26082  -0.412   4.942   7.648 -2.2089  0.6103 -2.0955
  934MOL0     H26083  -0.409   5.108   7.629 -0.3309 -1.2091 -1.1588
  934MOL0     H26084  -0.614   4.931   7.787 -1.5220 -0.3081 -1.4678
  934MOL0     H26085  -0.625   5.112   7.784 -0.2249 -1.2859  0.6719
  934MOL0     H26086  -0.756   4.987   7.400  1.3268  1.9277 -0.7564
  934MOL0     H26087   0.059   4.835   7.703 -1.2569 -0.8645  1.2574
  934MOL0     H26088   0.403   4.853   7.748  0.3105 -1.3223  0.7869
  934MOL0     H26089   0.254   4.759   7.683 -1.1155  0.7236 -1.6397
  934MOL0     H26090   0.364   4.839   7.580 -2.1101  0.2539 -0.5682
  935MOL0     O26091   0.190  11.256   6.546 -0.7712 -0.5670  0.9647
  935MOL0     C26092   0.141  11.343   6.617 -0.2234 -0.3230 -0.0749
  935MOL0     O26093   0.217  11.445   6.674 -0.0297  0.2006  0.0144
  935MOL0     C26094   0.348  11.460   6.633 -1.1061 -0.5381  0.1284
  935MOL0     C26095   0.383  11.478   6.499  0.6683 -0.3891 -0.1738
  935MOL0     C26096   0.514  11.515   6.467  0.1335  0.8157 -0.1732
  935MOL0     C26097   0.612  11.501   6.562  0.4110 -0.4089 -0.0537
  935MOL0     O26098   0.737  11.515   6.513  0.1415  0.2341 -0.5384
  935MOL0     C26099   0.842  11.429   6.554 -0.6493 -0.3602 -0.4529
  935MOL0     C26100   0.965  11.473   6.478 -0.0157  0.7405  0.0702
  935MOL0     C26101   1.080  11.368   6.491 -0.4743 -0.0048 -0.6763
  935MOL0     C26102   1.211  11.449   6.508 -0.5804 -0.2517 -0.0215
  935MOL0     C26103   1.334  11.356   6.524 -0.1932  0.0039  0.1667
  935MOL0     C26104   1.473  11.426   6.538 -0.2912  0.0192  0.3246
  935MOL0     C26105   1.568  11.317   6.592 -0.6164 -0.1041  0.4282
  935MOL0     C26106   1.715  11.350   6.578 -0.0077 -0.4542  1.2649
  935MOL0     N26107   1.795  11.250   6.640 -0.6325  0.0671  0.3844
  935MOL0     C26108   1.789  11.202   6.767 -0.5164  0.6934  0.1156
  935MOL0     C26109   1.908  11.141   6.798  0.0684  0.4233  0.6478
  935MOL0     C26110   1.953  11.102   6.930 -0.6948  0.2070 -0.4948
  935MOL0     C26111   2.070  10.999   6.924  0.6154 -0.3017  0.0853
  935MOL0     C26112   2.120  10.967   7.057  0.2377 -0.6425  1.3536
  935MOL0     C26113   2.249  10.877   7.036 -0.1911 -0.8677 -0.2662
  935MOL0     O26114   2.366  10.965   7.041  0.2829 -0.5619 -0.5685
  935MOL0     C26115   2.494  10.916   7.065 -0.0749 -0.3833 -0.0310
  935MOL0     C26116   2.596  11.010   7.080 -0.1906 -0.2031  1.2369
  935MOL0     C26117   2.730  10.971   7.081  0.0491  0.2239  0.3072
  935MOL0     C26118   2.765  10.835   7.110  0.0982 -0.8353  0.2154
  935MOL0     C26119   2.905  10.796   7.134 -1.2626 -0.6013 -0.0158
  935MOL0     O26120   2.995  10.894   7.117 -0.4389  0.4756 -0.4679
  935MOL0     C26121   3.125  10.868   7.122  0.5587 -0.3017 -0.1516
  935MOL0     C26122   3.177  10.804   7.017 -0.3326  0.1063  0.8631
  935MOL0     C26123   3.311  10.767   7.008 -0.2110  0.7196  1.1894
  935MOL0     C26124   3.403  10.788   7.108  0.0599 -0.5330 -0.3164
  935MOL0     O26125   3.532  10.756   7.087 -0.5225  0.9408  0.5716
  935MOL0     C26126   3.566  10.655   7.181 -0.3703  0.4212 -0.0218
  935MOL0     C26127   3.704  10.596   7.174 -0.6985 -0.0146  0.1653
  935MOL0     C26128   3.813  10.708   7.204 -0.2346  0.2218  0.6736
  935MOL0     C26129   3.959  10.660   7.165  1.1359 -0.2348  0.7121
  935MOL0     C26130   4.063  10.776   7.165  0.0434  0.2712  0.1884
  935MOL0     C26131   4.206  10.721   7.169 -0.3131 -0.0006 -0.7321
  935MOL0     C26132   4.234  10.651   7.045 -0.1531  0.4549 -0.7416
  935MOL0     C26133   4.386  10.638   7.019 -0.2143  0.2553 -0.5793
  935MOL0    Cl26134   4.471  10.794   6.969  0.5819  0.1166  0.1298
  935MOL0     C26135   3.352  10.858   7.218  0.2845 -0.9341  0.9654
  935MOL0     C26136   3.214  10.893   7.233 -0.1752  0.0759  1.2581
  935MOL0     O26137   2.931  10.684   7.176 -0.1882 -0.0276  0.0891
  935MOL0     C26138   2.667  10.733   7.097  0.1708  0.3538  0.1944
  935MOL0     C26139   2.532  10.771   7.073 -0.6225 -0.5466 -0.7308
  935MOL0     N26140   1.990  11.153   6.689  0.4348  0.4918 -0.7977
  935MOL0     N26141   1.914  11.209   6.595 -0.2287 -0.1029 -0.3187
  935MOL0     C26142   0.581  11.492   6.692  0.4535  1.0805 -0.2384
  935MOL0     C26143   0.447  11.468   6.732  0.1009 -0.5476 -0.4512
  935MOL0     C26144  -0.006  11.333   6.647  0.3126 -0.7218 -0.5666
  935MOL0     C26145  -0.066  11.456   6.687 -0.1254  0.2124  0.0876
  935MOL0     C26146  -0.204  11.457   6.722  0.3426  0.3333 -1.0597
  935MOL0     C26147  -0.289  11.348   6.707  0.2249  0.6007  0.6168
  935MOL0     O26148  -0.423  11.368   6.731  0.0604 -0.3851  0.9006
  935MOL0     C26149  -0.529  11.300   6.663  0.2093  0.1158 -0.2375
  935MOL0     C26150  -0.652  11.386   6.682 -0.1509  0.2892  0.7056
  935MOL0     C26151  -0.678  11.427   6.826 -0.6228  0.6041 -0.5683
  935MOL0     C26152  -0.807  11.496   6.842  0.0188  0.5530 -0.1388
  935MOL0     C26153  -0.917  11.397   6.826  0.3134 -0.2255 -0.0322
  935MOL0     C26154  -1.017  11.335   6.810 -0.0560 -0.1837  0.5147
  935MOL0     C26155  -0.234  11.225   6.658 -0.2008 -0.0447 -0.6542
  935MOL0     C26156  -0.091  11.224   6.620  1.5004  0.6561 -0.8827
  935MOL0     C26157  -0.048  11.104   6.540  0.1102 -0.7509  0.3110
  935MOL0     H26158   0.302  11.465   6.427  0.9768 -3.1950 -0.1274
  935MOL0     H26159   0.555  11.530   6.367  1.2267 -0.1700  0.1095
  935MOL0     H26160   0.852  11.435   6.662  0.6967  0.9419 -0.6268
  935MOL0     H26161   0.815  11.329   6.520 -3.2341 -0.3352  1.2003
  935MOL0     H26162   0.993  11.575   6.509 -1.6467  1.5558 -1.0107
  935MOL0     H26163   0.932  11.495   6.377  0.6101  1.8257  0.0776
  935MOL0     H26164   1.084  11.305   6.402 -0.8636  0.9452 -1.3730
  935MOL0     H26165   1.068  11.290   6.567  1.4633  0.5108  0.2223
  935MOL0     H26166   1.233  11.499   6.413 -1.5187 -2.1378 -1.2913
  935MOL0     H26167   1.202  11.516   6.594 -0.0281 -0.5365  0.2611
  935MOL0     H26168   1.324  11.297   6.615 -1.2266  1.8936  1.3473
  935MOL0     H26169   1.326  11.286   6.440 -0.8595  0.8153 -0.4713
  935MOL0     H26170   1.498  11.469   6.441  2.9867  0.9871  1.4837
  935MOL0     H26171   1.466  11.513   6.604  0.4706  0.1420  0.2519
  935MOL0     H26172   1.549  11.218   6.550 -0.7571 -0.1423  0.5856
  935MOL0     H26173   1.541  11.311   6.697  2.3531  1.8488  1.4510
  935MOL0     H26174   1.744  11.367   6.474  0.1374 -1.4312  1.1408
  935MOL0     H26175   1.732  11.451   6.615 -0.0811  0.4263 -0.9551
  935MOL0     H26176   1.714  11.227   6.842 -1.5207 -0.3701 -0.4953
  935MOL0     H26177   1.995  11.185   6.988  1.5822 -1.9267  1.1199
  935MOL0     H26178   1.867  11.059   6.983  0.6112 -0.4932  1.1280
  935MOL0     H26179   2.052  10.915   6.857  0.3266  0.5435 -0.9228
  935MOL0     H26180   2.153  11.054   6.879 -1.1458  1.5608 -1.0594
  935MOL0     H26181   2.049  10.905   7.113  0.2676 -0.9431  1.0600
  935MOL0     H26182   2.138  11.056   7.119  1.6225 -2.0543  3.0849
  935MOL0     H26183   2.244  10.818   6.944 -0.4151 -2.5764  0.8000
  935MOL0     H26184   2.244  10.807   7.120 -1.5922 -0.4618  0.0188
  935MOL0     H26185   2.587  11.118   7.077  1.7272  0.0599  2.7832
  935MOL0     H26186   2.810  11.044   7.085  1.3710 -1.1540 -0.0074
  935MOL0     H26187   3.115  10.780   6.932 -0.4723  1.9687  0.3892
  935MOL0     H26188   3.349  10.722   6.917 -0.0078  1.0142  1.1258
  935MOL0     H26189   3.565  10.691   7.284  1.6782  3.3787 -0.9164
  935MOL0     H26190   3.498  10.569   7.171 -2.6124  2.1608 -0.4632
  935MOL0     H26191   3.714  10.516   7.248 -0.2351 -0.1497 -0.0396
  935MOL0     H26192   3.717  10.555   7.074 -3.3424 -0.0035 -0.2491
  935MOL0     H26193   3.786  10.798   7.147 -0.6922  0.3186  1.0424
  935MOL0     H26194   3.811  10.738   7.309  1.1717  2.1442  0.2094
  935MOL0     H26195   3.959  10.623   7.062 -0.6450 -1.1847  1.0085
  935MOL0     H26196   3.987  10.580   7.234  1.2996 -3.4293 -2.7647
  935MOL0     H26197   4.051  10.840   7.252 -0.2368  2.3962 -1.3317
  935MOL0     H26198   4.038  10.843   7.082 -3.4904  0.1852  1.0305
  935MOL0     H26199   4.270  10.809   7.182 -2.4378  1.3450  1.5813
  935MOL0     H26200   4.226  10.652   7.251 -1.9880  0.4321  0.0937
  935MOL0     H26201   4.179  10.695   6.961 -0.8424  0.2869 -0.3832
  935MOL0     H26202   4.180  10.556   7.054 -1.5559  1.3032  0.0189
  935MOL0     H26203   4.434  10.600   7.109 -2.3408 -0.3122  0.3929
  935MOL0     H26204   4.407  10.573   6.934 -1.1427 -4.7557  2.5943
  935MOL0     H26205   3.427  10.878   7.294 -0.4941 -1.2731  1.8412
  935MOL0     H26206   3.174  10.937   7.324 -0.0754 -0.9879  1.8282
  935MOL0     H26207   2.703  10.632   7.116  4.1146  1.4778 -0.4158
  935MOL0     H26208   2.455  10.695   7.060  0.2473 -1.7058  0.5662
  935MOL0     H26209   0.648  11.478   6.776  0.5068  1.6346 -0.1902
  935MOL0     H26210   0.415  11.448   6.834 -2.6269 -1.3714 -1.3663
  935MOL0     H26211  -0.003  11.544   6.704 -0.9361  0.5296  1.6026
  935MOL0     H26212  -0.231  11.549   6.772  1.6546 -0.7399  1.8793
  935MOL0     H26213  -0.537  11.209   6.724 -2.4657  0.5676  0.1878
  935MOL0     H26214  -0.512  11.283   6.556  1.9477  0.5889 -0.0624
  935MOL0     H26215  -0.741  11.334   6.647 -0.4393 -0.0230  1.8562
  935MOL0     H26216  -0.641  11.477   6.623 -3.0817  0.2762 -0.0237
  935MOL0     H26217  -0.595  11.482   6.871 -1.5641  0.2363  1.7555
  935MOL0     H26218  -0.680  11.338   6.889 -0.5709 -0.4933 -2.0498
  935MOL0     H26219  -0.814  11.545   6.939  4.6295  0.9425  0.1976
  935MOL0     H26220  -0.818  11.583   6.776 -0.0159  0.3780 -0.3682
  935MOL0     H26221  -1.107  11.278   6.794 -0.1483 -1.4974  4.5749
  935MOL0     H26222  -0.297  11.138   6.645 -2.8243  1.7812 -0.7734
  935MOL0     H26223   0.042  11.049   6.569 -0.5657 -2.3886 -0.5809
  935MOL0     H26224  -0.123  11.025   6.554 -0.2436 -0.8732 -1.9519
  935MOL0     H26225  -0.043  11.133   6.435  2.7615  1.8252  1.0148
  936MOL0     O26226   4.009   1.563   7.211 -0.2174  0.0623  0.2431
  936MOL0     C26227   3.995   1.671   7.268 -0.4783  0.1895 -0.4144
  936MOL0     O26228   4.102   1.763   7.301  0.7436 -0.0390 -0.0777
  936MOL0     C26229   4.234   1.737   7.252  0.1698 -0.2427 -0.5036
  936MOL0     C26230   4.314   1.851   7.241 -0.4843  1.0116 -0.3416
  936MOL0     C26231   4.441   1.849   7.198 -1.0137  0.3263 -0.2359
  936MOL0     C26232   4.511   1.728   7.177  0.4134  0.7435  0.4485
  936MOL0     O26233   4.638   1.727   7.152 -0.2690 -0.2693 -0.2511
  936MOL0     C26234   4.724   1.807   7.249  0.2285 -1.0016 -0.0757
  936MOL0     C26235   4.863   1.739   7.253 -0.3841  0.8275 -0.8952
  936MOL0     C26236   4.954   1.798   7.360 -0.1993 -0.5095 -0.2288
  936MOL0     C26237   5.045   1.912   7.323  0.3881 -0.1839  0.3981
  936MOL0     C26238   5.116   1.979   7.439 -0.1264 -0.2163 -0.3652
  936MOL0     C26239   5.214   2.083   7.384 -0.5202 -0.1667  0.4327
  936MOL0     C26240   5.278   2.154   7.502  0.2851  0.1994  0.4317
  936MOL0     C26241   5.417   2.112   7.527  0.2835 -0.0875  0.2495
  936MOL0     N26242   5.511   2.179   7.444  0.0139 -0.2048  0.2950
  936MOL0     C26243   5.511   2.194   7.307 -0.4650 -0.2059  0.2288
  936MOL0     C26244   5.637   2.243   7.282  0.2123 -0.0231  0.1668
  936MOL0     C26245   5.701   2.274   7.150 -0.9103  0.1623  0.7233
  936MOL0     C26246   5.853   2.272   7.149  0.4020 -0.3451 -0.2576
  936MOL0     C26247   5.919   2.137   7.142 -0.4506  0.3186 -0.4328
  936MOL0     C26248   6.065   2.150   7.195  0.0651 -0.6472 -0.1293
  936MOL0     O26249   6.137   2.244   7.105 -0.2896  0.1205  0.0489
  936MOL0     C26250   6.273   2.232   7.079 -0.5872 -0.3071  0.0679
  936MOL0     C26251   6.366   2.154   7.149  0.0294  0.5327  0.2311
  936MOL0     C26252   6.493   2.128   7.102  0.1050 -0.5663 -0.0282
  936MOL0     C26253   6.530   2.202   6.987 -0.8169 -0.5985  0.0509
  936MOL0     C26254   6.673   2.180   6.944 -0.4254  0.8541 -0.5920
  936MOL0     O26255   6.725   2.267   6.858  0.0767 -0.5168 -0.0721
  936MOL0     C26256   6.862   2.276   6.863 -0.4103  0.1039  0.9332
  936MOL0     C26257   6.949   2.196   6.792 -0.7607  1.4032  0.4640
  936MOL0     C26258   7.083   2.227   6.788 -0.7873  0.1922  0.0052
  936MOL0     C26259   7.144   2.341   6.857 -0.2313 -0.0021  0.3902
  936MOL0     O26260   7.277   2.361   6.847  0.4136  0.0396  0.3600
  936MOL0     C26261   7.339   2.464   6.932  0.4187 -0.3536  1.2655
  936MOL0     C26262   7.477   2.499   6.879  0.3244  0.3840  0.9337
  936MOL0     C26263   7.470   2.563   6.740 -0.0359  0.3509  0.7805
  936MOL0     C26264   7.600   2.624   6.688  1.0298  0.2265 -0.6136
  936MOL0     C26265   7.711   2.519   6.640  0.6273 -0.5059  0.2511
  936MOL0     C26266   7.849   2.580   6.620  1.0409  0.1268  0.1315
  936MOL0     C26267   7.953   2.482   6.569  0.3410  0.2081  0.2484
  936MOL0     C26268   8.078   2.556   6.536  0.1165  0.1924  0.1352
  936MOL0    Cl26269   8.210   2.435   6.535 -0.1494 -0.1173 -0.5148
  936MOL0     C26270   7.061   2.419   6.935  0.5830 -0.0853 -0.3724
  936MOL0     C26271   6.920   2.385   6.925 -0.4073 -0.1462 -0.3698
  936MOL0     O26272   6.734   2.089   6.997 -0.1612  0.1246  0.0728
  936MOL0     C26273   6.444   2.283   6.917 -0.0992 -0.6387  0.2184
  936MOL0     C26274   6.322   2.295   6.964  0.0294 -0.1198  0.3056
  936MOL0     N26275   5.701   2.275   7.407 -0.1283 -0.4145  0.3591
  936MOL0     N26276   5.620   2.236   7.499  0.1226  0.2909  0.1246
  936MOL0     C26277   4.431   1.616   7.171  0.0254 -0.4879 -0.2363
  936MOL0     C26278   4.294   1.622   7.208 -0.0982 -0.0765 -0.0532
  936MOL0     C26279   3.853   1.706   7.294  0.0559  0.1853  0.0452
  936MOL0     C26280   3.843   1.830   7.365  0.1624  0.9243 -0.1072
  936MOL0     C26281   3.718   1.871   7.398  0.1905 -0.7213 -0.6026
  936MOL0     C26282   3.593   1.811   7.350 -0.0606  0.1295  0.2923
  936MOL0     O26283   3.468   1.862   7.368  0.6048  0.5619 -0.7831
  936MOL0     C26284   3.435   1.962   7.455 -0.2309  0.3065 -0.5497
  936MOL0     C26285   3.290   1.971   7.473  0.1059 -0.1711  0.3319
  936MOL0     C26286   3.207   1.978   7.338 -0.6568 -0.2051 -1.3312
  936MOL0     C26287   3.055   1.998   7.372 -0.3982 -0.0392 -0.5822
  936MOL0     C26288   2.980   1.940   7.257 -0.5876  0.3417  1.1210
  936MOL0     C26289   2.897   1.886   7.178 -0.2981 -0.6568  0.4916
  936MOL0     C26290   3.612   1.701   7.268  0.8531 -0.1123  0.5094
  936MOL0     C26291   3.733   1.645   7.245 -0.6363  0.2740  0.2359
  936MOL0     C26292   3.745   1.518   7.158  1.0153  0.2332  0.7045
  936MOL0     H26293   4.259   1.941   7.265 -0.9946  1.0313 -1.5553
  936MOL0     H26294   4.489   1.945   7.177 -0.3949 -0.1407 -1.0257
  936MOL0     H26295   4.732   1.913   7.223  1.9856 -0.4346  2.3791
  936MOL0     H26296   4.688   1.811   7.353  1.8452  1.9975  0.4880
  936MOL0     H26297   4.910   1.750   7.154 -2.2293 -0.5036 -1.9806
  936MOL0     H26298   4.851   1.636   7.285 -4.2476  1.4662  0.1451
  936MOL0     H26299   5.027   1.722   7.388  0.3796 -0.0107 -0.3563
  936MOL0     H26300   4.887   1.826   7.441 -0.5278 -0.8300 -0.3891
  936MOL0     H26301   5.116   1.886   7.244 -0.0110  1.1125 -0.4034
  936MOL0     H26302   4.979   1.981   7.269 -1.0720 -0.1777  2.1002
  936MOL0     H26303   5.038   2.025   7.501  1.8096  1.6207  0.8901
  936MOL0     H26304   5.176   1.909   7.497  1.7325  1.4408 -0.1556
  936MOL0     H26305   5.287   2.029   7.323 -2.2765 -3.3933  0.9162
  936MOL0     H26306   5.177   2.149   7.305  2.7937 -0.5575 -1.6457
  936MOL0     H26307   5.223   2.135   7.595  3.3210 -4.6748  1.5962
  936MOL0     H26308   5.265   2.262   7.490  2.2043  0.2946 -1.1661
  936MOL0     H26309   5.438   2.126   7.634 -1.8063 -2.6791  1.0849
  936MOL0     H26310   5.424   2.004   7.513  2.9100 -0.0725  0.7417
  936MOL0     H26311   5.436   2.176   7.231  0.4089 -2.2418 -0.2167
  936MOL0     H26312   5.665   2.203   7.076  0.0145  0.9023 -0.4723
  936MOL0     H26313   5.676   2.378   7.128 -0.0360  0.0614 -0.8640
  936MOL0     H26314   5.891   2.328   7.063 -0.3958 -1.3323 -1.2839
  936MOL0     H26315   5.883   2.327   7.238  1.1511 -0.0171 -0.6999
  936MOL0     H26316   5.911   2.095   7.041  0.3888  0.2027 -0.4586
  936MOL0     H26317   5.868   2.060   7.202 -0.1681 -0.3640 -1.0555
  936MOL0     H26318   6.117   2.054   7.198  2.7964  0.2609 -5.3308
  936MOL0     H26319   6.065   2.182   7.300  2.1714 -2.5854  0.5542
  936MOL0     H26320   6.338   2.112   7.245  2.7295  1.4964  1.5488
  936MOL0     H26321   6.566   2.072   7.158  2.3084  0.7124 -1.4712
  936MOL0     H26322   6.916   2.117   6.725  0.6298 -0.5726  1.9992
  936MOL0     H26323   7.132   2.166   6.713  0.6150  1.3194 -0.0337
  936MOL0     H26324   7.284   2.558   6.917 -0.4150 -1.0078  0.0340
  936MOL0     H26325   7.346   2.428   7.035 -0.3130 -0.4027  1.3047
  936MOL0     H26326   7.521   2.572   6.948 -3.8199  2.6487  1.4578
  936MOL0     H26327   7.539   2.411   6.895  1.0157  0.8379  0.8181
  936MOL0     H26328   7.447   2.472   6.684 -0.0250  1.5700 -1.3120
  936MOL0     H26329   7.392   2.639   6.731 -0.8133 -0.5660 -0.5555
  936MOL0     H26330   7.644   2.679   6.771 -2.2966  1.7955  0.2683
  936MOL0     H26331   7.577   2.688   6.602 -0.4302  1.1111  0.3845
  936MOL0     H26332   7.681   2.472   6.546  0.3295  1.4244 -0.6713
  936MOL0     H26333   7.713   2.443   6.719 -1.3689  0.4190  1.2803
  936MOL0     H26334   7.851   2.656   6.541  0.5448  0.4737  0.4481
  936MOL0     H26335   7.891   2.622   6.712  3.1558 -0.4594 -0.5096
  936MOL0     H26336   7.922   2.428   6.479  0.8059 -0.3398  0.4135
  936MOL0     H26337   7.976   2.405   6.643  0.5546  0.5912  0.5797
  936MOL0     H26338   8.074   2.603   6.437  0.1475 -1.5319 -0.7266
  936MOL0     H26339   8.096   2.639   6.606 -0.0561  1.9607 -1.8047
  936MOL0     H26340   7.087   2.510   6.988 -0.9911 -0.2229  0.6914
  936MOL0     H26341   6.846   2.455   6.962 -1.1095  0.0658 -2.0805
  936MOL0     H26342   6.472   2.339   6.829  1.3289 -2.3066 -0.4399
  936MOL0     H26343   6.261   2.348   6.892  1.4503  0.4716 -0.5114
  936MOL0     H26344   4.472   1.518   7.149 -0.2140 -0.8481  0.8506
  936MOL0     H26345   4.239   1.529   7.214 -1.0378  0.0349 -3.9916
  936MOL0     H26346   3.932   1.879   7.403  0.7296 -0.6691  0.7134
  936MOL0     H26347   3.727   1.958   7.462 -0.7434 -1.3198  0.3790
  936MOL0     H26348   3.487   2.056   7.433  1.4563 -0.8021 -1.4816
  936MOL0     H26349   3.470   1.938   7.556  2.3368  1.1104 -1.1915
  936MOL0     H26350   3.265   2.063   7.527 -1.8154 -0.8845  0.7451
  936MOL0     H26351   3.258   1.886   7.534  0.3228 -1.3069 -1.0753
  936MOL0     H26352   3.220   1.877   7.298  1.4391 -0.1608 -0.8512
  936MOL0     H26353   3.247   2.046   7.262 -2.3503  0.8179 -1.3725
  936MOL0     H26354   3.037   1.932   7.457  0.2298 -0.6645 -0.9223
  936MOL0     H26355   3.031   2.104   7.381  0.1709  0.3425 -2.8824
  936MOL0     H26356   2.831   1.854   7.100 -0.4675 -0.7282  0.6636
  936MOL0     H26357   3.521   1.657   7.228 -0.0771  0.9483  1.3579
  936MOL0     H26358   3.647   1.482   7.126  1.3059  1.1397 -1.4072
  936MOL0     H26359   3.805   1.535   7.068  1.2635  0.6932  0.9515
  936MOL0     H26360   3.800   1.438   7.208  0.7048 -0.6216 -0.2660
  937MOL0     O26361   6.010   6.095   6.024  0.1157  0.1857  0.2068
  937MOL0     C26362   5.891   6.122   6.036  0.5056  0.1169  0.3006
  937MOL0     O26363   5.835   6.197   6.131  0.2438 -0.1177  0.1991
  937MOL0     C26364   5.906   6.231   6.243 -0.8338 -0.8261 -0.4617
  937MOL0     C26365   6.002   6.145   6.300 -0.7272 -0.6346  0.6747
  937MOL0     C26366   6.062   6.177   6.417  0.2064 -0.0690 -0.5679
  937MOL0     C26367   6.042   6.305   6.478  0.4273  0.0761 -0.4957
  937MOL0     O26368   6.118   6.335   6.590 -0.4181 -0.5504  0.2670
  937MOL0     C26369   6.113   6.455   6.656  0.0616 -0.6558  0.0028
  937MOL0     C26370   6.248   6.496   6.729  0.1603 -0.2700  0.6056
  937MOL0     C26371   6.360   6.499   6.615  0.3340  0.0657 -0.4747
  937MOL0     C26372   6.508   6.521   6.663 -0.7684 -0.3081  0.1418
  937MOL0     C26373   6.570   6.392   6.701 -0.0955  0.5854  0.0221
  937MOL0     C26374   6.718   6.420   6.749 -0.1101 -0.1548 -0.8821
  937MOL0     C26375   6.736   6.420   6.901 -0.6684 -0.1322  0.4339
  937MOL0     C26376   6.705   6.290   6.972  0.4676  0.0172  0.3666
  937MOL0     N26377   6.788   6.278   7.094  0.3581 -0.3196  1.3858
  937MOL0     C26378   6.912   6.219   7.096 -0.0528  0.5303  0.6732
  937MOL0     C26379   6.968   6.257   7.209 -0.6915  0.7766  0.2554
  937MOL0     C26380   7.102   6.218   7.261  0.3306 -1.0749  0.1620
  937MOL0     C26381   7.209   6.241   7.160 -0.4056 -0.2337 -1.2672
  937MOL0     C26382   7.354   6.224   7.210  0.4283  0.0629  0.3332
  937MOL0     C26383   7.445   6.282   7.098 -0.1930  0.3788 -0.5291
  937MOL0     O26384   7.578   6.215   7.096 -0.4204  0.1171  0.3551
  937MOL0     C26385   7.679   6.273   7.024  0.0898 -0.5895  1.2250
  937MOL0     C26386   7.673   6.377   6.933  0.3836 -0.0534 -0.2738
  937MOL0     C26387   7.785   6.437   6.887  0.0537  0.4721 -0.1369
  937MOL0     C26388   7.914   6.387   6.921 -0.0049  0.1553  0.1668
  937MOL0     C26389   8.037   6.433   6.860  0.1396 -0.7031 -0.8344
  937MOL0     O26390   8.145   6.356   6.886 -0.9261  0.1989 -0.0673
  937MOL0     C26391   8.254   6.386   6.808 -0.2599 -1.0428  0.2201
  937MOL0     C26392   8.359   6.464   6.858 -0.5337  0.1308 -0.1505
  937MOL0     C26393   8.474   6.500   6.778 -0.0982  0.3220 -0.1853
  937MOL0     C26394   8.475   6.458   6.650 -0.4023 -0.7745  0.9151
  937MOL0     O26395   8.588   6.484   6.579  0.1665 -0.2719  1.0880
  937MOL0     C26396   8.683   6.378   6.583 -1.0258 -0.7048 -0.7183
  937MOL0     C26397   8.784   6.399   6.474 -0.4557  0.0879 -0.3391
  937MOL0     C26398   8.875   6.520   6.491 -0.1188  0.9270 -0.1239
  937MOL0     C26399   8.996   6.503   6.401 -0.2782  0.0368 -0.9096
  937MOL0     C26400   9.088   6.616   6.427 -0.4858  0.0429 -0.2316
  937MOL0     C26401   9.211   6.639   6.333 -0.6832 -0.0467  0.5287
  937MOL0     C26402   9.337   6.548   6.352 -0.2170  0.7385  0.5934
  937MOL0     C26403   9.439   6.547   6.235 -0.0861  1.1098 -0.1623
  937MOL0    Cl26404   9.565   6.426   6.261  0.1096  0.0707  0.1951
  937MOL0     C26405   8.374   6.369   6.602 -0.7805 -0.2547 -0.8550
  937MOL0     C26406   8.274   6.332   6.683  0.0378  0.3920 -0.7632
  937MOL0     O26407   8.032   6.539   6.792  0.7720 -0.7568  0.0265
  937MOL0     C26408   7.916   6.279   7.012  0.0322 -0.1459 -0.0238
  937MOL0     C26409   7.798   6.226   7.060 -0.4351 -0.2073  0.1758
  937MOL0     N26410   6.874   6.328   7.283 -1.3607  0.7154 -0.0555
  937MOL0     N26411   6.769   6.349   7.213 -0.5227  0.9498  0.7619
  937MOL0     C26412   5.945   6.382   6.427  0.4048 -0.4920  0.1218
  937MOL0     C26413   5.876   6.347   6.315 -0.8319  0.1304  0.1549
  937MOL0     C26414   5.818   6.081   5.919  0.4885  0.8737  0.4866
  937MOL0     C26415   5.704   6.162   5.893  0.9016 -0.1281  0.0325
  937MOL0     C26416   5.621   6.139   5.788 -0.1803  0.9325 -0.1317
  937MOL0     C26417   5.632   6.028   5.706 -0.1170 -0.3578 -0.7490
  937MOL0     O26418   5.526   6.010   5.623  0.7029 -0.0490  0.1181
  937MOL0     C26419   5.550   5.939   5.501 -0.3328 -0.4665  0.3226
  937MOL0     C26420   5.568   6.038   5.380 -0.2890 -0.6040 -0.6435
  937MOL0     C26421   5.695   6.133   5.402 -0.9423 -0.1643  0.6621
  937MOL0     C26422   5.722   6.209   5.260  0.5771  0.1471 -1.3245
  937MOL0     C26423   5.822   6.307   5.273 -0.6336 -0.2723  0.1028
  937MOL0     C26424   5.897   6.404   5.268  0.2765  0.5332  0.3665
  937MOL0     C26425   5.750   5.950   5.725  0.0803 -0.0474 -1.1347
  937MOL0     C26426   5.848   5.982   5.818 -0.0805  0.0041  0.3823
  937MOL0     C26427   5.984   5.909   5.810 -0.3809 -0.9954 -0.0803
  937MOL0     H26428   6.026   6.052   6.249  2.5971 -0.2688  1.3229
  937MOL0     H26429   6.131   6.103   6.456  0.5420  0.5365  0.0060
  937MOL0     H26430   6.086   6.535   6.586  0.1562 -1.3638 -0.8720
  937MOL0     H26431   6.036   6.437   6.731 -1.3555  3.0090 -0.3936
  937MOL0     H26432   6.270   6.424   6.809 -1.4504 -2.7148 -0.9935
  937MOL0     H26433   6.231   6.596   6.768 -1.6924 -0.9116  1.5150
  937MOL0     H26434   6.339   6.586   6.553 -0.1858  0.5450  0.3605
  937MOL0     H26435   6.349   6.408   6.555  3.0826 -1.0297  0.5218
  937MOL0     H26436   6.570   6.562   6.583 -1.8971  0.8730 -0.1577
  937MOL0     H26437   6.514   6.592   6.746 -2.5495  1.1566 -0.9015
  937MOL0     H26438   6.504   6.336   6.769 -0.5904 -1.8304 -2.2591
  937MOL0     H26439   6.589   6.325   6.616 -0.6081  0.0440  0.3224
  937MOL0     H26440   6.782   6.342   6.707  0.4631  1.0328 -2.2967
  937MOL0     H26441   6.756   6.507   6.697 -0.8265 -1.1826 -3.2463
  937MOL0     H26442   6.678   6.499   6.948  0.9915  2.6591 -1.8760
  937MOL0     H26443   6.840   6.449   6.923 -0.8453  1.1532 -0.3073
  937MOL0     H26444   6.598   6.285   6.993  0.5318  1.6272  1.2770
  937MOL0     H26445   6.737   6.210   6.904 -1.4114 -1.0364  0.6679
  937MOL0     H26446   6.950   6.143   7.029 -2.0674 -0.3888  0.5150
  937MOL0     H26447   7.126   6.279   7.348 -0.8336  0.9225 -0.8596
  937MOL0     H26448   7.109   6.113   7.292  3.0350 -1.1957 -0.5711
  937MOL0     H26449   7.191   6.171   7.077 -1.2246  0.0982 -1.3824
  937MOL0     H26450   7.196   6.345   7.130  0.3166  0.0851 -0.5009
  937MOL0     H26451   7.371   6.116   7.222 -0.4724 -0.3868 -1.9055
  937MOL0     H26452   7.378   6.275   7.303 -1.8056  1.0523  0.4134
  937MOL0     H26453   7.446   6.390   7.114  0.6862  0.0254  2.4579
  937MOL0     H26454   7.404   6.268   6.998 -2.0329  0.7280  0.1364
  937MOL0     H26455   7.580   6.429   6.915 -0.4439 -1.2015  0.5946
  937MOL0     H26456   7.775   6.519   6.817 -2.0937  0.5037  0.1358
  937MOL0     H26457   8.362   6.499   6.960  2.1145 -0.3270  0.0261
  937MOL0     H26458   8.546   6.564   6.828  0.1640 -0.6820  0.7415
  937MOL0     H26459   8.730   6.385   6.682 -1.7181  0.8041 -0.4874
  937MOL0     H26460   8.631   6.282   6.588  0.2974 -1.4984 -1.4448
  937MOL0     H26461   8.845   6.311   6.453 -1.4472 -0.5781 -0.4865
  937MOL0     H26462   8.727   6.430   6.386 -1.3531  3.0109  1.1424
  937MOL0     H26463   8.829   6.613   6.456  1.0679  2.0835  1.2879
  937MOL0     H26464   8.912   6.530   6.593  0.9904 -0.4319 -0.3633
  937MOL0     H26465   8.962   6.495   6.297 -2.7541  0.5935 -0.2052
  937MOL0     H26466   9.053   6.415   6.431 -0.8440  0.1459  0.5813
  937MOL0     H26467   9.132   6.612   6.527 -1.8777  1.0695  0.4635
  937MOL0     H26468   9.030   6.707   6.408 -1.3992 -0.5413 -0.3325
  937MOL0     H26469   9.195   6.650   6.225  0.5005  2.2789  0.5315
  937MOL0     H26470   9.236   6.741   6.364  0.4744 -0.1568  0.0183
  937MOL0     H26471   9.305   6.446   6.375 -3.1318  1.3194 -0.4348
  937MOL0     H26472   9.386   6.593   6.439  2.0919  2.7931 -1.6166
  937MOL0     H26473   9.387   6.507   6.147  0.0183  0.5991  0.0029
  937MOL0     H26474   9.474   6.650   6.222  0.2768  1.4632  2.9655
  937MOL0     H26475   8.392   6.324   6.506 -2.0784 -1.7734 -0.4308
  937MOL0     H26476   8.204   6.254   6.656  1.2838 -0.3264 -2.0660
  937MOL0     H26477   8.006   6.228   7.044 -0.8429 -1.1080  0.9902
  937MOL0     H26478   7.800   6.142   7.128  0.2508 -0.1295  0.2535
  937MOL0     H26479   5.927   6.483   6.464  0.6154 -0.6042  0.5371
  937MOL0     H26480   5.795   6.409   6.278 -2.6279 -1.0000  1.9559
  937MOL0     H26481   5.665   6.244   5.953 -2.6147 -1.8324  0.3469
  937MOL0     H26482   5.531   6.196   5.769  0.5485  2.3076  0.4441
  937MOL0     H26483   5.463   5.874   5.484  1.0587 -2.4374  0.3850
  937MOL0     H26484   5.627   5.862   5.508 -1.5868 -1.8960 -0.8404
  937MOL0     H26485   5.479   6.099   5.362  0.2331 -0.1796 -1.9477
  937MOL0     H26486   5.577   5.977   5.289 -0.4578 -1.9859  0.2396
  937MOL0     H26487   5.783   6.071   5.425 -0.0457  0.0075 -1.9711
  937MOL0     H26488   5.678   6.213   5.475  1.2940 -0.1669  1.2543
  937MOL0     H26489   5.773   6.144   5.188  1.8936 -1.4751  0.9212
  937MOL0     H26490   5.629   6.258   5.231 -0.2841  0.3122  1.4393
  937MOL0     H26491   5.968   6.482   5.247  0.1914  0.6208  0.4040
  937MOL0     H26492   5.780   5.863   5.667 -2.3004 -1.3205 -0.6066
  937MOL0     H26493   6.067   5.979   5.790 -1.6565  1.2418  1.9306
  937MOL0     H26494   6.008   5.863   5.906 -0.5586 -3.4164 -1.1410
  937MOL0     H26495   5.980   5.827   5.738 -2.9454 -1.7456  0.8288
  938MOL0     O26496   0.998   7.724   3.890 -0.0961  0.0363 -0.2112
  938MOL0     C26497   0.922   7.794   3.824 -0.0028 -0.6240 -0.4986
  938MOL0     O26498   0.953   7.908   3.765 -0.4069  0.2991 -0.1161
  938MOL0     C26499   1.089   7.943   3.757 -0.0746  0.3915  0.2062
  938MOL0     C26500   1.111   8.079   3.736  0.5459 -0.5623  0.3147
  938MOL0     C26501   1.236   8.137   3.721 -0.3632 -0.0761  0.9682
  938MOL0     C26502   1.346   8.052   3.726 -0.4737  0.2151 -0.5263
  938MOL0     O26503   1.478   8.083   3.707  0.6901 -0.2555 -0.0970
  938MOL0     C26504   1.525   8.203   3.646 -0.4372  0.1660  0.4969
  938MOL0     C26505   1.664   8.173   3.580 -0.1139 -0.7858 -0.5174
  938MOL0     C26506   1.763   8.116   3.687  0.1926 -0.2937 -0.2787
  938MOL0     C26507   1.897   8.089   3.620  0.4654  0.1183 -0.3813
  938MOL0     C26508   2.001   8.028   3.717  0.0253 -0.0984 -0.0455
  938MOL0     C26509   2.043   8.109   3.841  0.3358  0.1164 -0.1898
  938MOL0     C26510   2.125   8.237   3.810  0.3440  0.5901 -0.7642
  938MOL0     C26511   2.196   8.281   3.936 -0.3217 -0.2389  0.2262
  938MOL0     N26512   2.324   8.219   3.957  0.5833  0.0163  0.4144
  938MOL0     C26513   2.444   8.285   3.976  0.3713 -0.1284  0.0595
  938MOL0     C26514   2.540   8.183   3.996 -0.0890 -0.0994  0.8289
  938MOL0     C26515   2.689   8.213   3.996 -0.5705 -0.1465  0.6378
  938MOL0     C26516   2.764   8.129   3.881  0.8123  0.1979 -0.7755
  938MOL0     C26517   2.910   8.151   3.902  0.0554  0.9466  0.9273
  938MOL0     C26518   2.984   8.061   3.813  0.0861  0.1606  0.5329
  938MOL0     O26519   3.063   7.967   3.890 -0.0554  0.1033  0.2722
  938MOL0     C26520   3.146   7.879   3.823 -0.5088 -0.2998  0.0918
  938MOL0     C26521   3.160   7.867   3.680  0.5690  0.1911 -0.3779
  938MOL0     C26522   3.238   7.767   3.620 -0.2388 -0.3087 -0.0081
  938MOL0     C26523   3.307   7.676   3.699  0.6049 -0.1489 -0.0302
  938MOL0     C26524   3.374   7.563   3.628  0.5529 -0.2616 -0.1528
  938MOL0     O26525   3.325   7.520   3.510  0.9273  0.1994  0.7058
  938MOL0     C26526   3.391   7.446   3.416 -0.0136  0.2603 -0.1855
  938MOL0     C26527   3.330   7.347   3.340  0.1997 -0.7137 -0.6951
  938MOL0     C26528   3.405   7.285   3.243  0.6421 -0.1689  0.0174
  938MOL0     C26529   3.544   7.311   3.234  0.8527  0.2229  0.1851
  938MOL0     O26530   3.633   7.253   3.136 -0.3458 -0.2380 -0.0281
  938MOL0     C26531   3.575   7.257   3.003 -0.0694  0.8353  0.4163
  938MOL0     C26532   3.673   7.321   2.901  0.0603 -0.9407  0.2749
  938MOL0     C26533   3.694   7.471   2.930 -0.3673  0.6811  0.2887
  938MOL0     C26534   3.581   7.563   2.886 -0.1566 -0.0238  0.1271
  938MOL0     C26535   3.618   7.693   2.956  0.8822 -0.1712 -0.5893
  938MOL0     C26536   3.533   7.812   2.907 -0.2203  0.0561  0.3459
  938MOL0     C26537   3.557   7.939   2.985 -0.6796  0.4290 -0.5155
  938MOL0     C26538   3.472   8.056   2.938  0.4828 -0.1484  0.3584
  938MOL0    Cl26539   3.415   8.174   3.065  0.0025  0.4723  0.7303
  938MOL0     C26540   3.601   7.406   3.307  0.1912  0.4392 -0.8055
  938MOL0     C26541   3.523   7.473   3.400 -0.3528  0.5555  0.5720
  938MOL0     O26542   3.481   7.531   3.684 -0.6951 -0.1947 -0.1565
  938MOL0     C26543   3.322   7.699   3.832 -0.1800  0.1709  0.4203
  938MOL0     C26544   3.241   7.797   3.892  0.5082  0.6298 -0.1709
  938MOL0     N26545   2.478   8.059   4.002  0.0968  0.1797  0.3976
  938MOL0     N26546   2.348   8.090   3.993  0.3106 -0.2237  0.2501
  938MOL0     C26547   1.328   7.913   3.753 -0.3904 -0.8088 -0.1896
  938MOL0     C26548   1.201   7.859   3.760 -0.4479  0.5789 -0.3709
  938MOL0     C26549   0.772   7.757   3.817 -0.8372  0.3547  0.0948
  938MOL0     C26550   0.685   7.869   3.811  0.1822 -0.4313  0.0020
  938MOL0     C26551   0.545   7.844   3.803  0.0391 -0.7499  0.0268
  938MOL0     C26552   0.488   7.718   3.815  0.0180  0.4690  0.7093
  938MOL0     O26553   0.354   7.695   3.814 -0.9770  0.2550 -0.0133
  938MOL0     C26554   0.280   7.801   3.754 -0.0237  0.6489 -0.4512
  938MOL0     C26555   0.141   7.744   3.729 -0.0378  0.7307  0.2783
  938MOL0     C26556   0.042   7.850   3.668 -0.2282  0.7005  0.2701
  938MOL0     C26557   0.005   7.970   3.764  0.0702  0.3077 -0.5981
  938MOL0     C26558  -0.105   8.035   3.714  0.9250 -0.6046  0.3995
  938MOL0     C26559  -0.198   8.084   3.658  0.2346 -0.1980  0.0296
  938MOL0     C26560   0.578   7.606   3.821  0.8548  0.4200  0.4345
  938MOL0     C26561   0.716   7.630   3.831  0.0406  0.0399  0.1904
  938MOL0     C26562   0.791   7.506   3.865  0.6725 -0.5179 -0.1996
  938MOL0     H26563   1.025   8.145   3.741 -0.0581 -1.4096  2.8508
  938MOL0     H26564   1.254   8.244   3.717  1.3853 -0.2998  1.9572
  938MOL0     H26565   1.446   8.235   3.577 -0.7037  0.2800  0.8475
  938MOL0     H26566   1.546   8.283   3.717 -0.4418  0.7222 -0.1298
  938MOL0     H26567   1.704   8.261   3.529  1.2693 -0.9418  0.2341
  938MOL0     H26568   1.659   8.095   3.504 -1.3207 -2.7780  1.4834
  938MOL0     H26569   1.729   8.028   3.742  1.9471 -0.6980  0.2246
  938MOL0     H26570   1.790   8.192   3.761 -0.0608 -0.6536  0.1925
  938MOL0     H26571   1.891   8.014   3.540  2.3212  0.4834 -0.9166
  938MOL0     H26572   1.931   8.190   3.595 -0.0005  1.2858  3.1145
  938MOL0     H26573   1.961   7.933   3.753 -1.0008  1.1584  2.2939
  938MOL0     H26574   2.089   8.013   3.654  0.2836  1.0677  0.0287
  938MOL0     H26575   1.955   8.138   3.899  1.6982  4.0173  0.1692
  938MOL0     H26576   2.101   8.043   3.906  0.2003  0.2357  0.0545
  938MOL0     H26577   2.044   8.301   3.774 -1.7054 -0.2494  1.9500
  938MOL0     H26578   2.197   8.202   3.735  2.2605  0.2313  1.1281
  938MOL0     H26579   2.224   8.387   3.935 -1.4441  0.0966 -2.1919
  938MOL0     H26580   2.122   8.278   4.017  2.4939  1.9800  3.1832
  938MOL0     H26581   2.460   8.390   3.953 -2.4877  0.2234 -0.7020
  938MOL0     H26582   2.710   8.319   3.980 -0.5185 -0.3503 -0.7720
  938MOL0     H26583   2.721   8.184   4.097  0.1258  1.8024  1.0220
  938MOL0     H26584   2.750   8.021   3.894 -0.0524  0.1707 -1.7594
  938MOL0     H26585   2.739   8.157   3.778 -0.2856  0.0778 -0.5604
  938MOL0     H26586   2.940   8.136   4.006 -2.7827 -2.1020  1.5041
  938MOL0     H26587   2.924   8.250   3.859 -2.9774  0.5093 -1.4776
  938MOL0     H26588   3.055   8.120   3.755  0.6258 -1.1664 -0.2031
  938MOL0     H26589   2.916   8.005   3.748  1.3875 -1.5618  0.5772
  938MOL0     H26590   3.092   7.929   3.622 -0.0773 -1.2522 -1.2010
  938MOL0     H26591   3.247   7.753   3.513  1.4606  1.6425 -0.1767
  938MOL0     H26592   3.227   7.321   3.363  0.2821 -1.6189 -1.2962
  938MOL0     H26593   3.360   7.204   3.187  2.4354 -0.2975 -1.3227
  938MOL0     H26594   3.554   7.152   2.978  0.2440  0.3554  2.0083
  938MOL0     H26595   3.482   7.314   3.011  0.2025  2.2399 -3.8944
  938MOL0     H26596   3.769   7.269   2.898  0.2350 -0.6496  0.7798
  938MOL0     H26597   3.635   7.310   2.799  0.8443  0.6328 -0.2086
  938MOL0     H26598   3.710   7.490   3.036  2.1529 -3.4353  0.9078
  938MOL0     H26599   3.781   7.506   2.873  0.1235 -0.5904  0.2169
  938MOL0     H26600   3.484   7.535   2.929 -1.7197  3.4060 -0.7868
  938MOL0     H26601   3.571   7.580   2.778  0.3488  2.6501  0.4457
  938MOL0     H26602   3.718   7.730   2.935  0.7875  1.3476  1.3887
  938MOL0     H26603   3.613   7.679   3.065  2.6596 -0.7189 -0.5502
  938MOL0     H26604   3.562   7.827   2.802 -0.6207  1.6295  0.4433
  938MOL0     H26605   3.428   7.784   2.904 -0.2743  0.1064  1.5640
  938MOL0     H26606   3.663   7.964   2.985 -1.1030  2.3973 -0.2581
  938MOL0     H26607   3.525   7.920   3.088  1.0105 -0.6291 -0.1606
  938MOL0     H26608   3.528   8.114   2.865  0.5820 -0.3437  0.2803
  938MOL0     H26609   3.382   8.023   2.886 -2.3352  3.1542  2.6047
  938MOL0     H26610   3.707   7.429   3.298  0.6219 -0.2366  1.6778
  938MOL0     H26611   3.577   7.552   3.451  5.0634 -2.0119 -0.3494
  938MOL0     H26612   3.384   7.639   3.898 -0.0971  0.5773  0.7176
  938MOL0     H26613   3.242   7.804   4.000 -0.6007  1.3365 -0.2025
  938MOL0     H26614   1.416   7.852   3.772 -0.1287 -0.2924  0.2679
  938MOL0     H26615   1.200   7.754   3.785 -0.6293  0.4361 -0.9678
  938MOL0     H26616   0.725   7.970   3.811 -1.0910  0.0865  0.4946
  938MOL0     H26617   0.482   7.932   3.807  0.8265 -0.1937  3.4890
  938MOL0     H26618   0.324   7.839   3.661 -1.0596  0.4962 -1.0127
  938MOL0     H26619   0.267   7.886   3.821 -2.6233 -0.1993  0.2542
  938MOL0     H26620   0.091   7.708   3.819 -0.6885 -1.0346 -0.7375
  938MOL0     H26621   0.140   7.657   3.663  0.6672  0.6421  0.3796
  938MOL0     H26622  -0.044   7.783   3.653  0.3352  0.1939 -0.8271
  938MOL0     H26623   0.081   7.883   3.572  1.3510 -2.5782 -0.3622
  938MOL0     H26624  -0.015   7.937   3.867 -1.1140 -0.6459 -1.1063
  938MOL0     H26625   0.087   8.041   3.776  0.4037 -0.3032  1.0319
  938MOL0     H26626  -0.271   8.126   3.593 -0.2550 -1.1437 -0.0523
  938MOL0     H26627   0.542   7.506   3.842  1.4467  0.4317  1.5916
  938MOL0     H26628   0.785   7.481   3.971  1.9400  0.5023  0.1342
  938MOL0     H26629   0.764   7.421   3.802 -1.4975 -0.5238  0.6407
  938MOL0     H26630   0.897   7.516   3.839  0.8106  0.8834  0.8244
  939MOL0     O26631   2.111   4.777   8.497  0.1857 -0.5736 -0.1820
  939MOL0     C26632   2.133   4.894   8.457 -0.6285  0.0827  0.4284
  939MOL0     O26633   2.248   4.963   8.477  0.1403  0.1692  0.2653
  939MOL0     C26634   2.363   4.890   8.500 -0.2595  0.1001 -0.2956
  939MOL0     C26635   2.426   4.888   8.621  0.5282 -0.1727 -0.5734
  939MOL0     C26636   2.543   4.816   8.639  0.8974  0.1914  0.3381
  939MOL0     C26637   2.589   4.728   8.539 -0.3048 -0.1531  0.1731
  939MOL0     O26638   2.698   4.651   8.572 -0.2819 -0.6414 -0.4189
  939MOL0     C26639   2.779   4.591   8.460 -0.9518  0.6625 -0.1299
  939MOL0     C26640   2.885   4.510   8.528 -0.1189 -0.0164  1.0110
  939MOL0     C26641   3.010   4.461   8.448  1.3111 -0.1961  0.1375
  939MOL0     C26642   3.131   4.449   8.537 -0.0405  0.2660  0.4739
  939MOL0     C26643   3.238   4.358   8.465 -0.1189  0.4931  0.1283
  939MOL0     C26644   3.367   4.348   8.540 -0.3757  0.5915 -0.2604
  939MOL0     C26645   3.451   4.241   8.474 -0.2696  0.6020 -0.3539
  939MOL0     C26646   3.580   4.226   8.555  1.0737  0.9520 -0.1059
  939MOL0     N26647   3.664   4.120   8.491 -0.0067  0.5499  0.5067
  939MOL0     C26648   3.700   4.103   8.359  0.2117 -1.0933  0.6936
  939MOL0     C26649   3.769   3.988   8.357  0.5352  0.6060 -0.1360
  939MOL0     C26650   3.821   3.925   8.230 -0.0051 -0.4189  0.9048
  939MOL0     C26651   3.949   3.993   8.171  0.0301 -0.3057  0.8850
  939MOL0     C26652   4.065   3.976   8.268 -0.5480  0.1167 -0.0393
  939MOL0     C26653   4.095   3.827   8.309 -0.5758 -0.2574  0.2635
  939MOL0     O26654   4.091   3.734   8.197 -0.2056  0.3217  0.8818
  939MOL0     C26655   4.212   3.714   8.131  0.0190 -0.5061 -0.0420
  939MOL0     C26656   4.335   3.714   8.191 -0.8562  0.3030  0.1402
  939MOL0     C26657   4.448   3.664   8.117 -0.4335 -1.0477  0.0532
  939MOL0     C26658   4.449   3.643   7.979  0.3040 -0.0459  0.2780
  939MOL0     C26659   4.580   3.607   7.904 -0.8075 -0.2310  0.2671
  939MOL0     O26660   4.574   3.563   7.772  0.7077  0.4385 -0.0883
  939MOL0     C26661   4.690   3.522   7.715  0.1603  0.3228 -0.6071
  939MOL0     C26662   4.692   3.414   7.627  0.3745  0.7045  0.1330
  939MOL0     C26663   4.802   3.393   7.537  0.2221 -1.1775 -0.2293
  939MOL0     C26664   4.913   3.478   7.542  0.3489  0.4904 -0.0139
  939MOL0     O26665   5.028   3.474   7.462  0.0063 -0.6592 -0.3584
  939MOL0     C26666   5.038   3.353   7.379 -0.3898 -0.3294 -0.0783
  939MOL0     C26667   5.174   3.318   7.330  0.9595 -0.2943 -0.5378
  939MOL0     C26668   5.200   3.404   7.198 -0.7398  0.1525  1.2472
  939MOL0     C26669   5.328   3.370   7.136 -0.5436  1.0464  0.1967
  939MOL0     C26670   5.341   3.443   7.000 -0.5928  0.9447  0.1344
  939MOL0     C26671   5.487   3.434   6.946 -0.5413 -0.1859 -0.1455
  939MOL0     C26672   5.516   3.536   6.831  0.7746  0.2778  0.5026
  939MOL0     C26673   5.666   3.551   6.818 -0.4942 -0.0581 -0.0586
  939MOL0    Cl26674   5.738   3.397   6.755  0.1215 -0.4953  0.3028
  939MOL0     C26675   4.903   3.594   7.617  0.3344  0.2872 -0.3601
  939MOL0     C26676   4.787   3.620   7.688  0.0621 -1.0346 -0.7620
  939MOL0     O26677   4.686   3.597   7.973 -0.1019 -0.3996  0.1603
  939MOL0     C26678   4.325   3.651   7.919  0.9011 -0.4028 -0.1514
  939MOL0     C26679   4.205   3.683   7.996  0.3020 -1.0232  0.4769
  939MOL0     N26680   3.774   3.937   8.483  0.1721  0.5056 -0.3436
  939MOL0     N26681   3.712   4.019   8.557  0.2191  0.9083  0.0541
  939MOL0     C26682   2.524   4.727   8.423  0.2520  0.1237 -0.1655
  939MOL0     C26683   2.412   4.802   8.402 -0.5829 -0.1121 -0.6424
  939MOL0     C26684   2.022   4.961   8.393 -0.6165  0.1285 -0.9441
  939MOL0     C26685   2.027   5.099   8.411 -1.8603 -0.9196 -0.1173
  939MOL0     C26686   1.923   5.177   8.364 -0.1720 -0.4541  0.1900
  939MOL0     C26687   1.830   5.132   8.273  0.9906 -0.1897  0.3690
  939MOL0     O26688   1.726   5.198   8.218  0.2380  0.0599  0.7111
  939MOL0     C26689   1.649   5.280   8.308  0.4827 -0.2090 -0.1499
  939MOL0     C26690   1.503   5.313   8.249 -0.3174  0.7279 -0.0385
  939MOL0     C26691   1.500   5.357   8.099 -1.1141  1.0013 -0.1120
  939MOL0     C26692   1.591   5.483   8.074  0.0013 -0.4219 -0.2718
  939MOL0     C26693   1.543   5.601   8.148 -0.2004 -0.4667 -0.4519
  939MOL0     C26694   1.490   5.692   8.211  0.0189  0.0482  0.3250
  939MOL0     C26695   1.835   4.995   8.240  0.3097 -0.3576  0.3810
  939MOL0     C26696   1.931   4.914   8.302  0.6930  0.2269 -0.1491
  939MOL0     C26697   1.928   4.768   8.261 -0.0573  0.6335 -0.0297
  939MOL0     H26698   2.386   4.954   8.696  1.0321 -0.4114 -0.0802
  939MOL0     H26699   2.602   4.824   8.730  3.3676  0.8693 -1.2271
  939MOL0     H26700   2.724   4.533   8.385 -0.2506 -1.4528  0.9438
  939MOL0     H26701   2.841   4.664   8.407  3.2075 -2.8958 -0.6748
  939MOL0     H26702   2.831   4.423   8.566  0.3018  0.5001  2.8930
  939MOL0     H26703   2.919   4.561   8.619 -1.0676 -0.9723  1.9262
  939MOL0     H26704   3.041   4.533   8.372 -2.3167  1.3477 -0.0870
  939MOL0     H26705   2.983   4.365   8.403 -0.3667  0.9252 -1.3948
  939MOL0     H26706   3.168   4.549   8.559 -0.2614  0.4921 -0.1422
  939MOL0     H26707   3.099   4.402   8.631  1.3759  0.5277  1.1005
  939MOL0     H26708   3.195   4.261   8.439 -1.0559  1.1853 -0.9635
  939MOL0     H26709   3.248   4.398   8.364 -0.6310  1.6615  0.5134
  939MOL0     H26710   3.419   4.445   8.541 -0.3692  0.6154 -1.3439
  939MOL0     H26711   3.350   4.312   8.642 -0.2910 -2.4076 -1.2378
  939MOL0     H26712   3.474   4.254   8.368  1.7922 -3.2282 -0.5621
  939MOL0     H26713   3.395   4.148   8.487 -0.9659  1.0087 -0.4202
  939MOL0     H26714   3.629   4.324   8.554 -1.3134  2.3090 -4.2921
  939MOL0     H26715   3.553   4.200   8.658  0.9532  1.2128 -0.0704
  939MOL0     H26716   3.684   4.174   8.278  0.7421 -1.4640  0.2627
  939MOL0     H26717   3.839   3.817   8.230  1.3120 -0.3806 -3.1626
  939MOL0     H26718   3.741   3.936   8.157  1.0714  2.0282 -0.0091
  939MOL0     H26719   3.977   3.954   8.072  3.3059  0.7175  1.3069
  939MOL0     H26720   3.936   4.100   8.157  1.3575 -0.1655  0.5971
  939MOL0     H26721   4.047   4.034   8.359  0.0392  1.4092 -0.7186
  939MOL0     H26722   4.159   4.014   8.226 -0.4116  0.7781  0.8449
  939MOL0     H26723   4.027   3.798   8.390 -1.0262  1.2837  0.4762
  939MOL0     H26724   4.192   3.831   8.359 -0.3894 -3.7693  0.4401
  939MOL0     H26725   4.354   3.746   8.293  0.4205 -0.1472  0.0682
  939MOL0     H26726   4.537   3.663   8.179  0.2132 -0.2989 -0.8385
  939MOL0     H26727   4.607   3.346   7.619 -0.0952  0.7590  3.3708
  939MOL0     H26728   4.780   3.324   7.456  0.5249  0.6870 -1.9969
  939MOL0     H26729   4.998   3.266   7.433  0.2104  0.4977  1.7566
  939MOL0     H26730   4.977   3.371   7.290  2.1419  1.3476 -1.5629
  939MOL0     H26731   5.243   3.341   7.411 -0.4197  1.6074  0.1946
  939MOL0     H26732   5.188   3.214   7.299  0.2361 -0.3071 -0.8535
  939MOL0     H26733   5.126   3.393   7.118  1.3122  0.7998 -0.8392
  939MOL0     H26734   5.206   3.511   7.221  0.4479  0.6460 -1.0944
  939MOL0     H26735   5.347   3.263   7.130 -1.4258  0.9163 -0.4892
  939MOL0     H26736   5.407   3.412   7.199 -0.4132 -1.7123  2.0438
  939MOL0     H26737   5.305   3.546   7.009 -1.9017  0.6368 -1.0004
  939MOL0     H26738   5.278   3.392   6.926 -0.4732  0.9602  0.0229
  939MOL0     H26739   5.553   3.469   7.026  2.6629  0.9610 -3.0491
  939MOL0     H26740   5.508   3.335   6.906 -0.3716 -0.3208  0.2675
  939MOL0     H26741   5.475   3.635   6.853  0.9830  0.4561  0.1032
  939MOL0     H26742   5.466   3.527   6.735 -0.2907  2.7660  0.7622
  939MOL0     H26743   5.688   3.625   6.741  1.2513 -1.9873 -1.5259
  939MOL0     H26744   5.715   3.569   6.915 -0.2013  0.2030 -0.2543
  939MOL0     H26745   4.979   3.670   7.602  0.1174  0.3737 -1.0642
  939MOL0     H26746   4.773   3.714   7.741  0.3513 -0.7613 -1.1736
  939MOL0     H26747   4.328   3.623   7.814 -0.4402  1.4707 -0.7522
  939MOL0     H26748   4.115   3.678   7.937  1.3763  2.5427 -1.7468
  939MOL0     H26749   2.563   4.672   8.338  1.4815  1.6476 -0.6508
  939MOL0     H26750   2.367   4.795   8.303  0.0549 -1.8694 -0.8397
  939MOL0     H26751   2.080   5.155   8.488 -1.3871  3.9692 -3.5235
  939MOL0     H26752   1.923   5.285   8.378  2.5241  0.2038 -3.4337
  939MOL0     H26753   1.701   5.376   8.309  2.9977 -1.4853 -1.1106
  939MOL0     H26754   1.650   5.257   8.415  0.9299 -0.2022 -0.1511
  939MOL0     H26755   1.450   5.394   8.301  1.7441  2.2453 -0.1816
  939MOL0     H26756   1.446   5.220   8.244 -0.4595  0.7692  0.6237
  939MOL0     H26757   1.398   5.376   8.063 -0.0298  3.0327 -2.3845
  939MOL0     H26758   1.548   5.281   8.036 -3.2656 -0.0319 -0.5977
  939MOL0     H26759   1.693   5.461   8.107 -0.9917  0.2380  3.7598
  939MOL0     H26760   1.603   5.508   7.968  4.9657 -1.1655 -0.1232
  939MOL0     H26761   1.428   5.752   8.275 -0.1863 -1.4845  1.6309
  939MOL0     H26762   1.756   4.955   8.177 -0.2803  0.8257  0.3323
  939MOL0     H26763   2.025   4.748   8.215  0.2186  0.8287  0.4552
  939MOL0     H26764   1.914   4.698   8.345 -0.2754 -0.2534 -0.7910
  939MOL0     H26765   1.854   4.738   8.186  0.1976  1.2962 -0.5477
  940MOL0     O26766   2.535   5.028   3.792  0.3688  0.4016 -0.0525
  940MOL0     C26767   2.478   4.926   3.834  0.0378 -0.3070 -0.5518
  940MOL0     O26768   2.539   4.812   3.857 -0.1760 -0.4265  0.2774
  940MOL0     C26769   2.673   4.821   3.818  0.4158  0.0712  0.4127
  940MOL0     C26770   2.784   4.852   3.899  0.1902  0.0057  0.1932
  940MOL0     C26771   2.917   4.850   3.843 -0.9756  0.0221  0.6309
  940MOL0     C26772   2.939   4.824   3.708  0.0175  0.0952 -1.0787
  940MOL0     O26773   3.072   4.796   3.678 -0.1941 -0.0690  0.2140
  940MOL0     C26774   3.101   4.817   3.539  0.0376  0.6371  0.7706
  940MOL0     C26775   3.245   4.835   3.530  0.2230 -0.1883  1.1211
  940MOL0     C26776   3.332   4.723   3.587 -0.3530  0.9347 -0.1771
  940MOL0     C26777   3.475   4.760   3.641 -0.4707 -0.1869  0.5416
  940MOL0     C26778   3.585   4.649   3.635 -0.7114  0.2517  0.1960
  940MOL0     C26779   3.728   4.693   3.682  0.8363  0.4879  1.2268
  940MOL0     C26780   3.829   4.593   3.631 -0.7129 -0.3791  0.2877
  940MOL0     C26781   3.877   4.642   3.495 -0.0457  0.4895 -1.1414
  940MOL0     N26782   4.010   4.705   3.504  0.2906 -0.7119 -0.6277
  940MOL0     C26783   4.033   4.841   3.505 -0.0360 -1.1237 -0.0364
  940MOL0     C26784   4.168   4.843   3.490  0.5955 -0.4107  0.9921
  940MOL0     C26785   4.254   4.975   3.502  0.5166 -0.0998  0.2229
  940MOL0     C26786   4.362   4.951   3.613 -1.4381 -0.4738 -0.4354
  940MOL0     C26787   4.462   5.067   3.616  0.2971  0.2658  0.2661
  940MOL0     C26788   4.574   5.033   3.721  0.3939 -0.0625  1.1078
  940MOL0     O26789   4.670   5.142   3.723 -0.6960  0.8273 -0.6946
  940MOL0     C26790   4.793   5.127   3.663  0.1183 -0.6385 -0.1390
  940MOL0     C26791   4.827   5.029   3.568 -0.1691  0.2384 -0.3937
  940MOL0     C26792   4.956   5.014   3.520  0.3094 -0.5611 -1.2166
  940MOL0     C26793   5.061   5.096   3.574  0.4855 -0.2350 -0.2439
  940MOL0     C26794   5.202   5.098   3.524 -0.0290  0.6038 -0.7697
  940MOL0     O26795   5.313   5.140   3.598 -0.5668 -0.6669 -0.5117
  940MOL0     C26796   5.438   5.167   3.551 -0.1920 -1.0333 -0.0086
  940MOL0     C26797   5.533   5.219   3.648  0.3292  0.4243  0.4134
  940MOL0     C26798   5.669   5.245   3.617 -0.0634 -0.3345  0.5960
  940MOL0     C26799   5.719   5.226   3.488  0.0345 -0.0663  0.1393
  940MOL0     O26800   5.855   5.242   3.458  0.5972 -0.3974 -0.3857
  940MOL0     C26801   5.929   5.343   3.526 -0.3150 -0.3534 -0.0177
  940MOL0     C26802   6.041   5.391   3.434  0.3087 -0.3027 -0.4599
  940MOL0     C26803   6.131   5.283   3.370 -0.3633 -1.2007 -0.3515
  940MOL0     C26804   6.235   5.358   3.283 -0.8916 -0.2984 -0.2953
  940MOL0     C26805   6.342   5.257   3.242 -0.3716  0.1984  0.6320
  940MOL0     C26806   6.440   5.290   3.125  0.6226  0.5902 -0.1433
  940MOL0     C26807   6.538   5.401   3.161  0.5052  0.2468  0.2884
  940MOL0     C26808   6.628   5.378   3.283  1.2326  0.0576 -0.5083
  940MOL0    Cl26809   6.719   5.231   3.277  0.5933 -0.0330  0.6178
  940MOL0     C26810   5.631   5.189   3.387  0.2458 -0.1995 -0.0677
  940MOL0     C26811   5.494   5.163   3.422  0.0553 -0.1080  0.9370
  940MOL0     O26812   5.213   5.035   3.420  0.0357 -0.7261  0.1587
  940MOL0     C26813   5.024   5.196   3.671  0.1784 -0.3336  0.8775
  940MOL0     C26814   4.890   5.215   3.706  0.0076  0.1850  0.2380
  940MOL0     N26815   4.217   4.716   3.483 -0.0476  0.3585 -0.1164
  940MOL0     N26816   4.114   4.635   3.476  0.0459  0.1913  0.1293
  940MOL0     C26817   2.822   4.790   3.631 -0.2620 -0.6651  0.4389
  940MOL0     C26818   2.692   4.783   3.684  0.3282 -0.4374  0.5700
  940MOL0     C26819   2.333   4.933   3.834  0.1648  0.2699  0.1799
  940MOL0     C26820   2.272   5.034   3.764  0.2501  0.5911  0.4036
  940MOL0     C26821   2.133   5.049   3.753  0.5820  0.6926  0.5089
  940MOL0     C26822   2.050   4.968   3.821  0.2896 -1.2193  0.2064
  940MOL0     O26823   1.916   4.986   3.830 -0.2130  0.0538  0.1293
  940MOL0     C26824   1.846   5.056   3.731  0.2992  0.2690  0.5934
  940MOL0     C26825   1.696   5.034   3.747  1.1349 -0.9968 -0.3310
  940MOL0     C26826   1.613   5.080   3.632  0.1817  0.0421  0.6714
  940MOL0     C26827   1.600   5.233   3.602 -0.1280 -0.7556 -0.0607
  940MOL0     C26828   1.522   5.304   3.699  0.1668 -0.2025 -0.4175
  940MOL0     C26829   1.443   5.362   3.772 -0.0713  0.5017  0.6415
  940MOL0     C26830   2.108   4.864   3.893  0.6477 -0.6932  0.0281
  940MOL0     C26831   2.241   4.844   3.904 -1.2087  0.0569  0.4699
  940MOL0     C26832   2.288   4.732   4.000 -0.3946 -0.2259  0.3054
  940MOL0     H26833   2.761   4.866   4.004 -1.9952 -4.3097  0.5046
  940MOL0     H26834   3.001   4.860   3.912  0.0994 -0.2562 -0.5905
  940MOL0     H26835   3.077   4.722   3.492 -0.7033  0.9081  0.5924
  940MOL0     H26836   3.044   4.902   3.501 -1.8184  0.7166  3.4781
  940MOL0     H26837   3.274   4.930   3.576 -0.3628  1.8401 -2.3172
  940MOL0     H26838   3.274   4.848   3.425  2.5014 -2.3469  1.3928
  940MOL0     H26839   3.355   4.651   3.508  1.2043  2.9555 -1.6886
  940MOL0     H26840   3.290   4.676   3.676 -0.1296 -1.0007 -1.0345
  940MOL0     H26841   3.515   4.848   3.589 -0.8922  1.0971  2.2839
  940MOL0     H26842   3.461   4.807   3.739  1.4116 -0.5662  1.0358
  940MOL0     H26843   3.552   4.566   3.697 -0.8675 -0.2963 -0.6126
  940MOL0     H26844   3.586   4.611   3.533  0.6248  0.2702  0.1851
  940MOL0     H26845   3.756   4.794   3.648  0.0557 -0.0027 -1.0490
  940MOL0     H26846   3.722   4.701   3.791 -0.9546  4.3985  1.0290
  940MOL0     H26847   3.791   4.491   3.627  0.0427 -0.6292 -0.9530
  940MOL0     H26848   3.913   4.611   3.699  0.7582  1.4067 -1.8545
  940MOL0     H26849   3.874   4.562   3.420 -0.3618  0.1564 -0.7786
  940MOL0     H26850   3.815   4.720   3.450 -0.0557  1.2203  0.0931
  940MOL0     H26851   3.966   4.926   3.512  0.8338 -0.4280  0.0517
  940MOL0     H26852   4.291   5.005   3.403 -1.4448  0.2181 -0.4488
  940MOL0     H26853   4.199   5.058   3.548  1.3363  0.1003  0.8666
  940MOL0     H26854   4.325   4.934   3.715 -1.3275  0.3914 -0.2422
  940MOL0     H26855   4.422   4.863   3.588 -0.1594 -0.2796  1.7111
  940MOL0     H26856   4.418   5.160   3.653 -0.4626  0.4621 -1.0979
  940MOL0     H26857   4.500   5.071   3.514 -1.2318  1.0800 -0.2947
  940MOL0     H26858   4.612   4.935   3.688 -2.1572 -0.9563  0.6142
  940MOL0     H26859   4.513   5.015   3.811 -0.8653  0.9258  0.4732
  940MOL0     H26860   4.747   4.969   3.525 -1.2226  1.0670  0.3466
  940MOL0     H26861   4.985   4.937   3.448  0.2852 -2.3459  0.5866
  940MOL0     H26862   5.493   5.239   3.746 -0.6562  1.9216 -0.2717
  940MOL0     H26863   5.740   5.261   3.697  0.6059 -0.3264  0.0044
  940MOL0     H26864   5.858   5.421   3.551 -0.9399 -1.5282  2.1544
  940MOL0     H26865   5.973   5.284   3.608 -1.1432 -0.5413  0.3035
  940MOL0     H26866   5.997   5.454   3.356  1.9890  0.2040 -1.0446
  940MOL0     H26867   6.104   5.454   3.498  0.5213  2.6504 -3.3396
  940MOL0     H26868   6.189   5.239   3.451  2.4693  0.4612 -1.3237
  940MOL0     H26869   6.071   5.207   3.319 -3.5138 -0.7977  2.3848
  940MOL0     H26870   6.285   5.438   3.338  0.3360 -0.0292 -1.7345
  940MOL0     H26871   6.203   5.398   3.187 -2.0515  1.0428  0.6053
  940MOL0     H26872   6.299   5.160   3.217 -3.2275  1.6721 -0.5926
  940MOL0     H26873   6.400   5.243   3.334  2.1872 -2.9688 -1.2551
  940MOL0     H26874   6.494   5.199   3.097 -1.9153 -0.0953 -3.3205
  940MOL0     H26875   6.371   5.318   3.045 -1.5118  0.7188  1.6655
  940MOL0     H26876   6.482   5.493   3.172 -1.8093 -1.0568 -0.0367
  940MOL0     H26877   6.609   5.408   3.078 -1.6397 -0.8986 -1.7433
  940MOL0     H26878   6.697   5.462   3.289  1.9905 -0.6604  2.3385
  940MOL0     H26879   6.567   5.381   3.373  3.1730  1.8337  0.8202
  940MOL0     H26880   5.675   5.184   3.289  1.9924  1.4723  0.5812
  940MOL0     H26881   5.430   5.135   3.339 -1.2100 -0.1480  1.8759
  940MOL0     H26882   5.105   5.253   3.717  0.6305 -0.4862  0.2861
  940MOL0     H26883   4.851   5.294   3.769  1.7871 -0.5694  2.4056
  940MOL0     H26884   2.835   4.775   3.524  0.1306  0.1737  0.3650
  940MOL0     H26885   2.603   4.760   3.626  2.9666 -1.8955 -3.2998
  940MOL0     H26886   2.333   5.105   3.709 -0.1821 -0.5949 -1.7147
  940MOL0     H26887   2.100   5.134   3.693  0.1281  0.4175  0.3671
  940MOL0     H26888   1.889   5.039   3.631 -1.5730  1.5008 -0.4760
  940MOL0     H26889   1.871   5.161   3.750  2.2182  0.0685 -0.5081
  940MOL0     H26890   1.655   5.076   3.840 -0.6111  0.7670 -1.8210
  940MOL0     H26891   1.690   4.924   3.749 -1.9009 -0.9196 -0.7088
  940MOL0     H26892   1.515   5.033   3.645  0.9637 -1.9459 -0.1203
  940MOL0     H26893   1.663   5.041   3.542 -1.6901  0.5365 -0.6506
  940MOL0     H26894   1.697   5.278   3.579 -0.7726 -0.1428 -1.7270
  940MOL0     H26895   1.544   5.243   3.509  0.8500 -1.8120 -0.7913
  940MOL0     H26896   1.373   5.422   3.827 -0.8262  0.5464 -0.3459
  940MOL0     H26897   2.032   4.807   3.946 -0.7449  1.0636 -0.0033
  940MOL0     H26898   2.364   4.668   3.955  1.0639  1.1778  0.6781
  940MOL0     H26899   2.335   4.772   4.090 -0.9421  3.0686 -0.7453
  940MOL0     H26900   2.197   4.684   4.037 -1.4250  0.7809 -0.8459
  941MOL0     O26901   0.939   7.655   1.240  0.1602  0.0437 -0.0198
  941MOL0     C26902   0.893   7.775   1.256 -1.0564  0.1432 -0.0211
  941MOL0     O26903   0.963   7.891   1.232 -0.1276 -0.3517  0.3757
  941MOL0     C26904   1.096   7.873   1.199  0.7411 -0.2279 -0.5798
  941MOL0     C26905   1.132   7.820   1.080  0.7693 -0.0668 -1.2165
  941MOL0     C26906   1.265   7.821   1.051  0.1064 -0.3701 -0.4771
  941MOL0     C26907   1.364   7.884   1.125  0.0994 -1.1340  0.4338
  941MOL0     O26908   1.494   7.878   1.078  0.0384  0.6969 -0.5186
  941MOL0     C26909   1.596   7.951   1.147  1.1581 -0.3376  0.0718
  941MOL0     C26910   1.728   7.945   1.074  0.3319  0.7668 -0.3230
  941MOL0     C26911   1.839   8.013   1.143  0.5747 -0.2431 -0.2365
  941MOL0     C26912   1.966   7.976   1.065 -0.3366  0.0194 -0.4664
  941MOL0     C26913   2.087   8.055   1.101  0.3884 -0.3616  0.3329
  941MOL0     C26914   2.096   8.195   1.041 -0.6741  0.1338 -1.0257
  941MOL0     C26915   2.245   8.227   1.010 -0.3062  0.7333 -0.3023
  941MOL0     C26916   2.276   8.165   0.871 -0.1810  0.1262  0.5442
  941MOL0     N26917   2.411   8.207   0.831 -0.5371 -0.2442  0.1735
  941MOL0     C26918   2.457   8.233   0.701  0.7380 -0.5122 -0.3362
  941MOL0     C26919   2.575   8.283   0.715 -0.5533 -0.4784  0.4370
  941MOL0     C26920   2.658   8.339   0.594 -0.2918  0.4376 -0.4657
  941MOL0     C26921   2.784   8.259   0.571  0.2752 -0.6346  0.3967
  941MOL0     C26922   2.873   8.343   0.480  0.4388  0.2096  0.0561
  941MOL0     C26923   2.984   8.266   0.429 -0.2496  0.6131 -0.3645
  941MOL0     O26924   3.058   8.353   0.333  0.4101 -1.0467  0.2667
  941MOL0     C26925   3.147   8.450   0.374 -0.4296 -0.7705 -0.0831
  941MOL0     C26926   3.162   8.493   0.505 -0.3818 -0.2865 -0.3657
  941MOL0     C26927   3.251   8.604   0.526 -0.7085  1.1811 -0.1323
  941MOL0     C26928   3.332   8.657   0.427 -0.2129 -0.1087 -0.6712
  941MOL0     C26929   3.437   8.756   0.459  0.0288  0.2793  0.6610
  941MOL0     O26930   3.467   8.760   0.590 -0.4746 -0.4132 -0.1284
  941MOL0     C26931   3.576   8.830   0.631  0.3504  0.3917 -0.4914
  941MOL0     C26932   3.695   8.836   0.558  0.2147  0.7574 -0.7255
  941MOL0     C26933   3.815   8.870   0.622 -0.2459  1.0057  0.1615
  941MOL0     C26934   3.815   8.924   0.754 -0.4282 -0.6380  0.1742
  941MOL0     O26935   3.930   8.957   0.825  0.9015  1.2635  0.2935
  941MOL0     C26936   4.042   8.895   0.773 -0.1396  1.7781 -0.1514
  941MOL0     C26937   4.163   8.948   0.865 -0.1562  0.1238  0.0066
  941MOL0     C26938   4.190   9.099   0.873  1.3848 -0.2775  0.0454
  941MOL0     C26939   4.204   9.172   0.737 -0.3882  0.1697 -1.5393
  941MOL0     C26940   4.334   9.139   0.668 -0.1884 -0.5862  0.1316
  941MOL0     C26941   4.468   9.164   0.735 -0.0531  0.1688 -1.0334
  941MOL0     C26942   4.582   9.155   0.641 -0.4429 -0.5198 -0.4886
  941MOL0     C26943   4.721   9.149   0.717  0.2014 -0.2417  0.6241
  941MOL0    Cl26944   4.753   9.316   0.772 -0.0336 -0.0407  0.1371
  941MOL0     C26945   3.699   8.934   0.816  0.5611  0.2342 -0.1470
  941MOL0     C26946   3.577   8.875   0.765 -0.0705 -0.3620  0.1103
  941MOL0     O26947   3.489   8.827   0.374  0.5196 -0.8476  1.2340
  941MOL0     C26948   3.304   8.615   0.301  0.2064 -0.2052  0.3442
  941MOL0     C26949   3.215   8.513   0.279 -0.2092  0.1989  0.7371
  941MOL0     N26950   2.620   8.269   0.849  0.0728  0.2603 -0.0618
  941MOL0     N26951   2.520   8.222   0.910 -0.4542 -0.2359 -0.5698
  941MOL0     C26952   1.328   7.952   1.242  0.2632  0.4438  0.0404
  941MOL0     C26953   1.186   7.947   1.280  0.1078 -0.4869  0.6946
  941MOL0     C26954   0.759   7.794   1.310 -0.0934 -0.9060 -0.4181
  941MOL0     C26955   0.645   7.748   1.237  0.0786  0.0088  0.0782
  941MOL0     C26956   0.519   7.763   1.289  0.2534 -0.8975 -0.2955
  941MOL0     C26957   0.498   7.834   1.403  0.0041 -0.6191  0.4174
  941MOL0     O26958   0.366   7.838   1.441  0.2644 -0.6255 -0.3461
  941MOL0     C26959   0.315   7.888   1.565 -0.4406  0.5769 -0.1155
  941MOL0     C26960   0.287   8.036   1.559 -0.5102 -0.3952  0.7286
  941MOL0     C26961   0.173   8.077   1.455  0.0782  0.4947 -0.7622
  941MOL0     C26962   0.037   8.092   1.533  0.0060  0.2303 -0.2586
  941MOL0     C26963  -0.067   8.132   1.442 -0.2971  0.5032  0.7151
  941MOL0     C26964  -0.163   8.148   1.366  0.8523 -0.4213 -0.1375
  941MOL0     C26965   0.607   7.881   1.477 -0.2668  0.6003  0.3322
  941MOL0     C26966   0.739   7.862   1.435  0.3471 -0.3465 -0.8494
  941MOL0     C26967   0.851   7.902   1.524  0.6688 -0.2634  0.6204
  941MOL0     H26968   1.064   7.767   1.014  1.4133 -1.0234 -1.1334
  941MOL0     H26969   1.299   7.768   0.962 -0.1184 -0.2276 -0.6495
  941MOL0     H26970   1.573   8.055   1.171  2.9108  0.2799 -0.7611
  941MOL0     H26971   1.617   7.893   1.237 -1.5396 -1.9837 -0.2478
  941MOL0     H26972   1.718   7.974   0.969  0.6160 -1.6650 -1.0662
  941MOL0     H26973   1.741   7.837   1.076 -0.8666  0.5248  3.5563
  941MOL0     H26974   1.854   7.989   1.249  4.0290  2.3216  0.0477
  941MOL0     H26975   1.817   8.118   1.122  1.4683 -0.1910 -0.9595
  941MOL0     H26976   1.995   7.873   1.089 -0.3211  0.0187 -0.4890
  941MOL0     H26977   1.958   7.981   0.956  3.0246 -2.4965 -0.9861
  941MOL0     H26978   2.116   8.062   1.207  0.7776  0.0937  0.1982
  941MOL0     H26979   2.169   7.998   1.057 -0.5987  0.0266 -2.1113
  941MOL0     H26980   2.033   8.209   0.953  0.6235  2.8802 -1.6400
  941MOL0     H26981   2.064   8.268   1.116  3.2086  0.4234  0.5768
  941MOL0     H26982   2.314   8.183   1.083 -0.1951 -1.8867 -1.8626
  941MOL0     H26983   2.247   8.336   1.018 -1.6063  0.7016  0.8716
  941MOL0     H26984   2.276   8.056   0.877  0.5049  0.0484 -0.5739
  941MOL0     H26985   2.204   8.192   0.793 -1.8349 -3.5345  0.5752
  941MOL0     H26986   2.398   8.227   0.611  1.1248 -1.6204 -0.5310
  941MOL0     H26987   2.593   8.331   0.507 -1.8543 -1.1291  0.7628
  941MOL0     H26988   2.685   8.439   0.629  2.8729 -1.3689  2.9744
  941MOL0     H26989   2.841   8.244   0.664  0.0234  0.0806  0.6761
  941MOL0     H26990   2.769   8.156   0.538  1.7379 -0.3539 -1.2391
  941MOL0     H26991   2.900   8.424   0.548  0.5066  1.4615 -1.4276
  941MOL0     H26992   2.822   8.387   0.394 -2.1713 -0.3743  1.2174
  941MOL0     H26993   2.937   8.181   0.380 -0.1341  0.0803  0.4411
  941MOL0     H26994   3.055   8.230   0.503  0.1514 -2.0275 -1.8931
  941MOL0     H26995   3.121   8.445   0.593  0.2166 -2.1005 -1.0327
  941MOL0     H26996   3.269   8.641   0.627  1.7947 -2.5807  1.0117
  941MOL0     H26997   3.711   8.793   0.460 -0.9436 -1.2436 -0.0959
  941MOL0     H26998   3.905   8.869   0.562 -1.1093  1.4519 -1.2146
  941MOL0     H26999   4.037   8.787   0.787 -1.4577  2.0810  2.3862
  941MOL0     H27000   4.073   8.919   0.671  1.4728  0.9755  0.1228
  941MOL0     H27001   4.141   8.906   0.964 -2.2784 -2.3725 -1.3802
  941MOL0     H27002   4.253   8.904   0.820  0.2142  0.4822  0.3971
  941MOL0     H27003   4.115   9.147   0.936  2.5215  0.7831  0.6375
  941MOL0     H27004   4.289   9.103   0.921  0.6140 -1.6254  1.8471
  941MOL0     H27005   4.214   9.279   0.757  3.1604 -0.4583  0.9773
  941MOL0     H27006   4.112   9.157   0.680 -2.6554 -0.9945  2.0760
  941MOL0     H27007   4.341   9.193   0.573  1.7531 -2.4486 -0.8680
  941MOL0     H27008   4.332   9.031   0.647 -0.1926 -0.3666 -1.0292
  941MOL0     H27009   4.456   9.261   0.785 -0.8258  1.0448 -2.8293
  941MOL0     H27010   4.483   9.082   0.805  0.8394 -0.7830 -2.2938
  941MOL0     H27011   4.571   9.239   0.573  0.6008 -1.0985 -1.4065
  941MOL0     H27012   4.573   9.067   0.577  0.5361 -0.3347 -0.8905
  941MOL0     H27013   4.700   9.093   0.809 -2.3662  0.0074  0.2623
  941MOL0     H27014   4.808   9.111   0.663  1.0316 -3.5358  3.8586
  941MOL0     H27015   3.699   8.975   0.917 -1.4467  1.6382 -0.6362
  941MOL0     H27016   3.488   8.855   0.824 -0.4276 -1.5227 -0.7887
  941MOL0     H27017   3.338   8.666   0.211 -2.8576  1.4339 -0.0320
  941MOL0     H27018   3.186   8.484   0.179  0.4219 -1.6467  1.0551
  941MOL0     H27019   1.395   8.012   1.303  1.1904 -1.8409  1.3929
  941MOL0     H27020   1.154   7.998   1.371  2.6914 -1.2206  2.1159
  941MOL0     H27021   0.652   7.699   1.141 -3.4414  0.3783 -0.5224
  941MOL0     H27022   0.432   7.730   1.234  0.0375  0.4095 -0.7729
  941MOL0     H27023   0.387   7.862   1.643 -0.6434  2.7880  0.8924
  941MOL0     H27024   0.225   7.833   1.594  0.5207 -0.8260  0.3443
  941MOL0     H27025   0.374   8.085   1.512 -1.1092  0.1083  0.1238
  941MOL0     H27026   0.263   8.077   1.658 -3.2011 -1.7408  0.7131
  941MOL0     H27027   0.172   7.996   1.382  0.7550  0.7619 -1.0779
  941MOL0     H27028   0.198   8.172   1.408 -0.4686  1.7022  1.2322
  941MOL0     H27029   0.007   8.004   1.591 -4.7540  2.9644  2.0823
  941MOL0     H27030   0.051   8.173   1.606 -2.1870  1.4373 -1.0955
  941MOL0     H27031  -0.244   8.156   1.295 -0.6423  0.0484  1.5330
  941MOL0     H27032   0.588   7.938   1.568 -2.3809  2.7867 -1.3501
  941MOL0     H27033   0.917   7.951   1.452 -0.6162 -0.8169 -0.9838
  941MOL0     H27034   0.814   7.971   1.601 -3.4943  2.0537 -2.9730
  941MOL0     H27035   0.893   7.806   1.557  3.0632 -0.7059 -3.1016
  942MOL0     O27036  10.091   9.795   8.893  0.7350  0.1946 -0.0662
  942MOL0     C27037  10.135   9.844   8.993 -0.2712 -0.0033 -0.2416
  942MOL0     O27038  10.269   9.883   9.019  0.2036  0.3885  0.4638
  942MOL0     C27039  10.375   9.865   8.930  0.1872  0.4767  0.2022
  942MOL0     C27040  10.502   9.914   8.961  0.7975 -0.6861  0.6464
  942MOL0     C27041  10.605   9.903   8.869 -0.4002 -0.5595  0.0601
  942MOL0     C27042  10.592   9.846   8.744  1.1935  0.0967  0.9076
  942MOL0     O27043  10.703   9.820   8.664  0.1897  0.2154 -0.0435
  942MOL0     C27044  10.808   9.913   8.659  0.5134  0.1569 -0.1733
  942MOL0     C27045  10.902   9.889   8.533 -0.1315  0.7155 -0.2573
  942MOL0     C27046  10.992  10.006   8.509 -0.6015 -0.0106 -0.6214
  942MOL0     C27047  11.110   9.979   8.422  0.1496 -0.4081  0.1426
  942MOL0     C27048  11.207  10.100   8.430  0.1117 -0.5292 -0.6086
  942MOL0     C27049  11.335  10.097   8.337 -0.1333 -1.5009  0.5572
  942MOL0     C27050  11.453  10.182   8.388  0.0288  0.1589  0.4163
  942MOL0     C27051  11.555  10.190   8.272 -0.2523  0.2970  0.3556
  942MOL0     N27052  11.694  10.227   8.314  0.2045 -0.4957 -0.4287
  942MOL0     C27053  11.800  10.200   8.238 -1.4579  0.5062  0.3480
  942MOL0     C27054  11.905  10.235   8.308  0.7063 -0.2978 -0.3165
  942MOL0     C27055  12.052  10.232   8.264  0.5223 -0.2743 -0.0975
  942MOL0     C27056  12.124  10.362   8.245  1.1382 -0.2434  0.3481
  942MOL0     C27057  12.182  10.398   8.380 -0.3191  0.1320 -0.1437
  942MOL0     C27058  12.272  10.523   8.374 -0.1078  0.3592 -0.2969
  942MOL0     O27059  12.310  10.552   8.510 -0.3153 -0.2317 -0.5287
  942MOL0     C27060  12.438  10.603   8.528  1.2904  0.6146 -0.4308
  942MOL0     C27061  12.502  10.582   8.655 -0.1464  0.0768 -0.1733
  942MOL0     C27062  12.633  10.615   8.679 -0.7688 -0.2056  0.6251
  942MOL0     C27063  12.705  10.688   8.577 -0.0094  0.0415  0.0148
  942MOL0     C27064  12.850  10.722   8.598 -0.1594 -0.6514  1.2455
  942MOL0     O27065  12.906  10.678   8.717  0.6505 -0.6203 -0.5595
  942MOL0     C27066  13.037  10.667   8.739  1.0949  0.3960 -0.2558
  942MOL0     C27067  13.069  10.559   8.830 -0.3828  0.7275  0.7815
  942MOL0     C27068  13.198  10.542   8.876  0.1900  0.4021  0.4046
  942MOL0     C27069  13.296  10.624   8.840  0.6637 -0.7013 -0.4716
  942MOL0     O27070  13.411  10.603   8.910 -0.5284  0.4546  0.0905
  942MOL0     C27071  13.531  10.686   8.905  0.3564  0.6821 -0.4336
  942MOL0     C27072  13.625  10.639   8.800  0.1948 -0.2434  0.1327
  942MOL0     C27073  13.761  10.711   8.810 -0.3809 -0.1809  0.1708
  942MOL0     C27074  13.844  10.651   8.925 -0.8698  0.0733 -0.5245
  942MOL0     C27075  13.983  10.696   8.958  0.0780  0.8921  0.1613
  942MOL0     C27076  14.043  10.598   9.066  0.2016  0.0258  0.0837
  942MOL0     C27077  14.183  10.629   9.123 -0.8244 -0.8826 -0.0986
  942MOL0     C27078  14.213  10.510   9.228 -0.5788 -0.5579 -1.1188
  942MOL0    Cl27079  14.351  10.539   9.334 -0.5014 -0.3299  0.1267
  942MOL0     C27080  13.271  10.725   8.739 -0.4597  0.2119 -0.2873
  942MOL0     C27081  13.147  10.740   8.692 -0.8279  0.6896 -0.5549
  942MOL0     O27082  12.915  10.778   8.506 -0.3977  0.3799 -0.8591
  942MOL0     C27083  12.637  10.726   8.461 -0.7285  0.0018 -0.1113
  942MOL0     C27084  12.506  10.680   8.427  0.4829  1.0990  0.0209
  942MOL0     N27085  11.866  10.295   8.428 -0.9033  1.0978 -0.1594
  942MOL0     N27086  11.738  10.281   8.435  0.2461  0.3973  0.1666
  942MOL0     C27087  10.472   9.799   8.706  0.6621 -0.6340  0.2304
  942MOL0     C27088  10.362   9.808   8.798  0.9737 -0.8263  0.0878
  942MOL0     C27089  10.058   9.846   9.112 -0.7342  0.9910 -0.0197
  942MOL0     C27090  10.110   9.801   9.233  0.8954 -0.2615  0.6355
  942MOL0     C27091  10.022   9.773   9.340  0.2039 -0.5746 -0.4137
  942MOL0     C27092   9.881   9.790   9.331  0.0383 -0.2273  0.0080
  942MOL0     O27093   9.787   9.759   9.435 -0.1160  0.5727  0.3108
  942MOL0     C27094   9.820   9.803   9.568  0.9061 -0.2794  0.2643
  942MOL0     C27095   9.740   9.930   9.597  0.4119 -0.4564  0.2621
  942MOL0     C27096   9.590   9.904   9.580  0.1880  0.0102 -0.2408
  942MOL0     C27097   9.500   9.998   9.663 -0.4141  0.1458  0.5152
  942MOL0     C27098   9.557  10.132   9.682  0.2308  0.1093  0.2393
  942MOL0     C27099   9.610  10.242   9.699 -0.3432 -0.5774  0.1714
  942MOL0     C27100   9.830   9.850   9.212  0.1754 -0.1318  0.4187
  942MOL0     C27101   9.913   9.878   9.104 -0.1334 -0.3799 -0.1810
  942MOL0     C27102   9.843   9.949   8.986  0.1853  0.4309  1.0215
  942MOL0     H27103  10.532   9.950   9.059  1.7148 -0.0205  0.1425
  942MOL0     H27104  10.696   9.938   8.917 -1.1649  0.2003  0.9944
  942MOL0     H27105  10.774  10.015   8.639  1.4393  0.1674 -1.8976
  942MOL0     H27106  10.873   9.905   8.746 -1.9411 -0.9056  1.6649
  942MOL0     H27107  10.844   9.880   8.441  1.0277 -0.2091 -0.9325
  942MOL0     H27108  10.956   9.797   8.557 -1.7283 -0.6422 -1.6276
  942MOL0     H27109  11.026  10.029   8.611 -1.4957 -0.4376 -0.2198
  942MOL0     H27110  10.942  10.092   8.466 -1.4814  0.8922  2.0026
  942MOL0     H27111  11.158   9.885   8.453 -2.0617 -2.3737 -1.9105
  942MOL0     H27112  11.092   9.961   8.315 -1.4748  0.0498  0.3204
  942MOL0     H27113  11.151  10.192   8.408  2.2076  0.3740 -2.6595
  942MOL0     H27114  11.243  10.105   8.534  0.5572  2.3673 -0.7978
  942MOL0     H27115  11.379   9.998   8.325 -0.4288 -1.4851 -0.8461
  942MOL0     H27116  11.299  10.127   8.238 -1.6101  1.0980  1.7681
  942MOL0     H27117  11.497  10.137   8.478  2.4468 -1.5038 -1.4653
  942MOL0     H27118  11.419  10.283   8.412 -0.5535 -0.2242  1.2793
  942MOL0     H27119  11.551  10.092   8.223 -1.2351  0.3052  0.4014
  942MOL0     H27120  11.529  10.266   8.198  2.2376 -0.0517 -0.9533
  942MOL0     H27121  11.789  10.157   8.139  1.7899  3.3858 -1.5324
  942MOL0     H27122  12.103  10.169   8.337 -1.3534 -0.9720  0.6436
  942MOL0     H27123  12.051  10.179   8.168  0.1079 -2.8360  1.2466
  942MOL0     H27124  12.204  10.349   8.171  0.3271  2.5414 -1.1472
  942MOL0     H27125  12.053  10.438   8.212 -2.5490 -3.5858 -0.1561
  942MOL0     H27126  12.229  10.316   8.433  1.2475  0.0489 -1.5772
  942MOL0     H27127  12.109  10.435   8.453  0.2135  1.6015 -0.3118
  942MOL0     H27128  12.213  10.600   8.323 -3.1147 -0.4926  1.6434
  942MOL0     H27129  12.359  10.499   8.312 -0.2479  3.2460 -1.8199
  942MOL0     H27130  12.450  10.517   8.724 -0.9949 -2.4944 -3.0213
  942MOL0     H27131  12.685  10.588   8.770  0.0259 -2.0470 -0.3141
  942MOL0     H27132  12.988  10.494   8.860  1.0413 -2.8147 -2.3143
  942MOL0     H27133  13.211  10.463   8.949 -3.3083 -1.7144 -1.0297
  942MOL0     H27134  13.513  10.792   8.885 -0.6918  0.9335  1.5731
  942MOL0     H27135  13.580  10.673   9.002 -3.4945 -0.3782  1.5598
  942MOL0     H27136  13.645  10.532   8.809 -1.2420 -0.4039  2.4873
  942MOL0     H27137  13.580  10.658   8.703  3.8302  0.6783 -1.5566
  942MOL0     H27138  13.819  10.691   8.720  1.4907 -2.7672  1.7847
  942MOL0     H27139  13.743  10.818   8.824 -2.0613 -0.1990 -1.5121
  942MOL0     H27140  13.850  10.544   8.903  2.8061  0.3155 -1.3289
  942MOL0     H27141  13.799  10.670   9.022  1.2780  0.7054  0.4126
  942MOL0     H27142  13.988  10.798   8.997 -2.2089  1.1568 -0.1340
  942MOL0     H27143  14.048  10.689   8.871  1.5644 -1.4549  1.3565
  942MOL0     H27144  13.965  10.585   9.141 -1.9661  0.0478 -2.0598
  942MOL0     H27145  14.061  10.499   9.022  1.5274  1.0177 -1.7461
  942MOL0     H27146  14.179  10.721   9.182 -0.5512 -0.8372 -0.1498
  942MOL0     H27147  14.257  10.642   9.043 -0.6273  1.1575  0.3638
  942MOL0     H27148  14.123  10.506   9.290 -0.0616  3.7053  0.2493
  942MOL0     H27149  14.238  10.418   9.174  1.8323  0.4271 -1.8119
  942MOL0     H27150  13.351  10.790   8.706 -1.1153  3.1158  3.2150
  942MOL0     H27151  13.140  10.822   8.620 -3.3420  1.0243 -0.0163
  942MOL0     H27152  12.679  10.783   8.380 -2.2346 -1.2185 -1.8294
  942MOL0     H27153  12.468  10.700   8.327  0.0279  3.4762  0.6190
  942MOL0     H27154  10.441   9.756   8.611 -1.5520  1.9698 -0.3427
  942MOL0     H27155  10.272   9.766   8.754  0.0333  1.4971 -0.3909
  942MOL0     H27156  10.216   9.785   9.253  1.3971 -1.1584 -2.2541
  942MOL0     H27157  10.055   9.733   9.436  1.6980  0.3344 -0.5296
  942MOL0     H27158   9.928   9.811   9.580  0.9887  0.7106 -1.0271
  942MOL0     H27159   9.787   9.728   9.641  2.7796  0.9382  2.5175
  942MOL0     H27160   9.770  10.001   9.520  0.7080 -2.7044 -1.8057
  942MOL0     H27161   9.763   9.969   9.697 -1.2480 -2.9210  1.7334
  942MOL0     H27162   9.570   9.803   9.615 -1.9666  1.3562  2.7907
  942MOL0     H27163   9.566   9.898   9.473  2.5593  1.5105 -0.9462
  942MOL0     H27164   9.398  10.007   9.624 -0.0534  0.5520 -0.3644
  942MOL0     H27165   9.491   9.944   9.758 -1.7760 -1.6911 -0.5897
  942MOL0     H27166   9.664  10.335   9.708 -1.4086  0.2433 -1.4623
  942MOL0     H27167   9.725   9.871   9.196  0.5123  1.7994  0.5081
  942MOL0     H27168   9.909  10.026   8.945  0.2310  0.5247  1.2653
  942MOL0     H27169   9.831   9.884   8.899 -3.6814 -1.0561  2.4514
  942MOL0     H27170   9.742   9.988   9.000 -0.0566 -0.5830  2.2666
  943MOL0     O27171   1.315   8.953   2.765 -0.0740 -0.1189  0.1013
  943MOL0     C27172   1.249   9.032   2.832 -0.1322 -0.3113  0.0399
  943MOL0     O27173   1.308   9.128   2.921 -0.1685 -0.3072 -0.2531
  943MOL0     C27174   1.445   9.152   2.939  0.4154 -0.2164 -0.1179
  943MOL0     C27175   1.559   9.083   2.892 -0.0160  0.2580  1.2651
  943MOL0     C27176   1.688   9.126   2.919  0.1104  0.5026  0.0060
  943MOL0     C27177   1.707   9.242   2.988 -1.0997  1.1037 -0.3566
  943MOL0     O27178   1.842   9.274   3.015  0.3145  0.2265  0.5488
  943MOL0     C27179   1.871   9.301   3.147  0.5141  0.0108  0.0059
  943MOL0     C27180   2.022   9.311   3.188 -0.6538  0.3432 -0.1965
  943MOL0     C27181   2.086   9.419   3.104  0.4489 -0.4889  0.4866
  943MOL0     C27182   2.225   9.438   3.159  0.3704 -0.2115  0.0954
  943MOL0     C27183   2.296   9.557   3.105  0.8115  0.0365 -0.3270
  943MOL0     C27184   2.345   9.529   2.972  0.1300  0.2385  0.1137
  943MOL0     C27185   2.431   9.645   2.913  0.2294 -0.2779 -0.3076
  943MOL0     C27186   2.575   9.627   2.967 -0.0564  0.6044  0.7232
  943MOL0     N27187   2.679   9.719   2.904 -0.1903  0.1770 -0.7232
  943MOL0     C27188   2.651   9.849   2.888 -0.3432  0.9811  0.1446
  943MOL0     C27189   2.769   9.912   2.883 -0.2676 -0.8236  0.0087
  943MOL0     C27190   2.777  10.055   2.866  0.2907 -0.1285  0.5963
  943MOL0     C27191   2.788  10.148   2.989 -0.5076 -0.0963  0.1383
  943MOL0     C27192   2.904  10.120   3.086  0.4025  0.5123 -0.1797
  943MOL0     C27193   2.930  10.238   3.172  0.0365 -0.0672  0.6461
  943MOL0     O27194   3.019  10.196   3.274 -0.4705  0.0221  0.4883
  943MOL0     C27195   3.045  10.291   3.369 -0.4700 -0.3879 -0.8385
  943MOL0     C27196   2.994  10.426   3.368 -0.2833  0.5665 -0.1758
  943MOL0     C27197   3.036  10.512   3.468  0.1273  0.2589  0.3533
  943MOL0     C27198   3.123  10.468   3.566 -0.4656  0.1856  0.7933
  943MOL0     C27199   3.184  10.562   3.664 -0.0969 -0.6406 -0.7339
  943MOL0     O27200   3.130  10.688   3.668  0.1367  0.8024 -0.4743
  943MOL0     C27201   3.220  10.788   3.696  0.0786  0.0514 -0.6120
  943MOL0     C27202   3.288  10.864   3.601  1.1031  0.0227  0.1289
  943MOL0     C27203   3.372  10.966   3.628 -0.4647 -0.7341  0.1578
  943MOL0     C27204   3.395  11.002   3.762 -0.2753  0.4298  0.4610
  943MOL0     O27205   3.462  11.109   3.810 -0.4635  0.3586 -0.0654
  943MOL0     C27206   3.558  11.167   3.722 -0.4213  0.4011 -0.0995
  943MOL0     C27207   3.630  11.283   3.788  0.2586 -0.0096 -0.7621
  943MOL0     C27208   3.672  11.255   3.933  0.5353  0.7400  0.9832
  943MOL0     C27209   3.771  11.357   3.983 -0.1913 -0.5584 -0.2773
  943MOL0     C27210   3.823  11.311   4.118  1.4366  0.4414  0.0640
  943MOL0     C27211   3.928  11.406   4.162 -0.7000  0.0238  0.4504
  943MOL0     C27212   3.977  11.361   4.300 -0.1029  0.1462  0.2649
  943MOL0     C27213   4.051  11.226   4.301 -0.2102  0.6105 -0.2145
  943MOL0    Cl27214   4.171  11.225   4.153  0.3393  0.6526 -0.6981
  943MOL0     C27215   3.334  10.930   3.868 -0.0474  0.1462  0.2783
  943MOL0     C27216   3.243  10.827   3.838 -1.3833  0.2580  0.8347
  943MOL0     O27217   3.280  10.526   3.731 -0.2885 -0.3048  0.1952
  943MOL0     C27218   3.165  10.334   3.576  0.0290  0.0075 -0.4271
  943MOL0     C27219   3.129  10.250   3.476 -0.0363  0.7857 -0.2311
  943MOL0     N27220   2.870   9.819   2.908  0.0008 -0.7486  0.0546
  943MOL0     N27221   2.812   9.703   2.914 -0.1793 -0.5914 -0.5164
  943MOL0     C27222   1.603   9.325   3.018 -0.4380  0.8311  1.0289
  943MOL0     C27223   1.469   9.277   3.006 -0.3359 -0.2358 -0.5130
  943MOL0     C27224   1.101   9.015   2.823 -0.1741 -1.7354  0.2101
  943MOL0     C27225   1.050   8.898   2.769  0.0943  0.0201 -0.2789
  943MOL0     C27226   0.917   8.882   2.750  0.1324  0.3303  0.2512
  943MOL0     C27227   0.827   8.990   2.768  0.8137  1.1389 -0.2892
  943MOL0     O27228   0.699   8.949   2.738 -0.6455 -0.3234  0.0889
  943MOL0     C27229   0.594   9.043   2.773 -0.3182  0.4095 -0.2790
  943MOL0     C27230   0.544   9.118   2.650 -0.1040 -0.2758  1.2206
  943MOL0     C27231   0.469   9.257   2.665 -0.5376 -0.3963 -0.5323
  943MOL0     C27232   0.335   9.264   2.728  0.1132  0.2171 -0.0927
  943MOL0     C27233   0.299   9.411   2.736  0.5986 -0.7079 -1.0097
  943MOL0     C27234   0.258   9.524   2.728  0.3989  0.8168 -0.2593
  943MOL0     C27235   0.881   9.108   2.813 -0.2974 -0.2399 -0.7011
  943MOL0     C27236   1.015   9.117   2.854 -0.3101 -0.9189  0.2901
  943MOL0     C27237   1.061   9.257   2.905 -0.1361 -0.5717 -0.1456
  943MOL0     H27238   1.549   8.991   2.836 -2.2396  0.1042  1.8367
  943MOL0     H27239   1.772   9.070   2.879 -0.8269  0.0514 -1.3929
  943MOL0     H27240   1.812   9.383   3.189  2.2954  1.1667  0.3571
  943MOL0     H27241   1.813   9.225   3.200 -0.1981 -0.0804 -0.8907
  943MOL0     H27242   2.068   9.212   3.181 -0.9284 -0.0024  2.0871
  943MOL0     H27243   2.014   9.341   3.293  0.0915 -3.3760  1.0830
  943MOL0     H27244   2.032   9.513   3.114 -0.3336 -1.1968  5.3208
  943MOL0     H27245   2.097   9.391   2.999  0.3026  0.1126  0.3077
  943MOL0     H27246   2.213   9.460   3.266 -0.7989  0.0989 -0.0904
  943MOL0     H27247   2.271   9.341   3.140  0.0273 -0.3228 -0.1586
  943MOL0     H27248   2.231   9.645   3.106  0.8542  0.1898  3.6107
  943MOL0     H27249   2.388   9.570   3.163  0.7110 -1.7518  0.3064
  943MOL0     H27250   2.399   9.434   2.972 -1.8595 -0.9609 -0.7186
  943MOL0     H27251   2.257   9.528   2.907  1.5845  1.6805 -2.0273
  943MOL0     H27252   2.390   9.741   2.943  0.8907 -0.1503  0.2056
  943MOL0     H27253   2.433   9.648   2.804  1.3493  1.2983 -0.2665
  943MOL0     H27254   2.578   9.643   3.075 -1.2630  2.7571  0.4941
  943MOL0     H27255   2.595   9.523   2.939 -1.3299  1.1141 -2.5820
  943MOL0     H27256   2.550   9.890   2.890 -0.7965  0.1123 -2.0716
  943MOL0     H27257   2.856  10.079   2.796 -0.8390 -0.7698 -0.9582
  943MOL0     H27258   2.689  10.090   2.812 -0.5257  0.0827  2.0033
  943MOL0     H27259   2.785  10.250   2.951 -3.7957 -0.8130 -1.9231
  943MOL0     H27260   2.698  10.138   3.050 -0.6146  2.5099  0.4970
  943MOL0     H27261   2.995  10.102   3.028  0.3172 -0.7858  0.0646
  943MOL0     H27262   2.883  10.027   3.140  2.0844  0.0192 -0.2969
  943MOL0     H27263   2.831  10.265   3.210 -0.7310 -2.2541  0.3164
  943MOL0     H27264   2.983  10.318   3.120 -0.6467 -1.2681 -2.0969
  943MOL0     H27265   2.918  10.466   3.302  0.8758  4.4371  0.6036
  943MOL0     H27266   3.007  10.617   3.466  3.5600  1.2973 -0.5261
  943MOL0     H27267   3.251  10.848   3.500  0.8463 -0.2094  0.2576
  943MOL0     H27268   3.404  11.025   3.543 -3.3077  2.4417  1.0592
  943MOL0     H27269   3.633  11.095   3.689 -0.8118 -0.0896  0.0718
  943MOL0     H27270   3.513  11.197   3.627  1.6615 -1.7106 -1.8925
  943MOL0     H27271   3.720  11.306   3.730  3.2636 -2.2539  2.6190
  943MOL0     H27272   3.566  11.371   3.797  2.8724  1.8455  1.1042
  943MOL0     H27273   3.580  11.245   3.992  0.3972  1.5472  0.9131
  943MOL0     H27274   3.727  11.160   3.933  0.7448  0.8590  1.4443
  943MOL0     H27275   3.727  11.457   3.985  1.6139  0.2757 -0.0243
  943MOL0     H27276   3.857  11.360   3.916 -0.1080  1.2827 -0.1223
  943MOL0     H27277   3.860  11.209   4.111  0.0956 -0.0187 -0.6766
  943MOL0     H27278   3.740  11.318   4.189  2.3913  4.5024  1.0665
  943MOL0     H27279   4.006  11.406   4.085 -2.9855 -0.0997 -2.0091
  943MOL0     H27280   3.885  11.506   4.168 -0.3763  0.3273 -1.4412
  943MOL0     H27281   3.897  11.347   4.374  0.7692 -1.8316  0.9039
  943MOL0     H27282   4.054  11.426   4.343  0.8367 -2.1931  2.3123
  943MOL0     H27283   4.112  11.219   4.392 -0.2112 -1.5761 -0.3296
  943MOL0     H27284   3.984  11.140   4.299  0.7757 -0.2508  1.4926
  943MOL0     H27285   3.347  10.959   3.972  1.3966  2.6177 -0.5147
  943MOL0     H27286   3.195  10.776   3.919  1.8086 -2.3188  1.3227
  943MOL0     H27287   3.234  10.294   3.650  1.6253 -1.4893 -2.6227
  943MOL0     H27288   3.160  10.146   3.478 -4.4105 -0.7589 -1.5219
  943MOL0     H27289   1.636   9.423   3.050  2.2677  0.0860  0.7692
  943MOL0     H27290   1.392   9.348   3.035 -1.0892 -0.0840 -2.7110
  943MOL0     H27291   1.111   8.812   2.745 -3.0299 -1.8809 -2.0788
  943MOL0     H27292   0.880   8.788   2.710 -0.2856 -0.1911  1.8184
  943MOL0     H27293   0.622   9.114   2.852 -1.6269  1.5722 -0.8304
  943MOL0     H27294   0.512   8.982   2.810 -0.6000  0.5494 -0.6711
  943MOL0     H27295   0.475   9.054   2.594  1.4766 -2.5962  1.7634
  943MOL0     H27296   0.629   9.139   2.586  1.1385 -3.8690  1.4628
  943MOL0     H27297   0.468   9.310   2.569 -0.4568  0.1499 -0.2391
  943MOL0     H27298   0.535   9.312   2.733  0.1392 -1.2060 -0.5183
  943MOL0     H27299   0.256   9.218   2.667  0.4341 -0.0641 -0.2963
  943MOL0     H27300   0.329   9.209   2.822  2.5566  0.5071  0.2788
  943MOL0     H27301   0.215   9.622   2.732  2.7438  1.8536  2.3069
  943MOL0     H27302   0.820   9.197   2.823 -2.2943 -1.7852  3.0078
  943MOL0     H27303   1.121   9.297   2.822 -1.2793 -0.3138 -0.8794
  943MOL0     H27304   0.974   9.323   2.908 -0.1306 -0.5763  0.0870
  943MOL0     H27305   1.109   9.262   3.003  2.6521  0.0938 -1.4260
  944MOL0     O27306   8.878  10.510  11.091 -0.1345 -0.2087  0.1845
  944MOL0     C27307   8.772  10.448  11.093 -0.6376 -0.1722 -0.6145
  944MOL0     O27308   8.751  10.323  11.039  0.6835 -0.8154  0.6141
  944MOL0     C27309   8.836  10.281  10.941  1.2089  0.0608  1.1699
  944MOL0     C27310   8.792  10.278  10.813 -0.0915  0.1815  0.7230
  944MOL0     C27311   8.873  10.246  10.705 -0.6532 -0.4372  0.0441
  944MOL0     C27312   8.998  10.189  10.729 -0.5527  0.0570  0.2122
  944MOL0     O27313   9.065  10.139  10.616 -0.6425  0.1926 -0.8087
  944MOL0     C27314   9.210  10.116  10.617 -0.7190  0.3459  0.5954
  944MOL0     C27315   9.281  10.112  10.476  0.1507 -0.9657 -0.7938
  944MOL0     C27316   9.434  10.080  10.506  0.0346  0.7097  0.2393
  944MOL0     C27317   9.532  10.154  10.407  0.0756  0.2549  0.0221
  944MOL0     C27318   9.676  10.107  10.409 -0.0678  0.0409 -0.0844
  944MOL0     C27319   9.779  10.174  10.319  0.0520  0.0749  0.2873
  944MOL0     C27320   9.923  10.108  10.331  0.5256 -0.3734 -0.1608
  944MOL0     C27321  10.018  10.169  10.228  0.4036 -0.2664  0.0568
  944MOL0     N27322  10.158  10.113  10.214  0.3230 -0.2022 -0.2843
  944MOL0     C27323  10.211   9.994  10.251 -1.3249  0.6333 -0.3342
  944MOL0     C27324  10.351  10.015  10.238  0.0281  0.5241 -0.3675
  944MOL0     C27325  10.458   9.922  10.283  0.5249 -0.4206 -0.3103
  944MOL0     C27326  10.481   9.822  10.168 -1.0846 -0.3219 -0.1080
  944MOL0     C27327  10.595   9.723  10.201 -0.2365 -0.4606  0.2041
  944MOL0     C27328  10.722   9.783  10.258 -0.7216 -0.5996 -0.7158
  944MOL0     O27329  10.806   9.667  10.265  0.3763  1.3640 -0.1755
  944MOL0     C27330  10.940   9.686  10.257 -0.2317 -0.0524 -0.2212
  944MOL0     C27331  11.012   9.603  10.171  0.6655 -0.0041  0.2279
  944MOL0     C27332  11.155   9.619  10.157 -0.3361 -1.0057 -0.4425
  944MOL0     C27333  11.219   9.727  10.224 -0.8436  0.1575 -0.1832
  944MOL0     C27334  11.361   9.749  10.189  0.1907 -0.2562  0.0166
  944MOL0     O27335  11.418   9.845  10.260  0.3273  0.2512 -0.0912
  944MOL0     C27336  11.547   9.885  10.228  0.5580  0.6923 -0.3445
  944MOL0     C27337  11.641   9.892  10.337  0.3908 -0.4297  0.9738
  944MOL0     C27338  11.768   9.946  10.324  0.1548 -0.1504  0.8505
  944MOL0     C27339  11.804   9.998  10.201 -0.2298  0.7516 -0.0078
  944MOL0     O27340  11.912  10.081  10.193 -0.7750 -0.0691  0.3825
  944MOL0     C27341  12.002  10.068  10.075 -0.2174  0.3859 -0.0773
  944MOL0     C27342  12.143  10.132  10.109  0.3870  0.3066 -0.4770
  944MOL0     C27343  12.235  10.143   9.987  0.0602 -0.4118 -0.1750
  944MOL0     C27344  12.312  10.276   9.984 -0.0108  0.1961  0.5841
  944MOL0     C27345  12.439  10.268   9.898  0.1590  0.2434  0.5708
  944MOL0     C27346  12.496  10.407   9.893  0.0462 -0.3113  0.1867
  944MOL0     C27347  12.637  10.412   9.836  0.5025  1.2455 -0.1358
  944MOL0     C27348  12.651  10.333   9.703  0.2023 -0.1193  1.1615
  944MOL0    Cl27349  12.524  10.362   9.584  0.0933  0.2240  0.1140
  944MOL0     C27350  11.710   9.999  10.093  0.5785 -0.0280 -0.4638
  944MOL0     C27351  11.585   9.945  10.109 -0.3657 -0.0837 -0.6336
  944MOL0     O27352  11.417   9.679  10.106  0.0953  0.6748 -0.3582
  944MOL0     C27353  11.146   9.805  10.313  0.0612 -0.7815 -0.6710
  944MOL0     C27354  11.014   9.782  10.338  0.7584  0.7050  0.1562
  944MOL0     N27355  10.374  10.141  10.186 -0.2881  0.4112  0.1116
  944MOL0     N27356  10.258  10.194  10.166 -0.1649 -0.0516  0.2605
  944MOL0     C27357   9.039  10.181  10.862  0.1598 -0.1667  0.6351
  944MOL0     C27358   8.959  10.220  10.969  0.6962 -0.6089 -0.5856
  944MOL0     C27359   8.657  10.502  11.157  0.1285 -0.7937  0.0757
  944MOL0     C27360   8.570  10.411  11.217  0.9231 -0.3154  0.2728
  944MOL0     C27361   8.452  10.457  11.286 -0.2266 -0.4193 -0.1959
  944MOL0     C27362   8.418  10.591  11.277 -0.1541 -0.1172 -0.9020
  944MOL0     O27363   8.306  10.628  11.352  0.3467  0.6345  0.3146
  944MOL0     C27364   8.233  10.729  11.290 -0.2209 -0.5885 -0.3218
  944MOL0     C27365   8.095  10.744  11.343 -0.0006 -0.2292  0.5787
  944MOL0     C27366   7.996  10.638  11.278 -0.4934 -0.0160 -0.0249
  944MOL0     C27367   8.019  10.495  11.313  0.6818 -0.4617  0.2420
  944MOL0     C27368   7.993  10.475  11.453 -0.4814 -0.4453  0.5484
  944MOL0     C27369   7.964  10.451  11.567  0.1470  0.1206 -0.4158
  944MOL0     C27370   8.494  10.688  11.202 -0.2395 -0.1481  0.7381
  944MOL0     C27371   8.613  10.641  11.142 -0.4373  0.0309 -1.3290
  944MOL0     C27372   8.695  10.740  11.063 -0.2188 -1.1253  0.9092
  944MOL0     H27373   8.686  10.301  10.812  0.2395  1.8500  0.9658
  944MOL0     H27374   8.840  10.253  10.602  1.2368 -0.2586 -0.5894
  944MOL0     H27375   9.268  10.188  10.674  0.7026  1.0699 -1.6264
  944MOL0     H27376   9.229  10.024  10.672 -2.0174  0.6128  1.5247
  944MOL0     H27377   9.263  10.210  10.431 -0.6602  0.7558  2.8922
  944MOL0     H27378   9.242  10.039  10.406 -1.0727  1.6176 -2.9818
  944MOL0     H27379   9.457   9.973  10.505  2.4200  1.1441  1.4612
  944MOL0     H27380   9.459  10.110  10.608 -1.5216 -1.5693  1.3846
  944MOL0     H27381   9.501  10.130  10.305 -2.2149  3.1416 -0.1011
  944MOL0     H27382   9.528  10.261  10.427 -2.0471 -0.2521  3.0170
  944MOL0     H27383   9.715  10.107  10.512  0.2631  3.9298 -0.0741
  944MOL0     H27384   9.672  10.008  10.363  2.5458 -0.7794  1.1883
  944MOL0     H27385   9.744  10.178  10.216  1.0884  3.5807 -0.0398
  944MOL0     H27386   9.785  10.278  10.351 -0.2743  1.2629 -3.1582
  944MOL0     H27387   9.911  10.001  10.310 -1.2073 -0.3962  0.8003
  944MOL0     H27388   9.951  10.130  10.435 -0.6279  2.2451 -0.3233
  944MOL0     H27389   9.968  10.159  10.131 -0.5087 -2.1970  0.6798
  944MOL0     H27390  10.023  10.277  10.244 -3.1338 -0.2802  2.3795
  944MOL0     H27391  10.165   9.906  10.295 -0.5749  0.1180 -0.5591
  944MOL0     H27392  10.548   9.973  10.318 -0.1294 -0.3624  1.3753
  944MOL0     H27393  10.417   9.866  10.367 -0.8668 -0.8942 -1.2603
  944MOL0     H27394  10.391   9.762  10.151 -0.1444 -2.5783  2.1841
  944MOL0     H27395  10.511   9.875  10.077  1.2927 -1.6439 -0.1730
  944MOL0     H27396  10.617   9.661  10.114 -0.0211 -2.9021  1.9057
  944MOL0     H27397  10.552   9.653  10.273 -1.8031 -0.2315 -0.4673
  944MOL0     H27398  10.700   9.818  10.359 -0.0018  0.2783 -0.8541
  944MOL0     H27399  10.760   9.865  10.197 -1.8960  1.4188  1.1010
  944MOL0     H27400  10.971   9.522  10.112  2.7532 -0.1338 -1.1582
  944MOL0     H27401  11.199   9.563  10.076 -1.2501 -0.8625 -1.0570
  944MOL0     H27402  11.610   9.847  10.431 -1.1973  1.3400  1.3520
  944MOL0     H27403  11.839   9.960  10.404  0.9845 -1.2000  0.3281
  944MOL0     H27404  12.020   9.960  10.068 -2.5765 -0.1317  0.7731
  944MOL0     H27405  11.960  10.106   9.982 -1.1272  1.2074  0.6458
  944MOL0     H27406  12.134  10.235  10.145  0.5618 -0.6655  2.5756
  944MOL0     H27407  12.199  10.073  10.182  0.3699  2.3477  1.3018
  944MOL0     H27408  12.307  10.061   9.975  1.5386  1.1166 -2.3349
  944MOL0     H27409  12.170  10.139   9.899 -3.7774 -2.2445  2.4240
  944MOL0     H27410  12.348  10.291  10.087  0.7543 -2.6316  0.8026
  944MOL0     H27411  12.246  10.357   9.953 -3.2049 -1.9799  1.1833
  944MOL0     H27412  12.409  10.225   9.802 -0.1407  0.9944  0.3176
  944MOL0     H27413  12.519  10.202   9.932 -0.6052 -1.2619 -0.4690
  944MOL0     H27414  12.432  10.459   9.821 -0.4695 -3.2321 -1.6349
  944MOL0     H27415  12.497  10.462   9.987 -0.1092  0.8966 -0.4926
  944MOL0     H27416  12.704  10.366   9.909 -1.7192  1.3459  2.0641
  944MOL0     H27417  12.667  10.515   9.814  0.7588  0.7153 -2.5978
  944MOL0     H27418  12.745  10.365   9.658  0.3929 -2.6197 -0.4255
  944MOL0     H27419  12.667  10.228   9.728 -2.5000 -0.7511  0.5153
  944MOL0     H27420  11.733  10.056  10.004  1.5946  1.4933  0.7377
  944MOL0     H27421  11.515   9.949  10.026  0.6898 -2.6319 -1.7611
  944MOL0     H27422  11.188   9.863  10.396 -2.1915 -1.0561  0.7403
  944MOL0     H27423  10.956   9.841  10.409 -2.8458 -2.5237  0.2223
  944MOL0     H27424   9.138  10.138  10.877 -0.4366 -1.0447  2.3681
  944MOL0     H27425   8.995  10.217  11.071  0.6564 -1.2508 -0.5870
  944MOL0     H27426   8.581  10.304  11.212 -1.6261 -0.5847 -4.3707
  944MOL0     H27427   8.397  10.387  11.348  2.1113 -2.5013 -0.3274
  944MOL0     H27428   8.228  10.732  11.181 -4.3819  1.7227 -0.2460
  944MOL0     H27429   8.281  10.822  11.321  0.4886 -1.3401  0.9318
  944MOL0     H27430   8.052  10.839  11.307 -1.8888 -0.1329  2.8043
  944MOL0     H27431   8.097  10.736  11.453  2.9743 -0.7533  0.5597
  944MOL0     H27432   8.009  10.641  11.169  0.8446 -0.5623  0.0974
  944MOL0     H27433   7.892  10.662  11.304 -0.3684  0.4051  0.0902
  944MOL0     H27434   7.951  10.433  11.254 -0.3189  0.7576  0.0666
  944MOL0     H27435   8.122  10.465  11.288  1.2122  1.4193  0.0005
  944MOL0     H27436   7.939  10.419  11.665  2.8886 -4.4173 -0.9285
  944MOL0     H27437   8.474  10.794  11.215  1.6898  0.2406  0.9086
  944MOL0     H27438   8.716  10.839  11.102  4.3193 -1.3861 -0.2503
  944MOL0     H27439   8.795  10.707  11.030 -0.6288 -0.0173 -1.7005
  944MOL0     H27440   8.645  10.753  10.967 -0.9334 -1.8602  1.1696
  945MOL0     O27441   2.159   7.270   9.981  0.4060 -0.2649  0.0174
  945MOL0     C27442   2.140   7.314  10.097 -0.5713 -0.3604  0.2913
  945MOL0     O27443   2.028   7.332  10.157  0.4810  0.3286  0.1693
  945MOL0     C27444   1.916   7.281  10.102  0.4768 -0.5003  0.1093
  945MOL0     C27445   1.911   7.152  10.047  0.1042 -0.2781  0.6722
  945MOL0     C27446   1.797   7.098   9.986  0.9036  0.6769 -0.2149
  945MOL0     C27447   1.677   7.171   9.983 -0.3620 -0.7545 -0.4293
  945MOL0     O27448   1.555   7.142   9.925 -0.0656 -0.1195 -0.9528
  945MOL0     C27449   1.538   7.021   9.848  0.1314  0.2118  0.1726
  945MOL0     C27450   1.387   6.998   9.819 -0.5882 -0.4887 -1.1708
  945MOL0     C27451   1.316   6.949   9.948 -0.9468  1.2413  0.5988
  945MOL0     C27452   1.170   6.967   9.924  0.1611 -0.0456 -0.7704
  945MOL0     C27453   1.085   6.925  10.048 -0.0049  0.5592  0.0933
  945MOL0     C27454   0.939   6.977  10.045 -0.0984  0.9239  1.1415
  945MOL0     C27455   0.879   6.943  10.178  0.5180 -1.0420 -0.1943
  945MOL0     C27456   0.759   7.030  10.210  0.3933  0.4296 -0.4071
  945MOL0     N27457   0.667   7.042  10.104  0.7573  0.1901  0.8186
  945MOL0     C27458   0.545   6.977  10.085  0.4306 -0.2639 -0.1793
  945MOL0     C27459   0.475   7.059  10.001  0.6942  0.3660 -0.2081
  945MOL0     C27460   0.341   7.042   9.928  0.2841 -0.5595 -0.3168
  945MOL0     C27461   0.220   7.023  10.017  0.6795 -0.5138 -0.1664
  945MOL0     C27462   0.168   7.163  10.082  0.3007  0.2555  1.2302
  945MOL0     C27463   0.277   7.234  10.167 -0.5595  0.2900 -0.7192
  945MOL0     O27464   0.314   7.147  10.271 -0.1988 -0.2870 -0.0797
  945MOL0     C27465   0.430   7.175  10.343  0.4303 -0.9492 -0.4142
  945MOL0     C27466   0.460   7.073  10.435  1.2566  0.1188 -0.1491
  945MOL0     C27467   0.578   7.082  10.510  1.1645 -0.3672 -0.3728
  945MOL0     C27468   0.656   7.198  10.500  0.3858  0.0994  1.0794
  945MOL0     C27469   0.775   7.204  10.585 -0.4686  0.5729 -1.0433
  945MOL0     O27470   0.810   7.098  10.660  0.2842 -0.3413  0.0459
  945MOL0     C27471   0.925   7.099  10.731  1.0004 -0.3232 -1.0242
  945MOL0     C27472   0.941   7.170  10.854 -0.6160 -0.6448 -0.0635
  945MOL0     C27473   1.064   7.165  10.929  0.8122  0.3008 -0.1031
  945MOL0     C27474   1.168   7.087  10.888  1.0384  0.2248  0.6189
  945MOL0     O27475   1.291   7.080  10.956  0.8792 -0.1523  0.3513
  945MOL0     C27476   1.319   7.186  11.044  0.5354 -0.1548  0.7317
  945MOL0     C27477   1.458   7.198  11.073 -0.2166 -0.3627 -0.9054
  945MOL0     C27478   1.542   7.214  10.945  0.0885  0.4192  0.0596
  945MOL0     C27479   1.684   7.232  10.980  0.2567  0.2949  0.2546
  945MOL0     C27480   1.756   7.313  10.870  0.1737  0.6846  0.4324
  945MOL0     C27481   1.901   7.316  10.901 -0.0578 -0.2828  0.0379
  945MOL0     C27482   1.994   7.371  10.794  1.0322 -0.0867 -0.8058
  945MOL0     C27483   2.103   7.285  10.753  0.0266  0.9930 -0.6890
  945MOL0    Cl27484   2.202   7.386  10.657 -0.2728  0.1586  0.6411
  945MOL0     C27485   1.151   7.021  10.765 -1.1557  0.0335  0.4929
  945MOL0     C27486   1.036   7.022  10.691  0.1776 -0.4980 -0.5847
  945MOL0     O27487   0.835   7.305  10.579 -0.5757  0.4867 -0.4131
  945MOL0     C27488   0.608   7.310  10.428  0.0424  0.9795 -0.4096
  945MOL0     C27489   0.496   7.302  10.347 -0.9508  0.1644  0.1130
  945MOL0     N27490   0.559   7.166   9.969  0.9678 -0.0710 -0.1440
  945MOL0     N27491   0.671   7.155  10.035  0.8204  0.3241  0.0682
  945MOL0     C27492   1.680   7.300  10.053  0.2180 -0.4968  0.8368
  945MOL0     C27493   1.799   7.360  10.103  0.3684  0.0263 -1.1405
  945MOL0     C27494   2.256   7.345  10.190  0.2866  0.0084  0.3249
  945MOL0     C27495   2.372   7.270  10.176  0.6622 -0.1563  0.4535
  945MOL0     C27496   2.479   7.286  10.258  0.0703  0.6155  0.0390
  945MOL0     C27497   2.470   7.387  10.355  0.0778  0.2312  0.5139
  945MOL0     O27498   2.569   7.417  10.452 -0.6373  0.0142  0.9226
  945MOL0     C27499   2.702   7.365  10.442 -0.0712  0.4227 -0.0443
  945MOL0     C27500   2.798   7.483  10.508  0.2567 -0.1135  0.3745
  945MOL0     C27501   2.844   7.596  10.419  0.5791  0.1902  0.3887
  945MOL0     C27502   2.986   7.578  10.359  1.0041 -0.0519 -0.6800
  945MOL0     C27503   3.006   7.441  10.306  0.0380  0.2857 -0.1226
  945MOL0     C27504   3.005   7.325  10.269 -0.4258 -0.7457 -0.4414
  945MOL0     C27505   2.357   7.469  10.371 -0.0632  0.4630 -0.6151
  945MOL0     C27506   2.245   7.450  10.286 -0.3410 -0.3609 -0.5795
  945MOL0     C27507   2.127   7.536  10.304 -0.0502  0.3342  0.0421
  945MOL0     H27508   1.992   7.080  10.056 -0.1500 -0.5282  0.9989
  945MOL0     H27509   1.801   6.994   9.952  0.9815  0.3972  0.6403
  945MOL0     H27510   1.589   7.040   9.753 -2.7717  1.0094 -1.3482
  945MOL0     H27511   1.577   6.931   9.895  1.0413 -0.2294 -1.3612
  945MOL0     H27512   1.367   6.928   9.738  1.3582 -3.2545  0.5677
  945MOL0     H27513   1.348   7.097   9.794  0.4399 -0.0367 -1.0214
  945MOL0     H27514   1.344   7.011  10.033  1.7882  0.4319  0.3886
  945MOL0     H27515   1.331   6.842   9.966  0.5297  1.2792 -0.2958
  945MOL0     H27516   1.148   7.072   9.905 -0.3759  0.0359  0.2264
  945MOL0     H27517   1.148   6.907   9.835  0.9438  0.3789 -1.2584
  945MOL0     H27518   1.076   6.817  10.059 -1.0770  0.8000  1.9961
  945MOL0     H27519   1.133   6.964  10.138  0.2047 -0.1504  0.2917
  945MOL0     H27520   0.938   7.085  10.032  0.7972  0.6987 -1.1379
  945MOL0     H27521   0.878   6.933   9.965 -0.2206  2.3652  0.4215
  945MOL0     H27522   0.945   6.948  10.265 -0.1679  1.2898  0.2622
  945MOL0     H27523   0.843   6.840  10.171  0.1485 -1.0027  0.9863
  945MOL0     H27524   0.704   6.979  10.290 -0.2148 -0.2331 -1.2168
  945MOL0     H27525   0.800   7.127  10.236  2.3180 -0.4139 -0.1443
  945MOL0     H27526   0.515   6.888  10.140 -1.9982  1.1966  1.0284
  945MOL0     H27527   0.332   7.125   9.857 -0.9930 -1.4473 -1.2321
  945MOL0     H27528   0.348   6.948   9.872 -0.3564 -0.2368 -0.9492
  945MOL0     H27529   0.138   6.984   9.956  1.9450 -1.5194 -1.2833
  945MOL0     H27530   0.245   6.947  10.092  1.8124 -1.3478 -1.3589
  945MOL0     H27531   0.080   7.133  10.140  0.3215 -1.0454  0.6184
  945MOL0     H27532   0.127   7.225  10.002  2.3098 -0.9113 -0.8211
  945MOL0     H27533   0.226   7.322  10.208 -2.2670 -1.1713  0.4485
  945MOL0     H27534   0.353   7.270  10.097  0.5845 -1.8934 -0.6926
  945MOL0     H27535   0.389   6.991  10.435  0.8528  0.4595 -0.1327
  945MOL0     H27536   0.598   6.990  10.564  1.1575  1.1366  2.3709
  945MOL0     H27537   0.858   7.219  10.904  2.6337  1.5232  3.7154
  945MOL0     H27538   1.063   7.217  11.024  0.4618 -3.2355  2.0345
  945MOL0     H27539   1.290   7.279  10.994  1.3485 -0.0989  0.3577
  945MOL0     H27540   1.265   7.177  11.139 -0.6856  2.9824  0.4782
  945MOL0     H27541   1.471   7.279  11.145 -0.0974 -1.6710  0.6100
  945MOL0     H27542   1.495   7.108  11.123 -2.4291  0.2913  2.2279
  945MOL0     H27543   1.529   7.126  10.881 -1.4950 -0.5409  1.6050
  945MOL0     H27544   1.501   7.306  10.902 -0.9691 -0.1627 -0.2027
  945MOL0     H27545   1.721   7.131  10.997 -1.5535 -0.3549  0.5066
  945MOL0     H27546   1.699   7.289  11.072  0.0929 -0.0772  0.5163
  945MOL0     H27547   1.716   7.415  10.869  3.1572  1.9743  1.3583
  945MOL0     H27548   1.730   7.272  10.772 -0.6006  2.1282  0.0127
  945MOL0     H27549   1.916   7.366  10.997 -1.7965  0.2186  0.0814
  945MOL0     H27550   1.924   7.210  10.914 -3.7770 -1.3009 -0.4461
  945MOL0     H27551   2.040   7.454  10.849  1.1490  0.1678 -1.2792
  945MOL0     H27552   1.941   7.420  10.712  0.0110  2.8235  1.4024
  945MOL0     H27553   2.159   7.249  10.840  2.4784  3.2989 -1.1815
  945MOL0     H27554   2.067   7.201  10.693  2.7800 -0.0638 -0.9847
  945MOL0     H27555   1.242   6.968  10.740  0.9347  2.0762  3.1118
  945MOL0     H27556   1.016   6.944  10.618 -2.2050  0.4614 -1.0425
  945MOL0     H27557   0.656   7.407  10.428  0.4943  0.7687  0.8582
  945MOL0     H27558   0.458   7.387  10.292 -1.1583 -1.0763 -1.7588
  945MOL0     H27559   1.586   7.353  10.058  1.1399  1.1130  2.6879
  945MOL0     H27560   1.806   7.462  10.140  0.4883 -0.5626  0.5558
  945MOL0     H27561   2.385   7.211  10.086  2.3939  2.6230 -1.3020
  945MOL0     H27562   2.569   7.228  10.239 -0.6182 -0.2988 -0.4952
  945MOL0     H27563   2.733   7.338  10.341 -4.2741 -5.0914 -0.3493
  945MOL0     H27564   2.708   7.274  10.501  0.4353  0.7326  0.3987
  945MOL0     H27565   2.884   7.429  10.550 -1.1946 -2.6450  0.2615
  945MOL0     H27566   2.750   7.518  10.600 -1.3710 -0.2787 -0.3879
  945MOL0     H27567   2.854   7.693  10.468 -1.0805  0.7761 -0.3804
  945MOL0     H27568   2.761   7.616  10.351 -0.4351  0.4708  1.6729
  945MOL0     H27569   3.008   7.658  10.288 -1.6985  0.3179 -1.2315
  945MOL0     H27570   3.049   7.601  10.445 -1.0452 -0.1217  0.9346
  945MOL0     H27571   2.993   7.221  10.249  1.5094 -1.7635  2.8713
  945MOL0     H27572   2.367   7.542  10.451  1.4691 -0.0215 -0.3207
  945MOL0     H27573   2.054   7.472  10.354  0.3477 -0.5664 -0.5069
  945MOL0     H27574   2.141   7.632  10.354 -2.6602  1.3469 -0.9524
  945MOL0     H27575   2.078   7.560  10.209 -1.1548 -2.6772 -0.2566
  946MOL0     O27576   1.633  10.692   4.118 -0.6841  0.2424  0.0290
  946MOL0     C27577   1.697  10.680   4.011  0.9050  0.2109 -0.6457
  946MOL0     O27578   1.814  10.734   3.981  0.1854  1.0488 -0.2731
  946MOL0     C27579   1.908  10.775   4.072 -0.1257  0.3477 -0.8450
  946MOL0     C27580   1.994  10.881   4.044  0.6763  0.3076  0.7086
  946MOL0     C27581   2.084  10.932   4.144  0.5369  0.2490 -0.3153
  946MOL0     C27582   2.093  10.877   4.271 -0.5087  0.3088  0.3647
  946MOL0     O27583   2.181  10.913   4.370  0.3172  0.5650  1.2241
  946MOL0     C27584   2.233  11.042   4.361 -0.3553  0.1656  0.2364
  946MOL0     C27585   2.285  11.077   4.492  0.4188  0.1849 -0.4869
  946MOL0     C27586   2.365  11.210   4.504  0.6618 -0.0100 -0.2845
  946MOL0     C27587   2.270  11.330   4.469  0.1852 -0.5740  0.2654
  946MOL0     C27588   2.345  11.460   4.512 -0.8653 -0.7919  0.3388
  946MOL0     C27589   2.441  11.512   4.397 -0.6165  0.1162 -0.2467
  946MOL0     C27590   2.531  11.629   4.436 -1.1525  0.4086 -0.0404
  946MOL0     C27591   2.623  11.658   4.312 -0.5284 -0.0236  0.1228
  946MOL0     N27592   2.663  11.798   4.311  0.0043 -0.2317 -0.3053
  946MOL0     C27593   2.748  11.847   4.407 -1.0316 -0.9289  0.8814
  946MOL0     C27594   2.755  11.978   4.381 -1.4507 -0.8072  1.2205
  946MOL0     C27595   2.847  12.069   4.441 -0.1228  0.3935  0.0706
  946MOL0     C27596   2.984  12.071   4.370 -0.4327 -0.1290 -0.3735
  946MOL0     C27597   2.997  12.200   4.268 -0.7768  0.3583 -0.1454
  946MOL0     C27598   3.135  12.223   4.209  0.1670  0.6952 -0.5528
  946MOL0     O27599   3.225  12.275   4.313 -0.7402  1.1142  0.1329
  946MOL0     C27600   3.365  12.273   4.300  0.1936  0.2357 -0.2307
  946MOL0     C27601   3.435  12.368   4.369 -0.4629 -0.8940  0.0676
  946MOL0     C27602   3.574  12.381   4.345 -0.4227 -0.1924  0.7143
  946MOL0     C27603   3.643  12.290   4.259 -1.0620 -0.7289 -0.2391
  946MOL0     C27604   3.792  12.309   4.219  0.2880 -0.3267 -0.5223
  946MOL0     O27605   3.839  12.213   4.129 -0.1630  0.0048  0.9294
  946MOL0     C27606   3.958  12.228   4.073 -0.3051 -0.6715  0.0078
  946MOL0     C27607   4.082  12.295   4.118  1.4285 -0.3933 -0.4352
  946MOL0     C27608   4.199  12.286   4.051 -0.6692  0.3440  0.0044
  946MOL0     C27609   4.215  12.213   3.934  0.0029  0.2279  0.0654
  946MOL0     O27610   4.332  12.199   3.860  0.2483 -0.3085  0.5541
  946MOL0     C27611   4.458  12.244   3.915  0.6964 -0.5481 -0.5197
  946MOL0     C27612   4.573  12.183   3.823 -0.4840  0.1647  0.6960
  946MOL0     C27613   4.686  12.285   3.803 -0.2561  0.8217 -0.2928
  946MOL0     C27614   4.815  12.216   3.751  0.3061  0.8648 -0.7356
  946MOL0     C27615   4.921  12.317   3.714  0.2571  0.1221 -0.5751
  946MOL0     C27616   5.060  12.264   3.670 -0.5101  0.4034 -0.7230
  946MOL0     C27617   5.141  12.388   3.633 -0.0034 -0.0246 -0.1923
  946MOL0     C27618   5.292  12.351   3.610  1.0595  0.0308  0.3903
  946MOL0    Cl27619   5.312  12.224   3.487 -0.0014 -0.0677  0.4121
  946MOL0     C27620   4.097  12.136   3.889 -0.7199 -0.0239  0.1925
  946MOL0     C27621   3.972  12.141   3.961  0.5585  0.5787  0.3904
  946MOL0     O27622   3.848  12.408   4.263 -0.2954  0.5226  0.4208
  946MOL0     C27623   3.569  12.193   4.200 -0.0167  0.3601  0.2844
  946MOL0     C27624   3.431  12.193   4.207  1.1090  0.5512  0.1968
  946MOL0     N27625   2.668  12.010   4.281 -0.2661  0.2781 -0.5731
  946MOL0     N27626   2.613  11.901   4.238 -0.1647 -0.2555  0.6535
  946MOL0     C27627   2.019  10.764   4.297 -0.0597  0.6473 -0.2559
  946MOL0     C27628   1.929  10.707   4.199  0.2860  0.3534  0.1338
  946MOL0     C27629   1.632  10.601   3.900 -0.2535 -0.9156  0.6458
  946MOL0     C27630   1.502  10.640   3.862 -0.8786 -0.0846 -0.2020
  946MOL0     C27631   1.438  10.561   3.762 -0.1565 -0.4967  0.2253
  946MOL0     C27632   1.480  10.446   3.706 -1.1321  0.2213  0.1665
  946MOL0     O27633   1.395  10.389   3.618 -0.2382  0.1646  0.8561
  946MOL0     C27634   1.404  10.246   3.600  0.2975  0.2919 -0.2939
  946MOL0     C27635   1.285  10.201   3.523 -0.2518  0.2994 -0.0966
  946MOL0     C27636   1.186  10.144   3.614 -0.2799 -0.0242 -0.1421
  946MOL0     C27637   1.057  10.104   3.543 -0.1065 -0.1636  0.5102
  946MOL0     C27638   0.981  10.016   3.636 -0.4563 -0.2851  0.5470
  946MOL0     C27639   0.922   9.946   3.711 -0.0927  0.2151 -0.7929
  946MOL0     C27640   1.612  10.409   3.748 -0.1834 -0.4933 -0.6102
  946MOL0     C27641   1.687  10.488   3.838 -0.1671  0.0335 -0.8462
  946MOL0     C27642   1.826  10.419   3.874 -0.1481  0.1185 -0.4539
  946MOL0     H27643   1.977  10.942   3.956  0.9490 -0.0792  0.3835
  946MOL0     H27644   2.142  11.020   4.118  0.5046  0.1495 -0.7362
  946MOL0     H27645   2.306  11.050   4.279 -0.5255  1.5845  0.2142
  946MOL0     H27646   2.155  11.115   4.343  1.1732  1.9800  0.6593
  946MOL0     H27647   2.343  10.992   4.530 -1.3288 -1.8799 -2.1922
  946MOL0     H27648   2.207  11.093   4.567 -0.7855 -0.5869 -1.5383
  946MOL0     H27649   2.449  11.201   4.434  0.2834 -2.4002 -0.5177
  946MOL0     H27650   2.404  11.214   4.606 -1.1517 -2.8995  0.6594
  946MOL0     H27651   2.245  11.338   4.363  0.9384 -3.9083 -0.2631
  946MOL0     H27652   2.180  11.322   4.531 -1.4647  2.3298 -1.5282
  946MOL0     H27653   2.282  11.547   4.531 -0.1160 -0.6799  2.6880
  946MOL0     H27654   2.404  11.437   4.602 -1.6476 -0.6695  0.8953
  946MOL0     H27655   2.510  11.429   4.383 -0.5882 -0.0282  0.6967
  946MOL0     H27656   2.388  11.527   4.302 -0.1616 -1.7958 -0.8450
  946MOL0     H27657   2.581  11.611   4.531 -1.0941  2.1621  0.2906
  946MOL0     H27658   2.466  11.715   4.450 -2.5303 -0.3067 -1.6620
  946MOL0     H27659   2.708  11.589   4.321 -0.6946  0.0369  2.8277
  946MOL0     H27660   2.568  11.630   4.222  0.0169 -2.9189  0.5953
  946MOL0     H27661   2.814  11.808   4.484  2.7173  4.4650  0.9801
  946MOL0     H27662   2.807  12.171   4.436 -2.1264 -0.3447  0.5073
  946MOL0     H27663   2.857  12.047   4.547 -1.0748  1.9562  0.5112
  946MOL0     H27664   3.060  12.070   4.448 -1.1439 -0.2256  0.3301
  946MOL0     H27665   3.009  11.990   4.301  0.2664 -1.5582  1.4719
  946MOL0     H27666   2.969  12.296   4.312 -0.6333 -0.1843  1.1558
  946MOL0     H27667   2.932  12.183   4.181 -0.5818  0.6377 -0.3439
  946MOL0     H27668   3.125  12.294   4.126 -0.4831 -0.2915 -1.3475
  946MOL0     H27669   3.163  12.122   4.178 -2.6962 -0.3515 -0.0767
  946MOL0     H27670   3.386  12.438   4.436  1.9150  1.7218 -0.7225
  946MOL0     H27671   3.624  12.469   4.382 -1.5585  0.8485 -0.1329
  946MOL0     H27672   4.081  12.367   4.200  0.4041 -0.0091 -0.7719
  946MOL0     H27673   4.273  12.356   4.088 -0.7518 -0.3826  1.6053
  946MOL0     H27674   4.459  12.353   3.902  0.6251 -0.7132 -2.2738
  946MOL0     H27675   4.465  12.218   4.020  0.4706  1.4348  0.0336
  946MOL0     H27676   4.608  12.083   3.851 -0.5088  0.2989  1.2051
  946MOL0     H27677   4.531  12.174   3.722  2.5685  2.5807 -0.9874
  946MOL0     H27678   4.655  12.349   3.720 -0.9816 -1.3051 -1.7691
  946MOL0     H27679   4.712  12.337   3.896  1.8662  1.2840 -1.0883
  946MOL0     H27680   4.784  12.150   3.670 -1.4893  0.8888 -0.1270
  946MOL0     H27681   4.865  12.147   3.820 -1.6233 -0.1032 -0.2302
  946MOL0     H27682   4.948  12.378   3.800  1.2418  0.1489 -0.8880
  946MOL0     H27683   4.888  12.387   3.637 -1.3738  0.0284  0.0111
  946MOL0     H27684   5.113  12.210   3.748  2.9019  1.3367 -2.1905
  946MOL0     H27685   5.049  12.191   3.590 -2.0824  0.9216 -1.0027
  946MOL0     H27686   5.125  12.464   3.710 -2.9941  1.2834 -1.9026
  946MOL0     H27687   5.106  12.433   3.539  0.5982  0.1533 -0.3354
  946MOL0     H27688   5.345  12.443   3.584 -2.5492  2.3747  0.5797
  946MOL0     H27689   5.344  12.320   3.701  1.9711 -0.8840 -0.4226
  946MOL0     H27690   4.110  12.077   3.799 -2.6870  0.7148 -0.6275
  946MOL0     H27691   3.882  12.095   3.920  0.1196  2.0163 -0.3356
  946MOL0     H27692   3.606  12.115   4.134 -4.3350 -3.2910  1.6334
  946MOL0     H27693   3.376  12.136   4.133 -0.4116  0.3730  1.4057
  946MOL0     H27694   2.024  10.710   4.390 -0.4279 -0.7725 -1.0343
  946MOL0     H27695   1.871  10.617   4.221  0.9474  0.0426  0.6350
  946MOL0     H27696   1.468  10.724   3.921  2.2098  1.4814 -0.4634
  946MOL0     H27697   1.347  10.611   3.730  0.4233 -0.4976 -1.4788
  946MOL0     H27698   1.424  10.184   3.687  0.8801 -2.8796 -2.5151
  946MOL0     H27699   1.493  10.230   3.538  0.6943 -1.6217  0.7142
  946MOL0     H27700   1.301  10.130   3.442 -1.3431  2.1985 -2.0991
  946MOL0     H27701   1.230  10.283   3.475  0.3342 -0.1219 -1.5515
  946MOL0     H27702   1.169  10.216   3.694  2.2500 -1.2709  1.6365
  946MOL0     H27703   1.222  10.052   3.659 -0.2472  0.1112  0.1110
  946MOL0     H27704   1.001  10.195   3.522 -0.3776 -0.2609  0.7994
  946MOL0     H27705   1.085  10.057   3.449  3.0190  1.6545  0.4113
  946MOL0     H27706   0.867   9.879   3.774  0.9934 -0.1705 -0.2207
  946MOL0     H27707   1.657  10.319   3.708  2.4295  1.1566 -1.6653
  946MOL0     H27708   1.891  10.486   3.931  1.4713 -1.0252 -0.8898
  946MOL0     H27709   1.812  10.323   3.924 -0.0306 -0.2265 -1.0771
  946MOL0     H27710   1.871  10.392   3.778 -1.1788  0.7241 -1.1313
  947MOL0     O27711   7.097   0.630   0.404  0.2155  0.3013 -0.4966
  947MOL0     C27712   7.143   0.527   0.451 -0.4071  0.2068 -0.0598
  947MOL0     O27713   7.082   0.409   0.453  0.6233 -0.2953 -0.2784
  947MOL0     C27714   6.947   0.400   0.422  0.0373  0.2112 -0.0957
  947MOL0     C27715   6.898   0.433   0.292 -0.9420  0.5784 -0.9647
  947MOL0     C27716   6.764   0.422   0.259  0.2260  0.7607  0.0372
  947MOL0     C27717   6.671   0.378   0.355 -0.4290 -0.0583  0.1994
  947MOL0     O27718   6.538   0.354   0.330  0.4931  0.0375  0.3853
  947MOL0     C27719   6.480   0.381   0.200  0.7259 -0.4890  1.0106
  947MOL0     C27720   6.325   0.375   0.211  0.8511 -0.6996 -0.4349
  947MOL0     C27721   6.268   0.491   0.286  0.2856  0.3363 -0.8741
  947MOL0     C27722   6.119   0.495   0.282 -0.3172  0.2050 -0.4531
  947MOL0     C27723   6.050   0.600   0.371 -0.1391  0.3526  0.4462
  947MOL0     C27724   6.062   0.587   0.521 -0.0192  0.6240 -0.3707
  947MOL0     C27725   5.987   0.691   0.603  0.0465  0.3549  0.4000
  947MOL0     C27726   5.837   0.673   0.582 -0.1142  0.1852 -0.2563
  947MOL0     N27727   5.762   0.728   0.693  0.1369 -0.8149  0.8689
  947MOL0     C27728   5.816   0.752   0.822 -0.1582 -1.0273  0.4190
  947MOL0     C27729   5.712   0.825   0.877  0.2099 -0.9670 -0.6020
  947MOL0     C27730   5.700   0.859   1.018  0.0768  0.4685  0.9826
  947MOL0     C27731   5.672   0.741   1.110  0.2580 -0.0818  0.5511
  947MOL0     C27732   5.783   0.636   1.152  0.1377  0.0052  0.8184
  947MOL0     C27733   5.932   0.698   1.189  0.5813  0.0139  0.3682
  947MOL0     O27734   6.014   0.711   1.068 -0.1994 -0.0707  0.2401
  947MOL0     C27735   6.134   0.772   1.062  0.3479  1.3159  0.4681
  947MOL0     C27736   6.181   0.844   0.944 -0.6001  0.2857  0.1670
  947MOL0     C27737   6.308   0.894   0.929 -0.2593 -0.1829  0.0018
  947MOL0     C27738   6.400   0.877   1.039 -0.3853  0.3247 -0.0653
  947MOL0     C27739   6.541   0.941   1.023  0.4156 -0.0331 -0.1046
  947MOL0     O27740   6.624   0.904   1.118 -0.8064 -0.6192  0.0379
  947MOL0     C27741   6.747   0.956   1.113 -0.0133  0.6210  0.5414
  947MOL0     C27742   6.770   1.074   1.185  0.4480  0.1510 -0.4674
  947MOL0     C27743   6.900   1.116   1.193 -0.7975 -0.1062  0.1986
  947MOL0     C27744   7.008   1.041   1.136 -0.0432 -0.3202  0.1172
  947MOL0     O27745   7.139   1.082   1.163  0.4244 -0.1335 -0.0928
  947MOL0     C27746   7.240   0.988   1.135 -0.2060  0.4205  0.0428
  947MOL0     C27747   7.363   1.033   1.215  1.0925  0.1463 -0.1740
  947MOL0     C27748   7.467   0.936   1.187  0.5519  0.7367 -0.0348
  947MOL0     C27749   7.611   0.989   1.225  0.3352  0.1503  0.2356
  947MOL0     C27750   7.710   0.866   1.223 -0.1317  0.1505 -0.2773
  947MOL0     C27751   7.858   0.912   1.252  0.3682  1.1422  0.6905
  947MOL0     C27752   7.886   0.977   1.388  0.0868  0.7900  0.1136
  947MOL0     C27753   8.044   0.980   1.408  0.0880 -0.2676 -0.4135
  947MOL0    Cl27754   8.097   1.083   1.550 -0.3319  0.2429 -0.1194
  947MOL0     C27755   6.975   0.930   1.054 -0.4140  0.4024 -0.2361
  947MOL0     C27756   6.844   0.894   1.029 -0.2631  0.8215  0.0999
  947MOL0     O27757   6.554   1.018   0.927 -0.6691 -0.9292  0.5076
  947MOL0     C27758   6.363   0.820   1.155 -0.0746  0.1445 -0.2192
  947MOL0     C27759   6.228   0.772   1.167 -0.4630  0.3513 -0.0862
  947MOL0     N27760   5.619   0.851   0.783  0.8310  0.0455  0.3557
  947MOL0     N27761   5.640   0.792   0.673  0.6440 -0.8009 -0.1925
  947MOL0     C27762   6.716   0.366   0.491  0.5904 -0.8367  0.8727
  947MOL0     C27763   6.852   0.370   0.522  0.1685 -0.8334  0.2865
  947MOL0     C27764   7.279   0.527   0.509  0.5423 -0.1231  0.3069
  947MOL0     C27765   7.297   0.449   0.617  0.0408 -0.2959  0.3632
  947MOL0     C27766   7.423   0.429   0.671  0.1160 -1.1516  0.3929
  947MOL0     C27767   7.533   0.493   0.612 -0.0224 -0.1834  0.4527
  947MOL0     O27768   7.662   0.444   0.655 -0.0626 -0.3108  0.7839
  947MOL0     C27769   7.773   0.517   0.597 -0.0545  0.1500 -0.5983
  947MOL0     C27770   7.896   0.480   0.683  0.1329  0.1816 -0.5926
  947MOL0     C27771   8.019   0.550   0.613 -0.1398 -1.2398  0.0269
  947MOL0     C27772   8.148   0.532   0.691  0.1250 -0.7585 -0.1907
  947MOL0     C27773   8.199   0.400   0.665 -0.3563  0.1677 -0.3088
  947MOL0     C27774   8.252   0.289   0.635 -0.5121  0.4579 -0.0755
  947MOL0     C27775   7.515   0.574   0.501  0.2037 -0.2181 -0.0768
  947MOL0     C27776   7.387   0.593   0.445 -0.3807  0.4168 -0.2277
  947MOL0     C27777   7.374   0.662   0.308 -0.1177  0.0884 -0.4556
  947MOL0     H27778   6.974   0.458   0.218 -0.2040  1.5349  0.0789
  947MOL0     H27779   6.747   0.438   0.153  1.0675  2.0851  0.0801
  947MOL0     H27780   6.504   0.481   0.161  0.7938 -1.8328 -2.8835
  947MOL0     H27781   6.511   0.310   0.123 -0.7861 -1.9203  1.6656
  947MOL0     H27782   6.290   0.283   0.258 -1.7572 -1.1677 -2.9663
  947MOL0     H27783   6.285   0.372   0.109  0.4152  2.1083 -0.4279
  947MOL0     H27784   6.305   0.592   0.270 -1.5471  1.8120  2.9476
  947MOL0     H27785   6.287   0.471   0.392 -2.8495 -1.0021 -0.4490
  947MOL0     H27786   6.083   0.493   0.178 -1.7299  0.3616  0.0135
  947MOL0     H27787   6.092   0.396   0.321  0.7354 -0.5715 -1.5952
  947MOL0     H27788   6.099   0.693   0.340 -1.0779  0.5775 -0.4320
  947MOL0     H27789   5.947   0.596   0.333 -0.9238  0.1126  2.4395
  947MOL0     H27790   6.037   0.490   0.565 -2.7199  1.3360 -0.1535
  947MOL0     H27791   6.168   0.596   0.548  0.3411  0.7848 -1.7757
  947MOL0     H27792   6.025   0.791   0.579  0.3456  0.2165  0.2954
  947MOL0     H27793   6.025   0.672   0.704  1.7093  0.3778 -0.1902
  947MOL0     H27794   5.811   0.718   0.485  0.0414 -1.4219 -1.0839
  947MOL0     H27795   5.811   0.567   0.571  0.2805  0.2972 -3.3176
  947MOL0     H27796   5.902   0.713   0.875  0.0055  0.1512  1.0413
  947MOL0     H27797   5.795   0.904   1.050  0.3723 -0.3994  1.3465
  947MOL0     H27798   5.620   0.934   1.023  0.4137  1.0305 -1.1981
  947MOL0     H27799   5.630   0.790   1.199  1.5565 -1.4661  1.9758
  947MOL0     H27800   5.590   0.687   1.061 -1.5061  1.3435  1.7634
  947MOL0     H27801   5.797   0.555   1.079  1.9700  1.5561 -0.6620
  947MOL0     H27802   5.750   0.585   1.243 -0.7962  2.1640  1.7288
  947MOL0     H27803   5.983   0.626   1.254  0.5702 -0.7643 -0.4545
  947MOL0     H27804   5.921   0.793   1.241  0.0532 -0.7213  1.6449
  947MOL0     H27805   6.119   0.863   0.858  2.1089  0.3198 -1.9099
  947MOL0     H27806   6.329   0.957   0.843 -1.5415  1.0673  0.5361
  947MOL0     H27807   6.689   1.135   1.224  1.2865  0.5311  0.7551
  947MOL0     H27808   6.919   1.209   1.245  0.7734  0.0850 -0.6588
  947MOL0     H27809   7.203   0.886   1.150  0.7113 -0.4662 -2.9548
  947MOL0     H27810   7.254   0.993   1.027 -1.0382 -2.3032 -0.2617
  947MOL0     H27811   7.389   1.137   1.193 -0.9420  1.1005  1.5787
  947MOL0     H27812   7.352   1.024   1.323 -0.4896  0.7738 -0.2468
  947MOL0     H27813   7.441   0.851   1.250  0.7132 -0.4121 -1.4925
  947MOL0     H27814   7.467   0.911   1.081 -0.4280  0.4621  0.0280
  947MOL0     H27815   7.602   1.036   1.324  1.0408  2.5009 -0.7271
  947MOL0     H27816   7.639   1.074   1.161 -2.0983  1.3256  0.6232
  947MOL0     H27817   7.704   0.814   1.127  2.2502  0.4005 -0.6178
  947MOL0     H27818   7.685   0.790   1.297 -2.6681  0.2831 -0.9007
  947MOL0     H27819   7.923   0.823   1.245 -0.2764  0.6921  0.3272
  947MOL0     H27820   7.880   0.991   1.180 -1.5130  2.2622  1.2889
  947MOL0     H27821   7.844   0.921   1.471  0.1045 -1.4155 -1.2867
  947MOL0     H27822   7.841   1.076   1.382 -0.7334  0.4024 -0.2435
  947MOL0     H27823   8.084   0.879   1.419 -0.9636 -0.7460 -0.8911
  947MOL0     H27824   8.082   1.027   1.316  0.1802 -0.4578 -0.4740
  947MOL0     H27825   7.054   0.868   1.012  0.2828  1.5240 -0.6017
  947MOL0     H27826   6.826   0.810   0.963 -0.3756  0.5683  0.4499
  947MOL0     H27827   6.431   0.809   1.238  0.2161  3.0499  0.0248
  947MOL0     H27828   6.199   0.737   1.266 -2.2112  0.9670 -0.3435
  947MOL0     H27829   6.637   0.332   0.557 -1.8482  2.9114  0.2044
  947MOL0     H27830   6.894   0.340   0.617  3.1752  0.8278 -0.4106
  947MOL0     H27831   7.207   0.395   0.647 -0.0212 -0.1700  0.4033
  947MOL0     H27832   7.447   0.365   0.755  2.1886 -1.3424 -0.2965
  947MOL0     H27833   7.751   0.624   0.602 -0.3297  0.0632  0.3735
  947MOL0     H27834   7.795   0.501   0.491  0.1867 -1.5229 -0.3147
  947MOL0     H27835   7.913   0.372   0.672  1.5837  0.4653 -1.3217
  947MOL0     H27836   7.890   0.501   0.790  0.4006  0.4606 -0.6322
  947MOL0     H27837   8.005   0.658   0.618 -0.6523 -1.3382  0.9569
  947MOL0     H27838   8.029   0.520   0.508 -1.3425 -1.3514 -0.0687
  947MOL0     H27839   8.211   0.615   0.657  0.2051 -0.3284  0.9625
  947MOL0     H27840   8.133   0.550   0.797  0.0195  0.6244 -0.4193
  947MOL0     H27841   8.297   0.193   0.615  1.7077  0.6458  3.2563
  947MOL0     H27842   7.593   0.635   0.457 -1.4757  3.1974  1.2154
  947MOL0     H27843   7.299   0.742   0.317 -1.4359 -1.2802  1.8114
  947MOL0     H27844   7.464   0.711   0.270 -1.1216  0.8018 -2.0071
  947MOL0     H27845   7.340   0.585   0.239  0.4796 -0.2838 -0.3376
  948MOL0     O27846   7.140  10.440  11.305  0.0192 -0.2133 -0.7878
  948MOL0     C27847   7.210  10.379  11.226  1.1356  0.3054 -0.2924
  948MOL0     O27848   7.329  10.418  11.193  0.4086  0.4115  0.2133
  948MOL0     C27849   7.381  10.538  11.235  0.0384  0.0611  0.5484
  948MOL0     C27850   7.519  10.545  11.279  0.7208  1.0430  0.1474
  948MOL0     C27851   7.571  10.666  11.324  0.6692 -0.0591 -0.6132
  948MOL0     C27852   7.502  10.783  11.301 -0.3842 -0.4829 -0.5364
  948MOL0     O27853   7.547  10.908  11.322  0.1533  0.0450  0.3692
  948MOL0     C27854   7.676  10.927  11.389  0.3065  0.6241  0.0458
  948MOL0     C27855   7.734  11.072  11.373  1.0270  0.5604 -0.6193
  948MOL0     C27856   7.864  11.089  11.464 -0.7958  0.7414  0.8015
  948MOL0     C27857   7.897  11.240  11.461 -0.0356  0.0183  0.0585
  948MOL0     C27858   8.028  11.284  11.523  0.0701  0.0120  0.1069
  948MOL0     C27859   8.152  11.217  11.466 -0.0185  0.4808 -0.0366
  948MOL0     C27860   8.279  11.302  11.499 -0.1947  0.2432 -0.0594
  948MOL0     C27861   8.321  11.296  11.646  0.5068  0.4514 -0.0647
  948MOL0     N27862   8.448  11.362  11.670  0.1227  0.5913 -0.2665
  948MOL0     C27863   8.571  11.295  11.676  0.0943 -0.4277  0.4480
  948MOL0     C27864   8.667  11.398  11.677 -0.2459 -0.5072 -0.5056
  948MOL0     C27865   8.811  11.400  11.702 -0.5359  0.6966 -0.6511
  948MOL0     C27866   8.855  11.266  11.775  0.1335 -0.1144 -0.3831
  948MOL0     C27867   8.986  11.283  11.846 -0.2199 -0.8844 -0.6006
  948MOL0     C27868   9.099  11.324  11.757 -0.2755 -0.4198 -0.2607
  948MOL0     O27869   9.115  11.221  11.651  0.8358  0.1986 -0.5302
  948MOL0     C27870   9.215  11.129  11.656  0.3722 -0.5612 -0.0167
  948MOL0     C27871   9.231  11.048  11.543 -1.0032 -0.2199 -0.4222
  948MOL0     C27872   9.332  10.952  11.543  1.2000 -0.1320  0.1130
  948MOL0     C27873   9.415  10.939  11.652 -0.6545  0.7335 -0.3098
  948MOL0     C27874   9.533  10.850  11.646 -0.0407  0.7213  0.5463
  948MOL0     O27875   9.625  10.858  11.751 -0.2254 -0.8427  0.4422
  948MOL0     C27876   9.744  10.785  11.748 -0.1627  0.3148 -0.5685
  948MOL0     C27877   9.819  10.771  11.633 -0.0708  0.0989 -0.9552
  948MOL0     C27878   9.932  10.695  11.631 -0.2759  0.4911  0.6698
  948MOL0     C27879   9.991  10.656  11.748  0.9244 -0.5478 -0.0447
  948MOL0     O27880  10.117  10.602  11.728  0.1400 -0.1330 -0.1876
  948MOL0     C27881  10.191  10.531  11.837 -0.8018 -0.0906  0.1725
  948MOL0     C27882  10.281  10.638  11.916  0.7323  0.8222  0.4114
  948MOL0     C27883  10.351  10.731  11.814 -0.3130  0.6272 -0.3953
  948MOL0     C27884  10.417  10.662  11.694  0.0743  0.4255 -0.5551
  948MOL0     C27885  10.419  10.766  11.590 -0.6613 -0.3579  0.3619
  948MOL0     C27886  10.470  10.712  11.456 -0.7556  0.0235  0.5149
  948MOL0     C27887  10.621  10.670  11.466  0.2970  0.2807 -0.2198
  948MOL0     C27888  10.687  10.642  11.328 -0.5873 -0.0355 -0.3372
  948MOL0    Cl27889  10.863  10.604  11.346 -0.0662 -0.1056 -0.0669
  948MOL0     C27890   9.937  10.694  11.865 -0.1753 -0.4351  0.0267
  948MOL0     C27891   9.812  10.759  11.871 -0.5185  0.2686  0.3476
  948MOL0     O27892   9.530  10.760  11.561  0.1878  0.1012 -0.1998
  948MOL0     C27893   9.395  11.009  11.770 -0.1840 -0.6178 -0.4673
  948MOL0     C27894   9.296  11.108  11.768  0.6923  0.0173 -0.4768
  948MOL0     N27895   8.599  11.520  11.686  0.1761  0.4867 -0.4430
  948MOL0     N27896   8.471  11.494  11.675  0.1837 -0.9251  0.0415
  948MOL0     C27897   7.372  10.775  11.250  0.1750  0.0659 -0.1390
  948MOL0     C27898   7.301  10.651  11.238 -0.1754 -0.2792 -0.2709
  948MOL0     C27899   7.148  10.254  11.157  0.4439 -0.0477 -0.9055
  948MOL0     C27900   7.231  10.174  11.085 -1.0915  0.6086  0.0255
  948MOL0     C27901   7.191  10.052  11.044 -0.5701 -0.7056  0.8382
  948MOL0     C27902   7.053  10.008  11.047 -0.7744 -0.4363 -0.0228
  948MOL0     O27903   7.032   9.875  11.012 -0.5614  1.4711 -0.2191
  948MOL0     C27904   6.924   9.798  11.074 -0.1183 -0.3461 -0.5788
  948MOL0     C27905   6.947   9.655  11.034 -0.5428 -0.1467 -0.0919
  948MOL0     C27906   6.873   9.573  11.137 -0.3050  0.7950 -0.0321
  948MOL0     C27907   6.882   9.424  11.095 -0.0717  1.5166  0.1239
  948MOL0     C27908   7.020   9.372  11.090 -0.0771  0.3976  0.1861
  948MOL0     C27909   7.136   9.332  11.104 -0.9301  0.3036 -0.0517
  948MOL0     C27910   6.965  10.097  11.106  0.6268  0.0161  1.1730
  948MOL0     C27911   7.009  10.217  11.163  0.4087 -0.0588 -0.8109
  948MOL0     C27912   6.912  10.277  11.268 -0.3323  0.1684 -0.4061
  948MOL0     H27913   7.579  10.454  11.285  0.2177  0.7875  2.0707
  948MOL0     H27914   7.674  10.666  11.358  0.4568  0.5836  0.0594
  948MOL0     H27915   7.662  10.903  11.495 -3.2027 -2.9185 -0.9472
  948MOL0     H27916   7.746  10.857  11.344 -0.5606  0.5069 -1.1875
  948MOL0     H27917   7.661  11.140  11.417 -0.1826 -1.6654  1.0514
  948MOL0     H27918   7.771  11.090  11.272  1.2105 -1.5113 -0.9686
  948MOL0     H27919   7.944  11.023  11.428 -2.9789 -0.6624 -1.8755
  948MOL0     H27920   7.842  11.055  11.566 -0.6433 -0.1944  0.5356
  948MOL0     H27921   7.899  11.270  11.356 -0.2021  1.5067  0.4464
  948MOL0     H27922   7.817  11.295  11.513  2.1730  4.7923 -1.0561
  948MOL0     H27923   8.040  11.391  11.504  0.6775  0.0468  0.6646
  948MOL0     H27924   8.022  11.274  11.632  1.3545  1.6291  0.3632
  948MOL0     H27925   8.153  11.117  11.509 -0.6894  0.2658 -0.5016
  948MOL0     H27926   8.150  11.205  11.357  0.6463  2.6432 -0.3371
  948MOL0     H27927   8.252  11.406  11.479 -0.1013  0.0393 -1.3633
  948MOL0     H27928   8.362  11.276  11.433 -0.5025  0.1489 -0.4144
  948MOL0     H27929   8.249  11.346  11.710 -0.5765  1.6225 -2.1046
  948MOL0     H27930   8.327  11.190  11.671  1.8536  1.1164  2.7840
  948MOL0     H27931   8.588  11.188  11.667 -1.9819 -0.8603  1.1849
  948MOL0     H27932   8.860  11.395  11.604  0.8985 -0.1572  0.0809
  948MOL0     H27933   8.849  11.490  11.751  0.1335  0.5848 -0.9574
  948MOL0     H27934   8.782  11.242  11.853 -1.1598 -0.9240 -1.7871
  948MOL0     H27935   8.853  11.175  11.714 -0.2435 -0.9176  0.7949
  948MOL0     H27936   9.007  11.188  11.894  2.0171  0.2075  0.7334
  948MOL0     H27937   8.978  11.359  11.925 -0.9653 -0.4297 -1.0980
  948MOL0     H27938   9.188  11.328  11.820 -0.6088 -3.2096  0.5471
  948MOL0     H27939   9.092  11.425  11.717  2.4935  0.7364  1.9002
  948MOL0     H27940   9.173  11.059  11.452 -0.9246 -0.8418 -0.5510
  948MOL0     H27941   9.349  10.888  11.456  0.5730 -2.5689  1.6916
  948MOL0     H27942   9.784  10.801  11.534 -2.5671 -1.0052 -0.5042
  948MOL0     H27943   9.981  10.687  11.535 -2.9933 -0.8154 -0.7139
  948MOL0     H27944  10.122  10.481  11.905 -0.2390  0.6312  1.3048
  948MOL0     H27945  10.256  10.453  11.797 -1.0382 -1.4715  2.3305
  948MOL0     H27946  10.212  10.686  11.987 -0.8597  0.5734 -0.9070
  948MOL0     H27947  10.348  10.581  11.981  0.0834  0.6706  0.9676
  948MOL0     H27948  10.266  10.783  11.769 -2.2299 -1.9689  0.0137
  948MOL0     H27949  10.422  10.804  11.855 -0.5877  1.2282 -0.9712
  948MOL0     H27950  10.363  10.577  11.652  1.4885  0.1706 -1.9411
  948MOL0     H27951  10.514  10.618  11.717 -0.4549 -0.4006  0.1605
  948MOL0     H27952  10.486  10.845  11.624  2.8630 -2.7345 -0.5235
  948MOL0     H27953  10.317  10.798  11.569  0.1735  1.3149 -1.4447
  948MOL0     H27954  10.416  10.623  11.423 -0.4326 -1.0909  2.7865
  948MOL0     H27955  10.459  10.790  11.380 -2.0590  0.1005  0.7569
  948MOL0     H27956  10.623  10.570  11.511 -2.6816  0.7797  1.1890
  948MOL0     H27957  10.677  10.732  11.537 -0.9927 -1.2997  2.3212
  948MOL0     H27958  10.644  10.564  11.264  1.1767 -1.6767  0.3943
  948MOL0     H27959  10.687  10.736  11.272  0.0152 -1.2346 -2.4645
  948MOL0     H27960  10.001  10.662  11.948  1.9572 -0.3655 -1.5105
  948MOL0     H27961   9.780  10.786  11.971 -1.7005 -1.1282  0.3887
  948MOL0     H27962   9.468  11.012  11.851  0.1697  2.0896 -0.7910
  948MOL0     H27963   9.286  11.171  11.856 -0.7377 -1.5947  0.5833
  948MOL0     H27964   7.319  10.866  11.226  1.0148  0.6570  0.2106
  948MOL0     H27965   7.201  10.655  11.196 -0.6047  0.1831  0.7413
  948MOL0     H27966   7.334  10.205  11.066 -0.6973 -1.1701 -1.0513
  948MOL0     H27967   7.266   9.989  10.998  1.6877  1.3895  1.4495
  948MOL0     H27968   6.827   9.831  11.035  0.5280  0.7094 -1.3329
  948MOL0     H27969   6.923   9.803  11.183 -0.2069 -0.3577 -0.5790
  948MOL0     H27970   7.055   9.648  11.018 -0.3321  2.5921 -0.2043
  948MOL0     H27971   6.896   9.639  10.939  0.0187 -1.8747 -0.1371
  948MOL0     H27972   6.768   9.594  11.156 -1.1470 -0.9157 -2.3531
  948MOL0     H27973   6.926   9.580  11.233  1.3571 -0.9051 -0.7576
  948MOL0     H27974   6.822   9.360  11.161  0.4613  0.8837 -0.0079
  948MOL0     H27975   6.836   9.405  10.997 -0.2561 -2.9223  0.8669
  948MOL0     H27976   7.233   9.288  11.115 -0.4694  1.1299 -0.6720
  948MOL0     H27977   6.863  10.060  11.113 -0.9084  2.8764 -2.3161
  948MOL0     H27978   6.813  10.230  11.263 -0.1161 -0.4020  0.4172
  948MOL0     H27979   6.946  10.261  11.371 -2.1521 -1.9179 -0.0348
  948MOL0     H27980   6.901  10.384  11.253  1.5711  1.3729  4.5741
  949MOL0     O27981   5.554   5.743  10.301  0.2557  0.4001 -0.5219
  949MOL0     C27982   5.487   5.754  10.202  0.3947 -0.1878 -0.2057
  949MOL0     O27983   5.536   5.752  10.078 -0.2533 -0.1727 -0.3985
  949MOL0     C27984   5.667   5.717  10.059 -0.0396 -0.1055 -0.4743
  949MOL0     C27985   5.773   5.806  10.069  0.4951 -0.2441 -0.5717
  949MOL0     C27986   5.905   5.766  10.039  0.2673  1.0446 -0.6903
  949MOL0     C27987   5.929   5.633  10.006  0.2634 -0.2749  0.6455
  949MOL0     O27988   6.052   5.580   9.985  0.6394 -0.3778 -0.2964
  949MOL0     C27989   6.169   5.639  10.041  1.0536 -0.6161 -0.8276
  949MOL0     C27990   6.288   5.558  10.013 -0.0829 -0.4480 -0.2481
  949MOL0     C27991   6.324   5.550   9.867 -0.2760  0.1951  0.4294
  949MOL0     C27992   6.464   5.496   9.824  0.0787  0.2547  0.8643
  949MOL0     C27993   6.458   5.448   9.674 -0.1873 -0.0058 -0.3474
  949MOL0     C27994   6.603   5.421   9.636  0.4735 -0.0225 -0.6586
  949MOL0     C27995   6.618   5.353   9.503  0.6060  0.0374  0.1005
  949MOL0     C27996   6.757   5.292   9.472 -0.1496 -0.1728 -0.3283
  949MOL0     N27997   6.741   5.200   9.367 -0.7355 -0.3379  0.0083
  949MOL0     C27998   6.693   5.071   9.384  0.1488  0.7252  0.1240
  949MOL0     C27999   6.703   5.012   9.264 -0.8018 -0.3793 -0.9455
  949MOL0     C28000   6.638   4.878   9.235 -0.5902 -0.6733  0.8398
  949MOL0     C28001   6.750   4.771   9.214  0.2426  0.1463 -0.2505
  949MOL0     C28002   6.686   4.628   9.182  0.0910 -0.2909  0.0783
  949MOL0     C28003   6.771   4.523   9.239 -0.3355  1.0939 -0.0994
  949MOL0     O28004   6.900   4.529   9.174  1.6131 -0.3094  0.0093
  949MOL0     C28005   7.001   4.441   9.224 -0.5901 -0.0747  0.2506
  949MOL0     C28006   6.981   4.311   9.283 -0.0635  0.1103  0.0929
  949MOL0     C28007   7.085   4.225   9.320  0.0011  0.5473 -0.7619
  949MOL0     C28008   7.221   4.257   9.310  0.0605 -1.0634  0.4669
  949MOL0     C28009   7.335   4.170   9.346  0.7037 -0.7062  0.1285
  949MOL0     O28010   7.461   4.226   9.340  0.3740 -0.5331 -0.6275
  949MOL0     C28011   7.577   4.167   9.370 -0.2432  0.1629  0.1854
  949MOL0     C28012   7.684   4.259   9.386 -0.4579 -1.0082  0.2727
  949MOL0     C28013   7.812   4.211   9.405 -0.3163  0.4437  0.1066
  949MOL0     C28014   7.840   4.077   9.414  0.4143  0.3332 -0.7676
  949MOL0     O28015   7.969   4.041   9.417 -0.1060  0.3433  0.0701
  949MOL0     C28016   8.017   3.911   9.450  0.6344  0.8290 -0.0601
  949MOL0     C28017   8.166   3.896   9.410  0.6230 -0.3919  0.4780
  949MOL0     C28018   8.240   3.763   9.432 -0.6562 -0.2132  0.3167
  949MOL0     C28019   8.223   3.674   9.310  0.5164  0.6784  0.2229
  949MOL0     C28020   8.242   3.523   9.344  0.0230 -0.5347  0.8082
  949MOL0     C28021   8.374   3.488   9.402 -0.3680  0.7411 -0.3986
  949MOL0     C28022   8.497   3.501   9.305 -0.4590  0.1869  0.0924
  949MOL0     C28023   8.624   3.514   9.386  0.1869  0.5724 -0.1389
  949MOL0    Cl28024   8.661   3.357   9.474  0.3108 -0.3213  0.4678
  949MOL0     C28025   7.736   3.987   9.404  0.0416 -0.2763  0.9196
  949MOL0     C28026   7.603   4.031   9.383 -0.0363  0.5573  0.7329
  949MOL0     O28027   7.305   4.052   9.375 -0.8199  0.0711  0.4757
  949MOL0     C28028   7.249   4.390   9.272  0.6138 -0.1138  0.3034
  949MOL0     C28029   7.144   4.477   9.220  1.2335  1.1594  0.6887
  949MOL0     N28030   6.768   5.104   9.180  0.0949  0.3238 -0.4166
  949MOL0     N28031   6.783   5.214   9.240 -0.1990  0.7158 -0.2238
  949MOL0     C28032   5.823   5.538   9.995  0.6042 -0.6835 -0.0620
  949MOL0     C28033   5.692   5.585  10.021  0.5726  0.7310 -0.5030
  949MOL0     C28034   5.332   5.744  10.213 -0.3658  0.2199 -0.1760
  949MOL0     C28035   5.281   5.770  10.343 -0.0252  0.2184  0.0665
  949MOL0     C28036   5.145   5.781  10.366  0.0445  0.7026 -0.4551
  949MOL0     C28037   5.055   5.756  10.267  0.2418  0.1217 -1.1867
  949MOL0     O28038   4.919   5.776  10.284 -0.1150  0.1523 -0.9191
  949MOL0     C28039   4.870   5.810  10.413 -0.2197 -0.9828 -0.6345
  949MOL0     C28040   4.725   5.816  10.413  0.0004 -0.4802  1.0315
  949MOL0     C28041   4.671   5.872  10.554  0.2935  0.5799  0.4349
  949MOL0     C28042   4.676   5.762  10.661  0.0500 -0.8992 -0.5494
  949MOL0     C28043   4.629   5.814  10.790  0.1795 -0.0194 -1.0760
  949MOL0     C28044   4.602   5.864  10.900 -0.7022 -0.4764  0.8086
  949MOL0     C28045   5.106   5.718  10.139 -0.4630  0.8625 -0.0770
  949MOL0     C28046   5.241   5.707  10.110  0.1075  0.0927 -0.3552
  949MOL0     C28047   5.275   5.666   9.973 -0.5132 -0.2010  0.7791
  949MOL0     H28048   5.753   5.910  10.095  2.4344 -0.3468  1.6586
  949MOL0     H28049   5.982   5.843  10.037  1.7949 -0.4168 -0.1493
  949MOL0     H28050   6.174   5.744  10.009  0.5646 -0.7383 -1.3183
  949MOL0     H28051   6.157   5.650  10.149 -0.3575  0.4840 -1.0570
  949MOL0     H28052   6.268   5.466  10.070  1.0362 -0.1626  0.6426
  949MOL0     H28053   6.366   5.607  10.070  0.3599 -1.2802 -0.1182
  949MOL0     H28054   6.320   5.648   9.818 -1.5536 -0.9585 -1.9315
  949MOL0     H28055   6.250   5.489   9.816  0.2145  1.4230 -1.8805
  949MOL0     H28056   6.542   5.572   9.833 -1.3396  1.5452  3.1503
  949MOL0     H28057   6.488   5.418   9.897 -1.1401 -2.2903 -1.2742
  949MOL0     H28058   6.401   5.355   9.667 -3.8893  2.0269 -0.0590
  949MOL0     H28059   6.412   5.525   9.612 -1.3391 -1.7275 -1.7286
  949MOL0     H28060   6.671   5.506   9.649  2.6971 -1.9541  1.1726
  949MOL0     H28061   6.637   5.350   9.712 -1.5575  0.2549  0.5686
  949MOL0     H28062   6.584   5.413   9.418 -1.9860 -0.3518  0.7640
  949MOL0     H28063   6.554   5.264   9.500  0.9984 -0.2418 -2.8795
  949MOL0     H28064   6.828   5.366   9.434 -0.7465  0.1307 -0.8652
  949MOL0     H28065   6.807   5.242   9.556 -0.7798  0.1463  0.2498
  949MOL0     H28066   6.648   5.032   9.475 -0.9155  0.9346 -0.3008
  949MOL0     H28067   6.576   4.849   9.321 -0.5713  0.7262  1.3517
  949MOL0     H28068   6.576   4.889   9.145 -0.1285  1.0002  0.6912
  949MOL0     H28069   6.819   4.797   9.133  0.5647 -3.5084 -1.3016
  949MOL0     H28070   6.806   4.752   9.305  0.9296 -1.7187 -1.0277
  949MOL0     H28071   6.688   4.623   9.073 -2.4035 -1.8356  0.0344
  949MOL0     H28072   6.583   4.611   9.214 -0.7809  1.3036 -1.6587
  949MOL0     H28073   6.722   4.428   9.214  1.4349 -0.0520  0.5653
  949MOL0     H28074   6.785   4.525   9.347 -1.5228  1.8842  0.0591
  949MOL0     H28075   6.877   4.282   9.272  0.5168 -1.3489 -1.9919
  949MOL0     H28076   7.059   4.128   9.359  1.3630  1.0793  1.6723
  949MOL0     H28077   7.669   4.366   9.375 -2.8263 -1.5440 -3.4115
  949MOL0     H28078   7.889   4.286   9.420 -0.8593  0.8632  0.8868
  949MOL0     H28079   8.014   3.884   9.556 -0.9870 -2.8323 -0.8909
  949MOL0     H28080   7.953   3.838   9.400  1.5668  0.1966 -0.3646
  949MOL0     H28081   8.159   3.914   9.302 -2.1014 -0.8340  0.5250
  949MOL0     H28082   8.231   3.967   9.461  2.4802 -0.9463 -0.9888
  949MOL0     H28083   8.348   3.763   9.449 -0.6162 -1.3849  0.1739
  949MOL0     H28084   8.206   3.725   9.529  3.5579 -0.7960  1.8003
  949MOL0     H28085   8.285   3.706   9.226 -0.5798 -2.3519 -1.9330
  949MOL0     H28086   8.119   3.686   9.279  0.6823 -0.2350 -0.7597
  949MOL0     H28087   8.226   3.473   9.247 -2.4352  2.1062 -0.2963
  949MOL0     H28088   8.166   3.478   9.408  1.4966 -3.7212  0.5233
  949MOL0     H28089   8.394   3.552   9.489 -0.3765 -1.6628  1.5124
  949MOL0     H28090   8.381   3.390   9.451  3.7475  0.8296 -0.4024
  949MOL0     H28091   8.490   3.586   9.236 -1.1532 -2.0294 -2.7486
  949MOL0     H28092   8.490   3.412   9.242  0.5614 -1.1637  1.7882
  949MOL0     H28093   8.705   3.528   9.314  1.3808 -0.2156  1.0045
  949MOL0     H28094   8.609   3.603   9.448 -4.4262  0.0235 -0.1790
  949MOL0     H28095   7.752   3.880   9.413 -2.9172 -1.0213 -1.2364
  949MOL0     H28096   7.533   3.950   9.366 -0.2463  0.6938  0.9502
  949MOL0     H28097   7.352   4.421   9.264  0.0349  1.3106 -3.3609
  949MOL0     H28098   7.180   4.572   9.182  0.4843  1.7045  1.2909
  949MOL0     H28099   5.837   5.435   9.964 -1.8860 -1.8554  2.3129
  949MOL0     H28100   5.610   5.514  10.017  0.0588  1.3116 -0.3634
  949MOL0     H28101   5.343   5.806  10.424 -0.4759 -3.0393  2.0757
  949MOL0     H28102   5.134   5.810  10.470  0.6482  0.2698 -0.2685
  949MOL0     H28103   4.905   5.911  10.436 -0.4246 -0.3892 -2.7569
  949MOL0     H28104   4.906   5.730  10.478  2.6479  0.4005 -0.3747
  949MOL0     H28105   4.688   5.715  10.398  1.2250 -1.2277  2.7709
  949MOL0     H28106   4.687   5.879  10.331  0.2429  2.2387  2.8579
  949MOL0     H28107   4.563   5.887  10.538  0.5359  1.6609 -0.3690
  949MOL0     H28108   4.712   5.972  10.573  2.3989 -0.2375  0.4499
  949MOL0     H28109   4.633   5.666  10.631  0.6650 -1.1549 -0.6298
  949MOL0     H28110   4.778   5.759  10.700  0.1006 -0.0228 -0.5832
  949MOL0     H28111   4.606   5.917  10.993  2.8220  0.2565  0.3638
  949MOL0     H28112   5.038   5.694  10.058  0.6137 -1.1950 -0.4487
  949MOL0     H28113   5.193   5.609   9.928  1.7000 -2.4827 -0.6120
  949MOL0     H28114   5.307   5.755   9.918  5.1871 -0.2179  3.3572
  949MOL0     H28115   5.365   5.605   9.963 -2.0201 -2.2141 -1.9341
  950MOL0     O28116   2.440   3.131  10.148 -0.2474  0.7067 -0.6000
  950MOL0     C28117   2.395   3.023  10.191 -0.3491 -0.2216  0.2467
  950MOL0     O28118   2.269   2.974  10.181 -0.3596 -0.4044 -0.2765
  950MOL0     C28119   2.167   3.047  10.125 -0.3581 -0.0409 -0.0169
  950MOL0     C28120   2.152   3.049   9.980 -0.3133 -0.4348  0.4383
  950MOL0     C28121   2.042   3.122   9.922  0.8310  1.0319 -0.8332
  950MOL0     C28122   1.946   3.180  10.000  0.1437  0.2265  0.1373
  950MOL0     O28123   1.833   3.225   9.937 -0.6398  0.2486 -0.0537
  950MOL0     C28124   1.780   3.334  10.006 -0.3547  0.0926  0.4435
  950MOL0     C28125   1.736   3.447   9.913 -0.5397 -0.5673 -0.4343
  950MOL0     C28126   1.847   3.533   9.856  0.3156 -1.2867  0.1613
  950MOL0     C28127   1.781   3.638   9.755  0.1066  0.0561  0.6205
  950MOL0     C28128   1.894   3.713   9.678  0.0549  0.4860 -0.7254
  950MOL0     C28129   1.841   3.815   9.585 -0.7449 -1.1140  0.8275
  950MOL0     C28130   1.962   3.886   9.503 -0.2482 -0.5549 -0.5329
  950MOL0     C28131   2.064   3.947   9.599  0.9577  0.2117  0.2381
  950MOL0     N28132   2.140   4.059   9.534 -0.1958 -0.0314 -0.7980
  950MOL0     C28133   2.110   4.189   9.552 -0.4175  0.0897  0.6879
  950MOL0     C28134   2.219   4.260   9.516  0.3457 -0.0692 -1.0806
  950MOL0     C28135   2.232   4.413   9.535  0.1331  0.0809 -0.5700
  950MOL0     C28136   2.366   4.464   9.485 -0.2633  0.3621 -0.0242
  950MOL0     C28137   2.496   4.411   9.559  1.0035  0.1043  0.3693
  950MOL0     C28138   2.608   4.515   9.560 -0.1243 -0.2927 -0.5170
  950MOL0     O28139   2.646   4.531   9.427 -0.1661 -0.4649  0.0618
  950MOL0     C28140   2.785   4.548   9.411  0.0786 -0.4238 -0.4700
  950MOL0     C28141   2.865   4.446   9.370  0.3689 -0.4694  0.3515
  950MOL0     C28142   3.002   4.467   9.350  0.8223  0.0718  0.6784
  950MOL0     C28143   3.063   4.585   9.389  0.7677 -0.6102 -0.3272
  950MOL0     C28144   3.206   4.602   9.381 -0.1334 -0.3307  1.7646
  950MOL0     O28145   3.253   4.727   9.410 -0.0986 -0.3671  0.4523
  950MOL0     C28146   3.390   4.744   9.403 -0.0981 -0.5316 -0.4620
  950MOL0     C28147   3.469   4.772   9.520  0.3141  0.2051 -0.1083
  950MOL0     C28148   3.606   4.798   9.501 -0.1517  0.3916  1.1092
  950MOL0     C28149   3.659   4.829   9.376  0.0727  0.7058 -0.0188
  950MOL0     O28150   3.792   4.854   9.370  0.7662 -0.2252 -0.2705
  950MOL0     C28151   3.845   4.858   9.238  0.0516  0.0711  0.0666
  950MOL0     C28152   3.991   4.864   9.271  0.3940  0.2924 -0.6052
  950MOL0     C28153   4.048   4.934   9.146 -0.9580  0.5269 -0.4506
  950MOL0     C28154   4.061   4.852   9.021  0.1394  0.5649  0.5146
  950MOL0     C28155   4.133   4.946   8.920  0.3058 -0.0281  0.3154
  950MOL0     C28156   4.190   4.859   8.814 -0.6240 -0.4038  0.2490
  950MOL0     C28157   4.073   4.849   8.712 -0.3726 -0.4922  0.2198
  950MOL0     C28158   4.109   4.747   8.612 -0.0564 -0.5876  1.1105
  950MOL0    Cl28159   3.998   4.756   8.469  0.0486 -0.0681  0.3533
  950MOL0     C28160   3.570   4.828   9.262 -0.1030 -0.9117 -0.2155
  950MOL0     C28161   3.434   4.784   9.281 -0.5310  0.1818  1.5339
  950MOL0     O28162   3.270   4.505   9.347  0.3082  0.1136  0.3055
  950MOL0     C28163   2.980   4.682   9.451 -0.6389 -0.4904 -0.5713
  950MOL0     C28164   2.844   4.661   9.467  0.2560 -0.0411  1.1643
  950MOL0     N28165   2.317   4.173   9.479 -0.0770 -0.5223  1.1699
  950MOL0     N28166   2.270   4.049   9.487 -0.8471 -0.2101 -0.1690
  950MOL0     C28167   1.966   3.178  10.140 -0.7023 -0.2369 -0.8076
  950MOL0     C28168   2.074   3.109  10.204 -0.1479 -0.2574  0.1444
  950MOL0     C28169   2.480   2.947  10.283 -0.3148  0.2254 -0.5878
  950MOL0     C28170   2.465   2.805  10.289  1.0235  0.0801  0.5759
  950MOL0     C28171   2.552   2.726  10.352 -0.5770 -0.3902 -0.2640
  950MOL0     C28172   2.658   2.778  10.415 -0.0596  0.5570  0.2232
  950MOL0     O28173   2.726   2.689  10.499 -0.1798  0.0344  0.7385
  950MOL0     C28174   2.826   2.603  10.435 -0.0495  0.0946 -0.0578
  950MOL0     C28175   2.965   2.653  10.447 -0.4818 -0.4341  0.8230
  950MOL0     C28176   3.000   2.732  10.318 -0.0499  0.3773 -0.9724
  950MOL0     C28177   3.157   2.764  10.315 -0.0346  0.9044 -0.5646
  950MOL0     C28178   3.202   2.838  10.434  0.0394  0.3192  0.1313
  950MOL0     C28179   3.257   2.903  10.520  0.0640  0.8490 -0.3348
  950MOL0     C28180   2.697   2.905  10.410 -0.5580  0.2285  0.6688
  950MOL0     C28181   2.599   2.993  10.346 -0.6443  0.0085  0.1239
  950MOL0     C28182   2.621   3.136  10.381  0.3092 -0.1431  0.8300
  950MOL0     H28183   2.217   2.994   9.913  2.1086  1.1777  1.3468
  950MOL0     H28184   2.040   3.111   9.814 -0.0186 -1.2653 -0.6362
  950MOL0     H28185   1.694   3.303  10.067  0.4682  2.5986  3.1231
  950MOL0     H28186   1.839   3.386  10.082 -1.0392  0.6143  0.6316
  950MOL0     H28187   1.666   3.510   9.969  0.8444 -0.5396  1.3429
  950MOL0     H28188   1.667   3.407   9.838 -2.8547 -0.5069  1.5452
  950MOL0     H28189   1.928   3.474   9.811  0.3829 -0.2767 -1.0926
  950MOL0     H28190   1.887   3.593   9.938 -0.4261  1.5586 -1.4061
  950MOL0     H28191   1.733   3.575   9.680  1.5380 -0.5420  0.1697
  950MOL0     H28192   1.703   3.698   9.803  0.2452  0.1157  0.7746
  950MOL0     H28193   1.938   3.776   9.757  2.2243  0.8723 -2.1447
  950MOL0     H28194   1.964   3.643   9.632  0.5321  0.5448 -0.1035
  950MOL0     H28195   1.768   3.771   9.516 -1.0604 -1.8571  1.6192
  950MOL0     H28196   1.784   3.893   9.637  0.7304  1.7571 -1.5814
  950MOL0     H28197   1.917   3.967   9.446 -1.0922 -1.2686 -0.9184
  950MOL0     H28198   2.020   3.820   9.438 -0.6993 -0.2222 -1.2832
  950MOL0     H28199   2.008   3.985   9.685  1.0845 -1.1197  0.9362
  950MOL0     H28200   2.130   3.870   9.639  3.2086  1.7034 -0.4271
  950MOL0     H28201   2.028   4.231   9.610  0.2475  2.2938  0.1490
  950MOL0     H28202   2.147   4.463   9.487  0.0307  1.4382  0.9175
  950MOL0     H28203   2.221   4.432   9.643  0.7750 -0.1369 -0.4611
  950MOL0     H28204   2.377   4.437   9.379 -3.1862  2.2210 -0.9241
  950MOL0     H28205   2.373   4.572   9.502  1.5361  0.2209  0.2709
  950MOL0     H28206   2.531   4.317   9.516 -0.1739  0.7377 -2.2172
  950MOL0     H28207   2.464   4.397   9.662  1.0946  1.3308  0.5829
  950MOL0     H28208   2.693   4.494   9.626  0.0808  0.4597 -0.5312
  950MOL0     H28209   2.574   4.614   9.592 -1.4869 -1.2705  1.1617
  950MOL0     H28210   2.824   4.350   9.341  1.1412  0.1008 -2.9769
  950MOL0     H28211   3.054   4.387   9.297 -0.5851 -1.0606  0.9509
  950MOL0     H28212   3.423   4.747   9.615  1.6402  0.8678  0.7294
  950MOL0     H28213   3.667   4.793   9.591  0.3184 -0.1654  0.7650
  950MOL0     H28214   3.814   4.775   9.175 -2.1869  0.8210  0.0869
  950MOL0     H28215   3.815   4.948   9.183  0.0587 -1.7040 -3.0515
  950MOL0     H28216   4.015   4.911   9.366  3.8504  0.4357 -1.4111
  950MOL0     H28217   4.037   4.765   9.278  0.2762  0.3059  0.4473
  950MOL0     H28218   4.007   5.034   9.127 -2.5335  0.1780  0.8732
  950MOL0     H28219   4.148   4.963   9.180 -1.8734  1.3809  1.6855
  950MOL0     H28220   3.968   4.806   8.987  1.2041 -1.6444  0.4181
  950MOL0     H28221   4.116   4.760   9.042 -1.5142 -0.6858 -0.3767
  950MOL0     H28222   4.223   4.993   8.962 -0.8466  1.1640  1.5838
  950MOL0     H28223   4.077   5.033   8.885  2.4250  0.4005 -2.3199
  950MOL0     H28224   4.273   4.911   8.765 -0.4853 -1.2833 -0.4727
  950MOL0     H28225   4.225   4.761   8.846 -0.8179 -0.7195 -0.4832
  950MOL0     H28226   4.069   4.949   8.667  1.5476  0.5617  2.2039
  950MOL0     H28227   3.979   4.817   8.758 -0.4198 -0.1843  0.3437
  950MOL0     H28228   4.210   4.747   8.570 -1.2277  0.0356 -1.9235
  950MOL0     H28229   4.084   4.651   8.658  0.1784 -0.3968  1.6447
  950MOL0     H28230   3.613   4.837   9.163  3.1445 -2.2425  0.9574
  950MOL0     H28231   3.360   4.775   9.202  0.5680  1.0180  0.3639
  950MOL0     H28232   3.013   4.782   9.478  0.4649 -0.6419 -1.2813
  950MOL0     H28233   2.784   4.742   9.508 -0.4300 -0.0865  0.2858
  950MOL0     H28234   1.891   3.228  10.201 -0.7563 -0.5389 -0.6222
  950MOL0     H28235   2.087   3.083  10.309 -0.7155 -1.8379 -0.1421
  950MOL0     H28236   2.383   2.762  10.233  0.7507  1.0773  0.1824
  950MOL0     H28237   2.536   2.620  10.366 -0.0098 -0.9819 -3.4088
  950MOL0     H28238   2.796   2.598  10.330 -1.2952  1.7515  0.1685
  950MOL0     H28239   2.813   2.505  10.480 -0.7243  0.0040 -0.4331
  950MOL0     H28240   3.035   2.569  10.455 -0.4257 -0.5563 -0.6360
  950MOL0     H28241   2.970   2.719  10.533 -0.5605  0.4050  0.1952
  950MOL0     H28242   2.938   2.822  10.314  1.1136  1.2925  0.5611
  950MOL0     H28243   2.980   2.678  10.225  0.7183  2.6825 -2.5753
  950MOL0     H28244   3.218   2.674  10.324 -1.2028  0.0620 -0.8902
  950MOL0     H28245   3.184   2.820  10.225  0.9515  2.4528  0.6399
  950MOL0     H28246   3.298   2.966  10.596  0.3768  0.7996 -0.4608
  950MOL0     H28247   2.790   2.938  10.457 -0.2424 -1.4541  1.3008
  950MOL0     H28248   2.679   3.185  10.303  0.0520  0.1133  0.7990
  950MOL0     H28249   2.527   3.185  10.407 -0.0090 -1.4368  2.2415
  950MOL0     H28250   2.683   3.134  10.471  0.6077  1.0934  0.6664
  951MOL0     O28251   9.946   3.370   2.954  0.2501 -0.1426  0.3354
  951MOL0     C28252   9.830   3.336   2.934  0.7046  0.2538 -0.0641
  951MOL0     O28253   9.788   3.261   2.827 -0.3637  0.3475  0.4651
  951MOL0     C28254   9.881   3.221   2.731 -0.0205  0.5988 -0.1601
  951MOL0     C28255  10.011   3.174   2.760 -0.8050 -0.5052 -0.7285
  951MOL0     C28256  10.100   3.123   2.660 -0.2960  0.4435  0.5558
  951MOL0     C28257  10.064   3.117   2.524  0.6167  1.2806 -0.0843
  951MOL0     O28258  10.149   3.056   2.436 -0.2878 -0.4411  0.2273
  951MOL0     C28259  10.173   3.136   2.313 -0.9553 -0.0292 -0.3423
  951MOL0     C28260  10.299   3.085   2.231 -0.1876  0.4039 -0.8953
  951MOL0     C28261  10.420   3.074   2.329  0.3162  0.3641 -0.0002
  951MOL0     C28262  10.453   2.931   2.373  0.2050  0.0114 -0.2369
  951MOL0     C28263  10.558   2.922   2.481 -0.4029 -0.4922  0.6250
  951MOL0     C28264  10.630   2.791   2.481 -0.7661  0.0301 -0.3189
  951MOL0     C28265  10.704   2.749   2.353  0.2180  0.1461 -0.9128
  951MOL0     C28266  10.822   2.841   2.318  0.8655  0.5098 -0.2117
  951MOL0     N28267  10.932   2.846   2.413 -0.1834  0.1566 -0.0524
  951MOL0     C28268  10.965   2.753   2.505  0.1528 -1.0490 -0.5161
  951MOL0     C28269  11.045   2.823   2.596  0.7286  0.5653  0.5332
  951MOL0     C28270  11.103   2.770   2.720 -0.0168  0.1129  0.1188
  951MOL0     C28271  11.245   2.730   2.697 -0.2060 -0.0573  0.5278
  951MOL0     C28272  11.298   2.678   2.836 -0.7392  0.1339  0.1680
  951MOL0     C28273  11.434   2.604   2.814  0.0451 -0.5019  0.4380
  951MOL0     O28274  11.513   2.604   2.934  0.1946  0.8114 -0.7781
  951MOL0     C28275  11.639   2.552   2.936 -1.3443  1.0477  0.1378
  951MOL0     C28276  11.724   2.586   3.045  0.4296  0.0732 -0.3065
  951MOL0     C28277  11.854   2.541   3.047  0.1096  0.6579  0.2984
  951MOL0     C28278  11.908   2.460   2.948  0.5562 -0.2361 -1.3621
  951MOL0     C28279  12.054   2.426   2.961 -0.3324 -0.8453 -0.7334
  951MOL0     O28280  12.100   2.345   2.859 -0.3232 -0.1286  0.3231
  951MOL0     C28281  12.213   2.275   2.883  0.8220 -0.2661  0.4491
  951MOL0     C28282  12.339   2.330   2.851  0.1792 -0.1829 -0.0954
  951MOL0     C28283  12.457   2.265   2.876 -0.3176 -0.0406  0.6269
  951MOL0     C28284  12.451   2.134   2.931  0.3635 -0.6525 -0.0935
  951MOL0     O28285  12.566   2.070   2.959  0.9920 -0.4936 -0.0638
  951MOL0     C28286  12.584   1.943   3.021  0.4525  0.3317  0.2234
  951MOL0     C28287  12.597   1.969   3.166  0.1493 -0.2233  0.2410
  951MOL0     C28288  12.631   1.850   3.250 -0.3473  0.5666 -0.4392
  951MOL0     C28289  12.779   1.828   3.265 -0.8060  0.3983  0.3336
  951MOL0     C28290  12.791   1.723   3.374  0.8113 -0.7600 -0.9865
  951MOL0     C28291  12.917   1.647   3.391  0.0352 -1.0868  0.4513
  951MOL0     C28292  12.956   1.558   3.276 -0.0909  0.4077 -0.8919
  951MOL0     C28293  12.846   1.489   3.205  0.5999  0.3358 -0.0349
  951MOL0    Cl28294  12.745   1.397   3.336 -0.3963 -0.0664  0.2716
  951MOL0     C28295  12.328   2.075   2.965  0.0988  0.1379 -0.5626
  951MOL0     C28296  12.211   2.145   2.934 -0.4491 -0.7071  0.1877
  951MOL0     O28297  12.124   2.468   3.051 -0.4116 -0.1280  0.4508
  951MOL0     C28298  11.827   2.433   2.833 -0.8282  0.5303 -0.2044
  951MOL0     C28299  11.692   2.480   2.830  0.2563  0.7769  0.1132
  951MOL0     N28300  11.062   2.949   2.551 -0.3462 -0.3086  0.1469
  951MOL0     N28301  10.991   2.962   2.440  0.7467 -0.0649  0.6323
  951MOL0     C28302   9.939   3.177   2.494  0.2019 -0.3112  0.2762
  951MOL0     C28303   9.850   3.218   2.597  1.3238 -0.6480  0.1772
  951MOL0     C28304   9.722   3.380   3.030 -0.0596 -0.0437  0.4448
  951MOL0     C28305   9.593   3.398   2.972  0.2510 -0.0030 -0.4444
  951MOL0     C28306   9.492   3.440   3.048  0.7928  0.9605  0.0613
  951MOL0     C28307   9.501   3.470   3.182  0.0416 -0.1430  0.4231
  951MOL0     O28308   9.387   3.498   3.247 -0.1076  0.9337 -0.0998
  951MOL0     C28309   9.389   3.481   3.388  0.2160 -0.2221 -0.5365
  951MOL0     C28310   9.256   3.457   3.443  0.4831  0.6198 -0.3254
  951MOL0     C28311   9.192   3.331   3.391  0.2560  0.2851 -0.4011
  951MOL0     C28312   9.049   3.309   3.453 -0.0330 -0.3738  0.0122
  951MOL0     C28313   8.952   3.390   3.378 -0.6964 -0.0731 -0.2006
  951MOL0     C28314   8.877   3.461   3.314  0.6041  0.1795 -0.2572
  951MOL0     C28315   9.634   3.473   3.237  0.6073  0.0205  0.2399
  951MOL0     C28316   9.735   3.422   3.162  0.7825 -0.0325  0.2096
  951MOL0     C28317   9.861   3.388   3.233 -0.0862 -0.0598  0.2889
  951MOL0     H28318  10.039   3.165   2.864 -0.1152  2.8212 -0.5179
  951MOL0     H28319  10.195   3.076   2.682 -0.8503 -0.0980  1.9007
  951MOL0     H28320  10.088   3.135   2.244 -0.5688 -0.4997 -0.8257
  951MOL0     H28321  10.190   3.236   2.353 -0.2940 -0.1821 -0.2181
  951MOL0     H28322  10.326   3.153   2.149  0.4155  0.4242 -0.6895
  951MOL0     H28323  10.288   2.983   2.192  0.1184  0.2444 -0.5645
  951MOL0     H28324  10.413   3.142   2.414  3.6151  0.5357  0.2798
  951MOL0     H28325  10.510   3.110   2.278 -0.5675 -0.1418 -2.0189
  951MOL0     H28326  10.361   2.894   2.418  0.7266  2.0933  2.8627
  951MOL0     H28327  10.473   2.870   2.284  1.4854  0.6902 -0.4437
  951MOL0     H28328  10.639   2.995   2.479 -0.6106 -0.2861 -1.0182
  951MOL0     H28329  10.508   2.949   2.575  1.1853 -1.0112  1.6729
  951MOL0     H28330  10.697   2.801   2.567  0.0788 -2.6638 -0.5732
  951MOL0     H28331  10.550   2.719   2.503 -1.5588  0.7836 -0.6573
  951MOL0     H28332  10.636   2.749   2.268 -1.0560  1.7474  0.0338
  951MOL0     H28333  10.735   2.645   2.366  0.8744  0.5211  0.8139
  951MOL0     H28334  10.865   2.781   2.236 -2.8465 -1.9848 -0.6103
  951MOL0     H28335  10.787   2.942   2.296  3.1123  1.6064  1.0295
  951MOL0     H28336  10.930   2.650   2.507  0.0906 -1.0245 -0.2983
  951MOL0     H28337  11.078   2.851   2.790 -0.5507  0.6727 -0.7011
  951MOL0     H28338  11.048   2.679   2.745 -1.0582  0.1295 -1.8646
  951MOL0     H28339  11.258   2.654   2.620 -1.4684  1.7960 -1.6206
  951MOL0     H28340  11.301   2.817   2.662  1.3737 -0.8106  1.0951
  951MOL0     H28341  11.223   2.603   2.866 -1.5265  1.4788  1.7610
  951MOL0     H28342  11.311   2.766   2.900  0.9975  1.0387 -1.3427
  951MOL0     H28343  11.490   2.648   2.731 -0.1499 -0.7614  0.1706
  951MOL0     H28344  11.411   2.500   2.791  2.5697 -1.1109  0.3052
  951MOL0     H28345  11.678   2.650   3.120 -0.3561  0.5641 -1.1770
  951MOL0     H28346  11.921   2.572   3.127 -0.9333  1.0335  1.0512
  951MOL0     H28347  12.340   2.436   2.826 -1.9067  0.0458  0.5943
  951MOL0     H28348  12.556   2.300   2.848 -0.1159  0.3813  1.8311
  951MOL0     H28349  12.493   1.887   2.995 -2.3696  2.6752  3.9225
  951MOL0     H28350  12.672   1.888   2.987 -0.4930 -0.0524 -1.7670
  951MOL0     H28351  12.677   2.043   3.176  0.0534  0.3637 -2.5693
  951MOL0     H28352  12.504   2.015   3.202 -1.0471 -1.4762 -1.1231
  951MOL0     H28353  12.592   1.867   3.350 -2.1285  1.3895 -1.2169
  951MOL0     H28354  12.586   1.762   3.204 -0.6399  0.9041 -0.8163
  951MOL0     H28355  12.833   1.917   3.296 -0.9361  1.0706 -1.2676
  951MOL0     H28356  12.822   1.798   3.169  0.3382 -0.6405  1.1333
  951MOL0     H28357  12.717   1.644   3.357 -0.3618 -1.3375  4.7304
  951MOL0     H28358  12.771   1.765   3.473  1.2205  2.6069 -2.1913
  951MOL0     H28359  12.994   1.724   3.394 -0.5837 -0.4559  0.3846
  951MOL0     H28360  12.912   1.578   3.476  0.2715 -0.5884  0.8782
  951MOL0     H28361  13.025   1.483   3.313 -1.5185 -0.3944  0.2438
  951MOL0     H28362  13.010   1.620   3.204  1.5085 -0.5475 -0.5642
  951MOL0     H28363  12.786   1.565   3.154 -0.1046 -0.9824 -1.2403
  951MOL0     H28364  12.895   1.420   3.135  2.9106  2.6772 -0.9247
  951MOL0     H28365  12.315   1.976   3.006  1.2022  1.2440  2.7689
  951MOL0     H28366  12.116   2.098   2.959 -0.2472  0.1639  2.9066
  951MOL0     H28367  11.860   2.365   2.756 -3.1646  0.0208 -0.8496
  951MOL0     H28368  11.624   2.449   2.750 -0.6854  1.1829  0.7465
  951MOL0     H28369   9.898   3.161   2.395  0.2655  0.3886  0.1393
  951MOL0     H28370   9.756   3.251   2.555  1.1767 -2.1819 -0.7932
  951MOL0     H28371   9.577   3.363   2.871 -2.4320 -1.4314  0.3714
  951MOL0     H28372   9.391   3.453   3.010  0.2749  1.6505  1.5683
  951MOL0     H28373   9.438   3.566   3.437  0.1271 -1.5110  1.9148
  951MOL0     H28374   9.443   3.392   3.420 -0.6983  0.2167  2.5828
  951MOL0     H28375   9.209   3.556   3.436 -0.4312  0.1775 -0.5843
  951MOL0     H28376   9.279   3.442   3.549  3.7949  0.5039 -0.9664
  951MOL0     H28377   9.255   3.248   3.424 -1.0325  0.2008  2.0889
  951MOL0     H28378   9.190   3.323   3.282 -0.2986  1.5067 -0.5015
  951MOL0     H28379   9.020   3.203   3.451 -1.9707  0.1318 -0.4608
  951MOL0     H28380   9.063   3.331   3.559  0.3488 -0.8292  0.0638
  951MOL0     H28381   8.824   3.528   3.250  1.5579  0.5489 -0.6753
  951MOL0     H28382   9.642   3.508   3.340  0.8763  2.5853 -0.5805
  951MOL0     H28383   9.898   3.290   3.201 -0.6153 -1.2272  3.0090
  951MOL0     H28384   9.933   3.467   3.212  0.9748 -0.6951  1.4223
  951MOL0     H28385   9.850   3.375   3.341 -0.1458  1.0543  0.4304
  952MOL0     O28386   1.311   4.597  11.267 -0.0063 -0.1206  0.1006
  952MOL0     C28387   1.258   4.702  11.299 -0.2347 -0.2120  0.3033
  952MOL0     O28388   1.307   4.789  11.399 -0.6876 -0.1350  0.2725
  952MOL0     C28389   1.383   4.740  11.498  0.5869 -0.1062 -0.6263
  952MOL0     C28390   1.412   4.842  11.595  0.0228 -0.0456 -0.2268
  952MOL0     C28391   1.487   4.804  11.709  0.6917  0.2185 -0.7886
  952MOL0     C28392   1.525   4.673  11.737  0.4057  0.0267 -0.2047
  952MOL0     O28393   1.600   4.655  11.849  0.1956  1.0474  0.3184
  952MOL0     C28394   1.628   4.517  11.886  0.3447 -0.3788 -0.1185
  952MOL0     C28395   1.732   4.513  11.987  0.8239 -0.4872 -0.0282
  952MOL0     C28396   1.749   4.366  12.031 -0.1743  0.6886  0.3763
  952MOL0     C28397   1.863   4.350  12.126 -0.0873  0.1464 -0.1843
  952MOL0     C28398   1.888   4.198  12.149  0.8724  0.0806  0.5575
  952MOL0     C28399   2.008   4.163  12.242 -0.1969 -0.1696 -0.3407
  952MOL0     C28400   2.149   4.168  12.178 -0.0427  0.3648  0.3274
  952MOL0     C28401   2.264   4.146  12.283  0.5353  0.9292 -0.0417
  952MOL0     N28402   2.271   4.007  12.332 -0.3583  0.3042 -0.3385
  952MOL0     C28403   2.381   3.927  12.319 -0.0783  0.5533 -0.7383
  952MOL0     C28404   2.346   3.821  12.397  0.1391  0.7996 -0.1915
  952MOL0     C28405   2.438   3.710  12.418 -0.9118 -0.1124 -0.4798
  952MOL0     C28406   2.493   3.697  12.560 -0.0993  0.7689  0.4230
  952MOL0     C28407   2.395   3.646  12.660 -0.3916 -0.4629  0.3381
  952MOL0     C28408   2.445   3.640  12.811 -0.5697 -0.0667  0.0332
  952MOL0     O28409   2.566   3.559  12.824  0.5577  0.2366  0.4861
  952MOL0     C28410   2.662   3.610  12.903 -0.4139  0.0507 -0.0326
  952MOL0     C28411   2.792   3.580  12.855  0.5127  0.7299 -0.3182
  952MOL0     C28412   2.910   3.623  12.916 -0.9482 -0.0434 -0.4503
  952MOL0     C28413   2.900   3.698  13.039  0.1396  0.5396 -0.8654
  952MOL0     C28414   3.014   3.732  13.123 -0.5303  0.6169  0.2817
  952MOL0     O28415   3.136   3.693  13.062 -0.1947  0.9761  0.6722
  952MOL0     C28416   3.253   3.717  13.134 -0.2766  0.5591  0.6394
  952MOL0     C28417   3.309   3.844  13.139  0.4156  0.1337 -0.6929
  952MOL0     C28418   3.432   3.878  13.208  0.3263  0.2758  0.2421
  952MOL0     C28419   3.495   3.767  13.268 -0.3823  0.4101 -0.5521
  952MOL0     O28420   3.606   3.805  13.348  0.4183 -0.1348 -0.0497
  952MOL0     C28421   3.688   3.705  13.405  0.2984 -0.6497 -0.6662
  952MOL0     C28422   3.816   3.768  13.462 -1.0268 -0.4545 -0.3018
  952MOL0     C28423   3.918   3.808  13.361  0.0441  0.0552  0.5838
  952MOL0     C28424   4.048   3.865  13.419 -0.7228 -0.6554 -0.2022
  952MOL0     C28425   4.159   3.905  13.321  0.5042 -0.6963 -0.1013
  952MOL0     C28426   4.278   3.965  13.390 -0.4771  0.0037 -0.9710
  952MOL0     C28427   4.395   3.974  13.292 -0.4841 -0.2563 -0.3567
  952MOL0     C28428   4.491   4.092  13.319 -0.3600 -0.7301 -0.2909
  952MOL0    Cl28429   4.411   4.253  13.275 -0.1993 -0.8046 -0.0485
  952MOL0     C28430   3.446   3.637  13.250 -0.1643 -0.0089  0.2927
  952MOL0     C28431   3.326   3.611  13.183  0.3277  0.3011  0.0113
  952MOL0     O28432   3.008   3.801  13.224  0.2757 -0.0361  0.5960
  952MOL0     C28433   2.770   3.733  13.084 -0.2339 -0.3292 -0.4410
  952MOL0     C28434   2.654   3.682  13.025  0.0870 -0.0064 -0.6546
  952MOL0     N28435   2.220   3.831  12.447  0.0500  0.3482 -0.2401
  952MOL0     N28436   2.172   3.943  12.401 -0.3085 -0.5755 -0.2248
  952MOL0     C28437   1.495   4.581  11.643 -0.1441 -1.1252  1.3509
  952MOL0     C28438   1.424   4.610  11.525  0.6564  0.4493 -0.6254
  952MOL0     C28439   1.165   4.777  11.207 -0.6729  0.1069 -0.6136
  952MOL0     C28440   1.168   4.918  11.202 -0.1419  0.1869 -0.8869
  952MOL0     C28441   1.080   4.989  11.117  0.1213  0.5537  0.4040
  952MOL0     C28442   0.977   4.929  11.040 -1.1556  0.1675  0.1945
  952MOL0     O28443   0.890   5.016  10.976 -0.0728 -0.0913 -0.3820
  952MOL0     C28444   0.782   4.966  10.912 -0.3186  0.0467  0.3325
  952MOL0     C28445   0.655   4.969  10.997 -0.3752 -0.7999  0.0290
  952MOL0     C28446   0.614   5.113  11.019  0.4255  0.8636  0.2340
  952MOL0     C28447   0.607   5.211  10.899  0.8450  0.2816 -0.5757
  952MOL0     C28448   0.531   5.151  10.790  1.6154  0.1718  0.7704
  952MOL0     C28449   0.458   5.098  10.711  0.0507 -0.0969  0.0005
  952MOL0     C28450   0.963   4.790  11.051 -0.4821  0.0478 -0.7144
  952MOL0     C28451   1.062   4.715  11.130  0.4040 -0.0373  0.0962
  952MOL0     C28452   1.050   4.562  11.135 -0.0112 -0.0669 -0.1037
  952MOL0     H28453   1.389   4.946  11.574  4.4467  1.6569  1.8833
  952MOL0     H28454   1.514   4.875  11.787  1.4062 -1.9045  1.0321
  952MOL0     H28455   1.536   4.469  11.919 -0.6857  1.3134 -0.4514
  952MOL0     H28456   1.671   4.478  11.793  1.3447  2.1283 -0.7810
  952MOL0     H28457   1.702   4.564  12.079 -1.0350 -3.1142  0.9487
  952MOL0     H28458   1.823   4.563  11.952 -0.4620  2.6834  0.7627
  952MOL0     H28459   1.770   4.302  11.945 -1.5572  0.7380 -0.0166
  952MOL0     H28460   1.650   4.332  12.064  0.9854 -3.3920  0.2394
  952MOL0     H28461   1.957   4.394  12.091 -0.3187  1.0994  0.3585
  952MOL0     H28462   1.828   4.396  12.218 -2.7817 -2.5618  0.2948
  952MOL0     H28463   1.798   4.144  12.180  0.6148  0.1873  0.0040
  952MOL0     H28464   1.907   4.150  12.053 -1.0290  2.8547 -1.3822
  952MOL0     H28465   2.014   4.236  12.323  0.3269  0.7049 -1.1449
  952MOL0     H28466   1.987   4.060  12.272  2.4059 -1.1894 -1.6846
  952MOL0     H28467   2.175   4.267  12.141  0.1511  1.4812  3.1910
  952MOL0     H28468   2.150   4.095  12.097  1.2323 -2.0599  2.3733
  952MOL0     H28469   2.359   4.163  12.232  0.4337  0.9160 -0.2369
  952MOL0     H28470   2.261   4.216  12.367 -0.7387  0.8964 -0.0439
  952MOL0     H28471   2.479   3.939  12.274  0.3103  0.0403 -0.0543
  952MOL0     H28472   2.401   3.612  12.384  1.1363 -1.4446  0.8390
  952MOL0     H28473   2.531   3.726  12.362  0.2369 -0.1391  1.3379
  952MOL0     H28474   2.571   3.621  12.549 -0.8913  0.2760 -3.2202
  952MOL0     H28475   2.530   3.792  12.598  1.2670  0.4388 -0.0332
  952MOL0     H28476   2.372   3.543  12.634 -1.0180 -1.0534  2.9597
  952MOL0     H28477   2.303   3.704  12.651  0.3515  0.4905 -1.7488
  952MOL0     H28478   2.363   3.595  12.868 -2.1318 -0.6164 -2.4807
  952MOL0     H28479   2.464   3.742  12.846  2.0833 -0.2293 -0.6846
  952MOL0     H28480   2.801   3.522  12.763  1.2608 -0.3614  0.4153
  952MOL0     H28481   3.011   3.599  12.884  0.2444  1.9408  1.5623
  952MOL0     H28482   3.253   3.921  13.087 -1.1381 -1.0423 -0.8465
  952MOL0     H28483   3.455   3.983  13.220  0.0888  0.3689 -0.1003
  952MOL0     H28484   3.643   3.655  13.491 -0.3712  1.4770  0.2792
  952MOL0     H28485   3.717   3.620  13.342  2.0287 -2.6420  2.5181
  952MOL0     H28486   3.787   3.865  13.504 -3.1882 -0.5637 -1.3948
  952MOL0     H28487   3.863   3.701  13.534  0.5943 -1.0032 -1.7896
  952MOL0     H28488   3.952   3.726  13.298  0.8281  0.8537 -0.0604
  952MOL0     H28489   3.879   3.891  13.301  1.3029  1.0038  1.0295
  952MOL0     H28490   4.084   3.780  13.478  0.9639 -1.2002 -1.9154
  952MOL0     H28491   4.030   3.949  13.488  1.7670  1.6451 -2.1261
  952MOL0     H28492   4.114   3.979  13.255  3.8989  3.2883  1.5270
  952MOL0     H28493   4.193   3.815  13.270 -0.7697 -1.6391  0.6710
  952MOL0     H28494   4.256   4.067  13.424  2.0694  0.7999 -1.4725
  952MOL0     H28495   4.307   3.912  13.481  0.4909 -0.7371 -1.6905
  952MOL0     H28496   4.357   3.994  13.192  0.0461 -1.6271 -0.8627
  952MOL0     H28497   4.451   3.880  13.291  0.3402  0.1491  1.6200
  952MOL0     H28498   4.530   4.100  13.421  0.1685 -2.5820 -0.3202
  952MOL0     H28499   4.582   4.083  13.260  0.2038 -0.9483  0.6016
  952MOL0     H28500   3.500   3.556  13.297  2.0542  0.6072 -1.0195
  952MOL0     H28501   3.282   3.512  13.175  1.1351 -0.2732  2.0455
  952MOL0     H28502   2.774   3.796  13.172  2.9950 -1.1731  0.1279
  952MOL0     H28503   2.554   3.711  13.056  0.8913  2.5036 -0.1646
  952MOL0     H28504   1.514   4.476  11.663  2.5431 -1.0519 -0.3724
  952MOL0     H28505   1.396   4.527  11.462  0.9486  1.0710 -1.6008
  952MOL0     H28506   1.240   4.980  11.254  3.3350 -3.4443 -0.9099
  952MOL0     H28507   1.089   5.097  11.110 -1.0150  0.5297 -2.8236
  952MOL0     H28508   0.794   4.863  10.877  0.2111 -0.0504  0.7893
  952MOL0     H28509   0.762   5.020  10.819  0.9503 -1.0264 -0.6069
  952MOL0     H28510   0.673   4.921  11.093  0.7075 -1.6180 -0.5697
  952MOL0     H28511   0.578   4.910  10.947 -0.8150 -0.8124  0.7084
  952MOL0     H28512   0.692   5.143  11.090  1.9844 -2.5847  0.1664
  952MOL0     H28513   0.520   5.117  11.075 -1.1596 -0.5721 -2.1320
  952MOL0     H28514   0.549   5.298  10.933 -0.8223 -0.1128 -2.2129
  952MOL0     H28515   0.707   5.246  10.871  1.1804  0.4127  0.7450
  952MOL0     H28516   0.392   5.038  10.651  0.1574 -0.5794  0.3602
  952MOL0     H28517   0.886   4.731  11.002  1.0534 -2.1793 -0.5611
  952MOL0     H28518   1.072   4.523  11.234  0.0094  1.0586  0.3557
  952MOL0     H28519   0.946   4.533  11.122 -0.3850  0.3173  1.7791
  952MOL0     H28520   1.111   4.502  11.066 -1.5434 -0.2986 -1.3043
  953MOL0     O28521   0.921   6.130   3.742 -0.3972 -0.4807 -0.1121
  953MOL0     C28522   0.867   6.216   3.799 -0.0587 -0.6796 -0.2071
  953MOL0     O28523   0.911   6.340   3.821 -1.1342 -0.3189 -0.3843
  953MOL0     C28524   1.007   6.395   3.745 -0.3595  0.3069 -0.1716
  953MOL0     C28525   1.138   6.341   3.735  1.1154  0.5935  0.3264
  953MOL0     C28526   1.236   6.413   3.667  0.2652 -0.1762  0.5033
  953MOL0     C28527   1.208   6.540   3.607 -0.3887 -0.0575 -0.2388
  953MOL0     O28528   1.297   6.610   3.531  0.0090  0.2557  0.2597
  953MOL0     C28529   1.373   6.528   3.442  0.5088 -0.7251  1.2224
  953MOL0     C28530   1.527   6.530   3.472  1.2346 -0.0770 -0.2698
  953MOL0     C28531   1.599   6.659   3.442  0.0325 -0.0535  0.1397
  953MOL0     C28532   1.749   6.649   3.462  0.1052 -0.1872 -0.1772
  953MOL0     C28533   1.819   6.760   3.387 -0.1520 -0.0396  0.2745
  953MOL0     C28534   1.962   6.762   3.443 -0.3711 -0.9068 -0.4803
  953MOL0     C28535   2.041   6.876   3.394  0.5782  0.7697 -0.3541
  953MOL0     C28536   1.989   7.009   3.457 -0.2064  0.0935  0.6352
  953MOL0     N28537   2.082   7.110   3.419 -0.6372 -0.1593  0.5602
  953MOL0     C28538   2.209   7.133   3.463 -0.2043  0.4301  0.1245
  953MOL0     C28539   2.257   7.236   3.391 -0.0555 -0.0841  0.4780
  953MOL0     C28540   2.398   7.294   3.395  0.1131  0.3731 -0.1896
  953MOL0     C28541   2.416   7.441   3.441 -0.4749  0.0553 -0.4330
  953MOL0     C28542   2.370   7.540   3.331 -0.6897 -0.7806 -0.8294
  953MOL0     C28543   2.416   7.504   3.189 -0.3040 -0.9705 -0.4867
  953MOL0     O28544   2.560   7.495   3.192  0.2977  0.7648  0.0046
  953MOL0     C28545   2.607   7.459   3.068  0.4745  0.3782  0.2796
  953MOL0     C28546   2.546   7.372   2.971  0.0631  0.1501 -0.5611
  953MOL0     C28547   2.606   7.360   2.849 -0.2143 -0.2511  0.5600
  953MOL0     C28548   2.718   7.436   2.808 -0.2472 -0.4263 -0.5972
  953MOL0     C28549   2.766   7.423   2.673 -1.0305 -0.0033 -0.1395
  953MOL0     O28550   2.889   7.472   2.634  0.0808  0.1742  0.2785
  953MOL0     C28551   2.933   7.422   2.515 -0.7942 -0.7004 -0.1992
  953MOL0     C28552   3.044   7.341   2.502 -0.0516 -0.9358 -0.0156
  953MOL0     C28553   3.087   7.297   2.378 -0.7580  1.0609 -0.3023
  953MOL0     C28554   3.022   7.332   2.259  0.8279  0.0462 -0.3557
  953MOL0     O28555   3.046   7.287   2.130 -0.4951 -0.6241 -0.2798
  953MOL0     C28556   3.185   7.264   2.105 -0.3558  1.0811 -0.0986
  953MOL0     C28557   3.243   7.393   2.046  0.1740 -0.7848  0.7947
  953MOL0     C28558   3.375   7.370   1.984 -0.7379  0.2351 -0.3680
  953MOL0     C28559   3.417   7.481   1.904  0.3451  0.1232  0.5304
  953MOL0     C28560   3.571   7.492   1.877  0.1900  0.2482 -0.1716
  953MOL0     C28561   3.629   7.373   1.813 -0.4958 -0.2613 -0.4029
  953MOL0     C28562   3.783   7.409   1.805  0.0395 -0.1969 -0.5076
  953MOL0     C28563   3.868   7.311   1.718  0.5940 -0.6236  1.0011
  953MOL0    Cl28564   3.797   7.290   1.558 -0.0013  0.0790 -0.0116
  953MOL0     C28565   2.908   7.411   2.275 -0.7199  0.6764  0.3456
  953MOL0     C28566   2.867   7.462   2.398 -0.1489  0.2357 -0.9484
  953MOL0     O28567   2.692   7.361   2.604 -0.5539 -0.5560  0.6150
  953MOL0     C28568   2.774   7.524   2.900 -0.2420 -0.3172 -0.4639
  953MOL0     C28569   2.720   7.525   3.028 -0.5357  0.6301  0.3788
  953MOL0     N28570   2.149   7.278   3.311  0.4380  0.0624 -0.5434
  953MOL0     N28571   2.048   7.207   3.335  0.4517 -0.1370 -0.0548
  953MOL0     C28572   1.081   6.585   3.618  1.1797 -0.2609 -0.1110
  953MOL0     C28573   0.985   6.515   3.680 -0.0393 -0.1163 -0.4152
  953MOL0     C28574   0.728   6.201   3.860 -0.5462  0.8829  0.4529
  953MOL0     C28575   0.655   6.308   3.925  0.2328 -0.9354  0.3614
  953MOL0     C28576   0.530   6.297   3.993  0.4324  0.4851  0.2401
  953MOL0     C28577   0.472   6.169   4.002 -0.6366 -0.5158  0.1147
  953MOL0     O28578   0.356   6.159   4.074 -0.0516 -0.7618  0.2051
  953MOL0     C28579   0.265   6.056   4.023 -0.1379 -0.3284  0.2503
  953MOL0     C28580   0.120   6.087   4.062  0.1997  0.2840  0.7393
  953MOL0     C28581   0.011   5.989   4.030 -0.3198 -0.2546  0.1879
  953MOL0     C28582  -0.115   6.032   4.111 -0.4331 -0.7028  0.6854
  953MOL0     C28583  -0.095   6.039   4.258 -0.1502  0.0931  0.8527
  953MOL0     C28584  -0.076   6.047   4.379  0.4152 -0.0754  0.0782
  953MOL0     C28585   0.528   6.066   3.924 -0.4352  0.6181  1.1684
  953MOL0     C28586   0.655   6.075   3.856 -0.6602 -0.4480 -0.0867
  953MOL0     C28587   0.700   5.945   3.782  0.3650 -0.2941  0.2526
  953MOL0     H28588   1.165   6.248   3.782  2.0597  0.6818 -0.0129
  953MOL0     H28589   1.328   6.356   3.655 -0.1256 -0.5174 -1.0055
  953MOL0     H28590   1.334   6.427   3.431 -2.2230  0.4193 -0.6241
  953MOL0     H28591   1.366   6.588   3.351 -2.5768  0.1134  1.8845
  953MOL0     H28592   1.586   6.449   3.429  0.3653 -0.2798 -1.1157
  953MOL0     H28593   1.535   6.513   3.580  1.7518 -0.4120 -0.3580
  953MOL0     H28594   1.564   6.739   3.508 -2.0455 -0.7353 -0.0702
  953MOL0     H28595   1.584   6.701   3.342  0.6391 -0.4993 -0.1444
  953MOL0     H28596   1.776   6.664   3.567  0.0368 -0.5780 -0.0985
  953MOL0     H28597   1.787   6.551   3.430  1.0627  0.4108 -0.9003
  953MOL0     H28598   1.824   6.744   3.279 -1.4324  0.8870  0.0572
  953MOL0     H28599   1.772   6.856   3.409 -5.0278 -1.8034 -1.2294
  953MOL0     H28600   1.965   6.759   3.552 -3.7201 -0.0978 -0.2629
  953MOL0     H28601   2.014   6.672   3.406 -0.8729  0.2731 -4.5844
  953MOL0     H28602   2.040   6.894   3.286  1.2212 -1.9012 -0.8716
  953MOL0     H28603   2.145   6.846   3.407  0.5455  0.5851 -0.5102
  953MOL0     H28604   1.887   7.033   3.424  0.6123 -2.2526 -4.7279
  953MOL0     H28605   1.996   7.008   3.566 -0.5935  2.5930  0.7415
  953MOL0     H28606   2.266   7.070   3.530  0.8057  0.7281 -0.4326
  953MOL0     H28607   2.461   7.233   3.460  0.4952  2.5940  1.6640
  953MOL0     H28608   2.444   7.288   3.296 -1.3084  0.0555 -0.8597
  953MOL0     H28609   2.360   7.458   3.533 -0.9704  0.8640 -0.8638
  953MOL0     H28610   2.522   7.442   3.469 -0.5430 -2.1542  0.0981
  953MOL0     H28611   2.401   7.642   3.353  0.5050 -0.4454 -3.6295
  953MOL0     H28612   2.261   7.540   3.330 -0.7366 -1.3453  0.7435
  953MOL0     H28613   2.393   7.586   3.120  0.3622  2.3975  2.9935
  953MOL0     H28614   2.364   7.414   3.155 -2.3265  0.3747 -1.0979
  953MOL0     H28615   2.456   7.316   2.994  1.2423 -2.3220 -1.5289
  953MOL0     H28616   2.564   7.283   2.785 -2.1720  2.2515 -1.3696
  953MOL0     H28617   3.089   7.310   2.596 -0.7547 -1.8862  0.0240
  953MOL0     H28618   3.169   7.227   2.389 -2.4764 -0.8760  0.9072
  953MOL0     H28619   3.246   7.230   2.190  0.7723 -1.3754 -1.7637
  953MOL0     H28620   3.196   7.176   2.041  0.7777  1.6311 -0.6772
  953MOL0     H28621   3.172   7.437   1.975  1.7433 -1.5935 -1.3767
  953MOL0     H28622   3.240   7.465   2.128 -1.7812  1.6102 -1.2136
  953MOL0     H28623   3.452   7.360   2.061 -0.4880  1.9247 -0.3549
  953MOL0     H28624   3.381   7.271   1.937  3.1871 -0.5472  1.4046
  953MOL0     H28625   3.385   7.573   1.952 -2.2624  0.2894 -1.3728
  953MOL0     H28626   3.357   7.484   1.813 -0.5782  1.3008  1.1543
  953MOL0     H28627   3.620   7.520   1.970  1.7192  3.3787 -1.7691
  953MOL0     H28628   3.581   7.582   1.815 -1.5809  0.0176 -0.8738
  953MOL0     H28629   3.613   7.280   1.869 -1.5175  0.1120 -0.0575
  953MOL0     H28630   3.582   7.369   1.715 -2.2137 -2.1885  0.4277
  953MOL0     H28631   3.824   7.409   1.906  0.3158  2.0314 -0.5672
  953MOL0     H28632   3.797   7.506   1.756 -2.8909 -0.2341 -1.6262
  953MOL0     H28633   3.966   7.354   1.696  1.2371 -2.7415 -0.6344
  953MOL0     H28634   3.886   7.210   1.755 -1.2633 -2.2755 -2.2116
  953MOL0     H28635   2.844   7.424   2.188 -0.7585  2.0484  0.5593
  953MOL0     H28636   2.788   7.536   2.411 -0.2073  0.2444 -1.3327
  953MOL0     H28637   2.865   7.583   2.889  0.6408 -1.5356  0.1099
  953MOL0     H28638   2.758   7.597   3.100  3.8850 -0.8142 -0.2101
  953MOL0     H28639   1.054   6.673   3.562  0.4720  1.4055  2.6586
  953MOL0     H28640   0.884   6.555   3.685 -0.8169 -1.7471 -2.0066
  953MOL0     H28641   0.698   6.407   3.914 -0.4071 -0.3711  2.3701
  953MOL0     H28642   0.482   6.379   4.045  1.9580  1.3369  0.3903
  953MOL0     H28643   0.290   5.960   4.070  0.0247 -1.1719 -1.4731
  953MOL0     H28644   0.267   6.037   3.915  1.4098 -2.1217  0.5345
  953MOL0     H28645   0.098   6.181   4.010 -1.2366 -0.0063  0.7772
  953MOL0     H28646   0.123   6.112   4.169 -1.2505 -1.0085  1.1286
  953MOL0     H28647   0.048   5.893   4.066 -1.4487 -0.2482  1.4472
  953MOL0     H28648  -0.008   5.982   3.923 -0.2088  1.8102 -0.0100
  953MOL0     H28649  -0.144   6.133   4.082 -0.5545 -0.5386  1.3744
  953MOL0     H28650  -0.194   5.959   4.090 -0.6425 -0.7082  1.4700
  953MOL0     H28651  -0.078   6.054   4.485 -0.6433 -0.7666  0.1166
  953MOL0     H28652   0.483   5.968   3.929 -1.0407  0.9164  1.6457
  953MOL0     H28653   0.769   5.887   3.845  2.2610 -0.1488 -1.5831
  953MOL0     H28654   0.616   5.881   3.752 -1.6980  0.6722  3.3923
  953MOL0     H28655   0.758   5.965   3.692 -0.5203 -1.6930 -0.6660
  954MOL0     O28656   0.005   8.367  10.460 -0.5524  0.0790 -0.3608
  954MOL0     C28657   0.000   8.287  10.368  0.2131  0.0346  0.4263
  954MOL0     O28658   0.092   8.266  10.267  0.6433 -1.0049  0.3839
  954MOL0     C28659   0.201   8.357  10.260  0.4811  0.8314 -0.0634
  954MOL0     C28660   0.189   8.501  10.268 -0.7409  0.5031 -0.4277
  954MOL0     C28661   0.302   8.576  10.243 -0.7573 -0.6129  0.6425
  954MOL0     C28662   0.421   8.524  10.199 -0.2108  0.0997 -0.1481
  954MOL0     O28663   0.525   8.614  10.170 -0.5298 -0.4752  0.3198
  954MOL0     C28664   0.660   8.561  10.155 -0.0562 -0.1872  0.5134
  954MOL0     C28665   0.768   8.671  10.152 -0.1085  0.0873 -0.3576
  954MOL0     C28666   0.914   8.624  10.151  0.6843  0.0935 -0.3727
  954MOL0     C28667   1.004   8.737  10.102 -0.3881  1.5983 -0.6709
  954MOL0     C28668   1.149   8.702  10.124  0.2301 -0.6920 -0.4508
  954MOL0     C28669   1.211   8.605  10.018 -0.8200  0.8926  0.3006
  954MOL0     C28670   1.361   8.618  10.007  0.3468 -0.9377 -0.0927
  954MOL0     C28671   1.421   8.541   9.882 -0.3022 -0.6763  0.2106
  954MOL0     N28672   1.561   8.528   9.893 -0.3630 -0.2360  0.3908
  954MOL0     C28673   1.632   8.447   9.805  0.3854 -0.2218 -0.1114
  954MOL0     C28674   1.767   8.469   9.834  0.1703 -0.0277 -0.1374
  954MOL0     C28675   1.889   8.408   9.773 -0.4351 -0.1037 -0.0041
  954MOL0     C28676   1.981   8.511   9.696  1.1064 -0.0943  0.3648
  954MOL0     C28677   2.110   8.443   9.640  0.0506  0.1424  0.4385
  954MOL0     C28678   2.203   8.553   9.570  0.3851 -0.3813 -0.7503
  954MOL0     O28679   2.332   8.538   9.632 -0.4445  0.0882 -0.3949
  954MOL0     C28680   2.429   8.631   9.605  0.6124  0.8313  0.3429
  954MOL0     C28681   2.406   8.733   9.511 -0.5387 -0.8377 -0.6256
  954MOL0     C28682   2.508   8.826   9.482  0.1683 -0.2377  0.2109
  954MOL0     C28683   2.631   8.808   9.539 -0.6031 -0.6325 -1.0678
  954MOL0     C28684   2.725   8.921   9.535  0.4752  0.5593  0.4007
  954MOL0     O28685   2.821   8.923   9.635 -0.0362 -0.3036 -0.9741
  954MOL0     C28686   2.910   9.032   9.639  0.2534  0.7025 -0.1077
  954MOL0     C28687   3.044   9.007   9.646 -0.0320 -0.2304  0.3889
  954MOL0     C28688   3.129   9.114   9.686  0.4139  0.7487  1.1167
  954MOL0     C28689   3.084   9.252   9.708  0.7298 -0.2452 -0.2811
  954MOL0     O28690   3.179   9.341   9.736  0.2457  0.3896 -0.6767
  954MOL0     C28691   3.169   9.461   9.658 -0.3684 -0.3406 -0.5098
  954MOL0     C28692   3.293   9.546   9.694  0.8593 -0.0227  0.3134
  954MOL0     C28693   3.427   9.479   9.686 -0.3961  0.0163 -0.1876
  954MOL0     C28694   3.443   9.373   9.572  0.2285  0.0615 -0.7590
  954MOL0     C28695   3.588   9.299   9.570 -0.9637 -0.6005  0.1333
  954MOL0     C28696   3.708   9.402   9.549 -0.3473 -0.3439 -1.0040
  954MOL0     C28697   3.844   9.330   9.552  0.0099  0.1760 -0.0563
  954MOL0     C28698   3.936   9.410   9.648  0.3536 -0.2382 -0.2577
  954MOL0    Cl28699   3.983   9.573   9.574  0.3308  0.6195 -0.1546
  954MOL0     C28700   2.945   9.267   9.706  0.1528  0.1479  0.0425
  954MOL0     C28701   2.860   9.156   9.674 -0.1342 -0.0228  0.1594
  954MOL0     O28702   2.724   8.992   9.433 -0.2543  0.3752  0.2024
  954MOL0     C28703   2.652   8.699   9.630  0.5002  0.4781 -0.1076
  954MOL0     C28704   2.551   8.613   9.669  0.6787 -0.0394 -0.1486
  954MOL0     N28705   1.770   8.560   9.938 -0.2433 -0.4560 -0.3921
  954MOL0     N28706   1.648   8.590   9.978 -0.1545 -0.4144  0.2162
  954MOL0     C28707   0.432   8.381  10.192 -0.6011 -0.4214 -0.1043
  954MOL0     C28708   0.330   8.301  10.230 -0.3150  0.0324 -0.7153
  954MOL0     C28709  -0.115   8.199  10.363 -0.4012  0.5294  0.0415
  954MOL0     C28710  -0.103   8.063  10.315 -0.8082 -0.2688  0.4736
  954MOL0     C28711  -0.197   7.961  10.345 -0.7545 -0.3852  0.2528
  954MOL0     C28712  -0.323   8.004  10.380 -0.5160  0.1247  0.0932
  954MOL0     O28713  -0.430   7.917  10.402 -0.3699  0.2205 -0.6243
  954MOL0     C28714  -0.500   7.844  10.294  0.9988 -0.1529 -0.3192
  954MOL0     C28715  -0.555   7.712  10.357  0.6182 -0.1783 -0.2490
  954MOL0     C28716  -0.692   7.730  10.424 -0.6823 -0.0165 -0.6929
  954MOL0     C28717  -0.685   7.810  10.547  0.1265  0.7880 -0.3774
  954MOL0     C28718  -0.808   7.798  10.630  0.2185  0.0496 -0.7691
  954MOL0     C28719  -0.913   7.810  10.692  0.3581 -0.0251  0.6814
  954MOL0     C28720  -0.347   8.138  10.419  0.2146  0.2126  0.1516
  954MOL0     C28721  -0.248   8.238  10.414 -0.5608  0.1550  0.5755
  954MOL0     C28722  -0.286   8.383  10.450 -0.1029  0.6203 -0.2469
  954MOL0     H28723   0.090   8.542  10.283 -0.6115  1.6256 -2.3983
  954MOL0     H28724   0.303   8.684  10.260  2.3551 -0.6064  0.9785
  954MOL0     H28725   0.675   8.485  10.232 -0.2932 -1.4068 -0.6151
  954MOL0     H28726   0.659   8.518  10.055  2.2677  3.1495 -1.1279
  954MOL0     H28727   0.753   8.742  10.235  1.1445  1.2013 -1.0383
  954MOL0     H28728   0.752   8.742  10.070  1.2141  3.1716  1.8281
  954MOL0     H28729   0.935   8.539  10.085 -0.6175 -1.5499  1.2303
  954MOL0     H28730   0.941   8.607  10.255  1.8767  1.6248 -0.3947
  954MOL0     H28731   0.982   8.752   9.996 -0.8952 -0.4708 -0.8896
  954MOL0     H28732   0.974   8.835  10.141 -2.2346  2.2237 -3.3444
  954MOL0     H28733   1.206   8.795  10.132  0.0874 -0.7067  0.9044
  954MOL0     H28734   1.170   8.655  10.221  0.4016  2.0757  0.9509
  954MOL0     H28735   1.191   8.498  10.030  2.5072  0.2270  0.8908
  954MOL0     H28736   1.167   8.631   9.922  0.2102  1.5423 -0.0099
  954MOL0     H28737   1.405   8.587  10.103 -0.7708 -0.6618  0.5338
  954MOL0     H28738   1.387   8.723   9.991  0.4944 -0.8903  0.4144
  954MOL0     H28739   1.373   8.444   9.892 -1.2525 -0.2148  0.2741
  954MOL0     H28740   1.394   8.585   9.785  3.4142  1.2504 -0.1443
  954MOL0     H28741   1.594   8.391   9.721  0.3103  0.0398 -0.2522
  954MOL0     H28742   1.946   8.360   9.853 -1.2199 -0.8725  0.1090
  954MOL0     H28743   1.856   8.323   9.712  0.0981 -0.0950 -0.3060
  954MOL0     H28744   1.917   8.550   9.616 -0.2246 -1.0738  0.8980
  954MOL0     H28745   2.000   8.587   9.772  0.9361 -2.9269  3.4935
  954MOL0     H28746   2.082   8.372   9.561 -0.3147  0.9725 -0.1977
  954MOL0     H28747   2.168   8.378   9.706  2.1100 -0.9633 -2.2463
  954MOL0     H28748   2.174   8.654   9.599  2.8042 -0.0721  0.8048
  954MOL0     H28749   2.209   8.552   9.461 -0.4857  1.8450 -0.8722
  954MOL0     H28750   2.315   8.744   9.453 -0.1974 -0.1647 -1.0489
  954MOL0     H28751   2.489   8.914   9.421 -0.3816 -0.4363  0.0997
  954MOL0     H28752   3.083   8.907   9.634 -2.1142 -0.9120 -1.3778
  954MOL0     H28753   3.237   9.115   9.678  0.2923 -0.6464 -2.3647
  954MOL0     H28754   3.177   9.448   9.550 -0.1483  1.7508 -0.7982
  954MOL0     H28755   3.076   9.515   9.681 -0.3655 -1.4230  2.4304
  954MOL0     H28756   3.301   9.632   9.627 -2.7304 -0.3298 -0.7168
  954MOL0     H28757   3.271   9.583   9.794 -0.6792  0.3148 -0.1211
  954MOL0     H28758   3.508   9.552   9.677  1.8678 -1.9453  2.4369
  954MOL0     H28759   3.445   9.427   9.780  0.2177 -0.3585 -0.5010
  954MOL0     H28760   3.455   9.425   9.477  0.5995 -2.6075 -2.2779
  954MOL0     H28761   3.363   9.299   9.578  0.7225 -0.7432 -2.9845
  954MOL0     H28762   3.592   9.215   9.500 -1.9330 -0.7559  0.2495
  954MOL0     H28763   3.605   9.256   9.669 -3.2157  0.0919  0.8805
  954MOL0     H28764   3.699   9.473   9.467 -2.8070  1.0481  0.3714
  954MOL0     H28765   3.692   9.462   9.639 -3.2005 -1.4908 -0.6410
  954MOL0     H28766   3.887   9.325   9.451 -0.1288 -2.2101 -0.0454
  954MOL0     H28767   3.843   9.226   9.584 -1.0120 -0.1730 -1.1566
  954MOL0     H28768   3.886   9.436   9.742  1.6471  1.8712 -0.0963
  954MOL0     H28769   4.030   9.358   9.671  0.6857  0.7361  0.6842
  954MOL0     H28770   2.897   9.363   9.723  1.5363  0.3998  3.0489
  954MOL0     H28771   2.752   9.157   9.679 -0.1003 -1.5665  2.0700
  954MOL0     H28772   2.748   8.689   9.681  0.9373  3.4185 -0.1784
  954MOL0     H28773   2.562   8.527   9.734  0.8835  1.4990  1.9358
  954MOL0     H28774   0.532   8.339  10.183 -0.3904 -0.5289  2.1538
  954MOL0     H28775   0.334   8.193  10.232  0.8883  0.0397  1.9488
  954MOL0     H28776  -0.006   8.040  10.272  0.3751  1.9736  1.7584
  954MOL0     H28777  -0.171   7.859  10.320  2.4738 -0.1463  2.1169
  954MOL0     H28778  -0.426   7.824  10.216  0.0439 -1.5190 -0.9033
  954MOL0     H28779  -0.579   7.895  10.239 -0.0803 -1.5544 -0.1487
  954MOL0     H28780  -0.485   7.671  10.430 -1.2412  0.2578  1.8715
  954MOL0     H28781  -0.559   7.634  10.281  1.3497  0.7473 -1.2640
  954MOL0     H28782  -0.731   7.631  10.447  1.5107 -0.8733 -0.4376
  954MOL0     H28783  -0.754   7.772  10.344 -1.2302 -4.9899 -3.2631
  954MOL0     H28784  -0.600   7.769  10.602 -1.0150 -1.0702  0.0873
  954MOL0     H28785  -0.670   7.915  10.521  2.7335  1.2316  2.3865
  954MOL0     H28786  -1.003   7.815  10.749 -0.6018  0.2798 -0.7885
  954MOL0     H28787  -0.444   8.179  10.443  0.7246  0.7020  1.5022
  954MOL0     H28788  -0.392   8.399  10.432 -0.4490 -2.4537 -1.5748
  954MOL0     H28789  -0.255   8.407  10.553  1.1031  3.0712 -1.0952
  954MOL0     H28790  -0.245   8.454  10.378 -1.7473  1.9263  0.0544
  955MOL0     O28791   8.669   0.351   3.018 -0.0398 -0.9071 -1.0039
  955MOL0     C28792   8.634   0.383   2.906 -0.2832  0.0280 -0.2187
  955MOL0     O28793   8.710   0.426   2.803  0.1969  0.3859  0.3284
  955MOL0     C28794   8.846   0.420   2.815  0.0365  0.2632 -0.0682
  955MOL0     C28795   8.916   0.344   2.727 -0.3486  0.2743 -0.4238
  955MOL0     C28796   9.058   0.358   2.726 -0.2376  0.9696  0.8709
  955MOL0     C28797   9.127   0.433   2.820 -1.3119  0.3739 -0.5285
  955MOL0     O28798   9.265   0.427   2.805 -0.0053 -0.0066 -0.5503
  955MOL0     C28799   9.328   0.497   2.914 -0.8250 -0.5415 -0.0604
  955MOL0     C28800   9.481   0.461   2.909 -0.2819  1.2363 -0.4796
  955MOL0     C28801   9.556   0.539   3.022  0.6200  0.0526  1.0673
  955MOL0     C28802   9.703   0.501   3.037 -0.1330 -0.3125 -0.8627
  955MOL0     C28803   9.772   0.586   3.142 -0.0909  1.0466 -0.5560
  955MOL0     C28804   9.826   0.712   3.094 -0.7999  0.3423  0.2147
  955MOL0     C28805   9.948   0.695   2.997  0.3332 -0.2730 -0.4181
  955MOL0     C28806   9.975   0.838   2.950  0.9261 -0.2973  0.3260
  955MOL0     N28807  10.006   0.942   3.059 -0.5802  0.7845  0.7016
  955MOL0     C28808   9.914   1.035   3.103 -0.5150  0.1537 -0.5512
  955MOL0     C28809   9.996   1.120   3.168 -0.4536 -0.0723  0.1410
  955MOL0     C28810   9.956   1.250   3.233 -0.3168  0.4269 -0.5458
  955MOL0     C28811   9.842   1.325   3.170  0.0274 -0.1678  0.2770
  955MOL0     C28812   9.848   1.353   3.019  0.9711  0.2638 -0.4483
  955MOL0     C28813   9.974   1.427   2.960  0.1992  0.4416 -0.2612
  955MOL0     O28814   9.938   1.497   2.836  0.3754 -0.0453  0.1531
  955MOL0     C28815  10.038   1.547   2.760  0.5923  0.3047  0.1927
  955MOL0     C28816  10.178   1.505   2.760  0.6590 -0.4089 -0.6355
  955MOL0     C28817  10.260   1.561   2.667 -0.2057 -1.0506  0.5999
  955MOL0     C28818  10.217   1.663   2.573 -0.0976 -0.3794 -1.1547
  955MOL0     C28819  10.312   1.723   2.480 -0.0771 -0.7952  0.2952
  955MOL0     O28820  10.437   1.660   2.469  0.2869 -0.5073  0.0278
  955MOL0     C28821  10.528   1.726   2.382  1.0270 -0.4172  0.2002
  955MOL0     C28822  10.569   1.858   2.415 -0.6835  0.2877  0.2808
  955MOL0     C28823  10.674   1.914   2.342  0.3126  0.0539  0.4284
  955MOL0     C28824  10.713   1.848   2.224  0.8823 -1.0748  0.6562
  955MOL0     O28825  10.809   1.906   2.140 -0.2532  0.5768 -0.2617
  955MOL0     C28826  10.948   1.905   2.186  0.7313 -0.3698  0.9498
  955MOL0     C28827  11.024   2.024   2.128 -0.2158  0.2325  0.2422
  955MOL0     C28828  11.181   2.008   2.119  0.1632  0.1237 -0.2899
  955MOL0     C28829  11.244   2.114   2.023  0.4876 -0.1685  0.9474
  955MOL0     C28830  11.399   2.093   2.026 -0.1145  0.8258  0.6801
  955MOL0     C28831  11.481   2.189   1.961 -0.3080 -0.0774  0.5946
  955MOL0     C28832  11.504   2.321   2.042 -0.3853 -0.0912  0.4244
  955MOL0     C28833  11.575   2.437   1.973  0.1291  0.8926 -0.1759
  955MOL0    Cl28834  11.571   2.587   2.074 -0.1187 -0.3272  0.3104
  955MOL0     C28835  10.656   1.729   2.174 -0.3307 -0.8346 -0.4043
  955MOL0     C28836  10.570   1.666   2.258 -0.1690  0.5402  0.1515
  955MOL0     O28837  10.262   1.811   2.408 -0.4580 -0.2553 -0.5895
  955MOL0     C28838  10.083   1.697   2.572  0.1751  0.8763 -0.2396
  955MOL0     C28839   9.998   1.643   2.669 -0.3406  0.0521  0.3312
  955MOL0     N28840  10.133   1.083   3.161 -0.1402  0.3135  0.4443
  955MOL0     N28841  10.136   0.978   3.084  0.0612  0.0904  0.3794
  955MOL0     C28842   9.044   0.498   2.918 -0.0137 -0.2574  0.1619
  955MOL0     C28843   8.909   0.494   2.923 -0.4092 -0.3130 -0.9250
  955MOL0     C28844   8.490   0.395   2.873 -0.0416 -0.1773  0.4499
  955MOL0     C28845   8.440   0.520   2.839 -0.5963 -0.1611  0.0576
  955MOL0     C28846   8.306   0.533   2.797 -1.0155  0.1344  0.4117
  955MOL0     C28847   8.221   0.420   2.796 -0.3821 -0.8899 -0.6988
  955MOL0     O28848   8.084   0.420   2.778  0.0672 -0.3645 -0.1246
  955MOL0     C28849   8.021   0.547   2.748 -0.5083 -0.1552 -0.5870
  955MOL0     C28850   7.871   0.543   2.722 -0.9345  0.3293 -0.0151
  955MOL0     C28851   7.800   0.675   2.682  0.7300  0.3906 -0.0718
  955MOL0     C28852   7.658   0.655   2.644  0.2502  0.0141 -0.3906
  955MOL0     C28853   7.643   0.579   2.520  0.3811  0.7871 -0.0306
  955MOL0     C28854   7.627   0.501   2.424 -0.3610 -1.2553 -0.2724
  955MOL0     C28855   8.277   0.301   2.836 -0.0468 -0.4983 -0.3848
  955MOL0     C28856   8.404   0.283   2.872  1.0372  0.2124  0.0439
  955MOL0     C28857   8.450   0.143   2.911  0.1977 -0.8750  0.6776
  955MOL0     H28858   8.867   0.288   2.648  2.9794 -0.8930 -1.8390
  955MOL0     H28859   9.112   0.290   2.661 -0.9594 -0.7817  2.0136
  955MOL0     H28860   9.309   0.604   2.913 -0.3935 -0.4555 -2.0221
  955MOL0     H28861   9.296   0.466   3.014  0.8944 -0.4726  0.5425
  955MOL0     H28862   9.531   0.490   2.816  0.1502 -0.6646 -0.8949
  955MOL0     H28863   9.488   0.354   2.933 -0.0162  1.8323  2.5281
  955MOL0     H28864   9.506   0.533   3.120  0.9091 -0.2551  1.1975
  955MOL0     H28865   9.545   0.642   2.988  1.3269 -0.3520 -0.4653
  955MOL0     H28866   9.710   0.393   3.050 -1.5002 -0.2223  1.0793
  955MOL0     H28867   9.749   0.520   2.939 -2.0868  3.0114 -1.3030
  955MOL0     H28868   9.701   0.607   3.223  1.3212  1.1672  0.6925
  955MOL0     H28869   9.859   0.527   3.171 -0.0886  1.5629  0.5492
  955MOL0     H28870   9.746   0.770   3.047  0.1568  0.3394 -1.4633
  955MOL0     H28871   9.873   0.762   3.179  0.7751 -0.1862 -0.3078
  955MOL0     H28872   9.923   0.630   2.912 -0.8249 -0.2553 -0.1093
  955MOL0     H28873  10.040   0.658   3.042  0.0992 -4.7311 -2.9971
  955MOL0     H28874  10.050   0.834   2.870 -0.5815  0.6585 -1.2072
  955MOL0     H28875   9.893   0.881   2.891  3.1007  0.0837 -2.6578
  955MOL0     H28876   9.809   1.032   3.077  0.2435 -0.6021 -3.9075
  955MOL0     H28877   9.926   1.220   3.334  1.0282 -3.7326 -1.1956
  955MOL0     H28878  10.042   1.314   3.253 -1.7294  1.0435  5.5082
  955MOL0     H28879   9.744   1.283   3.197  0.9984 -2.5765  0.3238
  955MOL0     H28880   9.841   1.429   3.205 -0.3055  0.6843 -2.0804
  955MOL0     H28881   9.756   1.404   2.990 -0.5374 -0.7197  2.2677
  955MOL0     H28882   9.845   1.255   2.969 -0.6386 -1.6460  3.0611
  955MOL0     H28883  10.060   1.361   2.947 -0.0606  0.3289 -1.4700
  955MOL0     H28884  10.009   1.503   3.031 -0.4371  1.0534 -0.5786
  955MOL0     H28885  10.218   1.431   2.829  1.9427  0.3980 -0.4765
  955MOL0     H28886  10.360   1.518   2.667  0.3694  0.2410  1.0324
  955MOL0     H28887  10.533   1.905   2.506 -0.2743 -1.0849  1.1926
  955MOL0     H28888  10.703   2.009   2.386 -0.3464  0.1820  0.5848
  955MOL0     H28889  10.954   1.894   2.294 -3.9163 -1.1642  1.3283
  955MOL0     H28890  10.991   1.814   2.142 -1.8265 -0.6981 -1.1341
  955MOL0     H28891  10.984   2.048   2.029  2.1727 -1.4070 -1.2279
  955MOL0     H28892  10.997   2.103   2.198 -0.8160 -0.4357  0.7675
  955MOL0     H28893  11.216   2.033   2.220 -0.7643  0.9654 -0.1605
  955MOL0     H28894  11.219   1.911   2.087  1.1364  0.3169  0.2409
  955MOL0     H28895  11.227   2.217   2.056  0.9642 -0.9961  4.1485
  955MOL0     H28896  11.219   2.090   1.920  4.2562 -1.1006  0.0767
  955MOL0     H28897  11.418   1.997   1.979  0.9482  1.1292  0.4586
  955MOL0     H28898  11.428   2.090   2.132 -0.4482 -0.5016  0.7413
  955MOL0     H28899  11.577   2.147   1.930 -0.1069  1.0844 -0.4218
  955MOL0     H28900  11.434   2.222   1.868 -0.9434  1.0039  1.2797
  955MOL0     H28901  11.563   2.300   2.132  0.2777  1.3584  0.3447
  955MOL0     H28902  11.407   2.353   2.081 -0.9962 -0.8178 -0.4489
  955MOL0     H28903  11.675   2.405   1.942 -0.7256 -2.3719  0.1218
  955MOL0     H28904  11.519   2.453   1.881  2.4627 -1.6936 -2.2210
  955MOL0     H28905  10.695   1.692   2.079 -2.7690 -2.9318 -0.6852
  955MOL0     H28906  10.532   1.565   2.243 -2.1976  1.0930  1.1710
  955MOL0     H28907  10.021   1.754   2.503 -0.8189 -0.9064 -0.8745
  955MOL0     H28908   9.898   1.685   2.680 -0.4960  0.4928 -2.1338
  955MOL0     H28909   9.101   0.550   2.993  3.2672 -0.7585 -1.7685
  955MOL0     H28910   8.847   0.543   2.998 -1.4522  0.5017 -2.2720
  955MOL0     H28911   8.499   0.611   2.836 -0.8120 -0.0063  0.3924
  955MOL0     H28912   8.275   0.632   2.766  2.4754  1.2847  0.1039
  955MOL0     H28913   8.064   0.601   2.664 -0.7356  1.2149  0.1500
  955MOL0     H28914   8.043   0.602   2.840  1.2375 -2.1283  0.2674
  955MOL0     H28915   7.813   0.503   2.805  0.1556 -1.2414  0.0327
  955MOL0     H28916   7.864   0.479   2.634  1.0786 -0.6347  0.4615
  955MOL0     H28917   7.847   0.725   2.596 -1.1017  1.4379 -0.5208
  955MOL0     H28918   7.802   0.741   2.770  2.4087 -1.5337  1.4467
  955MOL0     H28919   7.598   0.605   2.721  1.0868 -1.8823 -0.9176
  955MOL0     H28920   7.611   0.751   2.623 -1.0229 -0.9983 -2.5184
  955MOL0     H28921   7.601   0.428   2.350 -1.5167 -0.8405 -0.2911
  955MOL0     H28922   8.208   0.217   2.827 -0.4114 -0.0660 -1.8749
  955MOL0     H28923   8.529   0.140   2.987  1.2210 -2.3582 -0.3662
  955MOL0     H28924   8.365   0.085   2.946  1.1364 -2.6067  0.2392
  955MOL0     H28925   8.506   0.097   2.828 -0.7021  1.7884 -1.5300
  956MOL0     O28926   6.630  10.205   4.327  0.2187  0.6396 -0.0330
  956MOL0     C28927   6.599  10.138   4.224  1.0695 -0.1321 -0.5192
  956MOL0     O28928   6.471  10.082   4.192 -0.6949  0.3652 -0.0212
  956MOL0     C28929   6.370  10.137   4.261 -0.2988  0.4735  0.5213
  956MOL0     C28930   6.324  10.088   4.386 -0.2766 -0.7541 -0.1276
  956MOL0     C28931   6.212  10.146   4.458 -0.4311  0.6736  0.3780
  956MOL0     C28932   6.155  10.263   4.404  0.3492  0.7376  0.2935
  956MOL0     O28933   6.050  10.328   4.470  0.2248 -0.0063 -0.4713
  956MOL0     C28934   6.042  10.301   4.612  0.1623 -0.0684 -0.0814
  956MOL0     C28935   5.947  10.407   4.676  0.5277  0.7247  0.3318
  956MOL0     C28936   5.864  10.347   4.800  0.5625  0.2883  0.3655
  956MOL0     C28937   5.759  10.238   4.739 -0.3084  0.1624 -0.5539
  956MOL0     C28938   5.610  10.271   4.780 -0.3425  0.5130  0.3832
  956MOL0     C28939   5.518  10.152   4.741  0.0761  0.4215 -0.6112
  956MOL0     C28940   5.466  10.158   4.599  0.3228 -0.1961  0.0600
  956MOL0     C28941   5.350  10.069   4.580  0.2363  0.0567 -0.0418
  956MOL0     N28942   5.326  10.058   4.436  0.7607 -0.1338 -0.3489
  956MOL0     C28943   5.334   9.945   4.357  0.2593  0.0503 -0.1188
  956MOL0     C28944   5.291   9.985   4.232 -0.0706  0.6796 -0.2002
  956MOL0     C28945   5.279   9.907   4.114  1.5760  0.0630 -0.2697
  956MOL0     C28946   5.380   9.792   4.090 -0.2001 -0.3665 -0.2563
  956MOL0     C28947   5.459   9.818   3.962 -0.1386 -0.6474 -0.0329
  956MOL0     C28948   5.539   9.697   3.933 -0.1062  0.0936  0.0509
  956MOL0     O28949   5.650   9.664   4.021 -0.8244 -0.5432  0.6302
  956MOL0     C28950   5.723   9.559   3.981 -0.9535  0.6688 -1.1896
  956MOL0     C28951   5.708   9.480   3.863  0.1776 -0.0738  0.2035
  956MOL0     C28952   5.813   9.392   3.827 -0.0038 -0.2263 -0.3999
  956MOL0     C28953   5.917   9.362   3.922 -0.4795  0.2191  0.8208
  956MOL0     C28954   6.024   9.267   3.889  0.4355  0.2913  0.3936
  956MOL0     O28955   6.144   9.279   3.953 -0.5704  0.5673  0.9100
  956MOL0     C28956   6.263   9.214   3.921  0.5172 -0.4896 -0.4882
  956MOL0     C28957   6.277   9.097   3.846 -0.1965 -0.8568  0.0632
  956MOL0     C28958   6.404   9.032   3.835 -0.1172  0.3603 -0.6271
  956MOL0     C28959   6.519   9.090   3.897  0.5385  0.7383  0.8267
  956MOL0     O28960   6.642   9.037   3.897  0.3052  0.2597 -0.1627
  956MOL0     C28961   6.682   8.928   3.804 -0.2234 -0.0831  0.0632
  956MOL0     C28962   6.835   8.909   3.821 -0.9306 -0.4859 -0.3511
  956MOL0     C28963   6.924   9.021   3.755 -0.0884  0.8328  0.3506
  956MOL0     C28964   6.948   9.146   3.840  0.3323  0.1687  1.0557
  956MOL0     C28965   7.070   9.237   3.793  0.4326 -0.1283 -0.3743
  956MOL0     C28966   7.094   9.353   3.891  0.6094 -0.3781 -0.2968
  956MOL0     C28967   7.174   9.457   3.816 -0.0714 -0.3577  0.7029
  956MOL0     C28968   7.311   9.413   3.776  0.5913  0.2351 -0.5459
  956MOL0    Cl28969   7.418   9.394   3.922  0.3963  0.1386  0.1510
  956MOL0     C28970   6.503   9.212   3.957  0.0761  0.3252  0.4352
  956MOL0     C28971   6.378   9.277   3.970 -0.7689  1.0883  0.2268
  956MOL0     O28972   6.000   9.194   3.793 -0.0059 -0.3348  0.5292
  956MOL0     C28973   5.927   9.436   4.035  0.2973 -0.0381 -0.6392
  956MOL0     C28974   5.831   9.536   4.064  0.2972  0.1581  0.4051
  956MOL0     N28975   5.254  10.117   4.238 -0.0114  0.3276  0.1516
  956MOL0     N28976   5.272  10.151   4.355 -0.0442 -0.3569  0.3224
  956MOL0     C28977   6.193  10.310   4.279 -0.2716  0.8013 -0.0893
  956MOL0     C28978   6.298  10.246   4.209  0.7378  0.8223 -0.8244
  956MOL0     C28979   6.697  10.114   4.115 -0.5305 -0.2163  1.0029
  956MOL0     C28980   6.655  10.058   3.985 -0.2353 -0.1684 -0.6319
  956MOL0     C28981   6.737  10.046   3.874 -0.1758 -0.5473 -0.2184
  956MOL0     C28982   6.874  10.078   3.883  0.2211  0.5597 -0.0154
  956MOL0     O28983   6.959  10.070   3.777  0.9140  0.8551 -0.2608
  956MOL0     C28984   6.963   9.940   3.704 -0.6340 -0.1508  0.0489
  956MOL0     C28985   7.105   9.913   3.663 -0.6052  0.1622  0.0516
  956MOL0     C28986   7.169   9.845   3.785 -0.7706  0.4818  0.2851
  956MOL0     C28987   7.330   9.851   3.777  0.2185  0.2471  0.9138
  956MOL0     C28988   7.367   9.790   3.908  0.6533 -0.7899 -0.1534
  956MOL0     C28989   7.391   9.751   4.021 -0.0533 -0.4693  0.4816
  956MOL0     C28990   6.923  10.128   4.007 -0.0802 -0.1756  0.2297
  956MOL0     C28991   6.833  10.156   4.119 -0.5274  0.7367 -0.2609
  956MOL0     C28992   6.905  10.219   4.232 -0.4068 -1.1630 -0.1406
  956MOL0     H28993   6.374  10.002   4.428 -1.6193 -0.8812  1.2958
  956MOL0     H28994   6.175  10.105   4.551 -0.0079 -0.1634  0.1805
  956MOL0     H28995   6.009  10.200   4.638  1.6307  0.0429  2.5768
  956MOL0     H28996   6.144  10.315   4.649  1.3642  1.6880 -3.5725
  956MOL0     H28997   5.868  10.451   4.613  3.1150  1.2516 -2.8119
  956MOL0     H28998   6.004  10.495   4.707 -1.1709  2.1098 -0.2749
  956MOL0     H28999   5.809  10.427   4.850 -0.1383  0.7455 -1.0548
  956MOL0     H29000   5.940  10.301   4.863 -0.9250  0.8799  2.7106
  956MOL0     H29001   5.766  10.242   4.630  1.4632  1.6306 -0.4395
  956MOL0     H29002   5.795  10.144   4.783  1.0151  0.6016 -0.6320
  956MOL0     H29003   5.600  10.292   4.887  1.3821  2.1799  0.2546
  956MOL0     H29004   5.579  10.364   4.733  0.7151  1.4918  1.5705
  956MOL0     H29005   5.568  10.058   4.768  2.3084  0.6350 -3.4585
  956MOL0     H29006   5.433  10.167   4.807  1.0316  0.4362  0.6624
  956MOL0     H29007   5.545  10.130   4.528  0.4458  0.9206 -0.2589
  956MOL0     H29008   5.427  10.258   4.579  2.7845  1.1058  1.2870
  956MOL0     H29009   5.355   9.974   4.634 -3.3918  0.1456  0.6782
  956MOL0     H29010   5.260  10.121   4.611  1.1085  0.5212  1.8669
  956MOL0     H29011   5.375   9.851   4.391 -2.3065 -0.2752  2.4921
  956MOL0     H29012   5.181   9.860   4.127  0.9831  1.3787  0.2375
  956MOL0     H29013   5.282   9.972   4.027 -0.6284 -0.1461 -0.5584
  956MOL0     H29014   5.461   9.782   4.163  0.4530 -0.7764 -1.0158
  956MOL0     H29015   5.322   9.700   4.091  0.2742 -0.6740 -0.6014
  956MOL0     H29016   5.522   9.906   3.974  0.4343 -1.0227 -0.2278
  956MOL0     H29017   5.393   9.837   3.876 -1.2552 -0.3304  0.8599
  956MOL0     H29018   5.583   9.718   3.835 -1.1104 -0.8981 -0.6364
  956MOL0     H29019   5.476   9.610   3.911 -0.2561  0.6098 -1.7887
  956MOL0     H29020   5.638   9.493   3.782  1.1153 -1.4215 -0.8484
  956MOL0     H29021   5.814   9.343   3.730 -0.9528  1.7885 -1.4758
  956MOL0     H29022   6.191   9.047   3.803 -1.2578 -0.6435  1.8069
  956MOL0     H29023   6.421   8.937   3.785  1.0045 -0.5433  1.3680
  956MOL0     H29024   6.626   8.836   3.826  0.2396 -0.3200  0.2604
  956MOL0     H29025   6.668   8.949   3.698 -0.8242  0.1106  0.1783
  956MOL0     H29026   6.858   8.892   3.926  3.1420  1.7396 -0.6867
  956MOL0     H29027   6.855   8.817   3.766 -0.4480 -0.8136  0.3632
  956MOL0     H29028   7.024   8.981   3.732 -1.5270 -1.4971 -2.4772
  956MOL0     H29029   6.872   9.042   3.662 -1.6714  0.3134  1.0812
  956MOL0     H29030   6.956   9.119   3.946  0.9213  1.1852  1.2854
  956MOL0     H29031   6.855   9.204   3.829 -0.4794 -1.2711  0.0121
  956MOL0     H29032   7.034   9.281   3.700 -2.3390  3.2193  2.0162
  956MOL0     H29033   7.165   9.182   3.792  0.8464  0.5659 -0.0117
  956MOL0     H29034   6.997   9.401   3.906  0.1114 -1.3080 -0.4321
  956MOL0     H29035   7.134   9.307   3.981  0.8412 -0.4965 -0.4592
  956MOL0     H29036   7.197   9.540   3.884  1.7390 -1.2952  1.3210
  956MOL0     H29037   7.122   9.495   3.728  0.2003 -1.2764  0.1362
  956MOL0     H29038   7.308   9.325   3.710  0.0081 -1.5768  1.7427
  956MOL0     H29039   7.350   9.495   3.715 -0.0968 -0.9039 -2.6500
  956MOL0     H29040   6.600   9.249   3.990 -0.0075 -2.5312  4.7084
  956MOL0     H29041   6.374   9.369   4.027 -0.5856  1.2378 -0.0041
  956MOL0     H29042   6.008   9.418   4.106 -1.1817  2.3573  1.8495
  956MOL0     H29043   5.825   9.591   4.158 -4.6237  2.4501 -0.9219
  956MOL0     H29044   6.147  10.394   4.229  3.0055  2.5414 -0.4613
  956MOL0     H29045   6.331  10.276   4.110 -0.6104  1.8136 -1.0003
  956MOL0     H29046   6.550  10.044   3.965 -0.4639  0.7848 -0.1559
  956MOL0     H29047   6.699  10.030   3.774  1.1940  1.6864 -1.1586
  956MOL0     H29048   6.900   9.955   3.616 -2.1692 -2.4656  0.6501
  956MOL0     H29049   6.918   9.859   3.762  2.0513 -1.3420  0.5910
  956MOL0     H29050   7.156  10.005   3.633 -2.4556  2.2305  2.7787
  956MOL0     H29051   7.100   9.839   3.582 -2.8735  0.0498  0.2326
  956MOL0     H29052   7.142   9.740   3.798  1.5819 -0.6897 -2.9371
  956MOL0     H29053   7.143   9.901   3.875 -0.9422  3.6247 -1.5358
  956MOL0     H29054   7.374   9.789   3.698 -0.4464  1.3957 -0.3917
  956MOL0     H29055   7.350   9.958   3.785 -1.6787  0.5354  3.0096
  956MOL0     H29056   7.417   9.713   4.118  2.8645  1.1577  0.4730
  956MOL0     H29057   7.029  10.145   4.020 -0.1901  0.3969  0.4046
  956MOL0     H29058   6.878  10.146   4.310 -2.3173 -1.0905 -0.7068
  956MOL0     H29059   7.011  10.233   4.210 -0.3339  1.5552  1.4635
  956MOL0     H29060   6.872  10.318   4.263 -0.4212 -1.0613 -0.4800
  957MOL0     O29061   5.018   2.041   6.771 -0.6642 -0.2751 -0.9494
  957MOL0     C29062   4.985   2.088   6.879  0.9960  0.1302 -0.6539
  957MOL0     O29063   5.067   2.168   6.953  0.5702 -0.0224  0.3924
  957MOL0     C29064   5.162   2.243   6.898 -0.3600 -1.2231  0.4919
  957MOL0     C29065   5.250   2.300   6.990 -0.5635  0.5849 -0.5183
  957MOL0     C29066   5.339   2.397   6.960 -0.4227 -0.0877 -0.7957
  957MOL0     C29067   5.333   2.456   6.834 -0.1337 -0.9541  0.9184
  957MOL0     O29068   5.413   2.560   6.792 -0.5189 -0.2812 -0.6965
  957MOL0     C29069   5.428   2.663   6.884 -0.2169  0.4569 -0.6823
  957MOL0     C29070   5.571   2.664   6.947 -0.5235  0.1797  0.1141
  957MOL0     C29071   5.690   2.683   6.852  0.2995 -0.0850 -0.5244
  957MOL0     C29072   5.812   2.699   6.940  0.6162  0.3626  0.1762
  957MOL0     C29073   5.931   2.688   6.853 -0.2500  1.2075 -0.0799
  957MOL0     C29074   6.059   2.720   6.934  0.4079  0.1290 -0.0832
  957MOL0     C29075   6.188   2.713   6.850  0.4591  0.1144  0.6045
  957MOL0     C29076   6.298   2.759   6.931 -0.8611  0.4199 -0.3621
  957MOL0     N29077   6.430   2.748   6.869 -0.6186  0.3336 -0.3199
  957MOL0     C29078   6.486   2.824   6.756 -0.1915 -0.0457 -0.9239
  957MOL0     C29079   6.617   2.789   6.757 -1.0369 -0.5719 -0.2229
  957MOL0     C29080   6.721   2.840   6.663 -0.0412 -0.3660  0.0462
  957MOL0     C29081   6.798   2.733   6.580 -0.1364  0.4931 -0.2876
  957MOL0     C29082   6.869   2.620   6.656  0.5606  1.0470 -1.0813
  957MOL0     C29083   7.001   2.573   6.604 -0.7374 -0.1127  0.2369
  957MOL0     O29084   7.089   2.681   6.578 -0.4070  0.2834  0.3993
  957MOL0     C29085   7.199   2.653   6.494 -0.3885  0.1585 -0.3457
  957MOL0     C29086   7.270   2.533   6.496  0.5646  0.6522 -0.4482
  957MOL0     C29087   7.388   2.522   6.420  0.4670  0.2373  0.4560
  957MOL0     C29088   7.442   2.634   6.351 -0.1653  0.1538 -0.3685
  957MOL0     C29089   7.573   2.619   6.274  0.3532 -0.5901  1.0684
  957MOL0     O29090   7.662   2.518   6.286  0.1721  0.9497  0.4885
  957MOL0     C29091   7.788   2.526   6.224  0.6097 -0.3744  0.3833
  957MOL0     C29092   7.866   2.643   6.221  0.1160  0.3841 -0.3387
  957MOL0     C29093   7.980   2.649   6.145 -0.0018  0.8151  0.6871
  957MOL0     C29094   8.037   2.533   6.100  0.6742 -0.0270 -1.1669
  957MOL0     O29095   8.156   2.549   6.039 -0.6512 -0.9255  0.2924
  957MOL0     C29096   8.258   2.461   6.079  0.6282  0.2914 -0.6356
  957MOL0     C29097   8.401   2.499   6.039 -0.0387 -0.2275  0.1481
  957MOL0     C29098   8.513   2.436   6.118 -0.3746  0.0183  0.2923
  957MOL0     C29099   8.509   2.458   6.272 -0.5798 -0.4217  0.1049
  957MOL0     C29100   8.633   2.403   6.344  0.6994 -0.0955 -0.1536
  957MOL0     C29101   8.770   2.463   6.308 -0.1674 -0.2086 -0.0579
  957MOL0     C29102   8.876   2.415   6.408  0.0436  0.0204 -0.9267
  957MOL0     C29103   9.016   2.443   6.368  0.3819  0.2546 -0.0692
  957MOL0    Cl29104   9.122   2.392   6.503  0.3269 -0.6232  0.6443
  957MOL0     C29105   7.965   2.416   6.109 -0.1034  0.6290  0.9839
  957MOL0     C29106   7.842   2.407   6.173  0.4450 -0.0498 -0.1833
  957MOL0     O29107   7.587   2.708   6.185 -0.1875  0.3115  0.3681
  957MOL0     C29108   7.370   2.752   6.361 -1.0120 -0.3289  0.2030
  957MOL0     C29109   7.247   2.762   6.431 -0.3223  0.6355  0.0527
  957MOL0     N29110   6.635   2.711   6.876 -0.1172 -0.0816 -0.2242
  957MOL0     N29111   6.527   2.685   6.940  0.0141  0.4738  0.2175
  957MOL0     C29112   5.241   2.409   6.741 -0.0522 -0.2690 -0.8137
  957MOL0     C29113   5.157   2.297   6.765 -1.2348 -0.4313  0.5043
  957MOL0     C29114   4.839   2.075   6.916 -0.1491 -0.0992 -0.6639
  957MOL0     C29115   4.751   1.984   6.845  0.5515  0.3885  0.0174
  957MOL0     C29116   4.612   1.996   6.853 -0.3220  0.6141  0.0913
  957MOL0     C29117   4.556   2.072   6.958 -0.5872 -0.3958  0.4942
  957MOL0     O29118   4.424   2.092   6.979 -0.2342  0.5394  0.6191
  957MOL0     C29119   4.332   2.017   6.900 -0.1404  1.7342 -0.1480
  957MOL0     C29120   4.185   2.054   6.923 -0.1655  0.0918 -0.1262
  957MOL0     C29121   4.104   1.933   6.882  0.3412 -0.5428 -0.3475
  957MOL0     C29122   3.948   1.925   6.906 -0.7002  0.1806  0.3337
  957MOL0     C29123   3.891   2.032   6.819  0.0066  1.0133 -0.2011
  957MOL0     C29124   3.857   2.114   6.744 -1.3258  0.1918  0.2975
  957MOL0     C29125   4.638   2.147   7.037  0.5573  0.2535 -0.1395
  957MOL0     C29126   4.778   2.144   7.023 -0.8203  0.1436  0.4132
  957MOL0     C29127   4.843   2.226   7.123 -0.2543  0.5377  0.7461
  957MOL0     H29128   5.240   2.265   7.093 -1.5253  1.0894 -0.4250
  957MOL0     H29129   5.402   2.445   7.035  0.1994 -0.8781 -0.8003
  957MOL0     H29130   5.415   2.753   6.822  0.5241 -0.5183 -2.3056
  957MOL0     H29131   5.351   2.667   6.961 -1.5628  0.6117 -1.9790
  957MOL0     H29132   5.579   2.578   7.013 -0.2481 -0.5141 -0.8039
  957MOL0     H29133   5.573   2.752   7.013 -1.3362 -1.2758  2.1686
  957MOL0     H29134   5.671   2.771   6.791 -0.7169 -1.2609 -1.9735
  957MOL0     H29135   5.708   2.595   6.789  3.5522  0.2745 -0.2730
  957MOL0     H29136   5.794   2.799   6.979  0.1846 -0.1963  1.4862
  957MOL0     H29137   5.817   2.622   7.017  0.3420 -0.3556 -0.5065
  957MOL0     H29138   5.940   2.587   6.812  0.1213  1.5541 -0.8746
  957MOL0     H29139   5.920   2.754   6.766  4.0675 -1.1025 -2.7492
  957MOL0     H29140   6.050   2.822   6.971  1.0571  0.4452 -0.7672
  957MOL0     H29141   6.069   2.643   7.012  0.3346 -0.3072 -0.4969
  957MOL0     H29142   6.176   2.767   6.756 -0.0843 -1.3582 -0.2040
  957MOL0     H29143   6.215   2.608   6.835  2.1543  0.9100 -3.0028
  957MOL0     H29144   6.287   2.862   6.965  0.6928  0.1061  1.2469
  957MOL0     H29145   6.287   2.706   7.026 -2.8279 -3.1614 -2.3678
  957MOL0     H29146   6.433   2.879   6.679 -1.0055  0.2583 -0.1584
  957MOL0     H29147   6.678   2.904   6.586 -2.7579 -1.3156  0.6419
  957MOL0     H29148   6.790   2.909   6.711 -1.9026  2.5837 -1.2608
  957MOL0     H29149   6.736   2.685   6.503  2.7089 -4.9520  0.3429
  957MOL0     H29150   6.876   2.792   6.530  0.2962  1.9154  1.9367
  957MOL0     H29151   6.815   2.525   6.660  2.5527 -0.1123 -0.5052
  957MOL0     H29152   6.892   2.657   6.757 -0.4100 -1.0716 -0.0249
  957MOL0     H29153   6.979   2.520   6.511  1.2529 -0.6494  0.0237
  957MOL0     H29154   7.048   2.505   6.676  3.0038  0.8602 -1.0345
  957MOL0     H29155   7.228   2.453   6.557  1.2229  1.9560  1.8553
  957MOL0     H29156   7.447   2.431   6.417  3.0032  1.7883  0.3354
  957MOL0     H29157   7.826   2.731   6.269  0.9249  0.1678  0.7424
  957MOL0     H29158   8.024   2.747   6.129 -1.9180  1.3083 -2.6965
  957MOL0     H29159   8.250   2.462   6.188  0.6125  2.2878 -0.6179
  957MOL0     H29160   8.218   2.364   6.047 -3.4563  0.7224  2.3735
  957MOL0     H29161   8.416   2.478   5.933 -0.0668  0.5860 -0.0226
  957MOL0     H29162   8.412   2.607   6.053  3.5167 -0.6190  1.5687
  957MOL0     H29163   8.510   2.328   6.108 -0.5698 -0.1198  1.6969
  957MOL0     H29164   8.599   2.486   6.072 -1.3335 -0.0022 -1.6375
  957MOL0     H29165   8.422   2.405   6.313  0.5923 -0.6937  2.4392
  957MOL0     H29166   8.509   2.564   6.297 -0.5700 -0.5545  0.6840
  957MOL0     H29167   8.625   2.296   6.323 -1.4891 -0.1305  0.5246
  957MOL0     H29168   8.622   2.425   6.451  0.2365  1.6128 -0.5228
  957MOL0     H29169   8.793   2.429   6.207  0.8773 -1.6153  0.6241
  957MOL0     H29170   8.767   2.573   6.304 -0.8287 -0.2496 -2.1659
  957MOL0     H29171   8.851   2.309   6.420  1.6552 -0.3196 -0.2471
  957MOL0     H29172   8.852   2.465   6.502 -2.0045 -1.8276 -0.3850
  957MOL0     H29173   9.043   2.382   6.281  0.5347  2.1640 -1.4045
  957MOL0     H29174   9.032   2.548   6.342 -2.5648  0.7063 -0.4029
  957MOL0     H29175   8.003   2.332   6.052  1.8761  0.8796  1.8559
  957MOL0     H29176   7.784   2.315   6.175  0.4352 -0.1404 -2.2989
  957MOL0     H29177   7.405   2.841   6.310 -0.7785  0.4646  1.7000
  957MOL0     H29178   7.191   2.855   6.431 -1.7529 -0.1961  0.6749
  957MOL0     H29179   5.240   2.460   6.646  2.4102  1.0315 -0.2315
  957MOL0     H29180   5.081   2.274   6.691 -1.5762  0.4720  0.5524
  957MOL0     H29181   4.792   1.926   6.763 -0.5570 -1.5325  0.7426
  957MOL0     H29182   4.557   1.936   6.782 -0.0243  0.2257  0.1810
  957MOL0     H29183   4.357   1.912   6.922 -1.3472  1.8986  2.3005
  957MOL0     H29184   4.350   2.043   6.795  1.9644 -0.7824 -0.5257
  957MOL0     H29185   4.163   2.146   6.867  5.4247  2.5233  0.9767
  957MOL0     H29186   4.171   2.079   7.028 -1.1839 -1.4810  0.1425
  957MOL0     H29187   4.148   1.845   6.932  2.1610 -0.0279 -0.9491
  957MOL0     H29188   4.115   1.925   6.773 -0.8413  2.1103 -0.7309
  957MOL0     H29189   3.901   1.830   6.882  3.4402 -1.0828 -4.4394
  957MOL0     H29190   3.930   1.964   7.007 -0.5103 -0.8334  0.7705
  957MOL0     H29191   3.812   2.176   6.669  0.1348 -0.4328 -1.1580
  957MOL0     H29192   4.587   2.201   7.117 -0.8045 -2.7019  1.1471
  957MOL0     H29193   4.767   2.245   7.199 -1.7888 -0.3364 -0.5200
  957MOL0     H29194   4.922   2.177   7.180 -1.4699 -1.1165  1.0730
  957MOL0     H29195   4.880   2.318   7.078  3.9396 -1.7827 -1.1066
  958MOL0     O29196   1.413   6.132  10.122 -0.3075  0.2481 -0.8096
  958MOL0     C29197   1.367   6.016  10.142 -0.2310 -0.1010 -0.1289
  958MOL0     O29198   1.419   5.919  10.218 -0.4863 -0.9068  0.1626
  958MOL0     C29199   1.531   5.949  10.288  0.8229 -0.6896 -0.3018
  958MOL0     C29200   1.525   6.033  10.404 -0.2219  0.1446 -0.3108
  958MOL0     C29201   1.638   6.070  10.478  0.1881 -0.4218 -0.0849
  958MOL0     C29202   1.759   6.030  10.430 -0.1530  0.0345 -0.0550
  958MOL0     O29203   1.868   6.072  10.493  0.2596  0.0759 -0.1318
  958MOL0     C29204   1.882   6.044  10.636 -0.5144 -1.1921 -0.2741
  958MOL0     C29205   1.957   6.157  10.711  0.3608 -1.0107  0.5071
  958MOL0     C29206   2.101   6.178  10.678 -0.4684 -0.3681  0.9828
  958MOL0     C29207   2.192   6.063  10.704  0.0455 -0.6155 -1.2204
  958MOL0     C29208   2.340   6.105  10.666 -0.0884 -0.0099  0.0856
  958MOL0     C29209   2.432   6.021  10.734 -0.3979  0.0037  0.3947
  958MOL0     C29210   2.574   6.044  10.684 -0.4550  0.0106 -0.4525
  958MOL0     C29211   2.683   5.961  10.746 -0.4076 -0.7069 -0.5566
  958MOL0     N29212   2.811   6.015  10.695  1.0796  0.4632 -0.0472
  958MOL0     C29213   2.888   6.121  10.743 -0.2990  0.1229 -0.6125
  958MOL0     C29214   2.996   6.137  10.663 -0.2023 -0.1403  0.3560
  958MOL0     C29215   3.125   6.213  10.697 -0.2273  0.3632 -0.5438
  958MOL0     C29216   3.240   6.214  10.595 -0.6586  0.5404 -0.3185
  958MOL0     C29217   3.309   6.080  10.562 -0.0530 -0.7806 -0.1911
  958MOL0     C29218   3.404   6.079  10.438 -0.4650 -0.2213 -0.2993
  958MOL0     O29219   3.524   6.136  10.488 -0.1009 -0.3367 -0.4944
  958MOL0     C29220   3.619   6.161  10.395 -0.3596 -0.4100 -0.2197
  958MOL0     C29221   3.604   6.130  10.255  0.5766 -0.2392 -0.2871
  958MOL0     C29222   3.709   6.162  10.168  0.7170  0.2007 -0.2627
  958MOL0     C29223   3.823   6.226  10.218 -0.1691 -0.1665 -0.5599
  958MOL0     C29224   3.917   6.283  10.114  0.6708  0.2112  0.0692
  958MOL0     O29225   4.014   6.359  10.161  0.6419  0.2048 -0.5605
  958MOL0     C29226   4.102   6.415  10.076  0.1726  0.5948  0.3874
  958MOL0     C29227   4.056   6.507   9.987  0.2758 -0.0762 -0.2374
  958MOL0     C29228   4.148   6.568   9.906  0.7159 -0.5290 -0.4353
  958MOL0     C29229   4.284   6.527   9.893  0.6669  0.4781 -0.6622
  958MOL0     O29230   4.376   6.593   9.822 -0.2036  0.2021  0.9180
  958MOL0     C29231   4.340   6.722   9.768  0.1429 -0.2190  0.5449
  958MOL0     C29232   4.452   6.787   9.693  0.1903 -0.2538  0.3249
  958MOL0     C29233   4.578   6.814   9.776  0.6435  0.6127  0.1880
  958MOL0     C29234   4.691   6.863   9.696 -0.5640 -0.5752  0.9439
  958MOL0     C29235   4.809   6.902   9.786  0.6772  0.2231  0.1168
  958MOL0     C29236   4.875   6.786   9.871 -0.3527 -0.5155 -0.2077
  958MOL0     C29237   4.968   6.834   9.983  0.2912  0.4591 -0.0747
  958MOL0     C29238   5.013   6.710  10.068 -0.0755  0.0250  0.3603
  958MOL0    Cl29239   5.161   6.745  10.168  0.2899 -0.2187  0.0407
  958MOL0     C29240   4.329   6.428   9.980 -0.0182 -1.0622  0.0564
  958MOL0     C29241   4.247   6.383  10.078 -0.6455 -0.0546 -0.0957
  958MOL0     O29242   3.904   6.250   9.999 -0.1432  0.1988  0.5533
  958MOL0     C29243   3.838   6.249  10.358  0.3539  0.8553  0.1340
  958MOL0     C29244   3.734   6.221  10.445 -0.0661  0.3387  0.1671
  958MOL0     N29245   2.965   6.057  10.555  0.1259 -0.5513  0.1400
  958MOL0     N29246   2.866   5.978  10.575  0.6623 -0.0385 -0.6219
  958MOL0     C29247   1.773   5.955  10.312  1.2546 -0.5081  1.0089
  958MOL0     C29248   1.655   5.913  10.238 -0.4423  0.0539 -0.8067
  958MOL0     C29249   1.245   5.973  10.072 -0.1194  0.2569  0.0958
  958MOL0     C29250   1.165   5.876  10.136  0.1652 -0.3827 -0.3822
  958MOL0     C29251   1.058   5.815  10.075  0.0361 -0.3015 -0.4218
  958MOL0     C29252   1.022   5.855   9.947  0.9727  0.2724  0.5764
  958MOL0     O29253   0.918   5.788   9.882 -0.3459  0.5779 -1.1874
  958MOL0     C29254   0.865   5.814   9.752  0.2716  0.5839  0.0287
  958MOL0     C29255   0.763   5.711   9.734  0.2754 -0.3133  0.6176
  958MOL0     C29256   0.666   5.746   9.617 -1.0180  0.4062  0.0406
  958MOL0     C29257   0.555   5.647   9.633  0.7246 -0.2145  0.0420
  958MOL0     C29258   0.437   5.676   9.541 -0.3161 -0.6206 -0.1879
  958MOL0     C29259   0.348   5.710   9.462 -0.2196 -0.2291 -1.0015
  958MOL0     C29260   1.093   5.959   9.880  0.7568 -0.0886 -0.3068
  958MOL0     C29261   1.211   6.012   9.940 -0.0392 -0.7378  0.3098
  958MOL0     C29262   1.297   6.111   9.850 -0.1470 -0.3296 -0.5481
  958MOL0     H29263   1.423   6.060  10.429 -1.1376 -3.1026 -0.0758
  958MOL0     H29264   1.624   6.139  10.561  0.0604 -0.3532 -0.1631
  958MOL0     H29265   1.785   6.021  10.680 -1.5308 -1.9357 -2.7229
  958MOL0     H29266   1.944   5.954  10.639  2.4843  0.7510  0.3761
  958MOL0     H29267   1.952   6.136  10.819  0.9708  0.8860  0.9444
  958MOL0     H29268   1.905   6.252  10.695  1.3531  0.3035  4.1139
  958MOL0     H29269   2.139   6.259  10.741 -1.1641 -0.3128  1.3447
  958MOL0     H29270   2.125   6.198  10.574 -0.6243  1.3350  1.2477
  958MOL0     H29271   2.189   6.033  10.809 -1.4997  2.1211 -0.3867
  958MOL0     H29272   2.170   5.977  10.640  0.2360 -1.4325 -0.2135
  958MOL0     H29273   2.363   6.105  10.559 -1.5926 -1.0784 -0.2729
  958MOL0     H29274   2.362   6.200  10.714  1.8195 -1.4696  2.3135
  958MOL0     H29275   2.428   6.030  10.842  0.0759  0.3322  0.3865
  958MOL0     H29276   2.398   5.918  10.718 -2.5103  0.6262  0.4841
  958MOL0     H29277   2.600   6.150  10.699 -1.1406 -0.0698  1.5724
  958MOL0     H29278   2.582   6.016  10.578 -0.6196  0.7191 -0.6644
  958MOL0     H29279   2.682   5.977  10.855 -0.2405  0.2056 -0.6800
  958MOL0     H29280   2.661   5.856  10.723 -1.6653 -0.8815  1.2138
  958MOL0     H29281   2.861   6.173  10.834 -2.6154 -0.5462 -0.8460
  958MOL0     H29282   3.097   6.317  10.717 -0.4923 -0.0222  1.2851
  958MOL0     H29283   3.164   6.182  10.795 -0.6786  2.7245  0.4563
  958MOL0     H29284   3.210   6.257  10.499  2.0890 -1.8114 -2.3872
  958MOL0     H29285   3.307   6.284  10.645 -0.7306 -0.2490  0.9472
  958MOL0     H29286   3.228   6.006  10.557 -0.4818 -0.4570  1.4103
  958MOL0     H29287   3.372   6.055  10.648  0.1662  1.3333  0.3059
  958MOL0     H29288   3.361   6.137  10.356 -0.3790 -0.3768 -0.4551
  958MOL0     H29289   3.419   5.979  10.397 -1.3082  0.4856 -2.4382
  958MOL0     H29290   3.523   6.084  10.198  0.7744  2.0565 -2.6461
  958MOL0     H29291   3.693   6.158  10.061  0.4735  3.7684 -0.5073
  958MOL0     H29292   3.954   6.541   9.975  0.8574  0.8511 -3.6773
  958MOL0     H29293   4.113   6.634   9.827 -1.9827  0.0589  1.1486
  958MOL0     H29294   4.261   6.714   9.693 -0.8040 -1.7346  1.6492
  958MOL0     H29295   4.307   6.791   9.846  1.8590 -0.2044  1.3069
  958MOL0     H29296   4.479   6.715   9.616 -1.2841 -0.8281  0.3117
  958MOL0     H29297   4.417   6.874   9.636  1.9449 -0.2776 -0.8424
  958MOL0     H29298   4.556   6.872   9.867 -0.4443  0.0068  0.3290
  958MOL0     H29299   4.607   6.715   9.810  0.0194  0.7666  1.2117
  958MOL0     H29300   4.660   6.953   9.642  0.3698 -0.1999  1.0104
  958MOL0     H29301   4.730   6.788   9.626  0.0666  0.3940  0.2370
  958MOL0     H29302   4.767   6.980   9.852 -2.2030 -0.7036 -0.4754
  958MOL0     H29303   4.877   6.963   9.726 -1.0480 -0.0667 -2.2813
  958MOL0     H29304   4.798   6.731   9.926  1.2010 -0.6127  2.0391
  958MOL0     H29305   4.931   6.723   9.802  0.7839  2.1895 -1.9067
  958MOL0     H29306   4.917   6.917  10.033 -0.4196  0.5482 -0.9282
  958MOL0     H29307   5.054   6.878   9.932  1.2334 -1.1310  0.0741
  958MOL0     H29308   4.931   6.685  10.136  0.2648  0.2149  0.8531
  958MOL0     H29309   5.044   6.626  10.005  1.4591 -1.1181  2.4603
  958MOL0     H29310   4.434   6.402   9.974 -0.3093 -2.0678 -1.1837
  958MOL0     H29311   4.287   6.313  10.151  1.1031 -0.9639 -1.8462
  958MOL0     H29312   3.921   6.303  10.402  0.1178  1.2116  0.1395
  958MOL0     H29313   3.750   6.244  10.549 -3.1331  0.9117  0.5996
  958MOL0     H29314   1.873   5.933  10.277  1.6494  2.2702  0.1654
  958MOL0     H29315   1.672   5.850  10.152  2.6456  0.1038 -0.3628
  958MOL0     H29316   1.182   5.843  10.238  0.1652  0.5190 -0.0805
  958MOL0     H29317   0.985   5.746  10.117 -0.0222 -1.1929 -1.8994
  958MOL0     H29318   0.945   5.803   9.678 -0.3646  0.3974 -0.6379
  958MOL0     H29319   0.830   5.917   9.763 -2.0259 -0.2607  1.2416
  958MOL0     H29320   0.710   5.725   9.829  1.7887  1.0008  1.3068
  958MOL0     H29321   0.806   5.611   9.728  1.1986  0.1761 -2.3791
  958MOL0     H29322   0.707   5.729   9.517 -2.5480 -0.3003 -0.4810
  958MOL0     H29323   0.630   5.849   9.628 -2.3363 -0.2544  2.9296
  958MOL0     H29324   0.603   5.555   9.599  3.2749  0.9624  0.2197
  958MOL0     H29325   0.517   5.639   9.735  0.1880  0.4679 -0.0944
  958MOL0     H29326   0.267   5.729   9.395  0.6289  0.5081 -1.8342
  958MOL0     H29327   1.074   5.985   9.776 -0.1724  0.8591  0.0795
  958MOL0     H29328   1.261   6.128   9.748 -0.5922  1.0172 -0.1863
  958MOL0     H29329   1.295   6.210   9.898 -0.0153  0.0870 -1.3886
  958MOL0     H29330   1.394   6.061   9.848  0.1300  0.0864  1.1272
  959MOL0     O29331   9.018  11.007   3.129  0.4928  0.3895  0.3888
  959MOL0     C29332   9.011  11.064   3.237 -0.1307  0.7418 -0.3082
  959MOL0     O29333   8.904  11.064   3.319  0.5803  0.0314 -0.1558
  959MOL0     C29334   8.782  11.035   3.262 -0.5321  0.4536 -0.5705
  959MOL0     C29335   8.693  10.935   3.319 -0.0403  0.1030 -0.4282
  959MOL0     C29336   8.561  10.920   3.264  0.8930 -0.2551  0.2196
  959MOL0     C29337   8.519  11.001   3.155  0.5063 -0.8633  0.3372
  959MOL0     O29338   8.393  10.985   3.098 -0.1463  0.2271  0.6840
  959MOL0     C29339   8.297  11.076   3.153  0.1716  0.3443  0.0888
  959MOL0     C29340   8.170  11.056   3.061 -0.5702 -0.5358  1.3411
  959MOL0     C29341   8.191  11.109   2.914 -0.0407 -0.3381 -0.3246
  959MOL0     C29342   8.056  11.113   2.837 -0.4317 -0.1367 -0.7648
  959MOL0     C29343   7.995  10.982   2.793 -0.7159  0.6107 -1.0892
  959MOL0     C29344   7.863  11.002   2.727  0.8003  0.3077  0.4713
  959MOL0     C29345   7.790  10.879   2.688 -0.0110  0.2832  0.8899
  959MOL0     C29346   7.745  10.865   2.547 -0.1667  0.4915  0.7900
  959MOL0     N29347   7.627  10.943   2.512 -0.5702 -0.3749 -1.0130
  959MOL0     C29348   7.518  10.936   2.578  0.2811  0.1434  0.6285
  959MOL0     C29349   7.431  11.023   2.517 -0.1930  0.2064 -0.0969
  959MOL0     C29350   7.290  11.051   2.559 -0.7188 -0.1774  0.1951
  959MOL0     C29351   7.215  11.155   2.471  0.9753  0.0447 -0.0503
  959MOL0     C29352   7.104  11.225   2.544 -0.0714  0.1463 -0.7903
  959MOL0     C29353   7.157  11.344   2.627  0.3208 -0.7176  0.4001
  959MOL0     O29354   7.080  11.335   2.744  0.2100  0.2752  0.0484
  959MOL0     C29355   7.146  11.355   2.864  0.1904 -0.0643 -0.6903
  959MOL0     C29356   7.276  11.424   2.873  0.5310  0.3175 -0.7507
  959MOL0     C29357   7.342  11.427   2.994 -0.1361  0.5057 -1.2876
  959MOL0     C29358   7.282  11.375   3.117  0.2387 -0.2794  0.0780
  959MOL0     C29359   7.358  11.361   3.246  0.5209  0.2669 -0.0678
  959MOL0     O29360   7.495  11.374   3.237  0.0140 -0.3795  0.2091
  959MOL0     C29361   7.562  11.367   3.359  0.3368  0.3412  0.5584
  959MOL0     C29362   7.646  11.479   3.396  0.3557  0.3322 -0.5078
  959MOL0     C29363   7.736  11.460   3.508  0.9001 -0.0492  0.5022
  959MOL0     C29364   7.743  11.344   3.576  0.3999  0.5734 -0.4578
  959MOL0     O29365   7.821  11.334   3.691  0.4911  0.0719 -0.1919
  959MOL0     C29366   7.963  11.345   3.665 -0.3461 -0.0847  0.0042
  959MOL0     C29367   8.041  11.286   3.780  0.0974 -0.0204 -0.8615
  959MOL0     C29368   8.193  11.289   3.762  0.1372 -0.7049  1.0539
  959MOL0     C29369   8.277  11.209   3.869  0.3408 -0.1368 -0.0839
  959MOL0     C29370   8.282  11.247   4.013  0.3498 -0.2129 -0.3058
  959MOL0     C29371   8.331  11.132   4.098  0.3419  0.2089 -0.1501
  959MOL0     C29372   8.462  11.074   4.056 -0.4991 -0.4725  1.2346
  959MOL0     C29373   8.529  10.997   4.165  0.3925  1.0495  0.3224
  959MOL0    Cl29374   8.409  10.872   4.233 -0.4228 -0.0401 -0.4303
  959MOL0     C29375   7.653  11.237   3.542 -0.5645 -0.7323 -0.1625
  959MOL0     C29376   7.564  11.248   3.430  0.1421 -0.2413  0.3356
  959MOL0     O29377   7.301  11.338   3.347 -0.5060  0.2446 -0.3022
  959MOL0     C29378   7.149  11.337   3.106  0.1856 -0.0402 -0.7915
  959MOL0     C29379   7.080  11.318   2.989 -0.4023 -0.4218  0.3504
  959MOL0     N29380   7.497  11.070   2.405 -0.2626  0.8253 -0.5016
  959MOL0     N29381   7.616  11.019   2.400 -0.4901  0.2206  0.1128
  959MOL0     C29382   8.608  11.094   3.098  0.1168  0.1861 -0.7227
  959MOL0     C29383   8.740  11.114   3.152  0.1373 -0.2697 -0.0923
  959MOL0     C29384   9.139  11.116   3.302  0.5606 -0.2044  0.8225
  959MOL0     C29385   9.137  11.143   3.442 -0.4755 -0.0106  0.3114
  959MOL0     C29386   9.247  11.180   3.512 -0.5720 -0.0274 -0.2982
  959MOL0     C29387   9.369  11.189   3.443 -0.0302 -0.0136 -0.9906
  959MOL0     O29388   9.479  11.249   3.509  0.2269  0.7399  0.6752
  959MOL0     C29389   9.601  11.169   3.515  0.1651  0.5968  0.7346
  959MOL0     C29390   9.700  11.237   3.611  0.4472  0.4561  0.2386
  959MOL0     C29391   9.776  11.124   3.677  0.1164 -0.6383 -0.3855
  959MOL0     C29392   9.867  11.176   3.786  0.0048  0.9984 -1.0270
  959MOL0     C29393   9.808  11.238   3.906  0.7346  0.3390  0.7504
  959MOL0     C29394   9.782  11.275   4.021 -0.6010 -0.6151 -0.1333
  959MOL0     C29395   9.373  11.167   3.303  0.3928  0.0030 -0.2453
  959MOL0     C29396   9.262  11.124   3.231 -0.6435 -0.3254  0.2242
  959MOL0     C29397   9.286  11.097   3.080  0.1709 -0.3702 -1.0838
  959MOL0     H29398   8.736  10.880   3.403  0.1093 -0.1948 -0.6997
  959MOL0     H29399   8.488  10.848   3.300  0.5147 -2.2272 -3.8874
  959MOL0     H29400   8.278  11.077   3.261  1.5256  3.6565  0.4010
  959MOL0     H29401   8.340  11.173   3.129  2.9996 -0.9775 -0.5866
  959MOL0     H29402   8.089  11.106   3.115  0.1282  0.6247  1.3574
  959MOL0     H29403   8.155  10.948   3.061 -0.1136 -0.6448 -0.6300
  959MOL0     H29404   8.255  11.038   2.862 -1.7819 -1.6053 -0.8432
  959MOL0     H29405   8.242  11.206   2.916  0.8715 -0.8019 -0.6293
  959MOL0     H29406   7.987  11.158   2.909  2.7274 -0.7705  2.9626
  959MOL0     H29407   8.072  11.170   2.745  2.9239 -3.2271 -2.3272
  959MOL0     H29408   8.059  10.934   2.717 -1.1768  2.4220 -2.6919
  959MOL0     H29409   7.984  10.917   2.881  0.9501 -0.7172 -1.8001
  959MOL0     H29410   7.797  11.062   2.790 -1.9613 -3.6804  1.7475
  959MOL0     H29411   7.883  11.059   2.635 -1.7759 -2.1571 -1.8037
  959MOL0     H29412   7.707  10.863   2.757  1.1197  0.0122  2.2229
  959MOL0     H29413   7.857  10.799   2.719 -2.3554 -1.7776  0.9611
  959MOL0     H29414   7.823  10.893   2.476  1.1527 -1.7505  1.2512
  959MOL0     H29415   7.720  10.760   2.530 -1.2002  0.9847 -0.9852
  959MOL0     H29416   7.503  10.872   2.665  1.2010  0.7402  1.2351
  959MOL0     H29417   7.243  10.953   2.562  0.4876 -0.8270 -1.1556
  959MOL0     H29418   7.287  11.087   2.663 -0.7384  0.6495 -0.0890
  959MOL0     H29419   7.286  11.231   2.436  0.9889  1.1399  2.1473
  959MOL0     H29420   7.180  11.101   2.383  0.5069 -0.9044  0.6966
  959MOL0     H29421   7.049  11.157   2.609 -0.0427  1.5516  0.7824
  959MOL0     H29422   7.030  11.255   2.469 -0.8655  0.7466  0.1911
  959MOL0     H29423   7.130  11.441   2.584  1.7655 -1.1024 -1.5624
  959MOL0     H29424   7.265  11.330   2.640  0.0580 -2.9725  0.5301
  959MOL0     H29425   7.323  11.462   2.783  3.1663 -1.2743 -0.1813
  959MOL0     H29426   7.443  11.465   2.989  0.0366  0.4346  0.8742
  959MOL0     H29427   7.644  11.568   3.333 -1.1559 -0.2927 -1.3879
  959MOL0     H29428   7.799  11.542   3.540 -0.5326  1.2372  0.1181
  959MOL0     H29429   7.993  11.300   3.570  0.6876  0.2686  0.1442
  959MOL0     H29430   7.990  11.450   3.652 -0.5228 -0.2243 -1.6244
  959MOL0     H29431   8.022  11.344   3.871 -0.1356  0.3743 -1.1589
  959MOL0     H29432   8.009  11.184   3.804 -1.4270  1.2342  3.3212
  959MOL0     H29433   8.204  11.255   3.659 -1.6275  1.8264 -0.0890
  959MOL0     H29434   8.228  11.392   3.769  1.6672 -1.2501  1.7947
  959MOL0     H29435   8.373  11.185   3.821 -0.2159 -1.0006 -0.8038
  959MOL0     H29436   8.233  11.109   3.876  2.3634 -1.1859 -1.2313
  959MOL0     H29437   8.185  11.281   4.050  0.0459 -0.1358 -1.1470
  959MOL0     H29438   8.351  11.331   4.027  1.3066 -0.7063 -1.7688
  959MOL0     H29439   8.334  11.160   4.203  3.4683 -0.6529  0.0889
  959MOL0     H29440   8.264  11.046   4.083  0.6081 -0.2782  1.3185
  959MOL0     H29441   8.529  11.153   4.023 -1.1964  0.0562  1.0471
  959MOL0     H29442   8.441  11.004   3.974 -2.2363 -0.8743  1.9567
  959MOL0     H29443   8.617  10.942   4.131 -1.3264 -2.3548  0.9823
  959MOL0     H29444   8.566  11.052   4.252 -1.3031  0.7863  1.2526
  959MOL0     H29445   7.657  11.150   3.606  0.7105  0.0098  0.8131
  959MOL0     H29446   7.496  11.167   3.409  0.8457 -1.2392  1.6866
  959MOL0     H29447   7.100  11.309   3.199  0.1069 -0.1499 -0.8659
  959MOL0     H29448   6.979  11.288   2.966 -0.8308  0.6807  0.7143
  959MOL0     H29449   8.576  11.145   3.007  0.3346  2.2754  0.3099
  959MOL0     H29450   8.811  11.178   3.101  1.3319 -1.7088 -0.3193
  959MOL0     H29451   9.044  11.155   3.497  0.5732  4.1074  1.5720
  959MOL0     H29452   9.244  11.215   3.615  0.9866  3.0701 -1.1676
  959MOL0     H29453   9.656  11.168   3.421 -1.7056  3.4450 -0.5457
  959MOL0     H29454   9.577  11.064   3.536  0.0547  0.7566  1.4337
  959MOL0     H29455   9.650  11.294   3.691  1.4129 -1.2849  2.1875
  959MOL0     H29456   9.769  11.303   3.558 -0.0153 -0.8861 -2.1643
  959MOL0     H29457   9.827  11.065   3.600  1.0364 -0.7774  0.3145
  959MOL0     H29458   9.710  11.054   3.730 -0.8319 -0.5865 -1.4410
  959MOL0     H29459   9.925  11.091   3.821  1.3989  1.1574 -2.7771
  959MOL0     H29460   9.931  11.251   3.738 -0.1097  0.7496 -1.5744
  959MOL0     H29461   9.773  11.306   4.123 -1.0052 -0.6994 -0.1410
  959MOL0     H29462   9.465  11.179   3.246  1.3399 -0.6418  1.1068
  959MOL0     H29463   9.249  10.998   3.052  1.2054 -1.6044  1.5551
  959MOL0     H29464   9.245  11.181   3.023  2.1119  0.7972 -0.8550
  959MOL0     H29465   9.392  11.110   3.054  0.6114  0.9480  1.1218
  960MOL0     O29466   6.800   5.011   6.426 -0.5728 -0.6628  0.4264
  960MOL0     C29467   6.738   5.048   6.523  0.0523  0.7245 -0.6680
  960MOL0     O29468   6.786   5.139   6.620  0.4088  0.3997 -0.4130
  960MOL0     C29469   6.920   5.177   6.615  0.6122  0.2201 -0.4538
  960MOL0     C29470   6.976   5.225   6.494 -0.3864  0.0739 -0.0188
  960MOL0     C29471   7.118   5.245   6.502  0.1344 -0.3930 -0.3964
  960MOL0     C29472   7.197   5.247   6.623  0.6676  0.1264 -0.7392
  960MOL0     O29473   7.330   5.273   6.616  0.3910  0.6434  0.1995
  960MOL0     C29474   7.392   5.324   6.736 -0.4313 -0.3253 -0.6444
  960MOL0     C29475   7.526   5.388   6.689  0.4989  0.0573  1.2835
  960MOL0     C29476   7.578   5.504   6.766  0.5471  0.3181  0.5341
  960MOL0     C29477   7.704   5.563   6.716 -0.0133  0.3450  0.2082
  960MOL0     C29478   7.726   5.697   6.797  0.6989  0.2394 -0.4168
  960MOL0     C29479   7.850   5.773   6.770  0.6011  0.0091 -0.5452
  960MOL0     C29480   7.877   5.893   6.874 -0.2634  0.3416  0.4282
  960MOL0     C29481   8.013   5.961   6.852  0.1405  0.8179  0.7167
  960MOL0     N29482   8.123   5.882   6.905  0.1420 -0.4379  0.0047
  960MOL0     C29483   8.137   5.765   6.977 -0.0092 -0.0528  0.4359
  960MOL0     C29484   8.270   5.735   6.964  0.4631  0.2380 -0.1148
  960MOL0     C29485   8.332   5.605   7.005  0.7751 -0.9222  0.1897
  960MOL0     C29486   8.483   5.619   7.007 -0.9555  0.3304  0.5708
  960MOL0     C29487   8.548   5.498   7.071 -0.6408 -0.1070 -0.2953
  960MOL0     C29488   8.703   5.494   7.061 -0.4500  0.5906  0.2591
  960MOL0     O29489   8.743   5.617   7.116  0.5960  0.4423 -0.1005
  960MOL0     C29490   8.872   5.646   7.120  0.8222 -0.0931 -0.1844
  960MOL0     C29491   8.979   5.553   7.102  0.7672 -1.3045  0.8049
  960MOL0     C29492   9.108   5.607   7.102  1.0017  1.4964 -0.0151
  960MOL0     C29493   9.141   5.736   7.136 -0.4622 -0.0528 -0.3390
  960MOL0     C29494   9.278   5.789   7.129 -0.0148  0.5226  1.8191
  960MOL0     O29495   9.368   5.691   7.079  0.5756 -0.2021  0.3704
  960MOL0     C29496   9.502   5.720   7.070  0.0361 -0.2659 -0.5079
  960MOL0     C29497   9.584   5.610   7.094 -0.7408  0.1092 -0.0554
  960MOL0     C29498   9.725   5.623   7.103 -0.7594  0.8548 -0.3024
  960MOL0     C29499   9.772   5.753   7.088 -0.6389 -0.3256 -0.8379
  960MOL0     O29500   9.907   5.778   7.081 -0.4526  0.0144 -0.3192
  960MOL0     C29501   9.963   5.779   7.210  0.1001  0.8863  0.4973
  960MOL0     C29502  10.103   5.829   7.216 -0.7273 -0.0375  0.0823
  960MOL0     C29503  10.190   5.725   7.135  0.2527  0.7894  0.1255
  960MOL0     C29504  10.325   5.775   7.105  0.0590 -0.7508  0.1154
  960MOL0     C29505  10.412   5.789   7.232  0.0489 -0.5280  0.1710
  960MOL0     C29506  10.558   5.759   7.201 -0.0423  0.1398  0.2869
  960MOL0     C29507  10.655   5.808   7.309 -0.3000  0.4979  0.5511
  960MOL0     C29508  10.803   5.803   7.269 -0.0907  0.3980  0.9336
  960MOL0    Cl29509  10.858   5.919   7.135  0.0912  0.3998 -0.4009
  960MOL0     C29510   9.695   5.867   7.046 -0.0776  0.1390 -0.4734
  960MOL0     C29511   9.555   5.846   7.040  0.0681 -0.7660 -0.8496
  960MOL0     O29512   9.308   5.903   7.168  0.2650 -0.2362  0.1411
  960MOL0     C29513   9.039   5.825   7.152 -0.7027  0.1288  0.4061
  960MOL0     C29514   8.908   5.783   7.153  0.2037  0.0001 -1.1171
  960MOL0     N29515   8.331   5.834   6.894 -0.5362  0.4931  0.1796
  960MOL0     N29516   8.243   5.919   6.862  0.1638  0.2177  0.3438
  960MOL0     C29517   7.128   5.204   6.740  0.6639 -0.3126 -0.4267
  960MOL0     C29518   6.993   5.173   6.735 -0.1059  0.2611 -0.1224
  960MOL0     C29519   6.602   4.998   6.543  0.4556  0.4394  0.0310
  960MOL0     C29520   6.511   5.085   6.614  0.1423 -0.2673  0.3711
  960MOL0     C29521   6.379   5.036   6.645  0.9831 -0.5595  0.1142
  960MOL0     C29522   6.337   4.905   6.605 -0.4287 -0.7836 -0.7913
  960MOL0     O29523   6.210   4.877   6.635 -0.4345  0.5094  0.3850
  960MOL0     C29524   6.156   4.750   6.594 -0.3670  0.4150  0.4889
  960MOL0     C29525   6.012   4.729   6.641 -0.1919  0.1471  0.3079
  960MOL0     C29526   5.980   4.770   6.787 -0.4668 -0.4945  0.7911
  960MOL0     C29527   6.067   4.710   6.895 -0.7876 -0.3053  0.4046
  960MOL0     C29528   6.008   4.732   7.029 -0.0480 -0.4015  0.5900
  960MOL0     C29529   5.957   4.770   7.132 -0.4532  0.2800  0.8347
  960MOL0     C29530   6.432   4.829   6.534  0.7237 -0.2195 -0.8979
  960MOL0     C29531   6.560   4.868   6.507  0.5235 -0.4682  1.0902
  960MOL0     C29532   6.653   4.763   6.432  0.1968  0.7777 -1.0477
  960MOL0     H29533   6.931   5.222   6.396  0.9959  0.9860 -0.7176
  960MOL0     H29534   7.154   5.288   6.408  0.3528  2.6996  0.9756
  960MOL0     H29535   7.329   5.406   6.773  0.0457 -0.1829 -0.1471
  960MOL0     H29536   7.397   5.249   6.815 -2.7285  1.2029  1.0963
  960MOL0     H29537   7.505   5.420   6.586 -0.5428 -0.8054  1.2215
  960MOL0     H29538   7.606   5.313   6.693  0.4262 -0.1551 -0.3922
  960MOL0     H29539   7.593   5.476   6.871  4.1299  3.0301  0.9242
  960MOL0     H29540   7.502   5.583   6.768 -0.3119 -0.4971  2.3157
  960MOL0     H29541   7.787   5.492   6.721  0.2896  0.5978 -0.9972
  960MOL0     H29542   7.705   5.584   6.609  1.1780 -1.3701 -0.1690
  960MOL0     H29543   7.640   5.764   6.783  0.1016 -0.2211  0.8584
  960MOL0     H29544   7.723   5.669   6.903 -0.5366 -0.9219 -0.7268
  960MOL0     H29545   7.939   5.709   6.763  0.3345 -0.3639 -0.5126
  960MOL0     H29546   7.830   5.816   6.672 -1.5120 -2.3073 -1.2066
  960MOL0     H29547   7.877   5.852   6.975  3.8096 -0.8762  0.0840
  960MOL0     H29548   7.810   5.979   6.863 -0.0353  0.7191  1.7771
  960MOL0     H29549   8.023   5.972   6.743 -0.8043 -1.5800  0.3355
  960MOL0     H29550   8.022   6.058   6.903  2.3264  1.9334 -1.5226
  960MOL0     H29551   8.060   5.708   7.029 -1.6853 -0.1359 -1.9587
  960MOL0     H29552   8.295   5.584   7.106 -0.5628  0.8047  0.1148
  960MOL0     H29553   8.299   5.526   6.938 -3.7356  0.7902 -0.0133
  960MOL0     H29554   8.516   5.639   6.905 -1.5663 -0.0139  0.2970
  960MOL0     H29555   8.517   5.713   7.053  0.9461  0.7381 -1.5050
  960MOL0     H29556   8.515   5.409   7.017 -1.3259  1.0058 -1.7784
  960MOL0     H29557   8.524   5.485   7.177  2.6364 -0.9809  0.4454
  960MOL0     H29558   8.735   5.479   6.958  0.7711 -2.0770  0.9357
  960MOL0     H29559   8.742   5.411   7.122  1.4026 -0.3235 -2.0224
  960MOL0     H29560   8.953   5.449   7.080  2.1120 -1.4193 -0.3938
  960MOL0     H29561   9.182   5.529   7.089  0.3164  0.7578  0.3932
  960MOL0     H29562   9.538   5.513   7.107  0.2113 -0.3859 -0.3378
  960MOL0     H29563   9.795   5.541   7.117  1.9988  2.8989 -1.1041
  960MOL0     H29564   9.900   5.835   7.279 -0.1475 -0.8841  1.7818
  960MOL0     H29565   9.968   5.676   7.248 -0.0467 -0.3335 -2.4528
  960MOL0     H29566  10.118   5.927   7.168  0.7204 -0.4203 -0.2987
  960MOL0     H29567  10.137   5.835   7.320  2.4437  4.2109 -0.8899
  960MOL0     H29568  10.191   5.629   7.187 -0.9899  0.2086 -0.8519
  960MOL0     H29569  10.144   5.695   7.041  0.5509 -1.2202  0.5919
  960MOL0     H29570  10.317   5.867   7.046  3.8634  1.7364  2.9624
  960MOL0     H29571  10.368   5.696   7.043 -4.9017 -1.5388 -2.8446
  960MOL0     H29572  10.377   5.721   7.310  0.3615 -0.7424  0.1255
  960MOL0     H29573  10.396   5.889   7.275 -0.6825 -1.3667  1.9696
  960MOL0     H29574  10.559   5.649   7.193 -1.3112  0.1231  0.1901
  960MOL0     H29575  10.582   5.805   7.105 -1.5801  0.3649 -0.0204
  960MOL0     H29576  10.635   5.744   7.395  2.4362 -0.2855  0.6977
  960MOL0     H29577  10.633   5.911   7.339  0.9920  1.1085 -0.4991
  960MOL0     H29578  10.856   5.841   7.357 -0.2758  3.4682 -0.1490
  960MOL0     H29579  10.820   5.699   7.241 -1.7082  1.2953 -4.3160
  960MOL0     H29580   9.742   5.964   7.033 -0.1576  0.1398 -0.7791
  960MOL0     H29581   9.495   5.936   7.029  0.6282  0.0253  1.8157
  960MOL0     H29582   9.054   5.932   7.170  1.4866 -0.0737  0.1123
  960MOL0     H29583   8.828   5.853   7.171 -1.7198 -2.3771  0.1928
  960MOL0     H29584   7.168   5.198   6.841 -1.8129  0.8696  0.7013
  960MOL0     H29585   6.954   5.132   6.828  2.5239 -1.2974  0.3974
  960MOL0     H29586   6.542   5.186   6.637  0.2523  0.2520 -1.8428
  960MOL0     H29587   6.309   5.098   6.699  0.8087 -0.9482  0.3347
  960MOL0     H29588   6.214   4.674   6.647  1.1246 -0.3422 -2.0547
  960MOL0     H29589   6.163   4.735   6.486  0.2828 -0.3474  0.6273
  960MOL0     H29590   5.993   4.621   6.638  0.0788  0.0835  0.7929
  960MOL0     H29591   5.943   4.777   6.570  1.8861  1.5007 -0.8945
  960MOL0     H29592   5.882   4.724   6.803  1.3941 -4.9382  0.7039
  960MOL0     H29593   5.963   4.878   6.792 -0.1598 -0.2609 -1.7739
  960MOL0     H29594   6.083   4.606   6.864  2.8225 -0.0807  1.1175
  960MOL0     H29595   6.162   4.764   6.900 -0.5454 -0.0986 -3.4444
  960MOL0     H29596   5.904   4.803   7.219 -0.9070  0.2780  0.5650
  960MOL0     H29597   6.403   4.732   6.496 -3.6417 -0.6627  2.6532
  960MOL0     H29598   6.746   4.752   6.487 -0.7732 -1.2335  0.3242
  960MOL0     H29599   6.616   4.660   6.422 -0.0757  0.3146  3.0457
  960MOL0     H29600   6.674   4.806   6.334 -0.2792 -4.1066 -3.6196
  961MOL0     O29601   0.543  10.026   5.053 -0.2747  0.5679 -0.7692
  961MOL0     C29602   0.609   9.974   5.153 -0.3344 -0.5351  1.0977
  961MOL0     O29603   0.558   9.935   5.268 -0.1729  0.2517  0.6866
  961MOL0     C29604   0.422   9.943   5.274  0.0631  0.1653  0.9536
  961MOL0     C29605   0.354  10.066   5.287  0.0246  0.0582 -0.3755
  961MOL0     C29606   0.216  10.073   5.285  0.6749  0.1124  0.6245
  961MOL0     C29607   0.141   9.959   5.282 -0.0755 -0.3027 -0.2400
  961MOL0     O29608   0.004   9.965   5.284 -0.0306  0.0162 -0.0075
  961MOL0     C29609  -0.051  10.051   5.185 -0.1101  0.4143 -0.9653
  961MOL0     C29610  -0.189  10.017   5.155 -0.1208 -0.0297  0.4392
  961MOL0     C29611  -0.202   9.896   5.075  0.6187 -0.2168 -0.2270
  961MOL0     C29612  -0.344   9.854   5.069 -0.8393 -0.0055 -0.1479
  961MOL0     C29613  -0.371   9.750   4.968  0.2819  0.3675 -0.9249
  961MOL0     C29614  -0.383   9.812   4.828  0.0560  1.1787 -0.0253
  961MOL0     C29615  -0.364   9.698   4.723  0.2157 -0.3155 -0.6334
  961MOL0     C29616  -0.218   9.648   4.707 -0.3831 -1.1095  0.2721
  961MOL0     N29617  -0.108   9.736   4.742  0.1772 -0.2883 -0.5676
  961MOL0     C29618  -0.014   9.715   4.842  1.0020  0.1782  0.8636
  961MOL0     C29619   0.071   9.819   4.828  0.1249  0.9101  0.6781
  961MOL0     C29620   0.205   9.829   4.894 -0.3067 -0.3556 -1.2023
  961MOL0     C29621   0.329   9.803   4.794 -0.0108 -0.4669 -0.6973
  961MOL0     C29622   0.330   9.902   4.668 -0.5231 -0.7986 -0.5924
  961MOL0     C29623   0.383  10.043   4.715 -0.0690  0.3652 -0.3769
  961MOL0     O29624   0.370  10.137   4.603  0.0373  0.1696 -0.5737
  961MOL0     C29625   0.469  10.233   4.606  0.4045 -0.9408  0.4945
  961MOL0     C29626   0.487  10.323   4.713 -0.0958 -0.3703  0.1772
  961MOL0     C29627   0.600  10.413   4.725 -0.0060 -0.1061 -0.3928
  961MOL0     C29628   0.708  10.410   4.629 -0.2188  0.1964  0.8724
  961MOL0     C29629   0.834  10.483   4.657 -0.3740 -0.2300  1.0555
  961MOL0     O29630   0.863  10.491   4.787 -0.2042  0.7794 -0.4635
  961MOL0     C29631   0.987  10.518   4.823  0.2932 -0.1333  0.1340
  961MOL0     C29632   1.061  10.433   4.906  0.2017 -0.3356  0.2282
  961MOL0     C29633   1.186  10.465   4.957 -0.7768 -1.1889  0.3208
  961MOL0     C29634   1.244  10.584   4.923  0.0682 -1.7340  0.1410
  961MOL0     O29635   1.363  10.611   4.991  0.8300 -0.5394  0.2091
  961MOL0     C29636   1.433  10.734   4.952 -0.2715 -0.9792  0.2416
  961MOL0     C29637   1.553  10.761   5.043  0.0317 -0.0494 -0.4035
  961MOL0     C29638   1.671  10.826   4.967 -0.3031  0.2985 -0.0325
  961MOL0     C29639   1.793  10.813   5.052 -0.4809  0.1724  0.0092
  961MOL0     C29640   1.918  10.887   5.005  0.8044 -0.1525 -0.8805
  961MOL0     C29641   1.969  10.842   4.864  0.2975 -0.6484  0.1166
  961MOL0     C29642   2.024  10.707   4.866 -1.1726  0.2108  0.0205
  961MOL0     C29643   2.075  10.672   4.732  0.4002 -0.4552  0.1956
  961MOL0    Cl29644   2.142  10.500   4.720  0.2819  0.1604 -0.5532
  961MOL0     C29645   1.176  10.673   4.833 -0.2548  0.3949 -0.6754
  961MOL0     C29646   1.056  10.631   4.775  0.0908  0.2778  0.9438
  961MOL0     O29647   0.903  10.520   4.565 -0.5120 -0.3443  0.8274
  961MOL0     C29648   0.689  10.325   4.521 -0.3445  0.6585 -0.8438
  961MOL0     C29649   0.573  10.246   4.512  0.6910 -0.2878  0.6366
  961MOL0     N29650   0.022   9.909   4.735 -0.2976  0.0412  0.3557
  961MOL0     N29651  -0.082   9.860   4.682 -0.2462  0.5679 -0.6178
  961MOL0     C29652   0.207   9.836   5.272  0.2036  0.6611  0.3170
  961MOL0     C29653   0.347   9.826   5.260 -0.3325 -0.4504 -0.0427
  961MOL0     C29654   0.757   9.954   5.138  0.1738  0.0489  0.2259
  961MOL0     C29655   0.822   9.881   5.246 -0.2869 -0.2828 -0.1648
  961MOL0     C29656   0.961   9.861   5.247  0.0884 -0.2848  0.3515
  961MOL0     C29657   1.036   9.915   5.148  1.0364 -0.3147  0.2604
  961MOL0     O29658   1.172   9.908   5.157  0.5427 -0.1321 -0.7431
  961MOL0     C29659   1.236  10.031   5.218  0.1232  0.7560 -0.1578
  961MOL0     C29660   1.291  10.119   5.111  0.8856 -0.0443 -0.3033
  961MOL0     C29661   1.390  10.051   5.013  0.2311 -0.1995 -0.1885
  961MOL0     C29662   1.501   9.955   5.064 -0.0658 -0.4298  0.6855
  961MOL0     C29663   1.586  10.027   5.160  0.2899  0.7095 -0.0888
  961MOL0     C29664   1.663  10.066   5.250  0.9539 -0.2842 -0.9427
  961MOL0     C29665   0.989   9.988   5.042  0.0921  0.6637  0.0606
  961MOL0     C29666   0.844  10.006   5.033  0.1351 -0.7119  0.1622
  961MOL0     C29667   0.791  10.090   4.917  0.0169  0.6495 -0.6728
  961MOL0     H29668   0.411  10.158   5.291  0.9408 -0.4561 -1.3032
  961MOL0     H29669   0.177  10.173   5.301  0.1912  0.2797 -1.2940
  961MOL0     H29670  -0.038  10.147   5.235  1.0743 -0.8241  1.2560
  961MOL0     H29671   0.006  10.050   5.091 -0.1753  0.0600 -1.0016
  961MOL0     H29672  -0.240  10.096   5.098 -0.0198  0.1434  0.5867
  961MOL0     H29673  -0.245   9.997   5.247 -2.3583 -1.6658 -1.1663
  961MOL0     H29674  -0.140   9.822   5.127 -0.5359  0.0063  1.5777
  961MOL0     H29675  -0.162   9.914   4.975 -0.2623 -0.3898 -0.6195
  961MOL0     H29676  -0.369   9.815   5.168 -2.3789  0.9116 -0.1345
  961MOL0     H29677  -0.401   9.944   5.043 -1.2471  0.1399  1.1470
  961MOL0     H29678  -0.292   9.674   4.968  0.1891  0.2016  1.2530
  961MOL0     H29679  -0.464   9.697   4.989  1.8068 -2.5441 -1.0353
  961MOL0     H29680  -0.484   9.853   4.834  0.0753  1.0284  2.2830
  961MOL0     H29681  -0.319   9.897   4.807  0.9597 -0.0646 -2.7276
  961MOL0     H29682  -0.403   9.737   4.629 -1.3346 -1.4141 -0.4767
  961MOL0     H29683  -0.431   9.616   4.750 -0.3864 -0.1719 -1.6199
  961MOL0     H29684  -0.215   9.568   4.780 -1.2209  0.2478  1.8680
  961MOL0     H29685  -0.196   9.603   4.610  1.5291 -0.7305  0.4877
  961MOL0     H29686  -0.026   9.637   4.916 -0.7934 -1.4673 -1.0434
  961MOL0     H29687   0.205   9.926   4.945  1.6800 -0.6549 -0.5254
  961MOL0     H29688   0.212   9.750   4.970 -0.8299  0.2600 -0.5051
  961MOL0     H29689   0.415   9.814   4.860 -1.3958 -0.9952  1.2755
  961MOL0     H29690   0.333   9.702   4.754 -0.5650 -0.4378 -0.8360
  961MOL0     H29691   0.227   9.913   4.632  0.1768  2.1345 -2.0267
  961MOL0     H29692   0.384   9.862   4.582  1.5886  0.3177  0.1589
  961MOL0     H29693   0.488  10.034   4.743 -0.2545 -0.0075  0.2321
  961MOL0     H29694   0.331  10.083   4.802 -1.9438  1.1716 -1.8043
  961MOL0     H29695   0.415  10.318   4.794 -1.2633  0.8260 -0.7391
  961MOL0     H29696   0.613  10.467   4.819  0.4078 -3.2156  1.4710
  961MOL0     H29697   1.024  10.339   4.945  0.5057  0.2507  2.0261
  961MOL0     H29698   1.241  10.401   5.026  1.3625 -0.0630 -0.2527
  961MOL0     H29699   1.458  10.721   4.846 -1.6666 -1.1572 -0.0906
  961MOL0     H29700   1.361  10.816   4.961 -1.0145 -1.7241  1.3824
  961MOL0     H29701   1.518  10.815   5.132 -2.1819 -0.5628 -0.9072
  961MOL0     H29702   1.585  10.663   5.080  1.3784 -0.8461 -3.4156
  961MOL0     H29703   1.694  10.775   4.873 -1.3968  1.8704 -1.2194
  961MOL0     H29704   1.635  10.927   4.946 -3.4836 -0.8379 -0.6231
  961MOL0     H29705   1.824  10.709   5.059  0.2888  0.1490 -2.6850
  961MOL0     H29706   1.775  10.840   5.156 -0.2594 -0.3272  0.1781
  961MOL0     H29707   1.996  10.866   5.079 -0.3075  0.5698  0.5216
  961MOL0     H29708   1.895  10.994   5.007 -0.9192 -0.5009 -0.2747
  961MOL0     H29709   1.885  10.848   4.793 -0.0310 -2.6026  0.2824
  961MOL0     H29710   2.045  10.913   4.830  0.6719 -1.4350 -0.7568
  961MOL0     H29711   1.951  10.635   4.903  0.4973 -2.0896 -0.9504
  961MOL0     H29712   2.113  10.710   4.929 -0.0049  3.0245 -1.5539
  961MOL0     H29713   1.989  10.675   4.664 -0.7681  2.5719  1.6032
  961MOL0     H29714   2.143  10.747   4.690 -1.8452  0.1360 -2.7790
  961MOL0     H29715   1.218  10.770   4.809  0.9493  0.2108  0.5446
  961MOL0     H29716   1.021  10.696   4.696  2.9961 -0.4826 -1.1088
  961MOL0     H29717   0.765  10.330   4.444  0.3345  0.5080 -0.1858
  961MOL0     H29718   0.564  10.185   4.423 -0.2556  0.6373  0.0699
  961MOL0     H29719   0.152   9.743   5.270 -0.4352  1.0512 -0.6244
  961MOL0     H29720   0.398   9.732   5.243 -1.1710 -1.3170  1.8758
  961MOL0     H29721   0.762   9.841   5.327 -0.2848 -1.8075 -0.8975
  961MOL0     H29722   1.016   9.798   5.316 -1.0698 -0.8475  0.7839
  961MOL0     H29723   1.322  10.000   5.279 -0.7244 -1.1867  0.1443
  961MOL0     H29724   1.171  10.078   5.292 -0.3285 -2.3194  1.6025
  961MOL0     H29725   1.331  10.205   5.165 -1.6753  1.5279 -0.7512
  961MOL0     H29726   1.200  10.154   5.062  0.4305 -1.1602 -0.2944
  961MOL0     H29727   1.435  10.131   4.953  0.6548 -0.5966 -0.4060
  961MOL0     H29728   1.328   9.994   4.944  1.0472 -0.1691 -0.9719
  961MOL0     H29729   1.451   9.868   5.108 -1.6602  0.9225  1.6485
  961MOL0     H29730   1.563   9.919   4.982 -1.2511  0.6675 -0.7486
  961MOL0     H29731   1.725  10.106   5.328 -0.0569 -1.7358  0.6697
  961MOL0     H29732   1.061  10.023   4.969  2.0545  0.8453  1.9845
  961MOL0     H29733   0.773  10.196   4.937 -2.5036 -0.1078  1.5196
  961MOL0     H29734   0.869  10.099   4.840  0.6098  4.2116  0.1807
  961MOL0     H29735   0.702  10.052   4.867 -0.8208  0.7945  0.6825
  962MOL0     O29736   3.927  10.898   4.199  0.1075  0.0648  0.0998
  962MOL0     C29737   3.914  10.777   4.234 -0.8229  0.0076  0.4401
  962MOL0     O29738   4.005  10.710   4.311  0.4133  0.5227  0.1330
  962MOL0     C29739   4.115  10.776   4.377 -0.5829 -0.3681  0.0116
  962MOL0     C29740   4.195  10.874   4.312 -0.6756 -0.1333 -0.2990
  962MOL0     C29741   4.307  10.931   4.382  0.7253  0.0513  0.4853
  962MOL0     C29742   4.345  10.875   4.510  0.5555 -0.3925 -0.1685
  962MOL0     O29743   4.448  10.926   4.585  0.4556 -0.5616 -0.1520
  962MOL0     C29744   4.491  11.059   4.556 -0.2076 -0.3566 -0.3747
  962MOL0     C29745   4.610  11.099   4.651 -0.3121  0.1383  0.0750
  962MOL0     C29746   4.743  11.047   4.595  0.0964  0.0794 -0.5440
  962MOL0     C29747   4.753  10.900   4.604  0.8490 -0.1776 -0.1092
  962MOL0     C29748   4.886  10.838   4.570  0.1539 -0.1163  1.0004
  962MOL0     C29749   5.008  10.855   4.654  0.0798 -0.0636 -0.1709
  962MOL0     C29750   4.983  10.798   4.794 -0.8369  0.2573  0.4554
  962MOL0     C29751   5.111  10.729   4.845  0.3512 -0.0728  0.0502
  962MOL0     N29752   5.134  10.723   4.992  0.5227 -0.1618  0.0479
  962MOL0     C29753   5.127  10.822   5.085 -0.5885 -0.4176 -0.0647
  962MOL0     C29754   5.188  10.772   5.191 -0.0657 -0.1237  0.5049
  962MOL0     C29755   5.209  10.830   5.325 -0.3776  0.6847  0.4216
  962MOL0     C29756   5.080  10.832   5.402  0.6008 -0.5117  0.1237
  962MOL0     C29757   5.024  10.696   5.441 -0.3435 -0.1886  0.3203
  962MOL0     C29758   4.893  10.704   5.517 -0.2187 -0.6070 -0.4954
  962MOL0     O29759   4.870  10.587   5.598 -0.0936  0.2086  0.1179
  962MOL0     C29760   4.934  10.567   5.720 -0.0119  0.2813  0.2069
  962MOL0     C29761   5.037  10.645   5.773 -0.0179 -0.0888 -0.4422
  962MOL0     C29762   5.111  10.606   5.887  0.0377  0.5123  0.3850
  962MOL0     C29763   5.079  10.476   5.946  0.2322 -0.7986 -0.2694
  962MOL0     C29764   5.167  10.405   6.032 -0.1202  0.0664  0.0322
  962MOL0     O29765   5.288  10.473   6.043  0.2257 -0.0263 -0.1626
  962MOL0     C29766   5.402  10.422   6.094 -0.7663 -0.3912 -1.4518
  962MOL0     C29767   5.492  10.524   6.111  0.2468 -0.6238 -0.3055
  962MOL0     C29768   5.622  10.493   6.146  0.3961 -0.7044 -0.9016
  962MOL0     C29769   5.656  10.355   6.158 -0.5678 -0.0715 -0.6430
  962MOL0     O29770   5.788  10.338   6.192  0.4323  0.3777  0.5287
  962MOL0     C29771   5.844  10.208   6.240  0.7473  0.2641 -0.2597
  962MOL0     C29772   5.992  10.225   6.223 -0.6571 -0.5962  0.0328
  962MOL0     C29773   6.034  10.200   6.076 -0.6088 -0.0175  0.0207
  962MOL0     C29774   6.187  10.214   6.056 -0.4537  1.1015  0.5521
  962MOL0     C29775   6.226  10.210   5.897 -0.2625  0.6837  1.0189
  962MOL0     C29776   6.163  10.336   5.827  0.2351 -0.3964  0.1931
  962MOL0     C29777   6.199  10.328   5.675 -0.2027  0.3867  0.1353
  962MOL0     C29778   6.142  10.447   5.601  0.4075 -0.0681  0.4950
  962MOL0    Cl29779   5.971  10.444   5.582 -0.4068  0.1998  0.5320
  962MOL0     C29780   5.572  10.252   6.134  0.3597  0.0455 -0.4514
  962MOL0     C29781   5.434  10.287   6.114  0.5295 -0.1418  0.3202
  962MOL0     O29782   5.139  10.295   6.084  0.1764  0.3230 -0.2890
  962MOL0     C29783   4.952  10.421   5.915 -0.0402  0.3768 -0.5783
  962MOL0     C29784   4.888  10.462   5.794 -1.0156  0.8158  0.3922
  962MOL0     N29785   5.232  10.644   5.164 -1.2119  0.8378 -0.3274
  962MOL0     N29786   5.183  10.608   5.048 -0.2775  0.5559  0.1506
  962MOL0     C29787   4.271  10.782   4.569 -0.3976 -0.4934  0.5202
  962MOL0     C29788   4.154  10.737   4.509  0.4052  0.4999 -0.1800
  962MOL0     C29789   3.800  10.700   4.182 -0.4057 -0.8176 -0.0395
  962MOL0     C29790   3.813  10.559   4.178 -0.3906 -0.2549  0.0005
  962MOL0     C29791   3.711  10.477   4.136  0.1702  0.7595 -0.4312
  962MOL0     C29792   3.584  10.533   4.106 -0.6106 -0.1573  0.4220
  962MOL0     O29793   3.471  10.457   4.073 -0.3430 -0.1105  0.1934
  962MOL0     C29794   3.475  10.317   4.114 -0.3681  0.1866  0.1608
  962MOL0     C29795   3.336  10.266   4.142  0.1528  0.4661  0.2917
  962MOL0     C29796   3.230  10.294   4.036  0.0139 -0.4202  0.3621
  962MOL0     C29797   3.144  10.172   3.998 -0.5995 -0.4945  0.2124
  962MOL0     C29798   3.077  10.121   4.112 -0.7167  0.7792  0.5107
  962MOL0     C29799   3.016  10.088   4.213  0.0975  0.8751  0.4073
  962MOL0     C29800   3.577  10.672   4.101  0.3808  0.4038  0.1903
  962MOL0     C29801   3.678  10.761   4.134 -0.2120  0.5136  0.5460
  962MOL0     C29802   3.643  10.907   4.129  0.4121 -0.2784 -0.4169
  962MOL0     H29803   4.170  10.907   4.211  0.1781 -1.9901 -1.1627
  962MOL0     H29804   4.377  10.993   4.326 -2.4547  3.2159 -0.3762
  962MOL0     H29805   4.526  11.068   4.453  0.9633 -1.2487 -0.0751
  962MOL0     H29806   4.404  11.125   4.566 -0.9343 -1.3972  0.4020
  962MOL0     H29807   4.597  11.072   4.756 -2.2548 -2.2549 -0.6613
  962MOL0     H29808   4.621  11.207   4.657 -2.2084  0.2761  3.0497
  962MOL0     H29809   4.832  11.081   4.648  1.3762 -0.3632 -2.3151
  962MOL0     H29810   4.753  11.071   4.489 -0.7199  0.9697 -0.4344
  962MOL0     H29811   4.714  10.861   4.698  2.3760 -0.6061  0.3589
  962MOL0     H29812   4.680  10.859   4.534 -0.5416 -1.8415  2.1846
  962MOL0     H29813   4.870  10.730   4.560  1.7587 -0.2062 -1.3315
  962MOL0     H29814   4.908  10.875   4.470 -1.8667 -1.3159  0.0470
  962MOL0     H29815   5.095  10.802   4.614 -0.0853  0.0529 -0.6902
  962MOL0     H29816   5.038  10.960   4.645 -0.3933 -0.0597 -2.2169
  962MOL0     H29817   4.894  10.734   4.802 -1.2904  1.0970  2.7908
  962MOL0     H29818   4.963  10.877   4.866  2.1341  0.6761  0.9726
  962MOL0     H29819   5.124  10.631   4.799  2.4395  0.8640 -1.5311
  962MOL0     H29820   5.196  10.791   4.814  1.5438 -0.2229  2.7880
  962MOL0     H29821   5.073  10.915   5.075 -1.2404 -1.0211 -3.2080
  962MOL0     H29822   5.293  10.786   5.381  1.4275  2.5065 -0.7055
  962MOL0     H29823   5.235  10.936   5.312  0.4026  0.6008  1.2153
  962MOL0     H29824   5.105  10.885   5.495  5.3211 -1.7254 -0.1516
  962MOL0     H29825   4.998  10.873   5.344  0.1044 -1.7382 -0.0757
  962MOL0     H29826   5.097  10.649   5.507 -0.8058 -2.5230 -0.7332
  962MOL0     H29827   5.001  10.645   5.346  0.7352 -2.4038  1.1699
  962MOL0     H29828   4.808  10.729   5.453 -1.2175 -2.2138  0.1633
  962MOL0     H29829   4.894  10.789   5.587 -2.0612 -1.1453  0.2353
  962MOL0     H29830   5.063  10.737   5.722 -1.2683  0.0028 -0.9430
  962MOL0     H29831   5.205  10.652   5.916  0.4949  0.0363 -0.3260
  962MOL0     H29832   5.453  10.624   6.096 -0.9527 -0.9238  0.6683
  962MOL0     H29833   5.693  10.574   6.153 -0.1483 -0.2502 -0.5853
  962MOL0     H29834   5.824  10.204   6.347  2.2632  0.6533  0.0583
  962MOL0     H29835   5.803  10.116   6.196 -0.5530 -0.7429  2.7774
  962MOL0     H29836   6.017  10.328   6.252 -3.4348  0.2012 -0.1749
  962MOL0     H29837   6.051  10.159   6.288 -3.2923 -4.3389 -1.0495
  962MOL0     H29838   6.003  10.099   6.047  0.6661 -0.4906  0.2263
  962MOL0     H29839   5.986  10.278   6.017  1.9700  1.0362 -0.8200
  962MOL0     H29840   6.241  10.130   6.100 -2.1041 -1.9938 -2.8265
  962MOL0     H29841   6.224  10.307   6.100 -0.0468  1.8263 -1.2224
  962MOL0     H29842   6.187  10.122   5.846 -0.2695  1.9444 -1.2627
  962MOL0     H29843   6.335  10.206   5.893 -0.2433  0.4497  1.6770
  962MOL0     H29844   6.055  10.341   5.846  0.1798  0.9628 -0.3236
  962MOL0     H29845   6.212  10.426   5.867  1.0269  0.8668 -3.2566
  962MOL0     H29846   6.152  10.241   5.630  1.0278  0.3174 -1.0673
  962MOL0     H29847   6.306  10.334   5.654 -0.7709  3.0625 -2.7868
  962MOL0     H29848   6.167  10.543   5.645  2.2188 -0.8413  1.2405
  962MOL0     H29849   6.184  10.440   5.500 -1.5343 -0.0908 -0.3571
  962MOL0     H29850   5.601  10.148   6.147  1.1608  0.0144 -2.1655
  962MOL0     H29851   5.361  10.207   6.115  0.4691 -0.0866  0.5841
  962MOL0     H29852   4.912  10.331   5.960 -0.0665  0.1845 -0.9847
  962MOL0     H29853   4.807  10.399   5.760  0.8731 -1.9019  0.6078
  962MOL0     H29854   4.294  10.753   4.671 -0.7019 -1.9241  0.2020
  962MOL0     H29855   4.094  10.663   4.560 -0.1299 -1.2194 -3.1084
  962MOL0     H29856   3.905  10.512   4.210 -1.9252 -2.8557  0.9048
  962MOL0     H29857   3.730  10.370   4.136 -0.1399  0.7018 -0.0877
  962MOL0     H29858   3.537  10.295   4.202  1.8129 -4.4651 -2.1865
  962MOL0     H29859   3.526  10.257   4.039  0.9974 -0.3538  1.4540
  962MOL0     H29860   3.307  10.307   4.239 -0.4317 -0.2137  0.4124
  962MOL0     H29861   3.354  10.158   4.143  3.0372  0.8725  0.1600
  962MOL0     H29862   3.277  10.324   3.942 -1.8693  1.8634  0.0505
  962MOL0     H29863   3.160  10.372   4.068 -0.9497 -0.3716 -1.6955
  962MOL0     H29864   3.077  10.202   3.917 -0.2998  0.6371  0.3661
  962MOL0     H29865   3.204  10.088   3.962 -2.7246 -2.0818  0.1875
  962MOL0     H29866   2.968  10.035   4.292  0.4703 -0.2831 -0.1253
  962MOL0     H29867   3.484  10.716   4.066  1.5916  3.1794  0.2546
  962MOL0     H29868   3.669  10.948   4.031  1.4403  1.4029  0.5138
  962MOL0     H29869   3.535  10.914   4.143  0.9251  1.9061  4.7390
  962MOL0     H29870   3.684  10.968   4.210  0.1909 -0.6414 -0.0285
  963MOL0     O29871   0.743  10.729  10.272 -0.0057  0.3385 -0.1460
  963MOL0     C29872   0.719  10.621  10.212 -0.1900 -0.5758  0.0531
  963MOL0     O29873   0.807  10.552  10.144 -0.1054  0.4713  0.3683
  963MOL0     C29874   0.920  10.606  10.101  0.8563 -0.1541 -0.4897
  963MOL0     C29875   0.926  10.671   9.978  0.6143 -0.7590 -0.0317
  963MOL0     C29876   1.035  10.740   9.936  0.1369  0.5707 -0.8972
  963MOL0     C29877   1.141  10.750  10.015 -0.8077 -0.3638 -0.4946
  963MOL0     O29878   1.246  10.805   9.950  0.2792  0.4617 -0.5313
  963MOL0     C29879   1.372  10.805  10.018  0.2336  0.2546 -0.6717
  963MOL0     C29880   1.460  10.918   9.971 -0.0964  0.0810 -0.3041
  963MOL0     C29881   1.607  10.919  10.027 -0.3945  0.8199  0.0723
  963MOL0     C29882   1.692  10.828   9.937 -0.1733  0.2359 -1.3140
  963MOL0     C29883   1.839  10.875   9.911  0.6326  0.1184 -0.2262
  963MOL0     C29884   1.929  10.756   9.884  0.6788  0.6326 -0.3006
  963MOL0     C29885   2.074  10.795   9.871 -0.2701 -0.2179 -1.0569
  963MOL0     C29886   2.162  10.700   9.785 -0.0058  0.0561 -0.2456
  963MOL0     N29887   2.308  10.732   9.787  0.9408 -0.4348  1.1317
  963MOL0     C29888   2.394  10.758   9.887 -0.2290 -0.1340 -0.9717
  963MOL0     C29889   2.517  10.779   9.847  0.2174  0.6975  0.1997
  963MOL0     C29890   2.640  10.813   9.916 -0.2624  1.0808  0.1425
  963MOL0     C29891   2.667  10.964   9.906  0.1188  0.4842  0.7691
  963MOL0     C29892   2.772  11.007  10.011 -0.1134 -0.8844 -0.2803
  963MOL0     C29893   2.914  10.959   9.958 -0.1839  0.1714  0.2164
  963MOL0     O29894   3.009  11.064   9.997  0.3360  0.0842  0.5812
  963MOL0     C29895   3.136  11.041   9.952 -0.0589  0.6609  0.3267
  963MOL0     C29896   3.185  10.925   9.891 -1.3239 -0.6690  0.2192
  963MOL0     C29897   3.325  10.906   9.871 -0.1890 -0.0983  0.6888
  963MOL0     C29898   3.417  11.006   9.899  0.1379  0.1978  0.7835
  963MOL0     C29899   3.552  11.000   9.834 -0.3304  0.2316 -0.6061
  963MOL0     O29900   3.603  10.881   9.783 -0.6137 -0.2551 -0.7570
  963MOL0     C29901   3.738  10.881   9.762 -1.4658  0.3793  1.5551
  963MOL0     C29902   3.832  10.901   9.868  0.9748 -0.6297 -0.7353
  963MOL0     C29903   3.967  10.881   9.852 -0.1302  0.7405  0.1965
  963MOL0     C29904   4.018  10.834   9.734 -0.4915  0.1567 -0.6128
  963MOL0     O29905   4.155  10.801   9.716 -0.4943 -0.0447  0.9515
  963MOL0     C29906   4.260  10.885   9.760 -0.3547 -0.3423  0.2954
  963MOL0     C29907   4.356  10.817   9.862  0.3692 -0.1831  0.2453
  963MOL0     C29908   4.488  10.888   9.861 -0.2684  0.9032 -0.5973
  963MOL0     C29909   4.596  10.824   9.953 -0.3846  0.7857  1.3206
  963MOL0     C29910   4.720  10.909   9.937  0.0524 -0.7426 -0.0231
  963MOL0     C29911   4.829  10.840  10.007  0.2264  0.4079 -0.4056
  963MOL0     C29912   4.956  10.915  10.008 -0.5444 -0.4985  0.2089
  963MOL0     C29913   4.946  11.063  10.062  0.6189  0.8361  0.4176
  963MOL0    Cl29914   4.892  11.075  10.226 -0.3226 -0.2504  0.4105
  963MOL0     C29915   3.927  10.813   9.628  0.1046  1.0109 -0.0589
  963MOL0     C29916   3.794  10.827   9.642  0.3137 -1.5040  0.2448
  963MOL0     O29917   3.601  11.107   9.805 -0.1001 -0.5114 -0.7021
  963MOL0     C29918   3.362  11.124   9.967 -0.7218  0.5848  1.0573
  963MOL0     C29919   3.225  11.135   9.994  0.8714 -0.2782  0.0629
  963MOL0     N29920   2.504  10.765   9.711  0.7023  0.2364  0.1575
  963MOL0     N29921   2.381  10.735   9.680 -1.1731 -0.1502  0.2483
  963MOL0     C29922   1.141  10.681  10.144 -0.3517 -0.8698  0.2695
  963MOL0     C29923   1.027  10.621  10.198  0.7187  0.9118  0.1781
  963MOL0     C29924   0.581  10.566  10.227  0.7606 -0.5154  0.4791
  963MOL0     C29925   0.550  10.445  10.162 -1.0254  0.3920  0.1703
  963MOL0     C29926   0.422  10.383  10.171  0.0081  0.2490 -0.1924
  963MOL0     C29927   0.312  10.448  10.222 -0.5498 -0.3982  0.0124
  963MOL0     O29928   0.193  10.378  10.211  0.0750  0.3158  0.9457
  963MOL0     C29929   0.075  10.431  10.275  0.6496  0.2137 -0.2350
  963MOL0     C29930   0.086  10.405  10.430 -1.0471 -0.2888 -0.8780
  963MOL0     C29931   0.147  10.280  10.481  0.2662  0.3404 -0.2373
  963MOL0     C29932   0.073  10.154  10.459  0.7425  0.2992 -0.1619
  963MOL0     C29933  -0.064  10.155  10.516  0.4153  0.1514 -0.0867
  963MOL0     C29934  -0.179  10.151  10.557  0.0773  0.0175 -0.1021
  963MOL0     C29935   0.334  10.573  10.280  0.9406  0.1655  0.3890
  963MOL0     C29936   0.466  10.631  10.290  0.0225  0.4297  0.3039
  963MOL0     C29937   0.487  10.767  10.357  0.4692 -0.0889 -0.0482
  963MOL0     H29938   0.835  10.669   9.919  0.9100  0.8947 -0.5864
  963MOL0     H29939   1.031  10.784   9.837 -0.9518 -0.2163 -1.2230
  963MOL0     H29940   1.365  10.813  10.127 -4.2173  0.2648 -0.7980
  963MOL0     H29941   1.430  10.714  10.001  2.3320  1.7554 -2.1391
  963MOL0     H29942   1.413  11.009  10.010 -0.3002 -0.0179 -0.3177
  963MOL0     H29943   1.477  10.924   9.863  1.5767 -2.6982 -0.2894
  963MOL0     H29944   1.624  10.885  10.130  0.5776  3.1454  0.7388
  963MOL0     H29945   1.638  11.021  10.004 -0.3081  0.6150 -0.7668
  963MOL0     H29946   1.687  10.734   9.993  1.8599 -0.1514 -1.7036
  963MOL0     H29947   1.648  10.797   9.842  0.8683  1.3196 -2.1804
  963MOL0     H29948   1.834  10.946   9.828 -1.1900 -0.5988 -0.7619
  963MOL0     H29949   1.874  10.921  10.004 -0.3187 -0.8784  0.6479
  963MOL0     H29950   1.922  10.693   9.973  0.6480  1.3008  0.1758
  963MOL0     H29951   1.907  10.702   9.791 -1.1809  0.9422 -0.0769
  963MOL0     H29952   2.125  10.809   9.967 -0.2438 -2.8894 -0.6212
  963MOL0     H29953   2.088  10.893   9.824  0.0514 -0.5510 -1.6572
  963MOL0     H29954   2.157  10.597   9.820  0.6307 -0.2751 -1.1275
  963MOL0     H29955   2.124  10.694   9.683 -0.6776  1.4353 -0.1156
  963MOL0     H29956   2.360  10.762   9.990  1.5649 -0.9811 -0.3053
  963MOL0     H29957   2.621  10.782  10.019 -0.5630  2.6854  0.5997
  963MOL0     H29958   2.725  10.753   9.881  0.1910  1.3658  0.7250
  963MOL0     H29959   2.690  10.997   9.804 -2.7724  3.6811  0.9435
  963MOL0     H29960   2.575  11.017   9.933 -0.5137  1.3167 -2.5323
  963MOL0     H29961   2.735  10.981  10.111  0.8137  0.4272  0.4442
  963MOL0     H29962   2.781  11.116  10.002  3.9672 -1.1362 -1.0491
  963MOL0     H29963   2.913  10.944   9.850 -1.2277 -1.1020  0.3759
  963MOL0     H29964   2.948  10.870  10.013 -1.9147  0.6581  2.1959
  963MOL0     H29965   3.120  10.843   9.861 -2.1953 -0.2982  1.0398
  963MOL0     H29966   3.355  10.815   9.820 -0.0075  0.6508 -0.6070
  963MOL0     H29967   3.793  10.930   9.965  0.5239  1.5126 -1.5106
  963MOL0     H29968   4.034  10.881   9.938 -1.5224 -0.4174  1.3194
  963MOL0     H29969   4.308  10.927   9.672 -0.3282  0.6824  0.7815
  963MOL0     H29970   4.219  10.971   9.814  0.4830 -0.4979  1.2142
  963MOL0     H29971   4.318  10.824   9.964 -0.4975 -0.6916 -0.0324
  963MOL0     H29972   4.369  10.710   9.843 -1.6836 -0.4186 -0.0228
  963MOL0     H29973   4.525  10.896   9.758 -0.3148  1.4822 -0.5737
  963MOL0     H29974   4.477  10.991   9.897  1.0990  1.7492 -2.4136
  963MOL0     H29975   4.618  10.726   9.909 -3.2176  0.9728 -0.7414
  963MOL0     H29976   4.567  10.817  10.058  0.5433  3.2795  1.8150
  963MOL0     H29977   4.710  11.010   9.977  1.1341 -1.1114  1.2498
  963MOL0     H29978   4.735  10.913   9.829  0.3180  0.7347  0.0545
  963MOL0     H29979   4.790  10.818  10.107 -2.1332  0.4383 -1.2472
  963MOL0     H29980   4.856  10.739   9.973  1.2413  0.9834 -1.3575
  963MOL0     H29981   5.005  10.914   9.910 -2.5443  0.7647 -0.8663
  963MOL0     H29982   5.033  10.880  10.079 -0.5808 -1.8687 -0.3887
  963MOL0     H29983   5.045  11.109  10.053  0.8788  0.5406  1.6479
  963MOL0     H29984   4.878  11.125  10.002 -0.6614 -1.2172 -0.3691
  963MOL0     H29985   3.967  10.769   9.538 -0.9787  0.5381 -0.3289
  963MOL0     H29986   3.734  10.811   9.553 -0.0012  1.1635 -0.1065
  963MOL0     H29987   3.419  11.209  10.005 -0.2112  0.6263  0.2183
  963MOL0     H29988   3.191  11.216  10.058 -1.5266 -0.4345 -0.8979
  963MOL0     H29989   1.232  10.689  10.204 -0.9415 -4.5136  1.9205
  963MOL0     H29990   1.017  10.598  10.304 -4.9954 -0.4467 -0.3155
  963MOL0     H29991   0.625  10.389  10.108 -1.4350 -0.0403  0.0426
  963MOL0     H29992   0.403  10.285  10.127 -2.1249 -1.5197  4.1325
  963MOL0     H29993  -0.001  10.354  10.259 -0.1919  0.7708  0.8773
  963MOL0     H29994   0.052  10.533  10.242 -1.0878  0.1714  0.7144
  963MOL0     H29995  -0.011  10.408  10.480 -1.0447 -2.4165 -0.6575
  963MOL0     H29996   0.141  10.489  10.474 -0.4883 -1.4695  0.7614
  963MOL0     H29997   0.164  10.282  10.589 -0.8786 -1.0136  0.0022
  963MOL0     H29998   0.241  10.269  10.427  0.5081 -1.1524  0.4556
  963MOL0     H29999   0.055  10.149  10.351  0.8407  4.2781 -0.5101
  963MOL0     H30000   0.139  10.077  10.501  0.6294 -0.0107 -0.5470
  963MOL0     H30001  -0.266  10.148  10.618  1.2179  0.9147  1.6441
  963MOL0     H30002   0.254  10.633  10.320  0.6059 -0.1033  0.1288
  963MOL0     H30003   0.552  10.758  10.445 -0.7457 -0.8109  0.8299
  963MOL0     H30004   0.528  10.837  10.285  2.0030 -0.8295  0.0529
  963MOL0     H30005   0.393  10.813  10.390  1.0168  0.2885  1.0258
  964MOL0     O30006   2.218   4.497  10.344  0.0771 -0.7175 -0.1660
  964MOL0     C30007   2.142   4.553  10.429  0.1300 -0.5800  0.0366
  964MOL0     O30008   2.130   4.688  10.446 -0.2914 -0.2597  0.3623
  964MOL0     C30009   2.199   4.766  10.359 -0.0346  0.3591 -0.1971
  964MOL0     C30010   2.332   4.787  10.385 -0.2100  1.0870 -0.2125
  964MOL0     C30011   2.402   4.872  10.298  0.8944  0.4317 -0.2176
  964MOL0     C30012   2.349   4.938  10.187  1.4089 -0.1606  0.6141
  964MOL0     O30013   2.432   5.016  10.115 -0.1244 -0.6007 -0.3250
  964MOL0     C30014   2.384   5.060   9.991 -0.4892  0.3277 -0.1855
  964MOL0     C30015   2.493   5.149   9.925 -1.0290 -0.0679  0.3191
  964MOL0     C30016   2.537   5.272  10.019 -0.1498  1.0577 -0.7699
  964MOL0     C30017   2.646   5.345   9.953 -0.1805 -0.6662 -0.3658
  964MOL0     C30018   2.601   5.431   9.832  0.0799 -0.1036 -0.0620
  964MOL0     C30019   2.713   5.455   9.724  0.5206 -0.2118  0.1477
  964MOL0     C30020   2.644   5.489   9.587 -0.2744 -0.2001 -0.0260
  964MOL0     C30021   2.571   5.372   9.533 -0.4233  0.6227  0.1230
  964MOL0     N30022   2.536   5.383   9.383 -0.1044  0.1702  0.2942
  964MOL0     C30023   2.604   5.331   9.275  0.4360 -0.2366  0.1659
  964MOL0     C30024   2.541   5.373   9.160  0.1620 -0.4082 -0.1896
  964MOL0     C30025   2.598   5.349   9.031  0.5957  0.5305  1.1260
  964MOL0     C30026   2.634   5.486   8.975  0.0019 -0.5071  0.4557
  964MOL0     C30027   2.709   5.489   8.838 -0.1839  0.6866 -0.1041
  964MOL0     C30028   2.636   5.395   8.728 -0.6559  0.5713 -0.2631
  964MOL0     O30029   2.696   5.265   8.745 -0.0928  0.7545 -0.2376
  964MOL0     C30030   2.807   5.231   8.675  0.8621  0.7371 -0.2452
  964MOL0     C30031   2.847   5.095   8.690  0.3518  1.1863 -0.0916
  964MOL0     C30032   2.966   5.052   8.634 -0.2135  0.7172 -0.1400
  964MOL0     C30033   3.051   5.141   8.569  0.6281  0.2729  0.0957
  964MOL0     C30034   3.184   5.092   8.528 -0.2021  0.1178  0.3147
  964MOL0     O30035   3.268   5.197   8.489  0.0946 -0.2102 -0.0919
  964MOL0     C30036   3.393   5.187   8.435 -0.1398  0.0628  0.6469
  964MOL0     C30037   3.485   5.296   8.437 -1.1982  0.1807 -0.2862
  964MOL0     C30038   3.610   5.292   8.374  0.3602 -0.0204  0.0254
  964MOL0     C30039   3.653   5.171   8.318  0.1443 -0.0338 -0.2359
  964MOL0     O30040   3.773   5.162   8.246 -0.1350 -0.8322  0.6679
  964MOL0     C30041   3.833   5.040   8.206 -0.5728 -0.3265  1.0028
  964MOL0     C30042   3.972   5.071   8.159  0.4162 -0.1208  0.4462
  964MOL0     C30043   4.073   4.957   8.173  0.7479 -0.3925  0.1342
  964MOL0     C30044   4.054   4.849   8.055  0.2837 -0.0323 -0.4521
  964MOL0     C30045   4.141   4.721   8.074  0.2174  0.0039  0.3201
  964MOL0     C30046   4.288   4.741   8.062 -0.8989  0.6739  0.3858
  964MOL0     C30047   4.356   4.606   8.024  0.1901  0.2792 -1.0231
  964MOL0     C30048   4.331   4.511   8.147  1.1960 -0.0265 -0.3730
  964MOL0    Cl30049   4.417   4.358   8.144  0.1634  0.1001 -0.1252
  964MOL0     C30050   3.563   5.063   8.312  1.2024  0.6556  0.3360
  964MOL0     C30051   3.436   5.073   8.366  0.5677 -0.3064  0.9779
  964MOL0     O30052   3.219   4.973   8.537  0.1249 -0.4993 -0.5043
  964MOL0     C30053   3.013   5.279   8.559  0.6887  0.5381  0.0625
  964MOL0     C30054   2.885   5.322   8.600  0.3740 -0.1181  0.2955
  964MOL0     N30055   2.428   5.440   9.200 -0.5659  0.9174 -0.3567
  964MOL0     N30056   2.437   5.453   9.323 -0.1389  0.5813 -0.0371
  964MOL0     C30057   2.213   4.903  10.153  0.3677  0.5054  0.3052
  964MOL0     C30058   2.143   4.817  10.236  0.7768 -0.5167 -0.0458
  964MOL0     C30059   2.070   4.472  10.528  0.0954  0.4150  0.5243
  964MOL0     C30060   2.027   4.346  10.483 -0.8312 -0.0409  0.0893
  964MOL0     C30061   1.975   4.250  10.565  0.5642  0.7905 -0.0123
  964MOL0     C30062   1.968   4.271  10.703  0.4870  0.7965  0.4116
  964MOL0     O30063   1.919   4.176  10.799  0.0720 -0.1564  0.2502
  964MOL0     C30064   1.823   4.072  10.756  0.4309  0.0803  0.3824
  964MOL0     C30065   1.693   4.130  10.703 -0.5498 -0.3845  0.2367
  964MOL0     C30066   1.585   4.023  10.683  0.2225 -0.8753 -0.1380
  964MOL0     C30067   1.499   4.078  10.567  0.3447  0.3978 -0.7362
  964MOL0     C30068   1.395   3.971  10.535 -0.6525 -0.2568 -0.5863
  964MOL0     C30069   1.313   3.891  10.527  0.2586  0.2321 -0.0766
  964MOL0     C30070   2.006   4.399  10.752 -0.3038  0.4062  0.0137
  964MOL0     C30071   2.069   4.503  10.670  0.1429 -0.1593 -0.4416
  964MOL0     C30072   2.125   4.629  10.733  0.1540  0.0500 -0.4372
  964MOL0     H30073   2.391   4.743  10.464  3.1003  2.6672 -1.5937
  964MOL0     H30074   2.501   4.900  10.332  0.5295  0.9321  0.4874
  964MOL0     H30075   2.363   4.976   9.923  1.0355  1.1927 -1.8160
  964MOL0     H30076   2.297   5.122  10.014 -0.6797 -0.6979  2.1903
  964MOL0     H30077   2.467   5.178   9.823  1.3297  0.7288 -0.1049
  964MOL0     H30078   2.581   5.085   9.923  0.4096  1.8333  0.5387
  964MOL0     H30079   2.575   5.231  10.114 -1.6924  1.4361  0.0305
  964MOL0     H30080   2.448   5.331  10.040  0.3736  1.0936  1.6166
  964MOL0     H30081   2.683   5.423  10.020 -2.2016  0.3227 -0.3257
  964MOL0     H30082   2.732   5.283   9.925  1.7268  1.0842  1.2246
  964MOL0     H30083   2.514   5.382   9.787 -0.3093 -0.8744  1.4529
  964MOL0     H30084   2.564   5.526   9.873 -0.5731  1.1431 -3.2581
  964MOL0     H30085   2.770   5.545   9.750 -0.3719  1.1669 -2.3223
  964MOL0     H30086   2.778   5.368   9.712  1.6242  0.2332  2.3593
  964MOL0     H30087   2.734   5.503   9.526  3.0695 -3.5750  3.5618
  964MOL0     H30088   2.578   5.576   9.590  0.7764  0.5845  1.5496
  964MOL0     H30089   2.644   5.291   9.545 -0.4082 -0.0173 -3.2845
  964MOL0     H30090   2.478   5.347   9.586  0.6585 -1.5145  1.1694
  964MOL0     H30091   2.698   5.280   9.287  1.0615  1.1891  1.6771
  964MOL0     H30092   2.684   5.283   9.045  1.0120  0.6294 -0.7409
  964MOL0     H30093   2.533   5.295   8.961  0.4055  0.9046  1.0116
  964MOL0     H30094   2.546   5.551   8.982  1.6204  1.7666  0.5938
  964MOL0     H30095   2.700   5.540   9.043 -1.0032 -0.4115  1.3924
  964MOL0     H30096   2.813   5.457   8.846 -0.3017  0.5646  1.1810
  964MOL0     H30097   2.707   5.588   8.792 -1.1617 -0.5034 -2.8243
  964MOL0     H30098   2.645   5.438   8.628 -0.6851 -2.8586 -1.8588
  964MOL0     H30099   2.530   5.385   8.751 -0.3294  0.1683  1.2260
  964MOL0     H30100   2.787   5.023   8.745  1.7228  1.8091  2.3666
  964MOL0     H30101   2.990   4.949   8.659 -5.1583 -0.7698 -0.3903
  964MOL0     H30102   3.459   5.390   8.485 -1.5166  0.0219 -0.1411
  964MOL0     H30103   3.671   5.382   8.367  2.5881 -1.4832 -0.5682
  964MOL0     H30104   3.842   4.974   8.293  1.1877 -1.0030  0.3564
  964MOL0     H30105   3.789   4.991   8.119 -0.2775 -0.7892  1.1127
  964MOL0     H30106   3.976   5.109   8.056  2.5493 -0.0736  0.5023
  964MOL0     H30107   4.026   5.146   8.217  1.8437  0.1099 -1.1043
  964MOL0     H30108   4.171   5.002   8.156  0.7761 -0.8751 -1.0990
  964MOL0     H30109   4.078   4.916   8.274 -1.9102  1.8408  1.2726
  964MOL0     H30110   4.064   4.901   7.960 -2.4244  3.0824  0.7676
  964MOL0     H30111   3.951   4.813   8.064  0.7162 -1.2110  0.0138
  964MOL0     H30112   4.100   4.650   8.002  2.8404  0.9548 -2.3239
  964MOL0     H30113   4.129   4.681   8.175  2.4359 -1.7233 -0.0231
  964MOL0     H30114   4.302   4.822   7.990 -1.9755  1.8358  1.4350
  964MOL0     H30115   4.322   4.776   8.160 -0.7436 -1.6316  1.2154
  964MOL0     H30116   4.463   4.628   8.016  0.5311  0.9108  3.0859
  964MOL0     H30117   4.326   4.559   7.930 -1.0395 -2.1111  0.4527
  964MOL0     H30118   4.343   4.568   8.240 -2.7719  1.6001 -0.6214
  964MOL0     H30119   4.225   4.483   8.155  1.0727  0.6470  0.6172
  964MOL0     H30120   3.601   4.966   8.283  3.9000  1.2623  1.5392
  964MOL0     H30121   3.375   4.984   8.358  1.5962 -0.8758 -1.4373
  964MOL0     H30122   3.079   5.341   8.500  0.6030  0.3918 -0.1864
  964MOL0     H30123   2.861   5.424   8.571  2.2964  0.2947 -0.0187
  964MOL0     H30124   2.165   4.925  10.058 -0.0462 -0.0530  0.3821
  964MOL0     H30125   2.049   4.774  10.203 -1.9420  2.3026  3.1790
  964MOL0     H30126   2.047   4.317  10.380  1.2153  0.9936  0.1315
  964MOL0     H30127   1.941   4.150  10.541  0.5269  0.9956 -0.8658
  964MOL0     H30128   1.800   4.011  10.844 -1.5113 -0.4300 -0.4306
  964MOL0     H30129   1.876   4.004  10.688 -1.5623 -0.3029 -0.8572
  964MOL0     H30130   1.717   4.179  10.608 -2.6191  0.3217  0.0314
  964MOL0     H30131   1.664   4.212  10.769  1.5831  1.6025 -1.1158
  964MOL0     H30132   1.519   4.013  10.769  0.4432 -1.0661  0.0106
  964MOL0     H30133   1.620   3.923  10.654  1.3687  0.0358 -2.1442
  964MOL0     H30134   1.460   4.170  10.610 -1.4197 -1.0335  0.8921
  964MOL0     H30135   1.564   4.100  10.482  2.7032 -1.2195  0.5354
  964MOL0     H30136   1.243   3.810  10.513 -0.7621  1.3730 -1.8576
  964MOL0     H30137   1.984   4.420  10.856 -0.8510  1.2684 -0.2591
  964MOL0     H30138   2.066   4.710  10.690 -0.5515  0.0678  0.5382
  964MOL0     H30139   2.114   4.626  10.842 -0.4677  0.1823 -0.4916
  964MOL0     H30140   2.227   4.658  10.707 -0.0718  1.2749  0.0076
  965MOL0     O30141   6.782   3.454   5.876  0.8942 -0.2213 -0.3967
  965MOL0     C30142   6.714   3.552   5.917 -0.8183  0.0035  0.2805
  965MOL0     O30143   6.753   3.679   5.900  0.7361  0.7101 -0.2995
  965MOL0     C30144   6.869   3.719   5.840 -1.1088 -1.0974 -0.2781
  965MOL0     C30145   6.990   3.699   5.911 -0.1670  0.2892 -0.0902
  965MOL0     C30146   7.114   3.744   5.863 -0.1050 -0.3013 -0.5787
  965MOL0     C30147   7.118   3.795   5.733 -0.0816 -0.5523  0.2026
  965MOL0     O30148   7.240   3.823   5.674 -0.1300 -0.1370 -0.6759
  965MOL0     C30149   7.358   3.761   5.721  0.0671  0.3742 -0.3293
  965MOL0     C30150   7.464   3.780   5.601  0.8692 -0.6777 -0.6416
  965MOL0     C30151   7.471   3.925   5.554 -0.2937  0.5509  0.4362
  965MOL0     C30152   7.541   3.915   5.408  0.0739 -1.1729 -0.8380
  965MOL0     C30153   7.554   4.053   5.331  0.4371 -0.2476 -0.2342
  965MOL0     C30154   7.559   4.035   5.178 -0.5544  0.0949  0.3599
  965MOL0     C30155   7.529   4.169   5.113  0.9782 -0.1537  0.2475
  965MOL0     C30156   7.621   4.286   5.144 -0.5540 -0.4531 -0.6029
  965MOL0     N30157   7.759   4.263   5.105  0.2606 -0.3034  0.4529
  965MOL0     C30158   7.807   4.298   4.976 -0.5001  0.4212 -0.2795
  965MOL0     C30159   7.937   4.248   4.978 -0.1972  0.9172  0.1678
  965MOL0     C30160   8.031   4.244   4.864  0.0478  0.3242 -0.8157
  965MOL0     C30161   8.038   4.111   4.784 -0.2861  0.0385  0.1779
  965MOL0     C30162   8.072   3.989   4.872  0.4894 -0.1724 -0.2530
  965MOL0     C30163   7.950   3.908   4.911 -0.3043  0.2838  0.1257
  965MOL0     O30164   7.925   3.810   4.811  0.6059  0.3892  0.5687
  965MOL0     C30165   7.808   3.745   4.810 -0.0749 -1.1044  0.2036
  965MOL0     C30166   7.704   3.761   4.899  0.1030 -0.3980 -0.2686
  965MOL0     C30167   7.587   3.688   4.883  0.3815 -0.2674 -0.0940
  965MOL0     C30168   7.566   3.597   4.778 -0.4717 -0.8662  0.9049
  965MOL0     C30169   7.453   3.505   4.785  0.6457  0.8906  0.3040
  965MOL0     O30170   7.369   3.506   4.896  0.5838  0.2129  0.6438
  965MOL0     C30171   7.244   3.444   4.879 -0.4304 -0.6365 -0.2369
  965MOL0     C30172   7.162   3.469   4.770  0.3098  0.3518  0.0270
  965MOL0     C30173   7.037   3.393   4.762 -0.4279  0.1988 -0.4614
  965MOL0     C30174   7.001   3.307   4.866  0.2859 -0.4608 -0.3276
  965MOL0     O30175   6.885   3.241   4.865 -0.3114  0.7763 -0.3101
  965MOL0     C30176   6.773   3.298   4.931  0.7997  0.1998 -0.3550
  965MOL0     C30177   6.648   3.236   4.879  0.4233  0.2240  0.0026
  965MOL0     C30178   6.527   3.270   4.959 -0.4368 -0.3456 -0.1882
  965MOL0     C30179   6.394   3.240   4.884 -0.3829 -0.3617 -1.2803
  965MOL0     C30180   6.280   3.292   4.974  0.0899 -0.3657 -0.4302
  965MOL0     C30181   6.147   3.226   4.941  0.2831 -0.2138 -0.6897
  965MOL0     C30182   6.022   3.293   5.002  0.3685 -0.2374 -0.7411
  965MOL0     C30183   5.886   3.237   4.937  0.2850  0.7318 -0.8273
  965MOL0    Cl30184   5.915   3.067   4.881  0.3627  0.1562  0.4244
  965MOL0     C30185   7.083   3.301   4.979 -0.3488 -0.0074 -0.2374
  965MOL0     C30186   7.196   3.373   4.986  0.5093  0.8326 -0.1692
  965MOL0     O30187   7.446   3.429   4.692  0.0645  0.1264 -0.7469
  965MOL0     C30188   7.671   3.586   4.686 -0.1309  0.7807 -1.9566
  965MOL0     C30189   7.791   3.662   4.703 -0.3740 -0.0423 -0.2510
  965MOL0     N30190   7.963   4.202   5.105 -0.1207 -0.8748  0.4758
  965MOL0     N30191   7.857   4.208   5.180  0.1562  0.1700 -0.5315
  965MOL0     C30192   7.005   3.820   5.662  0.2029 -0.0863 -0.4661
  965MOL0     C30193   6.879   3.786   5.717  0.3260  0.2659  0.4491
  965MOL0     C30194   6.578   3.515   5.980 -0.3165  0.1080  0.8294
  965MOL0     C30195   6.475   3.611   6.006 -0.7576  1.1414 -0.1726
  965MOL0     C30196   6.347   3.576   6.048  0.3033  0.3243 -0.0362
  965MOL0     C30197   6.319   3.440   6.078 -0.1826 -0.2468  0.0521
  965MOL0     O30198   6.202   3.392   6.116 -0.5782 -0.0646 -0.4385
  965MOL0     C30199   6.088   3.474   6.141 -1.0436 -0.3641 -0.6271
  965MOL0     C30200   6.010   3.392   6.238 -0.6168  0.2106 -0.1378
  965MOL0     C30201   5.884   3.462   6.267  0.5775 -0.4149 -0.4270
  965MOL0     C30202   5.799   3.391   6.373 -0.1109  0.2573  0.5823
  965MOL0     C30203   5.673   3.453   6.397  0.4843 -1.1821 -0.5517
  965MOL0     C30204   5.562   3.505   6.417 -0.9575 -1.1337 -0.0335
  965MOL0     C30205   6.424   3.343   6.067 -0.6058  0.0452 -0.4855
  965MOL0     C30206   6.547   3.379   6.015 -0.4291  0.1006  0.1392
  965MOL0     C30207   6.644   3.252   6.020  0.4116  0.0792 -0.7427
  965MOL0     H30208   6.993   3.624   5.990 -0.1835  0.4881  0.1002
  965MOL0     H30209   7.200   3.745   5.930 -0.1843  2.1471 -0.4155
  965MOL0     H30210   7.399   3.816   5.806  1.0152 -3.5445  1.9564
  965MOL0     H30211   7.341   3.657   5.748 -2.2271  1.0965  1.2480
  965MOL0     H30212   7.420   3.727   5.516 -2.2944  3.2742 -1.7848
  965MOL0     H30213   7.564   3.750   5.632  0.2564 -0.5178  1.6800
  965MOL0     H30214   7.523   3.988   5.626  0.8831  0.3386 -0.2133
  965MOL0     H30215   7.371   3.965   5.536 -0.8753 -1.2024 -0.5184
  965MOL0     H30216   7.639   3.869   5.423 -0.0523 -0.8217  1.4927
  965MOL0     H30217   7.482   3.850   5.343 -2.9513  2.0388 -1.6579
  965MOL0     H30218   7.465   4.112   5.354  0.2057 -0.8211  0.4063
  965MOL0     H30219   7.637   4.117   5.362  0.8413 -1.3874  1.1666
  965MOL0     H30220   7.666   4.018   5.163 -0.0964  2.9069  0.0604
  965MOL0     H30221   7.498   3.953   5.138  0.7228 -1.8475  2.1156
  965MOL0     H30222   7.426   4.196   5.138 -0.1441 -1.6544 -2.3321
  965MOL0     H30223   7.536   4.151   5.005  1.5341 -2.9757  0.6700
  965MOL0     H30224   7.577   4.375   5.097 -1.8752 -1.1085 -0.6501
  965MOL0     H30225   7.624   4.294   5.254  0.0510 -3.8826 -0.2578
  965MOL0     H30226   7.751   4.347   4.898  0.3594 -0.4030 -1.4555
  965MOL0     H30227   7.997   4.321   4.795  0.0917 -1.3927 -2.8353
  965MOL0     H30228   8.123   4.289   4.902 -2.5248  2.7136  3.3918
  965MOL0     H30229   7.943   4.096   4.734 -0.7039 -0.6757  1.1523
  965MOL0     H30230   8.114   4.120   4.705 -0.6857  3.2260  0.0109
  965MOL0     H30231   8.124   4.027   4.959 -2.0312 -0.2018  1.3766
  965MOL0     H30232   8.133   3.910   4.827  2.3184  0.5072  0.9622
  965MOL0     H30233   7.869   3.980   4.907 -0.1777  0.3893 -0.6352
  965MOL0     H30234   7.975   3.857   5.005  2.1334  0.6113 -0.2694
  965MOL0     H30235   7.708   3.829   4.983  1.6108  1.3837 -1.6762
  965MOL0     H30236   7.515   3.710   4.961 -0.5832  1.5438 -1.4177
  965MOL0     H30237   7.191   3.533   4.688 -0.1038  1.0621  0.4255
  965MOL0     H30238   6.980   3.404   4.671  0.2495  2.9346 -0.6335
  965MOL0     H30239   6.785   3.287   5.039 -0.1661  1.9717 -0.0206
  965MOL0     H30240   6.767   3.406   4.913  0.7298  0.3087  0.2925
  965MOL0     H30241   6.639   3.257   4.772  1.5885 -0.5639 -0.2725
  965MOL0     H30242   6.659   3.128   4.892 -2.3030  0.1642  3.0773
  965MOL0     H30243   6.527   3.205   5.047 -0.0292 -2.5317 -1.7120
  965MOL0     H30244   6.525   3.370   5.004 -2.8801 -1.0254  1.4464
  965MOL0     H30245   6.393   3.131   4.874 -1.5957 -0.3865 -0.9634
  965MOL0     H30246   6.401   3.289   4.786 -2.1740 -2.8722 -2.7937
  965MOL0     H30247   6.278   3.400   4.955 -0.7836 -0.4872 -1.1198
  965MOL0     H30248   6.297   3.277   5.081 -1.2529  0.0765 -0.1299
  965MOL0     H30249   6.132   3.233   4.833  1.0217 -0.1322 -0.7889
  965MOL0     H30250   6.156   3.121   4.968  0.1723  0.2706  1.3748
  965MOL0     H30251   6.020   3.399   4.976  0.2072  1.2046  4.1496
  965MOL0     H30252   6.007   3.289   5.110  1.7496 -0.1755 -0.5332
  965MOL0     H30253   5.804   3.234   5.009  2.0827  1.4997  1.3869
  965MOL0     H30254   5.848   3.307   4.862  0.3692  0.1848 -1.3963
  965MOL0     H30255   7.056   3.233   5.059  1.8827 -0.7115 -0.0136
  965MOL0     H30256   7.258   3.362   5.074  0.6465 -3.2956 -0.6059
  965MOL0     H30257   7.669   3.509   4.609  0.4210 -0.2948 -0.9270
  965MOL0     H30258   7.880   3.638   4.646  0.3406  1.4768  0.1972
  965MOL0     H30259   7.021   3.880   5.573 -0.4253  1.2249  0.2748
  965MOL0     H30260   6.787   3.808   5.664 -0.2063 -3.4202 -0.4893
  965MOL0     H30261   6.479   3.718   5.986 -1.0926  0.8436 -1.9860
  965MOL0     H30262   6.280   3.660   6.063 -1.3895 -0.8655 -0.6987
  965MOL0     H30263   6.036   3.502   6.050  1.0295  3.0136 -0.9317
  965MOL0     H30264   6.137   3.560   6.187  2.3305 -2.6331  0.4820
  965MOL0     H30265   6.067   3.368   6.329  2.4113 -2.0183 -2.4277
  965MOL0     H30266   5.989   3.297   6.189 -0.2883 -1.1658  2.2012
  965MOL0     H30267   5.825   3.454   6.176  0.1512  0.9653 -0.3085
  965MOL0     H30268   5.900   3.568   6.290  1.9889 -0.7090  0.0436
  965MOL0     H30269   5.778   3.287   6.347  1.6277  0.0988 -0.3448
  965MOL0     H30270   5.856   3.403   6.466  1.8203  5.5338 -0.9137
  965MOL0     H30271   5.469   3.555   6.437 -1.5646 -1.0413 -2.6741
  965MOL0     H30272   6.407   3.237   6.082 -0.3088 -0.1801 -1.6191
  965MOL0     H30273   6.743   3.272   6.061  0.0404  2.7440 -0.9851
  965MOL0     H30274   6.609   3.166   6.079 -1.6580  0.7701 -0.8669
  965MOL0     H30275   6.656   3.217   5.917  2.6058  3.3416 -1.7251
  966MOL0     O30276   1.704   6.296   9.160  0.0932 -0.2722 -1.0891
  966MOL0     C30277   1.629   6.396   9.181  0.2269  0.7132  0.9810
  966MOL0     O30278   1.671   6.512   9.232  1.0491 -0.2656 -0.0950
  966MOL0     C30279   1.801   6.516   9.259 -0.2067  0.2269 -0.0649
  966MOL0     C30280   1.864   6.633   9.231 -0.1680 -0.4493 -0.7970
  966MOL0     C30281   1.998   6.651   9.273 -0.7740 -0.5368  0.7330
  966MOL0     C30282   2.068   6.561   9.349  0.1214  0.5647 -0.2615
  966MOL0     O30283   2.191   6.621   9.393  0.2047  0.5278  0.2081
  966MOL0     C30284   2.283   6.537   9.468 -0.3061  0.5583  0.0408
  966MOL0     C30285   2.253   6.534   9.623  0.2612 -0.3903  0.6871
  966MOL0     C30286   2.370   6.483   9.706 -0.0061 -0.0856  0.3000
  966MOL0     C30287   2.388   6.334   9.683  0.5133  0.4624 -0.4102
  966MOL0     C30288   2.508   6.280   9.766 -1.1160 -0.0281  0.0435
  966MOL0     C30289   2.621   6.257   9.656 -0.3113  0.1823 -0.6697
  966MOL0     C30290   2.749   6.219   9.721 -0.3664 -0.2825 -0.7544
  966MOL0     C30291   2.821   6.329   9.799 -0.3086 -0.1360 -0.4166
  966MOL0     N30292   2.863   6.439   9.710  0.3158 -0.4386 -0.2978
  966MOL0     C30293   2.948   6.425   9.612  0.8210 -0.2254  0.6422
  966MOL0     C30294   2.968   6.554   9.560 -0.1483  0.0707  0.1093
  966MOL0     C30295   3.040   6.574   9.423 -0.1776  0.5721 -0.2357
  966MOL0     C30296   3.175   6.634   9.452 -0.8087  0.4935 -0.5435
  966MOL0     C30297   3.214   6.679   9.308  0.5476 -0.4139  0.2825
  966MOL0     C30298   3.359   6.722   9.294  0.0679 -0.2533 -0.5860
  966MOL0     O30299   3.379   6.798   9.173 -0.0693 -0.0041 -0.4234
  966MOL0     C30300   3.514   6.827   9.142 -0.2094 -0.7428 -0.6014
  966MOL0     C30301   3.540   6.903   9.027  0.0573 -0.4638 -0.2839
  966MOL0     C30302   3.670   6.930   8.988  0.2960  0.2925 -0.3017
  966MOL0     C30303   3.782   6.873   9.053 -0.1526  0.5780  0.1934
  966MOL0     C30304   3.917   6.887   9.008 -0.6990  0.1154  0.4083
  966MOL0     O30305   4.011   6.809   9.058  0.0217  0.5662  0.2648
  966MOL0     C30306   4.140   6.859   9.045 -0.2674  0.7537 -0.2417
  966MOL0     C30307   4.231   6.784   8.973  0.8074  0.3376 -0.4132
  966MOL0     C30308   4.355   6.828   8.947 -0.5207 -0.3205 -0.7063
  966MOL0     C30309   4.401   6.940   9.000 -0.0263 -0.6396  0.4198
  966MOL0     O30310   4.535   6.959   8.972 -0.1680 -0.2738  0.0655
  966MOL0     C30311   4.594   7.093   8.994 -0.7554 -0.0002 -0.1142
  966MOL0     C30312   4.733   7.114   8.930  0.7476  0.5692  0.2802
  966MOL0     C30313   4.742   7.104   8.786  0.2525  0.1901  0.4988
  966MOL0     C30314   4.880   7.133   8.713 -0.4471 -0.0126 -0.5415
  966MOL0     C30315   4.853   7.110   8.562 -0.7874 -0.5832  0.6050
  966MOL0     C30316   4.980   7.157   8.488 -0.5775 -0.4489 -0.1259
  966MOL0     C30317   4.962   7.123   8.336  0.1465 -0.8631 -0.1539
  966MOL0     C30318   5.066   7.195   8.243  0.3289  0.2606 -0.2636
  966MOL0    Cl30319   5.237   7.193   8.300 -0.1246  0.5093  0.2918
  966MOL0     C30320   4.317   7.028   9.077  0.4136 -0.5409 -0.2139
  966MOL0     C30321   4.184   6.987   9.099  0.0158  0.0850  0.4691
  966MOL0     O30322   3.933   6.966   8.911  0.3740  0.2883 -0.6313
  966MOL0     C30323   3.758   6.793   9.162  0.1440  0.5737 -0.5499
  966MOL0     C30324   3.625   6.777   9.214 -0.0071  0.4373  0.3374
  966MOL0     N30325   2.901   6.640   9.651 -0.6811  0.3778 -0.5385
  966MOL0     N30326   2.840   6.570   9.735  0.6338  0.2531 -0.2453
  966MOL0     C30327   2.008   6.438   9.375 -0.4383  0.1766 -0.6288
  966MOL0     C30328   1.876   6.424   9.337 -0.0898 -0.1745  0.4068
  966MOL0     C30329   1.496   6.386   9.112  1.0789 -0.1374  0.4101
  966MOL0     C30330   1.424   6.500   9.086  0.0191 -0.7290 -0.2882
  966MOL0     C30331   1.297   6.499   9.042 -0.0472  0.0867  0.0694
  966MOL0     C30332   1.225   6.385   9.015 -0.5903 -0.4751 -0.0168
  966MOL0     O30333   1.097   6.399   8.967 -0.2806 -0.4031 -0.4669
  966MOL0     C30334   1.024   6.286   8.914  0.8740 -0.4253 -0.8266
  966MOL0     C30335   0.975   6.310   8.772 -0.0344  0.2986  0.1319
  966MOL0     C30336   1.105   6.340   8.685 -0.9363 -0.6290  0.0337
  966MOL0     C30337   1.083   6.421   8.553  0.8287 -0.1431 -0.2018
  966MOL0     C30338   1.209   6.449   8.479  0.2923 -0.7585 -1.0065
  966MOL0     C30339   1.312   6.478   8.428 -0.0514  0.6139  0.2139
  966MOL0     C30340   1.290   6.257   9.050  0.6659  0.2328  0.3808
  966MOL0     C30341   1.426   6.257   9.097 -0.3578 -0.3299 -0.2519
  966MOL0     C30342   1.485   6.130   9.142  0.0683 -0.2092 -1.5134
  966MOL0     H30343   1.800   6.707   9.183  0.9215  0.4821 -0.8378
  966MOL0     H30344   2.046   6.748   9.263 -2.2407  0.1616  0.1166
  966MOL0     H30345   2.285   6.436   9.428 -2.4986  0.0267  1.1186
  966MOL0     H30346   2.377   6.590   9.447 -2.3640  4.2986 -0.6533
  966MOL0     H30347   2.158   6.488   9.652  0.5576 -0.2249  1.9784
  966MOL0     H30348   2.247   6.640   9.646  0.5418  0.0379 -1.0835
  966MOL0     H30349   2.355   6.511   9.810  2.6601  1.1875  0.4149
  966MOL0     H30350   2.459   6.538   9.675  1.2903 -1.7887  0.8180
  966MOL0     H30351   2.294   6.290   9.718 -0.6683  1.2569 -2.4304
  966MOL0     H30352   2.401   6.316   9.576 -1.8192  0.8756 -0.7951
  966MOL0     H30353   2.538   6.350   9.845 -0.7104 -1.1314  0.8961
  966MOL0     H30354   2.490   6.186   9.819 -0.1651 -2.0549 -2.9722
  966MOL0     H30355   2.578   6.177   9.595 -0.1451 -0.4936  0.0768
  966MOL0     H30356   2.654   6.340   9.594 -0.6444  0.0129 -1.0811
  966MOL0     H30357   2.814   6.185   9.640 -1.8720 -0.2568 -2.0128
  966MOL0     H30358   2.732   6.142   9.797  0.6501  1.1163  0.9797
  966MOL0     H30359   2.763   6.374   9.880  1.2471 -0.5280  0.9451
  966MOL0     H30360   2.907   6.284   9.848 -1.3605 -4.0582 -1.8042
  966MOL0     H30361   2.985   6.333   9.567 -0.1326  0.4027 -1.5819
  966MOL0     H30362   3.055   6.475   9.379  2.7069  0.6200  0.4621
  966MOL0     H30363   2.975   6.640   9.365 -2.2483 -0.5214  0.7209
  966MOL0     H30364   3.157   6.719   9.518  2.9752  0.6368  0.5218
  966MOL0     H30365   3.238   6.562   9.504  0.0716  1.1961 -0.6164
  966MOL0     H30366   3.157   6.769   9.281  1.9746 -0.1977 -2.2982
  966MOL0     H30367   3.198   6.600   9.235 -0.6523  0.4084 -0.3888
  966MOL0     H30368   3.422   6.632   9.293  3.6548  2.0384 -0.0454
  966MOL0     H30369   3.382   6.774   9.388 -1.1736  1.1235 -1.0234
  966MOL0     H30370   3.455   6.940   8.971  1.1262  0.0903 -1.6048
  966MOL0     H30371   3.677   7.002   8.907  1.0544  1.4010  0.7114
  966MOL0     H30372   4.193   6.691   8.932 -1.2964  0.3706  1.2884
  966MOL0     H30373   4.419   6.765   8.887  1.2642  2.0730 -1.4637
  966MOL0     H30374   4.533   7.170   8.946  0.1641  0.4207 -0.6491
  966MOL0     H30375   4.603   7.116   9.100  3.3638  0.8365 -0.4639
  966MOL0     H30376   4.768   7.213   8.960 -4.1351  3.2529 -1.6413
  966MOL0     H30377   4.813   7.059   8.981  2.1465  0.3592 -1.9740
  966MOL0     H30378   4.708   7.005   8.754  1.7453  0.0695 -0.8223
  966MOL0     H30379   4.670   7.175   8.744 -0.8021 -1.3027 -0.3263
  966MOL0     H30380   4.963   7.073   8.750 -0.1256 -0.1997 -1.5341
  966MOL0     H30381   4.904   7.238   8.730  0.5153 -0.4443  0.9107
  966MOL0     H30382   4.777   7.178   8.523  0.6725 -0.6993 -2.8176
  966MOL0     H30383   4.835   7.003   8.549 -1.7914 -0.7598  3.0065
  966MOL0     H30384   4.991   7.265   8.500  0.1202 -0.4987 -0.3358
  966MOL0     H30385   5.062   7.098   8.529 -3.7339 -3.5551  2.3010
  966MOL0     H30386   4.859   7.144   8.305 -0.6210 -2.4003  1.1815
  966MOL0     H30387   4.970   7.015   8.320 -0.5941 -0.4105 -5.1214
  966MOL0     H30388   5.068   7.154   8.142  1.6024  0.6150 -0.4016
  966MOL0     H30389   5.021   7.294   8.233 -0.5523 -0.0313  0.6472
  966MOL0     H30390   4.353   7.124   9.113  0.9796 -1.5514  2.1076
  966MOL0     H30391   4.111   7.052   9.147  0.4587  2.1843 -1.5336
  966MOL0     H30392   3.838   6.759   9.227 -1.0388 -0.8978  0.2116
  966MOL0     H30393   3.628   6.715   9.302 -1.2209  0.8774  0.7140
  966MOL0     H30394   2.065   6.354   9.415  1.4549  0.9855 -1.5003
  966MOL0     H30395   1.833   6.331   9.371 -0.4692 -0.6006 -1.1331
  966MOL0     H30396   1.462   6.602   9.096  0.3180 -0.7978 -0.6874
  966MOL0     H30397   1.252   6.597   9.028 -0.3639 -0.1437 -0.6112
  966MOL0     H30398   0.940   6.272   8.983  0.2902 -0.0379 -1.4494
  966MOL0     H30399   1.078   6.190   8.914 -3.8942 -3.4416 -1.0586
  966MOL0     H30400   0.898   6.387   8.764  1.1570  2.0704  3.8948
  966MOL0     H30401   0.931   6.214   8.742  0.9319  0.2631 -1.2690
  966MOL0     H30402   1.157   6.245   8.666 -1.3749 -1.7886  3.7694
  966MOL0     H30403   1.175   6.404   8.739  1.1137 -3.0318  0.3874
  966MOL0     H30404   1.016   6.362   8.490  1.1398 -1.7990  0.9559
  966MOL0     H30405   1.026   6.512   8.574  0.9381 -0.6911  2.9301
  966MOL0     H30406   1.410   6.500   8.390 -0.3596  2.5586  0.4476
  966MOL0     H30407   1.247   6.157   9.040 -1.3873  1.1277 -0.3667
  966MOL0     H30408   1.410   6.052   9.158 -0.4152  0.4719 -0.3392
  966MOL0     H30409   1.545   6.089   9.060  3.5372 -1.4646  1.3543
  966MOL0     H30410   1.544   6.143   9.233 -1.0086  1.2464 -0.9782
  967MOL0     O30411   0.076   7.634   1.791  0.6013 -0.3833  0.1054
  967MOL0     C30412  -0.015   7.567   1.742 -0.1505  0.1559 -0.6133
  967MOL0     O30413   0.011   7.465   1.662 -0.8761 -0.6866  0.2018
  967MOL0     C30414   0.144   7.447   1.626  0.1091  0.0230 -0.8649
  967MOL0     C30415   0.209   7.329   1.663  0.0262  0.9916  0.3147
  967MOL0     C30416   0.338   7.293   1.612  0.0505 -0.7361  0.2996
  967MOL0     C30417   0.388   7.382   1.521 -0.6891 -0.7857  0.4623
  967MOL0     O30418   0.519   7.347   1.487  0.4451 -0.1459 -0.1655
  967MOL0     C30419   0.607   7.458   1.489  1.6647 -0.3759 -0.7607
  967MOL0     C30420   0.740   7.409   1.522  0.8191  0.2127  0.1356
  967MOL0     C30421   0.839   7.524   1.554 -0.1995  0.5387 -0.1311
  967MOL0     C30422   0.979   7.483   1.576  0.0775  0.1498 -0.6005
  967MOL0     C30423   1.086   7.598   1.582 -0.3951 -0.6896  0.2913
  967MOL0     C30424   1.218   7.531   1.614 -0.8246 -0.3609 -0.1514
  967MOL0     C30425   1.343   7.631   1.634  0.1941 -0.3980  0.6110
  967MOL0     C30426   1.339   7.762   1.541 -0.9766  0.4652  0.0764
  967MOL0     N30427   1.456   7.850   1.553 -0.1897  0.6618 -0.0966
  967MOL0     C30428   1.457   7.983   1.574  0.6130 -0.4449  0.1864
  967MOL0     C30429   1.580   8.020   1.570  0.7086  0.4556  0.3621
  967MOL0     C30430   1.643   8.158   1.589  0.4607 -0.3899 -0.1610
  967MOL0     C30431   1.775   8.180   1.511 -0.0184  0.4764  1.2163
  967MOL0     C30432   1.845   8.316   1.546  0.7463  0.5393 -0.0785
  967MOL0     C30433   1.951   8.345   1.450 -0.2900 -1.6800  0.7557
  967MOL0     O30434   2.063   8.256   1.475  0.3199 -0.3997 -0.1669
  967MOL0     C30435   2.184   8.287   1.409  0.1188 -0.1056 -1.1408
  967MOL0     C30436   2.275   8.186   1.440  0.4458 -0.7037  0.4064
  967MOL0     C30437   2.399   8.197   1.383  0.4102 -0.2548  0.5585
  967MOL0     C30438   2.434   8.314   1.309  0.2270 -0.6998 -0.1386
  967MOL0     C30439   2.574   8.327   1.260  0.1448  0.6597  0.3859
  967MOL0     O30440   2.607   8.445   1.203  0.3513  0.0833 -0.3770
  967MOL0     C30441   2.731   8.478   1.160  0.1463 -0.1345  0.9264
  967MOL0     C30442   2.820   8.389   1.105  0.5694 -0.2725 -0.3765
  967MOL0     C30443   2.938   8.441   1.041 -0.1333 -0.1556  0.1662
  967MOL0     C30444   2.970   8.575   1.044 -0.9672 -0.4751 -0.9911
  967MOL0     O30445   3.080   8.627   0.991 -0.1838  0.4820 -0.1311
  967MOL0     C30446   3.196   8.547   0.981  0.3575  0.4336  0.2706
  967MOL0     C30447   3.320   8.639   1.016  0.7408 -0.1464 -0.2226
  967MOL0     C30448   3.449   8.592   0.969 -0.4598  0.6088  0.6243
  967MOL0     C30449   3.563   8.670   1.035  0.1051  0.4218  0.4090
  967MOL0     C30450   3.700   8.634   0.985  0.1115 -0.0568 -0.2988
  967MOL0     C30451   3.738   8.496   1.016  0.5267  0.3698  0.5904
  967MOL0     C30452   3.889   8.481   1.026  0.7835 -0.5799 -0.1858
  967MOL0     C30453   3.940   8.338   1.052  0.2512 -0.7622  0.6838
  967MOL0    Cl30454   3.893   8.273   1.208  0.0974 -0.4035 -0.0797
  967MOL0     C30455   2.880   8.662   1.106 -0.3437  0.2797 -0.6142
  967MOL0     C30456   2.759   8.617   1.156 -0.7583 -0.8569 -0.8553
  967MOL0     O30457   2.645   8.223   1.260  0.0474  0.4405  0.0388
  967MOL0     C30458   2.340   8.413   1.278 -0.8310  0.1887 -0.4647
  967MOL0     C30459   2.219   8.397   1.330  0.3150  0.1341  0.0953
  967MOL0     N30460   1.659   7.906   1.557 -0.6603  0.3425  0.1227
  967MOL0     N30461   1.585   7.800   1.549  0.2403  0.0252  0.0830
  967MOL0     C30462   0.322   7.499   1.474 -0.2035  0.1855  0.3431
  967MOL0     C30463   0.202   7.534   1.535  0.4721 -0.0590  0.5621
  967MOL0     C30464  -0.155   7.595   1.785  0.1031 -0.4356  0.5315
  967MOL0     C30465  -0.185   7.719   1.858 -0.2779  0.0304 -0.0064
  967MOL0     C30466  -0.314   7.759   1.886  0.0434  0.6998  0.8097
  967MOL0     C30467  -0.423   7.682   1.854  0.2812  1.0373 -0.4666
  967MOL0     O30468  -0.550   7.706   1.900  0.1483 -0.4851  0.0017
  967MOL0     C30469  -0.582   7.617   2.006  0.1775  0.1454  0.3386
  967MOL0     C30470  -0.559   7.697   2.136  0.7087 -0.4215 -0.8224
  967MOL0     C30471  -0.619   7.626   2.258 -0.2126  0.8458  0.5273
  967MOL0     C30472  -0.626   7.712   2.380 -0.0939  0.2820 -0.9046
  967MOL0     C30473  -0.705   7.834   2.360  1.5358 -0.5944  0.0883
  967MOL0     C30474  -0.769   7.933   2.319 -0.0883 -0.8671 -0.6084
  967MOL0     C30475  -0.399   7.560   1.790 -0.1601  0.1353 -0.2945
  967MOL0     C30476  -0.274   7.524   1.739 -0.0467  0.7107  0.7124
  967MOL0     C30477  -0.276   7.400   1.653  0.1186 -0.5081 -0.3032
  967MOL0     H30478   0.149   7.261   1.722  1.9601 -0.6225  0.5673
  967MOL0     H30479   0.394   7.207   1.646  1.5629  1.1319  2.8361
  967MOL0     H30480   0.616   7.498   1.388  0.2601  0.7989 -0.4709
  967MOL0     H30481   0.572   7.531   1.563  3.3642 -0.4960  0.2193
  967MOL0     H30482   0.766   7.340   1.442 -1.7128 -1.2750  0.4910
  967MOL0     H30483   0.733   7.344   1.610  0.9888 -2.6810 -1.8694
  967MOL0     H30484   0.805   7.583   1.640 -0.1725  1.0611 -0.4730
  967MOL0     H30485   0.854   7.573   1.457 -0.4051  1.6495  0.3765
  967MOL0     H30486   0.981   7.433   1.673  2.3138  0.5392 -0.3922
  967MOL0     H30487   1.003   7.416   1.493  1.0898  0.4529 -0.5690
  967MOL0     H30488   1.091   7.644   1.482 -2.4622  1.1194  0.9582
  967MOL0     H30489   1.056   7.682   1.644  0.0186  1.8931 -2.7454
  967MOL0     H30490   1.199   7.478   1.707 -2.8726  2.4821  1.1910
  967MOL0     H30491   1.246   7.460   1.536 -0.0153 -0.1169 -0.0922
  967MOL0     H30492   1.437   7.576   1.628 -0.3926 -1.5194  1.3811
  967MOL0     H30493   1.329   7.671   1.735 -1.1212 -0.4489  0.4686
  967MOL0     H30494   1.336   7.727   1.437  1.4435  0.0056  0.1039
  967MOL0     H30495   1.251   7.826   1.550 -0.1171  1.7852 -0.5254
  967MOL0     H30496   1.368   8.045   1.586  0.9808  0.7051 -2.3325
  967MOL0     H30497   1.571   8.236   1.563  1.9636  0.2166 -2.8090
  967MOL0     H30498   1.661   8.166   1.697 -0.3319 -0.5402 -0.0098
  967MOL0     H30499   1.848   8.101   1.527 -0.5245  0.3583  3.1443
  967MOL0     H30500   1.758   8.185   1.403  0.8174 -0.3696  1.0362
  967MOL0     H30501   1.881   8.321   1.649 -1.1649  0.7457  0.6234
  967MOL0     H30502   1.765   8.390   1.535 -1.8302 -1.7617  1.6118
  967MOL0     H30503   1.974   8.451   1.462 -2.4464 -1.2001  1.0566
  967MOL0     H30504   1.913   8.333   1.348  1.1412 -1.5963  0.1823
  967MOL0     H30505   2.245   8.092   1.486 -1.4474 -1.1429 -1.4940
  967MOL0     H30506   2.453   8.103   1.385 -0.8918 -1.0616 -0.5970
  967MOL0     H30507   2.803   8.282   1.096  1.1457 -0.2603 -1.8934
  967MOL0     H30508   3.007   8.375   0.990  1.0300 -0.2623  1.7881
  967MOL0     H30509   3.189   8.469   1.056 -1.8754 -0.6201 -0.9088
  967MOL0     H30510   3.198   8.501   0.881 -0.5284 -0.9607  0.8701
  967MOL0     H30511   3.296   8.738   0.977 -3.5887 -1.6154 -1.8557
  967MOL0     H30512   3.333   8.638   1.125 -1.0959 -1.9927  0.0372
  967MOL0     H30513   3.455   8.485   0.992 -0.8842  0.2103 -0.9759
  967MOL0     H30514   3.456   8.602   0.860 -0.1762 -0.7710  0.4989
  967MOL0     H30515   3.551   8.660   1.143 -0.6279  1.6011  0.4605
  967MOL0     H30516   3.536   8.774   1.014  0.3029  0.3872 -0.0214
  967MOL0     H30517   3.771   8.700   1.036 -0.3602 -0.3258  0.7447
  967MOL0     H30518   3.713   8.649   0.878  0.4347  2.5133  0.0306
  967MOL0     H30519   3.703   8.472   1.117  0.4750  2.9959  1.2780
  967MOL0     H30520   3.694   8.432   0.940  0.7503  2.3197 -1.2884
  967MOL0     H30521   3.926   8.554   1.099  1.3403  0.7082 -1.6942
  967MOL0     H30522   3.936   8.508   0.931 -0.5672  2.8836 -0.0327
  967MOL0     H30523   3.907   8.263   0.980 -0.6604  0.0973  0.1893
  967MOL0     H30524   4.049   8.332   1.052  0.3220  0.2726  0.7023
  967MOL0     H30525   2.893   8.769   1.112 -3.0874  0.6282  0.1811
  967MOL0     H30526   2.699   8.692   1.205 -0.4552 -0.3795 -1.2053
  967MOL0     H30527   2.381   8.504   1.235  1.7655 -0.8927 -0.4416
  967MOL0     H30528   2.160   8.488   1.332  2.0023  1.2720  1.7037
  967MOL0     H30529   0.363   7.577   1.411 -0.4948 -0.5801 -0.8098
  967MOL0     H30530   0.159   7.629   1.503  1.4327 -0.4821 -2.2729
  967MOL0     H30531  -0.099   7.776   1.890  1.3984 -2.2048 -0.2876
  967MOL0     H30532  -0.333   7.860   1.922  0.1827  1.2057 -0.4691
  967MOL0     H30533  -0.538   7.517   1.992  1.4390  0.6636  0.4491
  967MOL0     H30534  -0.690   7.602   2.012 -0.1545  1.6496 -1.2501
  967MOL0     H30535  -0.602   7.797   2.121 -0.9859 -0.7164  1.5107
  967MOL0     H30536  -0.455   7.727   2.157  0.5684  0.1666 -0.9391
  967MOL0     H30537  -0.543   7.549   2.277  0.6726  1.5282 -0.1659
  967MOL0     H30538  -0.716   7.590   2.225 -0.1477  1.1221  0.0312
  967MOL0     H30539  -0.667   7.660   2.467 -2.8822  4.1053  0.3109
  967MOL0     H30540  -0.525   7.746   2.405  0.6662 -2.5089  0.1818
  967MOL0     H30541  -0.821   8.017   2.278 -0.1797 -0.2300  0.7409
  967MOL0     H30542  -0.482   7.496   1.761 -1.3716  1.3878  0.3212
  967MOL0     H30543  -0.373   7.376   1.609 -0.6751 -3.1158  2.5557
  967MOL0     H30544  -0.208   7.404   1.567 -1.3810 -0.9183 -1.5670
  967MOL0     H30545  -0.246   7.314   1.713  1.5626 -0.3462 -0.7534
  968MOL0     O30546   4.926   5.446   9.093 -0.3747  0.0022  0.4256
  968MOL0     C30547   4.815   5.493   9.118  0.1415  1.0655  0.3158
  968MOL0     O30548   4.775   5.619   9.082 -0.5717  0.9289 -0.1250
  968MOL0     C30549   4.859   5.715   9.059 -0.0062 -0.7391  0.7568
  968MOL0     C30550   4.975   5.744   9.134 -0.0415  0.2485 -0.1257
  968MOL0     C30551   5.041   5.862   9.114 -0.7151  0.0683 -0.2982
  968MOL0     C30552   5.003   5.952   9.012  0.2631  1.0453 -0.1122
  968MOL0     O30553   5.084   6.046   8.978  0.0490  0.2648  0.4347
  968MOL0     C30554   5.082   6.087   8.834 -1.1075 -0.5670 -0.4176
  968MOL0     C30555   5.225   6.145   8.810  0.6321 -0.7524 -0.6523
  968MOL0     C30556   5.269   6.118   8.664 -0.1644  1.1989  0.6651
  968MOL0     C30557   5.387   6.206   8.621  0.3514  0.1380  0.2605
  968MOL0     C30558   5.367   6.355   8.609 -0.5622 -0.0577 -0.9938
  968MOL0     C30559   5.278   6.393   8.495  0.0025  0.5544 -0.2299
  968MOL0     C30560   5.357   6.424   8.368 -0.0861 -0.3008 -0.1098
  968MOL0     C30561   5.430   6.562   8.378 -0.2877  0.6019 -0.0723
  968MOL0     N30562   5.520   6.586   8.261  1.0449  0.4913  0.2795
  968MOL0     C30563   5.648   6.537   8.258 -0.3369 -0.2380 -0.4667
  968MOL0     C30564   5.687   6.562   8.127 -1.2252  0.3906 -0.2347
  968MOL0     C30565   5.818   6.523   8.068 -0.8148  0.3863 -0.0178
  968MOL0     C30566   5.941   6.563   8.159 -0.4723  0.6184 -0.5838
  968MOL0     C30567   6.069   6.529   8.089  0.0811  0.2939  0.4778
  968MOL0     C30568   6.195   6.578   8.154 -0.1850 -0.3946  0.4498
  968MOL0     O30569   6.305   6.516   8.092 -0.6639 -0.0761 -0.2931
  968MOL0     C30570   6.422   6.517   8.155  0.0334  1.2938 -0.3235
  968MOL0     C30571   6.527   6.438   8.104 -0.0387  0.2027  0.3328
  968MOL0     C30572   6.658   6.446   8.150  0.8616 -0.1818 -0.8956
  968MOL0     C30573   6.688   6.524   8.270  0.7566  0.1533  0.3122
  968MOL0     C30574   6.823   6.544   8.319 -0.3617  0.2437 -0.6143
  968MOL0     O30575   6.835   6.602   8.443 -0.1207 -0.4171 -0.3102
  968MOL0     C30576   6.966   6.634   8.473 -0.1935 -0.6442 -0.0025
  968MOL0     C30577   7.067   6.545   8.481 -0.6859  0.8652 -0.1313
  968MOL0     C30578   7.199   6.576   8.505 -0.3758 -0.3275  0.6400
  968MOL0     C30579   7.237   6.709   8.517 -0.4658 -0.2926  0.0860
  968MOL0     O30580   7.373   6.744   8.551  0.1503  0.5397  0.1923
  968MOL0     C30581   7.444   6.818   8.445 -0.1568 -0.7443 -0.2410
  968MOL0     C30582   7.490   6.731   8.331  0.4878 -0.4325  0.1807
  968MOL0     C30583   7.586   6.618   8.382 -0.1664  0.8173 -0.2457
  968MOL0     C30584   7.731   6.662   8.372  0.1346  0.3840 -0.2650
  968MOL0     C30585   7.821   6.535   8.377 -0.2767  1.0378 -0.6253
  968MOL0     C30586   7.967   6.583   8.397  0.5790 -0.5043  0.4817
  968MOL0     C30587   8.073   6.480   8.364 -0.9717 -0.3768  0.2110
  968MOL0     C30588   8.213   6.539   8.380 -0.4310 -0.5249 -0.3969
  968MOL0    Cl30589   8.337   6.406   8.365 -0.2016 -0.2752  0.3205
  968MOL0     C30590   7.134   6.807   8.500 -0.0379  0.1541 -1.0339
  968MOL0     C30591   6.999   6.772   8.486 -0.2379 -0.1625 -0.2833
  968MOL0     O30592   6.913   6.518   8.234 -0.1923 -0.3323  0.2190
  968MOL0     C30593   6.576   6.582   8.333 -0.5535 -0.5081 -0.4863
  968MOL0     C30594   6.451   6.585   8.270 -0.7582 -0.1319 -0.2456
  968MOL0     N30595   5.590   6.634   8.058  0.2397 -0.0556 -0.3137
  968MOL0     N30596   5.481   6.632   8.136  0.2595 -0.4939 -0.0415
  968MOL0     C30597   4.883   5.916   8.937 -1.1477 -0.0721 -0.4642
  968MOL0     C30598   4.819   5.800   8.960 -0.0735 -0.8980  0.1646
  968MOL0     C30599   4.721   5.407   9.184  0.1466 -0.7516  0.9966
  968MOL0     C30600   4.587   5.442   9.180  0.1474 -0.1386  0.1894
  968MOL0     C30601   4.494   5.378   9.251 -0.2655 -0.0143 -0.8845
  968MOL0     C30602   4.525   5.257   9.320  0.8192  0.2428 -0.4144
  968MOL0     O30603   4.419   5.202   9.382  0.3095 -0.3090  0.2680
  968MOL0     C30604   4.429   5.113   9.495  0.3982 -0.5756  0.8831
  968MOL0     C30605   4.313   5.023   9.491  0.0951 -0.6659 -1.5105
  968MOL0     C30606   4.344   4.914   9.598 -0.4850 -0.0754 -1.1133
  968MOL0     C30607   4.240   4.803   9.602 -0.1174 -0.4352 -0.6602
  968MOL0     C30608   4.111   4.851   9.653 -0.0138  0.1135 -0.8654
  968MOL0     C30609   4.001   4.896   9.688 -0.1360  0.2347 -0.4026
  968MOL0     C30610   4.658   5.214   9.330 -0.5216 -0.2109  0.8302
  968MOL0     C30611   4.760   5.289   9.265  0.5134 -0.2833  0.5779
  968MOL0     C30612   4.897   5.220   9.255  0.2422 -0.0284 -0.8835
  968MOL0     H30613   5.006   5.681   9.216 -0.2715  0.2040 -0.0725
  968MOL0     H30614   5.129   5.892   9.170 -0.6986 -0.4151 -0.0618
  968MOL0     H30615   5.067   5.991   8.784 -0.2220 -1.5992  1.2183
  968MOL0     H30616   5.007   6.160   8.801  1.1329  1.0977 -2.2011
  968MOL0     H30617   5.288   6.099   8.886 -1.0055 -0.2843  1.0792
  968MOL0     H30618   5.226   6.252   8.831  0.4234 -0.7553 -0.6276
  968MOL0     H30619   5.184   6.147   8.602  0.8352  2.2454 -0.2659
  968MOL0     H30620   5.299   6.014   8.647  0.2587  1.4811 -0.4093
  968MOL0     H30621   5.462   6.174   8.695  1.8487 -0.1046 -1.2901
  968MOL0     H30622   5.424   6.173   8.524 -1.4838 -0.0500 -0.4183
  968MOL0     H30623   5.327   6.394   8.703 -0.3345 -2.2700  0.0980
  968MOL0     H30624   5.469   6.392   8.597 -1.1762  1.9521 -0.4006
  968MOL0     H30625   5.212   6.312   8.464 -0.7496  1.2401 -0.4534
  968MOL0     H30626   5.220   6.480   8.529 -0.5311 -0.3982  1.4385
  968MOL0     H30627   5.291   6.438   8.283  3.1206 -0.9001 -2.9196
  968MOL0     H30628   5.431   6.351   8.335 -0.0279 -0.4331  0.3030
  968MOL0     H30629   5.355   6.642   8.384 -0.6493  0.4210 -1.7104
  968MOL0     H30630   5.490   6.566   8.469  0.6245 -1.8469 -0.4887
  968MOL0     H30631   5.700   6.488   8.339  1.7159  4.4564  1.4436
  968MOL0     H30632   5.807   6.416   8.046 -2.5750  0.6155 -0.3950
  968MOL0     H30633   5.826   6.565   7.967 -2.0766 -0.5249 -0.5231
  968MOL0     H30634   5.937   6.667   8.192  1.8526  0.0083  1.8840
  968MOL0     H30635   5.939   6.505   8.251  1.3923  1.0920 -0.2135
  968MOL0     H30636   6.066   6.558   7.984 -0.2802 -5.9161 -1.6246
  968MOL0     H30637   6.076   6.421   8.079  0.1601  0.5139 -2.7972
  968MOL0     H30638   6.193   6.563   8.262 -2.7398 -0.0851  0.5091
  968MOL0     H30639   6.201   6.682   8.121 -3.0612  0.2221  1.5370
  968MOL0     H30640   6.521   6.375   8.016  1.7563 -2.0947  1.7404
  968MOL0     H30641   6.742   6.394   8.107  1.9155  0.8753 -0.1893
  968MOL0     H30642   7.041   6.442   8.460 -1.8239  0.4931  2.5918
  968MOL0     H30643   7.266   6.491   8.514 -1.9178 -1.7779 -0.9147
  968MOL0     H30644   7.373   6.885   8.396 -1.4298 -1.7141  0.2178
  968MOL0     H30645   7.531   6.877   8.475 -0.3678  0.7443 -2.3307
  968MOL0     H30646   7.396   6.685   8.299  1.5374 -1.4932 -1.5543
  968MOL0     H30647   7.531   6.787   8.246 -2.3298 -0.3759 -1.2804
  968MOL0     H30648   7.558   6.591   8.484  0.7040  0.5953 -0.0620
  968MOL0     H30649   7.570   6.531   8.317  2.9501 -1.0723  1.2930
  968MOL0     H30650   7.748   6.739   8.447  1.3871  1.2344 -1.3721
  968MOL0     H30651   7.738   6.712   8.275 -3.1022 -1.3141 -1.5203
  968MOL0     H30652   7.818   6.486   8.279 -0.4550 -1.0714  0.3711
  968MOL0     H30653   7.789   6.462   8.452 -0.3546  2.4164  0.7389
  968MOL0     H30654   7.974   6.670   8.331 -1.7250 -0.0921  0.7134
  968MOL0     H30655   7.973   6.616   8.501 -3.2356 -0.8026  0.9382
  968MOL0     H30656   8.060   6.444   8.261  1.4813  2.7708 -1.3850
  968MOL0     H30657   8.055   6.393   8.427 -1.0629 -0.3276  0.2538
  968MOL0     H30658   8.238   6.617   8.307 -1.1873 -0.8894 -1.0689
  968MOL0     H30659   8.212   6.588   8.478 -1.7330  3.4612 -2.1828
  968MOL0     H30660   7.155   6.914   8.503 -0.1368  0.1538  0.0068
  968MOL0     H30661   6.920   6.846   8.483 -0.3782 -0.3020 -3.6918
  968MOL0     H30662   6.583   6.631   8.430  2.0113  0.3459 -1.0276
  968MOL0     H30663   6.374   6.636   8.327  0.4607  3.2121 -1.3709
  968MOL0     H30664   4.837   5.983   8.865 -0.4668 -1.1328 -1.9602
  968MOL0     H30665   4.720   5.795   8.916 -0.3453  2.3580  0.1034
  968MOL0     H30666   4.551   5.533   9.133  1.2263  0.6439  0.8309
  968MOL0     H30667   4.397   5.428   9.257 -0.4444 -0.4863  0.8344
  968MOL0     H30668   4.432   5.157   9.595 -0.0978  0.3677  0.4991
  968MOL0     H30669   4.522   5.057   9.483  2.3155  2.7679 -1.3792
  968MOL0     H30670   4.293   4.979   9.393 -0.7342 -0.8973 -1.2466
  968MOL0     H30671   4.224   5.071   9.533  0.9467 -1.6086  1.6776
  968MOL0     H30672   4.353   4.951   9.700  0.6858  0.3382 -1.3554
  968MOL0     H30673   4.439   4.865   9.574  0.0628  1.1014 -1.4240
  968MOL0     H30674   4.218   4.765   9.502 -2.3983  0.1870 -0.4492
  968MOL0     H30675   4.277   4.719   9.661  0.6392 -1.3841 -2.4287
  968MOL0     H30676   3.913   4.947   9.722  0.4560  0.8198  0.2721
  968MOL0     H30677   4.678   5.122   9.383 -1.8322 -0.5714  0.7179
  968MOL0     H30678   4.896   5.126   9.311 -2.8283  0.4382 -0.0025
  968MOL0     H30679   4.930   5.195   9.153 -1.5138 -0.6491 -1.3313
  968MOL0     H30680   4.970   5.286   9.302  0.7003 -2.0546  1.4103
  969MOL0     O30681  10.733   4.087   9.004 -0.1723  0.6294  0.9727
  969MOL0     C30682  10.659   4.024   8.921  0.4185 -0.0222 -0.8433
  969MOL0     O30683  10.699   3.990   8.792  0.7003 -0.0423  0.0721
  969MOL0     C30684  10.806   4.057   8.745  0.5657 -0.0288  0.5061
  969MOL0     C30685  10.792   4.137   8.635 -0.2633  0.3276  0.4496
  969MOL0     C30686  10.907   4.198   8.574  0.0205 -1.1216 -0.2891
  969MOL0     C30687  11.031   4.164   8.620  0.2246  0.1661  0.0565
  969MOL0     O30688  11.142   4.208   8.550  0.7059 -0.0413 -0.2256
  969MOL0     C30689  11.226   4.285   8.637 -0.3481  0.1061  0.2933
  969MOL0     C30690  11.238   4.438   8.617 -0.6946 -0.0069  0.2505
  969MOL0     C30691  11.117   4.510   8.678 -0.4400  0.5142 -0.1086
  969MOL0     C30692  11.122   4.659   8.647  0.4384 -0.6969 -0.3935
  969MOL0     C30693  11.011   4.744   8.709  0.1313  1.2270  0.5427
  969MOL0     C30694  11.006   4.876   8.637 -0.4571 -0.1530  0.6159
  969MOL0     C30695  10.873   4.940   8.672  0.3996 -0.0034 -1.0041
  969MOL0     C30696  10.837   5.066   8.584 -0.7675  0.1607  0.4401
  969MOL0     N30697  10.933   5.173   8.611 -0.6521 -0.4242 -0.4166
  969MOL0     C30698  10.992   5.244   8.513  0.3507 -0.7543 -0.3142
  969MOL0     C30699  11.100   5.307   8.571  0.3443  0.5370  1.0343
  969MOL0     C30700  11.213   5.375   8.504 -0.0258 -0.6604  0.1900
  969MOL0     C30701  11.344   5.326   8.548 -0.1852 -0.5007 -0.1340
  969MOL0     C30702  11.452   5.427   8.520 -0.1299 -0.9079  0.1171
  969MOL0     C30703  11.586   5.350   8.508 -0.0221  1.0051 -0.1050
  969MOL0     O30704  11.691   5.443   8.496  0.5090  0.6240 -0.1085
  969MOL0     C30705  11.822   5.385   8.490  0.0005 -0.1137  0.1311
  969MOL0     C30706  11.922   5.458   8.434 -0.4260  0.3666  0.9050
  969MOL0     C30707  12.052   5.413   8.417  0.2750  0.0031 -0.3675
  969MOL0     C30708  12.090   5.289   8.470 -0.4438  0.2878 -0.3346
  969MOL0     C30709  12.231   5.238   8.456  0.0940  0.9800 -0.6413
  969MOL0     O30710  12.272   5.167   8.567  0.3157  0.0481 -0.1605
  969MOL0     C30711  12.401   5.122   8.583 -0.5345 -0.0475 -0.0645
  969MOL0     C30712  12.513   5.175   8.507  0.5784 -0.6239 -0.8146
  969MOL0     C30713  12.642   5.127   8.525  0.2945 -0.0061 -0.0549
  969MOL0     C30714  12.662   5.015   8.612 -1.1443  0.7407  0.6532
  969MOL0     O30715  12.786   4.957   8.640  0.0942 -0.0685 -0.4372
  969MOL0     C30716  12.897   5.046   8.627 -0.2670  0.0037  0.4624
  969MOL0     C30717  13.013   4.981   8.708  0.0420 -0.0675  0.1407
  969MOL0     C30718  13.117   5.099   8.733 -0.0504  0.4461 -1.1654
  969MOL0     C30719  13.243   5.034   8.795 -0.0988 -0.2907 -0.6060
  969MOL0     C30720  13.324   5.150   8.858  0.2892  0.8379  0.6504
  969MOL0     C30721  13.474   5.109   8.854  0.9751  0.2096  0.5973
  969MOL0     C30722  13.569   5.199   8.925  0.0779 -1.2173 -0.2883
  969MOL0     C30723  13.551   5.344   8.889  0.9181 -0.0117  0.1090
  969MOL0    Cl30724  13.597   5.365   8.719  0.1491  0.1520 -0.1068
  969MOL0     C30725  12.557   4.961   8.682 -1.1484 -0.4313  0.3087
  969MOL0     C30726  12.426   5.015   8.673 -0.1085 -0.2166 -0.4774
  969MOL0     O30727  12.301   5.257   8.355  0.4238 -0.4546  0.0152
  969MOL0     C30728  11.987   5.207   8.520 -0.1419 -0.1368 -0.3312
  969MOL0     C30729  11.856   5.256   8.536  0.0107 -0.3609  0.0717
  969MOL0     N30730  11.096   5.296   8.711  0.1105  0.1645  0.2799
  969MOL0     N30731  11.002   5.202   8.727  0.3132 -0.3953 -0.1367
  969MOL0     C30732  11.044   4.076   8.729 -0.3496  0.0701 -0.0556
  969MOL0     C30733  10.937   4.023   8.787 -0.4733 -0.0348 -0.7197
  969MOL0     C30734  10.532   3.960   8.971 -0.3793 -0.3662 -0.2029
  969MOL0     C30735  10.466   3.893   8.875  0.2364  0.5758 -0.6736
  969MOL0     C30736  10.346   3.837   8.901 -0.4110  0.8086 -0.3546
  969MOL0     C30737  10.297   3.827   9.033  1.0440 -0.1176  0.4382
  969MOL0     O30738  10.185   3.759   9.079 -0.0263  0.0776 -0.0240
  969MOL0     C30739  10.132   3.662   8.984 -0.3688  0.3684 -0.0307
  969MOL0     C30740  10.034   3.729   8.876  1.3316  0.4844  0.6179
  969MOL0     C30741   9.999   3.619   8.770 -0.3460 -0.3976  0.1821
  969MOL0     C30742   9.922   3.672   8.655  0.9606 -0.3082  0.5247
  969MOL0     C30743   9.929   3.583   8.538 -0.0021  1.2558  0.2110
  969MOL0     C30744   9.937   3.511   8.442 -0.1427 -0.3154 -0.5091
  969MOL0     C30745  10.366   3.894   9.131  0.9997  0.3874 -0.2878
  969MOL0     C30746  10.483   3.959   9.107 -0.5872 -0.0423  0.3647
  969MOL0     C30747  10.551   4.024   9.226 -1.3514  0.5076 -1.0358
  969MOL0     H30748  10.689   4.146   8.603 -0.1910 -0.4814 -0.0395
  969MOL0     H30749  10.887   4.259   8.486 -0.7187 -0.8084  0.0924
  969MOL0     H30750  11.198   4.274   8.742  4.5727  0.5316  1.9278
  969MOL0     H30751  11.326   4.244   8.621 -0.4620  0.0821 -0.3584
  969MOL0     H30752  11.249   4.451   8.509 -1.0215 -0.5602  0.1465
  969MOL0     H30753  11.326   4.471   8.672 -1.1620  2.6104 -0.3993
  969MOL0     H30754  11.107   4.488   8.784 -1.2872  1.0087 -0.0767
  969MOL0     H30755  11.035   4.462   8.623  1.6601 -4.0313  0.3099
  969MOL0     H30756  11.213   4.700   8.693 -0.2792 -0.9586  1.3545
  969MOL0     H30757  11.119   4.667   8.538 -1.1418 -0.2821 -0.3434
  969MOL0     H30758  10.914   4.692   8.707  0.3541  0.6864  2.4827
  969MOL0     H30759  11.029   4.771   8.813 -0.2663 -3.0477  1.8929
  969MOL0     H30760  11.093   4.932   8.671 -2.1994  2.1197  1.6283
  969MOL0     H30761  11.006   4.859   8.529 -0.0217 -0.8752  0.7241
  969MOL0     H30762  10.884   4.973   8.776  2.8502 -3.8415  0.1363
  969MOL0     H30763  10.792   4.868   8.659 -1.4908  2.1522 -1.8225
  969MOL0     H30764  10.846   5.048   8.476  0.0735  0.8686  0.3829
  969MOL0     H30765  10.735   5.092   8.614 -0.0927  1.7359  1.5134
  969MOL0     H30766  10.980   5.224   8.407  1.5920  1.9586 -1.0678
  969MOL0     H30767  11.227   5.348   8.398  0.6991  1.3883 -0.2828
  969MOL0     H30768  11.198   5.483   8.507 -2.3870 -0.9132 -0.6776
  969MOL0     H30769  11.344   5.312   8.656  0.0925  1.1397  0.1111
  969MOL0     H30770  11.362   5.230   8.499 -0.4671 -0.2744 -0.6945
  969MOL0     H30771  11.450   5.484   8.614  1.1413  0.0214 -0.3973
  969MOL0     H30772  11.432   5.485   8.430  1.3120 -1.3851 -0.5337
  969MOL0     H30773  11.580   5.281   8.423 -0.2694 -0.3754  1.0027
  969MOL0     H30774  11.601   5.289   8.598  1.8078  3.3621  1.3137
  969MOL0     H30775  11.894   5.548   8.379  1.1014 -1.1775 -2.7618
  969MOL0     H30776  12.120   5.483   8.370 -0.9791  0.4922 -1.5202
  969MOL0     H30777  12.512   5.259   8.439  2.2125 -0.2459 -0.4144
  969MOL0     H30778  12.720   5.173   8.466  1.6521 -1.9527  0.1211
  969MOL0     H30779  12.928   5.075   8.526 -0.1015 -1.3230  0.1137
  969MOL0     H30780  12.864   5.133   8.684 -1.1918  0.0378 -0.1024
  969MOL0     H30781  12.984   4.929   8.800  1.5711 -0.5823  0.3588
  969MOL0     H30782  13.070   4.912   8.646  0.6267  1.3262 -0.9199
  969MOL0     H30783  13.141   5.153   8.641 -1.4072  2.1854 -0.5493
  969MOL0     H30784  13.077   5.182   8.793  1.0028  0.4362 -0.4173
  969MOL0     H30785  13.308   4.999   8.714 -1.2571 -0.5635 -1.4608
  969MOL0     H30786  13.223   4.953   8.866  1.1902 -2.3362 -2.4410
  969MOL0     H30787  13.288   5.180   8.957 -0.7699  1.2101  0.1660
  969MOL0     H30788  13.320   5.238   8.793  1.7625  1.1835  0.9763
  969MOL0     H30789  13.489   5.007   8.891  1.4532  0.0962  0.1048
  969MOL0     H30790  13.502   5.105   8.748 -0.5396  0.2812  0.1647
  969MOL0     H30791  13.674   5.178   8.899  0.5006  2.6030 -2.4566
  969MOL0     H30792  13.548   5.184   9.031 -1.1118  1.0920 -0.1427
  969MOL0     H30793  13.447   5.375   8.904  0.4976 -1.0525 -0.5357
  969MOL0     H30794  13.618   5.400   8.955 -0.7355  0.5444  1.3838
  969MOL0     H30795  12.574   4.881   8.753 -0.4756 -0.1462  0.4736
  969MOL0     H30796  12.351   4.977   8.742  1.5061 -2.5267  0.0832
  969MOL0     H30797  12.010   5.106   8.553  0.7426  0.7828  2.1535
  969MOL0     H30798  11.773   5.198   8.576 -1.2096  1.1631 -0.1118
  969MOL0     H30799  11.143   4.042   8.759 -0.5015 -0.6407 -0.3484
  969MOL0     H30800  10.945   3.930   8.842  1.3696  0.3429 -0.2796
  969MOL0     H30801  10.495   3.908   8.772  2.9073  0.3629 -0.0172
  969MOL0     H30802  10.295   3.788   8.819  0.5866  0.3319 -0.7021
  969MOL0     H30803  10.068   3.598   9.044  0.5961  0.0333  0.6702
  969MOL0     H30804  10.217   3.602   8.947 -0.0965  1.5718 -1.4565
  969MOL0     H30805  10.077   3.817   8.827  0.3397  0.0578 -1.1316
  969MOL0     H30806   9.943   3.755   8.931  0.8176 -1.6636  0.8947
  969MOL0     H30807   9.943   3.538   8.817  0.6797 -1.9769 -1.2020
  969MOL0     H30808  10.097   3.585   8.737  0.3603  1.6054  0.0515
  969MOL0     H30809   9.818   3.690   8.683 -0.4269 -2.5006 -2.5602
  969MOL0     H30810   9.971   3.765   8.626 -0.3414  0.2664  0.0658
  969MOL0     H30811   9.947   3.441   8.361  2.4337 -3.1384  1.9758
  969MOL0     H30812  10.332   3.885   9.234 -1.1816 -1.3651 -1.0919
  969MOL0     H30813  10.507   3.993   9.322 -0.8779 -1.8933 -1.5310
  969MOL0     H30814  10.659   4.013   9.222 -1.1635  2.4913 -2.8913
  969MOL0     H30815  10.541   4.133   9.214 -2.8703  0.4037 -0.8863
  970MOL0     O30816   3.843   0.709   3.305  0.1703 -0.0842 -0.3528
  970MOL0     C30817   3.775   0.785   3.372 -0.2454 -0.2756 -0.2032
  970MOL0     O30818   3.827   0.887   3.449  0.4776 -0.0946 -0.7183
  970MOL0     C30819   3.948   0.931   3.425 -0.6661 -1.1587 -0.2508
  970MOL0     C30820   4.000   0.948   3.294  0.0512 -0.2128 -0.6862
  970MOL0     C30821   4.129   0.997   3.278  0.2934 -0.4392  0.8689
  970MOL0     C30822   4.211   1.025   3.392  0.0789 -0.3403  0.2375
  970MOL0     O30823   4.343   1.060   3.371  0.4484  0.7482 -0.2752
  970MOL0     C30824   4.422   1.109   3.483 -0.5150  0.3221 -0.2639
  970MOL0     C30825   4.553   1.165   3.427  0.0330  0.6567 -0.1786
  970MOL0     C30826   4.641   1.051   3.366 -0.4094 -0.5338 -0.5413
  970MOL0     C30827   4.790   1.087   3.330  0.6372 -0.1561 -0.3186
  970MOL0     C30828   4.874   0.960   3.314 -1.2058 -1.4731 -0.2557
  970MOL0     C30829   5.011   0.992   3.241 -0.3298 -0.2143  0.0474
  970MOL0     C30830   5.079   0.859   3.207  0.3128 -1.0321 -0.0236
  970MOL0     C30831   5.218   0.877   3.140  0.0189  0.2536  0.4207
  970MOL0     N30832   5.206   0.877   2.989 -0.2457  0.2395 -0.7821
  970MOL0     C30833   5.159   0.775   2.905 -1.0986  0.0584  0.3360
  970MOL0     C30834   5.148   0.814   2.780  0.4927 -0.3980 -0.1732
  970MOL0     C30835   5.091   0.732   2.670  0.2341 -0.0568 -0.3876
  970MOL0     C30836   5.111   0.793   2.536 -0.0879 -0.4945  0.3253
  970MOL0     C30837   5.074   0.690   2.433 -0.2025  0.0383  0.3843
  970MOL0     C30838   5.092   0.738   2.295  0.1471 -0.4075  0.7490
  970MOL0     O30839   5.014   0.648   2.209 -0.0420 -0.0294 -0.0946
  970MOL0     C30840   4.978   0.698   2.081 -0.3370  0.6758 -0.0095
  970MOL0     C30841   5.057   0.782   2.004 -0.3579  0.1010 -0.6646
  970MOL0     C30842   5.013   0.845   1.884 -0.5744  0.2708 -0.2394
  970MOL0     C30843   4.879   0.816   1.840  0.0522  0.0801  0.2022
  970MOL0     C30844   4.828   0.879   1.716  0.4211  0.4616  0.4178
  970MOL0     O30845   4.702   0.833   1.677  0.8459 -0.6213  0.0627
  970MOL0     C30846   4.653   0.866   1.559  0.0202  0.8240  0.2080
  970MOL0     C30847   4.642   0.998   1.506 -0.8179  0.5955 -0.6731
  970MOL0     C30848   4.583   1.016   1.377  0.8606 -0.6552 -0.1009
  970MOL0     C30849   4.533   0.915   1.298  0.1998 -0.5217  0.0160
  970MOL0     O30850   4.497   0.931   1.168 -0.1627  0.1488  0.5671
  970MOL0     C30851   4.471   0.821   1.083 -0.5458 -0.3367 -0.4637
  970MOL0     C30852   4.466   0.871   0.935  0.3116 -0.1813  0.2943
  970MOL0     C30853   4.335   0.949   0.922  0.0890  0.7926 -0.7192
  970MOL0     C30854   4.310   1.006   0.784 -0.2208  0.5095  0.3435
  970MOL0     C30855   4.193   1.115   0.795  0.4268 -0.2763 -0.5158
  970MOL0     C30856   4.146   1.175   0.662 -0.4189  0.1339  0.8506
  970MOL0     C30857   4.232   1.300   0.613  0.4643 -0.5149 -0.4764
  970MOL0     C30858   4.222   1.410   0.716  0.0656  0.7243  0.3135
  970MOL0    Cl30859   4.055   1.461   0.742  0.2742 -0.4110 -0.3085
  970MOL0     C30860   4.532   0.781   1.357 -0.7071  0.1311  0.1800
  970MOL0     C30861   4.583   0.764   1.490  0.6195  0.5882  0.6557
  970MOL0     O30862   4.905   0.951   1.653  0.3160  0.0755  0.2678
  970MOL0     C30863   4.799   0.730   1.916 -0.3099 -0.3223 -0.0306
  970MOL0     C30864   4.846   0.683   2.044  0.1612 -0.6641  1.1835
  970MOL0     N30865   5.162   0.953   2.779 -0.8561  0.4466 -0.1901
  970MOL0     N30866   5.198   0.983   2.906 -0.5533  0.7421 -0.2671
  970MOL0     C30867   4.154   1.006   3.525 -0.0638 -0.3673  0.0534
  970MOL0     C30868   4.025   0.963   3.536 -0.7785 -0.8697 -0.7302
  970MOL0     C30869   3.627   0.776   3.360 -0.2501 -0.1470 -0.8244
  970MOL0     C30870   3.582   0.729   3.236 -0.3865 -0.8506 -1.1994
  970MOL0     C30871   3.451   0.722   3.203 -0.0426  0.1179 -0.0913
  970MOL0     C30872   3.360   0.761   3.290 -0.0087  0.6868 -0.2401
  970MOL0     O30873   3.229   0.762   3.258 -0.0209 -0.0434  0.0139
  970MOL0     C30874   3.169   0.637   3.242 -0.1834  0.5679 -0.1276
  970MOL0     C30875   3.147   0.560   3.375  0.1146  0.1463  0.9479
  970MOL0     C30876   3.089   0.425   3.355  0.3189 -0.2657 -0.0546
  970MOL0     C30877   2.972   0.394   3.451 -0.0490 -0.2037  0.2081
  970MOL0     C30878   2.903   0.264   3.423 -0.2365 -0.6912 -0.9793
  970MOL0     C30879   2.863   0.150   3.416  0.1761 -0.7301 -0.2943
  970MOL0     C30880   3.395   0.814   3.418 -0.3950 -0.2446 -0.2092
  970MOL0     C30881   3.533   0.830   3.452 -0.2300 -0.5082 -0.4704
  970MOL0     C30882   3.566   0.899   3.582  0.1708  0.4530  0.2535
  970MOL0     H30883   3.937   0.919   3.210  1.1234 -4.7016 -0.1598
  970MOL0     H30884   4.162   1.002   3.175 -0.0829 -2.5666  0.6081
  970MOL0     H30885   4.375   1.195   3.533 -1.0640  3.0621 -4.8953
  970MOL0     H30886   4.448   1.032   3.556 -2.5912 -0.7777 -0.5984
  970MOL0     H30887   4.604   1.205   3.515 -1.7348  0.7734  0.8178
  970MOL0     H30888   4.544   1.246   3.354 -1.0482  1.1398  0.4713
  970MOL0     H30889   4.598   1.014   3.273 -1.7921 -0.2819 -0.0322
  970MOL0     H30890   4.646   0.971   3.441 -2.3156  0.9474  1.2809
  970MOL0     H30891   4.790   1.145   3.237 -4.3428 -0.2240 -0.6202
  970MOL0     H30892   4.833   1.143   3.413 -0.5701 -1.3826  1.1997
  970MOL0     H30893   4.896   0.917   3.412 -0.6112  0.0853  0.3374
  970MOL0     H30894   4.808   0.895   3.257 -2.2291  0.5608 -1.5095
  970MOL0     H30895   4.999   1.050   3.149  1.6443  2.1211  1.1657
  970MOL0     H30896   5.073   1.049   3.311 -1.4909  0.3708  0.6332
  970MOL0     H30897   5.005   0.799   3.154 -0.8018 -2.8062  3.2627
  970MOL0     H30898   5.106   0.807   3.300  3.6136 -1.1491 -0.8976
  970MOL0     H30899   5.257   0.975   3.168  1.8187 -0.2270 -0.2630
  970MOL0     H30900   5.287   0.797   3.167 -0.9074 -0.6260  0.2359
  970MOL0     H30901   5.156   0.669   2.930 -0.9247 -0.0926 -0.2599
  970MOL0     H30902   5.125   0.629   2.683  1.8283  0.5158  0.2698
  970MOL0     H30903   4.983   0.724   2.686  0.2669 -2.5602 -0.9211
  970MOL0     H30904   5.048   0.881   2.525  0.9044 -0.1242 -5.3594
  970MOL0     H30905   5.213   0.829   2.524 -1.1751  3.5350  1.5241
  970MOL0     H30906   4.968   0.661   2.438  0.4429 -2.3209  2.2246
  970MOL0     H30907   5.147   0.611   2.451  2.2079  1.8507 -0.8268
  970MOL0     H30908   5.197   0.738   2.265 -0.1078 -0.2484 -0.2001
  970MOL0     H30909   5.057   0.840   2.278 -1.9728 -1.5285 -2.6387
  970MOL0     H30910   5.156   0.811   2.037 -0.1444 -1.5549  0.2915
  970MOL0     H30911   5.071   0.910   1.818 -1.7272  0.8422 -0.7203
  970MOL0     H30912   4.675   1.081   1.568 -0.4798  0.0708 -0.1447
  970MOL0     H30913   4.575   1.110   1.322 -0.6250 -1.1951 -0.8681
  970MOL0     H30914   4.556   0.753   1.092 -0.3342  0.1818  2.3810
  970MOL0     H30915   4.379   0.772   1.116 -0.7552  1.1370  1.3352
  970MOL0     H30916   4.551   0.933   0.905 -0.1287  0.3565  0.1399
  970MOL0     H30917   4.463   0.790   0.862  0.9236  1.1106 -1.2250
  970MOL0     H30918   4.255   0.880   0.951  1.1025  0.0183  0.3262
  970MOL0     H30919   4.342   1.032   0.993 -0.4880 -0.9289  1.4470
  970MOL0     H30920   4.291   0.924   0.714  2.0638  0.8170 -0.7096
  970MOL0     H30921   4.401   1.057   0.754 -0.2092 -0.7570 -1.9856
  970MOL0     H30922   4.230   1.192   0.863 -0.0758  0.5390 -1.1459
  970MOL0     H30923   4.104   1.066   0.836 -0.8357 -0.2900 -3.0858
  970MOL0     H30924   4.152   1.106   0.578 -2.6979  0.8557  0.0049
  970MOL0     H30925   4.046   1.219   0.671 -1.0155 -0.6004 -1.4903
  970MOL0     H30926   4.184   1.341   0.524 -3.3385  1.4393  2.2006
  970MOL0     H30927   4.333   1.273   0.580  1.3707  3.4299 -1.4771
  970MOL0     H30928   4.276   1.388   0.809  0.8098  4.3646  0.8607
  970MOL0     H30929   4.274   1.497   0.674  3.2575 -0.7850  0.7970
  970MOL0     H30930   4.501   0.692   1.304  1.5077 -1.3587  1.2254
  970MOL0     H30931   4.587   0.662   1.526 -0.0250 -0.3203 -1.6308
  970MOL0     H30932   4.705   0.679   1.892  0.4346 -1.7881  0.0288
  970MOL0     H30933   4.788   0.626   2.116 -3.1456  0.7932 -0.0989
  970MOL0     H30934   4.208   1.012   3.619 -0.3631  0.0620  0.2007
  970MOL0     H30935   3.994   0.952   3.639  1.5115  4.7713  0.9914
  970MOL0     H30936   3.648   0.687   3.162  1.4234 -2.7169  1.2854
  970MOL0     H30937   3.418   0.679   3.109  1.5996 -0.3859 -0.4652
  970MOL0     H30938   3.226   0.584   3.165 -0.3946  1.4604 -0.9181
  970MOL0     H30939   3.074   0.651   3.190  1.5618 -0.6791 -4.0740
  970MOL0     H30940   3.086   0.620   3.443 -4.3666 -0.2538 -2.2495
  970MOL0     H30941   3.245   0.543   3.420  1.0638  0.3849 -0.9236
  970MOL0     H30942   3.166   0.347   3.358 -1.6842 -2.4289 -1.3494
  970MOL0     H30943   3.047   0.423   3.254  0.0506 -3.1414  0.0341
  970MOL0     H30944   3.007   0.393   3.555 -2.3585 -2.2721  1.0589
  970MOL0     H30945   2.897   0.472   3.437  2.1287  1.8011 -1.0569
  970MOL0     H30946   2.810   0.057   3.418 -0.5408 -0.4058 -2.1821
  970MOL0     H30947   3.314   0.841   3.486 -0.7797  0.9086 -1.1006
  970MOL0     H30948   3.609   0.818   3.642 -1.8168 -1.2078 -0.4494
  970MOL0     H30949   3.643   0.976   3.575  1.2157 -0.5142  0.7651
  970MOL0     H30950   3.481   0.937   3.640  0.1180  1.1519 -0.2693
  971MOL0     O30951  10.710   5.466   5.827 -0.7071  0.2985 -0.4351
  971MOL0     C30952  10.683   5.405   5.724  0.2890  0.7886 -0.5546
  971MOL0     O30953  10.747   5.291   5.667  0.2077 -0.5613  0.2990
  971MOL0     C30954  10.868   5.258   5.728 -0.5618 -0.0077  0.3141
  971MOL0     C30955  10.877   5.196   5.853  0.0389 -0.8111  0.6948
  971MOL0     C30956  10.999   5.187   5.904 -0.8164  0.3886 -0.9581
  971MOL0     C30957  11.120   5.217   5.829  0.4816 -0.0080  0.0123
  971MOL0     O30958  11.240   5.212   5.902  0.1001 -0.3271  0.0291
  971MOL0     C30959  11.363   5.257   5.834 -0.0856 -0.2169 -0.0639
  971MOL0     C30960  11.464   5.302   5.935 -0.0410 -0.3640 -0.2850
  971MOL0     C30961  11.596   5.360   5.875 -0.8082  0.0260 -0.1296
  971MOL0     C30962  11.680   5.422   5.981  0.1687 -0.2256  0.5287
  971MOL0     C30963  11.826   5.437   5.927 -0.3876  0.1298  0.5881
  971MOL0     C30964  11.938   5.507   5.997 -1.0964  0.5982 -0.2321
  971MOL0     C30965  11.922   5.479   6.142 -0.0974 -0.2972 -0.3516
  971MOL0     C30966  12.049   5.529   6.220  0.3273  0.0240  0.3417
  971MOL0     N30967  12.172   5.536   6.138 -0.2559  0.8563  0.1889
  971MOL0     C30968  12.248   5.434   6.079 -0.2227  0.1441 -0.1213
  971MOL0     C30969  12.367   5.494   6.061  0.1730 -0.7615 -0.2309
  971MOL0     C30970  12.482   5.425   5.999 -0.4315  0.1017 -0.5437
  971MOL0     C30971  12.491   5.436   5.851  0.2234 -0.2043 -0.3452
  971MOL0     C30972  12.582   5.324   5.799  0.7769 -0.2454 -0.6672
  971MOL0     C30973  12.590   5.314   5.645 -0.6741  0.6290  0.0959
  971MOL0     O30974  12.483   5.229   5.590 -0.6555  0.2006 -0.2727
  971MOL0     C30975  12.372   5.301   5.568  0.2546  0.6499  0.5129
  971MOL0     C30976  12.361   5.383   5.457  0.3862 -0.4884  0.0971
  971MOL0     C30977  12.231   5.432   5.428  1.1990 -0.8246  0.9527
  971MOL0     C30978  12.122   5.395   5.509 -0.1209 -0.5618  0.2837
  971MOL0     C30979  11.980   5.419   5.469  0.2637  1.1028 -0.8858
  971MOL0     O30980  11.890   5.318   5.504  0.6435  0.2261  0.5536
  971MOL0     C30981  11.757   5.360   5.500 -0.2689  0.5150  0.5145
  971MOL0     C30982  11.707   5.490   5.528  0.6904 -0.4154  0.1319
  971MOL0     C30983  11.567   5.510   5.511  0.5604  0.5922  0.3227
  971MOL0     C30984  11.480   5.414   5.475  0.4122  0.3766  1.0720
  971MOL0     O30985  11.339   5.433   5.478  0.5249  1.0606  0.8204
  971MOL0     C30986  11.272   5.492   5.368  0.0148  0.5347  0.1693
  971MOL0     C30987  11.163   5.587   5.419  0.6577 -0.4947 -0.1408
  971MOL0     C30988  11.224   5.723   5.465 -0.4098  0.0410  0.3405
  971MOL0     C30989  11.283   5.785   5.345 -0.0522 -0.1437  0.8210
  971MOL0     C30990  11.313   5.928   5.374  0.0653 -0.0723 -1.0408
  971MOL0     C30991  11.375   6.015   5.268 -0.2359 -0.3045  0.0853
  971MOL0     C30992  11.492   5.943   5.208 -0.6767 -0.8327  0.5904
  971MOL0     C30993  11.546   6.023   5.090  0.5940  0.7627 -0.2864
  971MOL0    Cl30994  11.599   6.181   5.138 -0.0838 -0.0105  0.2834
  971MOL0     C30995  11.530   5.283   5.465 -0.3426  1.2708  0.4402
  971MOL0     C30996  11.667   5.254   5.475  0.2142  0.9911  0.0182
  971MOL0     O30997  11.960   5.512   5.392  0.2716  0.2588  0.7526
  971MOL0     C30998  12.148   5.323   5.624 -0.3017  1.1598 -0.2672
  971MOL0     C30999  12.276   5.279   5.660 -0.1830  0.1805  0.0639
  971MOL0     N31000  12.366   5.631   6.089 -0.2543  0.1109  0.0364
  971MOL0     N31001  12.241   5.652   6.128  0.4706 -0.1673  0.3636
  971MOL0     C31002  11.106   5.258   5.696  0.3225 -0.7125 -1.3963
  971MOL0     C31003  10.980   5.289   5.648 -0.7654  0.2805 -0.1083
  971MOL0     C31004  10.552   5.436   5.663 -0.1422  0.3864  0.3790
  971MOL0     C31005  10.520   5.374   5.544 -0.2959  0.2604  0.6857
  971MOL0     C31006  10.404   5.390   5.480  0.2067  0.3850  1.4977
  971MOL0     C31007  10.300   5.464   5.525  0.4267 -0.8442  0.3862
  971MOL0     O31008  10.187   5.472   5.450  0.2435 -0.6477 -0.0038
  971MOL0     C31009  10.088   5.567   5.490  0.3556 -0.6603  0.1256
  971MOL0     C31010   9.989   5.574   5.379 -0.6384  0.1404  0.4884
  971MOL0     C31011   9.866   5.672   5.404  0.4973 -0.7459  0.5750
  971MOL0     C31012   9.757   5.625   5.502 -0.4212 -0.1338 -0.6095
  971MOL0     C31013   9.812   5.643   5.643  0.1639  0.5067  0.7284
  971MOL0     C31014   9.845   5.689   5.747 -0.0347 -0.0396  0.5896
  971MOL0     C31015  10.329   5.533   5.649  0.0789 -0.8633 -0.3998
  971MOL0     C31016  10.452   5.517   5.721 -0.7328 -0.7879 -0.4254
  971MOL0     C31017  10.455   5.584   5.859 -0.5458  0.4780 -0.5720
  971MOL0     H31018  10.785   5.162   5.897 -0.6446  0.4562  0.3109
  971MOL0     H31019  11.026   5.170   6.008 -0.5572 -0.2691 -1.1248
  971MOL0     H31020  11.401   5.178   5.769 -1.3346 -0.3453 -0.6768
  971MOL0     H31021  11.337   5.343   5.772 -2.5459 -3.0404 -3.4046
  971MOL0     H31022  11.482   5.213   5.997 -2.1419  0.9784  2.4734
  971MOL0     H31023  11.417   5.371   6.005 -0.3657 -3.5957  2.9611
  971MOL0     H31024  11.568   5.441   5.806 -1.4796 -0.2708 -0.2163
  971MOL0     H31025  11.653   5.279   5.828  0.4264 -0.8079  2.6270
  971MOL0     H31026  11.643   5.522   6.008  0.2155  0.8156 -2.7746
  971MOL0     H31027  11.676   5.361   6.071  0.1754  1.1633  1.5077
  971MOL0     H31028  11.859   5.333   5.914 -0.5817  0.0561  0.6692
  971MOL0     H31029  11.812   5.493   5.834  0.9216  1.8772  1.3856
  971MOL0     H31030  12.031   5.472   5.952 -1.0891 -0.0916  0.3092
  971MOL0     H31031  11.931   5.615   5.980 -1.2074  0.9153  1.6110
  971MOL0     H31032  11.907   5.374   6.165  1.6465 -0.6419 -0.6236
  971MOL0     H31033  11.835   5.536   6.178  0.4638 -1.2510  2.8926
  971MOL0     H31034  12.026   5.632   6.248  1.7949  0.9193 -1.5365
  971MOL0     H31035  12.069   5.473   6.312 -1.9765 -1.4305  0.0433
  971MOL0     H31036  12.229   5.327   6.080 -1.5234  0.3318  1.7629
  971MOL0     H31037  12.571   5.477   6.037 -1.1836  2.5830 -1.9366
  971MOL0     H31038  12.488   5.324   6.039  1.3811  0.6265  0.6451
  971MOL0     H31039  12.399   5.441   5.792  1.5777  0.1864 -2.5411
  971MOL0     H31040  12.535   5.533   5.829 -3.4900  2.0472  1.3305
  971MOL0     H31041  12.551   5.230   5.845  0.0247  0.6308  0.6788
  971MOL0     H31042  12.683   5.355   5.830 -0.1750  0.3387  2.1398
  971MOL0     H31043  12.686   5.267   5.625 -1.5037 -1.6967  1.2405
  971MOL0     H31044  12.582   5.412   5.597 -2.7629  0.2372 -0.4661
  971MOL0     H31045  12.446   5.396   5.391  1.5677 -0.5640  1.5582
  971MOL0     H31046  12.231   5.492   5.337 -0.4884 -1.2648  0.6357
  971MOL0     H31047  11.768   5.577   5.548  2.9248 -1.7677 -0.4200
  971MOL0     H31048  11.525   5.606   5.540 -1.2672  0.2270 -0.8999
  971MOL0     H31049  11.342   5.540   5.299 -1.7542  0.7444 -1.5620
  971MOL0     H31050  11.221   5.409   5.318 -1.3172 -1.6453  4.6332
  971MOL0     H31051  11.085   5.609   5.346 -0.9796 -0.6931  1.4681
  971MOL0     H31052  11.106   5.549   5.505  0.4354  1.7329  0.7633
  971MOL0     H31053  11.148   5.790   5.505 -1.7707 -1.7791  0.9789
  971MOL0     H31054  11.297   5.688   5.539  2.7996  1.6218 -1.8286
  971MOL0     H31055  11.201   5.780   5.273 -2.1915 -1.0249  3.1539
  971MOL0     H31056  11.374   5.735   5.311 -0.2255  1.1329 -1.7136
  971MOL0     H31057  11.382   5.930   5.459  0.0739  0.2289 -1.0552
  971MOL0     H31058  11.223   5.976   5.412 -2.1670 -0.4565 -5.2852
  971MOL0     H31059  11.306   6.057   5.195  2.9086  2.2843 -1.6483
  971MOL0     H31060  11.405   6.106   5.323 -2.6506 -0.5542  2.0367
  971MOL0     H31061  11.458   5.849   5.162  0.8643 -0.9807 -0.3151
  971MOL0     H31062  11.564   5.923   5.288  1.9692 -1.1904 -1.6929
  971MOL0     H31063  11.620   5.972   5.029  0.4002  1.0805 -0.7974
  971MOL0     H31064  11.467   6.043   5.017  2.9022  2.8044 -2.3887
  971MOL0     H31065  11.467   5.195   5.452  1.2210  0.0159  1.0005
  971MOL0     H31066  11.707   5.155   5.455  1.1760  1.6886 -1.7154
  971MOL0     H31067  12.073   5.290   5.695 -0.4160  1.3319 -0.3079
  971MOL0     H31068  12.282   5.207   5.740 -3.4629 -2.0627 -1.4476
  971MOL0     H31069  11.199   5.279   5.645  2.6130  0.1470  2.7077
  971MOL0     H31070  10.975   5.344   5.554 -0.7835  0.4471 -0.0090
  971MOL0     H31071  10.591   5.308   5.495 -0.6496  0.3710  0.0133
  971MOL0     H31072  10.397   5.340   5.383 -0.3344 -0.7853  2.1181
  971MOL0     H31073  10.136   5.663   5.512  0.8043 -1.3910  2.7141
  971MOL0     H31074  10.037   5.529   5.579 -1.2875  0.3174 -0.3642
  971MOL0     H31075   9.945   5.475   5.360  1.2473 -0.8145  0.9160
  971MOL0     H31076  10.034   5.595   5.282 -3.1026 -3.1599 -1.5836
  971MOL0     H31077   9.805   5.696   5.316 -3.4334 -1.1165  2.9570
  971MOL0     H31078   9.906   5.766   5.443 -0.0334 -0.6625  0.9196
  971MOL0     H31079   9.664   5.683   5.494 -1.1435 -0.9508  1.1937
  971MOL0     H31080   9.739   5.518   5.493 -1.1458  0.0909 -2.0929
  971MOL0     H31081   9.891   5.729   5.835  1.9005 -2.8568  0.9637
  971MOL0     H31082  10.252   5.591   5.699  1.8780  1.3439 -0.0412
  971MOL0     H31083  10.354   5.618   5.883 -0.1403  0.0527  2.1441
  971MOL0     H31084  10.477   5.511   5.938  0.2568  0.2700 -0.9735
  971MOL0     H31085  10.528   5.666   5.865  1.3243 -0.6565 -4.4901
  972MOL0     O31086   6.169   8.650  10.415 -0.5737 -0.2818 -0.2357
  972MOL0     C31087   6.150   8.560  10.498 -0.4041  0.3616 -0.2962
  972MOL0     O31088   6.239   8.518  10.589  0.2231 -0.0872 -0.0487
  972MOL0     C31089   6.365   8.565  10.576 -0.1349  1.0635  0.8000
  972MOL0     C31090   6.454   8.509  10.477 -0.5028  0.3448  0.4093
  972MOL0     C31091   6.585   8.559  10.455 -0.6541 -0.7330  0.6215
  972MOL0     C31092   6.639   8.651  10.547 -0.0948 -0.3657 -0.5157
  972MOL0     O31093   6.761   8.705  10.543  0.0415 -0.3124 -0.7812
  972MOL0     C31094   6.858   8.630  10.468  0.5618 -0.0410 -0.8742
  972MOL0     C31095   6.990   8.707  10.471  0.4744 -0.1248  0.5119
  972MOL0     C31096   7.079   8.697  10.591 -0.6980  0.2055  0.0064
  972MOL0     C31097   7.134   8.553  10.610 -1.3710  0.1194 -0.1802
  972MOL0     C31098   7.245   8.546  10.712  0.0812  0.0910 -0.6322
  972MOL0     C31099   7.373   8.622  10.674 -0.0995 -0.1361  0.6538
  972MOL0     C31100   7.483   8.608  10.774 -0.4494  0.1612  0.1328
  972MOL0     C31101   7.610   8.680  10.729  0.1863  0.1603 -0.1203
  972MOL0     N31102   7.713   8.658  10.822 -1.2994 -0.8045 -0.0790
  972MOL0     C31103   7.761   8.538  10.867  0.0281  0.2079 -1.1271
  972MOL0     C31104   7.855   8.564  10.959 -0.3407  0.4201 -0.5943
  972MOL0     C31105   7.922   8.464  11.059  0.3485  0.1686  0.9586
  972MOL0     C31106   8.067   8.496  11.073  0.5884  0.0436  0.1217
  972MOL0     C31107   8.121   8.437  11.201 -0.4763 -0.1348 -0.6315
  972MOL0     C31108   8.276   8.439  11.195 -0.0813 -0.0857  0.0322
  972MOL0     O31109   8.314   8.348  11.089 -0.2455  0.1221 -0.6308
  972MOL0     C31110   8.445   8.302  11.083 -0.0668  0.3464 -0.5617
  972MOL0     C31111   8.559   8.354  11.139  0.3913 -0.0478  1.2129
  972MOL0     C31112   8.692   8.307  11.100  0.4574 -0.4113  0.0607
  972MOL0     C31113   8.708   8.214  10.990 -0.0503  1.2569 -0.6813
  972MOL0     C31114   8.837   8.170  10.932  0.4327 -0.1274 -0.0485
  972MOL0     O31115   8.842   8.152  10.804 -0.1559 -0.4174  0.4298
  972MOL0     C31116   8.963   8.112  10.742  0.8679 -0.4228 -0.1772
  972MOL0     C31117   8.942   8.046  10.625  0.3784  0.8355 -0.1071
  972MOL0     C31118   9.044   8.009  10.545 -0.1201  0.3376  0.5802
  972MOL0     C31119   9.172   8.060  10.573  0.1391 -0.3337  1.2077
  972MOL0     O31120   9.283   8.036  10.491 -0.0354  0.2606  0.0705
  972MOL0     C31121   9.375   7.954  10.565  0.2979 -0.9070 -0.4609
  972MOL0     C31122   9.432   7.850  10.466  0.0184 -1.1644 -0.1023
  972MOL0     C31123   9.559   7.783  10.519  0.3029  0.2530  0.5498
  972MOL0     C31124   9.624   7.704  10.401  0.3044  0.1323 -0.1072
  972MOL0     C31125   9.756   7.639  10.417 -0.5817 -0.8989 -0.0251
  972MOL0     C31126   9.775   7.534  10.311  0.0150  0.3956 -0.4770
  972MOL0     C31127   9.918   7.492  10.302 -0.7661  0.3759  0.0686
  972MOL0     C31128   9.921   7.355  10.233  0.0176  0.0548  0.8942
  972MOL0    Cl31129   9.937   7.225  10.360 -0.1918 -0.2164 -0.3543
  972MOL0     C31130   9.188   8.146  10.685 -0.9083 -0.8167  0.7837
  972MOL0     C31131   9.089   8.166  10.772  1.0246  0.1643  0.1650
  972MOL0     O31132   8.931   8.154  11.013  0.5052  0.8811 -0.1870
  972MOL0     C31133   8.586   8.148  10.942 -0.8110 -0.7469 -1.1705
  972MOL0     C31134   8.465   8.193  10.990  0.1696 -0.9868  0.1209
  972MOL0     N31135   7.866   8.695  10.968  0.2568  0.1908  0.0992
  972MOL0     N31136   7.796   8.756  10.883  0.3296  0.5298 -0.4134
  972MOL0     C31137   6.557   8.694  10.650 -0.7781  0.2280 -0.1104
  972MOL0     C31138   6.423   8.655  10.661 -0.4610 -0.0763  0.1489
  972MOL0     C31139   6.023   8.491  10.498 -0.3126  1.0500 -0.6527
  972MOL0     C31140   6.019   8.349  10.519 -0.5989 -0.8162 -0.0585
  972MOL0     C31141   5.904   8.283  10.523  0.3170 -0.5109  0.6757
  972MOL0     C31142   5.786   8.342  10.493 -0.3189 -0.3116  0.7049
  972MOL0     O31143   5.676   8.259  10.501 -0.4282 -0.3898  0.7068
  972MOL0     C31144   5.564   8.311  10.574  0.4897  0.7362  0.5607
  972MOL0     C31145   5.434   8.301  10.487 -0.3001  0.5073  0.0518
  972MOL0     C31146   5.308   8.358  10.556 -0.4493  0.1287  0.2849
  972MOL0     C31147   5.202   8.382  10.443  0.5489  0.2473 -0.4856
  972MOL0     C31148   5.065   8.382  10.498  0.4135  0.9369 -0.2595
  972MOL0     C31149   4.950   8.378  10.542 -0.6422 -0.8350  1.2675
  972MOL0     C31150   5.787   8.481  10.472 -0.1895 -0.4576 -1.0514
  972MOL0     C31151   5.901   8.557  10.480 -0.0233  0.0044 -0.2882
  972MOL0     C31152   5.884   8.705  10.442 -0.0676  1.0578  0.1805
  972MOL0     H31153   6.422   8.430  10.409  0.2954 -0.5492  1.0423
  972MOL0     H31154   6.636   8.525  10.366  3.4760  0.7981  2.1615
  972MOL0     H31155   6.866   8.528  10.506  0.1019  0.1694 -0.1843
  972MOL0     H31156   6.821   8.614  10.366  2.3988 -0.6214 -1.5078
  972MOL0     H31157   6.973   8.813  10.448  3.0782  0.3169  0.2901
  972MOL0     H31158   7.045   8.666  10.386 -2.0687 -2.5620 -0.1015
  972MOL0     H31159   7.034   8.726  10.686 -0.6812 -0.3836  0.2033
  972MOL0     H31160   7.163   8.765  10.577 -0.0738 -0.0795  1.9930
  972MOL0     H31161   7.062   8.480  10.649  0.2937  0.0405  3.0729
  972MOL0     H31162   7.182   8.521  10.517  0.1675  0.3556  0.4993
  972MOL0     H31163   7.211   8.572  10.812  0.6200 -0.1439 -0.3858
  972MOL0     H31164   7.263   8.438  10.716  1.3824  0.1106 -3.3914
  972MOL0     H31165   7.404   8.590  10.573 -0.3927  0.7920  0.2632
  972MOL0     H31166   7.357   8.730  10.671  0.6307  0.1042  3.1063
  972MOL0     H31167   7.507   8.505  10.804 -2.7212  0.9517  6.2012
  972MOL0     H31168   7.440   8.651  10.865  0.7838 -1.2940  1.4696
  972MOL0     H31169   7.636   8.653  10.626 -3.0386 -0.6373 -0.8356
  972MOL0     H31170   7.593   8.786  10.750  0.8122  0.3701 -0.6567
  972MOL0     H31171   7.730   8.435  10.855  2.9414 -1.0417  0.9080
  972MOL0     H31172   7.865   8.485  11.150  1.3343 -0.0397  1.6438
  972MOL0     H31173   7.919   8.359  11.032  5.3418  0.3220 -1.3393
  972MOL0     H31174   8.126   8.457  10.990  1.4836 -0.5695  1.0162
  972MOL0     H31175   8.081   8.603  11.087 -1.1222  0.2662  0.2560
  972MOL0     H31176   8.098   8.331  11.201  0.8858 -0.5424 -3.5964
  972MOL0     H31177   8.082   8.494  11.286  0.0608 -0.6791 -0.0204
  972MOL0     H31178   8.320   8.399  11.287  1.2619 -0.1636 -0.6180
  972MOL0     H31179   8.311   8.541  11.174 -0.6913 -0.1261 -1.3214
  972MOL0     H31180   8.548   8.423  11.222  1.2234  0.7450  0.6758
  972MOL0     H31181   8.786   8.346  11.138  0.1950  0.3960 -0.0960
  972MOL0     H31182   8.839   8.023  10.602  1.2082 -1.4447 -1.9718
  972MOL0     H31183   9.023   7.952  10.455  0.8617  1.0994 -0.1508
  972MOL0     H31184   9.452   8.011  10.620 -1.0343  2.2090 -1.6127
  972MOL0     H31185   9.319   7.900  10.643 -0.3747  0.2886 -0.0983
  972MOL0     H31186   9.357   7.772  10.451  1.4477 -2.9987  1.8372
  972MOL0     H31187   9.454   7.904  10.373  0.1304 -3.0211 -1.1885
  972MOL0     H31188   9.628   7.858  10.561  1.5560 -0.6644  0.1973
  972MOL0     H31189   9.540   7.714  10.602  3.3663 -1.6949 -0.1998
  972MOL0     H31190   9.635   7.766  10.312  0.9159 -0.4578 -0.4494
  972MOL0     H31191   9.552   7.624  10.382  0.4596 -0.1422  0.4490
  972MOL0     H31192   9.758   7.585  10.513 -2.9676 -0.5266  0.2977
  972MOL0     H31193   9.830   7.719  10.417 -1.1064 -0.4017 -1.0453
  972MOL0     H31194   9.716   7.447  10.341  0.8524  1.1461  4.1304
  972MOL0     H31195   9.745   7.573  10.214  2.2082  0.4767 -1.1707
  972MOL0     H31196   9.965   7.495  10.401  0.0430 -0.1111 -0.2879
  972MOL0     H31197   9.964   7.573  10.246 -1.4092  0.6134 -0.1198
  972MOL0     H31198   9.827   7.343  10.177  1.2664 -3.2432 -0.7507
  972MOL0     H31199  10.000   7.346  10.158  0.6839  0.5070  1.5323
  972MOL0     H31200   9.286   8.193  10.695 -1.4388  0.0926  1.9848
  972MOL0     H31201   9.110   8.223  10.862  1.9887 -1.8534  1.2977
  972MOL0     H31202   8.597   8.067  10.869  4.0869 -2.6526  1.1866
  972MOL0     H31203   8.370   8.148  10.962 -1.6501  3.2897 -1.3263
  972MOL0     H31204   6.588   8.767  10.724 -1.3742  0.3372  0.0397
  972MOL0     H31205   6.366   8.681  10.749  1.8377 -0.4321  1.8540
  972MOL0     H31206   6.118   8.304  10.523 -0.3216 -0.2400 -0.3765
  972MOL0     H31207   5.890   8.177  10.544 -0.0404 -0.4260  0.8872
  972MOL0     H31208   5.581   8.418  10.590 -2.1058  1.1255  1.1701
  972MOL0     H31209   5.555   8.270  10.675 -0.4832  2.0753  1.0489
  972MOL0     H31210   5.410   8.195  10.494 -2.7504  1.0132  0.2679
  972MOL0     H31211   5.454   8.343  10.388  0.7473  0.9587  0.4377
  972MOL0     H31212   5.336   8.450  10.608  0.4749 -1.0746  2.0242
  972MOL0     H31213   5.264   8.296  10.634 -0.7417 -0.8277 -0.6171
  972MOL0     H31214   5.214   8.485  10.407  0.2424  0.0434 -1.1823
  972MOL0     H31215   5.211   8.316  10.357  2.6581 -1.7580  1.1160
  972MOL0     H31216   4.857   8.365  10.594  0.2282 -3.3460  2.3427
  972MOL0     H31217   5.695   8.535  10.452 -0.1448  0.9247  1.9210
  972MOL0     H31218   5.938   8.746  10.357 -3.2568  4.0237 -0.6531
  972MOL0     H31219   5.781   8.728  10.414 -0.5860 -2.1874 -0.9855
  972MOL0     H31220   5.903   8.756  10.537  1.0599 -1.2937  1.3020
  973MOL0     O31221   5.375   4.574   2.928 -0.3666 -0.0823 -0.6514
  973MOL0     C31222   5.302   4.520   3.010 -0.2417 -0.8624  1.3456
  973MOL0     O31223   5.336   4.480   3.130 -0.0301 -0.1501 -0.5098
  973MOL0     C31224   5.463   4.459   3.175 -0.8366 -0.0896 -0.0947
  973MOL0     C31225   5.587   4.469   3.110 -0.4569  0.3664 -0.0208
  973MOL0     C31226   5.711   4.425   3.166 -1.5191 -0.8452  0.2843
  973MOL0     C31227   5.716   4.382   3.294 -0.8325  0.5710  0.4383
  973MOL0     O31228   5.835   4.368   3.363  0.1799  0.1148  0.3350
  973MOL0     C31229   5.958   4.365   3.294 -0.4275  0.1830  0.3045
  973MOL0     C31230   6.071   4.334   3.398  1.1605 -0.4281  0.9052
  973MOL0     C31231   6.215   4.351   3.347 -0.9536  0.1490  0.4714
  973MOL0     C31232   6.308   4.239   3.417  0.5010 -0.0817 -0.2433
  973MOL0     C31233   6.304   4.107   3.345 -0.0611  0.1579 -0.0693
  973MOL0     C31234   6.356   4.096   3.201 -0.8758 -0.2673 -0.8872
  973MOL0     C31235   6.405   3.962   3.165  0.2539  0.1540  0.5046
  973MOL0     C31236   6.466   3.960   3.027 -0.2611 -0.1699  0.6552
  973MOL0     N31237   6.503   3.826   2.988 -0.5879  0.1010  0.9461
  973MOL0     C31238   6.563   3.721   3.055 -0.6115 -0.4306  0.4860
  973MOL0     C31239   6.561   3.612   2.980 -0.0795 -0.0542  0.8068
  973MOL0     C31240   6.614   3.477   3.020 -0.2924  0.7460  0.0707
  973MOL0     C31241   6.767   3.478   2.982 -0.7263  0.3167 -0.0470
  973MOL0     C31242   6.828   3.334   3.018  0.4623  0.0952 -0.3846
  973MOL0     C31243   6.982   3.337   3.029 -0.0412  0.9632  0.1676
  973MOL0     O31244   7.034   3.215   2.984 -0.1393  0.9296  0.8059
  973MOL0     C31245   7.166   3.202   2.953  0.5432  0.3769  0.3324
  973MOL0     C31246   7.225   3.072   2.951  0.0456  0.0070 -0.7059
  973MOL0     C31247   7.359   3.049   2.923  0.2344 -0.6062 -0.4177
  973MOL0     C31248   7.455   3.152   2.890  0.6076  0.1692 -0.2824
  973MOL0     C31249   7.594   3.119   2.871 -0.7614  0.0120  0.4395
  973MOL0     O31250   7.674   3.224   2.856 -0.4022 -0.6179 -0.4402
  973MOL0     C31251   7.813   3.209   2.847  0.4043  1.5851 -0.6586
  973MOL0     C31252   7.881   3.171   2.962 -0.5136 -0.5519 -0.8876
  973MOL0     C31253   8.010   3.123   2.954 -0.0209  0.2355 -0.1260
  973MOL0     C31254   8.077   3.116   2.832 -0.0775  0.6301  1.3975
  973MOL0     O31255   8.209   3.082   2.823 -0.2041  0.2822  0.0107
  973MOL0     C31256   8.240   3.009   2.706 -0.2544  0.1192  0.2837
  973MOL0     C31257   8.331   2.887   2.725  0.1430  0.0546  0.2557
  973MOL0     C31258   8.469   2.945   2.751  0.1239 -1.0585  0.0816
  973MOL0     C31259   8.558   2.842   2.818  0.1393  0.2864  0.2724
  973MOL0     C31260   8.678   2.915   2.881  0.0969  1.2517 -0.3396
  973MOL0     C31261   8.625   2.955   3.022  0.9641  0.2136 -0.0272
  973MOL0     C31262   8.738   3.004   3.112  0.1992 -0.0439  0.1807
  973MOL0     C31263   8.674   3.030   3.254 -0.0671  0.2115  0.5293
  973MOL0    Cl31264   8.814   3.089   3.355  0.0152 -0.5088  0.0387
  973MOL0     C31265   8.014   3.180   2.717 -0.2326 -0.2335  0.3614
  973MOL0     C31266   7.878   3.209   2.724  0.3272 -0.4873 -0.0643
  973MOL0     O31267   7.628   3.003   2.863  0.4168  0.2378  0.3973
  973MOL0     C31268   7.399   3.281   2.901 -0.7653  0.4138  0.5189
  973MOL0     C31269   7.260   3.309   2.927  0.1318 -0.1705 -1.1790
  973MOL0     N31270   6.524   3.652   2.857  0.0198 -0.0929  0.0649
  973MOL0     N31271   6.492   3.776   2.864  0.6611 -0.0689  1.0790
  973MOL0     C31272   5.598   4.375   3.365 -0.0379  0.0151 -0.4092
  973MOL0     C31273   5.471   4.403   3.308 -0.1528 -0.1454 -0.2960
  973MOL0     C31274   5.151   4.513   2.987 -0.3827  1.3208 -0.4934
  973MOL0     C31275   5.070   4.492   3.107 -0.5768 -0.9697 -0.2176
  973MOL0     C31276   4.931   4.475   3.104  0.0122 -0.4182  0.0500
  973MOL0     C31277   4.864   4.480   2.977 -0.6086  0.7081 -0.7038
  973MOL0     O31278   4.725   4.474   2.962 -0.2138  0.8817 -0.2009
  973MOL0     C31279   4.644   4.435   3.074 -0.2201 -0.4702 -1.1509
  973MOL0     C31280   4.495   4.441   3.041  0.6378  0.6963  0.0859
  973MOL0     C31281   4.405   4.439   3.170 -0.1730  0.1677  0.6097
  973MOL0     C31282   4.263   4.481   3.132  0.0680  0.3531  0.7858
  973MOL0     C31283   4.189   4.373   3.062  0.1031 -0.2028  0.4215
  973MOL0     C31284   4.135   4.289   2.998 -0.6520 -0.1676  0.2390
  973MOL0     C31285   4.942   4.502   2.862 -0.3844  0.2440 -0.0050
  973MOL0     C31286   5.080   4.516   2.870  0.2955 -0.2096  0.3248
  973MOL0     C31287   5.156   4.544   2.742  0.0503  0.9255  0.1548
  973MOL0     H31288   5.607   4.500   3.008  1.9033  0.2932  0.3473
  973MOL0     H31289   5.804   4.432   3.109 -1.4890 -3.6984 -0.1607
  973MOL0     H31290   5.954   4.282   3.223  1.6469  0.0250  0.3230
  973MOL0     H31291   5.995   4.457   3.248  1.2300 -0.5023  0.2131
  973MOL0     H31292   6.039   4.234   3.428 -2.8599  1.4032  3.5824
  973MOL0     H31293   6.052   4.397   3.486  1.2797 -0.7896  1.1910
  973MOL0     H31294   6.257   4.448   3.375 -0.4723 -0.2150  1.0401
  973MOL0     H31295   6.217   4.351   3.238 -0.5289  2.8812  0.4298
  973MOL0     H31296   6.409   4.279   3.425  1.0608 -1.5740  0.5074
  973MOL0     H31297   6.265   4.227   3.517 -2.7656  2.1397 -1.2114
  973MOL0     H31298   6.360   4.032   3.403  0.1662 -0.8953 -1.5765
  973MOL0     H31299   6.206   4.060   3.357  0.8932 -1.6149  1.3767
  973MOL0     H31300   6.281   4.116   3.123  0.4482 -2.2010 -2.7389
  973MOL0     H31301   6.434   4.171   3.182  0.7129 -2.1045 -1.9540
  973MOL0     H31302   6.325   3.888   3.170  1.4872 -1.2818 -0.1581
  973MOL0     H31303   6.474   3.927   3.242 -2.5573 -1.6993  2.3496
  973MOL0     H31304   6.389   4.000   2.960 -1.3451 -1.9940  0.7483
  973MOL0     H31305   6.551   4.028   3.033  0.1795 -0.8304  3.4932
  973MOL0     H31306   6.597   3.733   3.158 -1.3003 -0.5084  0.7286
  973MOL0     H31307   6.591   3.460   3.125 -0.0445  0.8139  0.1357
  973MOL0     H31308   6.561   3.403   2.960 -0.5611  0.8532  0.1764
  973MOL0     H31309   6.770   3.487   2.873  0.4701  1.1857  0.0351
  973MOL0     H31310   6.832   3.554   3.027 -1.6066 -0.5069  2.8261
  973MOL0     H31311   6.798   3.258   2.946  2.2709 -0.4300 -0.6305
  973MOL0     H31312   6.793   3.306   3.118  4.4748 -1.6710  0.7286
  973MOL0     H31313   7.003   3.348   3.136 -0.3425  0.7620  0.2491
  973MOL0     H31314   7.016   3.425   2.973 -4.0408  2.5046 -0.2436
  973MOL0     H31315   7.153   2.993   2.970  1.3673 -2.0292 -3.4732
  973MOL0     H31316   7.396   2.947   2.922  0.9469 -0.3652 -1.3379
  973MOL0     H31317   7.833   3.180   3.059  1.0057  0.5074 -0.1961
  973MOL0     H31318   8.056   3.087   3.045 -0.9811 -1.4833 -0.2714
  973MOL0     H31319   8.148   2.974   2.658  0.9714 -0.0373 -2.0958
  973MOL0     H31320   8.293   3.072   2.635  1.8742  0.0907  1.7594
  973MOL0     H31321   8.295   2.831   2.812 -0.6949  0.0730 -0.0711
  973MOL0     H31322   8.326   2.830   2.632  0.1461 -1.8519  1.3529
  973MOL0     H31323   8.519   2.970   2.656 -0.3128  0.0087  0.1236
  973MOL0     H31324   8.472   3.033   2.815  2.9083 -1.0247  0.0020
  973MOL0     H31325   8.588   2.763   2.748 -2.9960 -1.2500  0.4584
  973MOL0     H31326   8.498   2.790   2.894 -0.2713 -0.7145 -0.7024
  973MOL0     H31327   8.714   3.000   2.823 -0.8627  1.6805 -0.3222
  973MOL0     H31328   8.762   2.847   2.897  0.5455  0.9290 -3.5376
  973MOL0     H31329   8.547   3.032   3.015 -1.1926 -1.8772 -0.2044
  973MOL0     H31330   8.568   2.874   3.068  0.3690  0.8314  0.3578
  973MOL0     H31331   8.781   3.097   3.074 -0.9420  0.9553  1.2703
  973MOL0     H31332   8.816   2.927   3.116  0.7474  0.2417 -2.5436
  973MOL0     H31333   8.598   3.108   3.243  0.8577  1.3320  1.8713
  973MOL0     H31334   8.639   2.935   3.296 -0.3731 -0.0395 -0.2717
  973MOL0     H31335   8.062   3.208   2.624 -1.1728 -0.0452 -0.0792
  973MOL0     H31336   7.819   3.262   2.649 -1.3800 -1.2435  0.6973
  973MOL0     H31337   7.459   3.371   2.897  0.2995 -0.1719  2.0869
  973MOL0     H31338   7.224   3.410   2.939 -1.5319 -0.9504  1.1124
  973MOL0     H31339   5.598   4.358   3.472  0.5390  2.5995  0.0649
  973MOL0     H31340   5.380   4.373   3.361 -0.2528 -2.0126 -1.4537
  973MOL0     H31341   5.129   4.480   3.198  0.2987 -0.6711 -0.7396
  973MOL0     H31342   4.877   4.452   3.195 -0.6123 -1.8715 -0.6482
  973MOL0     H31343   4.674   4.497   3.160  0.6163  1.5991 -2.8379
  973MOL0     H31344   4.669   4.333   3.105  3.0488  0.5179 -0.0640
  973MOL0     H31345   4.471   4.351   2.985 -1.3331  1.5570 -0.5457
  973MOL0     H31346   4.466   4.527   2.980 -1.8486  0.1324  0.3470
  973MOL0     H31347   4.433   4.516   3.243 -0.7462  1.6561 -0.6746
  973MOL0     H31348   4.399   4.340   3.217  0.5226 -1.9050 -3.2670
  973MOL0     H31349   4.206   4.524   3.215 -0.1173  1.3510  0.1616
  973MOL0     H31350   4.274   4.570   3.069  2.4101 -2.1418 -2.6781
  973MOL0     H31351   4.081   4.214   2.943  0.7827 -0.0660 -1.3651
  973MOL0     H31352   4.890   4.504   2.767  3.1059  2.2116 -2.1269
  973MOL0     H31353   5.247   4.483   2.726 -1.0111 -0.5224 -0.6463
  973MOL0     H31354   5.103   4.518   2.650  1.3473  0.6571 -0.5499
  973MOL0     H31355   5.176   4.651   2.733 -0.0051  0.7780 -3.0420
  974MOL0     O31356   9.753   0.058   3.105  0.3560 -0.1555  0.3434
  974MOL0     C31357   9.698   0.109   3.202  0.7132 -0.6650 -0.1656
  974MOL0     O31358   9.762   0.142   3.319  0.2104 -0.1687 -0.8133
  974MOL0     C31359   9.900   0.137   3.312  0.5602 -0.1944 -0.1474
  974MOL0     C31360   9.969   0.261   3.291  0.4430 -0.1745 -0.0157
  974MOL0     C31361  10.111   0.268   3.281  0.6728  0.4820  0.3536
  974MOL0     C31362  10.183   0.153   3.320 -0.2340  0.8343 -0.8625
  974MOL0     O31363  10.319   0.156   3.307  0.3551  0.1458 -0.2842
  974MOL0     C31364  10.379   0.181   3.439 -0.0242 -0.3147  0.6856
  974MOL0     C31365  10.512   0.238   3.420 -0.3234  0.5499 -0.7228
  974MOL0     C31366  10.587   0.250   3.547  0.2447 -0.8843  0.8457
  974MOL0     C31367  10.720   0.320   3.528 -0.3679 -0.1692  0.5244
  974MOL0     C31368  10.819   0.295   3.637 -0.0556  0.8330  0.6838
  974MOL0     C31369  10.968   0.303   3.592 -1.0253 -0.2337 -0.5474
  974MOL0     C31370  11.064   0.256   3.704 -0.2896 -0.0638  0.0669
  974MOL0     C31371  11.176   0.160   3.670  0.4578 -0.6323  0.3737
  974MOL0     N31372  11.258   0.109   3.779  0.7740  0.0170  0.3232
  974MOL0     C31373  11.396   0.102   3.774 -0.3647 -0.1397  0.1875
  974MOL0     C31374  11.422   0.030   3.887 -0.6065  0.2968  0.2453
  974MOL0     C31375  11.549  -0.035   3.926  0.1867  0.3477  0.0926
  974MOL0     C31376  11.593   0.027   4.060  0.6621  0.4401 -0.1254
  974MOL0     C31377  11.617   0.167   4.059 -0.5576  0.7026 -0.0398
  974MOL0     C31378  11.739   0.198   4.152 -0.3397  0.1208  0.0745
  974MOL0     O31379  11.788   0.338   4.124  0.0934 -0.0713  0.3125
  974MOL0     C31380  11.857   0.389   4.232 -0.0989  0.1018 -0.2879
  974MOL0     C31381  11.945   0.315   4.314 -0.6220 -0.7580  0.1174
  974MOL0     C31382  12.007   0.385   4.416 -0.2504 -0.4730 -0.0591
  974MOL0     C31383  11.991   0.528   4.440  0.0870 -0.2543 -0.8870
  974MOL0     C31384  12.087   0.603   4.525 -0.5942 -0.2285 -0.3033
  974MOL0     O31385  12.105   0.736   4.503 -1.1123  0.8974  0.6799
  974MOL0     C31386  12.199   0.812   4.568 -0.1820 -0.5326 -0.0828
  974MOL0     C31387  12.261   0.912   4.494 -1.5866 -0.0264  0.1130
  974MOL0     C31388  12.366   0.989   4.542 -0.5907 -0.4135  0.0111
  974MOL0     C31389  12.403   0.977   4.676 -0.8453 -0.3194 -0.3836
  974MOL0     O31390  12.500   1.072   4.727 -0.3684 -0.0120  0.1349
  974MOL0     C31391  12.632   1.017   4.756  0.3718 -0.5187 -0.4629
  974MOL0     C31392  12.730   1.094   4.673 -0.2789 -0.4485  0.4497
  974MOL0     C31393  12.875   1.054   4.686 -0.8644 -0.2877  0.7413
  974MOL0     C31394  12.927   1.051   4.831  0.0139  0.1735 -0.3077
  974MOL0     C31395  13.070   1.005   4.832  0.6521  1.0647  0.2022
  974MOL0     C31396  13.135   1.024   4.962 -0.3786  0.6151  0.3287
  974MOL0     C31397  13.280   0.966   4.947  0.1096  0.6343 -0.7429
  974MOL0     C31398  13.286   0.817   4.967 -1.1901 -0.0136  0.4755
  974MOL0    Cl31399  13.453   0.747   4.939  0.4103 -0.1840 -0.0898
  974MOL0     C31400  12.343   0.878   4.749 -0.1020 -0.1332 -0.3381
  974MOL0     C31401  12.248   0.791   4.693  0.3502  0.3952 -0.0315
  974MOL0     O31402  12.161   0.540   4.598 -0.4939  0.8700 -0.1847
  974MOL0     C31403  11.890   0.587   4.366  0.2716 -0.7573  0.3461
  974MOL0     C31404  11.820   0.517   4.265 -0.8634  0.6650  0.7113
  974MOL0     N31405  11.302   0.020   3.954 -0.1635 -0.1838  0.4398
  974MOL0     N31406  11.210   0.069   3.896  0.5119 -0.8970  0.6528
  974MOL0     C31407  10.111   0.031   3.359  0.7802  0.3247  0.3795
  974MOL0     C31408   9.974   0.017   3.340  0.6762 -0.3259  0.3312
  974MOL0     C31409   9.557   0.144   3.189  0.1750  0.3373  0.2007
  974MOL0     C31410   9.492   0.085   3.072 -0.0768 -1.4306  0.2811
  974MOL0     C31411   9.353   0.114   3.055  0.1055 -0.3138  0.7023
  974MOL0     C31412   9.278   0.199   3.139 -0.2793 -0.1240 -0.1371
  974MOL0     O31413   9.154   0.245   3.116 -0.4592  0.6251  0.2837
  974MOL0     C31414   9.070   0.150   3.045 -0.7167 -0.8076  0.1918
  974MOL0     C31415   8.924   0.172   3.074 -0.4606 -0.2645 -0.1638
  974MOL0     C31416   8.872   0.119   3.211  0.8063  0.0843  0.4408
  974MOL0     C31417   8.882   0.207   3.336 -0.0356  0.5525  0.3410
  974MOL0     C31418   9.010   0.183   3.413  0.5791  0.4394  0.6175
  974MOL0     C31419   9.109   0.178   3.477 -0.5059 -0.0895  0.5168
  974MOL0     C31420   9.342   0.273   3.236 -1.3901 -0.0366 -0.3758
  974MOL0     C31421   9.482   0.254   3.261  0.0221  0.5763  0.0535
  974MOL0     C31422   9.559   0.343   3.358  0.6962  0.2693  1.1525
  974MOL0     H31423   9.903   0.346   3.277  1.0692  0.4071  0.4706
  974MOL0     H31424  10.169   0.358   3.261 -2.4961  2.8748  1.1290
  974MOL0     H31425  10.310   0.244   3.496  0.5344  0.1740  0.8258
  974MOL0     H31426  10.386   0.084   3.490 -0.7838 -1.6918 -1.6681
  974MOL0     H31427  10.521   0.330   3.361  0.7992  1.1596  0.3612
  974MOL0     H31428  10.563   0.168   3.352  0.3831 -1.0916  1.3847
  974MOL0     H31429  10.620   0.153   3.586  3.4673 -0.0518  0.4348
  974MOL0     H31430  10.529   0.305   3.622  0.2401  1.2629 -0.6490
  974MOL0     H31431  10.768   0.280   3.438  0.3583  1.5283  0.1143
  974MOL0     H31432  10.709   0.428   3.513 -1.7735 -0.1602  1.5013
  974MOL0     H31433  10.791   0.356   3.724  1.4640  1.0464  1.0420
  974MOL0     H31434  10.808   0.189   3.659  0.4266  0.3537 -1.2413
  974MOL0     H31435  11.000   0.229   3.518  3.5603  0.2501  0.6693
  974MOL0     H31436  10.993   0.403   3.553  3.2250 -1.1758 -0.7799
  974MOL0     H31437  10.997   0.201   3.771 -1.3622  0.8458 -0.2474
  974MOL0     H31438  11.106   0.344   3.753 -1.4614  0.4810  0.1232
  974MOL0     H31439  11.120   0.069   3.645 -0.8567 -0.2823  1.8183
  974MOL0     H31440  11.231   0.201   3.585 -2.0202  1.9027 -0.1560
  974MOL0     H31441  11.459   0.117   3.687 -0.6851 -2.9877 -0.6145
  974MOL0     H31442  11.548  -0.144   3.927 -3.2759  0.2432 -0.9625
  974MOL0     H31443  11.624  -0.009   3.851  0.1515 -3.4658 -1.4488
  974MOL0     H31444  11.521  -0.009   4.134  0.2522  1.4893 -0.0094
  974MOL0     H31445  11.686  -0.028   4.078  0.0596 -1.8993 -3.2389
  974MOL0     H31446  11.531   0.226   4.093  0.4007  1.4169  1.2618
  974MOL0     H31447  11.643   0.200   3.958 -1.7228  1.0485 -0.2433
  974MOL0     H31448  11.817   0.122   4.139 -0.4088  0.1045 -0.2740
  974MOL0     H31449  11.713   0.190   4.258  2.0617 -1.7508  0.6238
  974MOL0     H31450  11.944   0.208   4.296 -0.6906 -0.2905 -3.5375
  974MOL0     H31451  12.075   0.328   4.479  1.3214 -3.8022 -4.2728
  974MOL0     H31452  12.218   0.932   4.396 -2.7158 -3.2949 -0.2018
  974MOL0     H31453  12.417   1.065   4.483 -2.0210  1.6586  1.2994
  974MOL0     H31454  12.642   1.037   4.863  3.0106 -1.9333 -0.3808
  974MOL0     H31455  12.632   0.908   4.748 -0.1905 -0.6681  1.1678
  974MOL0     H31456  12.697   1.071   4.571  0.5171  1.3588 -0.2498
  974MOL0     H31457  12.721   1.201   4.691 -1.6493 -0.4960  0.1588
  974MOL0     H31458  12.903   0.958   4.641  0.0705 -0.6158  1.9505
  974MOL0     H31459  12.943   1.114   4.625  1.7227 -1.4604  2.2753
  974MOL0     H31460  12.859   1.001   4.901 -2.0536  1.6603 -1.1413
  974MOL0     H31461  12.920   1.152   4.872 -2.6943  1.3263 -3.1749
  974MOL0     H31462  13.127   1.059   4.757 -1.6382  0.9536 -1.7387
  974MOL0     H31463  13.061   0.898   4.808 -1.6861  0.8648  1.6364
  974MOL0     H31464  13.149   1.132   4.976  0.3916  0.7350 -1.1032
  974MOL0     H31465  13.090   0.978   5.050 -1.5606  1.2243  0.0684
  974MOL0     H31466  13.341   1.009   5.027  0.9875 -3.4662  1.0560
  974MOL0     H31467  13.316   0.992   4.847 -1.5162  2.3127 -0.9228
  974MOL0     H31468  13.264   0.786   5.069  1.8851 -1.4653  0.8090
  974MOL0     H31469  13.216   0.763   4.903  0.5047 -0.1819 -1.3535
  974MOL0     H31470  12.381   0.865   4.850  1.3671 -0.2634 -0.8933
  974MOL0     H31471  12.232   0.714   4.768  1.2329  2.3083  2.2566
  974MOL0     H31472  11.875   0.693   4.384  2.1044 -0.2750 -0.6976
  974MOL0     H31473  11.756   0.567   4.193 -0.2371 -1.9444 -1.8467
  974MOL0     H31474  10.162  -0.060   3.388  0.4153  0.3476  1.0911
  974MOL0     H31475   9.917  -0.067   3.379 -1.3221  0.4451 -0.7720
  974MOL0     H31476   9.556   0.018   3.016  3.8701  2.1764 -0.0169
  974MOL0     H31477   9.308   0.075   2.964 -0.1524 -0.5584  0.9325
  974MOL0     H31478   9.104   0.049   3.070  3.0658 -0.1024 -1.4717
  974MOL0     H31479   9.084   0.155   2.936  2.0022 -0.2115  0.4954
  974MOL0     H31480   8.859   0.130   2.997 -1.2168 -0.0658  0.3624
  974MOL0     H31481   8.919   0.282   3.076  0.7129 -0.1867 -0.6991
  974MOL0     H31482   8.914   0.022   3.238 -0.2213  0.1494  2.4986
  974MOL0     H31483   8.764   0.110   3.199 -0.0564  3.5731  3.6671
  974MOL0     H31484   8.862   0.309   3.304 -3.3945  0.1401  0.8187
  974MOL0     H31485   8.799   0.177   3.401 -1.4430  0.9391 -1.2215
  974MOL0     H31486   9.200   0.172   3.532 -1.7656  1.1692  2.8786
  974MOL0     H31487   9.296   0.358   3.285  0.4418  0.0849  1.2788
  974MOL0     H31488   9.546   0.307   3.460 -1.5470  0.0046  0.8056
  974MOL0     H31489   9.669   0.347   3.351  0.8627  1.9917  3.5446
  974MOL0     H31490   9.517   0.444   3.357 -0.5393 -0.2360  0.3654
  975MOL0     O31491   0.280   7.855   0.281  0.5933 -0.6107  0.6490
  975MOL0     C31492   0.276   7.974   0.312 -0.3301 -1.0953  0.1753
  975MOL0     O31493   0.386   8.049   0.350  0.4212  0.0205 -0.6425
  975MOL0     C31494   0.509   7.984   0.356  0.3170  0.2533 -0.3720
  975MOL0     C31495   0.573   7.968   0.480  0.6867 -0.1473 -0.2609
  975MOL0     C31496   0.691   7.908   0.491 -0.3565 -0.0943 -1.0906
  975MOL0     C31497   0.755   7.841   0.391 -1.1727 -0.2872 -0.2657
  975MOL0     O31498   0.874   7.772   0.411  0.1053  0.0876  0.1470
  975MOL0     C31499   0.938   7.729   0.294 -0.5397 -0.1707  0.3297
  975MOL0     C31500   1.054   7.636   0.324 -0.6842  0.6770 -0.1381
  975MOL0     C31501   1.162   7.700   0.408 -1.4657 -0.6227 -1.3856
  975MOL0     C31502   1.253   7.797   0.325  0.3476 -0.5962 -0.1234
  975MOL0     C31503   1.344   7.718   0.223  0.6119 -0.3455  0.1711
  975MOL0     C31504   1.451   7.621   0.288  0.8846  0.3110  0.7768
  975MOL0     C31505   1.544   7.683   0.396  1.3439  0.1250  0.4332
  975MOL0     C31506   1.656   7.589   0.431  0.4450  0.3817  0.1273
  975MOL0     N31507   1.770   7.620   0.346 -0.0668  0.2571 -0.1231
  975MOL0     C31508   1.868   7.714   0.368 -0.0398  0.5091  0.2769
  975MOL0     C31509   1.959   7.693   0.270  0.8560  0.5359 -1.1275
  975MOL0     C31510   2.079   7.783   0.243  0.4294 -0.6872 -0.3937
  975MOL0     C31511   2.181   7.723   0.152  0.4380 -0.0274  0.1400
  975MOL0     C31512   2.295   7.824   0.135  0.5504  0.0545 -0.3592
  975MOL0     C31513   2.410   7.763   0.050 -0.7966  0.3702  0.0751
  975MOL0     O31514   2.471   7.856  -0.031  0.1501 -0.1069 -0.6738
  975MOL0     C31515   2.563   7.828  -0.131  0.3302  0.8165  0.2759
  975MOL0     C31516   2.612   7.699  -0.170 -0.3864  0.5563  0.2698
  975MOL0     C31517   2.720   7.685  -0.260 -0.0938 -1.0170 -0.6482
  975MOL0     C31518   2.784   7.794  -0.325 -0.0523 -0.3645 -0.2268
  975MOL0     C31519   2.893   7.779  -0.423 -0.4290  0.0697 -0.0126
  975MOL0     O31520   2.981   7.886  -0.437  0.2339 -0.6466  0.2729
  975MOL0     C31521   3.086   7.889  -0.524 -1.3552  0.6142  0.8388
  975MOL0     C31522   3.093   7.823  -0.649 -0.4751 -0.7428  1.7571
  975MOL0     C31523   3.211   7.840  -0.725  0.8568  0.1130 -0.1049
  975MOL0     C31524   3.313   7.934  -0.684 -0.0851 -0.4942  0.2313
  975MOL0     O31525   3.417   7.972  -0.759 -0.4177 -0.3871  0.2267
  975MOL0     C31526   3.455   7.894  -0.875 -0.2165 -0.6382  0.3863
  975MOL0     C31527   3.584   7.940  -0.936  0.3351 -0.5722  0.1220
  975MOL0     C31528   3.701   7.932  -0.839  0.6370 -0.4776  0.6647
  975MOL0     C31529   3.828   7.992  -0.898 -1.5734 -0.0493  0.2832
  975MOL0     C31530   3.939   8.023  -0.800  0.0193 -0.2394  0.2713
  975MOL0     C31531   3.998   7.894  -0.749  0.8460  0.1813  0.4852
  975MOL0     C31532   4.120   7.915  -0.670  0.4454  0.4689 -0.3761
  975MOL0     C31533   4.204   7.784  -0.669 -0.4761 -0.6030  0.2666
  975MOL0    Cl31534   4.360   7.818  -0.579  0.0314  0.1237  0.1354
  975MOL0     C31535   3.305   7.994  -0.562 -0.2605  0.3075 -0.5334
  975MOL0     C31536   3.195   7.965  -0.478 -0.0828 -0.7930  0.3891
  975MOL0     O31537   2.910   7.674  -0.480  0.4522  0.5793 -0.0430
  975MOL0     C31538   2.732   7.923  -0.287 -0.4179  0.4153 -0.2469
  975MOL0     C31539   2.617   7.935  -0.200 -0.9749 -0.3932  1.3058
  975MOL0     N31540   1.909   7.584   0.189  0.2812  0.0436  1.2100
  975MOL0     N31541   1.796   7.548   0.234 -0.5714 -0.0876 -0.1528
  975MOL0     C31542   0.691   7.867   0.266  0.3383  0.5006  0.4087
  975MOL0     C31543   0.569   7.928   0.243 -0.7383 -1.2985 -0.1316
  975MOL0     C31544   0.135   8.031   0.295 -1.4348  0.0126  0.0586
  975MOL0     C31545   0.040   7.978   0.204 -0.5670  0.0896  0.4848
  975MOL0     C31546  -0.094   8.024   0.190 -0.6607 -0.2940  0.3734
  975MOL0     C31547  -0.135   8.136   0.265 -0.2996 -0.8059 -0.1873
  975MOL0     O31548  -0.258   8.187   0.268 -0.0388 -1.1505  0.2788
  975MOL0     C31549  -0.357   8.136   0.171 -0.6938  0.0858  0.0605
  975MOL0     C31550  -0.487   8.191   0.211 -0.0128 -0.1722  0.3020
  975MOL0     C31551  -0.505   8.337   0.186  1.6329 -0.0905 -0.0361
  975MOL0     C31552  -0.655   8.364   0.227 -0.8212 -0.3475 -0.2463
  975MOL0     C31553  -0.687   8.360   0.373 -0.8809  0.6522  0.4237
  975MOL0     C31554  -0.707   8.353   0.490  0.4509 -0.2104 -0.0940
  975MOL0     C31555  -0.041   8.181   0.360  0.2077 -0.3967 -0.5142
  975MOL0     C31556   0.089   8.136   0.379 -0.3157  0.2269 -0.2018
  975MOL0     C31557   0.176   8.193   0.479  0.3377 -1.2520  0.1647
  975MOL0     H31558   0.510   7.992   0.565 -0.1152  2.4837 -1.5069
  975MOL0     H31559   0.740   7.890   0.586  0.2585 -0.7912 -1.5299
  975MOL0     H31560   0.872   7.671   0.229 -0.2581  0.8665 -0.9110
  975MOL0     H31561   0.969   7.826   0.253 -2.9577  0.9570  1.0242
  975MOL0     H31562   1.101   7.595   0.234  0.2226 -1.3182  1.1774
  975MOL0     H31563   1.008   7.554   0.379  0.0424  0.6794  0.4933
  975MOL0     H31564   1.218   7.618   0.455 -1.1614  0.9936  1.2878
  975MOL0     H31565   1.113   7.755   0.489 -1.2266 -1.5981 -0.5586
  975MOL0     H31566   1.188   7.863   0.267  2.1832  1.4090 -0.0662
  975MOL0     H31567   1.314   7.852   0.398  1.1203  1.3035 -2.0853
  975MOL0     H31568   1.280   7.655   0.160  2.4657 -1.6282 -0.5182
  975MOL0     H31569   1.403   7.785   0.159  0.4863 -0.2726  0.1310
  975MOL0     H31570   1.393   7.538   0.329 -1.8034  1.4932 -0.4001
  975MOL0     H31571   1.510   7.574   0.209  0.5536 -1.8298  1.7307
  975MOL0     H31572   1.477   7.714   0.477  0.3196  0.1609 -0.4004
  975MOL0     H31573   1.599   7.768   0.353 -0.4654 -0.4723 -3.5363
  975MOL0     H31574   1.678   7.607   0.537 -1.4517  2.0933  0.2706
  975MOL0     H31575   1.624   7.486   0.413  0.6565  0.5299 -1.1513
  975MOL0     H31576   1.864   7.795   0.440 -1.4283 -1.3649  2.4381
  975MOL0     H31577   2.043   7.870   0.187 -2.3641 -0.4880  1.5237
  975MOL0     H31578   2.112   7.812   0.343 -0.3665 -1.3594  0.0690
  975MOL0     H31579   2.216   7.624   0.184  0.2914 -1.7965 -4.3250
  975MOL0     H31580   2.133   7.698   0.056 -0.9827  1.3701  0.4494
  975MOL0     H31581   2.329   7.855   0.234  3.1002 -1.5119 -0.6512
  975MOL0     H31582   2.252   7.907   0.077  0.7892  0.2622 -0.2433
  975MOL0     H31583   2.365   7.690  -0.018  0.0590 -0.4522  0.3761
  975MOL0     H31584   2.484   7.717   0.115 -2.1439 -0.2529  1.2083
  975MOL0     H31585   2.564   7.611  -0.127 -1.9710 -0.9834 -4.0972
  975MOL0     H31586   2.746   7.582  -0.279  1.9955 -0.7101  0.2420
  975MOL0     H31587   3.000   7.775  -0.677 -2.3545  1.6164  3.4397
  975MOL0     H31588   3.216   7.798  -0.825  0.6790  1.4015 -0.6723
  975MOL0     H31589   3.474   7.789  -0.854 -0.2323 -1.1599 -1.9452
  975MOL0     H31590   3.369   7.896  -0.943 -0.8240  2.8856  1.0403
  975MOL0     H31591   3.606   7.886  -1.029 -4.0731 -1.1936 -0.7661
  975MOL0     H31592   3.571   8.045  -0.963 -6.2532 -0.4471  2.1637
  975MOL0     H31593   3.675   7.989  -0.750  2.7784 -0.1386  1.1225
  975MOL0     H31594   3.715   7.830  -0.802  2.0353 -0.7366 -0.4751
  975MOL0     H31595   3.805   8.089  -0.943 -1.1648  0.5407  1.2970
  975MOL0     H31596   3.864   7.934  -0.983 -2.5445 -0.7426  0.3247
  975MOL0     H31597   3.903   8.082  -0.716 -1.7971  1.4531 -1.5922
  975MOL0     H31598   4.014   8.082  -0.853  0.8817  0.3521  2.0813
  975MOL0     H31599   3.918   7.860  -0.683  0.6510 -1.4626 -0.5493
  975MOL0     H31600   4.020   7.822  -0.828 -2.1692 -0.6718  0.3121
  975MOL0     H31601   4.092   7.934  -0.566 -0.7335  1.4432 -0.8456
  975MOL0     H31602   4.188   7.990  -0.713  1.4684  0.4547  1.1637
  975MOL0     H31603   4.153   7.705  -0.613  2.2022 -1.1049  2.2040
  975MOL0     H31604   4.215   7.751  -0.773  2.4032 -1.7669  0.8610
  975MOL0     H31605   3.381   8.070  -0.545  2.2952 -2.2254  0.1706
  975MOL0     H31606   3.184   8.005  -0.378  1.5374 -0.1741  0.3514
  975MOL0     H31607   2.767   8.012  -0.337 -0.0644 -0.0769 -0.8845
  975MOL0     H31608   2.588   8.036  -0.173  5.0601  2.0214  0.3225
  975MOL0     H31609   0.743   7.839   0.175  1.8061  1.7444  0.8424
  975MOL0     H31610   0.527   7.950   0.146  3.4539 -0.1829 -1.9373
  975MOL0     H31611   0.082   7.898   0.143  0.9930  0.9811  0.3319
  975MOL0     H31612  -0.153   7.993   0.105 -0.0820 -1.7930  0.5001
  975MOL0     H31613  -0.367   8.027   0.172 -3.7997  0.2956  0.7280
  975MOL0     H31614  -0.337   8.161   0.066  1.8019 -0.6514  0.2724
  975MOL0     H31615  -0.493   8.179   0.319  4.4119  1.0754  0.8597
  975MOL0     H31616  -0.563   8.127   0.164 -0.1250 -1.0764  1.6468
  975MOL0     H31617  -0.484   8.371   0.084  0.5404 -1.3018 -0.6973
  975MOL0     H31618  -0.449   8.396   0.259  0.0893  0.5582  0.6566
  975MOL0     H31619  -0.693   8.454   0.178  1.6259  0.6178 -0.4993
  975MOL0     H31620  -0.726   8.288   0.191 -1.9171 -0.1017  1.2856
  975MOL0     H31621  -0.737   8.379   0.589  1.2260 -0.9342  0.3338
  975MOL0     H31622  -0.072   8.273   0.408 -0.4452 -1.6053  1.5134
  975MOL0     H31623   0.263   8.246   0.438  1.2133 -0.7729  2.5156
  975MOL0     H31624   0.106   8.270   0.516 -0.4990 -0.9332 -1.9336
  975MOL0     H31625   0.205   8.130   0.563  1.7773 -0.3205  0.4047
  976MOL0     O31626   6.823   6.475   1.166 -0.1928 -0.2909 -0.2976
  976MOL0     C31627   6.764   6.394   1.230  0.4322 -0.1869  0.5224
  976MOL0     O31628   6.799   6.261   1.246 -0.3879  0.2651  0.0764
  976MOL0     C31629   6.927   6.224   1.247 -0.4214  0.3565 -0.4174
  976MOL0     C31630   7.029   6.304   1.300 -1.0254  0.2022 -0.0582
  976MOL0     C31631   7.166   6.262   1.284  0.3474  0.8604 -0.3378
  976MOL0     C31632   7.190   6.134   1.230 -0.2755 -0.6698 -0.2916
  976MOL0     O31633   7.310   6.080   1.198 -0.2030 -0.4664 -0.1464
  976MOL0     C31634   7.422   6.141   1.257 -0.9282 -0.2232 -0.2693
  976MOL0     C31635   7.542   6.049   1.232  1.0195 -0.4547 -0.4876
  976MOL0     C31636   7.654   6.075   1.330 -0.7713  0.9428 -0.4849
  976MOL0     C31637   7.782   5.990   1.299 -0.4166  0.1563 -0.0835
  976MOL0     C31638   7.912   6.015   1.383  0.9610 -0.3489  0.9694
  976MOL0     C31639   8.035   5.939   1.352  0.5181 -0.4135  0.2016
  976MOL0     C31640   8.147   5.985   1.446  0.2298 -0.7647  0.3096
  976MOL0     C31641   8.260   5.876   1.460  0.3768 -0.3081 -0.5142
  976MOL0     N31642   8.372   5.919   1.553 -0.2642 -0.9194 -0.3625
  976MOL0     C31643   8.427   6.045   1.560  0.2369  0.2822 -0.8230
  976MOL0     C31644   8.536   6.036   1.642  0.2645  1.0151 -0.1193
  976MOL0     C31645   8.642   6.142   1.671  0.6867 -0.7773 -0.3498
  976MOL0     C31646   8.615   6.226   1.806 -0.3115 -0.2396  0.5691
  976MOL0     C31647   8.630   6.144   1.944  0.5037  0.3692  0.2259
  976MOL0     C31648   8.776   6.150   1.992 -0.1563 -0.4468 -0.7658
  976MOL0     O31649   8.816   6.284   2.019  0.2010  0.0283 -0.5104
  976MOL0     C31650   8.947   6.332   2.022 -0.4578  0.4974 -0.3573
  976MOL0     C31651   8.973   6.465   2.023 -0.7303  0.0571  0.4034
  976MOL0     C31652   9.108   6.522   2.013  0.2833  0.9323  0.6601
  976MOL0     C31653   9.215   6.436   2.018  0.8581 -0.5477  0.9665
  976MOL0     C31654   9.352   6.475   1.994  0.1802 -0.3538  0.3621
  976MOL0     O31655   9.448   6.377   2.007  0.0030  0.5741 -0.2719
  976MOL0     C31656   9.580   6.414   1.969  0.3593  0.4383 -0.0158
  976MOL0     C31657   9.634   6.417   1.841 -0.4175  0.0778  0.4044
  976MOL0     C31658   9.766   6.441   1.831  0.1154 -0.1048  0.3070
  976MOL0     C31659   9.846   6.458   1.941  0.4205 -0.9216 -1.0511
  976MOL0     O31660   9.978   6.467   1.914 -0.2114  0.9427  0.1096
  976MOL0     C31661  10.077   6.455   2.022  0.7900  0.1974 -1.2099
  976MOL0     C31662  10.216   6.468   1.963  0.7813 -0.2455  0.3477
  976MOL0     C31663  10.332   6.393   2.027  0.4854  0.3812 -0.1610
  976MOL0     C31664  10.452   6.383   1.925 -0.1098  0.2583 -0.7943
  976MOL0     C31665  10.555   6.283   1.966 -0.0010  0.2495 -0.5766
  976MOL0     C31666  10.652   6.244   1.852 -0.1576 -0.9073  0.5237
  976MOL0     C31667  10.741   6.120   1.888 -0.0234  0.0708 -0.1062
  976MOL0     C31668  10.870   6.113   1.810  0.3701 -0.3723  0.0669
  976MOL0    Cl31669  10.961   6.250   1.875 -0.2240  0.2137 -0.2545
  976MOL0     C31670   9.786   6.458   2.066  0.2117 -0.0302 -0.4251
  976MOL0     C31671   9.648   6.445   2.085 -0.2809  0.2333 -0.0681
  976MOL0     O31672   9.376   6.595   1.984 -0.2263 -0.1972 -0.2356
  976MOL0     C31673   9.184   6.299   2.021  0.4058  0.8319 -0.0442
  976MOL0     C31674   9.047   6.245   2.030 -1.4491 -0.3663  0.5880
  976MOL0     N31675   8.529   5.910   1.705 -0.8642  0.5529 -0.0509
  976MOL0     N31676   8.438   5.839   1.643  0.3782 -0.7653 -1.0840
  976MOL0     C31677   7.087   6.052   1.188 -0.1027  0.1180 -1.2200
  976MOL0     C31678   6.960   6.102   1.202  0.6927  0.9586  0.7638
  976MOL0     C31679   6.635   6.450   1.292 -0.0863  0.0126 -0.3989
  976MOL0     C31680   6.548   6.353   1.346  0.7405  1.1182  0.0688
  976MOL0     C31681   6.417   6.389   1.385  0.5950  0.0765 -0.2435
  976MOL0     C31682   6.386   6.524   1.398 -0.3647 -0.0553 -0.0330
  976MOL0     O31683   6.278   6.583   1.458  0.1657 -0.3929 -0.2689
  976MOL0     C31684   6.158   6.510   1.440  0.8006 -0.6850 -0.1409
  976MOL0     C31685   6.054   6.589   1.511 -0.7601  0.2470  0.2931
  976MOL0     C31686   6.046   6.746   1.479 -0.0425  0.0667  0.4410
  976MOL0     C31687   5.920   6.807   1.526 -0.0016 -0.1097 -0.5005
  976MOL0     C31688   5.922   6.955   1.508 -0.5905 -0.9596  0.6115
  976MOL0     C31689   5.900   7.081   1.491  0.9999 -0.2966 -0.0164
  976MOL0     C31690   6.479   6.622   1.360  0.4044  0.0336 -0.2946
  976MOL0     C31691   6.601   6.592   1.302  0.4975 -0.1346 -0.5441
  976MOL0     C31692   6.699   6.700   1.270  0.1220 -0.7801 -0.6799
  976MOL0     H31693   7.008   6.400   1.347 -0.3112  0.2495  0.1787
  976MOL0     H31694   7.245   6.316   1.336 -0.4594 -0.3140  2.2580
  976MOL0     H31695   7.433   6.241   1.216 -2.2093 -0.6790 -1.8442
  976MOL0     H31696   7.416   6.149   1.366  1.7844 -0.9204 -0.0164
  976MOL0     H31697   7.561   6.075   1.128 -4.6947  1.0484 -1.4893
  976MOL0     H31698   7.504   5.947   1.235  0.4873 -0.3078 -1.8020
  976MOL0     H31699   7.616   6.063   1.432  1.0655  1.7888  0.3537
  976MOL0     H31700   7.679   6.182   1.325  1.9000  0.6120  2.4333
  976MOL0     H31701   7.753   5.885   1.313  1.9532 -0.5058  0.3040
  976MOL0     H31702   7.815   6.007   1.196 -0.2864  0.7682  0.0584
  976MOL0     H31703   7.920   6.124   1.377 -1.6545 -0.1789 -0.8959
  976MOL0     H31704   7.887   6.005   1.489 -2.4162 -2.0402  0.1533
  976MOL0     H31705   8.030   5.830   1.359  2.5081 -0.7002 -1.7119
  976MOL0     H31706   8.063   5.965   1.249 -0.7446  1.8534  0.3739
  976MOL0     H31707   8.106   5.992   1.548 -2.2678  0.4780 -0.6818
  976MOL0     H31708   8.172   6.085   1.409 -3.1983  0.5806  1.2301
  976MOL0     H31709   8.218   5.777   1.481 -2.5436  0.9508  0.1864
  976MOL0     H31710   8.310   5.878   1.363  1.7641 -1.5655  0.1350
  976MOL0     H31711   8.395   6.131   1.502  1.0740 -0.0300 -1.7542
  976MOL0     H31712   8.744   6.101   1.667 -0.2248 -3.1819 -0.5942
  976MOL0     H31713   8.648   6.212   1.587  2.7001 -0.5553 -0.0892
  976MOL0     H31714   8.677   6.316   1.799 -2.2653  1.3512  2.2781
  976MOL0     H31715   8.512   6.263   1.813  0.3810  1.4852  2.3367
  976MOL0     H31716   8.597   6.041   1.928 -1.5764  1.4386 -3.5545
  976MOL0     H31717   8.566   6.194   2.017  0.0200  2.2483 -1.4034
  976MOL0     H31718   8.853   6.115   1.923  1.5934  1.2994  0.2049
  976MOL0     H31719   8.779   6.093   2.086 -0.7694  1.4133  0.4546
  976MOL0     H31720   8.883   6.525   2.029 -0.4966  0.6583 -1.5203
  976MOL0     H31721   9.107   6.627   1.984  2.3028  0.9506  0.5285
  976MOL0     H31722   9.576   6.377   1.758 -0.7434  0.9257  0.2075
  976MOL0     H31723   9.818   6.424   1.737 -0.5549 -2.8348  0.3296
  976MOL0     H31724  10.070   6.526   2.105  0.5734 -0.4412 -0.6751
  976MOL0     H31725  10.061   6.353   2.058 -0.0532  0.3684 -1.0782
  976MOL0     H31726  10.211   6.438   1.858 -0.9623 -0.9343  0.5917
  976MOL0     H31727  10.235   6.575   1.971 -2.0422  0.3398  0.3269
  976MOL0     H31728  10.372   6.448   2.113 -1.2786  0.2905  0.7580
  976MOL0     H31729  10.296   6.295   2.059  0.1829 -0.1276 -1.9324
  976MOL0     H31730  10.497   6.482   1.921  2.0591 -0.5686  1.0126
  976MOL0     H31731  10.421   6.348   1.826  1.7200 -0.8202 -1.0416
  976MOL0     H31732  10.504   6.190   1.995  0.0179  0.2830 -0.4315
  976MOL0     H31733  10.611   6.322   2.052  0.6117  1.5586 -1.5357
  976MOL0     H31734  10.599   6.216   1.760  0.7662 -1.6450  0.2071
  976MOL0     H31735  10.710   6.330   1.818 -2.0229  0.0660 -0.3744
  976MOL0     H31736  10.689   6.026   1.866 -1.7801  0.9383  0.2550
  976MOL0     H31737  10.775   6.118   1.992 -1.2015  1.9978  0.3604
  976MOL0     H31738  10.929   6.023   1.828  0.1376 -0.2561  1.5860
  976MOL0     H31739  10.846   6.136   1.706 -0.1717  0.0186  0.2740
  976MOL0     H31740   9.849   6.475   2.153 -1.7330 -0.0350  1.0498
  976MOL0     H31741   9.604   6.443   2.185 -0.5068 -0.9762 -0.1815
  976MOL0     H31742   9.264   6.229   2.000 -1.2518 -0.4741 -2.5075
  976MOL0     H31743   9.041   6.137   2.034 -0.8092 -0.4221  0.1636
  976MOL0     H31744   7.114   5.956   1.145  1.1601  0.0169 -0.2647
  976MOL0     H31745   6.876   6.039   1.174  0.7001  1.2710  0.0201
  976MOL0     H31746   6.560   6.245   1.350 -1.7357  0.8161  0.8836
  976MOL0     H31747   6.345   6.316   1.421 -0.4759  1.6591  0.9736
  976MOL0     H31748   6.158   6.409   1.483 -2.2764 -1.4045 -1.5116
  976MOL0     H31749   6.127   6.505   1.336  0.9929 -3.0781 -0.1486
  976MOL0     H31750   6.059   6.582   1.620 -1.3473  0.4827  0.3392
  976MOL0     H31751   5.956   6.544   1.490 -1.9397  2.6080  0.3869
  976MOL0     H31752   6.054   6.749   1.370 -1.9579 -0.9163  0.2419
  976MOL0     H31753   6.128   6.803   1.525 -0.4969  1.6659 -0.6256
  976MOL0     H31754   5.831   6.767   1.477 -0.4533 -2.4738  1.9779
  976MOL0     H31755   5.911   6.780   1.632 -1.3136 -3.3593 -1.3193
  976MOL0     H31756   5.882   7.186   1.476  1.1201 -0.3990 -0.9447
  976MOL0     H31757   6.444   6.725   1.365 -1.6979 -0.7032  1.9836
  976MOL0     H31758   6.788   6.691   1.333 -1.6291 -1.9678  1.7419
  976MOL0     H31759   6.735   6.695   1.166 -2.4473 -1.0861 -1.6134
  976MOL0     H31760   6.652   6.796   1.295  0.8435 -0.9263  1.4470
  977MOL0     O31761   8.956   2.052   3.039 -0.8267 -0.1178 -0.1284
  977MOL0     C31762   8.849   2.020   3.003  0.7421  1.5559 -0.5267
  977MOL0     O31763   8.823   1.978   2.879 -0.1719  0.4099  0.0778
  977MOL0     C31764   8.931   1.936   2.807  0.2871  0.2321  0.1041
  977MOL0     C31765   9.008   2.022   2.722  0.4058 -0.4847 -0.9562
  977MOL0     C31766   9.108   1.974   2.637 -0.5353  0.1675 -0.0468
  977MOL0     C31767   9.134   1.832   2.626 -0.4323 -0.4616  0.4247
  977MOL0     O31768   9.216   1.782   2.537  0.1158  0.3191 -0.5757
  977MOL0     C31769   9.180   1.660   2.480 -0.3185 -0.2045  1.0684
  977MOL0     C31770   9.258   1.656   2.344 -0.3228  0.2099 -1.3440
  977MOL0     C31771   9.217   1.762   2.244 -0.5697  0.6254  0.0305
  977MOL0     C31772   9.318   1.766   2.131 -0.2646 -0.4084  0.2614
  977MOL0     C31773   9.306   1.905   2.067 -0.0464 -0.2299  0.7085
  977MOL0     C31774   9.188   1.931   1.968  0.2450  0.3696 -0.1918
  977MOL0     C31775   9.187   2.078   1.908 -0.6905  0.2547 -0.1530
  977MOL0     C31776   9.298   2.093   1.805  0.5483 -1.0063 -0.6856
  977MOL0     N31777   9.307   2.222   1.742  0.4093 -0.1551  0.0581
  977MOL0     C31778   9.374   2.335   1.775  0.2206 -0.5349  0.5460
  977MOL0     C31779   9.340   2.424   1.676  0.1850  0.1351  0.0317
  977MOL0     C31780   9.403   2.562   1.671  0.1111 -0.2963  0.8046
  977MOL0     C31781   9.534   2.556   1.587 -0.5728 -0.2107  0.1028
  977MOL0     C31782   9.638   2.464   1.657  1.2865  0.9462  0.5713
  977MOL0     C31783   9.781   2.486   1.621  0.6809  0.2305  0.7489
  977MOL0     O31784   9.816   2.447   1.483 -1.0407  0.4052 -0.2898
  977MOL0     C31785   9.948   2.467   1.445 -0.0070  0.5982  0.5077
  977MOL0     C31786  10.050   2.506   1.536  0.2206  0.6358  0.0493
  977MOL0     C31787  10.177   2.529   1.490 -0.6627  0.0536 -0.3097
  977MOL0     C31788  10.214   2.522   1.358  0.8015 -0.0015  0.0060
  977MOL0     C31789  10.356   2.527   1.318  0.1370 -0.0446 -0.9687
  977MOL0     O31790  10.445   2.580   1.418 -0.0154  0.6977 -0.5001
  977MOL0     C31791  10.579   2.592   1.417  0.0883 -0.1316  0.5496
  977MOL0     C31792  10.638   2.694   1.491  0.5109  0.7052  0.8647
  977MOL0     C31793  10.769   2.725   1.472  0.6418 -0.2408  0.1710
  977MOL0     C31794  10.855   2.636   1.408  0.4308  0.3107  1.1417
  977MOL0     O31795  10.986   2.654   1.390  0.1772  0.1866 -0.9539
  977MOL0     C31796  11.027   2.786   1.407 -0.3244 -0.5553 -0.7571
  977MOL0     C31797  11.173   2.795   1.366 -1.0531  0.3914 -0.7109
  977MOL0     C31798  11.240   2.930   1.383  0.5077  0.6633 -0.1598
  977MOL0     C31799  11.382   2.935   1.312  0.1267 -0.5948 -0.3900
  977MOL0     C31800  11.464   3.056   1.362  0.0408 -0.4910  0.3269
  977MOL0     C31801  11.617   3.030   1.357  0.5464 -0.1987  0.2438
  977MOL0     C31802  11.695   3.154   1.402 -0.2800  0.8506 -0.6914
  977MOL0     C31803  11.849   3.145   1.389 -0.2616 -0.5680  0.1693
  977MOL0    Cl31804  11.911   3.131   1.219  0.0199  0.1964  0.3410
  977MOL0     C31805  10.806   2.514   1.359 -0.1718 -0.2457  0.4096
  977MOL0     C31806  10.667   2.499   1.365  0.0617  0.4717  0.4102
  977MOL0     O31807  10.390   2.482   1.206  0.6380 -0.6801 -0.4302
  977MOL0     C31808  10.121   2.472   1.267 -0.1147  0.2551  0.5961
  977MOL0     C31809   9.985   2.456   1.314 -0.4608 -0.1425  0.8836
  977MOL0     N31810   9.262   2.359   1.583  0.0348  0.0602 -0.2702
  977MOL0     N31811   9.247   2.235   1.619  0.3823  0.2941 -0.2222
  977MOL0     C31812   9.052   1.750   2.710 -0.1715  0.6364  0.2554
  977MOL0     C31813   8.954   1.799   2.798 -0.6421 -0.1093 -0.1990
  977MOL0     C31814   8.735   2.009   3.092 -0.5293 -0.2578 -0.0726
  977MOL0     C31815   8.635   1.917   3.051 -0.4003 -0.4711 -0.1169
  977MOL0     C31816   8.522   1.895   3.128  0.0396  0.6443 -0.9639
  977MOL0     C31817   8.500   1.958   3.253  0.1803  0.5786 -0.0538
  977MOL0     O31818   8.398   1.920   3.330 -0.4313 -0.1097 -0.1389
  977MOL0     C31819   8.356   1.984   3.452  0.8388  0.4262  0.2542
  977MOL0     C31820   8.413   1.913   3.574  1.3484  0.4767  0.5717
  977MOL0     C31821   8.306   1.930   3.691 -0.6554  0.8600  0.2176
  977MOL0     C31822   8.324   2.057   3.780  0.0903  0.1892 -0.5304
  977MOL0     C31823   8.223   2.075   3.886 -0.0762  0.0173 -0.3310
  977MOL0     C31824   8.135   2.093   3.966 -0.0772 -0.2758  1.1835
  977MOL0     C31825   8.601   2.052   3.293 -0.2674  0.3217  0.4476
  977MOL0     C31826   8.712   2.081   3.212  0.0840 -0.8309 -0.7158
  977MOL0     C31827   8.809   2.187   3.263 -0.7152 -1.3103 -1.1207
  977MOL0     H31828   9.000   2.127   2.747  0.3430 -0.2342 -1.9635
  977MOL0     H31829   9.163   2.046   2.577 -1.3476 -0.0590 -1.0739
  977MOL0     H31830   9.209   1.581   2.550 -1.0746 -0.7940  0.7330
  977MOL0     H31831   9.077   1.651   2.444  0.6570 -0.5561 -1.8740
  977MOL0     H31832   9.248   1.560   2.292  0.5245 -1.7173  1.7101
  977MOL0     H31833   9.365   1.658   2.368 -0.2068  2.5436 -1.8556
  977MOL0     H31834   9.216   1.859   2.294  1.5161  0.4979  0.3825
  977MOL0     H31835   9.116   1.737   2.209 -0.6666 -0.8352  1.2284
  977MOL0     H31836   9.423   1.757   2.159 -0.0694  3.9618  1.7080
  977MOL0     H31837   9.292   1.680   2.069 -0.7868  0.9449 -1.4748
  977MOL0     H31838   9.303   1.979   2.148  2.3478 -0.8638  1.4353
  977MOL0     H31839   9.402   1.933   2.023 -0.1645 -0.5831  0.2178
  977MOL0     H31840   9.197   1.861   1.885 -1.8962  1.3695 -1.3378
  977MOL0     H31841   9.097   1.910   2.026 -0.7871  2.0693 -1.1419
  977MOL0     H31842   9.205   2.152   1.987 -1.1319  1.3708 -1.0703
  977MOL0     H31843   9.095   2.100   1.854  0.1018  1.2707 -1.1326
  977MOL0     H31844   9.391   2.077   1.862  0.1851  1.1852  0.6354
  977MOL0     H31845   9.283   2.017   1.728 -1.2898  0.9825 -2.4197
  977MOL0     H31846   9.440   2.340   1.861 -0.3947 -3.7292  1.3547
  977MOL0     H31847   9.334   2.637   1.631 -1.2101 -2.1585 -0.5758
  977MOL0     H31848   9.429   2.594   1.772 -1.2441  2.9492  0.2651
  977MOL0     H31849   9.511   2.530   1.484 -0.7450 -2.1675  0.5891
  977MOL0     H31850   9.578   2.656   1.594 -1.3075  0.0584  1.3754
  977MOL0     H31851   9.604   2.364   1.627 -0.2338  1.8126 -0.7620
  977MOL0     H31852   9.629   2.472   1.765  0.4191  0.5110  0.5408
  977MOL0     H31853   9.841   2.435   1.696 -0.3079 -0.4428  1.1024
  977MOL0     H31854   9.792   2.595   1.624 -3.7058  0.8575  0.6487
  977MOL0     H31855  10.025   2.530   1.639 -4.3851 -2.8578  0.0940
  977MOL0     H31856  10.249   2.558   1.565 -1.5328  1.4887 -0.0023
  977MOL0     H31857  10.570   2.757   1.546 -0.7326 -2.4560  3.2589
  977MOL0     H31858  10.797   2.823   1.509 -0.2003  0.5905 -1.2869
  977MOL0     H31859  10.972   2.862   1.350  1.6620  1.6306  0.0723
  977MOL0     H31860  11.039   2.820   1.510  2.4772  2.9400 -2.0061
  977MOL0     H31861  11.232   2.734   1.435 -0.0760 -0.4633 -2.2613
  977MOL0     H31862  11.177   2.747   1.268  2.1742 -0.5051 -0.2388
  977MOL0     H31863  11.184   3.004   1.326 -1.0950 -1.3345 -1.2712
  977MOL0     H31864  11.239   2.958   1.489  1.6418  0.3841 -0.0615
  977MOL0     H31865  11.365   2.936   1.204  0.5612 -4.1173 -0.6049
  977MOL0     H31866  11.440   2.849   1.346  0.2797  0.3839  2.0445
  977MOL0     H31867  11.440   3.051   1.468 -0.1190  0.3882  0.3405
  977MOL0     H31868  11.433   3.151   1.319  1.0730 -0.1016  0.4113
  977MOL0     H31869  11.639   2.945   1.422 -1.7927 -2.9806 -2.2819
  977MOL0     H31870  11.636   3.014   1.251 -1.7636  0.7719 -0.3864
  977MOL0     H31871  11.673   3.180   1.506  1.9334  3.2906 -0.7500
  977MOL0     H31872  11.658   3.239   1.344  0.5139  2.3422  0.9209
  977MOL0     H31873  11.886   3.241   1.427  0.3235 -0.9605  0.5975
  977MOL0     H31874  11.890   3.066   1.453  1.1059  0.3906  0.5223
  977MOL0     H31875  10.865   2.438   1.309 -1.9436 -1.9385  0.7841
  977MOL0     H31876  10.633   2.408   1.317  1.9157 -1.0437  1.8040
  977MOL0     H31877  10.143   2.447   1.164  1.0597  2.4102  0.2495
  977MOL0     H31878   9.910   2.420   1.245  0.7672 -1.6397  0.2606
  977MOL0     H31879   9.065   1.643   2.712 -0.3041  0.5778 -1.2253
  977MOL0     H31880   8.902   1.737   2.870 -0.2721 -0.7746 -0.5031
  977MOL0     H31881   8.639   1.863   2.957 -0.1787 -1.7747  0.6187
  977MOL0     H31882   8.459   1.810   3.105  0.0185  0.0304  1.1420
  977MOL0     H31883   8.247   1.972   3.454  0.6069  1.8649 -1.3238
  977MOL0     H31884   8.380   2.090   3.465  1.2549  0.1060  2.4994
  977MOL0     H31885   8.508   1.956   3.606  0.5458  2.3863  0.4961
  977MOL0     H31886   8.430   1.808   3.547  0.1948  0.3926  0.1331
  977MOL0     H31887   8.330   1.841   3.751 -0.0999  0.5707 -0.4178
  977MOL0     H31888   8.204   1.914   3.656 -0.5249 -0.9594  0.5735
  977MOL0     H31889   8.419   2.041   3.830 -1.1174 -2.9760  1.0230
  977MOL0     H31890   8.321   2.147   3.719 -0.2253  0.4911 -0.0731
  977MOL0     H31891   8.058   2.097   4.040 -1.1503 -2.0155  0.2596
  977MOL0     H31892   8.595   2.111   3.383  0.9148  1.0166  0.0941
  977MOL0     H31893   8.841   2.253   3.182 -2.2924 -0.4977 -1.1236
  977MOL0     H31894   8.758   2.256   3.331  2.4448  0.3528 -0.2484
  977MOL0     H31895   8.893   2.148   3.321 -1.9809  1.3780  2.9734
  978MOL0     O31896  10.426   7.513   8.440 -0.3008  0.3694  0.3260
  978MOL0     C31897  10.326   7.577   8.441  0.3140 -0.4225  0.4858
  978MOL0     O31898  10.323   7.700   8.507  0.2663  0.9024 -0.2259
  978MOL0     C31899  10.434   7.764   8.552 -0.9909 -0.2520 -1.7937
  978MOL0     C31900  10.566   7.749   8.532 -0.2310 -0.1375  0.0822
  978MOL0     C31901  10.668   7.825   8.596  1.2117 -0.5881 -1.7380
  978MOL0     C31902  10.635   7.924   8.687  0.5104 -0.4214  0.0505
  978MOL0     O31903  10.719   8.003   8.761  0.2199 -0.0086  0.3441
  978MOL0     C31904  10.731   8.132   8.698  0.0890  1.2233 -0.5019
  978MOL0     C31905  10.661   8.251   8.784 -0.4670 -0.0698 -0.3643
  978MOL0     C31906  10.697   8.236   8.931  0.0221 -0.1952  0.2591
  978MOL0     C31907  10.849   8.240   8.959  0.0733 -0.8884  0.0917
  978MOL0     C31908  10.884   8.323   9.087 -0.3955  0.8172  0.0445
  978MOL0     C31909  11.035   8.324   9.112  0.4406  0.6619  0.3067
  978MOL0     C31910  11.083   8.186   9.182 -0.5734  0.5808 -0.5812
  978MOL0     C31911  11.235   8.191   9.233  0.7594 -0.1738  0.5693
  978MOL0     N31912  11.278   8.308   9.309  0.1799  0.2651  0.0509
  978MOL0     C31913  11.230   8.341   9.434 -0.1496  0.2973  0.0824
  978MOL0     C31914  11.315   8.441   9.470 -0.2837 -0.0291 -0.0525
  978MOL0     C31915  11.323   8.513   9.603 -0.0183  0.0210 -1.0588
  978MOL0     C31916  11.300   8.425   9.725 -0.3393 -0.3379 -0.3285
  978MOL0     C31917  11.421   8.343   9.773  0.1996 -0.0813 -0.6398
  978MOL0     C31918  11.384   8.283   9.902 -0.1560  0.7534 -0.0544
  978MOL0     O31919  11.265   8.198   9.883  0.2177  0.6762 -0.2236
  978MOL0     C31920  11.153   8.217   9.966  0.3210  0.5055 -0.0736
  978MOL0     C31921  11.111   8.332  10.033  0.1881  0.8348  0.1432
  978MOL0     C31922  10.990   8.343  10.101 -0.4007 -0.5612  0.2002
  978MOL0     C31923  10.897   8.232  10.102 -0.0050  0.4979 -0.2182
  978MOL0     C31924  10.758   8.236  10.158 -0.2087 -0.1045 -0.2393
  978MOL0     O31925  10.670   8.135  10.131 -1.0178 -0.1376 -0.0486
  978MOL0     C31926  10.565   8.104  10.213  0.5319 -0.1906  1.3358
  978MOL0     C31927  10.441   8.052  10.158 -0.3340  0.3454 -0.4183
  978MOL0     C31928  10.325   8.029  10.238 -0.4476 -0.5017 -0.3397
  978MOL0     C31929  10.335   8.045  10.380 -0.7119 -0.1593 -0.5889
  978MOL0     O31930  10.236   8.020  10.470 -0.0727 -0.1441  0.9310
  978MOL0     C31931  10.109   7.978  10.423 -0.7090  0.7076  0.0942
  978MOL0     C31932   9.991   8.028  10.517  0.0017 -0.7779 -0.2702
  978MOL0     C31933  10.002   7.976  10.667  0.0034  0.5439 -0.1779
  978MOL0     C31934   9.868   7.970  10.751 -1.2108  0.5337 -0.2073
  978MOL0     C31935   9.786   8.096  10.719 -0.4125  0.0894  0.1086
  978MOL0     C31936   9.673   8.119  10.818  0.5440  0.4216  0.0722
  978MOL0     C31937   9.597   8.251  10.804 -0.8546  1.1510  0.8435
  978MOL0     C31938   9.535   8.306  10.935 -0.9757  0.4322  0.1796
  978MOL0    Cl31939   9.460   8.456  10.890  0.0111  0.1786  0.3309
  978MOL0     C31940  10.455   8.083  10.435 -0.3015 -0.0629  0.1157
  978MOL0     C31941  10.566   8.103  10.352 -0.3723 -0.6136  0.5592
  978MOL0     O31942  10.733   8.330  10.219  1.1921 -0.7476 -0.1307
  978MOL0     C31943  10.951   8.106  10.052 -0.6085 -0.7511  0.2778
  978MOL0     C31944  11.071   8.105   9.984  0.4343  0.0374 -1.6094
  978MOL0     N31945  11.407   8.476   9.370  0.1527 -1.4532 -0.6186
  978MOL0     N31946  11.378   8.392   9.275 -0.0361 -0.0301 -0.5168
  978MOL0     C31947  10.500   7.952   8.701  0.4902  0.1619 -0.3081
  978MOL0     C31948  10.406   7.879   8.632  0.1212  0.7313  0.4154
  978MOL0     C31949  10.210   7.520   8.376  0.2043  0.6050 -0.9626
  978MOL0     C31950  10.110   7.612   8.358  0.6024 -0.0257  0.0751
  978MOL0     C31951   9.979   7.581   8.330  0.8238  0.6062  0.0796
  978MOL0     C31952   9.945   7.447   8.305 -0.1176  0.3025  1.1557
  978MOL0     O31953   9.816   7.414   8.264  0.2174  0.3067  0.6924
  978MOL0     C31954   9.772   7.286   8.210 -0.1521  0.2077 -0.4478
  978MOL0     C31955   9.742   7.195   8.330  0.0078  0.4161  0.4306
  978MOL0     C31956   9.628   7.254   8.413 -0.4291  0.2419 -0.2135
  978MOL0     C31957   9.502   7.291   8.326  0.1399 -0.1526 -0.3696
  978MOL0     C31958   9.376   7.277   8.399  0.0738 -0.2507  0.2073
  978MOL0     C31959   9.266   7.275   8.445  0.0123  0.4714 -0.4464
  978MOL0     C31960  10.058   7.352   8.291  0.2612 -0.1486  0.1379
  978MOL0     C31961  10.181   7.386   8.338 -0.3401 -0.8237 -0.4905
  978MOL0     C31962  10.281   7.267   8.346  0.4173 -0.3929  0.0898
  978MOL0     H31963  10.602   7.673   8.463 -1.1771  0.2263 -0.8392
  978MOL0     H31964  10.773   7.811   8.572  1.8111  1.9009 -0.9081
  978MOL0     H31965  10.840   8.137   8.696  0.2059  0.3209  1.2695
  978MOL0     H31966  10.692   8.132   8.596  1.3793 -2.7992 -1.1469
  978MOL0     H31967  10.553   8.259   8.769 -0.7842  1.2908  2.0665
  978MOL0     H31968  10.699   8.348   8.751 -0.5123 -0.3867 -1.3707
  978MOL0     H31969  10.655   8.139   8.961  0.8178 -0.4362  0.6320
  978MOL0     H31970  10.643   8.316   8.983 -0.0672  1.0495 -1.6651
  978MOL0     H31971  10.888   8.138   8.958 -0.9086 -1.2833  0.6222
  978MOL0     H31972  10.893   8.301   8.879 -0.6646  1.6430  1.5062
  978MOL0     H31973  10.852   8.427   9.096  3.4892  2.0427  3.2068
  978MOL0     H31974  10.845   8.266   9.172  4.8617 -1.4510  1.3741
  978MOL0     H31975  11.092   8.343   9.020  0.1449  0.3130  0.0462
  978MOL0     H31976  11.046   8.407   9.181 -3.5231  1.4635  0.2343
  978MOL0     H31977  11.088   8.105   9.108  0.1851 -0.9867  1.0918
  978MOL0     H31978  11.018   8.169   9.268  1.0897  2.8966  1.2353
  978MOL0     H31979  11.251   8.097   9.287  2.2815 -0.2170  0.0962
  978MOL0     H31980  11.291   8.188   9.139 -2.0919 -3.3767 -1.2865
  978MOL0     H31981  11.159   8.284   9.492 -0.5185 -0.7236 -1.3055
  978MOL0     H31982  11.427   8.547   9.604 -0.3971  1.3652  1.2253
  978MOL0     H31983  11.248   8.593   9.611  1.3091  1.1574  1.1932
  978MOL0     H31984  11.277   8.492   9.809  1.2311  0.7422 -0.7044
  978MOL0     H31985  11.214   8.362   9.703 -1.0017  0.4132  0.0480
  978MOL0     H31986  11.503   8.411   9.796 -0.4665  0.4183  0.3044
  978MOL0     H31987  11.451   8.260   9.708  1.0397 -0.9774  0.8421
  978MOL0     H31988  11.368   8.358   9.981  0.3040  0.0290  0.7456
  978MOL0     H31989  11.468   8.226   9.943  0.5149  1.6503 -0.1358
  978MOL0     H31990  11.169   8.423  10.042 -2.0557  2.2806  0.8541
  978MOL0     H31991  10.959   8.427  10.163 -0.9263  0.1809 -1.0320
  978MOL0     H31992  10.431   8.040  10.050  1.6998  1.2617 -0.7503
  978MOL0     H31993  10.229   8.009  10.192 -0.9542  2.3404 -0.7105
  978MOL0     H31994  10.081   8.006  10.321  2.6527 -3.3836 -2.2583
  978MOL0     H31995  10.116   7.869  10.428  0.4981  0.7680  0.0440
  978MOL0     H31996   9.985   8.137  10.522  2.9277 -0.4983 -0.8896
  978MOL0     H31997   9.897   7.995  10.472  1.3443 -1.8191 -2.4699
  978MOL0     H31998  10.043   7.875  10.672 -0.0828  0.2815 -2.9900
  978MOL0     H31999  10.083   8.025  10.722 -0.3320 -0.7543  1.5509
  978MOL0     H32000   9.886   7.958  10.858 -2.6481 -0.7014 -0.0663
  978MOL0     H32001   9.813   7.887  10.706  0.6465 -2.1105  2.0686
  978MOL0     H32002   9.744   8.085  10.619  1.1856  0.4395 -0.6171
  978MOL0     H32003   9.857   8.178  10.716 -1.1550  0.7456  0.2267
  978MOL0     H32004   9.601   8.038  10.800  1.9574 -0.1930 -3.5058
  978MOL0     H32005   9.714   8.117  10.919 -2.2534  0.4814  1.3037
  978MOL0     H32006   9.526   8.238  10.723  2.5089  1.7794 -2.4657
  978MOL0     H32007   9.673   8.318  10.762  2.2781 -3.4383 -1.6594
  978MOL0     H32008   9.457   8.241  10.974 -1.0039  0.0041 -0.5701
  978MOL0     H32009   9.614   8.322  11.009  1.4529 -0.2055 -2.1116
  978MOL0     H32010  10.463   8.095  10.543 -2.1193  0.7664  0.2001
  978MOL0     H32011  10.658   8.127  10.404  0.8024 -1.3823 -1.0671
  978MOL0     H32012  10.884   8.020  10.052 -2.3610  0.5268  2.0591
  978MOL0     H32013  11.109   8.013   9.941  0.8706 -0.5834  0.0176
  978MOL0     H32014  10.470   8.027   8.774 -0.5030 -1.5566  1.1106
  978MOL0     H32015  10.302   7.893   8.658  0.4076  1.8267  1.0133
  978MOL0     H32016  10.120   7.720   8.360  1.6569 -0.0746  3.4090
  978MOL0     H32017   9.898   7.649   8.307 -1.0252 -2.4360 -3.7293
  978MOL0     H32018   9.845   7.233   8.149 -1.7551 -0.0910 -2.1787
  978MOL0     H32019   9.682   7.295   8.149  0.0905  0.6853 -0.7475
  978MOL0     H32020   9.831   7.194   8.394  1.0924 -3.0788 -0.9069
  978MOL0     H32021   9.712   7.096   8.294  1.5711  0.0814 -0.0116
  978MOL0     H32022   9.659   7.341   8.470 -2.1645 -0.1439  1.4217
  978MOL0     H32023   9.591   7.178   8.483  1.5635 -0.1605  0.4504
  978MOL0     H32024   9.517   7.393   8.292 -1.7059  0.5822  0.8485
  978MOL0     H32025   9.494   7.222   8.241  1.4503  1.6884 -2.0711
  978MOL0     H32026   9.163   7.278   8.478 -0.6884  2.0484 -2.5860
  978MOL0     H32027  10.040   7.247   8.273 -1.1030 -0.2738  1.9290
  978MOL0     H32028  10.373   7.295   8.293 -0.4289  2.2319 -0.1609
  978MOL0     H32029  10.315   7.238   8.446 -0.3834 -1.7293 -0.0117
  978MOL0     H32030  10.250   7.181   8.286  4.3587  1.2243 -5.0275
  979MOL0     O32031   9.053   6.721   4.764 -1.0079  0.2459  0.7807
  979MOL0     C32032   8.937   6.684   4.756 -0.1219  0.0018  0.0040
  979MOL0     O32033   8.892   6.577   4.689 -0.1110  0.5556 -0.4728
  979MOL0     C32034   8.979   6.485   4.645  0.5635 -0.5605  0.7908
  979MOL0     C32035   9.036   6.493   4.516  0.3076 -0.2761  0.7808
  979MOL0     C32036   9.111   6.393   4.461 -1.6225 -0.5512  0.4577
  979MOL0     C32037   9.151   6.281   4.539 -0.1009 -0.9328 -0.3693
  979MOL0     O32038   9.234   6.176   4.494  0.2740  0.1618 -0.2972
  979MOL0     C32039   9.316   6.201   4.377 -0.0188 -0.2582  0.0626
  979MOL0     C32040   9.444   6.117   4.398 -0.0121  0.5968  0.4031
  979MOL0     C32041   9.535   6.103   4.273 -0.5736 -0.2937 -0.5027
  979MOL0     C32042   9.675   6.064   4.313  0.0068  0.4694  0.1547
  979MOL0     C32043   9.784   6.130   4.219  0.6741  0.2666 -0.2171
  979MOL0     C32044   9.757   6.083   4.068 -0.4984  0.2082  0.9187
  979MOL0     C32045   9.868   6.141   3.979 -0.2974  0.8417 -0.7050
  979MOL0     C32046   9.959   6.025   3.931  0.6331 -0.5126 -0.9527
  979MOL0     N32047  10.066   6.069   3.845  0.2049  0.3265 -0.3436
  979MOL0     C32048  10.051   6.074   3.709 -0.7952  0.1346 -0.3584
  979MOL0     C32049  10.180   6.108   3.672  0.6188 -0.9212  0.1913
  979MOL0     C32050  10.224   6.150   3.534  0.1943  0.0128 -0.6730
  979MOL0     C32051  10.359   6.090   3.496 -0.1967  0.6628  0.4817
  979MOL0     C32052  10.396   6.121   3.351  0.4095  0.4143  1.4477
  979MOL0     C32053  10.522   6.046   3.311 -0.5028 -0.2388  0.0311
  979MOL0     O32054  10.623   6.049   3.418 -0.1589  0.2270  0.8857
  979MOL0     C32055  10.755   6.069   3.385  0.0145  0.3455 -0.5310
  979MOL0     C32056  10.823   6.147   3.475 -0.6561  0.5641  0.9119
  979MOL0     C32057  10.959   6.180   3.453  0.1567 -0.0893  0.2335
  979MOL0     C32058  11.023   6.136   3.332  0.2551  0.1665  0.0796
  979MOL0     C32059  11.166   6.158   3.312  1.1851 -0.7820 -0.1064
  979MOL0     O32060  11.230   6.094   3.200  0.1846 -0.1242  0.6052
  979MOL0     C32061  11.370   6.111   3.181 -0.1919  0.5210 -0.0776
  979MOL0     C32062  11.440   5.999   3.131  0.2205  0.1028 -0.2499
  979MOL0     C32063  11.581   6.015   3.112  0.2015  0.4755  1.0883
  979MOL0     C32064  11.652   6.125   3.151  0.8142  0.7123  0.5531
  979MOL0     O32065  11.788   6.135   3.148 -0.2810 -0.1319  0.0477
  979MOL0     C32066  11.859   6.076   3.034  0.2255  0.3231  0.1456
  979MOL0     C32067  12.001   6.118   3.051 -0.4834 -0.2760  0.2418
  979MOL0     C32068  12.082   6.075   2.925 -0.3985 -0.4865  0.5366
  979MOL0     C32069  12.223   6.147   2.933  0.6476  0.0471  0.3928
  979MOL0     C32070  12.316   6.105   2.815 -0.4616 -0.0400  0.0615
  979MOL0     C32071  12.442   6.181   2.805  0.1913  0.3303 -0.0695
  979MOL0     C32072  12.531   6.128   2.694 -0.3495  0.0703  0.2944
  979MOL0     C32073  12.485   6.194   2.551 -0.7777  0.6744 -0.0260
  979MOL0    Cl32074  12.554   6.354   2.543 -0.4024  0.0642  0.1384
  979MOL0     C32075  11.587   6.238   3.192  0.9269 -0.2121  0.5393
  979MOL0     C32076  11.445   6.235   3.205 -0.1659 -0.5829  0.8253
  979MOL0     O32077  11.211   6.247   3.383 -0.4558  0.2085 -0.1048
  979MOL0     C32078  10.948   6.061   3.240 -0.9652 -0.8866 -0.0382
  979MOL0     C32079  10.812   6.035   3.260 -0.3750  0.7493  0.3618
  979MOL0     N32080  10.266   6.122   3.784 -0.6443  0.0701  0.0880
  979MOL0     N32081  10.197   6.093   3.886 -0.2496  0.5271 -0.1889
  979MOL0     C32082   9.084   6.271   4.665  0.0722 -0.9216 -0.2531
  979MOL0     C32083   9.000   6.370   4.711 -0.4440  0.2981  0.9379
  979MOL0     C32084   8.832   6.769   4.816 -0.3174  0.4183  0.5769
  979MOL0     C32085   8.716   6.700   4.854 -0.2983  0.0795  0.3480
  979MOL0     C32086   8.610   6.764   4.923  0.0366 -1.4400 -0.2162
  979MOL0     C32087   8.623   6.901   4.961 -0.5845  0.0844  0.2008
  979MOL0     O32088   8.515   6.964   5.028 -0.1239  0.3825 -0.9066
  979MOL0     C32089   8.444   7.067   4.962 -0.5576  0.0539  0.3321
  979MOL0     C32090   8.285   7.054   4.974 -0.8643  0.3161  0.2084
  979MOL0     C32091   8.236   6.917   4.922 -0.4767  0.4889 -0.1277
  979MOL0     C32092   8.082   6.924   4.908  0.0179  0.3593  1.0287
  979MOL0     C32093   8.040   7.000   4.784  0.6485  0.5481 -0.0244
  979MOL0     C32094   8.016   7.050   4.674 -0.7420  0.3763 -0.1778
  979MOL0     C32095   8.734   6.971   4.912 -0.1495 -0.7837 -0.1553
  979MOL0     C32096   8.835   6.910   4.829 -0.5694 -0.1568 -0.0730
  979MOL0     C32097   8.945   7.001   4.776  0.3039 -0.9543  0.0272
  979MOL0     H32098   9.023   6.589   4.467  0.1561  0.0948  1.5348
  979MOL0     H32099   9.136   6.406   4.357 -0.9745 -1.4835  0.4833
  979MOL0     H32100   9.262   6.170   4.287 -0.9504 -1.7085  1.0850
  979MOL0     H32101   9.342   6.307   4.366  0.0290 -0.2770 -0.0101
  979MOL0     H32102   9.407   6.016   4.420  0.3903 -0.3692 -2.7046
  979MOL0     H32103   9.510   6.145   4.480  0.0671  3.0784 -0.4163
  979MOL0     H32104   9.532   6.199   4.221 -1.4254  0.0180  0.1111
  979MOL0     H32105   9.497   6.028   4.203 -2.7202  2.1183 -2.0643
  979MOL0     H32106   9.698   6.095   4.416 -1.9986 -2.1322  1.4968
  979MOL0     H32107   9.672   5.956   4.300 -1.5833  0.2587  1.8864
  979MOL0     H32108   9.782   6.239   4.228  0.6096  0.0972  2.2969
  979MOL0     H32109   9.882   6.090   4.246 -0.2668 -0.8515  1.7226
  979MOL0     H32110   9.748   5.975   4.059 -0.7819  0.1666  1.6398
  979MOL0     H32111   9.661   6.127   4.042 -0.6425 -0.7311 -0.1952
  979MOL0     H32112   9.927   6.220   4.026  2.5746 -0.9900 -0.9956
  979MOL0     H32113   9.825   6.192   3.892  0.0507 -0.2347 -1.5347
  979MOL0     H32114  10.004   5.976   4.018  0.6237 -0.8633 -1.1431
  979MOL0     H32115   9.904   5.945   3.880  0.3281 -1.5439  0.9087
  979MOL0     H32116   9.964   6.073   3.645 -0.3999  1.3305 -0.9475
  979MOL0     H32117  10.139   6.120   3.473 -1.9241  3.9051  0.0183
  979MOL0     H32118  10.238   6.259   3.537 -0.6139  0.1864  4.0027
  979MOL0     H32119  10.446   6.129   3.550 -0.1166 -0.2912  1.0814
  979MOL0     H32120  10.370   5.984   3.519  3.6065  0.8942  0.3892
  979MOL0     H32121  10.430   6.225   3.344  3.0357 -0.4934 -1.6888
  979MOL0     H32122  10.316   6.105   3.278  0.3557  2.5331  0.9870
  979MOL0     H32123  10.554   6.100   3.221 -0.5989 -0.6347 -0.2460
  979MOL0     H32124  10.492   5.943   3.289 -3.1828  0.3921  0.4059
  979MOL0     H32125  10.758   6.173   3.557 -2.7934 -0.0614 -0.4984
  979MOL0     H32126  10.998   6.248   3.528 -1.7023 -0.5327  1.6973
  979MOL0     H32127  11.382   5.911   3.105 -1.1262  0.9372 -0.1594
  979MOL0     H32128  11.623   5.924   3.072  0.6748  0.5806  1.3488
  979MOL0     H32129  11.854   5.968   3.050 -2.2987  0.1475 -1.2671
  979MOL0     H32130  11.818   6.098   2.935  0.9320 -3.0782 -1.0268
  979MOL0     H32131  12.005   6.227   3.050 -2.8828 -0.1120 -1.3437
  979MOL0     H32132  12.038   6.066   3.140 -1.8331 -1.3505  0.2101
  979MOL0     H32133  12.096   5.967   2.940 -3.3518 -0.9470  0.5688
  979MOL0     H32134  12.030   6.096   2.831  0.0415  0.8365  0.5740
  979MOL0     H32135  12.271   6.132   3.030 -1.9175 -2.2860  1.4483
  979MOL0     H32136  12.204   6.254   2.918  0.8728 -0.3146 -3.8435
  979MOL0     H32137  12.271   6.112   2.715  3.2146 -0.7046 -1.8419
  979MOL0     H32138  12.341   5.999   2.829  0.6613  0.0010 -1.3444
  979MOL0     H32139  12.420   6.286   2.784 -2.2753  0.3274  1.9554
  979MOL0     H32140  12.492   6.165   2.901  0.4897 -1.1805 -0.4614
  979MOL0     H32141  12.538   6.019   2.700  2.5565  0.0489 -1.2294
  979MOL0     H32142  12.635   6.156   2.716 -0.7990  1.0782  1.2031
  979MOL0     H32143  12.528   6.142   2.465 -0.2545  2.7052 -1.0373
  979MOL0     H32144  12.376   6.190   2.544 -0.7227  0.0672 -0.6429
  979MOL0     H32145  11.640   6.329   3.218  2.3320 -0.7864 -0.1578
  979MOL0     H32146  11.401   6.325   3.247  2.7435  0.3026  2.2353
  979MOL0     H32147  10.995   6.014   3.154 -0.8344 -2.3499  0.7985
  979MOL0     H32148  10.768   5.977   3.179  1.6103 -2.5785  1.4834
  979MOL0     H32149   9.099   6.189   4.734  2.2668 -1.7395 -1.6205
  979MOL0     H32150   8.944   6.351   4.803 -1.6184 -1.6910 -0.1131
  979MOL0     H32151   8.707   6.592   4.844  1.5799 -0.0955  0.2550
  979MOL0     H32152   8.516   6.714   4.945 -2.9335  2.3200 -3.0168
  979MOL0     H32153   8.485   7.063   4.860  1.5713 -1.0240  1.1571
  979MOL0     H32154   8.479   7.159   5.011  2.5068 -0.5014 -0.5767
  979MOL0     H32155   8.231   7.123   4.908 -0.2260 -0.4664 -1.1970
  979MOL0     H32156   8.250   7.063   5.077 -0.6612 -2.3631  0.5828
  979MOL0     H32157   8.269   6.837   4.990 -0.6110 -0.6555 -1.3667
  979MOL0     H32158   8.287   6.899   4.827 -0.6266 -1.7928  0.1636
  979MOL0     H32159   8.037   6.825   4.902 -1.6501  1.1580 -0.1872
  979MOL0     H32160   8.048   6.967   5.002  1.1798  0.7680  1.2840
  979MOL0     H32161   7.991   7.092   4.579  3.5018  2.1848 -0.7221
  979MOL0     H32162   8.729   7.078   4.932  0.0486 -0.9344  0.7885
  979MOL0     H32163   9.028   6.989   4.848  0.1113 -0.2352  0.3812
  979MOL0     H32164   8.973   6.971   4.675  2.3546  0.9876 -0.0559
  979MOL0     H32165   8.905   7.102   4.767  0.7164 -0.9755 -3.1915
  980MOL0     O32166   5.831   9.074   5.383 -0.0455 -0.1761  0.6825
  980MOL0     C32167   5.802   9.066   5.498  0.2622 -0.5252  0.1586
  980MOL0     O32168   5.887   9.017   5.594 -0.0649  0.1808  0.1767
  980MOL0     C32169   6.008   8.956   5.562  1.1460  0.6871 -0.5695
  980MOL0     C32170   6.011   8.846   5.478  1.0139 -0.1701  1.1253
  980MOL0     C32171   6.134   8.798   5.417  0.1104  0.3775 -0.0880
  980MOL0     C32172   6.255   8.835   5.469 -0.1578  0.2861 -0.4212
  980MOL0     O32173   6.362   8.785   5.415 -0.6560  0.0048 -0.0829
  980MOL0     C32174   6.485   8.756   5.480  0.5444  0.0599  0.1687
  980MOL0     C32175   6.571   8.674   5.383 -0.2539 -0.0048 -0.1048
  980MOL0     C32176   6.716   8.653   5.429 -0.7413  0.8347  0.5898
  980MOL0     C32177   6.789   8.568   5.327 -0.6470 -0.1717  0.2163
  980MOL0     C32178   6.751   8.424   5.312  0.2356  0.2319  0.7147
  980MOL0     C32179   6.738   8.374   5.166  0.1254 -0.6402 -1.3349
  980MOL0     C32180   6.860   8.395   5.094  0.3156  0.2349  0.1664
  980MOL0     C32181   6.832   8.349   4.944  0.5795 -0.4024 -0.2357
  980MOL0     N32182   6.817   8.201   4.943 -0.4894 -0.5957 -0.2384
  980MOL0     C32183   6.927   8.111   4.972  0.2821 -0.6360 -0.5764
  980MOL0     C32184   6.858   7.992   4.950  0.4321 -0.6795 -0.3868
  980MOL0     C32185   6.912   7.862   4.960 -0.2852  0.0571 -0.3705
  980MOL0     C32186   6.914   7.768   4.840  0.8623 -0.5547  0.0592
  980MOL0     C32187   6.957   7.829   4.704  0.1662  0.1777 -0.1410
  980MOL0     C32188   7.107   7.868   4.685 -0.0699 -0.4402 -0.0521
  980MOL0     O32189   7.155   7.952   4.794  0.0517  0.6236  0.0531
  980MOL0     C32190   7.280   7.992   4.790  0.1625  0.7339 -0.2579
  980MOL0     C32191   7.346   8.011   4.914 -0.3330 -0.0675 -0.2575
  980MOL0     C32192   7.485   8.037   4.931  0.1734 -0.4592 -0.1747
  980MOL0     C32193   7.556   8.055   4.815  0.1999 -0.4608  0.7609
  980MOL0     C32194   7.702   8.094   4.806  0.8743  0.0100  0.1989
  980MOL0     O32195   7.748   8.171   4.696 -0.0396 -0.0902 -0.3964
  980MOL0     C32196   7.883   8.196   4.691  0.5503 -0.4368  0.8200
  980MOL0     C32197   7.940   8.269   4.796  0.2224  0.2172 -0.6359
  980MOL0     C32198   8.084   8.274   4.807  0.2187 -0.5813 -0.5401
  980MOL0     C32199   8.155   8.225   4.700 -0.1013  0.5005 -0.1379
  980MOL0     O32200   8.293   8.237   4.686  0.6739 -0.1827  1.0309
  980MOL0     C32201   8.368   8.297   4.793 -0.7039  0.2761  0.5907
  980MOL0     C32202   8.515   8.285   4.739 -0.5535  0.1896  0.4191
  980MOL0     C32203   8.544   8.143   4.704 -1.0808  0.4406 -0.4491
  980MOL0     C32204   8.687   8.090   4.743 -0.5444  0.3492  0.1303
  980MOL0     C32205   8.748   8.030   4.613  0.2367  0.1035 -0.2835
  980MOL0     C32206   8.885   7.957   4.634 -0.3954 -0.5014 -0.2657
  980MOL0     C32207   8.929   7.906   4.499 -0.8518  0.4592 -0.3698
  980MOL0     C32208   9.084   7.889   4.485  0.1875 -0.1376 -0.6216
  980MOL0    Cl32209   9.136   7.768   4.614  0.2848  0.1921  0.1728
  980MOL0     C32210   8.099   8.163   4.590  0.6232 -0.9236  0.4654
  980MOL0     C32211   7.959   8.149   4.587  0.1661  0.1072 -0.0339
  980MOL0     O32212   7.774   8.051   4.896  0.4265  0.3219 -0.5090
  980MOL0     C32213   7.492   8.039   4.687  0.1488 -0.5473  0.6098
  980MOL0     C32214   7.359   8.009   4.683  0.6415 -0.1191  0.1841
  980MOL0     N32215   6.722   8.011   4.915 -0.1689  0.0638  0.0266
  980MOL0     N32216   6.706   8.140   4.917  0.6034  0.0940 -0.2378
  980MOL0     C32217   6.250   8.940   5.571 -1.0479  0.8395  0.7393
  980MOL0     C32218   6.131   9.002   5.617  0.3490  0.0710 -0.0656
  980MOL0     C32219   5.669   9.130   5.536  0.4905 -0.5050 -0.3788
  980MOL0     C32220   5.659   9.214   5.652 -0.1810 -0.2098  0.0643
  980MOL0     C32221   5.540   9.286   5.682 -0.1219  0.1761  0.0855
  980MOL0     C32222   5.427   9.276   5.594  0.5001 -0.5760  0.7253
  980MOL0     O32223   5.301   9.339   5.613  0.2802  0.1051 -1.0119
  980MOL0     C32224   5.291   9.423   5.729 -0.0023  0.3828 -1.0235
  980MOL0     C32225   5.151   9.463   5.776 -0.3729 -0.1725 -0.3877
  980MOL0     C32226   5.029   9.469   5.682 -0.4837 -0.6453  0.1095
  980MOL0     C32227   4.893   9.486   5.762 -0.1908 -0.7306  0.5743
  980MOL0     C32228   4.855   9.626   5.752  0.1957  0.4103  0.4652
  980MOL0     C32229   4.815   9.741   5.729 -1.0023  0.5993  0.7597
  980MOL0     C32230   5.438   9.201   5.481  0.6476 -0.8854 -0.1326
  980MOL0     C32231   5.550   9.115   5.460 -0.1637  0.3124  0.3042
  980MOL0     C32232   5.530   9.025   5.343 -1.0991 -0.5169  0.4859
  980MOL0     H32233   5.914   8.815   5.442  1.4645  0.1047 -0.3910
  980MOL0     H32234   6.129   8.724   5.338  0.3688 -1.6884  1.7464
  980MOL0     H32235   6.527   8.854   5.501 -0.8109  1.1059 -1.6700
  980MOL0     H32236   6.460   8.697   5.569 -1.7172 -4.9708 -3.2656
  980MOL0     H32237   6.570   8.728   5.288 -0.2912  1.3299  0.6235
  980MOL0     H32238   6.517   8.579   5.373 -0.8186 -0.2657  3.7793
  980MOL0     H32239   6.719   8.607   5.528 -0.9930  2.1667  1.2299
  980MOL0     H32240   6.769   8.748   5.435 -1.1702  0.9905  2.6475
  980MOL0     H32241   6.768   8.624   5.235  2.2584 -0.0626 -0.4734
  980MOL0     H32242   6.897   8.576   5.345 -0.0763  1.4310 -3.0314
  980MOL0     H32243   6.833   8.364   5.351  0.4776  0.5955  0.7728
  980MOL0     H32244   6.666   8.399   5.377 -0.0855  1.4690  0.8020
  980MOL0     H32245   6.708   8.269   5.167  2.0158 -1.2747  1.4861
  980MOL0     H32246   6.661   8.430   5.112  0.6175  2.8246  1.1853
  980MOL0     H32247   6.942   8.351   5.153  0.2139  1.8488  1.6164
  980MOL0     H32248   6.876   8.503   5.097  1.1494  0.1266  2.8500
  980MOL0     H32249   6.742   8.398   4.906  0.5609 -1.2337 -1.3007
  980MOL0     H32250   6.917   8.371   4.878 -0.4771  2.7708 -0.7348
  980MOL0     H32251   7.032   8.117   4.999  0.2364  0.1169 -0.5622
  980MOL0     H32252   7.009   7.872   5.009 -0.3612 -0.5553 -0.0832
  980MOL0     H32253   6.844   7.811   5.029  0.5437 -1.4423 -0.6183
  980MOL0     H32254   6.973   7.681   4.870 -0.7402 -2.0422 -0.8729
  980MOL0     H32255   6.812   7.736   4.820 -0.2077  2.2371  0.5230
  980MOL0     H32256   6.900   7.920   4.687  0.4403  0.3037 -0.4102
  980MOL0     H32257   6.932   7.760   4.622  1.8498  0.7928 -1.2361
  980MOL0     H32258   7.116   7.926   4.592  0.8903  2.4348  1.7113
  980MOL0     H32259   7.176   7.785   4.666 -1.3362 -1.6590  0.5074
  980MOL0     H32260   7.288   8.004   5.006  2.1252 -0.5449  1.3343
  980MOL0     H32261   7.523   8.047   5.032 -0.0263  2.5618 -0.2989
  980MOL0     H32262   7.881   8.302   4.881 -1.7940  0.2239 -1.9872
  980MOL0     H32263   8.125   8.327   4.892 -1.3549  2.0902 -1.3435
  980MOL0     H32264   8.342   8.403   4.804 -0.7062  0.1596  1.8635
  980MOL0     H32265   8.353   8.241   4.886 -1.6750 -0.5465 -0.0353
  980MOL0     H32266   8.552   8.351   4.660  0.5468  0.1682  0.8958
  980MOL0     H32267   8.567   8.313   4.832 -0.6638 -2.1470  1.2761
  980MOL0     H32268   8.468   8.073   4.740 -3.1407  2.6042 -0.3703
  980MOL0     H32269   8.543   8.153   4.595 -1.1076 -0.2307 -0.5112
  980MOL0     H32270   8.658   8.020   4.823 -3.0860  0.8571 -0.2433
  980MOL0     H32271   8.753   8.163   4.790  2.6176 -1.7718 -0.6933
  980MOL0     H32272   8.774   8.109   4.542 -0.4548 -0.7440 -1.5331
  980MOL0     H32273   8.664   7.971   4.573  0.5065  1.1412 -2.5490
  980MOL0     H32274   8.957   8.034   4.663 -0.6059 -0.2822 -0.3237
  980MOL0     H32275   8.879   7.878   4.710 -0.6815 -0.3360 -0.1127
  980MOL0     H32276   8.906   7.977   4.419 -2.2359  0.1340 -0.2970
  980MOL0     H32277   8.878   7.811   4.481  0.0656  0.2878 -2.2326
  980MOL0     H32278   9.097   7.854   4.382 -0.8402 -1.8099 -0.2188
  980MOL0     H32279   9.141   7.981   4.502  0.9375 -0.6492 -0.3019
  980MOL0     H32280   8.175   8.136   4.518  0.5957  2.5965 -1.1188
  980MOL0     H32281   7.901   8.110   4.503 -1.7147 -1.8058  2.0290
  980MOL0     H32282   7.540   8.053   4.591  1.4670 -3.9511  0.6193
  980MOL0     H32283   7.317   8.009   4.583 -4.0436  2.8431  1.7924
  980MOL0     H32284   6.345   8.974   5.612  0.3512 -1.0173 -0.7417
  980MOL0     H32285   6.142   9.082   5.689 -0.9505  0.5796 -0.4086
  980MOL0     H32286   5.744   9.236   5.716 -1.0063 -0.4781  1.2860
  980MOL0     H32287   5.538   9.346   5.773 -1.5075 -1.1001  0.9417
  980MOL0     H32288   5.344   9.518   5.718  3.0125 -0.7102  2.1029
  980MOL0     H32289   5.334   9.366   5.812 -1.2064 -1.0031 -1.3095
  980MOL0     H32290   5.166   9.558   5.828 -0.9557  0.7574 -1.8604
  980MOL0     H32291   5.115   9.385   5.844 -1.4176 -0.2880 -1.0469
  980MOL0     H32292   5.030   9.371   5.633 -2.4698 -0.5083 -0.2988
  980MOL0     H32293   5.041   9.552   5.612 -1.4370 -2.4237 -2.2958
  980MOL0     H32294   4.811   9.433   5.712 -1.6835  1.1805  0.8779
  980MOL0     H32295   4.893   9.462   5.868 -0.2628 -0.1393  0.7105
  980MOL0     H32296   4.770   9.835   5.704  0.8374  1.1978 -0.4372
  980MOL0     H32297   5.357   9.186   5.410 -0.5349 -3.0731  1.5364
  980MOL0     H32298   5.441   8.966   5.366 -1.8513 -0.6961 -2.5176
  980MOL0     H32299   5.519   9.078   5.248  1.4910 -2.4559 -1.0423
  980MOL0     H32300   5.601   8.942   5.352  0.9398  1.2873  2.8736
  981MOL0     O32301   9.289   0.194   9.427  0.2928 -0.0834 -0.6703
  981MOL0     C32302   9.271   0.107   9.514 -0.7934 -0.3962  0.3166
  981MOL0     O32303   9.347   0.097   9.633  0.1349  0.1148 -0.2405
  981MOL0     C32304   9.445   0.191   9.645  0.1762 -0.8035 -0.9250
  981MOL0     C32305   9.578   0.151   9.667 -0.1222 -0.3009  0.1912
  981MOL0     C32306   9.682   0.237   9.697  0.0453 -0.2603  0.5923
  981MOL0     C32307   9.644   0.374   9.688 -0.9768 -0.2364  0.4860
  981MOL0     O32308   9.750   0.453   9.714 -0.5035  0.1009  0.7865
  981MOL0     C32309   9.761   0.566   9.629  0.1290  0.5903 -0.1155
  981MOL0     C32310   9.905   0.609   9.590  0.1047 -0.2308 -0.7761
  981MOL0     C32311   9.984   0.702   9.687  0.5758  1.0280  0.2502
  981MOL0     C32312  10.126   0.747   9.631 -0.3088 -0.4210 -0.6559
  981MOL0     C32313  10.183   0.861   9.701 -0.7906  0.1742 -0.4147
  981MOL0     C32314  10.300   0.922   9.628 -0.6902  0.8732  0.0125
  981MOL0     C32315  10.365   1.019   9.726  0.1291 -0.6390 -0.5471
  981MOL0     C32316  10.507   1.064   9.674  0.8767 -0.3189  0.0713
  981MOL0     N32317  10.583   1.115   9.795 -0.3810  0.8012 -0.3515
  981MOL0     C32318  10.615   1.248   9.816  0.2580 -0.1855 -0.0084
  981MOL0     C32319  10.688   1.252   9.931 -0.1265 -0.1512  0.2130
  981MOL0     C32320  10.741   1.374  10.014  0.3428  0.9807  0.4315
  981MOL0     C32321  10.708   1.499   9.940 -0.5280  0.2845  0.4103
  981MOL0     C32322  10.778   1.604  10.041  0.5017  0.3269  0.2762
  981MOL0     C32323  10.756   1.744   9.994  0.2167 -0.3534 -0.0706
  981MOL0     O32324  10.805   1.756   9.857 -0.4565  0.2838  0.6653
  981MOL0     C32325  10.938   1.787   9.846 -0.1278  0.1070 -0.1982
  981MOL0     C32326  11.032   1.684   9.848  0.4289 -0.4149 -0.7794
  981MOL0     C32327  11.165   1.719   9.843 -0.1193 -0.8487 -0.2025
  981MOL0     C32328  11.212   1.851   9.846 -0.1869 -0.5875 -0.1618
  981MOL0     C32329  11.357   1.887   9.858  0.3650  0.3678 -0.4411
  981MOL0     O32330  11.443   1.782   9.833  0.3891  0.1509 -0.0697
  981MOL0     C32331  11.576   1.798   9.833  0.4098 -0.0261 -0.1658
  981MOL0     C32332  11.629   1.911   9.764  0.4879 -0.5296 -0.3981
  981MOL0     C32333  11.767   1.942   9.780 -0.1703 -0.0313  0.3432
  981MOL0     C32334  11.850   1.866   9.857 -0.5712  0.1737  0.2982
  981MOL0     O32335  11.979   1.910   9.882 -0.2798  0.3226  0.3575
  981MOL0     C32336  12.085   1.809   9.899 -0.0129  0.0619  0.3279
  981MOL0     C32337  12.203   1.818   9.796  0.4593 -0.2364  0.6660
  981MOL0     C32338  12.300   1.710   9.827  0.5707 -1.6285 -0.1529
  981MOL0     C32339  12.384   1.741   9.951  0.6820 -0.7910  0.1027
  981MOL0     C32340  12.501   1.650   9.930 -1.2608  0.4700  0.2519
  981MOL0     C32341  12.586   1.653  10.053  0.1307  0.2946 -0.0048
  981MOL0     C32342  12.618   1.797  10.104  0.0042  0.3387  0.3322
  981MOL0     C32343  12.729   1.793  10.195  0.1908 -0.9165 -0.5699
  981MOL0    Cl32344  12.668   1.751  10.360 -0.0161  0.3703 -0.0572
  981MOL0     C32345  11.789   1.756   9.925 -0.5546  0.2343 -0.1496
  981MOL0     C32346  11.655   1.710   9.914 -0.5030 -0.5302  0.0051
  981MOL0     O32347  11.398   1.998   9.891  0.0909 -0.7377  0.0788
  981MOL0     C32348  11.114   1.949   9.842  0.6783 -0.8192 -0.7812
  981MOL0     C32349  10.974   1.924   9.846 -0.6795  0.1580 -0.1117
  981MOL0     N32350  10.676   1.123   9.986 -0.0857  0.2908  1.0742
  981MOL0     N32351  10.621   1.041   9.902  0.3341  0.2433 -0.4930
  981MOL0     C32352   9.520   0.421   9.665 -0.6118 -0.5320  0.2759
  981MOL0     C32353   9.416   0.328   9.645  0.5186 -0.7407 -0.0572
  981MOL0     C32354   9.151   0.023   9.490  0.0578  0.2699 -0.1973
  981MOL0     C32355   9.063   0.069   9.386  0.0626  0.0426 -0.0885
  981MOL0     C32356   8.931   0.031   9.388 -0.2331 -0.2415  0.5049
  981MOL0     C32357   8.885  -0.057   9.484 -0.1399  0.0343  1.0957
  981MOL0     O32358   8.747  -0.096   9.476 -0.2636  0.5393 -0.0605
  981MOL0     C32359   8.646  -0.014   9.413  0.2223 -0.0310 -0.1688
  981MOL0     C32360   8.504  -0.069   9.457  0.1582 -0.2446  0.2578
  981MOL0     C32361   8.481  -0.070   9.608 -0.3576 -0.7819  0.4495
  981MOL0     C32362   8.503   0.077   9.678 -0.4246  0.1353  0.1422
  981MOL0     C32363   8.430   0.080   9.797 -0.0975 -0.1601  0.1201
  981MOL0     C32364   8.376   0.077   9.908 -0.0931  0.1199 -0.1659
  981MOL0     C32365   8.971  -0.111   9.576 -0.3215 -0.0003 -0.5123
  981MOL0     C32366   9.104  -0.078   9.579 -0.9924 -0.0988 -0.1799
  981MOL0     C32367   9.177  -0.139   9.687  0.2967 -0.2119 -0.5348
  981MOL0     H32368   9.597   0.044   9.666  2.6718  0.0881  1.7937
  981MOL0     H32369   9.783   0.203   9.717  0.1832 -1.0987 -1.3021
  981MOL0     H32370   9.706   0.539   9.538  1.5881 -0.9019 -0.6050
  981MOL0     H32371   9.706   0.651   9.671 -0.6555  0.5635 -1.0500
  981MOL0     H32372   9.898   0.655   9.491  0.5495 -1.3904 -1.3685
  981MOL0     H32373   9.958   0.513   9.593 -1.3171 -1.0816  3.3160
  981MOL0     H32374   9.981   0.656   9.786  1.8595  3.2646  1.3948
  981MOL0     H32375   9.923   0.791   9.699 -2.3277 -0.9490  1.1912
  981MOL0     H32376  10.190   0.659   9.638 -0.2451 -0.2802  1.1027
  981MOL0     H32377  10.099   0.776   9.529 -0.4318  0.1232 -0.4716
  981MOL0     H32378  10.112   0.940   9.726 -0.4721 -0.7382  4.1936
  981MOL0     H32379  10.209   0.824   9.800 -2.7770 -1.5516 -0.4744
  981MOL0     H32380  10.362   0.832   9.618 -1.6660  0.0221  1.3591
  981MOL0     H32381  10.269   0.965   9.532  0.1379  1.3577 -0.0567
  981MOL0     H32382  10.368   0.981   9.829 -1.2750  1.6799  0.4162
  981MOL0     H32383  10.302   1.108   9.734  2.7349  1.3088 -0.5289
  981MOL0     H32384  10.559   0.972   9.646  0.8722 -0.6084  0.9757
  981MOL0     H32385  10.509   1.131   9.588  1.3197  0.2365  0.5017
  981MOL0     H32386  10.575   1.331   9.759  1.9146  0.7289  0.1308
  981MOL0     H32387  10.695   1.364  10.112  0.0254  2.1824  0.4124
  981MOL0     H32388  10.848   1.354  10.025  1.4743  2.3413 -5.0448
  981MOL0     H32389  10.755   1.506   9.842  1.2040 -1.0143  1.0795
  981MOL0     H32390  10.601   1.517   9.941 -0.7081 -0.6205 -0.6578
  981MOL0     H32391  10.884   1.580  10.057 -0.0632 -2.8107  0.0595
  981MOL0     H32392  10.723   1.611  10.136 -2.3504  0.5729 -1.2918
  981MOL0     H32393  10.808   1.824  10.048 -2.1987  1.3901 -0.1528
  981MOL0     H32394  10.649   1.764  10.007  0.4741 -0.4068  2.7211
  981MOL0     H32395  11.000   1.580   9.847 -0.9218 -0.0645  0.6463
  981MOL0     H32396  11.231   1.633   9.833  0.1760 -0.6362 -0.1102
  981MOL0     H32397  11.570   1.983   9.709 -0.4763 -1.5398 -0.7114
  981MOL0     H32398  11.806   2.037   9.743 -1.3431 -0.8274 -3.3240
  981MOL0     H32399  12.124   1.825   9.999 -0.0889  0.4819  0.2937
  981MOL0     H32400  12.044   1.708   9.891  0.6973 -0.2283  0.2745
  981MOL0     H32401  12.160   1.799   9.697 -2.7437  0.6818  1.7395
  981MOL0     H32402  12.231   1.924   9.797 -0.8630  0.2291 -2.1512
  981MOL0     H32403  12.240   1.620   9.842 -0.5913 -0.5254  2.6617
  981MOL0     H32404  12.366   1.702   9.740  1.1476  2.1402 -0.2454
  981MOL0     H32405  12.332   1.726  10.046 -1.7837  0.2714 -0.9612
  981MOL0     H32406  12.410   1.847   9.945  1.2997 -0.8289  1.8188
  981MOL0     H32407  12.568   1.679   9.848 -3.1602 -1.2100 -2.0496
  981MOL0     H32408  12.465   1.549   9.907  2.2732 -0.2298 -3.3478
  981MOL0     H32409  12.539   1.588  10.128  1.1147 -2.6917 -1.7754
  981MOL0     H32410  12.677   1.605  10.016  1.7952  1.7086  2.0427
  981MOL0     H32411  12.526   1.838  10.147 -0.6516 -1.5211  0.7813
  981MOL0     H32412  12.644   1.861  10.020  2.6890 -1.2646 -0.1622
  981MOL0     H32413  12.806   1.721  10.167  0.6865  0.2927 -2.5802
  981MOL0     H32414  12.774   1.893  10.196  1.4200 -1.4455 -0.9117
  981MOL0     H32415  11.857   1.695   9.984  0.7630  0.5532 -1.2804
  981MOL0     H32416  11.617   1.625   9.969 -1.4390 -1.9690 -2.6701
  981MOL0     H32417  11.144   2.053   9.852 -2.1063 -0.1131  1.9706
  981MOL0     H32418  10.895   1.996   9.834  0.7838  1.8649  0.1262
  981MOL0     H32419   9.509   0.529   9.658 -1.4400 -0.6376 -0.1762
  981MOL0     H32420   9.320   0.366   9.612  0.1969 -1.7274 -0.2649
  981MOL0     H32421   9.097   0.134   9.307 -2.2103  1.4827  0.0158
  981MOL0     H32422   8.867   0.071   9.311  1.3735 -0.7228 -1.1590
  981MOL0     H32423   8.649  -0.022   9.304 -1.4467 -2.3726 -0.1156
  981MOL0     H32424   8.679   0.085   9.445  1.2656  0.8742 -3.6531
  981MOL0     H32425   8.496  -0.175   9.432 -0.8845 -0.2794  0.6640
  981MOL0     H32426   8.419  -0.029   9.401 -1.6377 -3.7493  0.1899
  981MOL0     H32427   8.563  -0.135   9.640  2.4660  1.9309 -0.7316
  981MOL0     H32428   8.385  -0.114   9.633 -0.8877  0.3532  0.4736
  981MOL0     H32429   8.609   0.093   9.702 -0.5884  0.6843  0.5189
  981MOL0     H32430   8.481   0.164   9.614  0.2480 -0.1862 -0.5483
  981MOL0     H32431   8.310   0.066   9.992 -0.5662  2.4976 -0.1583
  981MOL0     H32432   8.934  -0.187   9.643  0.2525  1.4162  1.5101
  981MOL0     H32433   9.121  -0.219   9.737  0.4941 -1.2749 -1.9558
  981MOL0     H32434   9.276  -0.178   9.665  0.1177 -1.1165  0.2189
  981MOL0     H32435   9.192  -0.064   9.766 -2.8169 -0.8446  0.8140
  982MOL0     O32436   6.887   4.839   4.832 -0.5888  0.2407  1.4642
  982MOL0     C32437   6.847   4.792   4.728  0.1621 -0.0507 -0.4783
  982MOL0     O32438   6.919   4.788   4.604 -0.4355  0.2185  1.3103
  982MOL0     C32439   7.036   4.858   4.592 -0.4614 -0.0187 -0.3778
  982MOL0     C32440   7.048   4.953   4.487  0.5948  0.3072 -0.1265
  982MOL0     C32441   7.167   5.022   4.460 -0.5780 -0.1772 -0.0078
  982MOL0     C32442   7.277   4.997   4.542 -0.8717  0.1344 -0.2420
  982MOL0     O32443   7.399   5.073   4.530 -0.2419  0.3680  0.4498
  982MOL0     C32444   7.428   5.142   4.405  0.5934  0.5701 -0.3477
  982MOL0     C32445   7.578   5.170   4.423  0.5262 -0.1611  0.1904
  982MOL0     C32446   7.634   5.216   4.285 -0.4635 -0.4878  1.0176
  982MOL0     C32447   7.775   5.269   4.290 -0.5647  0.5476 -0.9195
  982MOL0     C32448   7.832   5.343   4.168 -0.9681  0.3241  0.1645
  982MOL0     C32449   7.982   5.381   4.175  0.1349  0.4000  0.9427
  982MOL0     C32450   8.021   5.455   4.042 -0.4166 -0.4378  0.3438
  982MOL0     C32451   8.174   5.487   4.024  0.1992 -0.4353  0.0430
  982MOL0     N32452   8.245   5.357   4.004 -0.3415 -0.5933 -0.1625
  982MOL0     C32453   8.251   5.289   3.883 -1.0509 -0.1207 -0.4081
  982MOL0     C32454   8.347   5.193   3.895  0.6568 -0.6588 -0.6551
  982MOL0     C32455   8.384   5.084   3.803 -0.6185  0.0091  0.3669
  982MOL0     C32456   8.430   5.137   3.666 -0.3359  0.8704 -0.7863
  982MOL0     C32457   8.558   5.223   3.674  0.1348 -0.5458 -1.0947
  982MOL0     C32458   8.579   5.303   3.538  0.7105 -0.5106  0.2820
  982MOL0     O32459   8.559   5.206   3.423  0.2919 -0.3412 -0.7312
  982MOL0     C32460   8.655   5.105   3.410  0.4069  0.0975 -0.2260
  982MOL0     C32461   8.785   5.114   3.460 -0.2769  0.1047  0.3150
  982MOL0     C32462   8.871   5.009   3.423 -0.1276  0.0556  0.3868
  982MOL0     C32463   8.840   4.906   3.334  1.3039  0.9332 -0.9019
  982MOL0     C32464   8.941   4.827   3.267 -1.0911 -0.6655  0.1893
  982MOL0     O32465   8.913   4.781   3.142 -0.7190 -0.7559 -1.1569
  982MOL0     C32466   9.026   4.739   3.071  0.3824  0.3322 -0.2736
  982MOL0     C32467   9.048   4.789   2.943  0.1448 -0.1910 -0.0570
  982MOL0     C32468   9.148   4.731   2.862 -0.1820  0.0428  0.0879
  982MOL0     C32469   9.213   4.610   2.892 -0.1761  0.3283 -0.5826
  982MOL0     O32470   9.300   4.544   2.806  0.4577 -0.1662 -0.4041
  982MOL0     C32471   9.270   4.548   2.669 -0.2305 -0.8002 -0.7346
  982MOL0     C32472   9.381   4.636   2.592  0.1529 -0.0185  0.5903
  982MOL0     C32473   9.526   4.592   2.615 -1.1681  1.1248 -0.5150
  982MOL0     C32474   9.629   4.692   2.554  0.4039 -0.2339 -0.8480
  982MOL0     C32475   9.772   4.631   2.562  0.0814 -0.5767  0.2269
  982MOL0     C32476   9.837   4.647   2.709  0.0071 -0.6725 -0.2289
  982MOL0     C32477   9.985   4.621   2.703  0.5294  0.4118  0.7851
  982MOL0     C32478  10.051   4.652   2.836  0.9215  0.5562 -0.1233
  982MOL0    Cl32479   9.950   4.602   2.974  0.0508  0.0371 -0.1103
  982MOL0     C32480   9.190   4.552   3.019  0.0104 -0.2308  0.7424
  982MOL0     C32481   9.099   4.620   3.108  0.1918 -0.6659  0.0754
  982MOL0     O32482   9.058   4.826   3.318 -0.1609 -0.0785  0.3107
  982MOL0     C32483   8.703   4.899   3.291 -0.3312 -1.0038  0.3435
  982MOL0     C32484   8.618   5.009   3.314 -0.2276 -0.6398 -0.0974
  982MOL0     N32485   8.398   5.205   4.027 -0.2936  0.3553 -0.2934
  982MOL0     N32486   8.344   5.304   4.082  0.2504 -0.4094  0.2723
  982MOL0     C32487   7.268   4.901   4.637 -0.0233 -0.6420 -0.3395
  982MOL0     C32488   7.141   4.844   4.672 -0.1711 -0.4578  0.1143
  982MOL0     C32489   6.708   4.737   4.738  0.6194  0.0708 -0.1683
  982MOL0     C32490   6.675   4.659   4.620  0.4548 -0.0665 -0.7265
  982MOL0     C32491   6.553   4.588   4.619  0.5995 -0.6573 -0.5042
  982MOL0     C32492   6.464   4.600   4.722 -1.4737 -0.2391  0.1493
  982MOL0     O32493   6.354   4.530   4.727 -0.4916 -0.4881 -0.1892
  982MOL0     C32494   6.241   4.609   4.703 -0.3067  0.0009  0.0658
  982MOL0     C32495   6.129   4.534   4.755  1.0050 -0.5421  0.1149
  982MOL0     C32496   5.994   4.605   4.724 -1.0420 -1.0115  0.1637
  982MOL0     C32497   5.883   4.558   4.805 -0.3897 -0.0413  0.3080
  982MOL0     C32498   5.758   4.607   4.754  0.4704 -0.0988 -0.6774
  982MOL0     C32499   5.659   4.671   4.727  0.3641 -0.6005  0.5004
  982MOL0     C32500   6.500   4.683   4.830  0.4886 -0.2185  0.7475
  982MOL0     C32501   6.621   4.756   4.846  0.3305 -0.4462  1.0603
  982MOL0     C32502   6.652   4.830   4.977 -0.0832  0.0457 -0.7070
  982MOL0     H32503   6.962   4.963   4.422 -0.3341  0.2898  1.0709
  982MOL0     H32504   7.173   5.099   4.384  2.9041 -0.6506 -0.3840
  982MOL0     H32505   7.406   5.070   4.325  0.4799  1.7058 -1.3635
  982MOL0     H32506   7.373   5.235   4.392 -0.4416 -0.0253 -0.3801
  982MOL0     H32507   7.633   5.081   4.457  0.0074 -2.1290 -3.5485
  982MOL0     H32508   7.578   5.252   4.495 -1.9150  2.8390 -2.8953
  982MOL0     H32509   7.576   5.291   4.232  1.1216 -0.5868 -1.0218
  982MOL0     H32510   7.631   5.133   4.213 -3.1094 -0.3495  0.8936
  982MOL0     H32511   7.790   5.335   4.375  0.5177 -0.0006 -0.6688
  982MOL0     H32512   7.844   5.186   4.307 -0.2800  1.1290  0.9682
  982MOL0     H32513   7.807   5.293   4.074 -1.8516  1.8970 -0.4687
  982MOL0     H32514   7.776   5.436   4.160 -2.0439 -0.3490 -0.3049
  982MOL0     H32515   7.993   5.455   4.255 -1.4105  2.5404 -0.6723
  982MOL0     H32516   8.034   5.287   4.191 -1.0446 -0.6657 -1.0901
  982MOL0     H32517   7.961   5.547   4.046 -2.5335 -1.7656  5.1291
  982MOL0     H32518   7.983   5.400   3.955 -1.2198 -1.2821  1.2132
  982MOL0     H32519   8.192   5.555   3.940  2.9735 -1.0356  0.0411
  982MOL0     H32520   8.210   5.534   4.116 -0.2876 -2.1931  1.1983
  982MOL0     H32521   8.194   5.312   3.793 -0.6817  2.2828 -0.1099
  982MOL0     H32522   8.463   5.021   3.845 -2.6889 -2.2910  1.0003
  982MOL0     H32523   8.304   5.011   3.790  0.8328 -1.7523  0.9217
  982MOL0     H32524   8.431   5.055   3.593 -1.5238 -1.9056  2.0846
  982MOL0     H32525   8.348   5.203   3.634 -0.6308  1.2260  0.6394
  982MOL0     H32526   8.647   5.163   3.695  0.4711  1.0325  2.7674
  982MOL0     H32527   8.545   5.292   3.758  2.5242 -0.1361 -0.9783
  982MOL0     H32528   8.680   5.345   3.532  0.2695  0.6209  0.6328
  982MOL0     H32529   8.496   5.374   3.526 -0.3581 -1.5403  1.3322
  982MOL0     H32530   8.817   5.193   3.528 -0.0596 -0.5404  0.9698
  982MOL0     H32531   8.971   5.018   3.463  0.2115  0.8235 -0.5980
  982MOL0     H32532   8.987   4.868   2.899  1.4287  0.5350 -0.5884
  982MOL0     H32533   9.185   4.780   2.773  2.2826 -1.1733  0.3592
  982MOL0     H32534   9.262   4.446   2.631 -1.2743 -1.3137  0.7955
  982MOL0     H32535   9.184   4.610   2.643  1.3482  1.8171 -0.1303
  982MOL0     H32536   9.365   4.601   2.489 -0.7236 -2.6070  1.5446
  982MOL0     H32537   9.362   4.744   2.596 -1.3180 -0.1937 -0.5946
  982MOL0     H32538   9.544   4.590   2.723  3.0200 -3.0009 -0.9692
  982MOL0     H32539   9.540   4.493   2.573  0.9406  1.4858 -0.7705
  982MOL0     H32540   9.632   4.778   2.622 -1.2279 -0.1933 -0.8074
  982MOL0     H32541   9.611   4.738   2.457  3.6879 -1.2887 -2.1204
  982MOL0     H32542   9.831   4.691   2.492  2.4354 -0.8474  1.8388
  982MOL0     H32543   9.786   4.528   2.527  1.9964 -0.6310  1.0293
  982MOL0     H32544   9.816   4.745   2.753 -0.7706 -1.5949  1.5423
  982MOL0     H32545   9.785   4.569   2.766 -1.3207  0.8790  0.7656
  982MOL0     H32546  10.031   4.679   2.623 -3.0246 -0.4637 -2.2248
  982MOL0     H32547   9.995   4.514   2.679 -2.9255  0.1147  0.1341
  982MOL0     H32548  10.149   4.604   2.835 -0.2223 -1.8981 -0.0671
  982MOL0     H32549  10.052   4.762   2.834 -1.9041  0.6418 -0.2098
  982MOL0     H32550   9.237   4.455   3.035  1.2631 -0.5787 -3.6892
  982MOL0     H32551   9.073   4.584   3.207 -1.7109 -1.8449 -0.7788
  982MOL0     H32552   8.669   4.813   3.233 -1.1013 -0.2823 -0.2981
  982MOL0     H32553   8.519   5.016   3.269 -0.4592 -0.1570  0.4710
  982MOL0     H32554   7.365   4.878   4.680  0.6821  1.3116 -0.7824
  982MOL0     H32555   7.134   4.770   4.750 -1.6786 -1.1041 -0.5939
  982MOL0     H32556   6.755   4.642   4.548  1.4968  0.0694  0.3641
  982MOL0     H32557   6.537   4.515   4.540 -0.0398 -1.9412  0.7790
  982MOL0     H32558   6.221   4.634   4.599 -1.6350 -2.6145 -0.3987
  982MOL0     H32559   6.246   4.708   4.749 -0.3256  0.0518 -0.0421
  982MOL0     H32560   6.144   4.535   4.863  0.0966  0.3590  0.2460
  982MOL0     H32561   6.127   4.433   4.714  0.2736 -0.1507 -0.8893
  982MOL0     H32562   5.970   4.601   4.618 -2.0512  0.2206  0.3254
  982MOL0     H32563   6.008   4.710   4.750  0.8946 -1.6790  2.0887
  982MOL0     H32564   5.884   4.449   4.808 -0.9543 -0.0922 -0.7497
  982MOL0     H32565   5.881   4.599   4.907 -0.6678  1.9203 -0.4343
  982MOL0     H32566   5.578   4.734   4.698  1.3238 -0.6188 -2.5832
  982MOL0     H32567   6.438   4.673   4.918  2.4196  0.5346  2.2804
  982MOL0     H32568   6.671   4.936   4.955  0.2982  0.0891 -0.1690
  982MOL0     H32569   6.565   4.816   5.042 -1.3543  1.8051 -1.9403
  982MOL0     H32570   6.747   4.791   5.014  0.8604 -0.1477 -3.1363
  983MOL0     O32571   5.920  10.814  11.051  0.3891  0.3973 -0.3290
  983MOL0     C32572   5.930  10.798  11.175  0.1535 -0.4863 -0.4291
  983MOL0     O32573   6.012  10.872  11.253 -0.3665  0.8373 -0.1189
  983MOL0     C32574   6.135  10.929  11.213  0.0958  0.4610  0.4906
  983MOL0     C32575   6.182  11.029  11.298  0.4481 -0.0565 -0.3923
  983MOL0     C32576   6.293  11.100  11.253 -0.2092  0.0474  0.1601
  983MOL0     C32577   6.356  11.075  11.133 -0.8802  0.1854  0.0496
  983MOL0     O32578   6.466  11.156  11.109 -0.3189  0.1959  0.3245
  983MOL0     C32579   6.527  11.138  10.980  0.0543  0.4869 -0.2316
  983MOL0     C32580   6.603  11.269  10.962 -0.2326  0.2863  0.6419
  983MOL0     C32581   6.656  11.286  10.821 -1.9825 -0.2723 -0.0675
  983MOL0     C32582   6.726  11.423  10.811  0.4912 -0.0994 -0.3271
  983MOL0     C32583   6.856  11.408  10.883 -0.0638 -0.3192  0.4066
  983MOL0     C32584   6.945  11.525  10.826 -0.7960  0.2131 -0.6860
  983MOL0     C32585   7.066  11.542  10.924  0.0294 -0.1851 -0.2414
  983MOL0     C32586   7.169  11.434  10.901 -0.2946 -0.1057  0.2467
  983MOL0     N32587   7.296  11.460  10.963  0.5348 -0.2715  0.3158
  983MOL0     C32588   7.369  11.357  11.018  0.6076 -0.7084 -0.3163
  983MOL0     C32589   7.485  11.414  11.050  0.8767 -0.7942 -0.3406
  983MOL0     C32590   7.607  11.341  11.100 -0.0885 -0.1660  0.1857
  983MOL0     C32591   7.728  11.350  11.017 -0.6890 -0.1632  0.1038
  983MOL0     C32592   7.783  11.496  11.012  0.5735  1.0239  0.0188
  983MOL0     C32593   7.936  11.497  10.976  0.7779  0.1045 -0.3420
  983MOL0     O32594   8.026  11.515  11.088 -0.6940 -0.5678  0.1909
  983MOL0     C32595   8.157  11.523  11.058  0.3565 -0.4696 -0.1950
  983MOL0     C32596   8.215  11.503  10.934 -0.1516  0.0585 -0.5057
  983MOL0     C32597   8.352  11.485  10.911 -0.0866  0.3045  0.2279
  983MOL0     C32598   8.444  11.497  11.020 -0.4842  0.6508  0.4952
  983MOL0     C32599   8.589  11.470  10.992  0.8589  0.1465 -0.0094
  983MOL0     O32600   8.629  11.429  10.860  0.3489  0.4641 -0.8056
  983MOL0     C32601   8.765  11.404  10.840 -0.0691  0.0210 -0.6196
  983MOL0     C32602   8.847  11.313  10.905  0.1103 -0.0985  0.7249
  983MOL0     C32603   8.982  11.299  10.866  0.1757  0.7617 -0.3326
  983MOL0     C32604   9.036  11.371  10.754 -0.1375  0.3497  0.2632
  983MOL0     O32605   9.168  11.358  10.715  0.4683 -0.8875 -0.8626
  983MOL0     C32606   9.219  11.222  10.701  0.2718 -1.1835  1.4048
  983MOL0     C32607   9.372  11.217  10.669 -0.8381  0.0391 -0.5237
  983MOL0     C32608   9.454  11.248  10.799  0.0111  0.0190 -0.3829
  983MOL0     C32609   9.604  11.251  10.762  0.4428  0.3267 -0.0047
  983MOL0     C32610   9.693  11.251  10.896  0.8222 -0.3185  0.0147
  983MOL0     C32611   9.829  11.201  10.868  0.2207  0.3426  0.6077
  983MOL0     C32612   9.904  11.139  10.985  0.7614  0.3002 -0.5808
  983MOL0     C32613  10.039  11.063  10.941 -0.2154 -0.4603 -0.2123
  983MOL0    Cl32614  10.131  11.166  10.838 -0.2061  0.3805 -0.0198
  983MOL0     C32615   8.956  11.469  10.697  0.6831 -0.3318  0.9440
  983MOL0     C32616   8.821  11.488  10.748 -0.7307  0.2825  0.3011
  983MOL0     O32617   8.667  11.480  11.086  0.2022 -0.3109  0.0419
  983MOL0     C32618   8.394  11.535  11.142 -0.0391  0.1608  0.9293
  983MOL0     C32619   8.254  11.549  11.165 -0.2318 -0.2684  0.1071
  983MOL0     N32620   7.477  11.547  11.019 -0.2390  0.6678  0.2698
  983MOL0     N32621   7.372  11.574  10.961 -0.1350 -1.0319 -0.1959
  983MOL0     C32622   6.304  10.978  11.041  0.1050  0.6070 -0.2334
  983MOL0     C32623   6.187  10.911  11.081  0.4004  0.3950  0.2119
  983MOL0     C32624   5.822  10.717  11.235  0.3322  0.1892 -0.0448
  983MOL0     C32625   5.823  10.705  11.376  0.6297  0.5242 -0.4042
  983MOL0     C32626   5.746  10.617  11.453  0.4976 -0.2495  0.6889
  983MOL0     C32627   5.655  10.542  11.379  0.4899 -0.0362 -0.2695
  983MOL0     O32628   5.569  10.465  11.451 -0.2021 -0.0184  0.0478
  983MOL0     C32629   5.482  10.375  11.377 -0.1606 -0.8985  0.6396
  983MOL0     C32630   5.428  10.253  11.456 -0.3569  0.9701 -0.1274
  983MOL0     C32631   5.326  10.293  11.565  0.4299  0.3677 -1.1765
  983MOL0     C32632   5.206  10.362  11.492  0.5599 -0.3672  0.3379
  983MOL0     C32633   5.070  10.344  11.549 -0.2615  0.2472 -0.0973
  983MOL0     C32634   4.961  10.332  11.599 -0.0792  1.1280  0.2626
  983MOL0     C32635   5.645  10.559  11.234  0.3228  0.4597 -0.5004
  983MOL0     C32636   5.724  10.648  11.163 -0.2594  0.2039 -0.2178
  983MOL0     C32637   5.710  10.650  11.019  0.1381  0.1055 -0.6717
  983MOL0     H32638   6.130  11.049  11.391 -0.2268 -0.3191 -0.7078
  983MOL0     H32639   6.327  11.188  11.306 -1.5843  1.0492 -0.5544
  983MOL0     H32640   6.585  11.047  10.965 -0.2835  0.1645  0.4007
  983MOL0     H32641   6.448  11.148  10.905  3.1010  0.7172 -3.7123
  983MOL0     H32642   6.685  11.280  11.034 -1.0129  1.9795  1.3288
  983MOL0     H32643   6.533  11.347  10.993  0.8913  0.7443  2.1675
  983MOL0     H32644   6.575  11.284  10.747 -0.9358  0.7614 -1.2832
  983MOL0     H32645   6.721  11.207  10.781 -2.0065 -1.1359  1.5497
  983MOL0     H32646   6.733  11.452  10.705  0.6436 -1.0111 -0.5734
  983MOL0     H32647   6.664  11.502  10.855  3.2962  0.3500  3.2410
  983MOL0     H32648   6.834  11.416  10.990 -1.7933 -1.8660  0.2130
  983MOL0     H32649   6.904  11.311  10.869 -0.3783 -0.3863 -0.2354
  983MOL0     H32650   6.976  11.494  10.726  2.7435 -0.9129  0.6234
  983MOL0     H32651   6.890  11.619  10.814  0.3525  1.2734  1.7504
  983MOL0     H32652   7.026  11.537  11.026 -0.1977 -0.4952 -0.3426
  983MOL0     H32653   7.115  11.640  10.917 -0.8070  0.2742  0.1538
  983MOL0     H32654   7.143  11.342  10.955  0.3418 -0.2849  0.2587
  983MOL0     H32655   7.190  11.419  10.794  4.0671  0.4671  0.8319
  983MOL0     H32656   7.364  11.249  11.027  0.7681 -0.5620  2.3439
  983MOL0     H32657   7.628  11.381  11.200  0.3473 -2.0247  0.8820
  983MOL0     H32658   7.574  11.238  11.117 -0.5234  0.2570  2.2922
  983MOL0     H32659   7.801  11.275  11.048 -1.9904 -2.9298 -2.9271
  983MOL0     H32660   7.708  11.330  10.911  1.4885 -0.0314 -0.3868
  983MOL0     H32661   7.769  11.542  11.111 -0.9534 -0.8648  0.7723
  983MOL0     H32662   7.717  11.552  10.945  0.9948  1.3338 -0.1400
  983MOL0     H32663   7.952  11.574  10.901 -0.3378 -3.0259 -4.1367
  983MOL0     H32664   7.948  11.399  10.930  0.3671  0.3463 -0.9745
  983MOL0     H32665   8.158  11.503  10.842 -0.8991  0.0115 -0.0554
  983MOL0     H32666   8.389  11.482  10.809  0.6292 -3.9733  0.4366
  983MOL0     H32667   8.817  11.245  10.984  3.3324 -1.9922  0.4654
  983MOL0     H32668   9.041  11.224  10.917 -1.2455 -1.1388 -1.3845
  983MOL0     H32669   9.206  11.161  10.791 -1.5971 -1.2230  1.1502
  983MOL0     H32670   9.170  11.177  10.614  0.8274  1.3198 -0.3020
  983MOL0     H32671   9.385  11.115  10.633  2.1617  0.4867 -0.8954
  983MOL0     H32672   9.405  11.279  10.586  3.1362 -1.3311 -0.1638
  983MOL0     H32673   9.427  11.343  10.846  0.0265 -0.2467  0.1680
  983MOL0     H32674   9.430  11.168  10.870 -0.7643  0.9323  0.4119
  983MOL0     H32675   9.634  11.333  10.696  1.2504 -0.5013 -0.6871
  983MOL0     H32676   9.622  11.160  10.704 -0.0429 -1.1652  2.0539
  983MOL0     H32677   9.648  11.182  10.968  0.4029 -2.0582 -1.8051
  983MOL0     H32678   9.686  11.355  10.929  1.8300 -0.5185  0.9151
  983MOL0     H32679   9.828  11.113  10.803 -0.2608 -0.1297  1.2494
  983MOL0     H32680   9.884  11.285  10.824 -0.7719  0.8535  0.3177
  983MOL0     H32681   9.842  11.062  11.032  1.1339 -0.7914 -1.8278
  983MOL0     H32682   9.930  11.213  11.061 -1.6093 -0.8029  1.4678
  983MOL0     H32683  10.104  11.053  11.028 -1.2485  0.1483  0.6461
  983MOL0     H32684  10.020  10.973  10.882 -0.0560  1.8815 -4.1725
  983MOL0     H32685   9.000  11.528  10.617  0.5030 -2.6220 -0.9585
  983MOL0     H32686   8.770  11.573  10.704  1.0076  0.2894 -1.8816
  983MOL0     H32687   8.465  11.545  11.224  3.1585 -1.3073 -1.4472
  983MOL0     H32688   8.214  11.556  11.265 -1.4788  0.1861 -0.4023
  983MOL0     H32689   6.344  10.947  10.945  2.5768 -2.9195  1.7191
  983MOL0     H32690   6.153  10.852  10.996  1.8232  0.8251 -0.7059
  983MOL0     H32691   5.887  10.774  11.431 -0.3923  0.9116  0.3311
  983MOL0     H32692   5.749  10.605  11.561 -0.4636 -0.5191  0.6990
  983MOL0     H32693   5.549  10.347  11.295  1.9233  3.1501  0.6626
  983MOL0     H32694   5.410  10.439  11.325  1.7972  0.3607 -0.6538
  983MOL0     H32695   5.512  10.193  11.494  0.9330  2.9463  0.2556
  983MOL0     H32696   5.369  10.188  11.391 -1.8275  2.2811 -0.1469
  983MOL0     H32697   5.374  10.359  11.638  1.0434  0.5204 -1.7016
  983MOL0     H32698   5.296  10.208  11.627 -2.5832  2.0066 -0.2062
  983MOL0     H32699   5.228  10.470  11.488  0.5618 -0.3886 -0.1970
  983MOL0     H32700   5.196  10.326  11.389  3.7568  1.6840 -0.8315
  983MOL0     H32701   4.870  10.318  11.654  0.0411 -0.3597  0.1246
  983MOL0     H32702   5.571  10.501  11.180  1.6642  0.2073 -2.1540
  983MOL0     H32703   5.630  10.581  10.991 -0.6957  1.0741 -0.7062
  983MOL0     H32704   5.681  10.751  10.990  1.0046  0.3428 -0.7579
  983MOL0     H32705   5.806  10.625  10.972  1.0640  2.3077 -0.0614
  984MOL0     O32706   7.040   0.944   5.356  0.0056  0.9915 -0.0821
  984MOL0     C32707   7.055   0.982   5.238  0.6060  0.4253 -0.2649
  984MOL0     O32708   7.161   0.956   5.160 -0.1312 -0.4890 -0.2515
  984MOL0     C32709   7.260   0.870   5.201 -0.5637 -0.3745  0.4247
  984MOL0     C32710   7.238   0.736   5.230  0.6371  0.7486  0.4547
  984MOL0     C32711   7.341   0.649   5.279 -0.2964 -0.2617 -0.2074
  984MOL0     C32712   7.469   0.697   5.296 -0.8354 -0.0859 -1.3285
  984MOL0     O32713   7.561   0.608   5.348  0.0333  0.2353  0.4405
  984MOL0     C32714   7.695   0.651   5.384  0.1847 -0.1303  0.5350
  984MOL0     C32715   7.780   0.521   5.373  0.5281 -0.6396 -0.4593
  984MOL0     C32716   7.924   0.551   5.394 -0.0913 -0.1499 -0.4278
  984MOL0     C32717   7.985   0.588   5.251  0.4912  0.1429  0.0048
  984MOL0     C32718   8.127   0.623   5.256  0.0433 -1.2533 -0.3090
  984MOL0     C32719   8.195   0.669   5.130  0.1138  0.1590  0.4635
  984MOL0     C32720   8.350   0.697   5.151 -0.0647 -0.1070  0.2415
  984MOL0     C32721   8.420   0.567   5.120 -0.3361  0.5378  0.0127
  984MOL0     N32722   8.566   0.589   5.139  0.1308  0.1118  0.5803
  984MOL0     C32723   8.634   0.675   5.221 -0.6699  0.0097 -1.2643
  984MOL0     C32724   8.769   0.672   5.177  0.1331  0.3612 -0.1140
  984MOL0     C32725   8.883   0.747   5.237  0.7950  0.7876 -0.3839
  984MOL0     C32726   9.016   0.692   5.193 -0.2679  0.3090 -0.0963
  984MOL0     C32727   9.125   0.773   5.263 -0.5446  1.1522 -0.0263
  984MOL0     C32728   9.265   0.756   5.205 -0.9742 -0.0281  0.4334
  984MOL0     O32729   9.321   0.628   5.242 -0.3569 -0.3656  0.1023
  984MOL0     C32730   9.450   0.619   5.234 -0.5961 -0.0403 -0.2798
  984MOL0     C32731   9.549   0.724   5.208 -0.5670 -0.6584  0.3027
  984MOL0     C32732   9.687   0.691   5.193  0.6064 -0.2392 -0.4131
  984MOL0     C32733   9.733   0.559   5.211 -0.1057  0.2242  0.5637
  984MOL0     C32734   9.882   0.513   5.190  0.6311 -0.9282  0.9971
  984MOL0     O32735   9.970   0.618   5.190 -0.1039 -0.8047 -0.5433
  984MOL0     C32736  10.100   0.578   5.187 -0.0602 -0.5592 -0.4458
  984MOL0     C32737  10.186   0.596   5.294  0.1032  0.8237  0.7624
  984MOL0     C32738  10.322   0.559   5.277 -0.7199  0.6727 -0.0126
  984MOL0     C32739  10.379   0.509   5.154 -0.1477 -0.2300  0.8826
  984MOL0     O32740  10.518   0.480   5.154 -0.1935  0.3120  0.1798
  984MOL0     C32741  10.571   0.472   5.022 -0.5115  0.2875 -0.0142
  984MOL0     C32742  10.729   0.487   5.032 -0.4169  0.3335 -0.1203
  984MOL0     C32743  10.780   0.355   5.087  0.2114  0.3931 -0.1087
  984MOL0     C32744  10.934   0.360   5.102 -0.1692  0.4733  0.0002
  984MOL0     C32745  10.982   0.408   5.239  0.0563  0.1254 -0.1247
  984MOL0     C32746  11.121   0.468   5.227  0.6100  0.4007  0.7996
  984MOL0     C32747  11.180   0.511   5.357 -0.3523 -0.0620 -0.5692
  984MOL0     C32748  11.301   0.598   5.348 -0.4004  0.5957  1.0492
  984MOL0    Cl32749  11.362   0.669   5.498  0.0520  0.2209 -0.4108
  984MOL0     C32750  10.288   0.502   5.045  0.9983  0.8221  0.2798
  984MOL0     C32751  10.150   0.535   5.061  0.2596 -1.1599 -0.3073
  984MOL0     O32752   9.912   0.397   5.166  0.3033 -0.5966 -0.4273
  984MOL0     C32753   9.635   0.463   5.243  0.4339 -0.5958  0.4135
  984MOL0     C32754   9.498   0.488   5.251  0.5806 -0.1434  0.4780
  984MOL0     N32755   8.760   0.609   5.055  0.0992  0.4416  1.3697
  984MOL0     N32756   8.645   0.549   5.034 -0.0927  0.0515 -0.0600
  984MOL0     C32757   7.496   0.835   5.264  0.0179 -0.0524 -0.6015
  984MOL0     C32758   7.394   0.923   5.220  1.2104  0.8437  0.6904
  984MOL0     C32759   6.971   1.091   5.190  0.8785 -0.2432 -1.1896
  984MOL0     C32760   7.024   1.174   5.086  0.4714  0.6681  0.0920
  984MOL0     C32761   6.950   1.283   5.042 -0.2408 -0.3281  0.5576
  984MOL0     C32762   6.829   1.316   5.077  0.7278 -0.0236 -0.5580
  984MOL0     O32763   6.770   1.425   5.012 -0.8707  0.2277 -0.5184
  984MOL0     C32764   6.640   1.470   5.060  0.6550  0.5328  0.8509
  984MOL0     C32765   6.566   1.562   4.965  0.6280 -0.4514  0.6857
  984MOL0     C32766   6.432   1.625   5.016 -0.5628  0.0221  0.6704
  984MOL0     C32767   6.305   1.609   4.918  0.8122  0.7801 -0.9876
  984MOL0     C32768   6.246   1.470   4.922 -0.5727  0.0300  0.3123
  984MOL0     C32769   6.195   1.360   4.915 -0.0936  0.4537 -0.7804
  984MOL0     C32770   6.770   1.226   5.176  0.5728  0.4346  0.7677
  984MOL0     C32771   6.838   1.120   5.242  1.0305  0.1230  0.1181
  984MOL0     C32772   6.759   1.046   5.347  0.2554 -0.4148 -0.0755
  984MOL0     H32773   7.141   0.688   5.231  2.1477 -2.5834  1.7671
  984MOL0     H32774   7.333   0.541   5.281 -0.0582 -0.2726  0.4958
  984MOL0     H32775   7.738   0.719   5.310  1.2937 -1.1302  0.2301
  984MOL0     H32776   7.692   0.699   5.483 -1.6457  1.8438 -0.4000
  984MOL0     H32777   7.776   0.484   5.270  4.4565 -1.4206 -0.4723
  984MOL0     H32778   7.740   0.458   5.452 -3.7393  0.9964 -0.9965
  984MOL0     H32779   7.968   0.459   5.433  1.0548  1.5825  2.7326
  984MOL0     H32780   7.949   0.633   5.462 -2.0157 -0.1036  0.2933
  984MOL0     H32781   7.974   0.502   5.184 -1.6770 -0.5546  1.1866
  984MOL0     H32782   7.919   0.660   5.201 -1.5438  0.1201  2.4527
  984MOL0     H32783   8.143   0.697   5.334  0.4306  0.3780 -1.8806
  984MOL0     H32784   8.167   0.528   5.293 -1.0551 -1.0283  1.5733
  984MOL0     H32785   8.176   0.598   5.049  0.7450  1.0126 -0.4633
  984MOL0     H32786   8.154   0.765   5.097  0.7609  0.4080  0.3597
  984MOL0     H32787   8.363   0.731   5.255  2.3056 -3.3932  1.1899
  984MOL0     H32788   8.376   0.772   5.076  0.2194  0.0149  0.4580
  984MOL0     H32789   8.386   0.498   5.197 -0.2633 -3.0185 -2.8638
  984MOL0     H32790   8.407   0.517   5.023  3.8869 -0.4521 -0.2523
  984MOL0     H32791   8.596   0.716   5.314 -0.8842  0.5384 -1.5800
  984MOL0     H32792   8.877   0.850   5.201 -3.8147 -0.0971 -2.9914
  984MOL0     H32793   8.879   0.739   5.346  2.5067  1.6127 -0.2326
  984MOL0     H32794   9.035   0.586   5.217  0.5643  1.0696  3.1409
  984MOL0     H32795   9.035   0.701   5.086  1.8096 -0.3211  0.1844
  984MOL0     H32796   9.124   0.744   5.369 -1.5986 -1.9762 -0.7814
  984MOL0     H32797   9.102   0.880   5.255 -1.1418  1.0122 -0.2347
  984MOL0     H32798   9.322   0.835   5.255  0.5037 -1.3784  0.9766
  984MOL0     H32799   9.259   0.783   5.100  2.4606 -2.7372 -0.6571
  984MOL0     H32800   9.524   0.829   5.201  2.4726  0.1540  0.1222
  984MOL0     H32801   9.754   0.772   5.165 -0.3566  1.3236  1.5293
  984MOL0     H32802  10.136   0.642   5.379 -0.4741 -0.9314  1.4283
  984MOL0     H32803  10.389   0.571   5.362  0.4183 -0.3917 -0.7222
  984MOL0     H32804  10.540   0.384   4.964  0.3402 -0.9499  1.3480
  984MOL0     H32805  10.538   0.559   4.965  0.9391  1.5688  1.0106
  984MOL0     H32806  10.759   0.504   4.929  2.8273 -1.7975  0.3190
  984MOL0     H32807  10.745   0.570   5.102 -0.2861 -1.2151  1.7986
  984MOL0     H32808  10.730   0.334   5.182  2.6158  0.1930  1.1750
  984MOL0     H32809  10.752   0.266   5.030 -1.3532  0.7683  0.0207
  984MOL0     H32810  10.977   0.436   5.036 -0.0392 -0.1974 -0.6997
  984MOL0     H32811  10.974   0.263   5.072 -2.0679  0.6777 -3.8365
  984MOL0     H32812  10.978   0.323   5.308 -2.9122 -0.7586 -1.2652
  984MOL0     H32813  10.920   0.492   5.272  0.2188  0.1564  0.1055
  984MOL0     H32814  11.185   0.388   5.189  0.2130  0.5142 -0.1354
  984MOL0     H32815  11.116   0.548   5.152 -1.9200 -2.5144 -2.4462
  984MOL0     H32816  11.207   0.416   5.404  0.7678 -0.0527 -1.1469
  984MOL0     H32817  11.112   0.561   5.428  3.9832  2.9695  1.9589
  984MOL0     H32818  11.377   0.545   5.290  0.1566 -0.4989  2.7322
  984MOL0     H32819  11.267   0.683   5.287  0.6645  2.0904  2.4400
  984MOL0     H32820  10.317   0.480   4.943  0.1136 -0.8847  0.3509
  984MOL0     H32821  10.071   0.536   4.987 -1.2821 -0.2089  1.2791
  984MOL0     H32822   9.672   0.362   5.245 -0.0543 -0.7857  0.0938
  984MOL0     H32823   9.422   0.417   5.284 -0.3103 -0.0409 -1.2349
  984MOL0     H32824   7.596   0.875   5.282 -1.9351  4.1698  2.3260
  984MOL0     H32825   7.406   1.028   5.194  0.3528  0.6840 -0.4254
  984MOL0     H32826   7.124   1.165   5.047 -0.5635 -0.8378 -2.4301
  984MOL0     H32827   6.991   1.330   4.954 -0.9884 -2.4350 -1.0157
  984MOL0     H32828   6.647   1.519   5.157 -1.7232  1.2351  0.7315
  984MOL0     H32829   6.580   1.381   5.083  0.9423 -0.4690 -1.8629
  984MOL0     H32830   6.540   1.501   4.878 -1.5478 -0.0612  1.0062
  984MOL0     H32831   6.635   1.639   4.931  2.0113 -2.1498 -0.5978
  984MOL0     H32832   6.443   1.733   5.027  0.0024  0.5326 -3.2774
  984MOL0     H32833   6.395   1.582   5.110 -0.9206 -0.5541  0.2768
  984MOL0     H32834   6.226   1.671   4.961 -0.7450 -2.6765  1.6984
  984MOL0     H32835   6.312   1.633   4.812  1.0706 -0.2874 -1.2222
  984MOL0     H32836   6.151   1.264   4.893  0.3905  0.2327 -0.8068
  984MOL0     H32837   6.673   1.229   5.224  0.2217 -2.1134  0.3533
  984MOL0     H32838   6.763   0.937   5.348 -1.0863 -0.4820  1.6531
  984MOL0     H32839   6.787   1.076   5.448 -0.7182 -3.4761  1.2186
  984MOL0     H32840   6.652   1.066   5.332  0.2088 -0.4716  0.1840
  985MOL0     O32841   8.603   8.874   5.491 -0.9985 -0.3697  0.3092
  985MOL0     C32842   8.499   8.810   5.500 -0.0029 -1.0522 -0.6121
  985MOL0     O32843   8.489   8.688   5.553  0.0395 -0.2314  0.4252
  985MOL0     C32844   8.595   8.607   5.574  0.2457 -0.2055 -1.0738
  985MOL0     C32845   8.624   8.557   5.699 -0.3548  0.9545 -0.5010
  985MOL0     C32846   8.723   8.457   5.706  0.4922 -0.7381 -0.2436
  985MOL0     C32847   8.799   8.417   5.600 -0.1210  0.7144 -0.1835
  985MOL0     O32848   8.904   8.333   5.620 -0.6774 -0.4742  0.7697
  985MOL0     C32849   8.933   8.271   5.748 -0.2052 -1.1055 -0.0764
  985MOL0     C32850   9.015   8.147   5.707  0.7925 -0.2806  0.0009
  985MOL0     C32851   9.136   8.179   5.613  0.2333 -1.0710 -0.2206
  985MOL0     C32852   9.228   8.061   5.607  1.3581 -0.9017 -0.2954
  985MOL0     C32853   9.372   8.091   5.547 -0.2718  0.1804 -1.3887
  985MOL0     C32854   9.377   8.119   5.404  0.5723  0.0115  0.0817
  985MOL0     C32855   9.515   8.123   5.347 -0.4205  0.4003 -0.7274
  985MOL0     C32856   9.585   7.993   5.338  0.0500 -0.0750  0.3033
  985MOL0     N32857   9.729   8.014   5.314  0.1078 -0.4661  1.0453
  985MOL0     C32858   9.830   7.970   5.396 -0.2675 -0.1182 -0.2483
  985MOL0     C32859   9.944   8.001   5.330  0.2235  0.2050 -0.2987
  985MOL0     C32860  10.083   7.963   5.375 -1.0281  0.4881 -0.1420
  985MOL0     C32861  10.131   8.055   5.490 -0.0086  0.0834  0.4976
  985MOL0     C32862  10.265   8.010   5.550  0.3502 -0.1843 -0.3122
  985MOL0     C32863  10.383   8.052   5.461 -0.7927  0.5843  0.4129
  985MOL0     O32864  10.500   8.017   5.540  0.0647  0.1053  0.3486
  985MOL0     C32865  10.625   8.057   5.492  0.2255  0.0114  0.8394
  985MOL0     C32866  10.672   8.187   5.489 -0.1181 -0.6263 -0.1491
  985MOL0     C32867  10.802   8.216   5.440  0.0357 -0.0339 -0.2762
  985MOL0     C32868  10.881   8.113   5.398 -0.1989  0.6269  0.6429
  985MOL0     C32869  11.019   8.151   5.360 -0.0176  0.6462 -0.6687
  985MOL0     O32870  11.117   8.108   5.443  0.4312 -0.1329  0.4847
  985MOL0     C32871  11.253   8.122   5.437 -0.2472  0.0694 -0.7262
  985MOL0     C32872  11.318   8.216   5.358  0.1034 -0.8015 -0.2906
  985MOL0     C32873  11.461   8.223   5.345 -0.1338 -0.0725 -0.0205
  985MOL0     C32874  11.545   8.124   5.407 -0.1187  0.7406 -0.1735
  985MOL0     O32875  11.676   8.129   5.386 -0.0623  0.3474  0.6360
  985MOL0     C32876  11.740   8.174   5.499  0.7718 -0.1608  0.5410
  985MOL0     C32877  11.824   8.059   5.566 -0.1836  0.1507  0.9946
  985MOL0     C32878  11.976   8.065   5.530  0.2767 -0.0886 -0.3481
  985MOL0     C32879  12.005   8.001   5.393 -0.0162 -0.0581  0.7076
  985MOL0     C32880  12.153   7.971   5.367 -0.2103  0.7243 -0.6289
  985MOL0     C32881  12.156   7.879   5.246  0.5545 -0.9646  0.7188
  985MOL0     C32882  12.308   7.853   5.239 -0.6266 -0.2611  0.1919
  985MOL0     C32883  12.333   7.754   5.130  0.4914  0.3988  0.7012
  985MOL0    Cl32884  12.239   7.800   4.977 -0.0844 -0.0240  0.0422
  985MOL0     C32885  11.480   8.037   5.484  0.9381 -0.1493 -0.3395
  985MOL0     C32886  11.336   8.019   5.494  0.4949  0.4288 -0.1361
  985MOL0     O32887  11.028   8.210   5.256  0.0435  0.5045 -0.5734
  985MOL0     C32888  10.840   7.981   5.392  0.1689  0.8146  0.1265
  985MOL0     C32889  10.707   7.959   5.431 -0.1156  0.4273 -0.1070
  985MOL0     N32890   9.919   8.055   5.212 -0.5351 -0.6987 -0.5058
  985MOL0     N32891   9.789   8.058   5.201 -0.1715  0.7004  0.2890
  985MOL0     C32892   8.770   8.460   5.473  0.7936  0.6673  0.4919
  985MOL0     C32893   8.663   8.554   5.463 -1.1413 -0.2727 -0.2032
  985MOL0     C32894   8.377   8.871   5.442 -1.1700  0.1389  0.2578
  985MOL0     C32895   8.278   8.777   5.389  0.0624  0.5879  1.1765
  985MOL0     C32896   8.164   8.828   5.326  0.0818  0.0342 -0.4103
  985MOL0     C32897   8.146   8.963   5.303 -0.0846  0.7201 -0.1142
  985MOL0     O32898   8.035   9.006   5.240  0.1460  0.2306  0.0001
  985MOL0     C32899   7.970   9.132   5.283  0.2230  0.7314  0.1536
  985MOL0     C32900   7.818   9.116   5.264 -0.4307  0.2601 -0.3256
  985MOL0     C32901   7.770   8.982   5.330  0.8708  0.0355 -0.3443
  985MOL0     C32902   7.624   8.966   5.317 -0.8185  0.1636 -0.1466
  985MOL0     C32903   7.552   9.067   5.391 -0.5158  0.2328  0.4103
  985MOL0     C32904   7.478   9.137   5.451 -0.1322  0.0083  0.6140
  985MOL0     C32905   8.244   9.047   5.349 -0.2156 -0.6826  0.1874
  985MOL0     C32906   8.361   9.013   5.425  0.3746  1.0447  0.3338
  985MOL0     C32907   8.440   9.119   5.490  0.1563 -0.3899 -0.1177
  985MOL0     H32908   8.561   8.586   5.783 -1.5496  0.1170 -1.0777
  985MOL0     H32909   8.729   8.409   5.803 -2.6684  1.1580  1.0462
  985MOL0     H32910   8.995   8.346   5.797  0.3402 -0.3480 -1.8568
  985MOL0     H32911   8.847   8.240   5.809 -1.5864  1.0735 -0.8042
  985MOL0     H32912   8.940   8.084   5.656 -0.1070  0.0350  0.8982
  985MOL0     H32913   9.046   8.093   5.797 -2.3697  1.5091  2.3787
  985MOL0     H32914   9.194   8.265   5.650 -2.4885  0.6508  0.3008
  985MOL0     H32915   9.105   8.211   5.513  2.1313 -1.1722 -0.8906
  985MOL0     H32916   9.239   8.010   5.703  3.1716 -2.1856 -1.1232
  985MOL0     H32917   9.187   7.993   5.532 -0.6369  0.7744 -0.8269
  985MOL0     H32918   9.412   8.179   5.597 -4.5459  2.1490 -0.9866
  985MOL0     H32919   9.436   8.005   5.569  0.8908  1.4321  0.3275
  985MOL0     H32920   9.324   8.033   5.360  2.3998 -1.7638  1.1794
  985MOL0     H32921   9.329   8.211   5.371  0.0575 -0.7665 -1.4501
  985MOL0     H32922   9.570   8.185   5.418  0.7069 -2.2064  0.7956
  985MOL0     H32923   9.504   8.172   5.250  0.7940  0.4622 -0.8409
  985MOL0     H32924   9.578   7.930   5.427  2.5604  0.4842  0.9640
  985MOL0     H32925   9.539   7.940   5.254 -0.9149  0.0380  0.7507
  985MOL0     H32926   9.816   7.916   5.489 -0.7402 -0.0649 -0.2850
  985MOL0     H32927  10.093   7.862   5.416  2.0828 -0.7622 -3.4185
  985MOL0     H32928  10.155   7.964   5.293  0.6639 -1.4001  1.1999
  985MOL0     H32929  10.118   8.158   5.454 -1.6563 -0.7481 -1.4970
  985MOL0     H32930  10.062   8.053   5.574  1.4267  0.8791  1.7483
  985MOL0     H32931  10.283   7.903   5.563 -0.1888 -1.0054 -4.6847
  985MOL0     H32932  10.269   8.060   5.647 -5.2753 -0.3727  0.3558
  985MOL0     H32933  10.393   8.160   5.444 -0.7358  0.6970  1.1162
  985MOL0     H32934  10.384   7.995   5.367  1.8165 -3.3912  2.5670
  985MOL0     H32935  10.616   8.267   5.538 -0.5091 -1.1393  0.2500
  985MOL0     H32936  10.836   8.317   5.462  1.5010 -0.9021  1.7680
  985MOL0     H32937  11.258   8.292   5.308  0.3035 -1.4943 -1.6077
  985MOL0     H32938  11.516   8.293   5.282 -0.3734 -2.0609 -2.6107
  985MOL0     H32939  11.800   8.260   5.470 -0.7915  0.8001  0.0348
  985MOL0     H32940  11.671   8.209   5.577 -0.8536 -0.3741 -0.7400
  985MOL0     H32941  11.808   8.054   5.674 -4.4588 -1.7596  0.5004
  985MOL0     H32942  11.782   7.962   5.540  3.1305 -0.9079 -0.8914
  985MOL0     H32943  12.015   8.164   5.553 -1.1505  0.8590 -1.8003
  985MOL0     H32944  12.030   8.003   5.602  2.7687  1.3676 -0.8297
  985MOL0     H32945  11.977   8.071   5.313  1.9474  0.1182  0.1162
  985MOL0     H32946  11.944   7.912   5.378 -0.1741 -0.0554  1.3147
  985MOL0     H32947  12.189   7.919   5.456 -0.4103  0.7667 -0.5234
  985MOL0     H32948  12.205   8.066   5.353 -0.0193  0.5300 -1.2741
  985MOL0     H32949  12.108   7.781   5.258  1.7197 -1.8311 -1.1570
  985MOL0     H32950  12.106   7.931   5.164  0.4896 -1.0439  0.7070
  985MOL0     H32951  12.338   7.830   5.342 -0.9059 -1.4110  0.0254
  985MOL0     H32952  12.349   7.949   5.207 -0.5571 -0.9714 -1.9674
  985MOL0     H32953  12.438   7.749   5.099  0.2012  0.7894 -0.4170
  985MOL0     H32954  12.304   7.659   5.175  0.7919  0.1347  0.3470
  985MOL0     H32955  11.535   7.956   5.530  0.2951  0.5321  1.7371
  985MOL0     H32956  11.286   7.934   5.539 -0.2277  0.3659 -1.0252
  985MOL0     H32957  10.900   7.906   5.344 -1.9056 -0.6186 -0.3573
  985MOL0     H32958  10.669   7.858   5.417 -2.3782  1.2966 -0.6678
  985MOL0     H32959   8.827   8.427   5.386  1.0234  4.0794 -0.8087
  985MOL0     H32960   8.638   8.589   5.364  1.0077 -0.4196 -0.8509
  985MOL0     H32961   8.303   8.675   5.415 -3.7002 -0.0412  3.1518
  985MOL0     H32962   8.084   8.766   5.287  0.0778  0.9616 -1.9518
  985MOL0     H32963   8.012   9.206   5.214  2.1707 -0.3601  0.0824
  985MOL0     H32964   8.002   9.157   5.384 -0.7100  0.4133  0.5418
  985MOL0     H32965   7.790   9.123   5.158 -2.8522  3.9415  0.3740
  985MOL0     H32966   7.776   9.210   5.301  1.2927  2.1405 -2.7815
  985MOL0     H32967   7.789   8.978   5.438  0.6600 -0.2974 -0.3187
  985MOL0     H32968   7.821   8.897   5.285  3.6510 -0.3415  3.0976
  985MOL0     H32969   7.596   8.988   5.214  0.3965  3.3633  0.0895
  985MOL0     H32970   7.601   8.861   5.339 -0.0571  0.2506  1.1642
  985MOL0     H32971   7.395   9.195   5.486  0.2270  0.5705  0.5358
  985MOL0     H32972   8.228   9.154   5.338 -0.1504 -0.9283 -3.3089
  985MOL0     H32973   8.544   9.109   5.457  0.0237 -0.0738 -0.6437
  985MOL0     H32974   8.405   9.223   5.485  0.7018  0.1751  3.9226
  985MOL0     H32975   8.432   9.095   5.597 -1.3894 -0.0737 -0.1356
  986MOL0     O32976   1.059   1.547   6.214  0.2217  0.7075 -0.2219
  986MOL0     C32977   1.165   1.516   6.162  0.5957 -0.7159  0.7178
  986MOL0     O32978   1.284   1.556   6.206 -0.1325 -0.2083 -0.2299
  986MOL0     C32979   1.299   1.669   6.280 -0.3966 -0.2244 -0.8921
  986MOL0     C32980   1.223   1.785   6.265  0.8958  0.8509 -0.4221
  986MOL0     C32981   1.254   1.900   6.340 -0.9750 -0.0126  0.9830
  986MOL0     C32982   1.351   1.904   6.441  0.0626  1.0864  0.3390
  986MOL0     O32983   1.357   2.028   6.499 -0.2211  0.3652  0.0966
  986MOL0     C32984   1.467   2.055   6.588  0.1422  0.2303 -0.0129
  986MOL0     C32985   1.442   2.193   6.639  0.6366 -0.8619  0.6096
  986MOL0     C32986   1.551   2.249   6.724 -0.5609 -0.1520  0.2231
  986MOL0     C32987   1.692   2.251   6.651  0.1502  0.3768  0.2446
  986MOL0     C32988   1.796   2.297   6.747  0.7866  0.5933 -0.3206
  986MOL0     C32989   1.776   2.440   6.791 -0.0301  0.9757 -0.2171
  986MOL0     C32990   1.791   2.548   6.683  0.2640  0.5879  0.1738
  986MOL0     C32991   1.776   2.687   6.743  0.8423  0.5047  0.9808
  986MOL0     N32992   1.888   2.727   6.828  0.4357  0.0117  0.6674
  986MOL0     C32993   2.008   2.786   6.789 -0.1559  0.0747  0.1373
  986MOL0     C32994   2.086   2.782   6.904  0.3699  0.4367 -0.0842
  986MOL0     C32995   2.225   2.844   6.915 -0.0045 -0.7798 -0.1247
  986MOL0     C32996   2.333   2.740   6.871  0.0121 -0.4428  0.6544
  986MOL0     C32997   2.467   2.818   6.885 -0.8647  0.2765  0.1786
  986MOL0     C32998   2.568   2.709   6.855 -0.0724 -0.3776 -0.0104
  986MOL0     O32999   2.688   2.732   6.938 -0.2937  0.0285 -0.0037
  986MOL0     C33000   2.807   2.696   6.886 -0.2175 -0.0612 -0.6773
  986MOL0     C33001   2.829   2.575   6.814 -0.2513  0.4762  0.5041
  986MOL0     C33002   2.957   2.543   6.770  0.1793  0.8177 -0.3445
  986MOL0     C33003   3.069   2.619   6.812  0.3552 -0.1290 -0.9102
  986MOL0     C33004   3.205   2.589   6.759 -0.1417  0.2302  0.2357
  986MOL0     O33005   3.314   2.657   6.812  0.2197 -0.0697  0.1933
  986MOL0     C33006   3.437   2.610   6.769 -0.3824 -0.3279  0.1194
  986MOL0     C33007   3.476   2.599   6.626 -0.6084 -0.6433 -0.0824
  986MOL0     C33008   3.602   2.554   6.597  0.4147  0.2210  0.0598
  986MOL0     C33009   3.709   2.528   6.688 -0.0169  0.0969  0.3365
  986MOL0     O33010   3.827   2.472   6.649 -0.1703 -0.4147  0.3162
  986MOL0     C33011   3.938   2.478   6.739 -0.4132 -0.4682 -0.7556
  986MOL0     C33012   4.060   2.445   6.657  0.2258  0.2846 -0.4140
  986MOL0     C33013   4.183   2.455   6.750  0.4354  0.3725  0.0394
  986MOL0     C33014   4.306   2.397   6.677 -0.3123  0.9926  0.0209
  986MOL0     C33015   4.427   2.460   6.748  0.0944 -0.2231 -0.2854
  986MOL0     C33016   4.554   2.411   6.683  0.6346  0.2045  0.3018
  986MOL0     C33017   4.674   2.451   6.777  0.8207 -0.7942  0.5379
  986MOL0     C33018   4.810   2.406   6.720  0.1793 -0.9958 -0.3305
  986MOL0    Cl33019   4.864   2.543   6.616  0.1199 -0.1910 -0.1553
  986MOL0     C33020   3.673   2.538   6.828  0.2717 -0.0730  0.5548
  986MOL0     C33021   3.538   2.584   6.862  0.4665  0.4163  1.2040
  986MOL0     O33022   3.205   2.508   6.662 -0.6435 -0.2889 -0.0306
  986MOL0     C33023   3.043   2.747   6.873 -1.4043  0.1166  0.3157
  986MOL0     C33024   2.920   2.788   6.900  0.8077  1.1928  0.9446
  986MOL0     N33025   2.012   2.713   6.994 -0.0259 -0.4230 -1.1207
  986MOL0     N33026   1.893   2.692   6.953 -0.1402  0.4228 -0.1843
  986MOL0     C33027   1.424   1.785   6.457  0.2292 -0.5767  0.0059
  986MOL0     C33028   1.393   1.666   6.385  0.3568 -0.9131  0.6456
  986MOL0     C33029   1.179   1.449   6.028 -0.4067  0.5931 -0.9056
  986MOL0     C33030   1.302   1.421   5.972 -0.4523 -0.3565  0.6621
  986MOL0     C33031   1.319   1.370   5.841  0.0556 -0.5244 -0.2150
  986MOL0     C33032   1.215   1.329   5.763  0.2688  0.0317 -0.4612
  986MOL0     O33033   1.229   1.283   5.639  0.2796 -0.4825  0.3459
  986MOL0     C33034   1.290   1.378   5.546 -0.0719  0.0851  0.3216
  986MOL0     C33035   1.199   1.488   5.506 -0.1041  0.0543 -0.6481
  986MOL0     C33036   1.116   1.462   5.389 -0.5830 -0.0221  0.3941
  986MOL0     C33037   1.036   1.587   5.342  0.6159 -0.2408 -0.4148
  986MOL0     C33038   0.955   1.560   5.219 -0.2299 -0.5037  0.2999
  986MOL0     C33039   0.888   1.532   5.117  0.2385  0.0385 -0.0273
  986MOL0     C33040   1.087   1.354   5.817 -0.3869 -0.2211  0.9213
  986MOL0     C33041   1.069   1.411   5.947 -0.6138  0.1089 -0.1464
  986MOL0     C33042   0.928   1.439   5.992  0.4286  0.1659  0.6508
  986MOL0     H33043   1.139   1.776   6.196  0.3472 -0.9012  0.4134
  986MOL0     H33044   1.209   1.997   6.323  2.2180  1.4567  0.0978
  986MOL0     H33045   1.459   1.987   6.673  0.3684  0.3052  0.0700
  986MOL0     H33046   1.565   2.049   6.539  1.4574  7.0181  0.8338
  986MOL0     H33047   1.349   2.190   6.696 -3.0991  0.1551 -4.7333
  986MOL0     H33048   1.416   2.247   6.547 -2.6625 -1.1158  1.2811
  986MOL0     H33049   1.572   2.198   6.819 -0.4341  0.5860  0.6004
  986MOL0     H33050   1.515   2.351   6.740  0.8625  0.4403 -0.1234
  986MOL0     H33051   1.719   2.147   6.628  0.1508  0.0497  1.5969
  986MOL0     H33052   1.697   2.315   6.563  0.6143  1.0064  0.7179
  986MOL0     H33053   1.813   2.234   6.834  1.8776 -1.9877 -2.2937
  986MOL0     H33054   1.894   2.302   6.699  1.3170 -0.0975  0.6496
  986MOL0     H33055   1.688   2.451   6.854 -0.5538  1.2778 -0.9882
  986MOL0     H33056   1.864   2.451   6.856 -1.3316  0.3552  1.7138
  986MOL0     H33057   1.720   2.533   6.602  0.9653 -0.0423 -0.3481
  986MOL0     H33058   1.892   2.532   6.643 -0.3235 -2.1026 -0.4599
  986MOL0     H33059   1.772   2.765   6.666  0.1820  0.2522  0.7511
  986MOL0     H33060   1.684   2.684   6.803  1.0132 -0.3246  1.2171
  986MOL0     H33061   2.029   2.832   6.693  0.0577 -2.6197 -1.2142
  986MOL0     H33062   2.231   2.934   6.853 -1.4697  0.7523  1.8126
  986MOL0     H33063   2.225   2.880   7.018  1.3375 -0.4619 -0.2236
  986MOL0     H33064   2.326   2.654   6.938 -2.1224 -0.9133 -0.0837
  986MOL0     H33065   2.318   2.716   6.765  0.2722  4.8289 -0.8684
  986MOL0     H33066   2.495   2.849   6.986  3.2759  0.5538 -0.8963
  986MOL0     H33067   2.469   2.899   6.812  0.7813 -1.6282 -2.0466
  986MOL0     H33068   2.593   2.721   6.750 -0.3854 -0.1951 -0.0644
  986MOL0     H33069   2.534   2.606   6.873  2.7983 -1.4690 -0.3725
  986MOL0     H33070   2.744   2.512   6.788  2.5577 -2.2004 -3.3501
  986MOL0     H33071   2.964   2.465   6.695  1.3668  0.1309  0.4624
  986MOL0     H33072   3.410   2.624   6.544  2.0406  2.7714 -1.4214
  986MOL0     H33073   3.632   2.542   6.493  0.5535  1.6012 -0.0747
  986MOL0     H33074   3.943   2.577   6.786  0.7336 -1.4514  1.3619
  986MOL0     H33075   3.920   2.412   6.824 -1.2337 -0.3092 -0.7982
  986MOL0     H33076   4.046   2.348   6.609 -1.8494  0.4429 -0.2115
  986MOL0     H33077   4.067   2.529   6.587 -1.4614  1.6338  0.9326
  986MOL0     H33078   4.199   2.555   6.791 -0.1674  0.9502 -1.0903
  986MOL0     H33079   4.166   2.393   6.839  0.1182  1.4497  0.7468
  986MOL0     H33080   4.303   2.400   6.568 -0.8835 -1.6644 -0.0994
  986MOL0     H33081   4.308   2.289   6.694  2.5318  0.9452 -0.0474
  986MOL0     H33082   4.424   2.436   6.854 -2.7586 -2.6075 -0.7757
  986MOL0     H33083   4.412   2.568   6.742  2.0256  0.2275  1.8880
  986MOL0     H33084   4.549   2.302   6.669  0.5512  0.3520 -0.8810
  986MOL0     H33085   4.557   2.459   6.585 -0.9049  1.2847  0.7489
  986MOL0     H33086   4.654   2.405   6.874  0.0479 -2.0079 -0.1722
  986MOL0     H33087   4.670   2.557   6.803  0.3636 -1.2648  2.5589
  986MOL0     H33088   4.887   2.393   6.797 -1.8391  0.5422  2.1021
  986MOL0     H33089   4.801   2.326   6.646 -2.1511 -0.0938 -1.1014
  986MOL0     H33090   3.751   2.526   6.901  2.5808  1.1577 -1.5344
  986MOL0     H33091   3.515   2.596   6.967  0.0558  0.9799  1.0549
  986MOL0     H33092   3.125   2.814   6.897 -1.0364 -0.3798  0.4747
  986MOL0     H33093   2.891   2.888   6.931  3.0527  1.8585  1.0493
  986MOL0     H33094   1.508   1.773   6.525 -0.9993 -1.8567  1.3685
  986MOL0     H33095   1.459   1.581   6.399  3.0004  0.7256 -0.8065
  986MOL0     H33096   1.396   1.459   6.011  1.3310 -0.5882 -3.0208
  986MOL0     H33097   1.413   1.358   5.789  0.0068 -2.8830  0.1655
  986MOL0     H33098   1.326   1.325   5.457  2.5014  0.6742  0.9331
  986MOL0     H33099   1.377   1.432   5.584  0.1541  0.9613 -1.3094
  986MOL0     H33100   1.255   1.579   5.484  0.8516 -0.4457 -0.3369
  986MOL0     H33101   1.134   1.516   5.590  0.8920  0.8386 -0.1173
  986MOL0     H33102   1.046   1.381   5.412 -1.4276  1.2402  2.6156
  986MOL0     H33103   1.181   1.432   5.306 -0.2230 -1.4816  1.1813
  986MOL0     H33104   0.975   1.624   5.425  1.5295  0.5856 -0.0832
  986MOL0     H33105   1.101   1.673   5.324 -0.9843  1.1122  0.0645
  986MOL0     H33106   0.835   1.513   5.026  0.4396  0.8775 -0.3254
  986MOL0     H33107   0.997   1.352   5.756 -0.7413  1.8364  1.2956
  986MOL0     H33108   0.855   1.416   5.913  1.6870  1.8953 -1.1017
  986MOL0     H33109   0.894   1.377   6.076  0.7230  1.1290  1.4977
  986MOL0     H33110   0.898   1.542   6.012  0.3774  0.1907  0.4565
  987MOL0     O33111   3.223  10.336   1.449 -0.8808  0.2396  0.6638
  987MOL0     C33112   3.155  10.254   1.378 -0.2595 -0.5471 -0.1731
  987MOL0     O33113   3.195  10.201   1.256  0.2265 -0.1110  0.1508
  987MOL0     C33114   3.319  10.230   1.194 -0.2591  0.1691 -0.1607
  987MOL0     C33115   3.435  10.249   1.269 -0.5567  0.6691  0.6632
  987MOL0     C33116   3.558  10.269   1.200  0.3400 -0.0608  0.2750
  987MOL0     C33117   3.566  10.259   1.056 -0.3309 -0.1832  0.6464
  987MOL0     O33118   3.679  10.285   0.984 -0.3701 -0.6013  0.0315
  987MOL0     C33119   3.808  10.252   1.034 -0.5726 -0.1815 -0.1780
  987MOL0     C33120   3.895  10.234   0.915  0.1338 -0.2288  0.7591
  987MOL0     C33121   3.911  10.368   0.843  0.2414  0.0484  0.1366
  987MOL0     C33122   4.020  10.349   0.732  0.7141 -0.2649 -0.7128
  987MOL0     C33123   4.142  10.439   0.775  0.5065  0.0813 -0.9375
  987MOL0     C33124   4.236  10.438   0.653 -0.9066 -0.4129  0.2392
  987MOL0     C33125   4.367  10.518   0.672  0.2331 -0.1779 -0.2965
  987MOL0     C33126   4.459  10.493   0.556 -0.5957  0.1594 -0.0335
  987MOL0     N33127   4.581  10.578   0.566  0.4653 -0.0513  0.1495
  987MOL0     C33128   4.568  10.719   0.566 -0.4425  0.5612  0.1974
  987MOL0     C33129   4.698  10.763   0.562 -0.1805  0.0474  0.1825
  987MOL0     C33130   4.744  10.900   0.586 -0.0027  0.2197 -0.5914
  987MOL0     C33131   4.799  10.974   0.462 -0.3955 -0.4753 -0.0343
  987MOL0     C33132   4.949  10.977   0.464 -0.6158 -0.3064  0.1363
  987MOL0     C33133   5.018  11.110   0.420 -0.5815  0.2389  0.0266
  987MOL0     O33134   4.988  11.140   0.285  0.0510  0.4602 -0.1392
  987MOL0     C33135   5.078  11.234   0.238 -0.4835 -0.0448 -0.4384
  987MOL0     C33136   5.062  11.369   0.251  0.1668 -0.1334  0.4049
  987MOL0     C33137   5.154  11.464   0.202  0.3765  0.7249 -0.2382
  987MOL0     C33138   5.282  11.422   0.160 -0.1752  0.2303  0.2302
  987MOL0     C33139   5.388  11.521   0.110  0.3071  0.2195  0.0908
  987MOL0     O33140   5.497  11.469   0.051 -0.1950  0.2156  0.1612
  987MOL0     C33141   5.604  11.554   0.008  0.7152 -0.6786  1.0596
  987MOL0     C33142   5.674  11.625   0.108 -0.1467  0.4882 -0.0141
  987MOL0     C33143   5.787  11.699   0.076 -0.3220  0.4920 -0.0082
  987MOL0     C33144   5.830  11.718  -0.058 -0.4755 -0.1673 -0.5145
  987MOL0     O33145   5.929  11.809  -0.077  0.1734  0.5544  0.1313
  987MOL0     C33146   5.955  11.843  -0.214 -0.6726 -1.3554  0.0503
  987MOL0     C33147   6.051  11.959  -0.217  0.1329  0.1178 -0.7425
  987MOL0     C33148   6.127  11.983  -0.345 -0.1530 -0.1065 -0.3826
  987MOL0     C33149   6.204  12.115  -0.331  0.1667 -0.5558  0.6352
  987MOL0     C33150   6.101  12.226  -0.350  0.6791 -0.2686  0.3703
  987MOL0     C33151   6.163  12.371  -0.334 -0.2063  0.2617  0.6716
  987MOL0     C33152   6.199  12.406  -0.193 -0.7867  0.2030 -0.2673
  987MOL0     C33153   6.241  12.553  -0.181  0.1582  0.1024 -0.6305
  987MOL0    Cl33154   6.112  12.665  -0.235  0.0548 -0.2336  0.0140
  987MOL0     C33155   5.760  11.650  -0.155 -0.4822 -0.2921  0.2217
  987MOL0     C33156   5.652  11.564  -0.121  0.0139 -0.0584 -0.4398
  987MOL0     O33157   5.361  11.637   0.115  0.4621 -0.3275 -0.2235
  987MOL0     C33158   5.296  11.283   0.138  0.5818  0.1028 -0.0370
  987MOL0     C33159   5.189  11.194   0.171  0.3353  0.2711  0.6647
  987MOL0     N33160   4.775  10.651   0.570  0.2498  0.0740 -0.4184
  987MOL0     N33161   4.707  10.542   0.563 -0.1603 -0.1186 -0.5386
  987MOL0     C33162   3.445  10.229   0.986  0.6368 -0.3328  0.0526
  987MOL0     C33163   3.323  10.203   1.058  0.2743  0.6131  0.2653
  987MOL0     C33164   3.020  10.216   1.435 -0.1187 -0.2159  0.2385
  987MOL0     C33165   2.942  10.152   1.334 -0.0518 -0.5218 -0.4999
  987MOL0     C33166   2.814  10.127   1.372  0.1879 -0.7838 -0.5224
  987MOL0     C33167   2.758  10.154   1.499  0.4133  0.2629  0.7192
  987MOL0     O33168   2.625  10.144   1.529  0.1872  0.3218 -0.3167
  987MOL0     C33169   2.538  10.069   1.443 -0.1610  0.3015 -0.0887
  987MOL0     C33170   2.416  10.023   1.519  0.4435  0.1714  0.3016
  987MOL0     C33171   2.337  10.139   1.597  0.7683 -0.0529  0.4324
  987MOL0     C33172   2.305  10.263   1.521 -0.6115 -0.5417  0.2513
  987MOL0     C33173   2.200  10.346   1.579  0.1723  0.0455 -0.5538
  987MOL0     C33174   2.124  10.416   1.638  0.4335 -0.5508 -0.1142
  987MOL0     C33175   2.834  10.207   1.596 -0.3942 -1.1047  0.0845
  987MOL0     C33176   2.970  10.243   1.567 -0.1033 -1.0613  0.4228
  987MOL0     C33177   3.055  10.296   1.673  0.7545  1.1492 -0.0865
  987MOL0     H33178   3.432  10.258   1.377  1.7418  1.2613  0.7201
  987MOL0     H33179   3.648  10.295   1.256  1.4156  2.2854 -2.3070
  987MOL0     H33180   3.845  10.329   1.102  1.0585 -0.9699 -0.1196
  987MOL0     H33181   3.804  10.161   1.095 -3.5962 -0.4127 -0.5549
  987MOL0     H33182   3.844  10.159   0.854 -1.8084  1.0530  0.7040
  987MOL0     H33183   3.991  10.193   0.948  2.1862  3.3368 -0.2606
  987MOL0     H33184   3.934  10.449   0.913 -3.3077  3.5782 -2.3064
  987MOL0     H33185   3.817  10.403   0.800 -0.5430 -1.1584  0.8266
  987MOL0     H33186   4.045  10.242   0.734 -2.3466 -1.0967 -0.5888
  987MOL0     H33187   3.973  10.373   0.635  1.6114  0.9136 -0.8714
  987MOL0     H33188   4.106  10.539   0.802 -0.2499 -0.2715 -0.6133
  987MOL0     H33189   4.202  10.389   0.852 -2.2519 -0.1600  1.2034
  987MOL0     H33190   4.262  10.335   0.628  1.6865  0.2232  0.0809
  987MOL0     H33191   4.185  10.479   0.565  2.3809  0.2860 -1.5040
  987MOL0     H33192   4.422  10.483   0.760  2.2261 -0.1846 -1.4843
  987MOL0     H33193   4.336  10.623   0.677  0.7289 -0.0665  0.7024
  987MOL0     H33194   4.489  10.387   0.553  0.7934  0.5239  0.2121
  987MOL0     H33195   4.416  10.515   0.457  0.1416 -0.6361 -0.5512
  987MOL0     H33196   4.475  10.774   0.560 -0.0378  1.1220 -1.6198
  987MOL0     H33197   4.657  10.952   0.627  0.1463  1.4303 -1.7559
  987MOL0     H33198   4.813  10.905   0.671 -0.0612  1.9364 -0.6163
  987MOL0     H33199   4.772  10.931   0.366  0.6303 -1.5539  0.1357
  987MOL0     H33200   4.755  11.074   0.467  0.2651 -0.2104  0.8893
  987MOL0     H33201   4.983  10.903   0.391  1.4103 -0.7907  1.4818
  987MOL0     H33202   4.991  10.944   0.560 -0.6099  0.9564  0.5776
  987MOL0     H33203   5.123  11.126   0.444 -0.7212  0.5624  0.4567
  987MOL0     H33204   4.971  11.194   0.474 -1.7793 -1.3598  1.6071
  987MOL0     H33205   4.964  11.395   0.290 -0.0158 -0.6442  0.2967
  987MOL0     H33206   5.129  11.569   0.205  0.2568  0.6742  1.6201
  987MOL0     H33207   5.646  11.612   0.212 -0.6524 -1.1476 -0.3321
  987MOL0     H33208   5.852  11.745   0.149 -1.7831  2.0183  0.3930
  987MOL0     H33209   6.009  11.756  -0.252  2.3042  1.3729 -2.4537
  987MOL0     H33210   5.872  11.868  -0.281 -0.3229 -0.0036  0.1003
  987MOL0     H33211   6.001  12.049  -0.180  1.0588  0.1764  0.4288
  987MOL0     H33212   6.122  11.938  -0.136  0.6000  2.3524 -0.5219
  987MOL0     H33213   6.199  11.903  -0.363  1.6778  1.5705 -0.8518
  987MOL0     H33214   6.052  11.995  -0.424 -2.0579  1.5705  1.5541
  987MOL0     H33215   6.263  12.122  -0.422  0.8429 -2.9470  0.8351
  987MOL0     H33216   6.269  12.124  -0.244  1.0479 -0.9619  0.0264
  987MOL0     H33217   6.021  12.224  -0.276 -0.6661 -0.8538 -1.0391
  987MOL0     H33218   6.059  12.216  -0.451  0.2828 -1.8692  0.6806
  987MOL0     H33219   6.246  12.393  -0.402 -1.1475  1.4646 -0.1334
  987MOL0     H33220   6.083  12.441  -0.361 -0.2893 -0.1054 -0.0833
  987MOL0     H33221   6.278  12.334  -0.169 -1.7501 -0.9674 -0.5186
  987MOL0     H33222   6.113  12.390  -0.127  0.5647 -0.9711  1.3031
  987MOL0     H33223   6.259  12.568  -0.074 -3.2856  0.8158 -0.0365
  987MOL0     H33224   6.333  12.578  -0.235  0.0494 -0.7521 -1.2315
  987MOL0     H33225   5.776  11.667  -0.261 -1.9689  0.6735  0.1110
  987MOL0     H33226   5.598  11.510  -0.198  1.6703 -0.6831 -1.2327
  987MOL0     H33227   5.383  11.239   0.091 -0.6116  0.1345 -2.4614
  987MOL0     H33228   5.201  11.087   0.159  0.7600  0.3019  0.7873
  987MOL0     H33229   3.436  10.224   0.878  0.1261  0.6283  0.0363
  987MOL0     H33230   3.230  10.175   1.010 -0.7525  3.6300  0.2332
  987MOL0     H33231   2.967  10.139   1.229 -1.6386 -1.0337 -0.8406
  987MOL0     H33232   2.749  10.084   1.296 -1.1414 -1.1985  0.8007
  987MOL0     H33233   2.591   9.980   1.408 -3.2852 -1.3179 -1.0115
  987MOL0     H33234   2.503  10.132   1.360  1.4135  2.9271  1.0890
  987MOL0     H33235   2.454   9.959   1.599  2.4749  1.6943  0.6389
  987MOL0     H33236   2.346   9.960   1.462  2.2142  0.1633 -2.0220
  987MOL0     H33237   2.385  10.167   1.691 -0.4713  3.4690  0.1618
  987MOL0     H33238   2.234  10.106   1.611  0.5868  0.2181 -0.2131
  987MOL0     H33239   2.396  10.318   1.495 -0.2612 -2.3511 -2.8208
  987MOL0     H33240   2.281  10.226   1.421  1.3776  1.3063 -1.0144
  987MOL0     H33241   2.064  10.485   1.695  1.9249 -1.4239  2.6904
  987MOL0     H33242   2.792  10.219   1.695  0.2433 -0.2085  0.2524
  987MOL0     H33243   3.079  10.401   1.652  0.4504  1.1478 -0.4442
  987MOL0     H33244   3.006  10.307   1.770  0.1103 -0.0822 -0.2515
  987MOL0     H33245   3.148  10.240   1.686  0.3243  0.3828 -0.2397
  988MOL0     O33246   2.940   7.781   2.250 -0.1859  0.3553 -0.0073
  988MOL0     C33247   2.889   7.775   2.140  0.1393  0.9128 -0.7938
  988MOL0     O33248   2.929   7.834   2.027  0.2782 -0.3495  0.4288
  988MOL0     C33249   3.039   7.914   2.043  0.0853 -0.0606  0.6132
  988MOL0     C33250   3.166   7.844   2.046  1.0725  0.0020  0.4960
  988MOL0     C33251   3.286   7.913   2.043  0.4690  0.1076  0.1223
  988MOL0     C33252   3.281   8.053   2.029  0.4389 -0.6069 -0.3293
  988MOL0     O33253   3.398   8.119   2.051 -0.7382  0.3528 -0.0804
  988MOL0     C33254   3.410   8.259   2.022  0.4371 -0.1496  0.2481
  988MOL0     C33255   3.558   8.300   2.005 -1.1553 -0.2117 -0.2045
  988MOL0     C33256   3.607   8.227   1.887 -0.7918 -0.3177  0.2689
  988MOL0     C33257   3.747   8.276   1.844 -0.1328 -0.4468  0.1241
  988MOL0     C33258   3.870   8.195   1.896  0.0138  0.1466 -0.2460
  988MOL0     C33259   4.004   8.256   1.839 -0.1562 -0.5992  0.0362
  988MOL0     C33260   4.125   8.178   1.892 -0.0019 -0.5134  0.4743
  988MOL0     C33261   4.252   8.236   1.827  0.0464  0.5408  0.0598
  988MOL0     N33262   4.368   8.168   1.875 -0.2014 -0.1505 -0.0139
  988MOL0     C33263   4.384   8.037   1.912  0.1396 -0.1956  0.5359
  988MOL0     C33264   4.517   8.018   1.954 -0.8407 -0.1828 -0.6406
  988MOL0     C33265   4.573   7.886   2.011 -0.4141  0.2541 -0.3326
  988MOL0     C33266   4.535   7.858   2.154  0.2652 -0.1722  0.4234
  988MOL0     C33267   4.582   7.725   2.189  0.2667  0.6904 -0.3899
  988MOL0     C33268   4.516   7.667   2.321 -1.5181  1.5794 -0.3928
  988MOL0     O33269   4.540   7.522   2.335  0.2146  0.4510  0.3060
  988MOL0     C33270   4.486   7.447   2.433 -0.4606  0.5401  1.2593
  988MOL0     C33271   4.355   7.456   2.465 -0.2097  0.3805 -0.3367
  988MOL0     C33272   4.298   7.374   2.561  0.0288  0.4082 -0.6388
  988MOL0     C33273   4.372   7.283   2.636 -0.1344 -0.7238 -0.2300
  988MOL0     C33274   4.312   7.218   2.752 -0.6443 -0.4878 -0.0472
  988MOL0     O33275   4.178   7.225   2.770  0.6369  0.3814 -0.2226
  988MOL0     C33276   4.120   7.189   2.894 -0.4355  0.2849  0.2231
  988MOL0     C33277   4.051   7.287   2.961 -0.6489  0.8186 -0.3428
  988MOL0     C33278   3.995   7.256   3.085 -0.5175  0.4790  0.6871
  988MOL0     C33279   3.993   7.123   3.133 -0.5385  0.2925  0.3399
  988MOL0     O33280   3.923   7.094   3.251  0.2439  0.5834  0.0411
  988MOL0     C33281   3.891   6.960   3.287 -0.1759  0.5117  0.1297
  988MOL0     C33282   3.812   6.947   3.409 -0.3556 -0.5599 -0.6254
  988MOL0     C33283   3.789   6.805   3.461  0.6913 -1.2597  0.2707
  988MOL0     C33284   3.701   6.812   3.587 -0.1608  1.0957  0.1787
  988MOL0     C33285   3.699   6.671   3.653  0.3149  0.0003  0.3570
  988MOL0     C33286   3.621   6.662   3.786 -0.1210  0.6085 -0.5883
  988MOL0     C33287   3.472   6.670   3.781  0.4725  0.3979 -0.5595
  988MOL0     C33288   3.399   6.643   3.913  0.3230 -0.4516 -0.1083
  988MOL0    Cl33289   3.407   6.484   3.977  0.1233 -0.6836 -0.1742
  988MOL0     C33290   4.068   7.028   3.065 -0.3556 -0.7750  0.4614
  988MOL0     C33291   4.131   7.059   2.947  0.1122  1.0201 -0.0681
  988MOL0     O33292   4.389   7.165   2.826 -0.2868  0.0399 -0.2544
  988MOL0     C33293   4.506   7.260   2.603  0.1528 -0.5016  0.1505
  988MOL0     C33294   4.557   7.340   2.490 -0.1747 -0.0657 -0.8367
  988MOL0     N33295   4.576   8.144   1.943  0.6233 -0.0856 -0.5348
  988MOL0     N33296   4.482   8.230   1.905 -0.3256  0.5204 -0.2474
  988MOL0     C33297   3.159   8.116   2.011  0.0941 -0.4403  0.1317
  988MOL0     C33298   3.040   8.056   2.014 -0.4154  0.8832  1.1980
  988MOL0     C33299   2.753   7.709   2.136 -0.2096  0.7201 -0.7269
  988MOL0     C33300   2.652   7.749   2.235  0.3628  0.3823 -0.1935
  988MOL0     C33301   2.519   7.699   2.218  0.4857 -0.3001 -0.1675
  988MOL0     C33302   2.489   7.613   2.122  0.0282  0.2052 -0.5343
  988MOL0     O33303   2.359   7.571   2.116  0.7401 -0.2466  0.0850
  988MOL0     C33304   2.294   7.563   1.982  0.0678 -0.3825 -0.2126
  988MOL0     C33305   2.140   7.559   1.998  0.1834  1.0334 -0.6716
  988MOL0     C33306   2.067   7.585   1.867 -0.4896  0.9576 -0.4494
  988MOL0     C33307   1.921   7.632   1.870 -0.1155 -0.4225 -0.2447
  988MOL0     C33308   1.834   7.523   1.920  0.5460  1.1750  0.4366
  988MOL0     C33309   1.783   7.425   1.973 -0.7577 -0.2686  0.1804
  988MOL0     C33310   2.584   7.569   2.025 -0.2883  0.2536 -1.4200
  988MOL0     C33311   2.714   7.621   2.030 -0.4080 -0.0246  0.2483
  988MOL0     C33312   2.816   7.575   1.931 -0.1685  0.0743  0.2717
  988MOL0     H33313   3.169   7.736   2.037  1.9413 -0.0141  0.8736
  988MOL0     H33314   3.375   7.852   2.053  1.4127  1.6023  1.0019
  988MOL0     H33315   3.367   8.283   1.924 -0.2400 -1.5870  0.1685
  988MOL0     H33316   3.368   8.312   2.107  1.7271 -0.8226  1.3362
  988MOL0     H33317   3.614   8.269   2.093 -0.4333 -2.3561 -1.3397
  988MOL0     H33318   3.577   8.406   1.986 -0.4761 -0.5494 -1.6136
  988MOL0     H33319   3.541   8.251   1.803 -0.1863  0.0357 -0.1073
  988MOL0     H33320   3.608   8.118   1.890  0.0902 -0.3803 -1.4517
  988MOL0     H33321   3.752   8.275   1.734 -0.0222  0.9236  0.0955
  988MOL0     H33322   3.758   8.380   1.876  0.2667  0.8264 -3.6310
  988MOL0     H33323   3.874   8.202   2.005  1.2621  2.4129 -0.3571
  988MOL0     H33324   3.859   8.090   1.867  0.8917 -0.3952  1.2817
  988MOL0     H33325   3.999   8.260   1.730 -0.7504  0.3758  0.0842
  988MOL0     H33326   4.009   8.358   1.878  0.0562 -0.8801  0.7715
  988MOL0     H33327   4.120   8.072   1.869 -0.5458 -0.3895 -0.0030
  988MOL0     H33328   4.134   8.194   2.000  3.0017  0.8005  0.1217
  988MOL0     H33329   4.251   8.213   1.720  1.0008 -1.2861  0.4031
  988MOL0     H33330   4.258   8.343   1.847 -0.2150  0.3293  1.3148
  988MOL0     H33331   4.307   7.962   1.927 -0.4341  0.2136 -0.2754
  988MOL0     H33332   4.536   7.799   1.956  3.3839 -1.2816 -0.8027
  988MOL0     H33333   4.681   7.891   1.996 -0.2527  1.1385  0.9681
  988MOL0     H33334   4.583   7.931   2.220 -0.5905  0.7637  0.0318
  988MOL0     H33335   4.427   7.851   2.170 -0.2438 -1.5771 -2.8638
  988MOL0     H33336   4.691   7.721   2.191  0.2367 -0.3945 -0.3747
  988MOL0     H33337   4.552   7.647   2.119 -0.8520 -0.4792  1.3277
  988MOL0     H33338   4.409   7.692   2.321 -0.9963  4.2670  1.4195
  988MOL0     H33339   4.550   7.713   2.415 -1.1595  0.5472 -0.0076
  988MOL0     H33340   4.300   7.537   2.419 -0.5687 -1.4327 -3.2843
  988MOL0     H33341   4.195   7.395   2.589  0.3665 -2.0676  3.2248
  988MOL0     H33342   4.043   7.390   2.930  1.7623  1.5817  1.3293
  988MOL0     H33343   3.933   7.328   3.137  1.3660  2.9528 -0.3413
  988MOL0     H33344   3.842   6.915   3.201  1.5858  0.4734 -0.9114
  988MOL0     H33345   3.983   6.901   3.297 -0.9397 -0.9857 -1.2008
  988MOL0     H33346   3.845   7.010   3.492  1.2959 -1.3222 -0.6698
  988MOL0     H33347   3.713   6.984   3.380  0.2887 -0.8031 -3.4390
  988MOL0     H33348   3.733   6.757   3.381  2.2884  0.1472 -1.7995
  988MOL0     H33349   3.884   6.753   3.481  1.7088 -0.2042 -1.5306
  988MOL0     H33350   3.599   6.834   3.553 -0.3668 -1.1947 -0.8708
  988MOL0     H33351   3.736   6.890   3.654  3.4634  1.1385 -1.5585
  988MOL0     H33352   3.797   6.625   3.670  0.5250 -0.0134 -0.7635
  988MOL0     H33353   3.650   6.598   3.587  1.9199 -0.6326 -0.1819
  988MOL0     H33354   3.645   6.569   3.839 -0.5615  1.6399  1.5466
  988MOL0     H33355   3.652   6.743   3.854  0.9454 -2.8273  3.4521
  988MOL0     H33356   3.439   6.595   3.708 -0.8091  0.9975 -0.6289
  988MOL0     H33357   3.439   6.763   3.735  3.4860  0.2500 -3.3300
  988MOL0     H33358   3.448   6.719   3.973  1.6483 -0.3658 -1.2416
  988MOL0     H33359   3.295   6.678   3.904  1.0112  1.5348 -0.8886
  988MOL0     H33360   4.082   6.930   3.108  0.6282  1.0948  4.9570
  988MOL0     H33361   4.159   6.976   2.884 -1.7288  1.5870 -1.7418
  988MOL0     H33362   4.565   7.183   2.651 -0.8483 -1.4302 -0.0667
  988MOL0     H33363   4.659   7.328   2.454  0.1961 -1.7478  0.6737
  988MOL0     H33364   3.158   8.224   2.010  0.4721 -0.4214 -2.1099
  988MOL0     H33365   2.947   8.112   2.005  0.0621  1.3806 -1.6440
  988MOL0     H33366   2.668   7.814   2.320 -1.4999 -0.9874  1.2916
  988MOL0     H33367   2.440   7.741   2.279 -0.0897 -0.8631 -0.5195
  988MOL0     H33368   2.312   7.474   1.921 -0.9496 -0.6268 -0.1675
  988MOL0     H33369   2.323   7.650   1.923 -0.1727  2.5098  3.4998
  988MOL0     H33370   2.109   7.623   2.082  0.2067  0.3461 -0.1332
  988MOL0     H33371   2.112   7.460   2.033  2.6338  0.0321 -1.3542
  988MOL0     H33372   2.073   7.503   1.795  1.5104 -0.4279  1.1813
  988MOL0     H33373   2.123   7.671   1.828  1.2632  0.5948  1.1277
  988MOL0     H33374   1.918   7.723   1.932 -1.7986 -0.4395 -0.2550
  988MOL0     H33375   1.902   7.663   1.767 -0.6653  1.8097  0.4726
  988MOL0     H33376   1.738   7.333   2.003 -1.0164 -1.4145 -3.2391
  988MOL0     H33377   2.560   7.496   1.948  0.3150 -1.1294 -0.3439
  988MOL0     H33378   2.775   7.519   1.847 -0.4194  0.3879  0.1842
  988MOL0     H33379   2.865   7.662   1.887  0.0184  0.9148  2.0527
  988MOL0     H33380   2.896   7.530   1.991  0.0851  3.5774  2.9077
  989MOL0     O33381   4.329   1.763   2.065  0.2530 -0.3022  0.1821
  989MOL0     C33382   4.402   1.697   1.990  1.0285 -1.1349 -0.5225
  989MOL0     O33383   4.371   1.585   1.927 -0.7466  0.0288 -0.1610
  989MOL0     C33384   4.249   1.519   1.942  0.4418 -0.4669 -0.3892
  989MOL0     C33385   4.265   1.383   1.960 -0.4096  0.8089  0.0749
  989MOL0     C33386   4.146   1.301   1.988  0.2185  0.3486 -0.5826
  989MOL0     C33387   4.015   1.355   1.975 -0.5308  0.6763  0.3659
  989MOL0     O33388   3.904   1.291   1.987 -0.2182  1.4781  0.1848
  989MOL0     C33389   3.904   1.184   2.084 -0.3598 -1.2671 -0.0202
  989MOL0     C33390   3.769   1.124   2.107 -0.1418 -0.1372 -0.8080
  989MOL0     C33391   3.734   1.039   1.984  0.2051 -0.6057 -0.3513
  989MOL0     C33392   3.583   0.998   2.001  1.1747 -0.9637 -0.8342
  989MOL0     C33393   3.530   0.926   1.873  0.5571  0.4995 -0.8318
  989MOL0     C33394   3.582   0.785   1.872  0.6601  0.0903 -0.0385
  989MOL0     C33395   3.555   0.723   1.731  0.7682 -0.0002 -0.0254
  989MOL0     C33396   3.681   0.737   1.647 -1.0681 -0.5027 -0.0517
  989MOL0     N33397   3.703   0.876   1.588 -0.1545  0.1151 -0.2963
  989MOL0     C33398   3.784   0.964   1.647 -0.7771  0.5530  0.4650
  989MOL0     C33399   3.794   1.073   1.561 -1.5668  0.6095  0.3821
  989MOL0     C33400   3.883   1.196   1.569  0.0846 -0.0350 -0.2923
  989MOL0     C33401   4.011   1.186   1.658  0.7702  0.4383  0.7870
  989MOL0     C33402   4.102   1.074   1.612  0.0826 -0.3737  0.7520
  989MOL0     C33403   4.226   1.063   1.687  0.1389 -0.3604  0.4986
  989MOL0     O33404   4.298   1.185   1.695 -0.9892  0.0426  0.3966
  989MOL0     C33405   4.432   1.185   1.723  0.0635 -0.2399  0.9544
  989MOL0     C33406   4.520   1.294   1.680 -0.0292  0.0926 -1.0258
  989MOL0     C33407   4.640   1.310   1.753  0.1909 -0.4040  0.0927
  989MOL0     C33408   4.684   1.214   1.849 -0.3667 -0.0428  0.2933
  989MOL0     C33409   4.817   1.236   1.922 -0.2982  0.4833  0.0143
  989MOL0     O33410   4.839   1.140   2.019  0.5051 -0.8335 -0.0818
  989MOL0     C33411   4.944   1.177   2.104 -0.2552  0.3777 -0.0767
  989MOL0     C33412   5.077   1.175   2.053  1.0706 -0.3157 -0.8937
  989MOL0     C33413   5.187   1.200   2.139  0.5570 -0.0961 -0.4807
  989MOL0     C33414   5.156   1.227   2.271 -0.1272  0.4669 -0.4481
  989MOL0     O33415   5.263   1.266   2.346  0.0668  0.1782  0.5893
  989MOL0     C33416   5.240   1.334   2.470 -0.1760  0.2172  0.7124
  989MOL0     C33417   5.367   1.401   2.511  0.5903  0.3948  0.0494
  989MOL0     C33418   5.410   1.507   2.410 -0.4861 -0.4596 -0.5964
  989MOL0     C33419   5.559   1.558   2.433  0.2387 -0.5962  0.6904
  989MOL0     C33420   5.604   1.653   2.316 -0.0937  0.2892  0.7679
  989MOL0     C33421   5.514   1.785   2.281  1.0878  0.1482  0.3578
  989MOL0     C33422   5.579   1.863   2.158  0.3352 -0.4478  0.2831
  989MOL0     C33423   5.672   1.976   2.215  0.3002 -0.3134 -0.1347
  989MOL0    Cl33424   5.822   1.905   2.276  0.6389  0.0788  0.3365
  989MOL0     C33425   5.022   1.217   2.319 -0.7247 -0.7579 -0.2252
  989MOL0     C33426   4.918   1.199   2.236 -0.3628  0.5149  0.6839
  989MOL0     O33427   4.892   1.327   1.890  0.5311 -0.2595 -0.2556
  989MOL0     C33428   4.602   1.106   1.879 -0.7676 -0.3526 -0.8554
  989MOL0     C33429   4.477   1.089   1.815  0.1678 -0.8931 -0.4426
  989MOL0     N33430   3.714   1.042   1.453 -0.4944  0.6387 -0.3541
  989MOL0     N33431   3.671   0.920   1.464  0.1393  0.8224  1.0010
  989MOL0     C33432   4.001   1.485   1.948  0.7816  0.2081 -0.1967
  989MOL0     C33433   4.117   1.566   1.936  0.8877  0.2241 -0.4598
  989MOL0     C33434   4.541   1.751   1.970  0.0739 -0.4040  0.2132
  989MOL0     C33435   4.645   1.652   1.970 -0.5583  0.0727 -0.0315
  989MOL0     C33436   4.786   1.681   1.966  1.1016 -0.7621  0.1886
  989MOL0     C33437   4.824   1.818   1.949  0.2027  0.0834  0.0574
  989MOL0     O33438   4.954   1.865   1.946 -0.4898 -0.5381  0.0687
  989MOL0     C33439   5.035   1.797   1.843 -0.5972  0.5320  1.3642
  989MOL0     C33440   5.113   1.670   1.877 -0.3399  0.1383  0.4098
  989MOL0     C33441   5.201   1.696   2.001  0.4406 -0.5538 -0.0741
  989MOL0     C33442   5.267   1.570   2.059 -0.7269 -0.2144 -0.2014
  989MOL0     C33443   5.312   1.475   1.958 -0.1860 -0.5499 -0.9986
  989MOL0     C33444   5.354   1.380   1.900 -0.3599  1.1148  0.1954
  989MOL0     C33445   4.724   1.916   1.965 -0.5551  0.5860  0.8495
  989MOL0     C33446   4.584   1.883   1.969  0.1184  0.0553  0.9195
  989MOL0     C33447   4.487   1.999   1.955  0.4689 -0.4277  0.2505
  989MOL0     H33448   4.363   1.336   1.958 -1.3775 -1.7117  3.5750
  989MOL0     H33449   4.154   1.193   1.999 -1.6989  0.2179 -0.1692
  989MOL0     H33450   3.983   1.112   2.059  3.7355  2.4871  0.7715
  989MOL0     H33451   3.931   1.229   2.180 -0.5278 -0.7906 -0.1930
  989MOL0     H33452   3.704   1.211   2.123  0.7538  0.2802  0.6402
  989MOL0     H33453   3.776   1.068   2.200  2.8334  0.1575 -0.7800
  989MOL0     H33454   3.792   0.947   1.977 -0.4738 -1.1054  0.4184
  989MOL0     H33455   3.748   1.108   1.900  0.0637 -0.2428 -0.0816
  989MOL0     H33456   3.564   0.925   2.079 -0.9780  0.6841  0.2960
  989MOL0     H33457   3.534   1.095   2.013  2.4691 -0.6761  4.2037
  989MOL0     H33458   3.421   0.924   1.881  0.5726  1.7534 -0.0141
  989MOL0     H33459   3.566   0.983   1.787  3.1920  0.7927  0.3832
  989MOL0     H33460   3.687   0.782   1.902  0.7532  3.1797  0.2093
  989MOL0     H33461   3.518   0.729   1.941  2.2389 -1.7766 -0.0115
  989MOL0     H33462   3.460   0.756   1.687  0.4466 -1.9903 -0.9088
  989MOL0     H33463   3.544   0.616   1.750 -0.9506  0.2987  0.8892
  989MOL0     H33464   3.768   0.705   1.705 -0.4220 -1.8504 -1.6566
  989MOL0     H33465   3.675   0.664   1.565 -1.1756  0.2786 -0.7602
  989MOL0     H33466   3.841   0.940   1.736 -0.7923 -1.6325 -0.0504
  989MOL0     H33467   3.898   1.221   1.463  1.8251  0.5575  0.0549
  989MOL0     H33468   3.821   1.278   1.605 -0.5768 -0.5276 -0.2864
  989MOL0     H33469   4.057   1.283   1.635  2.3996 -0.6744 -0.9154
  989MOL0     H33470   4.003   1.165   1.765 -1.3221 -1.8098  0.2499
  989MOL0     H33471   4.125   1.085   1.506 -1.8017 -1.8469  0.1251
  989MOL0     H33472   4.045   0.981   1.627 -0.8437  0.2826  1.4583
  989MOL0     H33473   4.286   0.978   1.654 -0.6940 -1.6597  2.1762
  989MOL0     H33474   4.206   1.044   1.792 -0.5438 -2.2460  0.0650
  989MOL0     H33475   4.467   1.360   1.612  0.7706 -0.0870 -1.8478
  989MOL0     H33476   4.708   1.391   1.730 -0.2147  0.0759  0.5469
  989MOL0     H33477   5.098   1.159   1.948  1.9836  1.2928 -0.9964
  989MOL0     H33478   5.290   1.216   2.109  1.5865  1.3431  3.1841
  989MOL0     H33479   5.157   1.407   2.473  0.0720  0.4902  1.0295
  989MOL0     H33480   5.215   1.261   2.547  0.1448 -0.2569  0.3694
  989MOL0     H33481   5.347   1.446   2.608 -0.8486  0.2106 -0.1355
  989MOL0     H33482   5.441   1.323   2.532  0.3532 -0.7499 -2.8357
  989MOL0     H33483   5.417   1.463   2.311 -2.7799 -0.0321 -1.0032
  989MOL0     H33484   5.333   1.585   2.412 -0.6448 -0.5752  2.1949
  989MOL0     H33485   5.625   1.472   2.446  0.3284 -0.6872 -0.3265
  989MOL0     H33486   5.551   1.621   2.523  0.2031  1.8573 -0.9150
  989MOL0     H33487   5.622   1.599   2.222 -0.7873  0.8724  0.2845
  989MOL0     H33488   5.695   1.700   2.354 -0.3870  0.3993  1.3350
  989MOL0     H33489   5.414   1.750   2.258  1.6122 -1.7357  0.7886
  989MOL0     H33490   5.510   1.853   2.366 -0.4824  1.4756 -0.7174
  989MOL0     H33491   5.492   1.904   2.106  2.6601  3.7547 -0.7714
  989MOL0     H33492   5.637   1.795   2.095  0.6370 -2.2203  2.3454
  989MOL0     H33493   5.696   2.055   2.143  4.9748  1.6835  3.0571
  989MOL0     H33494   5.620   2.032   2.294 -1.2280 -0.5119 -0.9737
  989MOL0     H33495   4.999   1.240   2.423 -1.2168 -2.0898 -0.0225
  989MOL0     H33496   4.815   1.208   2.269 -0.3931  0.7642  0.5213
  989MOL0     H33497   4.641   1.039   1.954  2.7076  3.5135  1.2250
  989MOL0     H33498   4.413   1.007   1.846 -2.2752  0.4646 -1.6373
  989MOL0     H33499   3.904   1.532   1.940  1.4150  1.3939 -1.5003
  989MOL0     H33500   4.107   1.674   1.923  0.7586  0.4483  1.3129
  989MOL0     H33501   4.615   1.549   1.988  0.6925 -0.2919  0.0768
  989MOL0     H33502   4.848   1.593   1.958 -0.5133 -1.9201 -0.0280
  989MOL0     H33503   5.108   1.872   1.811  0.1578  0.4183  2.7444
  989MOL0     H33504   4.963   1.767   1.767 -0.1280 -1.2653  1.5873
  989MOL0     H33505   5.179   1.629   1.800  2.7940  2.2170  1.7564
  989MOL0     H33506   5.040   1.593   1.902 -1.3367  1.1788  0.8161
  989MOL0     H33507   5.140   1.750   2.075  1.4494 -0.8319  1.0050
  989MOL0     H33508   5.285   1.761   1.974 -0.5129  0.2285 -1.2365
  989MOL0     H33509   5.348   1.603   2.125 -1.1610 -0.1551  0.3142
  989MOL0     H33510   5.200   1.523   2.132  0.8325  2.1322  3.0293
  989MOL0     H33511   5.394   1.292   1.853  1.5135  1.3079  1.3272
  989MOL0     H33512   4.748   2.022   1.964 -0.8723  0.6729  1.6135
  989MOL0     H33513   4.401   1.965   1.898  1.0369 -0.2448 -0.7341
  989MOL0     H33514   4.464   2.048   2.050 -0.0411 -0.8944  0.3767
  989MOL0     H33515   4.544   2.072   1.897 -0.4874 -0.9959 -1.4877
  990MOL0     O33516   2.182   7.554   2.930 -0.1635  0.3633  0.0491
  990MOL0     C33517   2.109   7.527   2.837  0.0961 -0.1487 -0.2888
  990MOL0     O33518   2.139   7.544   2.700  0.4629 -0.5315 -0.1022
  990MOL0     C33519   2.253   7.614   2.674 -0.6034 -0.0604  0.0557
  990MOL0     C33520   2.352   7.555   2.582  0.2224  0.2002  0.1769
  990MOL0     C33521   2.475   7.619   2.555  0.7175 -0.7389 -0.0595
  990MOL0     C33522   2.502   7.738   2.617 -0.3915  0.4668 -0.0575
  990MOL0     O33523   2.624   7.807   2.588  0.6494 -0.3937  0.4531
  990MOL0     C33524   2.706   7.833   2.697 -0.5037  0.9672 -1.1032
  990MOL0     C33525   2.834   7.894   2.650  0.1865  0.1559 -0.0622
  990MOL0     C33526   2.929   7.928   2.764  0.5532  0.0906 -0.7189
  990MOL0     C33527   3.081   7.890   2.734  0.4342  0.0492  0.1550
  990MOL0     C33528   3.128   7.940   2.596  0.5042 -0.1046  0.0589
  990MOL0     C33529   3.277   7.956   2.583  0.1129  0.6360 -0.4009
  990MOL0     C33530   3.310   7.995   2.441  0.1774 -0.4689 -0.0309
  990MOL0     C33531   3.458   7.983   2.411 -0.0303  0.0945 -0.2395
  990MOL0     N33532   3.542   8.079   2.478  0.0102  0.6118 -0.6678
  990MOL0     C33533   3.590   8.189   2.417 -0.0601 -0.5776  0.1820
  990MOL0     C33534   3.660   8.242   2.518  0.9632  0.1252 -0.8868
  990MOL0     C33535   3.737   8.366   2.507 -0.4615 -0.9423 -0.8396
  990MOL0     C33536   3.842   8.362   2.397  0.1388  0.0402  0.0708
  990MOL0     C33537   3.869   8.500   2.352 -0.0981 -0.3809 -0.3888
  990MOL0     C33538   3.991   8.500   2.257  0.2432  0.3702  0.5206
  990MOL0     O33539   4.111   8.457   2.323  0.1959  0.2089  0.8592
  990MOL0     C33540   4.232   8.490   2.280 -0.0229 -1.1725 -0.1016
  990MOL0     C33541   4.265   8.512   2.144 -0.3849 -0.1709 -0.0539
  990MOL0     C33542   4.397   8.527   2.098 -0.3187 -0.4289 -0.5322
  990MOL0     C33543   4.503   8.540   2.192 -0.5846  0.5755  0.4383
  990MOL0     C33544   4.640   8.537   2.148 -0.2874  0.6902  0.7394
  990MOL0     O33545   4.656   8.495   2.017  0.4925  0.1478  0.7248
  990MOL0     C33546   4.787   8.498   1.975  0.4433 -0.3090 -0.1510
  990MOL0     C33547   4.841   8.614   1.927  0.4128 -0.3071  0.2077
  990MOL0     C33548   4.977   8.625   1.887  0.0780  0.7708  0.9547
  990MOL0     C33549   5.050   8.506   1.886  0.4560 -0.6322 -0.3977
  990MOL0     O33550   5.180   8.519   1.839 -0.2106 -0.2596 -0.5978
  990MOL0     C33551   5.278   8.543   1.945  0.7860 -0.1458 -0.7086
  990MOL0     C33552   5.418   8.541   1.885 -0.7378  0.6974 -0.1541
  990MOL0     C33553   5.531   8.574   1.969  0.0027 -0.2639  1.1628
  990MOL0     C33554   5.663   8.554   1.894 -0.1304 -0.4284  0.3505
  990MOL0     C33555   5.788   8.591   1.979  0.4809 -0.1086 -0.1353
  990MOL0     C33556   5.913   8.556   1.914 -0.3801  0.5987  0.5780
  990MOL0     C33557   6.023   8.609   2.003  0.2186 -1.0402 -1.0258
  990MOL0     C33558   6.166   8.573   1.965  0.4513  0.1424 -0.3333
  990MOL0    Cl33559   6.273   8.584   2.107 -0.0790  0.2853 -0.1972
  990MOL0     C33560   4.993   8.381   1.926 -0.4903 -0.3564 -0.7287
  990MOL0     C33561   4.857   8.375   1.973 -0.5905 -0.5919  0.4663
  990MOL0     O33562   4.730   8.545   2.233  0.3311  0.3627  0.4681
  990MOL0     C33563   4.470   8.538   2.326 -0.0055 -0.2090 -0.1828
  990MOL0     C33564   4.341   8.510   2.367  1.2302  0.1578 -0.7757
  990MOL0     N33565   3.662   8.166   2.630  0.5963 -0.1505  0.6926
  990MOL0     N33566   3.592   8.058   2.603  0.0484  0.4151  0.2006
  990MOL0     C33567   2.411   7.790   2.712 -0.0218  0.5825 -0.3805
  990MOL0     C33568   2.288   7.734   2.739  0.0725  0.6420  0.3844
  990MOL0     C33569   1.983   7.454   2.868 -0.0494  0.2858  0.5160
  990MOL0     C33570   1.962   7.390   2.995  0.0095  0.7144  0.0695
  990MOL0     C33571   1.843   7.342   3.040 -0.5102  0.3090  0.4602
  990MOL0     C33572   1.727   7.350   2.955 -1.0566  0.6216  0.5891
  990MOL0     O33573   1.603   7.308   2.992  0.3620  0.4300  0.7153
  990MOL0     C33574   1.581   7.264   3.125 -0.0125 -0.3076  0.2527
  990MOL0     C33575   1.426   7.253   3.154  0.1259 -0.1788 -0.4740
  990MOL0     C33576   1.393   7.219   3.301 -0.1013 -0.1572  0.5190
  990MOL0     C33577   1.420   7.076   3.325 -0.3230 -0.3760 -0.1923
  990MOL0     C33578   1.401   7.021   3.461 -0.0963 -0.1521  0.1507
  990MOL0     C33579   1.363   6.971   3.568 -0.1850 -0.2200 -0.5567
  990MOL0     C33580   1.745   7.414   2.829 -0.4339  0.0585  0.0121
  990MOL0     C33581   1.871   7.464   2.790  0.2565  0.4333 -0.2123
  990MOL0     C33582   1.877   7.523   2.654  0.3884 -0.9897 -0.2339
  990MOL0     H33583   2.335   7.456   2.543 -2.6674  0.8721 -0.5736
  990MOL0     H33584   2.548   7.572   2.491  2.0260  0.9189  0.1664
  990MOL0     H33585   2.655   7.899   2.768 -1.8044 -2.4835  1.4534
  990MOL0     H33586   2.728   7.744   2.756 -0.2391  1.4821 -0.3987
  990MOL0     H33587   2.809   7.988   2.599 -0.0633  0.5149  0.7130
  990MOL0     H33588   2.883   7.832   2.575  0.3281  0.9551 -0.6480
  990MOL0     H33589   2.898   7.883   2.859 -0.5473  1.4419 -0.4124
  990MOL0     H33590   2.934   8.037   2.775 -0.4641  0.2271 -1.5048
  990MOL0     H33591   3.151   7.921   2.813 -1.2347  1.3949  1.1899
  990MOL0     H33592   3.086   7.781   2.735 -1.4637 -0.0726  0.9688
  990MOL0     H33593   3.087   7.881   2.514 -1.7963  0.8723  0.4164
  990MOL0     H33594   3.096   8.044   2.580  0.7163  0.3662  2.3514
  990MOL0     H33595   3.314   8.028   2.657  1.1434 -0.8321  0.5849
  990MOL0     H33596   3.317   7.857   2.608  0.6508  0.9088 -0.1710
  990MOL0     H33597   3.279   8.100   2.433 -1.4735 -0.8661  0.7441
  990MOL0     H33598   3.256   7.928   2.374 -1.0305 -0.9470  1.3555
  990MOL0     H33599   3.491   7.884   2.442  0.5853  0.4583  0.3158
  990MOL0     H33600   3.488   7.986   2.306 -2.9901  0.4196 -1.1605
  990MOL0     H33601   3.568   8.228   2.318  0.2356  1.2650  0.7848
  990MOL0     H33602   3.670   8.449   2.480  0.3096 -0.4279 -1.2048
  990MOL0     H33603   3.779   8.382   2.607 -2.0572 -1.0044 -0.1149
  990MOL0     H33604   3.933   8.313   2.435 -0.4893 -0.4045  1.0404
  990MOL0     H33605   3.800   8.302   2.316 -0.3925  0.1335  0.2765
  990MOL0     H33606   3.897   8.568   2.432  3.3412 -1.0300 -0.8848
  990MOL0     H33607   3.781   8.548   2.306 -1.0169  0.5021  2.1378
  990MOL0     H33608   4.005   8.604   2.224  2.3396 -1.3026 -5.1017
  990MOL0     H33609   3.971   8.439   2.168 -0.3383  1.7742 -0.3542
  990MOL0     H33610   4.190   8.515   2.065  0.9998 -0.0910 -1.4083
  990MOL0     H33611   4.416   8.523   1.991  2.2413 -1.4654 -0.1120
  990MOL0     H33612   4.780   8.703   1.913  1.8296  0.7359  0.5391
  990MOL0     H33613   5.020   8.719   1.856  1.0379  0.2884  0.7810
  990MOL0     H33614   5.256   8.640   1.990 -1.5226 -2.3208  3.4164
  990MOL0     H33615   5.269   8.457   2.012 -1.5854  0.1435 -0.5669
  990MOL0     H33616   5.442   8.439   1.854  2.7398  0.9810  1.1712
  990MOL0     H33617   5.421   8.602   1.794  1.3963 -1.3818 -1.5752
  990MOL0     H33618   5.516   8.682   1.977  1.1991  0.4134 -3.1186
  990MOL0     H33619   5.526   8.527   2.067  0.6394 -3.9008 -0.3579
  990MOL0     H33620   5.675   8.603   1.796  1.7419  0.1406  0.8171
  990MOL0     H33621   5.671   8.448   1.871  0.1576 -0.1594 -0.8916
  990MOL0     H33622   5.783   8.545   2.078  2.1190 -2.0188 -0.8712
  990MOL0     H33623   5.781   8.698   2.004 -1.0913 -0.6523  2.0412
  990MOL0     H33624   5.922   8.447   1.912  1.6630  0.6959  1.8724
  990MOL0     H33625   5.920   8.586   1.809  0.0421  0.6491  0.6177
  990MOL0     H33626   6.000   8.569   2.103 -0.5780 -0.9858 -1.1808
  990MOL0     H33627   6.009   8.717   2.016  1.2167 -1.2108  2.6559
  990MOL0     H33628   6.177   8.474   1.921 -0.6750 -0.7418  1.3045
  990MOL0     H33629   6.179   8.640   1.879  0.6440  0.5000 -0.0286
  990MOL0     H33630   5.060   8.295   1.918 -0.7894 -0.6856  0.2252
  990MOL0     H33631   4.806   8.284   2.004 -0.0442 -0.4596  1.8312
  990MOL0     H33632   4.544   8.547   2.405  0.0639 -1.9005 -0.0093
  990MOL0     H33633   4.323   8.512   2.474  0.1196  1.3241 -0.9597
  990MOL0     H33634   2.442   7.872   2.777 -0.6477 -0.4756  1.3009
  990MOL0     H33635   2.212   7.766   2.811  0.1579  0.7409  0.4303
  990MOL0     H33636   2.044   7.385   3.065  0.5247 -1.2336 -0.6099
  990MOL0     H33637   1.851   7.299   3.139 -1.1040  0.8327  0.7449
  990MOL0     H33638   1.616   7.345   3.190  0.3998  0.3821 -0.8130
  990MOL0     H33639   1.637   7.173   3.148 -1.9464 -1.1855  1.8695
  990MOL0     H33640   1.363   7.192   3.088  0.4719  0.0102 -0.9882
  990MOL0     H33641   1.390   7.354   3.135  1.7913  0.4096 -0.6692
  990MOL0     H33642   1.284   7.232   3.309 -0.1183 -0.1077  0.1955
  990MOL0     H33643   1.437   7.294   3.368 -3.2368  1.5609  0.8569
  990MOL0     H33644   1.379   7.012   3.246 -3.8925  1.4865 -0.0601
  990MOL0     H33645   1.528   7.068   3.310  0.2145  3.1802  0.8647
  990MOL0     H33646   1.321   6.942   3.663  0.0907 -0.7854 -0.6006
  990MOL0     H33647   1.655   7.418   2.769 -2.4340 -0.7891  2.7195
  990MOL0     H33648   1.901   7.630   2.654 -1.2293 -0.5941 -0.7551
  990MOL0     H33649   1.945   7.461   2.595 -1.6152 -1.2150 -2.4548
  990MOL0     H33650   1.774   7.516   2.618 -0.6459  1.6173  1.8644
  991MOL0     O33651   5.558   3.294   8.010 -0.1787 -0.1805 -0.1020
  991MOL0     C33652   5.490   3.203   8.063  0.4064 -0.4250 -0.2977
  991MOL0     O33653   5.508   3.067   8.033 -0.4737 -0.3897 -0.0846
  991MOL0     C33654   5.632   3.029   7.982  0.1023  0.2375 -0.2107
  991MOL0     C33655   5.731   2.978   8.061  0.5864  0.6034  0.1525
  991MOL0     C33656   5.856   2.955   8.006 -1.0349 -0.1909 -0.3118
  991MOL0     C33657   5.879   2.966   7.868  0.1020 -0.2296 -1.4515
  991MOL0     O33658   6.008   2.944   7.823  0.3274  0.4910  1.0558
  991MOL0     C33659   6.051   2.956   7.685  0.1677 -0.7270  0.0800
  991MOL0     C33660   6.198   2.901   7.677  0.2625  0.3189  0.3307
  991MOL0     C33661   6.256   2.931   7.535 -0.4075  0.0969  0.1865
  991MOL0     C33662   6.385   2.861   7.504 -0.6078 -0.1113  0.3634
  991MOL0     C33663   6.449   2.908   7.364 -0.6760 -0.2591  0.4599
  991MOL0     C33664   6.580   2.822   7.350  0.1340 -0.2293  0.0625
  991MOL0     C33665   6.643   2.875   7.227 -0.1132  0.3356  0.5511
  991MOL0     C33666   6.795   2.883   7.245 -0.6312  0.4471 -0.0716
  991MOL0     N33667   6.872   2.941   7.131 -0.4125 -0.2030 -0.0709
  991MOL0     C33668   6.884   2.911   7.000 -0.0663 -0.0716  1.1920
  991MOL0     C33669   6.968   3.001   6.956  0.2205  0.0007 -0.1135
  991MOL0     C33670   7.019   3.014   6.813 -0.4843  0.1424  0.4692
  991MOL0     C33671   7.161   3.066   6.812  0.1063 -0.4196 -0.1939
  991MOL0     C33672   7.262   2.948   6.820  0.1966 -1.4813  0.1636
  991MOL0     C33673   7.394   3.011   6.822 -0.4839  0.3188  0.1325
  991MOL0     O33674   7.444   3.021   6.685  0.4080 -0.5470  0.6329
  991MOL0     C33675   7.575   3.009   6.650 -0.3234  0.0806  0.3326
  991MOL0     C33676   7.681   2.997   6.743  0.1747 -0.2308  0.2417
  991MOL0     C33677   7.818   2.978   6.705  0.5366  0.8362  0.5367
  991MOL0     C33678   7.848   2.971   6.567 -0.8273  0.5918  1.0924
  991MOL0     C33679   7.986   2.945   6.514  0.5364 -1.2636  0.5562
  991MOL0     O33680   8.082   2.880   6.592  0.0947  0.4279 -0.2895
  991MOL0     C33681   8.213   2.886   6.544 -0.6131 -0.2089 -0.0891
  991MOL0     C33682   8.304   2.943   6.629 -1.0643 -0.2471 -0.5552
  991MOL0     C33683   8.442   2.951   6.594  0.0272 -0.1374 -0.3897
  991MOL0     C33684   8.489   2.895   6.472 -0.5167 -0.6688 -0.3505
  991MOL0     O33685   8.626   2.891   6.428 -0.6133  0.1197 -0.5217
  991MOL0     C33686   8.734   2.897   6.530 -0.4897  0.0212 -0.0483
  991MOL0     C33687   8.866   2.865   6.444  0.3306 -0.6824 -1.5566
  991MOL0     C33688   8.985   2.866   6.539 -0.3504  0.3316 -0.2689
  991MOL0     C33689   9.011   2.749   6.636  0.4111 -0.2009  0.3456
  991MOL0     C33690   9.127   2.791   6.730  1.1662 -0.7586 -0.5657
  991MOL0     C33691   9.088   2.897   6.840  0.4280  0.7656  0.5761
  991MOL0     C33692   9.215   2.949   6.904  0.9314  0.8652 -0.3879
  991MOL0     C33693   9.292   2.838   6.973 -0.4699 -0.5275  0.0196
  991MOL0    Cl33694   9.444   2.911   7.042 -0.2622  0.3112 -0.1250
  991MOL0     C33695   8.397   2.848   6.391  0.3676  0.3496 -0.5878
  991MOL0     C33696   8.258   2.848   6.416  0.5996  0.4165  0.2420
  991MOL0     O33697   8.002   2.987   6.395 -0.8161 -0.1733  0.5614
  991MOL0     C33698   7.745   2.991   6.475 -0.1142  0.2709  0.1265
  991MOL0     C33699   7.613   2.993   6.516  0.5734  0.2058 -0.6781
  991MOL0     N33700   7.006   3.087   7.061  0.5604 -0.7941  0.3987
  991MOL0     N33701   6.939   3.057   7.163  0.1533 -0.6674  0.3474
  991MOL0     C33702   5.785   3.023   7.785 -0.0047 -1.2143 -0.1109
  991MOL0     C33703   5.654   3.047   7.841 -0.1502  0.1664  0.1124
  991MOL0     C33704   5.369   3.243   8.140  0.4041  0.5516  1.0192
  991MOL0     C33705   5.288   3.130   8.182  0.5369 -0.1993  0.3603
  991MOL0     C33706   5.161   3.146   8.242 -0.3582 -0.6467  0.0668
  991MOL0     C33707   5.119   3.274   8.278  0.4344 -0.2729 -0.0398
  991MOL0     O33708   5.003   3.281   8.356 -0.5281 -0.3654 -0.3470
  991MOL0     C33709   4.940   3.411   8.392  0.0488  0.3115  0.7618
  991MOL0     C33710   4.869   3.484   8.275 -0.7493 -0.4950  0.1660
  991MOL0     C33711   4.832   3.634   8.316  0.3486  0.1158 -0.0119
  991MOL0     C33712   4.730   3.655   8.428  0.6981 -0.3623  0.3237
  991MOL0     C33713   4.664   3.788   8.422 -0.2673 -0.1455  0.3879
  991MOL0     C33714   4.618   3.901   8.404  0.8045  0.4370 -0.1365
  991MOL0     C33715   5.198   3.380   8.244 -0.6365 -0.4007  1.0150
  991MOL0     C33716   5.316   3.366   8.171 -0.0096 -0.3479  0.1351
  991MOL0     C33717   5.384   3.489   8.131  0.6063  0.7912  0.0061
  991MOL0     H33718   5.711   2.956   8.166  1.7602 -2.2682 -0.1592
  991MOL0     H33719   5.938   2.921   8.069 -0.8118  0.9711  0.0401
  991MOL0     H33720   5.982   2.903   7.619  2.1895 -1.4980 -1.5103
  991MOL0     H33721   6.046   3.061   7.655  1.6771 -0.0331  2.0306
  991MOL0     H33722   6.190   2.792   7.684 -3.5442  0.3526 -1.4025
  991MOL0     H33723   6.257   2.934   7.763  0.0650 -5.0993  3.0270
  991MOL0     H33724   6.269   3.037   7.511  3.4568 -0.2997 -0.0985
  991MOL0     H33725   6.178   2.892   7.468  0.5944  1.0955 -1.6473
  991MOL0     H33726   6.455   2.889   7.583 -0.9250 -1.5873  1.1947
  991MOL0     H33727   6.372   2.753   7.510 -0.9174 -0.2581 -1.9541
  991MOL0     H33728   6.373   2.885   7.289 -1.6135 -0.6332  1.4844
  991MOL0     H33729   6.473   3.014   7.369  0.1065 -0.3346 -1.1307
  991MOL0     H33730   6.649   2.855   7.427 -0.8889  2.4163 -0.0245
  991MOL0     H33731   6.558   2.715   7.346 -1.7802  0.1657 -2.4898
  991MOL0     H33732   6.599   2.971   7.199 -0.3544  0.4226  1.2131
  991MOL0     H33733   6.620   2.804   7.147  1.0409 -2.9944  2.9552
  991MOL0     H33734   6.806   2.941   7.337 -0.5190 -2.7566  2.0697
  991MOL0     H33735   6.823   2.779   7.263  0.5724  0.8349  0.4116
  991MOL0     H33736   6.840   2.827   6.947 -0.8705  0.7519  0.5050
  991MOL0     H33737   7.008   2.913   6.772 -1.0071  0.8443 -1.1670
  991MOL0     H33738   6.955   3.072   6.747  0.6835  1.2115  0.2454
  991MOL0     H33739   7.161   3.106   6.710  4.1590 -0.1392 -0.2195
  991MOL0     H33740   7.173   3.132   6.898 -1.9524 -1.3592  0.9038
  991MOL0     H33741   7.255   2.886   6.730  4.2461 -0.2513 -1.2606
  991MOL0     H33742   7.242   2.892   6.912 -2.8240 -2.1179 -0.7948
  991MOL0     H33743   7.456   2.951   6.889  0.2548  2.6145  1.6061
  991MOL0     H33744   7.396   3.111   6.865 -3.5782 -0.5710  2.6623
  991MOL0     H33745   7.658   3.000   6.849  0.0412  0.0284  0.2072
  991MOL0     H33746   7.896   2.946   6.774  1.8774 -1.5330 -1.8886
  991MOL0     H33747   8.266   2.985   6.721 -0.0017 -0.7038  0.1147
  991MOL0     H33748   8.514   3.005   6.654  0.5628 -0.4035 -0.7886
  991MOL0     H33749   8.740   2.997   6.574 -2.0964  1.0272 -1.9619
  991MOL0     H33750   8.735   2.817   6.605  2.5283 -0.3329 -0.3159
  991MOL0     H33751   8.855   2.760   6.415 -0.9913 -1.5198  1.5906
  991MOL0     H33752   8.873   2.932   6.358 -0.8874 -0.0906 -1.2170
  991MOL0     H33753   9.080   2.869   6.485 -0.5316  3.6822 -0.5734
  991MOL0     H33754   8.983   2.962   6.592 -1.0732 -0.6881  1.6623
  991MOL0     H33755   9.033   2.657   6.582  0.8017  0.1375 -0.0808
  991MOL0     H33756   8.918   2.727   6.689  0.8115 -0.0522  1.1269
  991MOL0     H33757   9.210   2.830   6.670  0.6594  0.7575 -0.3244
  991MOL0     H33758   9.158   2.701   6.783 -0.2159 -0.3134  1.0938
  991MOL0     H33759   9.037   2.984   6.798  3.4656  2.0661 -0.7919
  991MOL0     H33760   9.024   2.849   6.914  0.8765  1.0507  1.1566
  991MOL0     H33761   9.192   3.032   6.971 -3.3010  1.5595 -2.3695
  991MOL0     H33762   9.275   2.984   6.819 -0.9757 -1.1342 -2.7047
  991MOL0     H33763   9.233   2.783   7.047  1.0677 -0.8605  1.0477
  991MOL0     H33764   9.324   2.763   6.900  0.6752 -0.6112  0.5717
  991MOL0     H33765   8.428   2.809   6.295  0.5014 -1.3175  0.1005
  991MOL0     H33766   8.194   2.817   6.334  0.8597 -0.4704  0.3611
  991MOL0     H33767   7.763   2.981   6.369 -1.5472  2.4263 -0.3681
  991MOL0     H33768   7.527   2.989   6.450 -2.0298  2.0990  2.3257
  991MOL0     H33769   5.801   3.060   7.685  0.4814 -1.0150  0.0356
  991MOL0     H33770   5.578   3.090   7.776  0.8080  3.2103  0.8431
  991MOL0     H33771   5.322   3.028   8.170  0.9481 -0.1558  1.0915
  991MOL0     H33772   5.104   3.054   8.249  1.0522 -1.4709  1.3001
  991MOL0     H33773   4.999   3.488   8.442 -0.3965  1.2493 -0.1098
  991MOL0     H33774   4.865   3.380   8.466 -1.9211  1.0015 -0.8430
  991MOL0     H33775   4.786   3.429   8.229  1.8793 -1.3940 -4.1152
  991MOL0     H33776   4.938   3.495   8.190  0.1878 -2.0382  0.6940
  991MOL0     H33777   4.805   3.675   8.218  2.4579 -2.9277 -2.0446
  991MOL0     H33778   4.925   3.686   8.340 -0.7977  2.1849  0.1886
  991MOL0     H33779   4.652   3.578   8.425 -1.3114  1.4765  1.7749
  991MOL0     H33780   4.776   3.652   8.527 -1.7664  2.7882  1.7539
  991MOL0     H33781   4.567   3.993   8.386 -1.6948 -1.0277 -1.0335
  991MOL0     H33782   5.167   3.478   8.282 -2.0383 -0.2723 -0.3526
  991MOL0     H33783   5.324   3.578   8.153  0.3802  0.3147  1.4310
  991MOL0     H33784   5.480   3.494   8.182  0.1052  2.1619  0.8876
  991MOL0     H33785   5.403   3.488   8.023 -0.2331 -1.7780 -0.1952
  992MOL0     O33786   7.889   2.722   5.041 -0.0234 -0.1577 -0.0510
  992MOL0     C33787   7.855   2.608   5.009 -0.4989  0.5820 -0.4699
  992MOL0     O33788   7.939   2.515   4.942  0.4749 -0.0037 -0.5451
  992MOL0     C33789   8.055   2.558   4.881  0.5938  0.3868 -0.0029
  992MOL0     C33790   8.159   2.624   4.949  1.0657  0.1926 -0.6634
  992MOL0     C33791   8.282   2.661   4.892 -0.1561  0.4055  0.3709
  992MOL0     C33792   8.299   2.643   4.748 -0.2292  0.2058  0.0779
  992MOL0     O33793   8.411   2.674   4.669  0.1653  0.4683  0.2057
  992MOL0     C33794   8.531   2.726   4.729 -0.1481 -0.1756 -0.0814
  992MOL0     C33795   8.627   2.607   4.754 -0.5807  0.0538 -0.6213
  992MOL0     C33796   8.777   2.650   4.745 -0.2346 -0.0442 -0.2518
  992MOL0     C33797   8.864   2.530   4.706 -0.1283 -0.1953  0.3450
  992MOL0     C33798   9.013   2.574   4.729 -0.0658 -0.0466  0.0280
  992MOL0     C33799   9.102   2.451   4.707  0.0817 -0.5579  1.1058
  992MOL0     C33800   9.250   2.487   4.666  0.0718  0.5856  0.0143
  992MOL0     C33801   9.305   2.576   4.787 -0.1384  0.7424  1.2324
  992MOL0     N33802   9.454   2.561   4.793  0.7748 -0.0203  0.2733
  992MOL0     C33803   9.538   2.670   4.774 -0.5785 -0.1169  0.2039
  992MOL0     C33804   9.665   2.614   4.785 -0.4877  0.1400  0.4966
  992MOL0     C33805   9.802   2.668   4.749 -0.0893  0.1122  0.4367
  992MOL0     C33806   9.855   2.598   4.619  0.1116  0.0386 -0.4182
  992MOL0     C33807  10.004   2.582   4.614  0.5241  0.2812  0.9656
  992MOL0     C33808  10.065   2.716   4.610 -0.1339  0.0684  0.5790
  992MOL0     O33809  10.119   2.748   4.743  0.1066  1.1667  0.1255
  992MOL0     C33810  10.199   2.859   4.748 -0.7162 -0.4207 -0.4260
  992MOL0     C33811  10.193   2.960   4.649 -0.2239  0.6759 -0.3115
  992MOL0     C33812  10.278   3.075   4.668 -0.3761 -0.4586  0.5960
  992MOL0     C33813  10.368   3.085   4.770 -0.9184 -0.6399 -0.4222
  992MOL0     C33814  10.472   3.192   4.762 -0.1559 -0.4763  0.9548
  992MOL0     O33815  10.573   3.169   4.859  0.0724 -0.2529 -0.0471
  992MOL0     C33816  10.689   3.243   4.841  0.4924 -0.7603 -0.2884
  992MOL0     C33817  10.808   3.174   4.821 -0.5517  0.1852 -0.5480
  992MOL0     C33818  10.933   3.247   4.798 -0.1138  0.7043  0.1181
  992MOL0     C33819  10.934   3.395   4.803  0.7712  0.3922  0.4847
  992MOL0     O33820  11.044   3.468   4.794  0.6466  0.0153  0.6939
  992MOL0     C33821  11.141   3.445   4.889  1.2299 -0.1295 -0.3763
  992MOL0     C33822  11.205   3.578   4.907 -0.5827 -0.0880  0.6034
  992MOL0     C33823  11.354   3.570   4.962 -0.1884  0.2753  0.5932
  992MOL0     C33824  11.421   3.707   4.970  0.3753 -0.3443 -0.4227
  992MOL0     C33825  11.343   3.810   5.063  0.0957 -0.9835  0.8963
  992MOL0     C33826  11.336   3.776   5.213 -0.7453 -0.3077  0.3378
  992MOL0     C33827  11.477   3.731   5.255  0.8439 -0.1913  0.3167
  992MOL0     C33828  11.500   3.735   5.400  0.0214 -0.1386 -0.1458
  992MOL0    Cl33829  11.449   3.902   5.476 -0.3469  0.3629 -0.0141
  992MOL0     C33830  10.816   3.457   4.834 -0.9509  0.1456  0.3577
  992MOL0     C33831  10.693   3.383   4.849 -0.4009 -0.0537  0.0600
  992MOL0     O33832  10.465   3.292   4.689  0.3057  1.0888 -0.4333
  992MOL0     C33833  10.361   2.982   4.871 -0.5346 -0.3308 -0.4038
  992MOL0     C33834  10.277   2.876   4.861 -0.2580 -0.5640 -0.6560
  992MOL0     N33835   9.640   2.481   4.816 -0.4250 -0.1707 -0.4944
  992MOL0     N33836   9.515   2.451   4.807  0.7400 -0.1251  0.0758
  992MOL0     C33837   8.195   2.568   4.685 -0.6808 -0.1478 -0.2165
  992MOL0     C33838   8.085   2.524   4.748 -0.1465 -0.0241  0.2900
  992MOL0     C33839   7.721   2.559   5.043  0.5209 -0.3395  0.3417
  992MOL0     C33840   7.664   2.465   4.950 -0.3700  0.0101  0.1042
  992MOL0     C33841   7.523   2.437   4.959 -1.2325 -0.7371 -0.1168
  992MOL0     C33842   7.442   2.508   5.052 -0.4091  0.3567 -0.9990
  992MOL0     O33843   7.307   2.503   5.064  0.3024  0.2504  0.7198
  992MOL0     C33844   7.232   2.397   4.998 -0.5795 -0.0691 -0.2981
  992MOL0     C33845   7.084   2.430   5.024 -0.3569 -0.1523  0.0857
  992MOL0     C33846   6.988   2.323   4.953 -0.4957  0.0924 -0.1399
  992MOL0     C33847   6.844   2.371   4.986 -0.1050  0.5333  0.1418
  992MOL0     C33848   6.747   2.271   4.954 -0.1366  0.3846 -0.1122
  992MOL0     C33849   6.665   2.182   4.942 -0.2251 -0.7590  0.2036
  992MOL0     C33850   7.501   2.586   5.147  0.2266 -0.5598  0.6865
  992MOL0     C33851   7.636   2.607   5.151  0.0836  0.3390  0.1864
  992MOL0     C33852   7.690   2.653   5.281 -0.4012 -0.2026 -0.1198
  992MOL0     H33853   8.136   2.649   5.051 -0.3056  3.0472 -1.5817
  992MOL0     H33854   8.354   2.712   4.956  0.9324  1.4581 -1.5867
  992MOL0     H33855   8.572   2.811   4.672 -0.9410 -0.3767 -0.9923
  992MOL0     H33856   8.513   2.756   4.832  0.0562 -0.1902 -0.0395
  992MOL0     H33857   8.602   2.528   4.683  2.2627 -1.4879 -0.0346
  992MOL0     H33858   8.592   2.575   4.853  0.3060  1.4643  0.1811
  992MOL0     H33859   8.807   2.685   4.844 -1.7286  1.0768 -0.1467
  992MOL0     H33860   8.792   2.735   4.677  0.6565 -1.6903 -2.2064
  992MOL0     H33861   8.845   2.448   4.776  1.2225  0.3032  1.3462
  992MOL0     H33862   8.850   2.497   4.603 -2.3927  2.4285 -0.3014
  992MOL0     H33863   9.041   2.651   4.657 -1.3474  0.2255 -0.2075
  992MOL0     H33864   9.032   2.614   4.829  2.4105 -0.9276 -0.0105
  992MOL0     H33865   9.113   2.387   4.795 -0.1623  1.3369  2.5886
  992MOL0     H33866   9.053   2.396   4.626 -0.3230  0.1167  0.8873
  992MOL0     H33867   9.255   2.538   4.569 -1.4524 -2.8390 -2.0419
  992MOL0     H33868   9.306   2.395   4.644 -1.3338 -0.3615  0.2959
  992MOL0     H33869   9.264   2.676   4.770 -1.8209 -0.5308 -4.6120
  992MOL0     H33870   9.258   2.542   4.879 -1.4725 -1.3757 -0.1367
  992MOL0     H33871   9.507   2.772   4.753 -1.3667 -0.3851  0.0366
  992MOL0     H33872   9.808   2.777   4.740  2.1207 -0.1201 -1.7791
  992MOL0     H33873   9.863   2.633   4.833  0.2399 -0.6806 -0.1189
  992MOL0     H33874   9.819   2.496   4.603  0.7701 -0.2283 -0.2289
  992MOL0     H33875   9.821   2.652   4.530 -0.1658  1.1671  0.3452
  992MOL0     H33876  10.032   2.525   4.525  0.6245  0.5352  0.8307
  992MOL0     H33877  10.029   2.526   4.704  1.1215  0.6685  1.0501
  992MOL0     H33878   9.989   2.784   4.570 -0.8108 -0.1719  1.4464
  992MOL0     H33879  10.152   2.725   4.544 -0.2790  1.0961  0.4988
  992MOL0     H33880  10.118   2.959   4.571  1.0918 -0.4587 -1.6019
  992MOL0     H33881  10.292   3.152   4.592  0.2868  0.4150  1.5833
  992MOL0     H33882  10.803   3.066   4.807 -1.5188  0.1143  0.2709
  992MOL0     H33883  11.027   3.196   4.782 -0.7246 -1.0728  1.7959
  992MOL0     H33884  11.090   3.405   4.977  1.1273 -0.2304 -0.4806
  992MOL0     H33885  11.197   3.367   4.838 -1.1970 -0.3718 -2.9338
  992MOL0     H33886  11.212   3.630   4.811 -1.7361 -0.8896  0.0746
  992MOL0     H33887  11.141   3.645   4.965 -0.2847 -0.9550  1.9963
  992MOL0     H33888  11.361   3.524   5.060 -1.8130 -1.4268 -0.0190
  992MOL0     H33889  11.409   3.502   4.895  0.1872  1.5919 -0.4850
  992MOL0     H33890  11.430   3.757   4.873  0.6302 -1.4213 -0.9726
  992MOL0     H33891  11.526   3.694   4.995 -0.0097 -1.6471  0.6943
  992MOL0     H33892  11.238   3.821   5.034  0.1309  0.3381  1.2306
  992MOL0     H33893  11.390   3.907   5.048 -0.7819 -0.1589  2.9931
  992MOL0     H33894  11.298   3.856   5.277 -3.4456 -1.5518  0.4095
  992MOL0     H33895  11.273   3.691   5.239  2.5252 -3.0085  0.1335
  992MOL0     H33896  11.548   3.801   5.211  0.6071 -0.1378  0.0126
  992MOL0     H33897  11.508   3.630   5.225 -0.1905 -1.1414  2.2480
  992MOL0     H33898  11.427   3.666   5.446 -1.2759  2.3604  1.8213
  992MOL0     H33899  11.599   3.692   5.420  1.6861  1.8343 -3.4535
  992MOL0     H33900  10.811   3.564   4.850 -1.0192  0.2573 -0.3684
  992MOL0     H33901  10.604   3.441   4.872  0.9430  2.7507 -1.2211
  992MOL0     H33902  10.424   2.985   4.959 -1.9577  0.8534  0.6398
  992MOL0     H33903  10.268   2.801   4.939  0.6693  0.0667  0.0712
  992MOL0     H33904   8.188   2.534   4.582 -3.3424  0.0413 -0.1577
  992MOL0     H33905   8.000   2.475   4.701 -0.7525 -0.0206  1.3482
  992MOL0     H33906   7.724   2.418   4.874  3.4709  0.0500  2.8311
  992MOL0     H33907   7.481   2.368   4.885  0.2444 -2.5022  0.6182
  992MOL0     H33908   7.254   2.297   5.035 -0.1789  0.6694  1.5317
  992MOL0     H33909   7.245   2.402   4.889 -0.2140  2.9114 -0.2010
  992MOL0     H33910   7.069   2.530   4.983  2.4639  0.0378 -0.7388
  992MOL0     H33911   7.062   2.441   5.130 -1.0377  2.3043 -0.2469
  992MOL0     H33912   7.010   2.220   4.980  0.4647 -0.0390 -1.3549
  992MOL0     H33913   6.999   2.334   4.845  2.0004 -3.4813 -0.4130
  992MOL0     H33914   6.833   2.387   5.093 -0.7278 -1.3021  0.3727
  992MOL0     H33915   6.834   2.473   4.947  1.5836  1.5869  2.2129
  992MOL0     H33916   6.596   2.101   4.926 -0.0719 -0.6009 -1.4480
  992MOL0     H33917   7.442   2.615   5.233 -2.3520 -2.0258 -0.4363
  992MOL0     H33918   7.637   2.621   5.371 -0.4136  1.5897  0.5601
  992MOL0     H33919   7.794   2.617   5.283  0.5018  1.3077 -5.1428
  992MOL0     H33920   7.694   2.763   5.284 -0.4801 -0.2142  0.8439
  993MOL0     O33921   7.126   3.131   1.236  0.5256  0.6219  0.7124
  993MOL0     C33922   7.115   3.010   1.258 -0.1330 -0.8900  0.6197
  993MOL0     O33923   7.218   2.927   1.251 -0.6712  1.2150  0.2452
  993MOL0     C33924   7.348   2.966   1.246  0.3371 -0.3249 -0.0470
  993MOL0     C33925   7.410   3.088   1.266  0.3521  0.5923  0.1693
  993MOL0     C33926   7.546   3.107   1.252 -0.4539  0.2574 -0.4535
  993MOL0     C33927   7.634   2.997   1.227 -0.4152 -0.4161  0.5624
  993MOL0     O33928   7.777   3.001   1.221 -0.4715  0.0825  0.3264
  993MOL0     C33929   7.856   3.119   1.252 -0.0597 -0.1650 -0.1869
  993MOL0     C33930   7.849   3.227   1.140 -0.1355  0.1385 -0.1028
  993MOL0     C33931   7.842   3.168   0.999 -0.5885  0.2006  0.1115
  993MOL0     C33932   7.803   3.279   0.898  0.2417 -0.2201 -0.2021
  993MOL0     C33933   7.643   3.285   0.884 -0.4370  0.8664 -0.5120
  993MOL0     C33934   7.571   3.173   0.813 -0.7137 -0.2255 -0.3249
  993MOL0     C33935   7.422   3.219   0.795  1.4609 -0.2115  0.4832
  993MOL0     C33936   7.340   3.207   0.922 -0.4725 -0.3288  0.0546
  993MOL0     N33937   7.229   3.303   0.938 -0.0233 -0.8185 -0.7042
  993MOL0     C33938   7.108   3.289   0.878 -0.5955  0.2346 -0.0554
  993MOL0     C33939   7.045   3.409   0.887  0.0724  0.1826  0.3257
  993MOL0     C33940   6.905   3.451   0.840 -0.6407 -0.2409  0.2172
  993MOL0     C33941   6.875   3.599   0.826 -0.0449 -0.7251 -0.5582
  993MOL0     C33942   6.908   3.653   0.693  0.5206 -0.3086  0.4107
  993MOL0     C33943   6.876   3.799   0.667  0.8297  0.6525 -0.0790
  993MOL0     O33944   6.885   3.819   0.521 -0.1994  0.2928 -0.0985
  993MOL0     C33945   6.774   3.863   0.456 -0.3597 -0.1200  0.0750
  993MOL0     C33946   6.654   3.798   0.482 -0.5102 -0.0674 -0.7869
  993MOL0     C33947   6.540   3.833   0.428  0.0515 -0.1222 -0.2043
  993MOL0     C33948   6.539   3.943   0.342 -0.2749 -0.2963  0.8471
  993MOL0     C33949   6.410   4.007   0.290  1.1792  0.8567 -1.2172
  993MOL0     O33950   6.291   3.950   0.337 -0.1126  0.7713 -0.0386
  993MOL0     C33951   6.184   3.990   0.261  0.2385  0.0068 -0.0943
  993MOL0     C33952   6.120   4.116   0.274 -0.0530  0.5903  0.1398
  993MOL0     C33953   6.012   4.148   0.203 -1.1521  0.2722 -0.5186
  993MOL0     C33954   5.956   4.058   0.110  0.9887  0.4459 -0.2284
  993MOL0     O33955   5.857   4.080   0.021  0.1734 -0.4243 -0.2472
  993MOL0     C33956   5.783   4.210   0.031 -0.8974  0.0491  0.3107
  993MOL0     C33957   5.680   4.214  -0.084 -1.1776 -0.0509 -0.4024
  993MOL0     C33958   5.717   4.125  -0.201 -0.2454 -0.6673 -0.4128
  993MOL0     C33959   5.610   4.159  -0.304  0.3747  0.3476 -0.7214
  993MOL0     C33960   5.633   4.069  -0.426  0.1091  0.4081 -0.9475
  993MOL0     C33961   5.564   4.102  -0.556  0.2172  0.0183  0.4264
  993MOL0     C33962   5.412   4.092  -0.535  0.3968  1.0478  0.5508
  993MOL0     C33963   5.339   4.094  -0.666 -0.1465 -0.0620 -0.0294
  993MOL0    Cl33964   5.322   3.934  -0.745 -0.1865 -0.0694 -0.1681
  993MOL0     C33965   6.019   3.930   0.091 -0.0493  0.8283  0.0589
  993MOL0     C33966   6.137   3.901   0.160 -0.8378  0.1030  0.1610
  993MOL0     O33967   6.417   4.098   0.203 -0.0063  0.4882 -0.3415
  993MOL0     C33968   6.664   4.002   0.302  0.6727 -0.1016  0.5198
  993MOL0     C33969   6.787   3.959   0.354  0.1795 -0.5387  0.2755
  993MOL0     N33970   7.116   3.487   0.982  0.6401  0.3125  0.3293
  993MOL0     N33971   7.230   3.428   0.992 -0.2370  0.3012  0.6229
  993MOL0     C33972   7.578   2.875   1.220 -0.6577  0.5417  0.5280
  993MOL0     C33973   7.439   2.855   1.230  0.0895 -0.1014 -0.5138
  993MOL0     C33974   6.983   2.952   1.280  1.5064  0.4467 -0.3104
  993MOL0     C33975   6.881   3.045   1.327  0.3263  0.1485  0.2569
  993MOL0     C33976   6.762   2.998   1.369  1.0998  0.2179  0.8504
  993MOL0     C33977   6.730   2.865   1.374 -0.3593  0.4510  0.3032
  993MOL0     O33978   6.608   2.816   1.411  0.7197  0.6530 -0.2779
  993MOL0     C33979   6.521   2.907   1.470  0.7848  0.2296 -0.1783
  993MOL0     C33980   6.399   2.824   1.509  0.6822  0.4597  0.2989
  993MOL0     C33981   6.290   2.917   1.560  0.3607 -1.0410  0.2919
  993MOL0     C33982   6.193   2.840   1.658  0.3647 -0.4115 -0.8183
  993MOL0     C33983   6.111   2.935   1.737 -0.1645 -0.2616 -0.4260
  993MOL0     C33984   6.057   3.026   1.796 -0.5554 -0.2605  0.3114
  993MOL0     C33985   6.821   2.772   1.327 -0.4850  1.1487 -0.5651
  993MOL0     C33986   6.949   2.810   1.282  0.3384 -0.0868  0.1643
  993MOL0     C33987   7.043   2.705   1.237  0.5486  0.3369 -0.3271
  993MOL0     H33988   7.357   3.179   1.292  2.6130  2.3325 -0.9922
  993MOL0     H33989   7.576   3.210   1.268 -1.9036  0.8903 -1.6700
  993MOL0     H33990   7.816   3.170   1.340  1.2755  0.9256 -0.1805
  993MOL0     H33991   7.958   3.094   1.283 -0.1138  1.0324  1.0307
  993MOL0     H33992   7.942   3.285   1.136 -0.0148 -0.1457 -2.1790
  993MOL0     H33993   7.765   3.295   1.155  0.3752  0.9977 -1.0475
  993MOL0     H33994   7.790   3.072   1.004  1.4501 -0.8982  2.4852
  993MOL0     H33995   7.943   3.135   0.970 -1.2798 -1.6531 -0.3550
  993MOL0     H33996   7.842   3.378   0.920  1.0941 -0.3649 -1.0136
  993MOL0     H33997   7.840   3.248   0.800 -1.5411  1.3181 -1.4158
  993MOL0     H33998   7.610   3.294   0.987 -0.7242 -0.9121 -0.4246
  993MOL0     H33999   7.631   3.382   0.835  1.4883  1.2478 -0.3400
  993MOL0     H34000   7.627   3.161   0.719  0.7671  0.9346  0.3687
  993MOL0     H34001   7.581   3.073   0.856 -0.7324  0.6259  1.7700
  993MOL0     H34002   7.376   3.156   0.719 -0.8531  0.3276  1.3460
  993MOL0     H34003   7.419   3.324   0.763 -2.0257  0.1240  1.4691
  993MOL0     H34004   7.292   3.108   0.927 -1.3034  0.0398 -0.3994
  993MOL0     H34005   7.411   3.217   1.004  1.2157  1.7553 -1.5628
  993MOL0     H34006   7.067   3.193   0.849  2.9058 -1.1787 -0.8390
  993MOL0     H34007   6.886   3.409   0.740 -0.3500  4.5181 -2.0908
  993MOL0     H34008   6.836   3.405   0.911 -1.1587  0.0671 -0.0771
  993MOL0     H34009   6.768   3.593   0.846  0.2779 -2.7511  0.8608
  993MOL0     H34010   6.913   3.661   0.909 -1.4591  0.0433 -0.4539
  993MOL0     H34011   6.839   3.605   0.623  0.4191  1.1486 -0.5376
  993MOL0     H34012   7.008   3.628   0.657  0.4643  0.2309 -0.1398
  993MOL0     H34013   6.961   3.855   0.708  3.9762 -3.2039 -0.6796
  993MOL0     H34014   6.778   3.830   0.705  1.1602  3.6394 -1.3712
  993MOL0     H34015   6.644   3.707   0.540  0.8033  0.2347 -0.0526
  993MOL0     H34016   6.451   3.773   0.444 -0.4609  0.6168 -0.2320
  993MOL0     H34017   6.162   4.184   0.347  2.0414  1.3867 -1.6953
  993MOL0     H34018   5.970   4.247   0.219  1.7687  1.7909 -1.6154
  993MOL0     H34019   5.721   4.221   0.121 -0.0016  1.4109  0.7942
  993MOL0     H34020   5.850   4.295   0.015  0.6565 -1.5145 -2.0333
  993MOL0     H34021   5.594   4.169  -0.034  0.5329 -0.0267  2.8257
  993MOL0     H34022   5.655   4.316  -0.116 -2.8801 -0.6063 -0.9312
  993MOL0     H34023   5.822   4.138  -0.230 -0.1064 -0.7384  0.0482
  993MOL0     H34024   5.704   4.018  -0.181 -1.8333 -0.7014 -1.4720
  993MOL0     H34025   5.604   4.265  -0.330 -0.5963  1.1066  2.1571
  993MOL0     H34026   5.514   4.124  -0.263 -0.4535 -0.1656 -2.9725
  993MOL0     H34027   5.616   3.966  -0.393 -1.7233  0.9925  0.0609
  993MOL0     H34028   5.737   4.086  -0.455 -0.1968  2.7875 -0.8189
  993MOL0     H34029   5.590   4.203  -0.590 -0.5803 -0.0491 -0.4240
  993MOL0     H34030   5.590   4.034  -0.637 -0.5138 -2.0745  1.8760
  993MOL0     H34031   5.376   4.172  -0.470  0.4267  0.2379  1.6009
  993MOL0     H34032   5.396   3.995  -0.486  1.0342  0.7643  0.2139
  993MOL0     H34033   5.238   4.132  -0.647  0.1448  0.3456  0.7294
  993MOL0     H34034   5.387   4.168  -0.730  1.1684 -1.5071 -0.7831
  993MOL0     H34035   5.965   3.868   0.019 -1.0222  2.7828 -0.9904
  993MOL0     H34036   6.180   3.802   0.153 -0.1233  0.3660  0.6629
  993MOL0     H34037   6.644   4.080   0.229  1.0075  2.6382  3.1858
  993MOL0     H34038   6.881   4.005   0.327 -0.2969 -0.6455 -1.8053
  993MOL0     H34039   7.657   2.801   1.209  0.1676  1.7274 -2.1163
  993MOL0     H34040   7.398   2.756   1.211  1.4331 -0.9326  0.7921
  993MOL0     H34041   6.897   3.152   1.328  0.7248  0.0890  0.5104
  993MOL0     H34042   6.685   3.063   1.407 -0.0762 -0.3535 -0.4726
  993MOL0     H34043   6.501   2.989   1.400 -0.3749  0.5407  0.4959
  993MOL0     H34044   6.569   2.953   1.557  0.7481 -3.0774  1.7191
  993MOL0     H34045   6.428   2.740   1.573  1.8917 -1.9724 -3.1064
  993MOL0     H34046   6.365   2.776   1.416 -0.3157 -0.6685  1.2024
  993MOL0     H34047   6.235   2.959   1.476 -0.5514  1.2098  1.9107
  993MOL0     H34048   6.327   3.002   1.617  0.0289 -1.0307  0.4980
  993MOL0     H34049   6.129   2.768   1.605 -2.2605  0.6203  0.7301
  993MOL0     H34050   6.250   2.783   1.732 -0.9118 -2.0321 -1.0260
  993MOL0     H34051   6.002   3.107   1.839 -2.4982 -0.8427 -0.9309
  993MOL0     H34052   6.798   2.666   1.329 -0.0344  1.0323 -1.2455
  993MOL0     H34053   7.011   2.601   1.225  2.1588 -0.5593  2.4197
  993MOL0     H34054   7.087   2.737   1.142  0.8275 -0.8985 -0.6300
  993MOL0     H34055   7.126   2.699   1.307  0.8371 -0.8578 -0.7440
  994MOL0     O34056   2.263   1.695   7.771 -0.7725  0.1773  0.5445
  994MOL0     C34057   2.212   1.585   7.739  1.4421 -0.4681 -0.6128
  994MOL0     O34058   2.281   1.459   7.743 -0.3104 -0.7166  0.1047
  994MOL0     C34059   2.417   1.471   7.759  0.1406  0.5001 -0.1013
  994MOL0     C34060   2.468   1.435   7.884 -0.2948  0.3498  1.2590
  994MOL0     C34061   2.605   1.442   7.904  0.8842  0.5067  0.5032
  994MOL0     C34062   2.690   1.461   7.795  0.2864 -0.4467  0.5429
  994MOL0     O34063   2.821   1.470   7.830  0.1379  0.5268  0.6473
  994MOL0     C34064   2.882   1.339   7.793 -0.0182 -0.1853 -0.5147
  994MOL0     C34065   3.038   1.324   7.833 -0.3565  0.0852  0.9625
  994MOL0     C34066   3.114   1.220   7.760  0.8667 -0.1679 -0.4755
  994MOL0     C34067   3.263   1.244   7.764  0.0564  0.0283  0.5213
  994MOL0     C34068   3.338   1.112   7.724  0.2836 -0.8168 -0.2994
  994MOL0     C34069   3.312   1.059   7.580  0.8945 -0.0968 -0.6810
  994MOL0     C34070   3.392   0.931   7.551  0.5138  0.0858 -0.2431
  994MOL0     C34071   3.384   0.882   7.408 -0.0832  0.1446  0.0093
  994MOL0     N34072   3.480   0.773   7.385  0.7271 -0.0375 -0.2959
  994MOL0     C34073   3.486   0.645   7.435  1.0245 -0.1127 -0.0784
  994MOL0     C34074   3.572   0.584   7.350 -0.1673  0.0875  0.2704
  994MOL0     C34075   3.619   0.445   7.373 -0.0094 -0.2221  0.0138
  994MOL0     C34076   3.638   0.379   7.234 -0.2980  0.1471  0.4290
  994MOL0     C34077   3.681   0.236   7.232  0.6694 -0.4125 -0.5701
  994MOL0     C34078   3.826   0.234   7.263  0.8491  0.5843  0.6285
  994MOL0     O34079   3.915   0.296   7.168 -0.2289  0.7954 -0.2983
  994MOL0     C34080   4.052   0.271   7.166  0.2386  0.0522  0.1363
  994MOL0     C34081   4.120   0.193   7.264 -1.0124 -0.1869 -0.4467
  994MOL0     C34082   4.253   0.149   7.255 -0.0198 -0.4469 -0.4892
  994MOL0     C34083   4.326   0.194   7.139  0.2112 -0.9510  0.0566
  994MOL0     C34084   4.469   0.173   7.134 -0.3053  0.7681 -0.3528
  994MOL0     O34085   4.528   0.101   7.242 -0.4093  0.5597  0.5772
  994MOL0     C34086   4.646   0.052   7.211  0.1856  0.3229  0.5431
  994MOL0     C34087   4.668  -0.044   7.115 -0.1440  0.0891  0.6176
  994MOL0     C34088   4.799  -0.090   7.093  0.1059  0.5595  0.3273
  994MOL0     C34089   4.908  -0.053   7.165  0.2317 -0.3129  1.8953
  994MOL0     O34090   5.021  -0.112   7.139 -0.4833  0.4221 -0.3675
  994MOL0     C34091   5.114  -0.130   7.244 -0.0789 -0.2035  0.2574
  994MOL0     C34092   5.184  -0.263   7.246 -0.3208 -0.0613 -0.5388
  994MOL0     C34093   5.280  -0.253   7.365  0.5659  0.0303  0.6013
  994MOL0     C34094   5.392  -0.365   7.347  0.0094 -0.0353  0.1627
  994MOL0     C34095   5.500  -0.354   7.448 -0.0175 -0.0034  0.1774
  994MOL0     C34096   5.619  -0.446   7.434 -0.0638  0.2001  0.7114
  994MOL0     C34097   5.607  -0.594   7.468  1.0034 -0.2641  0.4365
  994MOL0     C34098   5.739  -0.661   7.434 -0.0390 -0.8940  0.8820
  994MOL0    Cl34099   5.744  -0.826   7.490 -0.1190  0.4864 -0.1171
  994MOL0     C34100   4.883   0.049   7.254 -0.2715  0.2168  0.9237
  994MOL0     C34101   4.760   0.102   7.275  0.1288 -0.4811 -0.3925
  994MOL0     O34102   4.527   0.210   7.032  0.5984  0.4164  0.0171
  994MOL0     C34103   4.258   0.270   7.038 -0.0440  0.5553 -0.2006
  994MOL0     C34104   4.123   0.299   7.046  0.3936 -0.3521 -0.1756
  994MOL0     N34105   3.621   0.669   7.256  0.6417 -0.6017 -0.1089
  994MOL0     N34106   3.555   0.774   7.272  0.2314 -0.4673  0.1839
  994MOL0     C34107   2.636   1.492   7.671  0.1127  0.5024 -0.1857
  994MOL0     C34108   2.503   1.490   7.652 -0.7699 -0.7071  0.9781
  994MOL0     C34109   2.071   1.584   7.687  0.7701  0.4077  0.2011
  994MOL0     C34110   2.032   1.452   7.656  0.4584 -0.6299  0.8816
  994MOL0     C34111   1.902   1.432   7.601  0.1206 -0.0413 -0.2420
  994MOL0     C34112   1.813   1.544   7.572 -0.1057  1.0590  0.4902
  994MOL0     O34113   1.686   1.532   7.524  0.1337  0.0284 -0.0554
  994MOL0     C34114   1.634   1.401   7.509  0.5219 -0.1431 -0.4865
  994MOL0     C34115   1.497   1.406   7.452  0.2964  0.2697  0.3359
  994MOL0     C34116   1.391   1.426   7.553 -0.9326  0.1979 -0.8098
  994MOL0     C34117   1.258   1.457   7.488 -0.2730  0.0393 -0.3028
  994MOL0     C34118   1.188   1.323   7.467  0.1586 -0.3140 -0.1385
  994MOL0     C34119   1.141   1.207   7.444  0.2525  0.5897 -0.5692
  994MOL0     C34120   1.861   1.673   7.613 -0.0430 -0.0830  0.1740
  994MOL0     C34121   1.983   1.691   7.668  0.6057 -0.5406 -0.1689
  994MOL0     C34122   2.007   1.834   7.690 -0.3527 -0.6114 -0.5890
  994MOL0     H34123   2.391   1.406   7.955 -1.2919  1.0887  0.5172
  994MOL0     H34124   2.632   1.427   8.008  1.1950 -2.7316  0.0477
  994MOL0     H34125   2.829   1.260   7.848  0.0395 -1.1018 -1.7403
  994MOL0     H34126   2.868   1.316   7.687 -0.3394  0.8287 -0.7048
  994MOL0     H34127   3.038   1.299   7.940  0.5450 -1.5544  0.6120
  994MOL0     H34128   3.076   1.423   7.806  0.8395 -1.2550 -2.8708
  994MOL0     H34129   3.086   1.221   7.654  2.8702 -0.4135 -1.0477
  994MOL0     H34130   3.089   1.125   7.809  2.8208  0.3825  1.7574
  994MOL0     H34131   3.288   1.329   7.699 -2.3574  0.0473 -0.4856
  994MOL0     H34132   3.292   1.270   7.866 -1.0895 -0.3278  0.9502
  994MOL0     H34133   3.444   1.133   7.743 -0.6241  2.0514  2.4641
  994MOL0     H34134   3.308   1.027   7.787 -1.2990  0.8779  1.3536
  994MOL0     H34135   3.203   1.049   7.574  0.9198 -0.4251 -0.5725
  994MOL0     H34136   3.335   1.137   7.507 -1.1334  0.0098 -1.2785
  994MOL0     H34137   3.361   0.848   7.615  0.7175 -0.7807 -1.2454
  994MOL0     H34138   3.496   0.955   7.575  0.9359 -0.4468 -1.4811
  994MOL0     H34139   3.285   0.849   7.374 -0.0371 -0.6643  0.6135
  994MOL0     H34140   3.399   0.965   7.339 -1.1006 -0.8503 -1.4938
  994MOL0     H34141   3.430   0.611   7.522  0.6521  2.1211  0.6229
  994MOL0     H34142   3.718   0.447   7.420 -0.4790 -1.6176  1.1464
  994MOL0     H34143   3.550   0.386   7.434 -1.5554  0.3054 -1.1505
  994MOL0     H34144   3.541   0.389   7.185  0.9134 -1.5384 -2.5876
  994MOL0     H34145   3.714   0.433   7.177 -1.0803 -1.3635 -2.2293
  994MOL0     H34146   3.667   0.207   7.127 -0.4009 -0.0218 -0.5466
  994MOL0     H34147   3.626   0.162   7.290  0.3164  0.4443  0.2029
  994MOL0     H34148   3.855   0.128   7.261 -0.0980  0.2975 -2.6866
  994MOL0     H34149   3.837   0.279   7.362 -0.3531  0.3909  0.8683
  994MOL0     H34150   4.060   0.149   7.343  0.8061  0.1695  1.2154
  994MOL0     H34151   4.295   0.087   7.333  1.1271  0.9205  0.0326
  994MOL0     H34152   4.585  -0.075   7.052 -1.4209 -0.2511  2.3741
  994MOL0     H34153   4.817  -0.164   7.015  1.5894 -0.3548  1.4858
  994MOL0     H34154   5.192  -0.055   7.235  2.6836 -2.6801  1.7009
  994MOL0     H34155   5.068  -0.112   7.342  2.8562  2.6171  1.2675
  994MOL0     H34156   5.116  -0.349   7.250 -1.1039  0.5608  0.2759
  994MOL0     H34157   5.245  -0.270   7.156  1.3758  0.7472  0.5023
  994MOL0     H34158   5.318  -0.153   7.388 -0.0182  0.4504 -0.2261
  994MOL0     H34159   5.220  -0.286   7.450  0.2755 -0.7874  0.0883
  994MOL0     H34160   5.429  -0.341   7.247 -0.9435  3.6992  0.5604
  994MOL0     H34161   5.341  -0.462   7.349 -2.7762  1.2613 -1.3719
  994MOL0     H34162   5.444  -0.373   7.540 -1.9663 -1.3763 -1.2044
  994MOL0     H34163   5.547  -0.256   7.446  1.3523 -0.5910  1.7569
  994MOL0     H34164   5.631  -0.450   7.326 -3.0320  2.9814  0.1431
  994MOL0     H34165   5.707  -0.402   7.483 -0.4751  1.0539  0.6934
  994MOL0     H34166   5.527  -0.640   7.410 -0.5347  1.1892  1.3391
  994MOL0     H34167   5.586  -0.609   7.574 -0.4486 -0.3481  0.1597
  994MOL0     H34168   5.749  -0.653   7.325 -2.9520  3.4973  0.6781
  994MOL0     H34169   5.822  -0.601   7.474 -0.7441  1.7915 -1.3824
  994MOL0     H34170   4.973   0.073   7.311  0.6916 -3.8338  1.3831
  994MOL0     H34171   4.747   0.185   7.343  2.2418 -1.6378  1.5505
  994MOL0     H34172   4.316   0.303   6.953  0.8865 -1.8086 -0.5651
  994MOL0     H34173   4.076   0.359   6.968 -1.6489  2.1148  2.7392
  994MOL0     H34174   2.705   1.519   7.591 -0.6935  0.6842 -0.8246
  994MOL0     H34175   2.465   1.494   7.550 -2.7099  1.4982  1.6878
  994MOL0     H34176   2.089   1.360   7.661  0.6541 -0.7699 -1.8758
  994MOL0     H34177   1.873   1.328   7.593  3.2744 -1.1428  1.0584
  994MOL0     H34178   1.635   1.352   7.608  0.7792  0.9959  0.0885
  994MOL0     H34179   1.696   1.348   7.436  1.6809  1.4865 -0.7389
  994MOL0     H34180   1.481   1.309   7.404  2.8114  0.8514 -1.9234
  994MOL0     H34181   1.487   1.491   7.383 -0.4776  1.8197  2.2471
  994MOL0     H34182   1.415   1.508   7.621 -0.0744 -0.0678 -0.7862
  994MOL0     H34183   1.390   1.346   7.628 -0.6176  0.0103 -1.0043
  994MOL0     H34184   1.203   1.516   7.561  0.2286 -0.4721  0.4974
  994MOL0     H34185   1.265   1.513   7.394 -1.7791  0.9043  0.0711
  994MOL0     H34186   1.107   1.106   7.446 -0.2818  0.7455  1.5336
  994MOL0     H34187   1.795   1.755   7.588  2.9263  2.1341 -1.0036
  994MOL0     H34188   2.107   1.858   7.651 -0.5486  1.7670  0.1959
  994MOL0     H34189   1.935   1.904   7.648  0.8251  0.9627 -0.0830
  994MOL0     H34190   2.007   1.852   7.798  1.3390  0.0523 -0.6740
  995MOL0     O34191   1.542   6.207   9.648  0.4384  0.4954  0.7648
  995MOL0     C34192   1.552   6.326   9.681 -0.3385 -0.5284 -0.2367
  995MOL0     O34193   1.646   6.377   9.768  0.1165 -0.0856  0.6033
  995MOL0     C34194   1.743   6.297   9.815  0.2516 -0.3993 -0.0478
  995MOL0     C34195   1.864   6.300   9.749  0.9660  0.1501 -0.1521
  995MOL0     C34196   1.970   6.218   9.795 -0.3302  0.0271 -0.6657
  995MOL0     C34197   1.951   6.136   9.906  0.5958 -0.5413  0.7867
  995MOL0     O34198   2.050   6.048   9.938  0.8406 -0.3639 -0.8237
  995MOL0     C34199   2.067   6.030  10.079  0.3118 -0.3084 -0.0528
  995MOL0     C34200   2.209   5.993  10.127  0.6549  1.1252 -0.4450
  995MOL0     C34201   2.312   6.105  10.108  0.5899  0.3122  0.4197
  995MOL0     C34202   2.431   6.104  10.203 -0.0633 -0.4371 -0.5786
  995MOL0     C34203   2.537   6.205  10.164  1.4432 -0.1447  0.1007
  995MOL0     C34204   2.674   6.158  10.226 -0.9877 -0.2297  0.3707
  995MOL0     C34205   2.797   6.243  10.178  0.2485  0.5598  0.3423
  995MOL0     C34206   2.902   6.232  10.286 -0.1688  0.3495 -0.0378
  995MOL0     N34207   3.037   6.259  10.239 -0.1131 -0.2970 -0.3100
  995MOL0     C34208   3.083   6.375  10.193 -1.1916 -0.4301  0.0265
  995MOL0     C34209   3.199   6.335  10.126  0.8439 -1.1905 -0.1117
  995MOL0     C34210   3.267   6.426  10.036 -0.4177  0.1932  0.2102
  995MOL0     C34211   3.419   6.460  10.072  0.6182 -0.0782 -0.4116
  995MOL0     C34212   3.433   6.526  10.212  0.6687  0.3825  0.6893
  995MOL0     C34213   3.581   6.557  10.248 -0.3192 -0.7316 -1.0625
  995MOL0     O34214   3.644   6.651  10.171 -0.1230 -0.2943  1.0363
  995MOL0     C34215   3.773   6.693  10.203 -0.3756  0.1744  0.4294
  995MOL0     C34216   3.854   6.633  10.300  0.1475 -0.3315 -0.6497
  995MOL0     C34217   3.987   6.677  10.301  0.0272  1.1703  0.0629
  995MOL0     C34218   4.041   6.767  10.209 -0.4174 -0.2493  0.1127
  995MOL0     C34219   4.180   6.804  10.233 -0.3520  0.3040  0.1922
  995MOL0     O34220   4.239   6.883  10.139  0.4603  0.1272  0.9174
  995MOL0     C34221   4.369   6.915  10.166  0.5775  0.8861 -0.9071
  995MOL0     C34222   4.465   6.819  10.154 -0.5181 -0.4788 -0.4723
  995MOL0     C34223   4.597   6.860  10.187 -0.4381  0.6457  1.1289
  995MOL0     C34224   4.631   6.992  10.209  0.2650 -0.1759 -0.3013
  995MOL0     O34225   4.764   7.020  10.209 -0.4159  0.2398 -0.3357
  995MOL0     C34226   4.806   7.153  10.179  0.0460  0.0533 -0.5819
  995MOL0     C34227   4.955   7.170  10.196 -0.2302  0.0029  0.0290
  995MOL0     C34228   5.005   7.151  10.338  0.7785 -0.6351  0.3344
  995MOL0     C34229   5.015   7.010  10.396  0.0159  0.0746  0.7120
  995MOL0     C34230   5.104   6.993  10.525  0.3382 -0.1736  0.1713
  995MOL0     C34231   5.122   6.847  10.558  0.2476 -0.0737 -0.2602
  995MOL0     C34232   5.001   6.770  10.602  0.4669 -0.0393 -0.8044
  995MOL0     C34233   5.057   6.635  10.659 -0.8742  0.2892 -1.1234
  995MOL0    Cl34234   5.098   6.510  10.539 -0.0504 -0.1603 -0.5389
  995MOL0     C34235   4.528   7.088  10.213 -0.0645  0.4668 -0.5395
  995MOL0     C34236   4.398   7.046  10.203  0.5836 -0.5481 -0.0688
  995MOL0     O34237   4.229   6.769  10.340 -0.1134  0.0910  0.1762
  995MOL0     C34238   3.955   6.831  10.110 -0.7043  0.0883  0.0431
  995MOL0     C34239   3.828   6.794  10.112 -0.7785  0.2624  0.0159
  995MOL0     N34240   3.218   6.202  10.151 -0.1063 -0.2679 -0.4035
  995MOL0     N34241   3.119   6.154  10.220 -0.1393 -0.4229  0.3020
  995MOL0     C34242   1.826   6.137   9.974 -0.1477  0.1029 -0.2808
  995MOL0     C34243   1.719   6.217   9.925  0.1721  0.6902  0.0668
  995MOL0     C34244   1.454   6.427   9.620 -0.3917  0.6317 -0.4495
  995MOL0     C34245   1.402   6.380   9.496 -0.8357 -0.5703 -0.4552
  995MOL0     C34246   1.322   6.471   9.416 -0.4325 -0.4217 -0.3199
  995MOL0     C34247   1.293   6.593   9.474  0.0775 -0.7331 -0.2188
  995MOL0     O34248   1.222   6.694   9.419 -0.1987  0.4302  0.2021
  995MOL0     C34249   1.140   6.667   9.301  0.3332 -0.9149  0.2740
  995MOL0     C34250   1.011   6.757   9.309  0.0323  0.2268 -0.2873
  995MOL0     C34251   0.940   6.743   9.446  0.3739 -0.0589  0.6881
  995MOL0     C34252   0.827   6.844   9.468  0.4813 -0.5657 -0.0213
  995MOL0     C34253   0.733   6.811   9.583  0.0035 -0.4737  0.7163
  995MOL0     C34254   0.666   6.808   9.682  0.5385  0.4370 -1.0187
  995MOL0     C34255   1.347   6.634   9.599 -0.3015 -0.2849  0.7979
  995MOL0     C34256   1.431   6.551   9.674  0.1942  0.0282 -0.1176
  995MOL0     C34257   1.487   6.610   9.793 -0.1087 -0.1387 -0.7186
  995MOL0     H34258   1.873   6.355   9.656  0.2436 -1.0791 -0.9841
  995MOL0     H34259   2.068   6.233   9.750 -0.1781  0.3402 -0.2347
  995MOL0     H34260   2.046   6.124  10.132 -2.1269 -1.0209  0.3694
  995MOL0     H34261   1.997   5.957  10.122  0.5994 -0.2062  0.5990
  995MOL0     H34262   2.231   5.901  10.072  0.6990  0.3733  0.7884
  995MOL0     H34263   2.206   5.954  10.229  1.6965 -0.2388 -0.9117
  995MOL0     H34264   2.255   6.197  10.096  1.1721  0.3978 -2.4346
  995MOL0     H34265   2.358   6.092  10.010 -0.8457 -0.2392 -0.2098
  995MOL0     H34266   2.395   6.124  10.304 -0.4092  0.4629 -0.8743
  995MOL0     H34267   2.470   6.002  10.200  0.0948 -0.4040  0.2257
  995MOL0     H34268   2.552   6.212  10.056  3.1839 -0.7462  0.2847
  995MOL0     H34269   2.515   6.301  10.212  1.8789  0.6793 -1.2871
  995MOL0     H34270   2.665   6.156  10.335  1.1852 -1.9421  0.5881
  995MOL0     H34271   2.699   6.057  10.193 -0.8954 -0.5174  1.2904
  995MOL0     H34272   2.771   6.349  10.165 -0.7249  0.2215 -0.6909
  995MOL0     H34273   2.835   6.201  10.085 -1.6815 -2.2959  0.7073
  995MOL0     H34274   2.863   6.290  10.371 -1.1754  2.2294 -1.7120
  995MOL0     H34275   2.901   6.126  10.313 -2.4915  0.0099 -1.2644
  995MOL0     H34276   3.035   6.471  10.178  0.6531  0.5067 -0.1622
  995MOL0     H34277   3.265   6.380   9.936  0.6973  0.9435 -0.1809
  995MOL0     H34278   3.211   6.520  10.028 -0.7933 -0.1152 -1.0128
  995MOL0     H34279   3.475   6.366  10.077  1.3700  0.3461 -0.5695
  995MOL0     H34280   3.451   6.529   9.994 -1.8793  2.6569  0.7993
  995MOL0     H34281   3.399   6.456  10.289  0.8087  0.5057  0.8626
  995MOL0     H34282   3.376   6.620  10.214  1.9846  1.3788 -2.4188
  995MOL0     H34283   3.631   6.460  10.258 -1.2718 -1.0913  0.5969
  995MOL0     H34284   3.578   6.586  10.354  1.0967 -2.7761 -0.4040
  995MOL0     H34285   3.817   6.560  10.372  0.7669  0.2708  0.3056
  995MOL0     H34286   4.039   6.638  10.388  2.2494  0.1372 -1.6486
  995MOL0     H34287   4.440   6.722  10.113 -0.7173 -0.1638 -1.0986
  995MOL0     H34288   4.685   6.800  10.165 -0.8643  0.4721 -0.2285
  995MOL0     H34289   4.763   7.183  10.083 -0.8208  0.8073  0.0223
  995MOL0     H34290   4.766   7.227  10.248 -0.1078  0.1412 -0.7636
  995MOL0     H34291   5.001   7.100  10.125 -0.5098 -0.0208 -0.1311
  995MOL0     H34292   4.990   7.271  10.173  2.1174 -0.7589 -0.0021
  995MOL0     H34293   5.106   7.194  10.337  0.5742  0.2164  3.9816
  995MOL0     H34294   4.955   7.209  10.416 -0.7696 -1.5778  0.0969
  995MOL0     H34295   5.071   6.948  10.325  1.5578 -0.0223  1.9552
  995MOL0     H34296   4.915   6.965  10.403 -0.0227 -0.2407 -1.3151
  995MOL0     H34297   5.061   7.047  10.610 -0.7103  1.4428 -1.3083
  995MOL0     H34298   5.205   7.034  10.510 -0.2935  1.0463 -1.0491
  995MOL0     H34299   5.164   6.790  10.474  0.7526 -1.1414  0.6775
  995MOL0     H34300   5.207   6.850  10.627  0.4303  0.7410 -0.5057
  995MOL0     H34301   4.925   6.749  10.527 -0.8908  0.3839  0.4053
  995MOL0     H34302   4.951   6.827  10.681  4.1963  0.2790  1.5988
  995MOL0     H34303   5.141   6.657  10.725 -2.7689  3.5587  0.4643
  995MOL0     H34304   4.976   6.602  10.725 -0.8484  1.2187 -0.6061
  995MOL0     H34305   4.554   7.189  10.242  0.7739  0.2253 -0.3889
  995MOL0     H34306   4.319   7.115  10.228  1.8151  1.2773 -1.0135
  995MOL0     H34307   3.981   6.909  10.039 -1.5481  1.0005  0.6989
  995MOL0     H34308   3.758   6.823  10.034  1.8263 -0.7442 -2.9234
  995MOL0     H34309   1.802   6.059  10.046 -1.7348  2.1109  1.5069
  995MOL0     H34310   1.622   6.219   9.974 -0.5597  0.6208 -1.3216
  995MOL0     H34311   1.420   6.284   9.447  3.8466  1.7768 -4.2285
  995MOL0     H34312   1.293   6.420   9.324  0.1677 -1.3141 -0.0229
  995MOL0     H34313   1.101   6.565   9.291  0.0358 -0.6988 -0.8436
  995MOL0     H34314   1.197   6.689   9.211 -0.4581 -1.5766 -0.4155
  995MOL0     H34315   0.953   6.717   9.225  0.3312  0.5789 -0.6613
  995MOL0     H34316   1.023   6.863   9.284 -0.0334 -0.1344 -2.0245
  995MOL0     H34317   1.015   6.756   9.524 -0.3306  1.8832  1.0974
  995MOL0     H34318   0.908   6.639   9.449 -0.5693  0.1901 -0.2766
  995MOL0     H34319   0.883   6.936   9.480 -1.7550  1.7121 -4.5555
  995MOL0     H34320   0.766   6.850   9.377  4.7276  0.4100 -3.1175
  995MOL0     H34321   0.611   6.809   9.774  1.0847  0.3799 -0.6797
  995MOL0     H34322   1.326   6.735   9.633 -1.3262 -0.6306  1.2309
  995MOL0     H34323   1.445   6.706   9.823 -1.7039 -1.6156  2.0902
  995MOL0     H34324   1.469   6.544   9.877 -4.0542  1.6305  0.0349
  995MOL0     H34325   1.591   6.636   9.768 -1.2539  2.0968 -3.8306
  996MOL0     O34326   0.649   8.067   9.268  0.3746  0.5289  0.1393
  996MOL0     C34327   0.591   7.966   9.229 -0.8313 -0.6326 -0.5032
  996MOL0     O34328   0.643   7.838   9.238 -0.6226 -0.3046  0.6569
  996MOL0     C34329   0.776   7.804   9.247  0.1036 -0.5899 -0.4673
  996MOL0     C34330   0.815   7.695   9.327  0.3288 -1.0859 -0.1823
  996MOL0     C34331   0.955   7.672   9.348  0.2834 -0.3873 -0.5312
  996MOL0     C34332   1.054   7.742   9.286 -0.5975 -0.3407  0.3518
  996MOL0     O34333   1.183   7.711   9.320  0.4997  0.6342 -0.5648
  996MOL0     C34334   1.288   7.788   9.247 -0.2004 -0.3008  0.2811
  996MOL0     C34335   1.425   7.733   9.282  0.2782  0.0146  0.2905
  996MOL0     C34336   1.531   7.800   9.198 -0.4188 -0.1325  0.1615
  996MOL0     C34337   1.672   7.760   9.244 -1.0566 -0.6643 -0.1153
  996MOL0     C34338   1.786   7.803   9.151  0.5694 -0.1020 -0.4809
  996MOL0     C34339   1.921   7.738   9.188 -0.0949  0.5158  0.2362
  996MOL0     C34340   1.989   7.779   9.313  0.5277 -0.1959  0.5559
  996MOL0     C34341   2.115   7.698   9.346  0.0123 -0.9959 -0.2592
  996MOL0     N34342   2.208   7.720   9.227  0.2243  0.1058 -0.6726
  996MOL0     C34343   2.287   7.834   9.202 -0.3098  0.9416  0.3625
  996MOL0     C34344   2.370   7.800   9.104  0.7085 -0.7283  0.4711
  996MOL0     C34345   2.468   7.895   9.039  0.4012 -0.0191 -0.4736
  996MOL0     C34346   2.573   7.940   9.144  0.8715  0.2521 -0.1878
  996MOL0     C34347   2.693   8.004   9.086 -0.2375  0.1331  0.2811
  996MOL0     C34348   2.791   8.061   9.188 -0.1628  0.0285 -0.1593
  996MOL0     O34349   2.844   7.957   9.274 -0.2538 -0.1282 -0.1593
  996MOL0     C34350   2.977   7.952   9.295 -0.3963 -0.5764  0.5852
  996MOL0     C34351   3.051   8.071   9.306  1.2674  0.2156 -0.1459
  996MOL0     C34352   3.188   8.071   9.329  0.5210  0.0931  0.7620
  996MOL0     C34353   3.252   7.946   9.339 -0.7568 -0.2047 -0.1027
  996MOL0     C34354   3.402   7.954   9.357  0.2778  0.1181 -0.3717
  996MOL0     O34355   3.462   8.079   9.381 -0.2487  0.5794 -0.7103
  996MOL0     C34356   3.586   8.089   9.437  0.9890 -0.5130  0.5617
  996MOL0     C34357   3.594   8.061   9.574 -0.0934 -0.2296 -0.1671
  996MOL0     C34358   3.706   8.094   9.652  0.3126 -0.3550 -0.2480
  996MOL0     C34359   3.814   8.154   9.582  0.8555  0.6703 -0.0380
  996MOL0     O34360   3.924   8.193   9.656 -0.3033 -0.0138 -0.2387
  996MOL0     C34361   3.966   8.102   9.764 -0.5638 -0.4825  0.3381
  996MOL0     C34362   4.126   8.113   9.759  0.3936  0.2116 -0.0661
  996MOL0     C34363   4.174   8.260   9.735  0.2849 -0.7919  0.0869
  996MOL0     C34364   4.325   8.274   9.731  0.1108  0.1568 -0.3803
  996MOL0     C34365   4.397   8.221   9.604 -0.0686  0.1019 -0.2679
  996MOL0     C34366   4.554   8.257   9.590  0.6395  0.0784  0.0267
  996MOL0     C34367   4.588   8.401   9.564 -0.7674  0.4966  0.0190
  996MOL0     C34368   4.743   8.421   9.562  0.6059  0.2439  0.6363
  996MOL0    Cl34369   4.815   8.347   9.707 -0.0559  0.3293 -0.1163
  996MOL0     C34370   3.810   8.180   9.441  0.4572 -0.0123  0.2753
  996MOL0     C34371   3.693   8.141   9.367  0.3196 -0.0595  0.2909
  996MOL0     O34372   3.459   7.844   9.368 -0.5377  0.1830  0.2865
  996MOL0     C34373   3.177   7.825   9.345 -0.5073 -0.4226 -0.1960
  996MOL0     C34374   3.045   7.833   9.311  0.0603  0.3353  0.4017
  996MOL0     N34375   2.345   7.666   9.067  0.6889 -0.1110 -0.1534
  996MOL0     N34376   2.249   7.621   9.143  0.0359  0.3839 -0.0903
  996MOL0     C34377   1.011   7.846   9.199  0.2965 -0.2063 -0.7679
  996MOL0     C34378   0.878   7.877   9.177  0.4330  0.0257 -0.5990
  996MOL0     C34379   0.451   7.969   9.184  0.1187  0.8665 -0.9737
  996MOL0     C34380   0.391   7.847   9.152  0.6007  0.6428 -0.8677
  996MOL0     C34381   0.264   7.848   9.099 -0.0779 -0.2626  0.1275
  996MOL0     C34382   0.198   7.970   9.055 -0.3476 -0.3551 -0.3380
  996MOL0     O34383   0.074   7.983   8.990 -0.4342  1.1620  0.0709
  996MOL0     C34384   0.018   7.866   8.932  0.1492  0.7328 -0.9358
  996MOL0     C34385  -0.094   7.899   8.835 -0.0606 -0.1811 -0.3341
  996MOL0     C34386  -0.115   7.780   8.738 -0.3069 -1.0364 -0.4017
  996MOL0     C34387  -0.255   7.771   8.673 -0.4311 -0.1467  1.0137
  996MOL0     C34388  -0.352   7.720   8.772 -0.2477 -0.0167  0.4251
  996MOL0     C34389  -0.445   7.690   8.847 -0.5837  0.5339 -0.7604
  996MOL0     C34390   0.251   8.089   9.093  0.2602  0.1643  0.3258
  996MOL0     C34391   0.375   8.088   9.163 -0.1536  0.0582  0.6849
  996MOL0     C34392   0.419   8.225   9.221 -0.4611  0.2006 -0.2570
  996MOL0     H34393   0.727   7.658   9.379 -0.3825  0.0910 -0.5236
  996MOL0     H34394   0.982   7.595   9.420  0.0470 -0.2015 -0.2376
  996MOL0     H34395   1.265   7.777   9.140  0.0395  2.0442 -0.0616
  996MOL0     H34396   1.294   7.894   9.272  1.7842 -0.8479  2.3801
  996MOL0     H34397   1.419   7.626   9.260  0.6942 -0.3478  1.8412
  996MOL0     H34398   1.452   7.750   9.386  2.7237  2.0016 -0.5775
  996MOL0     H34399   1.518   7.909   9.202 -4.4562 -0.4696  2.9863
  996MOL0     H34400   1.503   7.760   9.100 -1.9536 -2.9502  1.6111
  996MOL0     H34401   1.685   7.796   9.346  0.9380  0.5968 -0.7701
  996MOL0     H34402   1.669   7.650   9.242 -2.5166 -0.6390 -1.2226
  996MOL0     H34403   1.759   7.773   9.050 -1.1435 -0.1276 -0.0370
  996MOL0     H34404   1.801   7.912   9.144  0.7957 -0.1066 -0.1397
  996MOL0     H34405   1.898   7.631   9.190 -2.9780  1.0419 -0.0283
  996MOL0     H34406   1.994   7.752   9.107  0.7414 -0.7377  0.7538
  996MOL0     H34407   1.920   7.790   9.398  0.9599  0.9778  0.7733
  996MOL0     H34408   2.027   7.880   9.295 -0.7883  0.0855 -0.9000
  996MOL0     H34409   2.157   7.749   9.434 -0.4846  0.5710 -0.8904
  996MOL0     H34410   2.093   7.596   9.378  0.1799  0.1614  4.2671
  996MOL0     H34411   2.283   7.932   9.249 -1.1177  0.3203  1.6450
  996MOL0     H34412   2.513   7.855   8.948 -2.8237  0.2999 -2.3394
  996MOL0     H34413   2.412   7.980   9.001  1.7298  2.4856  2.6511
  996MOL0     H34414   2.525   8.015   9.208  0.3152 -0.2689  0.0158
  996MOL0     H34415   2.597   7.859   9.213 -0.5028 -0.2308 -0.2480
  996MOL0     H34416   2.652   8.086   9.026 -0.6726 -1.2131 -1.3488
  996MOL0     H34417   2.747   7.927   9.030 -1.0019  0.3871 -0.8493
  996MOL0     H34418   2.741   8.138   9.248  0.8232  0.8849 -0.4248
  996MOL0     H34419   2.868   8.108   9.128  0.2965  0.0726  0.4544
  996MOL0     H34420   3.005   8.169   9.318  1.5460  0.2290  0.9320
  996MOL0     H34421   3.242   8.165   9.327  2.1367 -0.6923  2.9992
  996MOL0     H34422   3.504   8.016   9.615 -2.9499  4.3264 -0.6052
  996MOL0     H34423   3.723   8.062   9.755  2.0437  0.8431 -0.1146
  996MOL0     H34424   3.928   8.151   9.854  0.7626  0.7644  0.2647
  996MOL0     H34425   3.931   7.998   9.761  1.1265 -1.1054  1.0938
  996MOL0     H34426   4.164   8.081   9.856 -0.2077  1.9566  0.7760
  996MOL0     H34427   4.156   8.051   9.674 -0.7294 -2.2362  1.2063
  996MOL0     H34428   4.131   8.307   9.646  1.1321 -0.7061 -0.2854
  996MOL0     H34429   4.136   8.319   9.818  3.6297  2.1993 -0.3104
  996MOL0     H34430   4.361   8.221   9.819 -2.5311  1.3918  1.5729
  996MOL0     H34431   4.350   8.381   9.729  1.1030  0.0273  2.1181
  996MOL0     H34432   4.351   8.256   9.512 -0.0610 -1.7893 -1.0408
  996MOL0     H34433   4.376   8.114   9.605  0.4848 -0.0215 -0.8028
  996MOL0     H34434   4.594   8.219   9.684 -2.4422  0.9419  1.8010
  996MOL0     H34435   4.603   8.208   9.505 -1.3760  3.0073 -3.0678
  996MOL0     H34436   4.545   8.474   9.634  1.8774  1.4717  0.7766
  996MOL0     H34437   4.551   8.415   9.462 -1.0221 -1.0917 -0.1326
  996MOL0     H34438   4.777   8.380   9.467 -2.2287 -0.1625 -0.3013
  996MOL0     H34439   4.763   8.528   9.552 -0.6641  0.5935  1.6121
  996MOL0     H34440   3.895   8.238   9.405 -0.6486 -0.1518 -2.8861
  996MOL0     H34441   3.675   8.174   9.265 -0.5009  0.6126  0.6433
  996MOL0     H34442   3.223   7.728   9.362  1.2744  0.1827 -1.2350
  996MOL0     H34443   2.983   7.744   9.310 -0.5702  0.7502 -1.3369
  996MOL0     H34444   1.081   7.901   9.137  0.7582  1.3505  1.0270
  996MOL0     H34445   0.855   7.962   9.114  2.3325 -0.2201 -1.7015
  996MOL0     H34446   0.427   7.745   9.163  0.8147  0.5122 -2.5481
  996MOL0     H34447   0.218   7.753   9.077  0.2611 -1.1322  2.7676
  996MOL0     H34448  -0.018   7.799   9.010  1.7744  1.0477  0.1295
  996MOL0     H34449   0.102   7.818   8.882  0.5199  0.0488  0.3213
  996MOL0     H34450  -0.069   7.997   8.794  0.3385  0.4989  1.4406
  996MOL0     H34451  -0.181   7.900   8.902 -1.8122 -3.8485 -2.2280
  996MOL0     H34452  -0.083   7.691   8.794  0.9963  0.1581  0.8393
  996MOL0     H34453  -0.040   7.783   8.658 -1.8760 -1.0099 -1.9192
  996MOL0     H34454  -0.281   7.870   8.634 -3.1756 -0.3348  2.1624
  996MOL0     H34455  -0.241   7.708   8.585 -0.8338  4.0349 -2.4014
  996MOL0     H34456  -0.527   7.667   8.913  0.7451  3.0669  1.9899
  996MOL0     H34457   0.208   8.188   9.084 -0.1672  0.1155  1.5951
  996MOL0     H34458   0.455   8.220   9.324  0.7741 -0.9351 -0.7189
  996MOL0     H34459   0.496   8.253   9.148 -3.0440 -0.8908 -3.7262
  996MOL0     H34460   0.329   8.287   9.228 -1.0107 -0.5460 -0.5238
  997MOL0     O34461   1.349   4.326   7.299 -0.6923 -0.1169  0.2845
  997MOL0     C34462   1.367   4.287   7.181 -0.3057  0.2255  0.2210
  997MOL0     O34463   1.487   4.289   7.110  0.3567 -0.5470  0.1559
  997MOL0     C34464   1.615   4.325   7.170  0.3442 -1.2615 -0.3606
  997MOL0     C34465   1.733   4.256   7.144 -0.6883  0.0774  0.0388
  997MOL0     C34466   1.854   4.307   7.191  0.3943 -0.1771  0.6231
  997MOL0     C34467   1.860   4.430   7.250 -0.1837 -1.1538 -0.0311
  997MOL0     O34468   1.992   4.472   7.257  0.8497  0.6424 -0.2496
  997MOL0     C34469   1.990   4.583   7.347  0.0242  0.3953  0.8460
  997MOL0     C34470   2.142   4.608   7.383  0.3269  0.2944 -0.2045
  997MOL0     C34471   2.199   4.495   7.460 -0.3680 -0.5353  0.3096
  997MOL0     C34472   2.356   4.495   7.438  0.3362  0.0034  0.4230
  997MOL0     C34473   2.435   4.385   7.507  0.2263  0.4672 -0.2948
  997MOL0     C34474   2.585   4.386   7.474  0.4451 -0.8516  0.6093
  997MOL0     C34475   2.658   4.253   7.511 -1.0531  0.8853 -0.2112
  997MOL0     C34476   2.808   4.260   7.511 -0.4700 -0.3143 -0.1928
  997MOL0     N34477   2.871   4.139   7.566  0.0228 -0.1658  0.1271
  997MOL0     C34478   2.957   4.121   7.675 -0.4168 -1.2170  0.5237
  997MOL0     C34479   3.007   4.002   7.662  0.2183  0.2995  0.6570
  997MOL0     C34480   3.112   3.929   7.744  0.2753  0.1105  0.2702
  997MOL0     C34481   3.216   3.859   7.655  0.1476 -0.2040  0.2168
  997MOL0     C34482   3.283   3.962   7.559  0.1634  0.2848  0.3632
  997MOL0     C34483   3.422   3.915   7.516  0.1539  0.7125 -0.0342
  997MOL0     O34484   3.507   3.898   7.626  0.5013 -0.2887 -0.3019
  997MOL0     C34485   3.647   3.881   7.606  0.1619  0.2068 -0.6968
  997MOL0     C34486   3.709   3.854   7.484  0.0128  0.6558  0.0772
  997MOL0     C34487   3.845   3.837   7.486  0.4292  0.3519 -1.2845
  997MOL0     C34488   3.919   3.834   7.606  0.1449 -0.0568  0.0534
  997MOL0     C34489   4.066   3.826   7.602  0.3685 -0.2214 -0.2373
  997MOL0     O34490   4.129   3.855   7.484 -0.0513 -0.1243  0.6791
  997MOL0     C34491   4.268   3.867   7.479  0.1947  1.0609  0.1521
  997MOL0     C34492   4.321   3.981   7.411  0.5502  0.0515 -0.3300
  997MOL0     C34493   4.460   3.993   7.391  0.3095  0.0800 -0.3269
  997MOL0     C34494   4.544   3.883   7.431  0.2935 -0.6743  0.3589
  997MOL0     O34495   4.677   3.907   7.396  0.1891  0.7524  0.2679
  997MOL0     C34496   4.750   3.791   7.343 -0.2069 -0.2876  0.0637
  997MOL0     C34497   4.858   3.845   7.263  0.2585  0.8443 -0.4667
  997MOL0     C34498   4.930   3.724   7.183  0.7067  0.1575  0.1964
  997MOL0     C34499   5.054   3.780   7.103  0.7206 -0.5818 -0.3867
  997MOL0     C34500   5.000   3.830   6.977 -0.2120 -0.8258  0.2695
  997MOL0     C34501   5.127   3.844   6.891  0.0709 -0.1093 -0.1922
  997MOL0     C34502   5.102   3.896   6.750  0.4137  0.5644  0.5156
  997MOL0     C34503   5.240   3.900   6.682  0.8540  0.1088  0.4324
  997MOL0    Cl34504   5.273   3.736   6.620  0.0928  0.0419  0.2124
  997MOL0     C34505   4.488   3.772   7.496  0.1556 -0.3225  0.3348
  997MOL0     C34506   4.352   3.765   7.531 -0.6287 -0.3779  0.6410
  997MOL0     O34507   4.116   3.772   7.706  0.1083 -0.7059  0.6205
  997MOL0     C34508   3.855   3.852   7.729 -0.1498 -0.4487  0.4921
  997MOL0     C34509   3.720   3.878   7.725 -0.2751  0.4279 -0.3538
  997MOL0     N34510   2.938   3.941   7.557  0.4897  0.1097  0.3104
  997MOL0     N34511   2.854   4.022   7.491 -0.3653 -0.2804 -0.3307
  997MOL0     C34512   1.737   4.497   7.268 -0.1564 -1.0700  0.1436
  997MOL0     C34513   1.618   4.445   7.239 -0.6285  0.3087  0.4063
  997MOL0     C34514   1.249   4.229   7.125  0.2001  0.4548  0.2172
  997MOL0     C34515   1.142   4.174   7.210 -0.4561 -0.0545  0.9113
  997MOL0     C34516   1.032   4.108   7.146  0.1477  0.4598 -0.7456
  997MOL0     C34517   1.017   4.094   7.013 -0.6495  0.6250 -0.2105
  997MOL0     O34518   0.914   4.018   6.965 -0.6816  0.5851  0.6752
  997MOL0     C34519   0.887   3.994   6.824 -0.7135  0.6998 -0.8660
  997MOL0     C34520   0.785   3.878   6.801 -0.3712 -0.9097  0.6326
  997MOL0     C34521   0.643   3.931   6.812  0.4028 -0.2924 -0.0642
  997MOL0     C34522   0.546   3.826   6.769  0.4612  0.4063  0.5759
  997MOL0     C34523   0.417   3.876   6.732  0.5401  0.2631  0.5003
  997MOL0     C34524   0.312   3.926   6.711  0.5246  0.8653 -0.3878
  997MOL0     C34525   1.102   4.165   6.931 -0.2765 -0.0721  0.5278
  997MOL0     C34526   1.218   4.236   6.983  0.0281 -0.1961  0.3808
  997MOL0     C34527   1.307   4.304   6.875 -0.3091 -0.4660  0.2061
  997MOL0     H34528   1.723   4.158   7.098 -1.5303 -0.2505  0.8795
  997MOL0     H34529   1.945   4.255   7.162 -1.4238 -2.0145 -2.2510
  997MOL0     H34530   1.968   4.669   7.284  0.9716 -0.4876 -0.7590
  997MOL0     H34531   1.921   4.568   7.431 -1.0828 -1.9406 -0.3869
  997MOL0     H34532   2.146   4.703   7.437  2.1927  2.1048 -3.2342
  997MOL0     H34533   2.197   4.632   7.291 -0.8920  2.1107 -0.5180
  997MOL0     H34534   2.174   4.391   7.434  0.3261 -1.7351  3.8789
  997MOL0     H34535   2.189   4.513   7.568 -2.0187 -0.7458  0.2217
  997MOL0     H34536   2.376   4.477   7.332 -0.0420  0.2430  0.3109
  997MOL0     H34537   2.391   4.594   7.469  0.6141  0.1805 -0.4411
  997MOL0     H34538   2.425   4.391   7.616 -4.4252  0.1858 -0.5130
  997MOL0     H34539   2.390   4.294   7.469  0.6070 -0.1067  0.5918
  997MOL0     H34540   2.577   4.410   7.367 -1.8257  1.9344  1.2497
  997MOL0     H34541   2.642   4.473   7.510  1.5359 -1.3042  0.0206
  997MOL0     H34542   2.632   4.172   7.442 -1.9036  2.2057 -1.5112
  997MOL0     H34543   2.632   4.243   7.617 -0.0381  2.5587  0.2349
  997MOL0     H34544   2.844   4.291   7.413 -3.5481 -1.5471 -1.8330
  997MOL0     H34545   2.827   4.346   7.576  0.5896 -0.3153 -0.4850
  997MOL0     H34546   2.988   4.203   7.739 -0.4361  0.7734 -1.8920
  997MOL0     H34547   3.161   3.982   7.826 -2.1106  0.4210  1.5636
  997MOL0     H34548   3.066   3.838   7.784 -1.3897 -0.8526 -3.4724
  997MOL0     H34549   3.285   3.798   7.714 -0.1387 -1.7437 -0.9712
  997MOL0     H34550   3.173   3.783   7.590  1.3546 -0.0867 -0.7516
  997MOL0     H34551   3.289   4.060   7.608  1.2621  0.0964  0.6465
  997MOL0     H34552   3.226   3.977   7.467 -0.2848  2.0593  0.8877
  997MOL0     H34553   3.483   3.988   7.462  2.5790 -0.5389  0.8941
  997MOL0     H34554   3.415   3.823   7.458 -3.5237 -1.9501  4.0183
  997MOL0     H34555   3.655   3.853   7.390  0.7955 -0.3953 -0.3761
  997MOL0     H34556   3.888   3.812   7.389 -0.5974 -2.1628 -1.1606
  997MOL0     H34557   4.249   4.058   7.385 -1.7411 -2.9080 -3.6866
  997MOL0     H34558   4.501   4.074   7.331  0.3668  1.5532  1.6209
  997MOL0     H34559   4.789   3.721   7.418  0.2003 -1.5389 -1.2617
  997MOL0     H34560   4.674   3.735   7.287 -0.7882 -0.0807  0.6317
  997MOL0     H34561   4.805   3.907   7.190  0.5904  0.0098 -1.4385
  997MOL0     H34562   4.929   3.904   7.322  1.1386  0.5754 -1.2327
  997MOL0     H34563   4.961   3.662   7.267 -0.9437 -0.1482  0.6119
  997MOL0     H34564   4.862   3.664   7.122 -0.0304  1.4559 -0.3013
  997MOL0     H34565   5.118   3.692   7.090  0.6886 -0.6469 -0.0958
  997MOL0     H34566   5.113   3.846   7.166 -0.2541  0.6893 -0.7746
  997MOL0     H34567   4.946   3.922   7.001  0.6657 -0.3653  0.5330
  997MOL0     H34568   4.940   3.755   6.924  2.5717 -0.8344 -3.2663
  997MOL0     H34569   5.186   3.926   6.934 -1.5959  1.1794 -0.2775
  997MOL0     H34570   5.184   3.750   6.886 -1.7021 -1.2223 -5.0314
  997MOL0     H34571   5.068   4.000   6.755 -1.4296 -0.0304  0.9159
  997MOL0     H34572   5.023   3.836   6.705  1.0317 -1.1798  1.6403
  997MOL0     H34573   5.249   3.966   6.595  0.5737  1.0314  1.0871
  997MOL0     H34574   5.320   3.924   6.752  1.2359  1.4151 -0.4102
  997MOL0     H34575   4.553   3.693   7.531 -0.0187  0.1611  1.8113
  997MOL0     H34576   4.330   3.671   7.580 -0.5581 -1.5498 -1.4555
  997MOL0     H34577   3.896   3.858   7.829 -3.8796  4.7280  2.1425
  997MOL0     H34578   3.666   3.889   7.819 -0.2466 -0.9655 -0.1459
  997MOL0     H34579   1.730   4.602   7.296 -2.8269 -0.7168 -1.5366
  997MOL0     H34580   1.525   4.500   7.251 -0.7588 -0.0874  1.3203
  997MOL0     H34581   1.158   4.180   7.317  1.1044  2.0036  0.6352
  997MOL0     H34582   0.958   4.061   7.211 -2.3920  2.3100 -2.1296
  997MOL0     H34583   0.983   3.969   6.780 -0.3417  0.2710  0.1543
  997MOL0     H34584   0.839   4.081   6.777 -1.1993  0.0732 -1.5619
  997MOL0     H34585   0.805   3.792   6.865 -0.8506 -0.4266  1.4455
  997MOL0     H34586   0.794   3.848   6.696 -0.5609  3.2345 -0.7774
  997MOL0     H34587   0.627   4.020   6.752 -0.9921 -0.1970  0.4077
  997MOL0     H34588   0.623   3.949   6.918  2.9256 -1.3912  0.6588
  997MOL0     H34589   0.572   3.772   6.678 -1.8050 -0.1948  0.2368
  997MOL0     H34590   0.540   3.748   6.846  2.6639 -0.5207 -0.1049
  997MOL0     H34591   0.211   3.961   6.711 -0.1180 -0.6239  2.3474
  997MOL0     H34592   1.085   4.171   6.824 -0.2644 -0.2828  0.5153
  997MOL0     H34593   1.242   4.373   6.820 -0.6450  0.7115  1.9861
  997MOL0     H34594   1.372   4.377   6.925 -0.6123  0.0639 -0.1624
  997MOL0     H34595   1.364   4.242   6.806 -0.5237 -2.3288  1.6403
  998MOL0     O34596   7.973   7.606   8.079  0.3059 -0.9010  0.3863
  998MOL0     C34597   7.893   7.697   8.096 -0.1918 -0.6936  0.1853
  998MOL0     O34598   7.921   7.830   8.089 -0.0042 -1.1227 -0.1648
  998MOL0     C34599   8.055   7.873   8.078 -0.0035  0.3268  0.3094
  998MOL0     C34600   8.133   7.857   7.965 -0.4743  0.1329 -0.0093
  998MOL0     C34601   8.261   7.891   7.959 -0.0418 -0.1780 -0.2222
  998MOL0     C34602   8.325   7.953   8.069 -0.1288 -0.4767 -0.0648
  998MOL0     O34603   8.456   7.984   8.046  0.4661 -0.5319 -0.3956
  998MOL0     C34604   8.549   8.008   8.153  0.7968 -0.0523  0.5387
  998MOL0     C34605   8.687   8.049   8.099  0.6188 -0.0909 -0.4395
  998MOL0     C34606   8.792   8.032   8.204 -0.3058  0.2111 -0.3221
  998MOL0     C34607   8.928   8.058   8.150 -0.2668 -0.5023  0.8378
  998MOL0     C34608   9.050   8.060   8.248  0.3394 -0.2760  0.2616
  998MOL0     C34609   9.049   8.170   8.346 -0.7764 -0.2790 -0.8130
  998MOL0     C34610   9.171   8.164   8.446 -0.2388  0.3153  0.6536
  998MOL0     C34611   9.308   8.196   8.376 -0.2250  0.5298 -0.4364
  998MOL0     N34612   9.402   8.220   8.484  0.4346 -0.0499 -0.8048
  998MOL0     C34613   9.437   8.138   8.590 -0.1329  0.3606 -0.3298
  998MOL0     C34614   9.541   8.191   8.651 -0.7011 -0.0439  0.6938
  998MOL0     C34615   9.625   8.135   8.762 -0.7709 -0.3686  0.2213
  998MOL0     C34616   9.586   8.188   8.904  0.0066 -0.0214 -0.2891
  998MOL0     C34617   9.591   8.341   8.930 -0.2815 -0.1691  0.5597
  998MOL0     C34618   9.732   8.389   8.929 -0.7297 -0.2300  0.6755
  998MOL0     O34619   9.726   8.519   8.982  0.4054 -0.0727 -0.5355
  998MOL0     C34620   9.844   8.588   9.008  0.3550 -0.0985 -0.6933
  998MOL0     C34621   9.844   8.726   9.038  0.7433  0.7154  0.1773
  998MOL0     C34622   9.946   8.800   9.086 -0.3770  0.8717 -0.1699
  998MOL0     C34623  10.067   8.742   9.108  0.0952 -0.0095 -0.7929
  998MOL0     C34624  10.180   8.809   9.158 -0.3764 -1.1921  0.2055
  998MOL0     O34625  10.205   8.939   9.113  0.3879  0.1950  0.5915
  998MOL0     C34626  10.328   8.998   9.128 -0.3431  0.1148 -0.8882
  998MOL0     C34627  10.373   9.083   9.025  0.9979  0.7068 -0.1978
  998MOL0     C34628  10.497   9.153   9.024  0.7980  0.4157  0.4792
  998MOL0     C34629  10.585   9.133   9.124  1.0028  0.5275 -0.1494
  998MOL0     O34630  10.703   9.194   9.133 -0.4131 -0.0251  0.1089
  998MOL0     C34631  10.781   9.187   9.005 -0.2171  0.2777 -0.1218
  998MOL0     C34632  10.927   9.199   9.054 -0.1447  0.8523 -1.3102
  998MOL0     C34633  11.011   9.194   8.932 -0.8417 -0.2611 -0.3171
  998MOL0     C34634  11.155   9.185   8.968 -0.3022  0.6721 -0.6044
  998MOL0     C34635  11.247   9.206   8.849 -0.2454 -0.0057  0.4406
  998MOL0     C34636  11.388   9.246   8.900  0.2671  0.1798  1.0387
  998MOL0     C34637  11.489   9.283   8.787 -0.0696  0.3826  0.1252
  998MOL0     C34638  11.619   9.349   8.844  0.5373 -0.0166  0.3183
  998MOL0    Cl34639  11.585   9.523   8.852  0.4145  0.1135  0.4337
  998MOL0     C34640  10.542   9.047   9.229  0.0583 -0.3607 -0.0767
  998MOL0     C34641  10.414   8.979   9.229 -0.0272 -0.0646  0.3768
  998MOL0     O34642  10.255   8.749   9.232  0.6229 -0.5489 -0.4864
  998MOL0     C34643  10.076   8.600   9.082 -0.1678  0.6089  0.3749
  998MOL0     C34644   9.969   8.529   9.025 -1.0702 -0.0501  0.1235
  998MOL0     N34645   9.562   8.318   8.592 -0.0829  0.6037 -1.0294
  998MOL0     N34646   9.476   8.330   8.493 -0.2366  0.4636 -0.5818
  998MOL0     C34647   8.253   7.968   8.189 -0.4172  0.3132 -0.5506
  998MOL0     C34648   8.114   7.928   8.188 -0.5172 -0.8863 -0.6570
  998MOL0     C34649   7.753   7.659   8.123 -0.8952 -0.1589  0.1796
  998MOL0     C34650   7.645   7.719   8.053  0.2541  0.4118  0.7395
  998MOL0     C34651   7.513   7.688   8.080  0.2009 -0.8537  0.1822
  998MOL0     C34652   7.484   7.601   8.186  0.3073 -0.3873  0.4742
  998MOL0     O34653   7.357   7.559   8.222 -0.3589  0.1760 -0.1438
  998MOL0     C34654   7.261   7.537   8.117  0.0666 -0.5149 -0.5275
  998MOL0     C34655   7.113   7.527   8.168 -0.4173  0.1591  0.1470
  998MOL0     C34656   7.071   7.656   8.234  0.0795  0.4586 -0.4780
  998MOL0     C34657   6.925   7.664   8.238  0.1172  0.9436  0.4042
  998MOL0     C34658   6.867   7.707   8.110 -0.1605  0.5865 -0.0897
  998MOL0     C34659   6.840   7.754   7.998  1.7172 -1.0141  0.3256
  998MOL0     C34660   7.583   7.545   8.251  0.7264 -0.1366 -0.4772
  998MOL0     C34661   7.716   7.568   8.223  0.5840  0.2629 -0.4377
  998MOL0     C34662   7.812   7.497   8.306 -0.3330 -0.3156 -0.1679
  998MOL0     H34663   8.084   7.811   7.879 -1.0442 -2.6615  1.6999
  998MOL0     H34664   8.317   7.875   7.867 -0.8415 -2.5180 -0.3596
  998MOL0     H34665   8.511   8.084   8.222  0.0639  2.0296 -2.0129
  998MOL0     H34666   8.553   7.914   8.209 -4.5975 -1.3655 -0.6707
  998MOL0     H34667   8.687   8.154   8.068 -0.3551 -0.6435 -2.5618
  998MOL0     H34668   8.715   7.980   8.018 -0.4631 -0.9689 -0.0962
  998MOL0     H34669   8.788   7.930   8.244 -1.3650 -0.0088 -0.9705
  998MOL0     H34670   8.782   8.085   8.300 -0.5063 -1.7986  0.8391
  998MOL0     H34671   8.952   7.986   8.072 -0.1628  1.1715 -0.7296
  998MOL0     H34672   8.921   8.156   8.102  0.1202 -0.2014  1.3851
  998MOL0     H34673   9.058   7.963   8.298  3.2983 -0.8207 -1.0242
  998MOL0     H34674   9.138   8.062   8.183  0.5334  0.8295  0.5297
  998MOL0     H34675   9.042   8.265   8.291 -1.6954 -1.7116 -3.3358
  998MOL0     H34676   8.965   8.166   8.417 -1.0919 -0.0074 -1.1668
  998MOL0     H34677   9.174   8.059   8.476 -1.6413  0.0660 -0.0043
  998MOL0     H34678   9.164   8.238   8.526 -0.0340  3.9142 -2.3970
  998MOL0     H34679   9.339   8.110   8.317  0.5983 -0.4906  1.3882
  998MOL0     H34680   9.292   8.282   8.311 -4.7945 -0.0629 -0.4171
  998MOL0     H34681   9.393   8.045   8.624  0.9569  0.1502  0.5690
  998MOL0     H34682   9.611   8.028   8.774 -1.1906 -0.3983 -0.4612
  998MOL0     H34683   9.731   8.145   8.736 -1.3127 -0.5400 -2.3323
  998MOL0     H34684   9.487   8.146   8.924  0.8124 -0.9417  2.1238
  998MOL0     H34685   9.640   8.134   8.983 -0.8570 -1.7813 -0.8373
  998MOL0     H34686   9.547   8.351   9.029 -0.6264  0.4667  0.3404
  998MOL0     H34687   9.530   8.388   8.853 -0.5658  0.9467  1.4574
  998MOL0     H34688   9.777   8.385   8.829 -5.2280  1.4351 -1.6976
  998MOL0     H34689   9.781   8.323   9.002 -3.3132 -2.1261  0.8186
  998MOL0     H34690   9.750   8.781   9.033 -0.2282 -0.8585  0.3269
  998MOL0     H34691   9.936   8.905   9.110 -3.9550 -0.0266  3.3839
  998MOL0     H34692  10.299   9.102   8.948  0.6110 -1.8549 -0.5301
  998MOL0     H34693  10.509   9.220   8.940 -1.9248 -1.8255 -1.8855
  998MOL0     H34694  10.769   9.083   8.972  0.0261  0.6382 -1.4222
  998MOL0     H34695  10.756   9.261   8.928 -1.7056  3.9164  3.5029
  998MOL0     H34696  10.963   9.289   9.105  2.3227 -0.6039 -0.3372
  998MOL0     H34697  10.951   9.117   9.121 -1.1841  1.1677 -0.5242
  998MOL0     H34698  10.985   9.109   8.868 -3.1220 -1.6364  2.2269
  998MOL0     H34699  10.997   9.279   8.864  0.8435 -0.8417 -1.4628
  998MOL0     H34700  11.169   9.092   9.024  0.5293 -0.0886 -2.0153
  998MOL0     H34701  11.183   9.265   9.037  1.5437 -1.2376  0.9893
  998MOL0     H34702  11.202   9.272   8.775 -0.8027 -0.5304  0.2982
  998MOL0     H34703  11.259   9.113   8.792  2.0164  1.4774 -1.7064
  998MOL0     H34704  11.376   9.327   8.973  0.6913 -0.0176  1.3345
  998MOL0     H34705  11.411   9.160   8.965 -0.7012 -1.4488 -0.6667
  998MOL0     H34706  11.434   9.338   8.710 -1.8340  2.3773  2.6506
  998MOL0     H34707  11.524   9.191   8.738 -0.1911 -0.3108  1.3042
  998MOL0     H34708  11.634   9.319   8.948  0.0625 -0.4074  0.2764
  998MOL0     H34709  11.700   9.335   8.772  0.4620  1.6756 -0.1340
  998MOL0     H34710  10.616   9.029   9.308  2.8198  2.0319 -1.9159
  998MOL0     H34711  10.389   8.905   9.304  1.2024 -2.7645 -1.6825
  998MOL0     H34712  10.167   8.547   9.110 -0.0090 -0.9441 -2.6691
  998MOL0     H34713   9.987   8.423   9.011 -0.4748  0.1699 -0.8669
  998MOL0     H34714   8.304   7.995   8.281  0.3053 -3.0785  0.1995
  998MOL0     H34715   8.057   7.936   8.279  2.5776 -0.9367  1.4510
  998MOL0     H34716   7.668   7.789   7.972 -2.1956 -1.5354 -1.8480
  998MOL0     H34717   7.423   7.724   8.031 -1.2206 -3.1613  0.9147
  998MOL0     H34718   7.284   7.443   8.066 -1.3916 -0.1626 -1.9504
  998MOL0     H34719   7.272   7.612   8.038 -2.7672  1.8443  1.0953
  998MOL0     H34720   7.107   7.448   8.243 -1.3538  0.4248  0.3634
  998MOL0     H34721   7.053   7.500   8.080  0.6813 -2.0780  0.0064
  998MOL0     H34722   7.103   7.743   8.176 -1.2607 -0.8346 -3.3589
  998MOL0     H34723   7.105   7.662   8.338 -1.3665 -1.1860  0.1486
  998MOL0     H34724   6.886   7.567   8.270  1.6036 -0.2290 -1.1800
  998MOL0     H34725   6.885   7.739   8.307 -0.6804  0.0381  0.9603
  998MOL0     H34726   6.817   7.803   7.906  2.2234  1.2665  1.3508
  998MOL0     H34727   7.556   7.467   8.322  0.1872  0.1594 -0.3514
  998MOL0     H34728   7.755   7.437   8.379 -3.2499  0.2556 -1.8217
  998MOL0     H34729   7.874   7.436   8.241  2.6246  1.6453  0.6462
  998MOL0     H34730   7.870   7.572   8.360 -1.6468  2.2200 -2.1123
  999MOL0     O34731   7.459   2.300   4.231 -0.1385  0.3381  0.5549
  999MOL0     C34732   7.425   2.229   4.136  0.1111  0.2512 -0.4957
  999MOL0     O34733   7.483   2.223   4.011  0.0469  0.5125 -0.5995
  999MOL0     C34734   7.581   2.310   3.975 -0.0959 -0.0192  0.1659
  999MOL0     C34735   7.574   2.380   3.847  0.8104  0.7038 -0.4988
  999MOL0     C34736   7.683   2.450   3.805  0.2951 -0.0040  0.6341
  999MOL0     C34737   7.800   2.459   3.887 -0.3390  0.2467 -0.4892
  999MOL0     O34738   7.901   2.544   3.851  0.3132  0.6692  0.6208
  999MOL0     C34739   7.903   2.587   3.716 -0.3659  0.4631  0.4026
  999MOL0     C34740   8.037   2.664   3.695 -0.4435  0.1362 -0.5125
  999MOL0     C34741   8.160   2.572   3.706 -0.6038 -0.2857  0.1879
  999MOL0     C34742   8.296   2.638   3.645  0.0835 -0.1962  0.3744
  999MOL0     C34743   8.418   2.553   3.631 -0.2750 -0.3511  0.7647
  999MOL0     C34744   8.479   2.510   3.764  0.2110  0.0376 -0.1455
  999MOL0     C34745   8.614   2.444   3.743  0.0015  0.3519 -0.1556
  999MOL0     C34746   8.603   2.296   3.724 -0.2391  0.1998  0.5754
  999MOL0     N34747   8.736   2.226   3.709  0.3583 -0.6326 -0.0207
  999MOL0     C34748   8.823   2.195   3.807 -1.2934 -0.1309  0.5545
  999MOL0     C34749   8.923   2.124   3.744  0.4615  0.0478 -0.2638
  999MOL0     C34750   9.056   2.080   3.812  0.3683  0.2622 -0.0410
  999MOL0     C34751   9.160   2.188   3.818 -1.2148 -0.9132 -0.0725
  999MOL0     C34752   9.126   2.314   3.894 -0.1514  0.5401  0.7979
  999MOL0     C34753   9.249   2.411   3.906  0.3153 -0.0390 -0.6240
  999MOL0     O34754   9.283   2.483   3.792  0.4213  0.6949 -0.2812
  999MOL0     C34755   9.386   2.574   3.785 -0.4152 -0.3514  0.4862
  999MOL0     C34756   9.430   2.633   3.658 -0.0013 -0.2900  0.3684
  999MOL0     C34757   9.537   2.721   3.651  0.5571  0.5051 -0.3525
  999MOL0     C34758   9.596   2.768   3.770 -0.2556  0.2960  0.5392
  999MOL0     C34759   9.712   2.851   3.760 -0.3206  0.3419  0.5194
  999MOL0     O34760   9.802   2.863   3.866 -0.5160  0.3161 -0.0810
  999MOL0     C34761   9.925   2.917   3.838  0.2337 -0.3691  0.7227
  999MOL0     C34762   9.976   2.999   3.943  0.5430 -0.2823 -0.6151
  999MOL0     C34763  10.110   3.054   3.922 -0.0155  0.0142  0.0473
  999MOL0     C34764  10.188   3.031   3.812 -0.6006  0.9621 -0.2501
  999MOL0     O34765  10.320   3.082   3.821 -0.7264 -1.2779 -0.2302
  999MOL0     C34766  10.408   3.112   3.711  0.1473 -0.3567  0.5545
  999MOL0     C34767  10.430   3.269   3.705 -0.3761 -0.0256  0.2946
  999MOL0     C34768  10.508   3.318   3.821 -0.3297 -0.1013  0.5628
  999MOL0     C34769  10.654   3.266   3.811  0.5646 -0.2950  0.8888
  999MOL0     C34770  10.746   3.373   3.861 -0.1193 -0.3591  0.4859
  999MOL0     C34771  10.753   3.364   4.012  1.0253  0.1151  0.0847
  999MOL0     C34772  10.859   3.461   4.070 -0.3695  0.4287 -0.7371
  999MOL0     C34773  11.004   3.432   4.042  0.3068  0.2434  0.4665
  999MOL0    Cl34774  11.113   3.521   4.144  0.1520 -0.3950 -0.2867
  999MOL0     C34775  10.133   2.955   3.711 -0.1507  0.6480 -0.4606
  999MOL0     C34776  10.000   2.904   3.714 -0.3974  0.2500  0.7318
  999MOL0     O34777   9.721   2.920   3.660  0.0225 -0.7741 -0.2213
  999MOL0     C34778   9.546   2.733   3.895 -0.1019 -0.2153 -0.6674
  999MOL0     C34779   9.444   2.634   3.900 -0.6672  0.0967  0.0979
  999MOL0     N34780   8.892   2.106   3.616 -0.5456  0.1184  0.1415
  999MOL0     N34781   8.774   2.153   3.597 -0.3245 -0.2639 -0.3200
  999MOL0     C34782   7.809   2.396   4.010 -0.5156 -0.3702 -0.3456
  999MOL0     C34783   7.698   2.324   4.053  0.2581 -1.1676 -0.7290
  999MOL0     C34784   7.318   2.134   4.177  0.4982  0.1392 -0.5242
  999MOL0     C34785   7.219   2.181   4.264  0.1660  0.0054  0.2439
  999MOL0     C34786   7.118   2.106   4.307  0.0120  0.4145  0.1957
  999MOL0     C34787   7.114   1.969   4.266  1.0190  0.0023  0.9247
  999MOL0     O34788   7.014   1.876   4.303  0.4677  0.4285  0.3107
  999MOL0     C34789   6.923   1.906   4.413 -0.3976 -0.4412 -0.1581
  999MOL0     C34790   6.982   1.905   4.553 -0.8460  0.3474  0.0840
  999MOL0     C34791   6.867   1.903   4.659 -0.1880 -0.5252 -0.9657
  999MOL0     C34792   6.918   1.918   4.800 -0.9588 -0.4274 -0.6727
  999MOL0     C34793   6.988   1.802   4.862  0.4437  0.8857  0.2250
  999MOL0     C34794   7.048   1.697   4.893  0.2185 -0.5917  0.8285
  999MOL0     C34795   7.208   1.915   4.185 -0.5740  0.2934 -0.0035
  999MOL0     C34796   7.319   1.991   4.141  1.1298 -0.4047  0.8435
  999MOL0     C34797   7.426   1.928   4.059 -1.4244  1.3789  0.0752
  999MOL0     H34798   7.484   2.359   3.791  0.8494  1.4894 -0.8816
  999MOL0     H34799   7.659   2.489   3.706 -1.7158 -3.5233 -0.4288
  999MOL0     H34800   7.885   2.505   3.645 -0.6103  0.0569  0.9265
  999MOL0     H34801   7.824   2.662   3.704 -2.8362 -1.5565  2.7533
  999MOL0     H34802   8.039   2.743   3.770 -4.1850  0.0182 -0.0852
  999MOL0     H34803   8.036   2.710   3.595 -1.8274  2.9565  0.6865
  999MOL0     H34804   8.136   2.491   3.637 -1.4098 -0.3537  0.5464
  999MOL0     H34805   8.186   2.545   3.808  0.6569  1.5814  0.4185
  999MOL0     H34806   8.282   2.683   3.546  1.5719  1.5712  0.9052
  999MOL0     H34807   8.318   2.723   3.710  0.1512 -0.3316  0.5286
  999MOL0     H34808   8.382   2.465   3.577 -3.0140  0.3491  1.3290
  999MOL0     H34809   8.486   2.613   3.569 -2.8350  0.9008 -0.9770
  999MOL0     H34810   8.500   2.602   3.819 -0.1672 -0.7828  1.4246
  999MOL0     H34811   8.418   2.448   3.831 -0.1455  1.6549  1.0940
  999MOL0     H34812   8.678   2.471   3.828  2.0143  2.4770 -2.2051
  999MOL0     H34813   8.668   2.476   3.653 -2.1998  0.8667 -1.3739
  999MOL0     H34814   8.542   2.259   3.806 -0.7383 -1.5827 -0.5582
  999MOL0     H34815   8.546   2.276   3.633 -0.3263 -2.3045  1.1235
  999MOL0     H34816   8.833   2.236   3.907 -2.1915  1.6711 -0.0667
  999MOL0     H34817   9.044   2.041   3.914  2.5411 -0.8682 -0.1591
  999MOL0     H34818   9.101   1.997   3.756 -0.7035  1.2149 -2.4107
  999MOL0     H34819   9.250   2.152   3.869 -1.0432  0.4721  0.6484
  999MOL0     H34820   9.195   2.215   3.718 -0.2719 -0.1490  0.4416
  999MOL0     H34821   9.100   2.282   3.996 -0.8127 -0.1558  0.4228
  999MOL0     H34822   9.043   2.371   3.851  0.0485  0.6343  0.5407
  999MOL0     H34823   9.339   2.354   3.930 -0.0609 -1.3390 -2.1236
  999MOL0     H34824   9.226   2.482   3.987  1.4742  0.2068 -0.4932
  999MOL0     H34825   9.398   2.599   3.560 -1.6679 -1.0205  1.1360
  999MOL0     H34826   9.570   2.746   3.551 -1.2925  0.5844 -0.9964
  999MOL0     H34827   9.906   3.028   4.020 -0.0857 -4.4003  0.6075
  999MOL0     H34828  10.151   3.129   3.989  1.4494  0.3143 -1.1340
  999MOL0     H34829  10.501   3.055   3.716 -0.5833 -1.5500  1.0938
  999MOL0     H34830  10.361   3.087   3.615  0.6066  0.4956  0.1073
  999MOL0     H34831  10.478   3.293   3.610 -1.5907  2.3344  0.1776
  999MOL0     H34832  10.333   3.321   3.706 -0.5006 -0.2366 -0.5058
  999MOL0     H34833  10.513   3.427   3.818  1.1313 -0.0936  1.9333
  999MOL0     H34834  10.467   3.276   3.913 -1.8051 -0.0296 -0.0476
  999MOL0     H34835  10.680   3.231   3.711 -0.2716  1.5330 -0.0055
  999MOL0     H34836  10.661   3.172   3.868 -2.1919 -0.8843  0.4373
  999MOL0     H34837  10.720   3.471   3.820  1.8175 -0.5850 -1.4970
  999MOL0     H34838  10.847   3.348   3.828  1.2611  3.0377  1.6100
  999MOL0     H34839  10.658   3.396   4.055  1.4072  1.6616 -0.1407
  999MOL0     H34840  10.776   3.259   4.033  1.2182 -0.0077 -0.6868
  999MOL0     H34841  10.846   3.459   4.179  0.2833  1.9881 -0.5952
  999MOL0     H34842  10.834   3.567   4.057  2.3728  1.2768  0.3388
  999MOL0     H34843  11.019   3.326   4.064 -0.3056 -0.1788 -1.0224
  999MOL0     H34844  11.031   3.441   3.936 -1.1146 -2.4540 -0.1978
  999MOL0     H34845  10.182   2.928   3.617 -2.9321 -1.3367 -1.4678
  999MOL0     H34846   9.955   2.842   3.637  2.1930  2.5133 -2.9571
  999MOL0     H34847   9.580   2.774   3.990  0.3413 -1.7919 -0.1160
  999MOL0     H34848   9.402   2.610   3.997  1.7072 -2.4640  0.6178
  999MOL0     H34849   7.896   2.407   4.074 -2.3655 -1.9380  2.7090
  999MOL0     H34850   7.692   2.279   4.152 -2.9613 -1.5599 -0.9954
  999MOL0     H34851   7.207   2.286   4.289  1.6597  1.0332 -2.8744
  999MOL0     H34852   7.039   2.148   4.368 -1.2393 -0.4299 -0.7810
  999MOL0     H34853   6.848   1.827   4.406 -1.6059  0.6824 -0.0719
  999MOL0     H34854   6.866   1.997   4.397  0.1092 -0.6148 -4.0321
  999MOL0     H34855   7.043   1.992   4.575  1.0416 -0.5350 -1.3082
  999MOL0     H34856   7.047   1.818   4.565  2.0758  2.2044 -1.1997
  999MOL0     H34857   6.803   1.813   4.655 -0.6644 -0.1577 -2.1500
  999MOL0     H34858   6.800   1.987   4.639 -0.7711 -0.6098  0.5087
  999MOL0     H34859   6.988   2.002   4.799  0.3205 -1.2754  2.6707
  999MOL0     H34860   6.834   1.940   4.866 -0.1213  0.4861  0.1223
  999MOL0     H34861   7.089   1.611   4.940 -0.1707 -1.3763 -0.2178
  999MOL0     H34862   7.194   1.814   4.149 -1.0191  0.3270  0.0681
  999MOL0     H34863   7.522   1.966   4.094 -2.1220  1.7972  1.6200
  999MOL0     H34864   7.426   1.819   4.070 -0.3442  1.3362 -0.2035
  999MOL0     H34865   7.401   1.947   3.954 -1.7805 -0.2567 -0.1728
 1000MOL0     O34866   9.251   9.319   5.944 -0.2314 -0.1859 -0.3471
 1000MOL0     C34867   9.254   9.293   6.068  1.4105 -0.3829 -0.6540
 1000MOL0     O34868   9.355   9.331   6.154 -0.2297 -0.2695  0.2051
 1000MOL0     C34869   9.472   9.367   6.094  1.3476  0.0284  0.2364
 1000MOL0     C34870   9.525   9.491   6.121 -0.3225 -1.0957  1.4794
 1000MOL0     C34871   9.634   9.536   6.040  0.0132  0.0835  0.9789
 1000MOL0     C34872   9.679   9.462   5.921 -0.8156  0.6157 -0.0344
 1000MOL0     O34873   9.772   9.502   5.824 -0.0126  0.3364 -0.3097
 1000MOL0     C34874   9.865   9.608   5.850  0.5977  0.1856 -0.6840
 1000MOL0     C34875   9.986   9.614   5.762  0.7328  0.9056 -0.0070
 1000MOL0     C34876  10.078   9.493   5.783  0.0736  0.4397  0.5391
 1000MOL0     C34877  10.206   9.489   5.697  0.0079 -0.9814  0.3472
 1000MOL0     C34878  10.295   9.372   5.726  0.3195 -0.1309 -1.0950
 1000MOL0     C34879  10.356   9.366   5.868  0.3726 -0.1037  0.1980
 1000MOL0     C34880  10.479   9.275   5.871 -0.6456 -0.5718 -0.2932
 1000MOL0     C34881  10.470   9.155   5.772  0.7867  0.1667 -0.2526
 1000MOL0     N34882  10.600   9.083   5.770 -0.0603  0.0404 -0.6295
 1000MOL0     C34883  10.692   9.080   5.667 -0.8602 -0.5332 -0.0526
 1000MOL0     C34884  10.788   8.990   5.705 -0.0629  0.2995 -0.9039
 1000MOL0     C34885  10.903   8.953   5.621  1.4461  0.5306 -0.0890
 1000MOL0     C34886  11.043   9.000   5.663  0.2471  0.3263 -0.1634
 1000MOL0     C34887  11.046   9.151   5.634  0.6642 -0.3238 -0.3239
 1000MOL0     C34888  11.187   9.210   5.627  0.3209 -0.2905 -0.1990
 1000MOL0     O34889  11.252   9.150   5.520 -0.0258 -0.0296  0.4973
 1000MOL0     C34890  11.385   9.133   5.524 -0.0339 -0.4922 -0.6560
 1000MOL0     C34891  11.471   9.230   5.467 -0.6003 -0.6088 -0.3081
 1000MOL0     C34892  11.611   9.229   5.485  0.5257 -0.4962 -0.5850
 1000MOL0     C34893  11.670   9.128   5.551  0.1951  0.2216  0.0588
 1000MOL0     C34894  11.818   9.126   5.578 -0.2502  0.2223 -0.4699
 1000MOL0     O34895  11.885   9.243   5.570 -0.0203 -0.1441 -0.6403
 1000MOL0     C34896  12.018   9.237   5.584  0.2737 -0.8675  0.0297
 1000MOL0     C34897  12.083   9.228   5.702  0.5035  0.2433 -0.4126
 1000MOL0     C34898  12.219   9.211   5.721 -0.8174 -0.5917 -0.5019
 1000MOL0     C34899  12.298   9.189   5.612 -0.0996  0.3231  0.4156
 1000MOL0     O34900  12.433   9.181   5.607  0.3564 -0.2505 -0.3032
 1000MOL0     C34901  12.523   9.223   5.716 -0.7322  0.7020 -0.9085
 1000MOL0     C34902  12.667   9.202   5.668  0.2725 -0.1852 -0.4217
 1000MOL0     C34903  12.687   9.294   5.543 -0.3405 -0.2182 -0.5177
 1000MOL0     C34904  12.833   9.335   5.519  0.3019 -0.2605 -0.2490
 1000MOL0     C34905  12.910   9.226   5.450  0.3251  0.5838 -0.2603
 1000MOL0     C34906  13.057   9.265   5.453 -0.0710  0.0955 -0.7416
 1000MOL0     C34907  13.151   9.166   5.384 -0.2082  0.1651 -0.1267
 1000MOL0     C34908  13.293   9.217   5.373  0.1961 -0.4503 -0.7104
 1000MOL0    Cl34909  13.391   9.066   5.365  0.2263  0.3003  0.9437
 1000MOL0     C34910  12.238   9.195   5.484  0.1471  0.1536 -1.0396
 1000MOL0     C34911  12.103   9.226   5.471 -0.1543 -0.4560  0.1735
 1000MOL0     O34912  11.874   9.017   5.609  0.5639  0.0467 -1.1682
 1000MOL0     C34913  11.586   9.018   5.589  0.2905  0.3706 -0.2295
 1000MOL0     C34914  11.447   9.021   5.584 -0.5362  0.3314 -1.0054
 1000MOL0     N34915  10.761   8.944   5.837 -0.3097 -0.3214  0.3463
 1000MOL0     N34916  10.642   8.997   5.874  0.6426  0.2121  0.4104
 1000MOL0     C34917   9.619   9.340   5.900 -0.0658  0.0157  0.0312
 1000MOL0     C34918   9.519   9.297   5.979 -0.2741  0.1244  0.7529
 1000MOL0     C34919   9.132   9.234   6.131  0.7287  0.6448 -0.8551
 1000MOL0     C34920   9.046   9.152   6.053 -0.5548  0.1044 -0.0810
 1000MOL0     C34921   8.937   9.082   6.104  0.3058 -0.6843  0.1252
 1000MOL0     C34922   8.910   9.102   6.235  0.2839  0.1081  0.0702
 1000MOL0     O34923   8.809   9.027   6.284 -0.6507 -0.3921  0.1822
 1000MOL0     C34924   8.698   9.105   6.321  0.2402 -0.0214  0.2136
 1000MOL0     C34925   8.612   9.143   6.196  0.7384  0.5866  0.2990
 1000MOL0     C34926   8.539   9.016   6.143 -0.1882 -0.5993  0.1480
 1000MOL0     C34927   8.626   8.918   6.063 -0.0180 -0.1635 -0.0980
 1000MOL0     C34928   8.653   8.964   5.926  0.5524 -0.4580  0.0599
 1000MOL0     C34929   8.646   9.003   5.810 -0.5592  0.1719  0.3987
 1000MOL0     C34930   8.986   9.185   6.323 -0.5990 -0.6895 -0.2634
 1000MOL0     C34931   9.097   9.252   6.271 -0.1869  0.5189 -0.4872
 1000MOL0     C34932   9.175   9.334   6.366  0.3965 -0.4345  0.0053
 1000MOL0     H34933   9.487   9.542   6.208 -1.1735  2.0572 -0.5603
 1000MOL0     H34934   9.684   9.628   6.069 -2.9242  2.0889  0.2101
 1000MOL0     H34935   9.802   9.695   5.833  0.4613 -0.1549 -2.0316
 1000MOL0     H34936   9.889   9.602   5.957 -1.7284 -1.6401 -0.1798
 1000MOL0     H34937  10.040   9.709   5.770  0.1995  1.2075  0.0642
 1000MOL0     H34938   9.955   9.612   5.657  1.5738  2.6317 -0.3313
 1000MOL0     H34939  10.017   9.403   5.771 -1.4287  1.5846 -0.8608
 1000MOL0     H34940  10.116   9.497   5.886 -0.0911  0.6025  0.5938
 1000MOL0     H34941  10.174   9.480   5.593 -0.0184  3.0153 -0.1685
 1000MOL0     H34942  10.263   9.582   5.713 -0.7949 -0.2906 -0.6885
 1000MOL0     H34943  10.232   9.282   5.718 -1.3858  1.0948 -1.8793
 1000MOL0     H34944  10.376   9.370   5.653  0.1533  0.9131 -1.3224
 1000MOL0     H34945  10.379   9.470   5.892  0.4157  0.3572 -1.6716
 1000MOL0     H34946  10.284   9.325   5.940  0.9065 -0.8651  0.3088
 1000MOL0     H34947  10.487   9.223   5.967 -0.2095  1.8715  1.0809
 1000MOL0     H34948  10.573   9.330   5.859 -0.1492 -1.2989  0.1603
 1000MOL0     H34949  10.396   9.083   5.808  2.1628  0.3016  3.3444
 1000MOL0     H34950  10.453   9.184   5.668 -1.0585  2.7971  0.6801
 1000MOL0     H34951  10.685   9.144   5.579 -2.2551 -0.1308  0.3136
 1000MOL0     H34952  10.898   8.844   5.631  2.4636  0.4904  0.1188
 1000MOL0     H34953  10.882   8.983   5.518 -3.8648 -0.9288  0.2840
 1000MOL0     H34954  11.068   8.983   5.769 -1.7311  1.6303  0.5738
 1000MOL0     H34955  11.112   8.949   5.596 -3.1070 -3.0613 -1.4288
 1000MOL0     H34956  10.982   9.208   5.701 -1.0267  0.3174 -2.3584
 1000MOL0     H34957  11.004   9.181   5.537  1.5467 -0.6324 -0.8205
 1000MOL0     H34958  11.241   9.198   5.721 -1.2075 -0.8744  0.6451
 1000MOL0     H34959  11.159   9.315   5.619 -5.5948 -1.4248  1.1440
 1000MOL0     H34960  11.416   9.312   5.422 -1.8077 -1.4549 -0.4217
 1000MOL0     H34961  11.666   9.314   5.445 -0.0211 -0.0549 -0.4001
 1000MOL0     H34962  12.017   9.227   5.787 -0.7717 -1.5447 -1.3558
 1000MOL0     H34963  12.252   9.217   5.824 -4.7094 -1.0532  0.9339
 1000MOL0     H34964  12.506   9.329   5.736 -3.2287  0.8228 -3.1383
 1000MOL0     H34965  12.503   9.162   5.805 -0.7863 -0.4371 -1.6719
 1000MOL0     H34966  12.724   9.228   5.758  0.1294  0.1913 -0.4408
 1000MOL0     H34967  12.674   9.096   5.642 -0.1867 -0.0840 -0.9739
 1000MOL0     H34968  12.638   9.247   5.457  0.3647 -0.6649 -0.6854
 1000MOL0     H34969  12.633   9.388   5.551 -0.4201 -0.2440 -0.7601
 1000MOL0     H34970  12.884   9.362   5.612 -1.0931 -3.8725  1.7629
 1000MOL0     H34971  12.825   9.420   5.450 -0.2649 -1.9392 -2.3516
 1000MOL0     H34972  12.852   9.211   5.358 -0.5269 -2.4964  0.6818
 1000MOL0     H34973  12.904   9.129   5.500  0.7330  0.8203  0.2534
 1000MOL0     H34974  13.045   9.358   5.397 -0.2269 -1.0206 -2.6658
 1000MOL0     H34975  13.099   9.265   5.554 -1.1938 -3.5997 -0.1271
 1000MOL0     H34976  13.116   9.123   5.290  0.2226  2.6951 -1.5191
 1000MOL0     H34977  13.153   9.090   5.463  0.1909 -2.0754 -2.1541
 1000MOL0     H34978  13.328   9.278   5.289  0.3258  1.5593  0.7349
 1000MOL0     H34979  13.321   9.274   5.462  1.0736  0.9856 -1.8636
 1000MOL0     H34980  12.288   9.168   5.391 -1.2723 -0.7665 -1.5726
 1000MOL0     H34981  12.060   9.225   5.372 -1.3991  3.5606  0.4884
 1000MOL0     H34982  11.631   8.928   5.630  1.2388 -1.0067 -3.8626
 1000MOL0     H34983  11.383   8.942   5.623  0.2042  1.7576  3.6766
 1000MOL0     H34984   9.653   9.268   5.825  1.3903 -2.5204  2.9269
 1000MOL0     H34985   9.477   9.201   5.948  3.9329 -1.9991  0.7872
 1000MOL0     H34986   9.069   9.154   5.947  1.3115  0.5126  0.2892
 1000MOL0     H34987   8.887   9.013   6.037  3.2354 -1.7847 -1.1066
 1000MOL0     H34988   8.739   9.192   6.372 -3.1093  2.3500 -0.7923
 1000MOL0     H34989   8.638   9.048   6.393  0.5806 -3.2901 -1.8938
 1000MOL0     H34990   8.678   9.183   6.119 -0.1954 -0.7885 -1.2860
 1000MOL0     H34991   8.538   9.212   6.238  1.9105  0.6093  2.4782
 1000MOL0     H34992   8.449   9.050   6.091  0.8271  1.5803 -0.2739
 1000MOL0     H34993   8.501   8.961   6.229 -0.2401  0.7572  1.0210
 1000MOL0     H34994   8.716   8.880   6.112 -0.6773 -0.7997  0.6412
 1000MOL0     H34995   8.571   8.824   6.053  1.0012 -0.9457  1.2733
 1000MOL0     H34996   8.625   9.032   5.709 -1.1509 -0.4793  0.3280
 1000MOL0     H34997   8.950   9.190   6.425 -1.6507  2.6997 -0.6859
 1000MOL0     H34998   9.180   9.434   6.322 -0.1998 -0.9365 -1.2555
 1000MOL0     H34999   9.142   9.339   6.470  1.8545 -1.4348  0.5636
 1000MOL0     H35000   9.274   9.293   6.387  0.4525  1.1641  3.6215
 1001MOL0     O35001   6.905  10.627   3.133  0.4305  0.1307  0.5216
 1001MOL0     C35002   6.876  10.508   3.158 -0.4235  0.3688 -0.0196
 1001MOL0     O35003   6.962  10.416   3.213  0.5344  0.2040  0.1651
 1001MOL0     C35004   7.094  10.426   3.198  0.2069 -0.6373  0.2619
 1001MOL0     C35005   7.178  10.376   3.299 -0.2698  1.2781 -0.5725
 1001MOL0     C35006   7.314  10.370   3.276  0.5073  0.3790  0.6393
 1001MOL0     C35007   7.369  10.425   3.160 -0.9765  0.1740  0.4906
 1001MOL0     O35008   7.506  10.420   3.149  0.2681  0.4417 -0.0922
 1001MOL0     C35009   7.583  10.508   3.059  0.1156  0.7550 -0.2634
 1001MOL0     C35010   7.734  10.490   3.090  0.4837  0.3126  0.1760
 1001MOL0     C35011   7.818  10.563   2.987  0.4729  0.8404 -0.3372
 1001MOL0     C35012   7.955  10.506   3.007  0.3082 -0.0707  1.0140
 1001MOL0     C35013   8.054  10.617   2.978  0.0482  0.8094  0.5901
 1001MOL0     C35014   8.190  10.544   2.994 -0.0599  0.4735  0.7379
 1001MOL0     C35015   8.300  10.649   2.968 -0.8712  0.4319 -0.5203
 1001MOL0     C35016   8.436  10.584   2.985  0.5135 -0.0724 -0.4465
 1001MOL0     N35017   8.451  10.509   3.107 -0.4034  0.7977 -0.1622
 1001MOL0     C35018   8.459  10.568   3.222 -0.4472  0.2016  0.0462
 1001MOL0     C35019   8.508  10.475   3.301  0.3451 -0.0440  0.5368
 1001MOL0     C35020   8.499  10.480   3.452 -0.7529 -0.0237 -0.2455
 1001MOL0     C35021   8.600  10.565   3.517  1.0832  0.4370 -0.1713
 1001MOL0     C35022   8.738  10.510   3.484  0.1203  0.2552 -0.2276
 1001MOL0     C35023   8.847  10.572   3.563 -0.4603  0.4711 -1.4631
 1001MOL0     O35024   8.895  10.697   3.514 -0.2362  0.1043 -0.2629
 1001MOL0     C35025   9.027  10.718   3.546  0.4257  0.3178 -0.8251
 1001MOL0     C35026   9.105  10.785   3.455  0.7965 -0.0322  0.2247
 1001MOL0     C35027   9.240  10.811   3.478  0.2760  0.3748 -0.0003
 1001MOL0     C35028   9.296  10.750   3.593  0.0499 -0.2315 -0.6080
 1001MOL0     C35029   9.445  10.770   3.622  0.0476 -0.0347 -0.4287
 1001MOL0     O35030   9.477  10.736   3.752 -0.0052  0.0729  0.0376
 1001MOL0     C35031   9.607  10.746   3.790 -0.4048 -1.0935 -0.1396
 1001MOL0     C35032   9.726  10.725   3.716  0.0381 -0.3976  0.1895
 1001MOL0     C35033   9.857  10.755   3.771  0.1149  0.0178 -0.2415
 1001MOL0     C35034   9.865  10.794   3.901 -0.6637  0.4675 -0.3757
 1001MOL0     O35035   9.996  10.809   3.949 -0.0430 -0.2793 -0.0913
 1001MOL0     C35036  10.010  10.893   4.062 -1.2852  0.6094  0.0567
 1001MOL0     C35037  10.153  10.944   4.075 -0.5933  0.4480 -0.3633
 1001MOL0     C35038  10.249  10.826   4.102  0.2357  0.5829 -0.4507
 1001MOL0     C35039  10.391  10.868   4.144 -0.5563 -0.1468  0.1951
 1001MOL0     C35040  10.489  10.751   4.142  0.1045  0.1006 -0.2843
 1001MOL0     C35041  10.489  10.657   4.265 -0.0389 -0.6068  0.9184
 1001MOL0     C35042  10.409  10.534   4.230 -0.2733 -0.6865 -0.4613
 1001MOL0     C35043  10.386  10.444   4.353  0.7631  0.5769  0.2396
 1001MOL0    Cl35044  10.536  10.356   4.391  0.3554  0.0279 -0.0923
 1001MOL0     C35045   9.758  10.787   3.987  0.1687  0.2694  0.2387
 1001MOL0     C35046   9.628  10.779   3.929 -0.9113 -0.2355  0.9558
 1001MOL0     O35047   9.520  10.819   3.536 -0.4926  0.2900  0.4298
 1001MOL0     C35048   9.216  10.690   3.689  0.9633  0.1027 -0.2210
 1001MOL0     C35049   9.082  10.682   3.674  0.4835 -0.0893 -0.3544
 1001MOL0     N35050   8.526  10.359   3.230 -0.0647 -0.9809  0.5823
 1001MOL0     N35051   8.508  10.383   3.108  0.0021 -0.2901 -0.5950
 1001MOL0     C35052   7.291  10.479   3.055  0.2203 -0.0855 -0.3716
 1001MOL0     C35053   7.150  10.471   3.076 -0.6373 -0.0587 -0.1530
 1001MOL0     C35054   6.732  10.462   3.151  0.6503 -0.8790 -0.0911
 1001MOL0     C35055   6.708  10.334   3.206  0.5969 -0.1239  0.1213
 1001MOL0     C35056   6.579  10.283   3.188 -0.1565  0.0528 -0.1207
 1001MOL0     C35057   6.474  10.352   3.132  0.4079 -0.6973 -0.2646
 1001MOL0     O35058   6.350  10.295   3.130 -1.0093 -1.0728  0.3168
 1001MOL0     C35059   6.228  10.380   3.127  0.0133 -0.3498 -0.0167
 1001MOL0     C35060   6.105  10.297   3.181 -0.4611  0.1185 -0.9161
 1001MOL0     C35061   5.969  10.369   3.170 -0.0394 -0.9466 -0.3583
 1001MOL0     C35062   5.908  10.363   3.031 -0.3736  0.4993  0.2096
 1001MOL0     C35063   5.809  10.260   3.027 -0.0802 -0.4094 -0.0407
 1001MOL0     C35064   5.733  10.169   3.017  0.1967  0.5523 -0.6235
 1001MOL0     C35065   6.504  10.482   3.082  0.6102  0.2292  0.4499
 1001MOL0     C35066   6.628  10.549   3.093  0.0072 -0.2399  0.4562
 1001MOL0     C35067   6.626  10.689   3.054 -0.3165  0.7298 -0.0423
 1001MOL0     H35068   7.144  10.344   3.396  3.3207 -2.6596 -0.3417
 1001MOL0     H35069   7.375  10.326   3.355  0.4703 -0.3929  0.2426
 1001MOL0     H35070   7.556  10.477   2.957  0.2568 -3.0706  0.7295
 1001MOL0     H35071   7.546  10.606   3.092  0.7410  0.5570  1.0830
 1001MOL0     H35072   7.758  10.384   3.086  0.5531  0.3440 -0.2811
 1001MOL0     H35073   7.757  10.527   3.191  2.0934  0.1145 -0.0984
 1001MOL0     H35074   7.810  10.668   3.017  0.2956  1.2722 -1.8169
 1001MOL0     H35075   7.775  10.538   2.890 -2.4507 -1.8527  1.4703
 1001MOL0     H35076   7.959  10.473   3.111 -1.8516  1.5460  1.6979
 1001MOL0     H35077   7.964  10.428   2.932 -0.7991  1.8846 -1.2954
 1001MOL0     H35078   8.050  10.665   2.880  0.1116  1.7389  1.0217
 1001MOL0     H35079   8.038  10.693   3.056  2.0765  0.3790  1.4958
 1001MOL0     H35080   8.203  10.496   3.092  3.4452 -1.9116 -0.6767
 1001MOL0     H35081   8.191  10.471   2.912 -1.8399 -0.6518  1.6551
 1001MOL0     H35082   8.292  10.744   3.022 -0.2359  1.8885 -2.8389
 1001MOL0     H35083   8.297  10.686   2.865 -1.3918  0.9481 -0.3238
 1001MOL0     H35084   8.448  10.519   2.897 -2.0131 -0.5591 -0.5262
 1001MOL0     H35085   8.516  10.658   2.975  2.6882 -2.2197  0.1384
 1001MOL0     H35086   8.427  10.668   3.248  1.3141  1.1911 -1.3452
 1001MOL0     H35087   8.399  10.510   3.484 -0.7628  2.0452 -1.9685
 1001MOL0     H35088   8.521  10.378   3.485  1.6045  0.8948  1.2939
 1001MOL0     H35089   8.597  10.669   3.481  1.5529 -0.3470 -2.6807
 1001MOL0     H35090   8.572  10.560   3.622 -1.3911 -2.2978 -0.8309
 1001MOL0     H35091   8.759  10.530   3.379  1.5325  0.0664 -0.0059
 1001MOL0     H35092   8.756  10.404   3.508  2.0545  0.5226 -0.3145
 1001MOL0     H35093   8.925  10.495   3.567 -1.1861 -0.2215  1.2126
 1001MOL0     H35094   8.820  10.584   3.668  0.2252 -1.1950 -1.0775
 1001MOL0     H35095   9.059  10.813   3.360 -2.1069 -2.1115  0.8614
 1001MOL0     H35096   9.302  10.865   3.407  1.8919 -1.1144  0.2012
 1001MOL0     H35097   9.714  10.690   3.613  0.2777 -1.7641  0.6050
 1001MOL0     H35098   9.943  10.745   3.705  1.1084  4.6863 -0.0292
 1001MOL0     H35099   9.947  10.980   4.043 -1.0310  0.8892  0.4793
 1001MOL0     H35100   9.975  10.853   4.158 -1.9850 -0.0677 -0.4645
 1001MOL0     H35101  10.191  10.984   3.981  1.8555 -0.2680  0.2421
 1001MOL0     H35102  10.161  11.020   4.153  0.3869  0.9973 -0.9722
 1001MOL0     H35103  10.211  10.772   4.190  1.7945 -2.6311 -1.5901
 1001MOL0     H35104  10.259  10.772   4.008  2.0516 -1.2326  0.6932
 1001MOL0     H35105  10.391  10.917   4.242  0.6470  1.0770 -0.3778
 1001MOL0     H35106  10.429  10.940   4.071  1.5918 -1.6429 -0.2628
 1001MOL0     H35107  10.591  10.791   4.141 -0.3372  1.3554 -2.8332
 1001MOL0     H35108  10.479  10.692   4.051 -3.7445  2.0344 -1.3356
 1001MOL0     H35109  10.592  10.634   4.294  1.1270  0.0474 -2.2091
 1001MOL0     H35110  10.435  10.715   4.340 -2.3904  1.5377 -2.1381
 1001MOL0     H35111  10.465  10.479   4.154  0.8719  0.0884 -0.2015
 1001MOL0     H35112  10.316  10.565   4.182 -0.7310  0.6511  1.1964
 1001MOL0     H35113  10.349  10.492   4.444  1.3139 -0.2136  0.8985
 1001MOL0     H35114  10.313  10.369   4.320  2.6221 -0.8586 -0.7787
 1001MOL0     H35115   9.772  10.809   4.093  0.7414  1.1141 -0.0049
 1001MOL0     H35116   9.536  10.774   3.986 -0.8640 -3.1334  0.9238
 1001MOL0     H35117   9.263  10.654   3.780 -0.6737 -0.7947  0.3129
 1001MOL0     H35118   9.021  10.639   3.753 -3.4528 -1.1521 -3.6107
 1001MOL0     H35119   7.338  10.514   2.964 -0.1951 -1.0047 -0.9493
 1001MOL0     H35120   7.085  10.511   2.999  1.9127  1.2765 -1.7344
 1001MOL0     H35121   6.787  10.280   3.257  2.9569  1.9337 -1.1433
 1001MOL0     H35122   6.551  10.188   3.230  0.1261  0.6495  1.5118
 1001MOL0     H35123   6.205  10.398   3.021  0.6626 -0.4969 -0.1884
 1001MOL0     H35124   6.241  10.478   3.173  0.6835 -0.8379  0.8693
 1001MOL0     H35125   6.132  10.280   3.285 -0.0056 -3.1216 -1.4540
 1001MOL0     H35126   6.104  10.198   3.132  1.0425 -0.1388 -0.4672
 1001MOL0     H35127   5.988  10.474   3.193  1.0140 -1.2070  0.0196
 1001MOL0     H35128   5.899  10.327   3.244  0.7383 -1.6294  0.0078
 1001MOL0     H35129   5.867  10.462   3.009 -2.6328 -0.0944  1.4492
 1001MOL0     H35130   5.978  10.335   2.952  0.7212 -0.6294  1.5320
 1001MOL0     H35131   5.655  10.096   3.009 -0.9618  0.7127  4.8468
 1001MOL0     H35132   6.426  10.541   3.035  0.6939  0.2919  0.3894
 1001MOL0     H35133   6.678  10.713   2.960  3.4430  0.5523  1.8144
 1001MOL0     H35134   6.524  10.730   3.053 -0.6533  0.0142 -2.3211
 1001MOL0     H35135   6.677  10.743   3.134 -2.0675  4.0212 -0.9493
 1002MOL0     O35136   6.681  11.283   7.939 -0.2049  0.2790  0.4119
 1002MOL0     C35137   6.589  11.290   7.864  0.2622  0.0963 -0.3713
 1002MOL0     O35138   6.583  11.244   7.742 -0.7119 -0.2126  0.0362
 1002MOL0     C35139   6.694  11.184   7.683 -1.1313  0.7798 -0.2904
 1002MOL0     C35140   6.734  11.053   7.725 -0.7320 -0.2496  0.5071
 1002MOL0     C35141   6.839  10.989   7.663 -0.5899  0.3742  0.5373
 1002MOL0     C35142   6.907  11.049   7.557 -0.5359 -1.0535 -0.0162
 1002MOL0     O35143   7.008  10.974   7.505 -0.2654  0.2573  0.5898
 1002MOL0     C35144   7.026  10.997   7.362 -0.3193 -0.5325 -1.1712
 1002MOL0     C35145   7.093  10.879   7.294 -0.0839  0.2596 -0.3787
 1002MOL0     C35146   7.206  10.833   7.392  0.1301  0.1557 -0.6324
 1002MOL0     C35147   7.164  10.703   7.470 -0.7820 -0.4821 -0.5073
 1002MOL0     C35148   7.267  10.666   7.575  0.0857 -1.3640 -0.4940
 1002MOL0     C35149   7.412  10.644   7.510  0.4632  0.0009 -0.2404
 1002MOL0     C35150   7.518  10.571   7.593 -0.2943  0.0382  0.0857
 1002MOL0     C35151   7.585  10.672   7.693  0.8215 -0.3129 -0.8165
 1002MOL0     N35152   7.677  10.765   7.622 -0.8391 -0.1885  0.4088
 1002MOL0     C35153   7.796  10.721   7.581  0.7490  0.0423 -0.0178
 1002MOL0     C35154   7.843  10.824   7.509 -0.6673 -0.4834 -0.4208
 1002MOL0     C35155   7.976  10.836   7.449  0.1898 -0.7547 -0.3551
 1002MOL0     C35156   8.017  10.707   7.377  0.0542  0.1593  0.1647
 1002MOL0     C35157   7.902  10.670   7.282 -0.0776 -0.4955  1.3637
 1002MOL0     C35158   7.929  10.527   7.221 -0.4616  0.2868 -0.3349
 1002MOL0     O35159   7.890  10.422   7.306  0.0007 -0.1515 -0.6793
 1002MOL0     C35160   7.769  10.362   7.293  0.6095 -0.2701 -0.4442
 1002MOL0     C35161   7.754  10.224   7.319 -0.0632  0.6321 -0.7176
 1002MOL0     C35162   7.627  10.163   7.322 -0.7443  0.0015 -0.1542
 1002MOL0     C35163   7.508  10.237   7.290  1.0324  0.6526 -0.2387
 1002MOL0     C35164   7.379  10.168   7.276  0.5351 -0.4163  0.2844
 1002MOL0     O35165   7.274  10.255   7.260  0.6332  0.0623 -0.4444
 1002MOL0     C35166   7.147  10.207   7.272 -0.3616 -0.4326  0.1144
 1002MOL0     C35167   7.103  10.144   7.388  0.0537  0.1026  0.3085
 1002MOL0     C35168   6.981  10.085   7.398  0.4457  0.2145  0.6272
 1002MOL0     C35169   6.891  10.089   7.288 -1.0281  1.1721  0.6179
 1002MOL0     O35170   6.757  10.036   7.302  0.3967 -0.3002  0.4053
 1002MOL0     C35171   6.654  10.103   7.228  0.8570  0.1593  0.0701
 1002MOL0     C35172   6.520  10.116   7.311 -0.5405  0.7969  0.4485
 1002MOL0     C35173   6.428  10.194   7.221  0.0923 -0.3120  0.3303
 1002MOL0     C35174   6.287  10.158   7.261 -0.2451  0.2213  0.5132
 1002MOL0     C35175   6.184  10.240   7.195  1.0201 -0.0744  0.7400
 1002MOL0     C35176   6.180  10.389   7.228  0.0641  0.3402  0.7385
 1002MOL0     C35177   6.041  10.452   7.255  0.2436  0.7417 -0.3772
 1002MOL0     C35178   6.046  10.606   7.265 -0.4801  0.7662  0.7999
 1002MOL0    Cl35179   6.130  10.660   7.412 -0.1799 -0.1596  0.0409
 1002MOL0     C35180   6.925  10.160   7.173  0.1035 -0.4412  0.5394
 1002MOL0     C35181   7.052  10.225   7.164 -0.6289 -0.1009 -0.7157
 1002MOL0     O35182   7.364  10.044   7.280 -1.0765  1.1642  0.0308
 1002MOL0     C35183   7.520  10.369   7.255 -0.4974  0.5684  0.6564
 1002MOL0     C35184   7.643  10.433   7.275 -1.0613  0.4309  1.1811
 1002MOL0     N35185   7.753  10.927   7.508 -0.4644 -0.2543  0.1650
 1002MOL0     N35186   7.650  10.885   7.578  0.3883  0.5714  0.2009
 1002MOL0     C35187   6.872  11.177   7.503 -1.4828  0.4994 -0.0421
 1002MOL0     C35188   6.764  11.238   7.575 -0.0569  0.1005 -0.0390
 1002MOL0     C35189   6.466  11.379   7.910 -0.6306  0.1272  0.4408
 1002MOL0     C35190   6.382  11.441   7.806  0.5487  0.7262 -0.0528
 1002MOL0     C35191   6.272  11.517   7.855 -0.2646 -0.2252  1.0391
 1002MOL0     C35192   6.245  11.548   7.983  0.4543 -0.5546  0.0550
 1002MOL0     O35193   6.138  11.626   8.013 -0.1954 -0.7715  0.2001
 1002MOL0     C35194   6.045  11.584   8.110  0.4826 -0.1115 -0.5048
 1002MOL0     C35195   5.918  11.662   8.091 -0.1225 -0.3052  0.7953
 1002MOL0     C35196   5.860  11.653   7.943 -0.4031 -0.3312 -0.5823
 1002MOL0     C35197   5.710  11.712   7.946  0.2285 -0.8777  0.5632
 1002MOL0     C35198   5.716  11.852   7.956 -0.2788  1.6413  0.9359
 1002MOL0     C35199   5.722  11.970   7.957 -0.3639 -0.5658  0.0417
 1002MOL0     C35200   6.327  11.489   8.080 -0.3171  0.5670 -0.8713
 1002MOL0     C35201   6.438  11.405   8.047  0.3140  0.3315 -0.7929
 1002MOL0     C35202   6.503  11.337   8.164  1.3605 -0.1215  0.1730
 1002MOL0     H35203   6.684  11.005   7.810 -0.2628  0.4621  1.1964
 1002MOL0     H35204   6.856  10.892   7.710  0.8855  1.4745  2.3595
 1002MOL0     H35205   6.932  10.997   7.305 -1.1672 -0.3226  0.1787
 1002MOL0     H35206   7.082  11.089   7.345 -3.0424  1.1827 -1.5192
 1002MOL0     H35207   7.138  10.920   7.203 -1.3012  0.8749 -0.7158
 1002MOL0     H35208   7.030  10.795   7.265 -0.0383 -0.5058  1.5824
 1002MOL0     H35209   7.246  10.907   7.461 -2.3767 -1.4296  2.8344
 1002MOL0     H35210   7.286  10.804   7.323  0.0518 -0.5489 -0.4408
 1002MOL0     H35211   7.063  10.714   7.509 -1.2444 -2.1364 -1.1358
 1002MOL0     H35212   7.169  10.620   7.399  0.4012 -0.2937 -0.6626
 1002MOL0     H35213   7.267  10.752   7.642  2.3807 -1.4283 -0.3270
 1002MOL0     H35214   7.230  10.575   7.622 -1.8976 -0.7793 -0.8164
 1002MOL0     H35215   7.394  10.586   7.418  1.4069 -0.1325 -0.3525
 1002MOL0     H35216   7.455  10.740   7.480  0.5323 -0.4135 -1.5419
 1002MOL0     H35217   7.601  10.536   7.530 -0.3199  0.2565 -0.0720
 1002MOL0     H35218   7.478  10.482   7.642 -1.0433  0.7011  0.6921
 1002MOL0     H35219   7.509  10.736   7.739  0.7218 -0.4653 -0.7679
 1002MOL0     H35220   7.644  10.623   7.771 -0.4532 -0.4581  0.1041
 1002MOL0     H35221   7.841  10.627   7.614 -0.2631 -0.4796 -0.0993
 1002MOL0     H35222   7.980  10.926   7.388 -0.0877 -0.8472 -0.5137
 1002MOL0     H35223   8.049  10.860   7.527 -0.5272 -2.0875  0.7758
 1002MOL0     H35224   8.113  10.716   7.324  0.4855  2.3872  1.2350
 1002MOL0     H35225   8.033  10.636   7.458 -0.0271 -0.6776 -0.5347
 1002MOL0     H35226   7.911  10.737   7.196  0.2654  0.9042  2.4484
 1002MOL0     H35227   7.802  10.673   7.326 -0.0110 -0.5618  1.5243
 1002MOL0     H35228   8.033  10.523   7.185  0.3453 -1.9575  1.9509
 1002MOL0     H35229   7.861  10.513   7.136 -2.7393 -1.0734  1.5963
 1002MOL0     H35230   7.829  10.155   7.357 -3.0781 -1.1908  2.4262
 1002MOL0     H35231   7.633  10.062   7.362  0.8879  0.6918  1.4784
 1002MOL0     H35232   7.168  10.138   7.474  3.1810 -3.4256 -2.0035
 1002MOL0     H35233   6.955  10.046   7.496  0.5111  2.1744  1.4716
 1002MOL0     H35234   6.673  10.209   7.215 -2.6731  0.9836  0.7241
 1002MOL0     H35235   6.641  10.076   7.123  2.7414 -0.2579 -0.0920
 1002MOL0     H35236   6.488  10.014   7.333  0.7462  0.4307  0.6872
 1002MOL0     H35237   6.544  10.164   7.406 -0.7300 -0.6396  1.2424
 1002MOL0     H35238   6.453  10.299   7.238 -0.1039 -0.1428 -0.4098
 1002MOL0     H35239   6.451  10.180   7.115 -1.5664 -1.9774  0.1239
 1002MOL0     H35240   6.270  10.153   7.369 -0.9691  1.8031  0.4965
 1002MOL0     H35241   6.259  10.057   7.227  0.7150  0.1534 -0.0962
 1002MOL0     H35242   6.083  10.202   7.209  0.9640  0.5628  2.2476
 1002MOL0     H35243   6.205  10.233   7.087 -0.6680 -0.2061  0.3922
 1002MOL0     H35244   6.235  10.418   7.318  0.0591  2.4816  0.1151
 1002MOL0     H35245   6.224  10.444   7.145 -0.0184  1.1156  1.1885
 1002MOL0     H35246   5.997  10.405   7.343 -2.2974  0.0263 -1.9364
 1002MOL0     H35247   5.978  10.415   7.174  0.4379 -0.2998 -0.0744
 1002MOL0     H35248   6.102  10.637   7.176 -0.2875 -3.7843 -0.9397
 1002MOL0     H35249   5.942  10.640   7.264 -1.8070 -2.7399  2.7181
 1002MOL0     H35250   6.864  10.161   7.083  1.2170  1.7716 -0.2588
 1002MOL0     H35251   7.082  10.290   7.082 -3.1500  1.8688 -0.2130
 1002MOL0     H35252   7.430  10.427   7.238 -1.4970 -0.6985  1.4817
 1002MOL0     H35253   7.652  10.535   7.240  2.8598 -0.6464 -1.5978
 1002MOL0     H35254   6.928  11.220   7.421  1.0585 -0.2508  1.1687
 1002MOL0     H35255   6.726  11.337   7.551  0.1402 -0.2530 -1.9603
 1002MOL0     H35256   6.420  11.424   7.706  0.9473 -0.7750  0.3298
 1002MOL0     H35257   6.211  11.560   7.776  1.0995 -1.6522 -0.9058
 1002MOL0     H35258   6.087  11.606   8.209 -0.1516  2.6929 -0.7869
 1002MOL0     H35259   6.042  11.475   8.097  1.9081  0.0062 -2.3663
 1002MOL0     H35260   5.936  11.762   8.131  0.4742  0.0657 -0.3521
 1002MOL0     H35261   5.843  11.616   8.156 -1.3071 -0.3087 -0.5124
 1002MOL0     H35262   5.865  11.548   7.913 -1.6216 -0.4625 -0.3615
 1002MOL0     H35263   5.928  11.705   7.875  0.9237  1.0685  1.6603
 1002MOL0     H35264   5.654  11.700   7.854 -0.9073  1.1321  0.9455
 1002MOL0     H35265   5.650  11.673   8.029 -2.1299  2.0475  0.3860
 1002MOL0     H35266   5.738  12.076   7.951  2.8248 -0.4654  4.5559
 1002MOL0     H35267   6.309  11.500   8.186 -2.0120  0.9264 -1.1711
 1002MOL0     H35268   6.611  11.353   8.165  1.6136 -1.5770  2.1299
 1002MOL0     H35269   6.464  11.386   8.254  2.2853  1.7003 -0.3524
 1002MOL0     H35270   6.481  11.230   8.169 -1.9249  0.4825  0.7485
 1003MOL0     O35271   5.860   4.547  10.114 -0.3812 -0.3355 -0.6609
 1003MOL0     C35272   5.784   4.516  10.201  0.9189 -0.1590 -0.3979
 1003MOL0     O35273   5.793   4.548  10.339 -0.0714 -0.2898 -0.2524
 1003MOL0     C35274   5.913   4.596  10.375 -1.0169  0.3632 -0.4561
 1003MOL0     C35275   5.930   4.734  10.391 -0.2058  0.4871  0.2774
 1003MOL0     C35276   6.044   4.787  10.446  1.0735 -0.6151 -0.5891
 1003MOL0     C35277   6.154   4.704  10.470  0.9364  0.4213  0.6028
 1003MOL0     O35278   6.271   4.756  10.516  0.1206 -0.4235 -0.3639
 1003MOL0     C35279   6.356   4.839  10.439 -0.4004 -0.0101 -0.0267
 1003MOL0     C35280   6.458   4.773  10.355 -0.5880 -0.1150  0.4487
 1003MOL0     C35281   6.575   4.714  10.419 -0.3962  0.3125 -0.9922
 1003MOL0     C35282   6.688   4.644  10.344 -0.5418  0.4707  1.4718
 1003MOL0     C35283   6.632   4.521  10.269 -0.0056  0.7848 -0.4696
 1003MOL0     C35284   6.735   4.414  10.253  0.1487  0.4799  1.2354
 1003MOL0     C35285   6.682   4.278  10.206  0.2023 -0.8621  0.2803
 1003MOL0     C35286   6.664   4.268  10.051  0.1637 -0.1045 -0.2049
 1003MOL0     N35287   6.627   4.128  10.033  0.7854 -0.5060  0.5610
 1003MOL0     C35288   6.510   4.084   9.972 -0.1122 -0.8370  0.0666
 1003MOL0     C35289   6.521   3.950   9.978  1.2803 -0.2865  1.3933
 1003MOL0     C35290   6.409   3.859   9.942  0.4331  0.9817  0.3568
 1003MOL0     C35291   6.416   3.818   9.796 -0.2397  0.3088 -0.8355
 1003MOL0     C35292   6.552   3.761   9.749  0.2211  0.2179  0.0809
 1003MOL0     C35293   6.575   3.613   9.810 -0.5934 -0.0180 -0.4512
 1003MOL0     O35294   6.698   3.556   9.764  0.0848 -0.6848  0.0660
 1003MOL0     C35295   6.821   3.590   9.829 -0.2483  0.1354  0.2367
 1003MOL0     C35296   6.939   3.546   9.766 -0.1487 -1.1607  0.1178
 1003MOL0     C35297   7.056   3.585   9.816  0.0103  0.2520 -0.6660
 1003MOL0     C35298   7.063   3.668   9.932  0.7855 -0.0287 -0.5790
 1003MOL0     C35299   7.189   3.727   9.972 -0.5548 -0.3318  0.4660
 1003MOL0     O35300   7.300   3.683   9.912 -0.6263  0.7970  0.1265
 1003MOL0     C35301   7.421   3.701   9.971  0.1839 -0.1086  1.0845
 1003MOL0     C35302   7.510   3.588   9.962 -0.2364  0.0063 -0.2379
 1003MOL0     C35303   7.636   3.596  10.021 -0.7791  0.3405  0.4567
 1003MOL0     C35304   7.688   3.717  10.079  0.1129 -0.0063  0.9427
 1003MOL0     O35305   7.824   3.737  10.103  0.4822 -0.0672 -0.3519
 1003MOL0     C35306   7.877   3.629  10.181 -0.6759 -1.2737 -0.4270
 1003MOL0     C35307   8.003   3.677  10.262 -0.5313 -0.0082 -0.3421
 1003MOL0     C35308   8.118   3.711  10.162  0.5148  0.1249 -0.8995
 1003MOL0     C35309   8.234   3.754  10.245  0.9845  0.1985 -0.0823
 1003MOL0     C35310   8.353   3.758  10.157  0.1245 -0.0389  0.2678
 1003MOL0     C35311   8.478   3.804  10.230  0.5788  0.6159 -0.0232
 1003MOL0     C35312   8.609   3.799  10.156 -0.5080  0.0621  0.4396
 1003MOL0     C35313   8.602   3.899  10.034 -0.6056  0.2362 -0.6403
 1003MOL0    Cl35314   8.756   3.927   9.955  0.1123  0.1109  0.0722
 1003MOL0     C35315   7.597   3.825  10.095 -0.4839 -0.0238  0.3096
 1003MOL0     C35316   7.463   3.816  10.043 -0.1612  0.8075  0.4943
 1003MOL0     O35317   7.182   3.806  10.067 -0.8460 -0.4892  0.3781
 1003MOL0     C35318   6.946   3.697  10.004  0.5598  0.0659  1.3211
 1003MOL0     C35319   6.824   3.658   9.944  0.3776  0.7645 -0.2814
 1003MOL0     N35320   6.642   3.914  10.020 -0.6204  0.7612 -0.5550
 1003MOL0     N35321   6.704   4.017  10.062  0.3501 -0.7722  0.3678
 1003MOL0     C35322   6.145   4.565  10.453  0.3621  0.4813  0.0996
 1003MOL0     C35323   6.028   4.508  10.399  0.8122 -0.5322 -0.8049
 1003MOL0     C35324   5.651   4.451  10.162  1.0106 -0.0547  0.5906
 1003MOL0     C35325   5.575   4.514  10.060  0.1323 -0.1895  0.3122
 1003MOL0     C35326   5.438   4.486  10.041  0.2874 -0.6525 -0.0099
 1003MOL0     C35327   5.386   4.385  10.118 -1.1428 -0.0192 -0.2242
 1003MOL0     O35328   5.254   4.364  10.122 -0.1165  0.0577  0.1422
 1003MOL0     C35329   5.221   4.241  10.060  0.3003  0.5587 -0.7254
 1003MOL0     C35330   5.075   4.261  10.008  0.1182 -0.0707  0.7481
 1003MOL0     C35331   5.038   4.129   9.938 -0.0869 -0.6779  0.3453
 1003MOL0     C35332   4.889   4.110   9.921 -0.1449  0.9184  0.3532
 1003MOL0     C35333   4.844   4.190   9.809 -0.4397  0.0642 -0.3965
 1003MOL0     C35334   4.806   4.258   9.714  0.1588 -0.0790 -0.3144
 1003MOL0     C35335   5.461   4.315  10.212  0.0959  0.5702  0.2450
 1003MOL0     C35336   5.593   4.342  10.237  0.0162  0.1157  0.7018
 1003MOL0     C35337   5.663   4.270  10.345  0.4005  0.3573 -0.0984
 1003MOL0     H35338   5.855   4.810  10.376 -1.3083 -0.7405 -0.6430
 1003MOL0     H35339   6.059   4.892  10.472 -2.3333 -0.9401  4.1196
 1003MOL0     H35340   6.297   4.900  10.370  2.2867 -0.5961 -3.0959
 1003MOL0     H35341   6.407   4.902  10.513 -2.1952 -0.4112  1.6416
 1003MOL0     H35342   6.488   4.847  10.280  0.9573 -0.7937  0.3626
 1003MOL0     H35343   6.399   4.695  10.306 -2.4312 -0.3000  2.7646
 1003MOL0     H35344   6.545   4.636  10.490  1.2347 -0.1995 -0.8180
 1003MOL0     H35345   6.618   4.795  10.478  0.1303 -0.5560 -0.1424
 1003MOL0     H35346   6.726   4.713  10.267 -1.2334 -0.7009  0.0401
 1003MOL0     H35347   6.768   4.622  10.416  0.5461 -0.0863  0.1394
 1003MOL0     H35348   6.546   4.477  10.321  0.5185 -1.9364 -1.7119
 1003MOL0     H35349   6.594   4.554  10.172 -0.1964  2.5301  0.1692
 1003MOL0     H35350   6.818   4.439  10.186 -1.6574 -0.3284 -1.5194
 1003MOL0     H35351   6.769   4.391  10.354  1.4201 -0.0612  0.7057
 1003MOL0     H35352   6.583   4.271  10.252 -1.0571 -1.9685 -2.3893
 1003MOL0     H35353   6.744   4.194  10.240  0.1047 -0.2527  2.0673
 1003MOL0     H35354   6.583   4.331  10.013 -0.4676 -1.6975 -1.6254
 1003MOL0     H35355   6.754   4.307  10.004  1.2652 -1.2962  0.8442
 1003MOL0     H35356   6.423   4.145   9.947 -0.6950  0.3307  4.2678
 1003MOL0     H35357   6.410   3.778  10.015 -3.8772  1.4007  1.1320
 1003MOL0     H35358   6.309   3.902   9.947 -0.4732 -0.5098 -2.5061
 1003MOL0     H35359   6.343   3.738   9.776  0.3565 -0.3283 -0.5194
 1003MOL0     H35360   6.376   3.895   9.730 -1.7659 -1.0567 -1.5942
 1003MOL0     H35361   6.633   3.830   9.775  0.5761 -0.7214  1.5893
 1003MOL0     H35362   6.558   3.752   9.640 -0.8567  2.3103 -0.2178
 1003MOL0     H35363   6.485   3.554   9.795 -0.8632 -0.4415  2.2843
 1003MOL0     H35364   6.572   3.619   9.919 -3.7016  1.3641 -0.5092
 1003MOL0     H35365   6.927   3.482   9.679 -2.0207 -0.2804 -0.3325
 1003MOL0     H35366   7.155   3.552   9.786  0.1824  1.2716 -1.2574
 1003MOL0     H35367   7.485   3.488   9.930  2.7461 -0.9728  0.2114
 1003MOL0     H35368   7.696   3.506  10.022 -1.6491 -0.2618 -0.2400
 1003MOL0     H35369   7.807   3.603  10.261 -0.5265  1.3019  0.6162
 1003MOL0     H35370   7.899   3.544  10.115  1.4837 -0.5358 -0.7118
 1003MOL0     H35371   7.984   3.758  10.333 -2.4978 -0.8572  0.1501
 1003MOL0     H35372   8.035   3.592  10.323  0.6837 -0.2932 -1.3381
 1003MOL0     H35373   8.142   3.618  10.111 -1.4770 -0.4273 -0.9395
 1003MOL0     H35374   8.092   3.783  10.083 -2.0837  1.9098  1.3831
 1003MOL0     H35375   8.246   3.684  10.329 -1.0024 -0.8879 -0.6476
 1003MOL0     H35376   8.207   3.847  10.295  0.9325 -1.1462  2.6288
 1003MOL0     H35377   8.331   3.819  10.069  0.7806  1.2189  0.9506
 1003MOL0     H35378   8.368   3.655  10.122  3.2616  0.3900  0.0262
 1003MOL0     H35379   8.455   3.904  10.267 -2.2133 -0.5785  1.7787
 1003MOL0     H35380   8.483   3.737  10.316  0.5871 -0.5095 -0.8821
 1003MOL0     H35381   8.634   3.695  10.133 -1.3505  0.0083 -0.2570
 1003MOL0     H35382   8.684   3.838  10.226  0.5340  0.7183 -0.9770
 1003MOL0     H35383   8.530   3.860   9.962 -1.9135 -1.4161  1.4243
 1003MOL0     H35384   8.586   4.001  10.072  3.7470  0.7455  0.3554
 1003MOL0     H35385   7.632   3.916  10.141 -2.6736  1.8498 -1.4618
 1003MOL0     H35386   7.392   3.894  10.070 -1.2045  0.7704 -1.9343
 1003MOL0     H35387   6.940   3.745  10.101  0.7468  0.9858  0.8913
 1003MOL0     H35388   6.729   3.687   9.988 -0.4272  1.3413 -2.2749
 1003MOL0     H35389   6.227   4.499  10.477  3.0710  3.4011 -0.5240
 1003MOL0     H35390   6.013   4.402  10.386 -2.6096 -0.0675 -1.7390
 1003MOL0     H35391   5.616   4.595   9.999 -0.5781 -0.6526 -0.8214
 1003MOL0     H35392   5.376   4.538   9.968 -1.9307 -0.1206  2.0969
 1003MOL0     H35393   5.232   4.173  10.145 -0.4354  2.3777  0.9203
 1003MOL0     H35394   5.294   4.213   9.985  3.7154 -0.9272  2.8015
 1003MOL0     H35395   5.068   4.348   9.943  1.0583  0.6151  1.5451
 1003MOL0     H35396   5.006   4.285  10.090  2.8715 -1.8283  3.7874
 1003MOL0     H35397   5.071   4.047  10.003  2.5281 -1.5197 -1.8690
 1003MOL0     H35398   5.088   4.110   9.843 -0.4740  3.5386 -0.9023
 1003MOL0     H35399   4.860   4.010   9.889 -3.9979  1.4924  1.4864
 1003MOL0     H35400   4.845   4.133  10.019 -1.0684  0.9920 -0.0620
 1003MOL0     H35401   4.770   4.315   9.630 -0.2795  0.9787  0.5668
 1003MOL0     H35402   5.405   4.241  10.268  0.1270 -0.3813 -0.9374
 1003MOL0     H35403   5.770   4.282  10.326  0.1262  2.2001 -0.6186
 1003MOL0     H35404   5.649   4.303  10.448  2.1591  3.6239 -0.7693
 1003MOL0     H35405   5.629   4.167  10.331 -0.6283  0.6632  0.1120
 1004MOL0     O35406   6.563   7.125   8.498 -0.0610 -1.4883 -0.7134
 1004MOL0     C35407   6.520   7.089   8.386 -0.3525 -0.6815 -0.4044
 1004MOL0     O35408   6.570   7.116   8.264 -0.4550 -0.1556  0.3431
 1004MOL0     C35409   6.709   7.136   8.250  0.4049  0.4403 -0.2418
 1004MOL0     C35410   6.807   7.053   8.305 -0.1585  0.2971 -0.3105
 1004MOL0     C35411   6.944   7.063   8.279 -0.7660 -0.4724 -0.4133
 1004MOL0     C35412   6.987   7.167   8.188 -0.2946 -0.0392 -0.4456
 1004MOL0     O35413   7.115   7.205   8.156  0.0992 -0.4548 -0.6502
 1004MOL0     C35414   7.222   7.126   8.211  0.9736  0.5611  0.8835
 1004MOL0     C35415   7.356   7.179   8.171  0.7818 -0.8550  0.2704
 1004MOL0     C35416   7.474   7.097   8.223 -0.6113  0.0563 -0.0346
 1004MOL0     C35417   7.604   7.141   8.156  0.5063  0.3748 -1.4612
 1004MOL0     C35418   7.711   7.036   8.185  0.1978  0.1461 -0.0977
 1004MOL0     C35419   7.833   7.064   8.098 -0.1961 -0.3927  0.5190
 1004MOL0     C35420   7.932   6.951   8.105 -1.0878 -0.8059 -0.1020
 1004MOL0     C35421   8.053   6.996   8.026 -0.3225 -0.0024  0.1708
 1004MOL0     N35422   8.145   6.896   8.064  0.5301  0.1704 -0.1956
 1004MOL0     C35423   8.202   6.796   7.984 -0.4397 -0.2489  0.1878
 1004MOL0     C35424   8.293   6.734   8.060  0.0022 -0.3889 -0.1276
 1004MOL0     C35425   8.381   6.610   8.023 -0.2889 -1.2065 -0.7151
 1004MOL0     C35426   8.532   6.646   8.060  0.7255 -0.2111  0.2479
 1004MOL0     C35427   8.587   6.766   7.984  0.0529  0.8233 -0.7259
 1004MOL0     C35428   8.735   6.761   7.959 -0.5947  0.3452  0.3147
 1004MOL0     O35429   8.793   6.884   7.905 -0.0712 -0.1838 -0.1132
 1004MOL0     C35430   8.924   6.892   7.884 -0.1734  0.3968 -0.3340
 1004MOL0     C35431   9.009   6.800   7.941  0.1610  0.4099  0.2884
 1004MOL0     C35432   9.148   6.808   7.924 -0.2438  0.2142  0.7001
 1004MOL0     C35433   9.208   6.925   7.867 -1.0149 -0.2609 -0.0284
 1004MOL0     C35434   9.356   6.941   7.853  0.4539  0.5405 -0.5144
 1004MOL0     O35435   9.408   7.062   7.801 -0.1692  0.3429 -0.4228
 1004MOL0     C35436   9.546   7.067   7.805  0.1910  0.3049 -0.0621
 1004MOL0     C35437   9.626   7.083   7.695 -0.0070 -0.4577 -0.1604
 1004MOL0     C35438   9.762   7.082   7.699  0.0375  0.0025 -0.4815
 1004MOL0     C35439   9.827   7.074   7.820 -0.4457 -0.1324  0.6050
 1004MOL0     O35440   9.967   7.091   7.820 -0.0370  0.1852  0.5964
 1004MOL0     C35441  10.039   7.070   7.941  0.4799  0.1584  0.1417
 1004MOL0     C35442  10.184   7.122   7.932  0.2425  0.4749 -0.4394
 1004MOL0     C35443  10.271   7.039   7.840  0.6395  0.4890  0.1989
 1004MOL0     C35444  10.377   7.124   7.776  1.3686 -0.8017 -0.5213
 1004MOL0     C35445  10.453   7.202   7.885  0.1799  0.1173  0.4231
 1004MOL0     C35446  10.583   7.262   7.827  0.8219 -0.2259  0.2209
 1004MOL0     C35447  10.550   7.361   7.715 -0.8924  0.0751  0.6085
 1004MOL0     C35448  10.667   7.435   7.664  0.1362  0.2333  0.7007
 1004MOL0    Cl35449  10.730   7.537   7.797  0.3993 -0.0295 -0.5353
 1004MOL0     C35450   9.742   7.044   7.930 -0.4411 -0.9525  0.7499
 1004MOL0     C35451   9.609   7.047   7.924  0.4363  0.0120  0.2794
 1004MOL0     O35452   9.419   6.833   7.860 -0.0708 -0.4937 -0.0606
 1004MOL0     C35453   9.116   7.024   7.817  0.3660 -0.2420 -0.0623
 1004MOL0     C35454   8.977   7.009   7.833  0.0274 -0.6591  0.2072
 1004MOL0     N35455   8.296   6.803   8.179  0.7006 -0.1351 -0.6363
 1004MOL0     N35456   8.213   6.895   8.185 -0.1370 -0.5816  0.0425
 1004MOL0     C35457   6.892   7.244   8.130  0.2557  0.8886  0.2269
 1004MOL0     C35458   6.751   7.226   8.151 -0.3562  0.3317 -0.1323
 1004MOL0     C35459   6.398   7.000   8.381  0.4634  0.7906 -0.7417
 1004MOL0     C35460   6.354   6.968   8.508  0.9462 -0.3138  0.1807
 1004MOL0     C35461   6.227   6.911   8.516  0.4710 -0.0528  0.5375
 1004MOL0     C35462   6.147   6.897   8.402 -0.2521 -0.3637  0.6376
 1004MOL0     O35463   6.026   6.851   8.397  0.4167  0.4578  0.0113
 1004MOL0     C35464   5.938   6.828   8.514  0.1758  0.4820  0.4843
 1004MOL0     C35465   5.789   6.829   8.483  1.0160  0.1274 -0.6144
 1004MOL0     C35466   5.742   6.953   8.415 -0.5961 -0.1897  0.4093
 1004MOL0     C35467   5.596   6.952   8.361 -0.5486 -0.5923 -0.2672
 1004MOL0     C35468   5.502   6.946   8.474  0.3017  0.9984  0.7068
 1004MOL0     C35469   5.431   6.925   8.569 -0.3469  0.0294 -0.0537
 1004MOL0     C35470   6.199   6.917   8.274  0.2606  0.6101 -0.8642
 1004MOL0     C35471   6.327   6.967   8.262 -0.3949  1.0036 -0.1113
 1004MOL0     C35472   6.373   6.984   8.122  0.4170  0.0476 -0.2302
 1004MOL0     H35473   6.773   6.982   8.381 -0.1356  0.1512 -0.4361
 1004MOL0     H35474   7.029   7.011   8.320  0.5596  2.5505  0.9870
 1004MOL0     H35475   7.208   7.117   8.319 -0.8611 -2.0494  0.5097
 1004MOL0     H35476   7.220   7.024   8.172  2.3305  0.5183  0.8679
 1004MOL0     H35477   7.363   7.280   8.212 -0.7637 -0.0457 -1.3354
 1004MOL0     H35478   7.351   7.173   8.062 -0.6349 -1.0982  0.3304
 1004MOL0     H35479   7.448   6.994   8.193 -0.6017  0.4382 -1.4295
 1004MOL0     H35480   7.486   7.097   8.331  1.5804 -0.6600 -0.2211
 1004MOL0     H35481   7.589   7.156   8.049 -2.9196 -0.8514 -1.2893
 1004MOL0     H35482   7.633   7.239   8.194 -0.7597 -0.4097  2.0223
 1004MOL0     H35483   7.735   7.032   8.292 -0.5790 -0.4664  0.0587
 1004MOL0     H35484   7.669   6.941   8.152  1.0510 -0.4554  0.4904
 1004MOL0     H35485   7.805   7.084   7.994 -0.5657 -0.2803  0.6395
 1004MOL0     H35486   7.882   7.156   8.131  1.5020  0.9179 -4.7135
 1004MOL0     H35487   7.884   6.859   8.070  1.8819 -2.0444 -1.3319
 1004MOL0     H35488   7.954   6.936   8.211 -1.3281  1.5558  0.3226
 1004MOL0     H35489   8.039   7.001   7.918  1.4286  2.5776 -0.0480
 1004MOL0     H35490   8.095   7.094   8.052 -0.8741 -0.1575  1.7638
 1004MOL0     H35491   8.176   6.785   7.879  0.2637 -1.1950  0.0955
 1004MOL0     H35492   8.353   6.525   8.086  1.4861 -1.6744 -0.5071
 1004MOL0     H35493   8.377   6.585   7.917 -0.5685  0.0909 -1.0202
 1004MOL0     H35494   8.530   6.670   8.166 -0.1992  0.8490  0.0098
 1004MOL0     H35495   8.593   6.560   8.029 -1.6081 -1.1201 -2.3077
 1004MOL0     H35496   8.563   6.851   8.049  2.3938  0.1022  1.2291
 1004MOL0     H35497   8.526   6.781   7.894 -0.5708  1.4197 -0.2202
 1004MOL0     H35498   8.757   6.690   7.879 -0.9183  0.5797  0.0205
 1004MOL0     H35499   8.781   6.725   8.052  1.1675 -1.1103 -1.0541
 1004MOL0     H35500   8.975   6.707   7.985  3.1547 -0.9756 -0.0690
 1004MOL0     H35501   9.208   6.720   7.945 -1.8799 -1.2937 -0.5740
 1004MOL0     H35502   9.582   7.098   7.597 -1.0318  0.3496  0.3954
 1004MOL0     H35503   9.820   7.083   7.607 -0.2356 -0.1790 -0.6570
 1004MOL0     H35504   9.989   7.121   8.023 -0.5762 -1.3927  0.4970
 1004MOL0     H35505  10.049   6.967   7.977 -0.3745  0.1229  0.3074
 1004MOL0     H35506  10.178   7.222   7.887 -1.3412 -1.0692 -4.1271
 1004MOL0     H35507  10.225   7.124   8.033  0.5127 -0.3878 -0.5213
 1004MOL0     H35508  10.320   6.959   7.897  1.0658  1.5152  1.3043
 1004MOL0     H35509  10.209   6.998   7.759  0.3615 -0.1149  0.7016
 1004MOL0     H35510  10.334   7.192   7.701  1.0682  2.3361  2.2612
 1004MOL0     H35511  10.448   7.062   7.720  0.6425 -0.5389 -1.7758
 1004MOL0     H35512  10.488   7.134   7.963  5.4133  3.1600  1.2407
 1004MOL0     H35513  10.393   7.282   7.929 -1.3817  0.9399 -2.9276
 1004MOL0     H35514  10.640   7.313   7.905 -0.4601  0.3702  0.7980
 1004MOL0     H35515  10.637   7.174   7.790 -2.7135 -1.9812 -1.2319
 1004MOL0     H35516  10.471   7.434   7.738 -0.0793  1.3309 -0.4153
 1004MOL0     H35517  10.503   7.311   7.630 -1.9552 -0.0911  1.2717
 1004MOL0     H35518  10.741   7.362   7.629 -0.2659  0.8116 -1.4844
 1004MOL0     H35519  10.646   7.497   7.577 -0.8597 -0.3408  0.5100
 1004MOL0     H35520   9.784   7.022   8.027  0.7859 -0.0894  0.4361
 1004MOL0     H35521   9.549   7.030   8.013 -1.2151 -1.6986 -1.0704
 1004MOL0     H35522   9.160   7.118   7.786 -0.6605 -0.1626 -1.3602
 1004MOL0     H35523   8.915   7.096   7.815 -0.1381 -0.7467  0.3552
 1004MOL0     H35524   6.921   7.310   8.049 -0.6541  1.3058  0.2292
 1004MOL0     H35525   6.676   7.280   8.095 -0.5017 -1.2308 -1.5214
 1004MOL0     H35526   6.414   6.989   8.596 -0.9103  0.2898  1.3673
 1004MOL0     H35527   6.197   6.884   8.616 -1.8994  2.5892  0.6770
 1004MOL0     H35528   5.960   6.899   8.595  0.2376 -1.0053  1.8072
 1004MOL0     H35529   5.962   6.728   8.550 -0.4846  0.0032 -0.3666
 1004MOL0     H35530   5.735   6.818   8.578 -0.8585 -3.5095 -1.8792
 1004MOL0     H35531   5.759   6.736   8.432  0.6792 -1.0819  1.6481
 1004MOL0     H35532   5.799   6.962   8.323 -1.6871 -2.7801 -0.5980
 1004MOL0     H35533   5.759   7.049   8.465 -2.1664  0.6078 -0.5014
 1004MOL0     H35534   5.583   7.045   8.305 -1.7854 -0.9899 -0.6738
 1004MOL0     H35535   5.589   6.864   8.297  1.1671  0.3469 -1.8456
 1004MOL0     H35536   5.382   6.911   8.664 -0.4048 -0.1869 -0.1139
 1004MOL0     H35537   6.136   6.889   8.190 -1.3839 -2.0409  1.0934
 1004MOL0     H35538   6.291   6.951   8.057  0.1048 -2.6968  1.3967
 1004MOL0     H35539   6.381   7.092   8.103 -0.3573  0.4285  1.4190
 1004MOL0     H35540   6.462   6.927   8.096 -1.6959 -2.1183 -3.3672
 1005MOL0     O35541   2.778   8.856  11.103 -0.3276 -0.0341 -0.4558
 1005MOL0     C35542   2.779   8.971  11.157 -0.0313  0.2451  0.2767
 1005MOL0     O35543   2.887   9.059  11.150 -0.1774  0.2228 -0.1559
 1005MOL0     C35544   3.021   9.015  11.148 -0.3479 -0.5694  0.0739
 1005MOL0     C35545   3.111   9.126  11.126 -0.6007  0.3724 -0.0425
 1005MOL0     C35546   3.245   9.094  11.141  0.3493 -0.2275 -0.2092
 1005MOL0     C35547   3.292   8.968  11.166 -0.7046 -0.9058 -0.3927
 1005MOL0     O35548   3.430   8.970  11.185  0.2298  0.4001  0.8000
 1005MOL0     C35549   3.486   8.838  11.206 -0.7871  0.4895  0.5456
 1005MOL0     C35550   3.642   8.831  11.209  0.6990 -0.1796 -0.8002
 1005MOL0     C35551   3.677   8.889  11.348 -1.2926 -0.7140 -0.1567
 1005MOL0     C35552   3.827   8.911  11.379  0.4399 -0.0304  0.5962
 1005MOL0     C35553   3.866   8.968  11.511 -0.5316 -0.1594 -0.5106
 1005MOL0     C35554   4.017   8.995  11.524 -0.2099  0.2316 -0.0717
 1005MOL0     C35555   4.101   8.871  11.534  0.1888  0.6523 -0.0084
 1005MOL0     C35556   4.245   8.907  11.571  0.6020 -0.1147  0.2202
 1005MOL0     N35557   4.284   8.798  11.668 -0.2685  0.3635  0.1342
 1005MOL0     C35558   4.385   8.706  11.642  0.2918 -0.4608  0.6399
 1005MOL0     C35559   4.402   8.648  11.758 -0.0257 -0.2990 -0.1409
 1005MOL0     C35560   4.500   8.530  11.776  0.6197 -0.5734  0.1357
 1005MOL0     C35561   4.640   8.575  11.799 -0.8525  0.7293  0.0747
 1005MOL0     C35562   4.648   8.660  11.925 -0.6439 -0.1624 -0.6749
 1005MOL0     C35563   4.792   8.699  11.947 -0.0263  0.3648 -0.3053
 1005MOL0     O35564   4.873   8.582  11.971 -0.2711  0.1070 -0.5745
 1005MOL0     C35565   4.993   8.611  12.043 -0.1548  0.0509  0.8128
 1005MOL0     C35566   5.093   8.697  11.994  0.0977 -0.4814 -0.4286
 1005MOL0     C35567   5.215   8.702  12.054 -0.5639 -0.3017 -1.0709
 1005MOL0     C35568   5.246   8.633  12.169  0.6124 -0.5586 -0.4403
 1005MOL0     C35569   5.383   8.638  12.236 -0.5194 -0.2571 -0.6432
 1005MOL0     O35570   5.475   8.721  12.192  0.9477 -0.4359 -0.1390
 1005MOL0     C35571   5.610   8.729  12.242  0.4769 -0.4859  0.8233
 1005MOL0     C35572   5.680   8.820  12.167 -0.6423 -0.9645  0.1062
 1005MOL0     C35573   5.816   8.831  12.181 -0.0252 -0.4804 -0.7555
 1005MOL0     C35574   5.888   8.766  12.286  0.3110 -0.3039 -0.2728
 1005MOL0     O35575   6.019   8.802  12.306 -0.1792  0.4513  0.2110
 1005MOL0     C35576   6.101   8.723  12.386 -0.4378  0.3244 -0.2495
 1005MOL0     C35577   6.128   8.581  12.335 -0.0749  1.0997  0.3343
 1005MOL0     C35578   6.213   8.573  12.204 -0.1470 -0.2987 -0.2913
 1005MOL0     C35579   6.345   8.653  12.220 -0.0686  0.7460  0.0116
 1005MOL0     C35580   6.449   8.612  12.118  0.9552 -0.0017  0.2524
 1005MOL0     C35581   6.570   8.697  12.111  0.6969 -0.4970  0.7567
 1005MOL0     C35582   6.668   8.716  12.227 -0.1277  0.3611 -0.1721
 1005MOL0     C35583   6.712   8.587  12.293 -0.0597  0.6305 -0.6756
 1005MOL0    Cl35584   6.794   8.638  12.444  0.3954 -0.4935  0.4971
 1005MOL0     C35585   5.818   8.677  12.360  0.4611  0.5495 -0.6540
 1005MOL0     C35586   5.683   8.653  12.334  0.8647 -0.7681  0.6089
 1005MOL0     O35587   5.400   8.549  12.319 -0.4741 -0.5216  0.3582
 1005MOL0     C35588   5.135   8.562  12.227  0.2084  0.3513 -0.6977
 1005MOL0     C35589   5.018   8.538  12.160 -0.0568  0.0904  0.2628
 1005MOL0     N35590   4.320   8.704  11.857  0.0755  0.1663  0.2515
 1005MOL0     N35591   4.246   8.796  11.805 -0.4052 -0.4367  0.2083
 1005MOL0     C35592   3.205   8.857  11.176  0.2545 -0.1241 -0.8351
 1005MOL0     C35593   3.069   8.877  11.171 -0.3225 -0.1527  0.7480
 1005MOL0     C35594   2.665   9.011  11.246  0.4236 -0.4102 -1.0914
 1005MOL0     C35595   2.666   9.142  11.300  0.7664 -0.3665 -0.2688
 1005MOL0     C35596   2.566   9.190  11.384 -0.1736  0.1801 -0.7099
 1005MOL0     C35597   2.473   9.105  11.432  0.0898 -0.5388  0.9062
 1005MOL0     O35598   2.372   9.166  11.504 -0.6423  0.1420  0.4851
 1005MOL0     C35599   2.245   9.103  11.548 -0.1337 -0.7328  0.4286
 1005MOL0     C35600   2.257   9.002  11.660 -0.2399  1.0429  0.2476
 1005MOL0     C35601   2.122   8.956  11.690  0.4211 -0.1459 -0.0839
 1005MOL0     C35602   2.033   9.067  11.755 -0.1454 -0.5144  0.4465
 1005MOL0     C35603   1.928   9.013  11.840  0.0229  0.5318  0.0698
 1005MOL0     C35604   1.836   8.961  11.897  0.1325 -0.1873 -0.0543
 1005MOL0     C35605   2.464   8.978  11.379  0.3511  0.3807  0.5375
 1005MOL0     C35606   2.563   8.932  11.287  1.0143  0.3371  0.0364
 1005MOL0     C35607   2.542   8.790  11.247 -0.8455  0.5888 -0.1357
 1005MOL0     H35608   3.074   9.226  11.107  3.4418  2.5049  1.7599
 1005MOL0     H35609   3.324   9.169  11.136  1.4133 -1.2673  0.3838
 1005MOL0     H35610   3.454   8.807  11.306  2.9464  0.4844  1.9284
 1005MOL0     H35611   3.448   8.768  11.131  2.3955 -0.5205 -0.2936
 1005MOL0     H35612   3.678   8.893  11.126  0.0745  1.3421  0.0024
 1005MOL0     H35613   3.669   8.727  11.194  1.0122 -0.4726  1.3993
 1005MOL0     H35614   3.649   8.823  11.430  4.9061 -3.5813  0.2196
 1005MOL0     H35615   3.623   8.983  11.359 -1.3945 -0.9007  0.9721
 1005MOL0     H35616   3.883   8.817  11.371 -0.3218 -0.7029  2.5694
 1005MOL0     H35617   3.862   8.979  11.301  1.5074  1.7321  2.5096
 1005MOL0     H35618   3.803   9.055  11.529 -1.9650 -0.7351 -2.5087
 1005MOL0     H35619   3.840   8.891  11.585  1.8965 -1.4949 -0.9216
 1005MOL0     H35620   4.061   9.054  11.443 -0.0133  0.2768  0.0686
 1005MOL0     H35621   4.030   9.042  11.622 -2.1027 -2.6246  1.7125
 1005MOL0     H35622   4.088   8.801  11.451  0.7906  0.4706  0.0497
 1005MOL0     H35623   4.075   8.817  11.626  0.9358  0.4636  0.1016
 1005MOL0     H35624   4.315   8.917  11.487 -1.4463  0.0970 -1.5454
 1005MOL0     H35625   4.243   8.999  11.630 -0.5493 -0.0710  0.1363
 1005MOL0     H35626   4.429   8.676  11.547  1.7002  1.1352  0.7236
 1005MOL0     H35627   4.475   8.473  11.866  0.6989 -1.3142 -0.3045
 1005MOL0     H35628   4.478   8.463  11.692 -2.5572  0.5147 -0.0322
 1005MOL0     H35629   4.701   8.484  11.805 -0.9828  0.6008 -0.4468
 1005MOL0     H35630   4.670   8.635  11.713  0.7504  1.3382  1.0066
 1005MOL0     H35631   4.614   8.596  12.007 -2.0914 -0.5434 -1.5360
 1005MOL0     H35632   4.594   8.754  11.912 -0.6007 -0.1448 -0.7265
 1005MOL0     H35633   4.791   8.769  12.031  0.8135 -0.9528  0.8661
 1005MOL0     H35634   4.827   8.745  11.854 -0.8697 -0.4250 -1.0380
 1005MOL0     H35635   5.077   8.748  11.899 -0.7923  2.7876  1.3119
 1005MOL0     H35636   5.295   8.749  11.998 -2.7060  4.4983 -0.5950
 1005MOL0     H35637   5.623   8.878  12.096  0.3073  1.0804  0.9302
 1005MOL0     H35638   5.860   8.912  12.124  1.1032 -0.1346  0.5362
 1005MOL0     H35639   6.196   8.777  12.391  0.0800 -0.6382  1.0622
 1005MOL0     H35640   6.060   8.720  12.487  0.4827 -2.1614  0.1221
 1005MOL0     H35641   6.173   8.523  12.416 -0.4276 -1.6694 -1.3166
 1005MOL0     H35642   6.039   8.521  12.316  0.6610 -0.2361  0.9618
 1005MOL0     H35643   6.233   8.467  12.188 -1.6560 -0.8375  1.1130
 1005MOL0     H35644   6.147   8.612  12.126 -0.5225  0.6023  0.4548
 1005MOL0     H35645   6.384   8.640  12.321 -0.1115  0.5449  0.0035
 1005MOL0     H35646   6.336   8.762  12.211 -2.8470  0.7551  1.7010
 1005MOL0     H35647   6.396   8.607  12.023  0.2973 -2.7988  0.6770
 1005MOL0     H35648   6.474   8.506  12.125 -0.9475 -0.4120  1.4747
 1005MOL0     H35649   6.631   8.671  12.024  0.1991  1.1352 -0.1198
 1005MOL0     H35650   6.539   8.797  12.080  0.3459 -1.3756 -1.9631
 1005MOL0     H35651   6.614   8.772  12.304 -0.4754 -0.3593  0.1139
 1005MOL0     H35652   6.753   8.777  12.195 -0.8379  1.1797 -0.5530
 1005MOL0     H35653   6.626   8.525  12.322 -1.1415  1.5503 -1.7807
 1005MOL0     H35654   6.773   8.528  12.225 -0.8914 -2.2182  0.9128
 1005MOL0     H35655   5.861   8.625  12.445  0.7904  1.7251 -0.0696
 1005MOL0     H35656   5.625   8.589  12.400 -0.6161 -0.6386 -0.5092
 1005MOL0     H35657   5.147   8.508  12.320 -0.0649  2.0823  0.3681
 1005MOL0     H35658   4.936   8.474  12.192 -0.3631  0.7561  0.8406
 1005MOL0     H35659   3.233   8.755  11.200 -2.9111 -0.8641  0.1463
 1005MOL0     H35660   3.003   8.792  11.182 -2.1117  0.8770 -1.2842
 1005MOL0     H35661   2.747   9.206  11.269  1.1961 -0.2074  1.0962
 1005MOL0     H35662   2.567   9.289  11.429 -1.5120 -0.4246  0.7429
 1005MOL0     H35663   2.188   9.074  11.459 -2.7128 -0.1041  1.7886
 1005MOL0     H35664   2.190   9.188  11.589 -1.2864 -1.7296  1.0222
 1005MOL0     H35665   2.315   9.033  11.746 -0.1482  1.3736  0.0707
 1005MOL0     H35666   2.306   8.922  11.604 -0.1607  1.1825  0.1167
 1005MOL0     H35667   2.111   8.870  11.757 -1.2189 -1.4552 -1.9225
 1005MOL0     H35668   2.070   8.925  11.599 -2.1042  0.4775  1.0562
 1005MOL0     H35669   2.101   9.126  11.816 -0.9271 -0.6494  1.4678
 1005MOL0     H35670   1.984   9.137  11.686  0.9682 -0.0566  0.0983
 1005MOL0     H35671   1.753   8.907  11.937 -1.5249  1.8595 -0.5004
 1005MOL0     H35672   2.378   8.921  11.414  0.5906  0.0190  0.5404
 1005MOL0     H35673   2.561   8.771  11.141  0.9601  2.5553 -0.2512
 1005MOL0     H35674   2.608   8.729  11.309 -0.9230  1.6799  1.0793
 1005MOL0     H35675   2.440   8.756  11.265  0.1559 -3.1249 -0.7643
 1006MOL0     O35676   3.799   8.073   3.830  0.4011  1.2639  0.3148
 1006MOL0     C35677   3.765   8.151   3.744  0.4814 -0.4105  0.2198
 1006MOL0     O35678   3.848   8.183   3.635  0.2366  0.3915 -1.0163
 1006MOL0     C35679   3.975   8.151   3.654 -0.6617  0.2688  0.0103
 1006MOL0     C35680   4.040   8.087   3.547 -0.4316  0.2200  0.2770
 1006MOL0     C35681   4.179   8.066   3.561  0.1912 -0.2441 -0.1959
 1006MOL0     C35682   4.250   8.093   3.675 -0.1719 -1.0426  0.4317
 1006MOL0     O35683   4.381   8.058   3.676 -0.3719  0.1567  0.5431
 1006MOL0     C35684   4.447   8.065   3.797 -0.4228  0.9778  0.3875
 1006MOL0     C35685   4.582   7.983   3.803 -0.3963 -0.3892  0.8496
 1006MOL0     C35686   4.674   7.993   3.927 -0.2862  0.0258  0.0199
 1006MOL0     C35687   4.825   7.951   3.890 -0.3363 -0.2846 -0.1838
 1006MOL0     C35688   4.917   7.902   4.002  0.2599  0.1419  0.6138
 1006MOL0     C35689   5.069   7.915   3.958 -0.2242  0.0610 -0.0159
 1006MOL0     C35690   5.159   7.918   4.089  0.1553  0.4998  0.4555
 1006MOL0     C35691   5.125   7.796   4.188 -0.1857 -0.5004  0.5367
 1006MOL0     N35692   5.213   7.798   4.306  0.0490  0.7508 -0.6272
 1006MOL0     C35693   5.356   7.797   4.309  0.1853 -0.6651  0.3939
 1006MOL0     C35694   5.387   7.828   4.436  0.3585  0.4310 -0.0467
 1006MOL0     C35695   5.519   7.844   4.500  0.4613  0.5659 -0.6495
 1006MOL0     C35696   5.573   7.720   4.555 -0.4386 -0.1566  0.8796
 1006MOL0     C35697   5.702   7.746   4.631 -0.1215 -0.0383 -0.5216
 1006MOL0     C35698   5.787   7.618   4.630  0.0876 -0.1470 -0.6430
 1006MOL0     O35699   5.909   7.654   4.700  0.5761  0.2389 -0.3298
 1006MOL0     C35700   6.011   7.566   4.725  0.3247  0.1199 -0.2989
 1006MOL0     C35701   6.008   7.434   4.680  0.7567 -0.2550 -0.1884
 1006MOL0     C35702   6.106   7.343   4.714 -0.1447 -0.0898 -0.5528
 1006MOL0     C35703   6.216   7.387   4.795 -0.0391 -0.3018  0.1943
 1006MOL0     C35704   6.331   7.301   4.806 -0.2006  0.6417 -0.4545
 1006MOL0     O35705   6.321   7.175   4.761  0.7175 -0.4933 -0.1112
 1006MOL0     C35706   6.421   7.090   4.762 -1.0651  0.4959  0.5692
 1006MOL0     C35707   6.513   7.095   4.651 -0.0584  0.1157  0.3122
 1006MOL0     C35708   6.646   7.043   4.673 -0.0316  0.0229 -0.1026
 1006MOL0     C35709   6.674   6.978   4.785  0.5492  0.1459 -0.7991
 1006MOL0     O35710   6.799   6.925   4.802 -0.2035  0.7117  0.0919
 1006MOL0     C35711   6.856   6.898   4.933  0.0394  0.1597 -0.3099
 1006MOL0     C35712   7.015   6.866   4.912 -0.6160  0.5367  0.8912
 1006MOL0     C35713   7.107   6.989   4.903 -0.0147  0.5129  0.8796
 1006MOL0     C35714   7.248   6.952   4.842 -0.0107  0.1551 -0.7473
 1006MOL0     C35715   7.337   7.079   4.822 -0.5841  0.4936  0.9613
 1006MOL0     C35716   7.436   7.060   4.706 -0.5581  0.4104  0.2887
 1006MOL0     C35717   7.535   6.939   4.713  0.0844 -1.0366 -0.8867
 1006MOL0     C35718   7.681   6.987   4.737  0.4642  0.4996  0.1119
 1006MOL0    Cl35719   7.709   7.085   4.880  0.1161 -0.1243  0.0824
 1006MOL0     C35720   6.578   6.962   4.883  0.0936  0.2414 -0.3667
 1006MOL0     C35721   6.452   7.012   4.874 -0.3222 -0.5094 -0.6635
 1006MOL0     O35722   6.430   7.347   4.866 -0.7174  0.6707  0.0886
 1006MOL0     C35723   6.222   7.519   4.834  0.6964  0.0166 -0.0253
 1006MOL0     C35724   6.120   7.605   4.801  0.1532 -0.1552  0.3696
 1006MOL0     N35725   5.270   7.841   4.503 -0.0438  0.7784  0.1384
 1006MOL0     N35726   5.164   7.820   4.432  0.3573 -0.2906 -0.5652
 1006MOL0     C35727   4.184   8.176   3.776  0.1915  0.3750  0.4744
 1006MOL0     C35728   4.045   8.201   3.763 -0.0684 -0.6261  0.0216
 1006MOL0     C35729   3.640   8.229   3.760  0.4657  0.3193  0.1921
 1006MOL0     C35730   3.629   8.351   3.697  0.7367  0.0137  0.6049
 1006MOL0     C35731   3.513   8.433   3.704  0.5129  0.1843  0.6018
 1006MOL0     C35732   3.405   8.384   3.778  0.7810  0.4917 -0.3104
 1006MOL0     O35733   3.283   8.442   3.798  0.2059 -0.3855 -0.3319
 1006MOL0     C35734   3.258   8.571   3.744  0.1071  0.2980 -0.5144
 1006MOL0     C35735   3.111   8.601   3.794  0.3641 -0.2453 -0.8748
 1006MOL0     C35736   3.012   8.533   3.701 -0.1108 -0.7050  0.9387
 1006MOL0     C35737   2.880   8.618   3.685  0.2954  0.1412  0.7873
 1006MOL0     C35738   2.797   8.625   3.809 -0.5603 -0.1245 -0.4177
 1006MOL0     C35739   2.718   8.639   3.901  0.5633  0.3491 -0.8902
 1006MOL0     C35740   3.423   8.273   3.859  0.8075 -0.4996  0.2921
 1006MOL0     C35741   3.536   8.197   3.849 -0.3304  1.3689  0.1029
 1006MOL0     C35742   3.520   8.064   3.931 -0.3790  0.9574  0.8166
 1006MOL0     H35743   3.981   8.049   3.464 -0.6246 -1.6477  1.2006
 1006MOL0     H35744   4.234   8.023   3.478 -0.1278  1.4380 -1.3418
 1006MOL0     H35745   4.469   8.166   3.835  0.8530  0.2903  1.5781
 1006MOL0     H35746   4.380   8.025   3.874 -1.2121  0.8725 -0.3479
 1006MOL0     H35747   4.635   8.011   3.712 -2.4595  1.0216  0.0231
 1006MOL0     H35748   4.549   7.880   3.794 -1.1155 -0.0168 -1.3934
 1006MOL0     H35749   4.639   7.923   4.003  1.3876  2.3195  3.1277
 1006MOL0     H35750   4.665   8.093   3.970  2.1860  0.2275  0.1701
 1006MOL0     H35751   4.831   7.877   3.809 -0.8984 -0.5172 -0.0171
 1006MOL0     H35752   4.864   8.044   3.848 -1.6391  1.7923  2.8481
 1006MOL0     H35753   4.906   7.966   4.090 -0.0601  0.0812  0.6171
 1006MOL0     H35754   4.879   7.803   4.028 -0.0472  0.4821  1.5002
 1006MOL0     H35755   5.086   7.834   3.886 -0.4705  0.0391 -0.0483
 1006MOL0     H35756   5.081   8.004   3.897  0.5292 -0.5318 -0.7665
 1006MOL0     H35757   5.141   8.018   4.131 -1.2694  1.6981 -2.6980
 1006MOL0     H35758   5.265   7.918   4.062  0.1402  3.2052  0.1353
 1006MOL0     H35759   5.022   7.810   4.222 -0.6378 -0.7142 -0.6890
 1006MOL0     H35760   5.140   7.703   4.133 -2.2198 -0.7598  0.3260
 1006MOL0     H35761   5.421   7.781   4.224  2.1480 -0.1925  1.7345
 1006MOL0     H35762   5.589   7.905   4.442 -1.4264  2.3968 -1.1315
 1006MOL0     H35763   5.516   7.891   4.599  0.8236 -2.9314  1.1865
 1006MOL0     H35764   5.504   7.664   4.618  0.6445 -3.8173 -0.9273
 1006MOL0     H35765   5.598   7.668   4.462 -2.7756 -0.0547  0.1399
 1006MOL0     H35766   5.677   7.771   4.735  1.3506  0.2052 -0.2161
 1006MOL0     H35767   5.757   7.823   4.577  0.8334  1.1117  1.9315
 1006MOL0     H35768   5.810   7.574   4.533 -1.8701 -0.8841 -0.8217
 1006MOL0     H35769   5.732   7.542   4.687 -1.5712  1.0003 -0.6580
 1006MOL0     H35770   5.928   7.398   4.615  2.1791 -0.7674 -1.7173
 1006MOL0     H35771   6.109   7.242   4.673 -1.8398 -0.1413 -0.6080
 1006MOL0     H35772   6.493   7.149   4.559 -0.2365  0.1674  0.3806
 1006MOL0     H35773   6.719   7.048   4.593 -0.0605  3.1928 -0.0929
 1006MOL0     H35774   6.849   6.981   5.003 -0.0382  0.2866 -0.4668
 1006MOL0     H35775   6.817   6.803   4.970  1.7252 -1.1158 -1.6210
 1006MOL0     H35776   7.045   6.793   4.988 -0.4436 -1.5312 -1.0835
 1006MOL0     H35777   7.025   6.804   4.823  0.0124  1.4280  0.3126
 1006MOL0     H35778   7.059   7.064   4.840  0.5638  0.9667  0.9653
 1006MOL0     H35779   7.118   7.040   4.999  0.6713  0.8890  0.6127
 1006MOL0     H35780   7.222   6.904   4.748  0.8086  0.2531 -1.0348
 1006MOL0     H35781   7.298   6.870   4.893  2.6637  2.0477 -0.1081
 1006MOL0     H35782   7.390   7.105   4.914 -1.1207 -0.5586  1.5788
 1006MOL0     H35783   7.277   7.169   4.802 -0.6709  0.1479 -0.4981
 1006MOL0     H35784   7.382   7.053   4.611 -2.4492  0.6890  1.2891
 1006MOL0     H35785   7.499   7.149   4.706  0.6281 -0.3964  1.6856
 1006MOL0     H35786   7.517   6.872   4.628 -2.8063 -0.5681 -0.7512
 1006MOL0     H35787   7.514   6.869   4.794 -1.9243  1.6854  1.1479
 1006MOL0     H35788   7.751   6.903   4.744 -1.2911 -1.3675 -2.7825
 1006MOL0     H35789   7.705   7.041   4.645 -1.2529 -0.1741 -0.7631
 1006MOL0     H35790   6.593   6.892   4.964 -1.9310 -0.8116 -0.8295
 1006MOL0     H35791   6.374   7.004   4.950  0.5782 -0.3293  0.3066
 1006MOL0     H35792   6.306   7.547   4.897  0.4650  1.0641 -0.1560
 1006MOL0     H35793   6.108   7.710   4.826  2.3037  0.9071 -2.4478
 1006MOL0     H35794   4.235   8.229   3.856  2.6951 -0.7381 -0.2830
 1006MOL0     H35795   3.985   8.250   3.839  0.4711  0.8128 -0.4486
 1006MOL0     H35796   3.704   8.393   3.631  1.1135 -2.1920 -0.4528
 1006MOL0     H35797   3.515   8.523   3.644  1.0864 -2.2197 -3.4005
 1006MOL0     H35798   3.258   8.563   3.635  0.8381 -0.7170 -0.4558
 1006MOL0     H35799   3.331   8.647   3.773  1.0233 -0.8894  0.3754
 1006MOL0     H35800   3.094   8.708   3.805  0.5932 -0.1285 -1.6370
 1006MOL0     H35801   3.098   8.563   3.896  0.3831 -0.3428 -0.9085
 1006MOL0     H35802   2.978   8.435   3.737 -0.7738 -2.2400 -3.2944
 1006MOL0     H35803   3.057   8.512   3.604 -1.7322  0.8436 -0.1951
 1006MOL0     H35804   2.903   8.723   3.666 -0.1041 -0.2756 -2.6754
 1006MOL0     H35805   2.831   8.573   3.599  0.2822 -2.9003  2.2585
 1006MOL0     H35806   2.635   8.641   3.968  1.3513  2.8795  0.1276
 1006MOL0     H35807   3.337   8.239   3.915  0.3396  0.1028 -0.0510
 1006MOL0     H35808   3.599   8.069   4.006  0.7217  0.3613 -0.2672
 1006MOL0     H35809   3.421   8.059   3.977 -0.2726  3.8757  1.5607
 1006MOL0     H35810   3.533   7.975   3.869  0.2209  1.2652  0.4898
 1007MOL0     O35811   7.297   4.667   0.119  0.2960 -0.3399 -1.0326
 1007MOL0     C35812   7.205   4.689   0.047  0.0106  0.3625  0.5039
 1007MOL0     O35813   7.182   4.612  -0.064  0.1133  0.2236  0.8035
 1007MOL0     C35814   7.106   4.663  -0.159 -0.1442  0.1495  0.1109
 1007MOL0     C35815   7.141   4.771  -0.239 -0.1528  0.5386  0.6828
 1007MOL0     C35816   7.055   4.808  -0.340 -0.8778 -0.3900  0.3393
 1007MOL0     C35817   6.925   4.757  -0.354 -0.6282 -0.3969 -0.0602
 1007MOL0     O35818   6.836   4.805  -0.443  0.1447  0.0140 -0.5353
 1007MOL0     C35819   6.854   4.918  -0.529 -0.0127 -0.3768  0.0067
 1007MOL0     C35820   6.756   4.902  -0.641  0.3859  0.3068  0.4308
 1007MOL0     C35821   6.797   4.998  -0.760  0.1235 -0.1668  0.5114
 1007MOL0     C35822   6.907   4.934  -0.851  0.2125  0.2871  0.6166
 1007MOL0     C35823   6.962   5.024  -0.957  0.2916  0.0991  0.1729
 1007MOL0     C35824   7.063   5.133  -0.908  0.1007 -0.7352  0.0921
 1007MOL0     C35825   7.038   5.269  -0.989 -0.4826 -0.3861  0.1054
 1007MOL0     C35826   7.100   5.251  -1.129  0.4300  0.4312 -0.3770
 1007MOL0     N35827   7.241   5.246  -1.130 -0.2373  0.5029 -0.6611
 1007MOL0     C35828   7.315   5.134  -1.138  0.0085 -0.0041  0.6006
 1007MOL0     C35829   7.437   5.182  -1.176  0.0334 -0.0985  0.1372
 1007MOL0     C35830   7.566   5.110  -1.203 -0.7472 -0.4827 -0.1466
 1007MOL0     C35831   7.604   5.109  -1.347  1.0419 -0.6474  0.2394
 1007MOL0     C35832   7.711   5.010  -1.396 -0.8406 -0.7938 -0.3503
 1007MOL0     C35833   7.730   5.020  -1.549  0.3992  0.2241 -0.1752
 1007MOL0     O35834   7.789   5.146  -1.596 -0.5930  0.4795 -0.2636
 1007MOL0     C35835   7.924   5.170  -1.589 -0.5939  0.9397  1.3811
 1007MOL0     C35836   7.971   5.290  -1.653 -0.0858 -0.3023  0.1110
 1007MOL0     C35837   8.105   5.322  -1.650 -0.8079  0.3282  0.2527
 1007MOL0     C35838   8.200   5.235  -1.598  0.0712 -0.1369  0.2661
 1007MOL0     C35839   8.333   5.289  -1.578 -0.0525 -0.6508  0.3282
 1007MOL0     O35840   8.426   5.197  -1.566  0.4772  0.2494  0.3879
 1007MOL0     C35841   8.559   5.235  -1.555  0.3416 -1.0884 -0.0102
 1007MOL0     C35842   8.643   5.169  -1.468 -1.0173 -0.1223 -0.3784
 1007MOL0     C35843   8.784   5.203  -1.461 -0.0962 -0.6603  0.7701
 1007MOL0     C35844   8.826   5.318  -1.545 -0.4066 -0.1034  0.1417
 1007MOL0     O35845   8.956   5.360  -1.553 -0.1959  0.4825 -0.3057
 1007MOL0     C35846   9.043   5.314  -1.450 -0.5848 -0.2485  0.6071
 1007MOL0     C35847   9.181   5.380  -1.458  0.6736 -0.7191 -0.3906
 1007MOL0     C35848   9.297   5.315  -1.377  0.1898 -0.7834  0.1182
 1007MOL0     C35849   9.419   5.391  -1.415 -0.9252 -0.2358  0.8342
 1007MOL0     C35850   9.539   5.358  -1.325  0.2899  0.1681  0.5623
 1007MOL0     C35851   9.602   5.227  -1.371  0.7156 -0.9287 -0.0463
 1007MOL0     C35852   9.691   5.235  -1.499 -0.1231 -0.2315  0.2752
 1007MOL0     C35853   9.796   5.131  -1.516  0.4119  0.3609  0.9195
 1007MOL0    Cl35854   9.744   4.962  -1.514 -0.2675  0.1728  0.0601
 1007MOL0     C35855   8.736   5.378  -1.634 -0.7148  0.2891  0.0143
 1007MOL0     C35856   8.616   5.328  -1.642  0.1895  0.5854 -0.5513
 1007MOL0     O35857   8.346   5.411  -1.562 -0.0403  0.6054 -0.4148
 1007MOL0     C35858   8.156   5.114  -1.546  0.3079  0.3886  0.2409
 1007MOL0     C35859   8.019   5.079  -1.556  0.0388  0.3148  0.6222
 1007MOL0     N35860   7.427   5.322  -1.193 -0.4615  0.6026  0.0894
 1007MOL0     N35861   7.314   5.357  -1.141 -0.5218 -0.3487 -0.3216
 1007MOL0     C35862   6.893   4.647  -0.275 -0.2021  0.4954 -0.1352
 1007MOL0     C35863   6.985   4.600  -0.179 -0.4546  0.0689 -0.2273
 1007MOL0     C35864   7.132   4.812   0.082 -0.9485 -0.5686 -0.4265
 1007MOL0     C35865   6.996   4.797   0.107 -0.5125 -0.4029  0.3439
 1007MOL0     C35866   6.907   4.914   0.141 -0.0930  0.4929  0.3324
 1007MOL0     C35867   6.969   5.037   0.146 -0.1867  0.5655 -1.2430
 1007MOL0     O35868   6.893   5.146   0.183  0.2868  0.2392  0.3674
 1007MOL0     C35869   6.943   5.286   0.174  0.2763 -0.1229  0.7321
 1007MOL0     C35870   6.838   5.392   0.220  0.3304  0.4280  0.5327
 1007MOL0     C35871   6.890   5.532   0.182  0.1051  0.2080  1.0950
 1007MOL0     C35872   6.807   5.644   0.252  0.1357 -0.9571  0.4943
 1007MOL0     C35873   6.655   5.629   0.235 -0.2047  0.6711  0.1313
 1007MOL0     C35874   6.546   5.570   0.237 -0.0813  0.7443  1.0556
 1007MOL0     C35875   7.109   5.052   0.129  0.6994 -0.5915 -0.2287
 1007MOL0     C35876   7.192   4.937   0.110  0.5298 -0.8412 -0.1854
 1007MOL0     C35877   7.342   4.959   0.097  0.0332  0.3629 -0.4585
 1007MOL0     H35878   7.238   4.821  -0.232  0.6386 -0.8886  0.3254
 1007MOL0     H35879   7.091   4.892  -0.398 -0.2909  1.0049  2.6017
 1007MOL0     H35880   6.845   5.013  -0.474 -0.8923 -0.7326  0.5022
 1007MOL0     H35881   6.958   4.922  -0.562 -0.0988  1.0723 -0.1561
 1007MOL0     H35882   6.659   4.940  -0.608  0.0961  0.5660 -0.6814
 1007MOL0     H35883   6.748   4.797  -0.671 -1.4084  0.5928 -0.2068
 1007MOL0     H35884   6.832   5.096  -0.726  1.5226  0.8116 -3.1786
 1007MOL0     H35885   6.707   5.020  -0.818  2.1686  1.3373 -2.3469
 1007MOL0     H35886   6.990   4.912  -0.784  1.5697 -1.3432 -1.4496
 1007MOL0     H35887   6.876   4.839  -0.896  3.3345 -0.1125 -0.9660
 1007MOL0     H35888   7.016   4.963  -1.030 -0.1921  1.1797 -1.1393
 1007MOL0     H35889   6.872   5.064  -1.005 -0.8129 -0.2345  1.8652
 1007MOL0     H35890   7.031   5.141  -0.803 -1.5176 -3.2776 -0.1051
 1007MOL0     H35891   7.167   5.100  -0.895  0.0270 -0.9632  0.1070
 1007MOL0     H35892   7.086   5.352  -0.937  0.8311 -1.5549  0.8217
 1007MOL0     H35893   6.932   5.296  -1.000  0.1495  2.2198 -0.3542
 1007MOL0     H35894   7.071   5.155  -1.173  4.1284 -1.2935  0.5398
 1007MOL0     H35895   7.059   5.330  -1.194  0.6796 -0.3557 -1.5236
 1007MOL0     H35896   7.296   5.028  -1.123  0.9977 -0.1895  0.6071
 1007MOL0     H35897   7.652   5.149  -1.148 -1.7165  1.8122 -0.1427
 1007MOL0     H35898   7.558   5.005  -1.172  0.3149 -0.3630  0.6005
 1007MOL0     H35899   7.519   5.084  -1.411  0.3411  1.0606  0.4511
 1007MOL0     H35900   7.628   5.207  -1.388 -0.3124 -0.5792 -0.4612
 1007MOL0     H35901   7.689   4.904  -1.379 -0.2679 -0.8184  0.2687
 1007MOL0     H35902   7.811   5.034  -1.359 -0.5226 -1.9906 -0.3904
 1007MOL0     H35903   7.631   5.025  -1.595  0.1044 -0.7372  0.3278
 1007MOL0     H35904   7.790   4.935  -1.581 -2.5414 -2.0355 -0.1392
 1007MOL0     H35905   7.906   5.359  -1.706 -1.1795 -0.9260  0.5778
 1007MOL0     H35906   8.135   5.420  -1.684 -0.2419  0.7260  1.8229
 1007MOL0     H35907   8.601   5.090  -1.406 -0.6840 -0.0597 -0.0644
 1007MOL0     H35908   8.852   5.147  -1.398  0.2520 -0.7255  0.3366
 1007MOL0     H35909   9.010   5.335  -1.347  1.4166  2.4299  0.8197
 1007MOL0     H35910   9.055   5.206  -1.459 -2.7995 -0.6336  1.4260
 1007MOL0     H35911   9.207   5.382  -1.564 -0.0612  1.8141 -0.5968
 1007MOL0     H35912   9.162   5.482  -1.423 -0.6851 -0.8746 -0.6163
 1007MOL0     H35913   9.283   5.314  -1.268  0.5654 -1.4686  0.1689
 1007MOL0     H35914   9.304   5.210  -1.405 -0.7163  0.1993 -4.6313
 1007MOL0     H35915   9.394   5.496  -1.430 -4.2325 -0.9069  0.9468
 1007MOL0     H35916   9.448   5.361  -1.517  4.8999 -0.9831  2.3627
 1007MOL0     H35917   9.498   5.340  -1.225 -3.1742 -2.1081 -1.0713
 1007MOL0     H35918   9.610   5.441  -1.326  0.1657  0.2747  0.3826
 1007MOL0     H35919   9.665   5.213  -1.283 -0.7999 -0.4326  1.1621
 1007MOL0     H35920   9.521   5.153  -1.367 -1.4268  1.3144  0.2912
 1007MOL0     H35921   9.742   5.332  -1.508 -2.1761  0.7543 -1.8112
 1007MOL0     H35922   9.620   5.244  -1.582  0.1070  1.5427  0.2204
 1007MOL0     H35923   9.835   5.154  -1.615 -0.4083  3.0304  1.1378
 1007MOL0     H35924   9.876   5.140  -1.441  0.3491 -1.7220  1.3107
 1007MOL0     H35925   8.787   5.448  -1.700 -1.0650  0.3376 -0.2050
 1007MOL0     H35926   8.559   5.378  -1.721 -1.0696 -0.2743 -0.2262
 1007MOL0     H35927   8.220   5.052  -1.483  0.4116 -2.9655 -2.7758
 1007MOL0     H35928   7.988   4.983  -1.516  0.2275 -0.2660 -0.5941
 1007MOL0     H35929   6.795   4.601  -0.275  0.1021 -0.1947 -1.3835
 1007MOL0     H35930   6.947   4.517  -0.119  0.1878  0.7499  1.1857
 1007MOL0     H35931   6.952   4.699   0.091 -2.6376  0.9628 -3.4017
 1007MOL0     H35932   6.798   4.907   0.140 -0.1336  0.7654  1.5234
 1007MOL0     H35933   6.989   5.305   0.076  0.0076  1.1055  0.8252
 1007MOL0     H35934   7.028   5.297   0.242  0.6018  0.9669  0.1934
 1007MOL0     H35935   6.836   5.383   0.329  0.0761  1.0919  0.5859
 1007MOL0     H35936   6.742   5.374   0.172  0.7242  0.4666 -0.2854
 1007MOL0     H35937   6.895   5.545   0.073 -1.9748  2.6474  1.1880
 1007MOL0     H35938   6.989   5.546   0.226  2.1071 -0.9866 -2.5747
 1007MOL0     H35939   6.837   5.646   0.357 -0.3464 -1.2706  0.6430
 1007MOL0     H35940   6.828   5.738   0.200 -3.1601  0.4771  1.4886
 1007MOL0     H35941   6.457   5.511   0.235  0.9500 -0.8285 -0.7265
 1007MOL0     H35942   7.160   5.146   0.149  3.3418 -2.0146  0.2753
 1007MOL0     H35943   7.364   5.064   0.119  0.1931 -0.1231  2.0048
 1007MOL0     H35944   7.400   4.908   0.174 -0.8386 -1.0882 -0.7210
 1007MOL0     H35945   7.380   4.935  -0.003  1.9078  0.7334  0.1297
 1008MOL0     O35946   7.443   0.119  10.326 -0.4218  0.1286 -0.6449
 1008MOL0     C35947   7.376   0.072  10.418 -0.5735  0.1890 -0.0516
 1008MOL0     O35948   7.433   0.019  10.531  0.3069  0.3182  0.0228
 1008MOL0     C35949   7.565   0.026  10.543 -0.7114  0.1679  0.0759
 1008MOL0     C35950   7.647  -0.072  10.481  0.2612  0.4529  0.5310
 1008MOL0     C35951   7.783  -0.074  10.512  0.2950  0.7250  0.1852
 1008MOL0     C35952   7.841   0.029  10.590  0.9102 -0.5548 -0.6075
 1008MOL0     O35953   7.967   0.016  10.634  0.2662 -0.3341  0.3177
 1008MOL0     C35954   8.051  -0.107  10.626  0.4994  0.1272  0.6357
 1008MOL0     C35955   8.179  -0.080  10.687  0.8284  0.1665 -0.9975
 1008MOL0     C35956   8.263  -0.212  10.684 -0.0507  0.1271  0.4751
 1008MOL0     C35957   8.401  -0.185  10.747  1.0981  0.6919  0.2664
 1008MOL0     C35958   8.491  -0.309  10.727  0.2852  0.1044 -0.0697
 1008MOL0     C35959   8.635  -0.276  10.773  1.2994  0.6777  0.0453
 1008MOL0     C35960   8.738  -0.388  10.725 -0.0478  0.0673  0.6069
 1008MOL0     C35961   8.886  -0.340  10.728 -0.3088 -0.7879 -0.5857
 1008MOL0     N35962   8.942  -0.362  10.862  1.2594 -0.0233  0.0063
 1008MOL0     C35963   9.058  -0.419  10.886 -0.8425  0.3284  0.6232
 1008MOL0     C35964   9.073  -0.436  11.017  0.3475  0.6052 -0.8242
 1008MOL0     C35965   9.185  -0.508  11.080 -0.3166 -1.0403  0.7274
 1008MOL0     C35966   9.140  -0.590  11.200 -0.5348 -0.2010  0.9924
 1008MOL0     C35967   9.221  -0.722  11.205  0.4169  0.7589 -0.5435
 1008MOL0     C35968   9.370  -0.696  11.247  0.2468 -0.2944 -0.5040
 1008MOL0     O35969   9.437  -0.824  11.266 -0.5886 -0.1771 -0.0339
 1008MOL0     C35970   9.570  -0.844  11.236  0.3126 -0.1292 -0.8282
 1008MOL0     C35971   9.669  -0.797  11.323 -0.4959  0.2311 -0.0186
 1008MOL0     C35972   9.802  -0.832  11.296  1.0996 -0.5718  0.4818
 1008MOL0     C35973   9.831  -0.925  11.186 -0.0466 -0.4117  0.2503
 1008MOL0     C35974   9.968  -0.955  11.156  0.0601 -0.4045  0.2344
 1008MOL0     O35975  10.055  -0.906  11.240  0.3637  0.5551 -0.7264
 1008MOL0     C35976  10.186  -0.934  11.230 -0.1348 -0.4882 -0.7845
 1008MOL0     C35977  10.253  -0.949  11.348  0.5761 -0.1119  0.5816
 1008MOL0     C35978  10.383  -0.998  11.354 -0.3308 -0.0339  0.1989
 1008MOL0     C35979  10.459  -1.016  11.234  0.1260  0.4340  0.0240
 1008MOL0     O35980  10.589  -1.056  11.222 -0.0711  0.2079 -0.7356
 1008MOL0     C35981  10.666  -1.077  11.342 -0.5730 -0.0119 -0.0902
 1008MOL0     C35982  10.813  -1.082  11.311  0.4608  0.3020 -0.1688
 1008MOL0     C35983  10.893  -1.135  11.424 -0.7557  0.3503  0.2133
 1008MOL0     C35984  11.048  -1.120  11.404  0.2150 -0.4716 -0.0286
 1008MOL0     C35985  11.094  -0.997  11.486  0.0959 -0.7995 -0.6597
 1008MOL0     C35986  11.245  -0.968  11.459  0.2485  0.6634 -0.0817
 1008MOL0     C35987  11.287  -0.833  11.522 -0.0220 -0.1245  0.3094
 1008MOL0     C35988  11.392  -0.764  11.426 -0.0867  0.0782 -0.4083
 1008MOL0    Cl35989  11.298  -0.711  11.272  0.3199  0.0626  0.0888
 1008MOL0     C35990  10.392  -0.996  11.114 -0.1815 -0.2581  0.9372
 1008MOL0     C35991  10.255  -0.965  11.108  0.6580 -0.1266 -1.0948
 1008MOL0     O35992   9.986  -1.029  11.062 -0.0647  1.3241 -0.3317
 1008MOL0     C35993   9.725  -0.975  11.100  0.7068 -0.1395 -0.3020
 1008MOL0     C35994   9.589  -0.938  11.132 -0.4333  0.2417 -0.0739
 1008MOL0     N35995   8.965  -0.378  11.083  0.8954 -0.3551 -0.9299
 1008MOL0     N35996   8.887  -0.332  10.986 -0.3413  0.5027 -0.4091
 1008MOL0     C35997   7.756   0.124  10.652  0.0270  0.8837 -0.4599
 1008MOL0     C35998   7.611   0.123  10.628 -0.9223 -0.2306 -0.1538
 1008MOL0     C35999   7.228   0.086  10.420 -0.6290  0.1826 -0.4496
 1008MOL0     C36000   7.163  -0.004  10.503  0.2735  0.1555  0.0294
 1008MOL0     C36001   7.024  -0.001  10.521  0.9236  0.1862  1.1602
 1008MOL0     C36002   6.946   0.088  10.450  0.3662 -0.4825  0.6474
 1008MOL0     O36003   6.810   0.091  10.468  0.0651  0.2951  0.2137
 1008MOL0     C36004   6.714   0.156  10.381 -0.3787 -0.8584  0.5625
 1008MOL0     C36005   6.573   0.127  10.433 -0.1474  0.2604 -0.4209
 1008MOL0     C36006   6.519  -0.012  10.403 -0.1244 -0.5984  0.0483
 1008MOL0     C36007   6.436  -0.035  10.268  0.4272 -0.5862 -0.0281
 1008MOL0     C36008   6.518  -0.013  10.144 -0.2429  0.1216 -0.7186
 1008MOL0     C36009   6.582   0.010  10.049 -1.2186  0.1755 -0.3569
 1008MOL0     C36010   7.015   0.170  10.358  0.9248 -0.3873  0.6263
 1008MOL0     C36011   7.155   0.172  10.332  0.6475 -0.4088 -0.0121
 1008MOL0     C36012   7.204   0.278  10.241  0.1247 -0.2830 -1.0060
 1008MOL0     H36013   7.594  -0.140  10.415  0.7381  0.7836 -0.1924
 1008MOL0     H36014   7.842  -0.151  10.462 -2.5105 -1.3456 -0.1685
 1008MOL0     H36015   7.996  -0.177  10.690  0.8224 -1.7543 -1.0697
 1008MOL0     H36016   8.073  -0.151  10.528 -0.3766 -0.9414  0.9010
 1008MOL0     H36017   8.172  -0.051  10.792  1.4412 -0.4601 -0.7750
 1008MOL0     H36018   8.242  -0.006  10.636  1.6915  0.1592  0.0230
 1008MOL0     H36019   8.270  -0.252  10.582  3.5364  1.0254  0.2321
 1008MOL0     H36020   8.212  -0.290  10.741 -0.9279  0.7086  0.5091
 1008MOL0     H36021   8.450  -0.103  10.692  0.6302  1.5289  1.0773
 1008MOL0     H36022   8.401  -0.155  10.852 -0.0798  5.3350 -0.8116
 1008MOL0     H36023   8.448  -0.393  10.782  0.8809  0.2294  0.6042
 1008MOL0     H36024   8.486  -0.339  10.622 -0.6609 -0.0434  0.0109
 1008MOL0     H36025   8.658  -0.175  10.740  0.6325  1.6204  2.2891
 1008MOL0     H36026   8.632  -0.285  10.882  0.0119 -0.6425 -0.0622
 1008MOL0     H36027   8.724  -0.416  10.620 -0.8911 -0.8629  0.9521
 1008MOL0     H36028   8.738  -0.474  10.792 -1.8191 -0.9014 -0.5653
 1008MOL0     H36029   8.939  -0.402  10.655  1.7042  0.6539 -0.4322
 1008MOL0     H36030   8.901  -0.234  10.704  0.0511 -0.5680  0.5233
 1008MOL0     H36031   9.122  -0.468  10.813 -0.0936  2.7113 -0.4225
 1008MOL0     H36032   9.231  -0.571  11.003  0.9131 -1.0840  1.4774
 1008MOL0     H36033   9.266  -0.442  11.113  1.2015 -1.4131 -1.9451
 1008MOL0     H36034   9.149  -0.536  11.295 -1.7570  0.8988  0.5077
 1008MOL0     H36035   9.036  -0.619  11.182 -0.8005  1.1986  0.1882
 1008MOL0     H36036   9.218  -0.769  11.106 -1.8998 -1.0544  0.2990
 1008MOL0     H36037   9.174  -0.785  11.281  1.3379 -0.6486 -1.1097
 1008MOL0     H36038   9.355  -0.638  11.338 -1.0839 -0.1609 -0.7768
 1008MOL0     H36039   9.422  -0.631  11.176 -2.3271 -0.8457 -3.1087
 1008MOL0     H36040   9.645  -0.738  11.411  0.8138  1.3960 -0.4195
 1008MOL0     H36041   9.888  -0.797  11.351  1.2781  0.4198 -0.3968
 1008MOL0     H36042  10.201  -0.941  11.443  0.9137 -1.1824  0.8780
 1008MOL0     H36043  10.424  -1.024  11.452 -1.3556  2.5337  1.3964
 1008MOL0     H36044  10.643  -0.989  11.404  0.5937  0.5145 -0.3766
 1008MOL0     H36045  10.636  -1.161  11.405 -0.6086 -0.6973 -1.0073
 1008MOL0     H36046  10.825  -1.145  11.221  2.4438  0.0679  0.2079
 1008MOL0     H36047  10.835  -0.981  11.275 -1.4327  0.1893 -1.8217
 1008MOL0     H36048  10.863  -1.093  11.520  0.2508  2.0901 -0.2000
 1008MOL0     H36049  10.866  -1.240  11.438  2.2379 -0.2527  2.2685
 1008MOL0     H36050  11.076  -1.100  11.300 -0.2088  2.4419  0.3086
 1008MOL0     H36051  11.091  -1.213  11.441 -1.1932 -0.1185  2.7199
 1008MOL0     H36052  11.076  -1.007  11.594  0.2157  0.1519 -0.5385
 1008MOL0     H36053  11.036  -0.910  11.451  1.2050 -0.0250 -0.6407
 1008MOL0     H36054  11.316  -1.037  11.505 -1.0775 -0.3880  0.4959
 1008MOL0     H36055  11.273  -0.977  11.353  0.4370 -2.4959  0.1218
 1008MOL0     H36056  11.326  -0.847  11.623  0.6751  3.6400  0.7231
 1008MOL0     H36057  11.197  -0.771  11.528 -0.2642 -0.2358 -1.5040
 1008MOL0     H36058  11.436  -0.686  11.488  1.1904 -2.0268  1.4656
 1008MOL0     H36059  11.479  -0.829  11.411  0.5620 -0.1144  3.3118
 1008MOL0     H36060  10.448  -1.025  11.025 -2.4931 -0.4142 -0.5725
 1008MOL0     H36061  10.198  -0.986  11.018 -1.2489 -0.3202  0.1131
 1008MOL0     H36062   9.730  -1.052  11.024 -0.4993 -2.5183  1.8800
 1008MOL0     H36063   9.513  -0.980  11.068  1.6593 -2.8639 -0.7105
 1008MOL0     H36064   7.799   0.188  10.728 -1.5834  0.5981  0.7413
 1008MOL0     H36065   7.561   0.211  10.667  0.8821  1.4492 -1.3994
 1008MOL0     H36066   7.211  -0.073  10.572 -0.8204 -0.0723  0.5698
 1008MOL0     H36067   6.986  -0.077  10.588  2.9635 -0.7554  1.3514
 1008MOL0     H36068   6.731   0.110  10.283 -1.0971  2.1881 -1.1261
 1008MOL0     H36069   6.740   0.261  10.366 -1.8054 -0.5338  0.2680
 1008MOL0     H36070   6.508   0.198  10.381  0.8532  0.8557 -0.8883
 1008MOL0     H36071   6.569   0.140  10.541  1.5462  0.8520 -0.3978
 1008MOL0     H36072   6.446  -0.029  10.483 -1.0278  1.4116 -0.3027
 1008MOL0     H36073   6.583  -0.098  10.427 -1.9174 -1.3102  2.6916
 1008MOL0     H36074   6.388  -0.133  10.262 -1.6552  0.4329 -3.4346
 1008MOL0     H36075   6.349   0.033  10.274  1.6623  0.9080  3.6362
 1008MOL0     H36076   6.655   0.036   9.975  0.7983  0.1507  1.5162
 1008MOL0     H36077   6.957   0.244  10.304 -0.3095 -2.0004 -0.3734
 1008MOL0     H36078   7.310   0.295  10.264 -0.3214  0.8857  0.2991
 1008MOL0     H36079   7.202   0.232  10.141  3.0682 -3.7053  0.2781
 1008MOL0     H36080   7.153   0.375  10.237  1.7854  0.6642 -0.3834
 1009MOL0     O36081   4.527   4.276   9.529 -0.2051  0.3421  0.0010
 1009MOL0     C36082   4.428   4.336   9.578 -0.0661 -0.2221 -0.0316
 1009MOL0     O36083   4.432   4.474   9.600 -0.2897 -0.1527 -0.2159
 1009MOL0     C36084   4.545   4.543   9.571 -0.5822  0.3128  1.3211
 1009MOL0     C36085   4.595   4.536   9.439 -0.0477  0.0147  0.1223
 1009MOL0     C36086   4.712   4.598   9.394 -0.4491 -0.5035 -0.5202
 1009MOL0     C36087   4.792   4.678   9.494 -0.7566  0.2873  0.2621
 1009MOL0     O36088   4.916   4.729   9.469  0.2141  0.1783 -0.2101
 1009MOL0     C36089   4.949   4.745   9.329  0.3577 -0.0483  0.4168
 1009MOL0     C36090   5.091   4.802   9.320 -0.6392  0.8242  0.0821
 1009MOL0     C36091   5.115   4.864   9.177  0.5429  0.8273  0.0178
 1009MOL0     C36092   5.245   4.953   9.158  0.5662  0.7698 -0.3811
 1009MOL0     C36093   5.264   4.978   9.010  0.3179  0.0162  0.2847
 1009MOL0     C36094   5.398   5.049   8.981  0.3613  0.0154 -0.7908
 1009MOL0     C36095   5.436   5.067   8.832  0.6410 -1.1016  0.8296
 1009MOL0     C36096   5.312   5.107   8.741 -0.3457 -0.4427  0.4580
 1009MOL0     N36097   5.355   5.135   8.603 -0.3950 -0.5553  0.1519
 1009MOL0     C36098   5.401   5.055   8.505 -0.2195  0.6737  0.0980
 1009MOL0     C36099   5.412   5.117   8.391 -0.0087 -0.6749  0.6322
 1009MOL0     C36100   5.461   5.065   8.259  0.7570 -0.8646  0.1488
 1009MOL0     C36101   5.605   5.107   8.229  0.4815 -0.7721 -0.3375
 1009MOL0     C36102   5.633   5.143   8.086 -0.1756  0.2002 -0.8625
 1009MOL0     C36103   5.648   5.023   7.998  0.7132 -0.0058  0.6277
 1009MOL0     O36104   5.737   4.926   8.050 -0.6255 -0.2785 -0.5695
 1009MOL0     C36105   5.872   4.937   8.019  0.2924 -0.4473  1.6627
 1009MOL0     C36106   5.958   4.830   8.038  0.4349  0.1996 -0.2107
 1009MOL0     C36107   6.091   4.834   8.006  0.2952 -0.3299 -0.2957
 1009MOL0     C36108   6.152   4.952   7.967 -0.1933 -0.0978 -0.5707
 1009MOL0     C36109   6.302   4.964   7.942  0.1567  0.3790  0.8572
 1009MOL0     O36110   6.372   4.845   7.943  0.2313  0.3106 -0.0932
 1009MOL0     C36111   6.502   4.825   7.906  0.2210  0.1776  0.3293
 1009MOL0     C36112   6.600   4.912   7.852 -0.3291 -0.5061 -0.8347
 1009MOL0     C36113   6.730   4.872   7.820 -0.4219 -0.3264 -0.0307
 1009MOL0     C36114   6.774   4.742   7.835  0.6319 -0.9699  0.2340
 1009MOL0     O36115   6.908   4.733   7.816 -1.2692  0.1654 -1.1953
 1009MOL0     C36116   6.949   4.598   7.824  0.1081  1.0834 -0.4587
 1009MOL0     C36117   7.099   4.582   7.782 -0.4713 -0.2812 -0.6413
 1009MOL0     C36118   7.108   4.559   7.633  0.5589  0.3383 -0.4206
 1009MOL0     C36119   7.263   4.575   7.595  0.0731 -0.1230  0.1375
 1009MOL0     C36120   7.304   4.520   7.453  0.7553 -0.2355 -0.5156
 1009MOL0     C36121   7.456   4.506   7.450  0.4170  0.3771 -1.5942
 1009MOL0     C36122   7.518   4.522   7.316  0.5895  0.1405  0.8019
 1009MOL0     C36123   7.671   4.485   7.321  0.6801  0.2473 -0.1851
 1009MOL0    Cl36124   7.748   4.598   7.432  0.2083  0.0911 -0.5294
 1009MOL0     C36125   6.675   4.652   7.895 -0.7400  0.0989  1.0721
 1009MOL0     C36126   6.541   4.693   7.924  0.0126  0.3964  0.0597
 1009MOL0     O36127   6.343   5.075   7.919  0.0611  0.0395 -0.3217
 1009MOL0     C36128   6.069   5.061   7.946  0.1939 -0.2919 -0.5429
 1009MOL0     C36129   5.936   5.053   7.968  0.0709  0.8581 -0.0933
 1009MOL0     N36130   5.372   5.243   8.421 -0.2370  0.1147  1.1214
 1009MOL0     N36131   5.338   5.256   8.545 -0.0955  0.0169  0.5015
 1009MOL0     C36132   4.736   4.690   9.616  0.0118 -0.6314 -0.8103
 1009MOL0     C36133   4.618   4.621   9.651  1.0480 -0.0237 -0.4390
 1009MOL0     C36134   4.303   4.261   9.607  0.3615 -0.0610  0.0590
 1009MOL0     C36135   4.186   4.333   9.628  0.9475  0.3228 -0.0331
 1009MOL0     C36136   4.068   4.274   9.680  0.9113 -0.3828  0.2623
 1009MOL0     C36137   4.060   4.137   9.708 -0.2571  0.5373  0.1199
 1009MOL0     O36138   3.949   4.071   9.743 -0.1705  0.0940 -1.1923
 1009MOL0     C36139   3.831   4.142   9.792  0.5068 -0.4916  0.6783
 1009MOL0     C36140   3.744   4.042   9.858 -0.1601  0.5150  0.1695
 1009MOL0     C36141   3.660   4.090   9.983  0.4258  0.4390 -0.3680
 1009MOL0     C36142   3.594   3.967  10.048  0.3181  0.0551 -1.2826
 1009MOL0     C36143   3.458   3.951  10.000  0.1687 -0.4751  0.1219
 1009MOL0     C36144   3.346   3.948   9.950  0.7274 -0.1634 -1.0260
 1009MOL0     C36145   4.164   4.058   9.671 -0.0030  0.3202  0.2207
 1009MOL0     C36146   4.288   4.114   9.638 -1.1786 -0.6786 -0.7538
 1009MOL0     C36147   4.416   4.036   9.611 -0.6888 -0.5533  0.0533
 1009MOL0     H36148   4.537   4.482   9.364 -3.2700  0.3401  2.1806
 1009MOL0     H36149   4.744   4.593   9.291  0.1140 -2.1265 -0.2966
 1009MOL0     H36150   4.949   4.646   9.282 -0.9396  0.9211 -1.7733
 1009MOL0     H36151   4.866   4.802   9.286  0.5513 -0.6881 -0.8573
 1009MOL0     H36152   5.160   4.718   9.331 -0.2257  0.6040 -3.1712
 1009MOL0     H36153   5.117   4.874   9.399  0.2995  0.4222  0.1479
 1009MOL0     H36154   5.028   4.925   9.152 -0.1002  0.2616  0.8060
 1009MOL0     H36155   5.120   4.788   9.099  0.0605  1.3668 -0.5504
 1009MOL0     H36156   5.236   5.051   9.206  6.7243  1.9150 -0.7165
 1009MOL0     H36157   5.334   4.905   9.199 -0.8115 -1.9739 -0.3603
 1009MOL0     H36158   5.264   4.887   8.950 -3.1158  0.7438 -1.0746
 1009MOL0     H36159   5.197   5.053   8.966  1.5642  0.7606 -0.4070
 1009MOL0     H36160   5.406   5.146   9.030  0.4681 -0.1233 -0.5318
 1009MOL0     H36161   5.480   4.994   9.028  0.5421 -0.5750 -1.7482
 1009MOL0     H36162   5.469   4.973   8.788 -0.1646 -0.4611 -1.2312
 1009MOL0     H36163   5.511   5.146   8.822 -0.4514 -0.1109  0.2758
 1009MOL0     H36164   5.238   5.027   8.743 -1.1380  0.2443 -0.7039
 1009MOL0     H36165   5.270   5.203   8.772  0.5109  0.3921 -0.8690
 1009MOL0     H36166   5.423   4.948   8.512  2.0101  1.0562 -0.2326
 1009MOL0     H36167   5.461   4.956   8.253  2.1452 -0.8403 -0.8120
 1009MOL0     H36168   5.393   5.107   8.184  2.8145  0.6974 -0.9531
 1009MOL0     H36169   5.630   5.195   8.290  0.5094 -0.8714 -0.2067
 1009MOL0     H36170   5.668   5.021   8.251  1.0363 -1.1793 -3.1472
 1009MOL0     H36171   5.726   5.202   8.086  1.2231 -1.8035  1.6274
 1009MOL0     H36172   5.560   5.210   8.039  2.1310  3.5064 -0.1203
 1009MOL0     H36173   5.694   5.057   7.905  3.3556 -2.7695  0.7763
 1009MOL0     H36174   5.554   4.968   7.985  0.0756  1.1799  0.0333
 1009MOL0     H36175   5.913   4.736   8.069  1.1665 -0.5657 -1.4017
 1009MOL0     H36176   6.151   4.745   8.022  0.8435  0.5879  4.2930
 1009MOL0     H36177   6.565   5.013   7.835 -1.7041 -0.2090  2.7911
 1009MOL0     H36178   6.804   4.942   7.783  0.0601 -0.1202  1.2874
 1009MOL0     H36179   6.933   4.551   7.922 -2.7102 -0.2015 -1.4534
 1009MOL0     H36180   6.890   4.535   7.757 -1.1245  0.9465  0.6997
 1009MOL0     H36181   7.150   4.676   7.810 -1.3160  0.8838 -2.7615
 1009MOL0     H36182   7.156   4.501   7.829  0.6245  1.6571  1.6006
 1009MOL0     H36183   7.070   4.457   7.623  2.4276 -0.5234  0.7452
 1009MOL0     H36184   7.041   4.617   7.569 -2.8556 -3.2891 -0.5677
 1009MOL0     H36185   7.330   4.530   7.669  0.0889  1.0201  0.8393
 1009MOL0     H36186   7.289   4.681   7.598  2.2476 -0.5959 -0.3468
 1009MOL0     H36187   7.275   4.582   7.367  2.7689 -0.3155 -1.3115
 1009MOL0     H36188   7.265   4.418   7.443 -1.6067  0.5420  0.1849
 1009MOL0     H36189   7.500   4.575   7.523  0.9673 -0.3358 -1.2453
 1009MOL0     H36190   7.490   4.414   7.498  0.5389  0.9291 -0.5827
 1009MOL0     H36191   7.487   4.617   7.273 -0.3484  0.3022  1.7985
 1009MOL0     H36192   7.487   4.439   7.253  1.1676  0.3011  0.2985
 1009MOL0     H36193   7.671   4.381   7.353 -2.9562  0.3706  0.6408
 1009MOL0     H36194   7.709   4.497   7.219  0.4589  0.1787 -0.2749
 1009MOL0     H36195   6.710   4.552   7.921 -1.9690 -0.2951  1.2595
 1009MOL0     H36196   6.479   4.624   7.981 -1.7570  2.8454  1.2671
 1009MOL0     H36197   6.117   5.150   7.907  2.9919  0.1792  3.3307
 1009MOL0     H36198   5.889   5.150   7.956 -0.6269  0.6182  0.6312
 1009MOL0     H36199   4.791   4.735   9.697  2.0724 -2.3960 -1.1177
 1009MOL0     H36200   4.581   4.629   9.753  0.5542 -3.4513 -0.2193
 1009MOL0     H36201   4.183   4.439   9.605 -0.4778 -0.4549 -4.6605
 1009MOL0     H36202   3.986   4.343   9.695  3.0833  2.0506  1.7305
 1009MOL0     H36203   3.778   4.187   9.708  0.4662 -1.6718  0.0480
 1009MOL0     H36204   3.866   4.221   9.859  2.2862 -0.2254 -0.4918
 1009MOL0     H36205   3.793   3.951   9.895 -1.0139  0.9001  2.3808
 1009MOL0     H36206   3.672   3.998   9.788  1.5704 -2.2714 -0.0562
 1009MOL0     H36207   3.580   4.160   9.958 -0.9819 -0.3166  1.7522
 1009MOL0     H36208   3.734   4.134  10.051  1.5152  0.6540 -1.6365
 1009MOL0     H36209   3.652   3.874  10.043  0.3929  0.1523 -2.3533
 1009MOL0     H36210   3.569   3.974  10.154 -1.3553 -1.0899 -1.5562
 1009MOL0     H36211   3.247   3.927   9.912  0.9749 -2.4913 -0.5521
 1009MOL0     H36212   4.156   3.951   9.680  0.4709  0.3852  1.6958
 1009MOL0     H36213   4.495   4.085   9.669 -2.4417  3.5249 -0.6978
 1009MOL0     H36214   4.410   3.931   9.643  2.4382 -0.8007  0.1300
 1009MOL0     H36215   4.434   4.043   9.504 -1.4806  1.3183  0.0032
 1010MOL0     O36216   7.301  10.735  10.388 -0.0737 -0.6449 -0.5147
 1010MOL0     C36217   7.252  10.843  10.360 -0.6012 -0.9360  0.7363
 1010MOL0     O36218   7.328  10.951  10.333 -0.7199 -0.1252  0.6703
 1010MOL0     C36219   7.463  10.945  10.362  0.2217 -0.0595  0.0164
 1010MOL0     C36220   7.513  10.930  10.490  0.4923 -1.0982  0.4772
 1010MOL0     C36221   7.640  10.909  10.520 -1.2573 -0.4641 -0.6190
 1010MOL0     C36222   7.742  10.924  10.417  0.8225  0.0587 -1.2873
 1010MOL0     O36223   7.871  10.899  10.450 -0.4991 -0.2292  0.4010
 1010MOL0     C36224   7.969  10.854  10.347  0.1133 -0.3330  0.5702
 1010MOL0     C36225   8.109  10.846  10.403  0.1404  0.1500  0.5634
 1010MOL0     C36226   8.126  10.771  10.533 -0.2960 -0.1881  0.2678
 1010MOL0     C36227   8.269  10.735  10.578  0.4945 -0.3838 -0.0005
 1010MOL0     C36228   8.295  10.625  10.686  0.1174 -0.1839  0.0047
 1010MOL0     C36229   8.436  10.580  10.696 -0.1435 -0.1539  0.2465
 1010MOL0     C36230   8.460  10.559  10.851  0.2955  0.0409  0.4934
 1010MOL0     C36231   8.360  10.451  10.906 -0.2833 -0.2920  0.1610
 1010MOL0     N36232   8.376  10.320  10.849  0.0476 -0.1221  0.5120
 1010MOL0     C36233   8.444  10.213  10.901 -0.3852  0.2937 -0.4685
 1010MOL0     C36234   8.415  10.108  10.815  0.2561  0.6883  0.1810
 1010MOL0     C36235   8.492   9.984  10.817 -0.9386 -0.0032  0.3989
 1010MOL0     C36236   8.645   9.993  10.807  0.4226 -0.0394  0.1513
 1010MOL0     C36237   8.703   9.850  10.772 -0.1675  0.0553 -0.2881
 1010MOL0     C36238   8.852   9.870  10.777  0.5145 -0.8115 -0.4726
 1010MOL0     O36239   8.901   9.745  10.740  0.3614  0.5475  0.0497
 1010MOL0     C36240   9.033   9.744  10.729  0.1154  0.1113 -0.1482
 1010MOL0     C36241   9.092   9.705  10.608 -1.1450 -0.7365  0.2510
 1010MOL0     C36242   9.228   9.690  10.595 -0.5724  0.3861 -0.0385
 1010MOL0     C36243   9.308   9.724  10.703  0.0947 -0.1368  0.1289
 1010MOL0     C36244   9.449   9.714  10.684  0.4923 -0.5319  0.5423
 1010MOL0     O36245   9.498   9.698  10.556 -0.1530 -0.5270  0.4051
 1010MOL0     C36246   9.632   9.712  10.520 -0.0912 -0.0703 -0.5844
 1010MOL0     C36247   9.661   9.722  10.392  0.0754 -0.1535 -0.1274
 1010MOL0     C36248   9.792   9.719  10.343 -0.4730  0.4036 -0.3363
 1010MOL0     C36249   9.905   9.702  10.433  0.2971 -0.1109  0.3785
 1010MOL0     O36250  10.025   9.699  10.378  0.1065 -0.0568 -0.0940
 1010MOL0     C36251  10.124   9.601  10.417  0.5110 -0.6767  0.4181
 1010MOL0     C36252  10.097   9.469  10.337  0.2950 -0.2569  0.5018
 1010MOL0     C36253  10.200   9.440  10.230  0.0031  0.3544  0.0798
 1010MOL0     C36254  10.336   9.412  10.308  0.0225  0.2530  0.2024
 1010MOL0     C36255  10.448   9.387  10.206  0.1751  0.2091 -0.1634
 1010MOL0     C36256  10.577   9.372  10.281 -0.4202 -0.1980 -0.6366
 1010MOL0     C36257  10.695   9.346  10.185 -0.6662 -0.8564 -0.2648
 1010MOL0     C36258  10.824   9.329  10.264 -0.0333 -0.2892  0.2078
 1010MOL0    Cl36259  10.825   9.228  10.406  0.1969 -0.1115 -0.3204
 1010MOL0     C36260   9.878   9.698  10.567  0.7512  0.2496 -0.5016
 1010MOL0     C36261   9.742   9.689  10.610  0.8087  0.7172  0.1313
 1010MOL0     O36262   9.513   9.718  10.787 -0.0600  0.3970  0.6084
 1010MOL0     C36263   9.253   9.767  10.822 -0.4702 -1.0468  0.4237
 1010MOL0     C36264   9.118   9.780  10.841  0.5698  0.2271  0.0111
 1010MOL0     N36265   8.350  10.157  10.703  1.5106  0.3446  0.7715
 1010MOL0     N36266   8.314  10.282  10.733 -0.0601 -0.2601 -0.0325
 1010MOL0     C36267   7.695  10.951  10.286  0.2641  0.0716  0.6573
 1010MOL0     C36268   7.560  10.966  10.263  0.8232  0.5495  0.1134
 1010MOL0     C36269   7.108  10.871  10.365 -0.1399 -0.1480 -0.2576
 1010MOL0     C36270   7.062  11.007  10.356 -0.0620  0.3064  0.1283
 1010MOL0     C36271   6.925  11.030  10.355  0.0442  0.6574  0.4562
 1010MOL0     C36272   6.834  10.926  10.381 -0.4098  0.9117  0.2803
 1010MOL0     O36273   6.707  10.963  10.408  0.5050 -0.2881  0.2581
 1010MOL0     C36274   6.609  10.867  10.445  0.3508 -0.3739 -0.1980
 1010MOL0     C36275   6.482  10.951  10.464  0.2024 -0.0082  0.1749
 1010MOL0     C36276   6.364  10.860  10.514 -0.0596 -1.3856  0.7798
 1010MOL0     C36277   6.254  10.932  10.589  0.7374  0.3681 -0.3347
 1010MOL0     C36278   6.166  10.840  10.667 -0.2131 -0.2609  0.4740
 1010MOL0     C36279   6.088  10.786  10.742 -0.7899  0.7880  0.3463
 1010MOL0     C36280   6.881  10.796  10.380  0.6383 -0.0954 -1.1797
 1010MOL0     C36281   7.016  10.759  10.373 -0.1512 -0.2009  0.6744
 1010MOL0     C36282   7.049  10.611  10.389  0.0080 -0.9729  0.4409
 1010MOL0     H36283   7.447  10.926  10.576 -0.1401  2.0546  0.2482
 1010MOL0     H36284   7.670  10.872  10.618  2.1967  0.7732 -1.0633
 1010MOL0     H36285   7.954  10.757  10.300  3.7359 -0.7961  0.0823
 1010MOL0     H36286   7.975  10.924  10.263 -1.0653 -1.1480 -0.2098
 1010MOL0     H36287   8.142  10.949  10.423  1.8468 -0.3491  0.4445
 1010MOL0     H36288   8.167  10.790  10.330  1.3260 -1.0446  2.3306
 1010MOL0     H36289   8.077  10.673  10.522  2.1427 -1.4752  0.1128
 1010MOL0     H36290   8.080  10.828  10.614 -1.6712 -0.2650 -0.4407
 1010MOL0     H36291   8.313  10.706  10.482 -0.7293 -2.0828 -0.0854
 1010MOL0     H36292   8.314  10.829  10.613  3.2692 -2.6061  2.9089
 1010MOL0     H36293   8.253  10.673  10.775  0.3643  2.5367 -1.2612
 1010MOL0     H36294   8.230  10.542  10.656 -0.6404 -0.3813  2.0149
 1010MOL0     H36295   8.460  10.487  10.644 -2.7241 -2.4738  2.8858
 1010MOL0     H36296   8.493  10.662  10.650  1.6450 -1.1077  0.6785
 1010MOL0     H36297   8.440  10.646  10.914 -2.4604 -0.5232  0.5177
 1010MOL0     H36298   8.564  10.527  10.866 -0.5427 -3.1141  0.2656
 1010MOL0     H36299   8.371  10.451  11.015  1.6056  0.3809  0.0135
 1010MOL0     H36300   8.263  10.485  10.868  1.2473  1.5121 -2.4740
 1010MOL0     H36301   8.516  10.224  10.981  2.1385 -3.0740 -2.0232
 1010MOL0     H36302   8.483   9.945  10.919  1.0091  0.8642  0.9390
 1010MOL0     H36303   8.456   9.924  10.733  0.0155  2.0646 -1.5839
 1010MOL0     H36304   8.667  10.062  10.725  0.9492 -1.4622 -0.9532
 1010MOL0     H36305   8.683  10.022  10.905 -0.2230 -1.8860  0.9881
 1010MOL0     H36306   8.675   9.828  10.668  1.2017 -0.4699 -0.5628
 1010MOL0     H36307   8.668   9.767  10.835  0.7460 -0.9547 -1.0849
 1010MOL0     H36308   8.889   9.908  10.873  0.3280  1.1384 -1.1470
 1010MOL0     H36309   8.884   9.936  10.696 -0.8996 -1.9386 -2.0262
 1010MOL0     H36310   9.021   9.673  10.532  0.6936 -1.5516 -1.2284
 1010MOL0     H36311   9.257   9.665  10.493  0.2634  1.8743 -0.1913
 1010MOL0     H36312   9.583   9.731  10.318 -0.5258  1.0700  0.6082
 1010MOL0     H36313   9.800   9.719  10.234 -0.1595  1.3583 -0.3204
 1010MOL0     H36314  10.220   9.641  10.382  0.6395 -0.0313  1.4781
 1010MOL0     H36315  10.132   9.587  10.525 -1.7113  1.4256  0.9478
 1010MOL0     H36316  10.103   9.389  10.412 -0.1094  0.6432  1.5172
 1010MOL0     H36317   9.996   9.454  10.298  0.4255 -3.7615  1.1368
 1010MOL0     H36318  10.168   9.357  10.165 -0.7173  2.0643 -1.8671
 1010MOL0     H36319  10.208   9.527  10.165  0.8035  0.7197  0.6522
 1010MOL0     H36320  10.333   9.324  10.373  1.3679 -0.7672 -1.0526
 1010MOL0     H36321  10.368   9.503  10.361  0.9823 -0.6332  1.2046
 1010MOL0     H36322  10.460   9.471  10.137  4.3378 -1.4209 -1.7243
 1010MOL0     H36323  10.435   9.294  10.150 -2.3907  0.6381 -0.4341
 1010MOL0     H36324  10.607   9.454  10.347  2.9708 -3.3327  2.1717
 1010MOL0     H36325  10.573   9.281  10.341 -2.8040 -0.6878 -1.4361
 1010MOL0     H36326  10.711   9.431  10.118 -0.8380 -3.3074 -3.6854
 1010MOL0     H36327  10.677   9.259  10.121  1.1026 -0.6881 -1.0231
 1010MOL0     H36328  10.901   9.288  10.198 -0.0817 -0.3011  0.1579
 1010MOL0     H36329  10.849   9.430  10.298  0.6879 -0.7972  1.2215
 1010MOL0     H36330   9.954   9.709  10.644  0.1471  1.0739 -0.0072
 1010MOL0     H36331   9.720   9.662  10.713  2.2600 -1.7038 -0.1000
 1010MOL0     H36332   9.315   9.798  10.905 -1.1208  3.1861 -0.4491
 1010MOL0     H36333   9.080   9.801  10.941 -2.0243  1.8961 -1.2115
 1010MOL0     H36334   7.764  10.956  10.202 -0.4819 -0.2821  0.0124
 1010MOL0     H36335   7.519  10.980  10.163  1.4007 -0.3113 -0.2544
 1010MOL0     H36336   7.132  11.089  10.358  2.9422 -2.0595 -0.9651
 1010MOL0     H36337   6.890  11.133  10.363 -0.7728  0.3877  0.4383
 1010MOL0     H36338   6.642  10.812  10.533  1.2421 -0.7453 -0.7472
 1010MOL0     H36339   6.598  10.797  10.361  1.9046  1.2547 -1.8199
 1010MOL0     H36340   6.450  10.988  10.366 -1.7223 -1.2901  0.2812
 1010MOL0     H36341   6.512  11.031  10.532 -0.9747  1.9737 -1.5222
 1010MOL0     H36342   6.398  10.784  10.585 -1.8414  0.7366  4.2056
 1010MOL0     H36343   6.321  10.813  10.425  2.7910 -3.1837  0.2395
 1010MOL0     H36344   6.307  10.996  10.660  0.8839 -1.1786  1.0076
 1010MOL0     H36345   6.196  10.998  10.524 -1.3603  0.2982  1.3427
 1010MOL0     H36346   6.025  10.737  10.814  0.4371 -1.7175 -0.1444
 1010MOL0     H36347   6.813  10.717  10.409  0.4278  0.1270 -1.0692
 1010MOL0     H36348   7.116  10.607  10.475  2.3443 -0.1852 -1.2480
 1010MOL0     H36349   6.958  10.550  10.401 -0.8595  0.4938  1.7424
 1010MOL0     H36350   7.107  10.576  10.303 -2.2559  0.2154 -1.7018
 1011MOL0     O36351  10.311   4.151   3.780 -0.5204 -0.0379  0.2050
 1011MOL0     C36352  10.233   4.231   3.818  0.4605 -0.6300  0.5997
 1011MOL0     O36353  10.259   4.356   3.848 -0.4126 -0.0751 -0.4340
 1011MOL0     C36354  10.381   4.394   3.883 -0.2679 -0.0935  0.3410
 1011MOL0     C36355  10.416   4.523   3.849 -0.0597 -0.0353  1.6576
 1011MOL0     C36356  10.526   4.588   3.899 -0.3200  0.1383 -1.1288
 1011MOL0     C36357  10.616   4.513   3.985  0.6172  0.1767 -0.3383
 1011MOL0     O36358  10.724   4.578   4.040  0.5438  0.8102  0.0411
 1011MOL0     C36359  10.840   4.554   3.965 -0.0948  0.5041 -0.1513
 1011MOL0     C36360  10.951   4.642   4.029  1.4079  0.9039  0.6727
 1011MOL0     C36361  11.090   4.602   3.983 -0.4378 -0.3016 -0.2612
 1011MOL0     C36362  11.192   4.638   4.092  0.3093  0.7315 -0.8393
 1011MOL0     C36363  11.333   4.625   4.039 -0.3454 -0.1526  0.5831
 1011MOL0     C36364  11.442   4.642   4.150 -0.5192  0.0652 -0.2808
 1011MOL0     C36365  11.572   4.679   4.079 -0.3122  0.7513  0.4802
 1011MOL0     C36366  11.677   4.574   4.098  0.2003  0.2247 -0.5306
 1011MOL0     N36367  11.805   4.628   4.046  0.9259 -0.1034  0.0536
 1011MOL0     C36368  11.915   4.669   4.121  0.3548  0.4745 -0.6626
 1011MOL0     C36369  12.023   4.675   4.035  0.4392  0.1168 -0.0221
 1011MOL0     C36370  12.164   4.724   4.072 -0.2242  0.3984 -1.1149
 1011MOL0     C36371  12.235   4.625   4.166 -0.4049  0.4587  0.8569
 1011MOL0     C36372  12.376   4.691   4.177 -0.0242 -0.3742  0.6168
 1011MOL0     C36373  12.446   4.632   4.296 -0.1380  0.3725 -0.7977
 1011MOL0     O36374  12.571   4.684   4.309  0.5748  0.7712  0.2655
 1011MOL0     C36375  12.615   4.684   4.435 -0.4166  0.2870 -0.2097
 1011MOL0     C36376  12.740   4.623   4.469 -0.8997 -0.8121 -0.4133
 1011MOL0     C36377  12.797   4.644   4.599 -0.3368 -0.1259 -0.1303
 1011MOL0     C36378  12.716   4.718   4.697 -0.8748 -0.6220  0.2430
 1011MOL0     C36379  12.777   4.745   4.833  0.1101  0.0537 -0.1709
 1011MOL0     O36380  12.906   4.697   4.845  0.0181 -0.1678 -0.4369
 1011MOL0     C36381  12.986   4.714   4.958  0.7638 -0.0743  0.0057
 1011MOL0     C36382  13.118   4.669   4.944 -0.0379  0.4199 -0.2489
 1011MOL0     C36383  13.217   4.681   5.045 -0.3013  0.1577  0.9470
 1011MOL0     C36384  13.179   4.716   5.170  0.2610  0.4131 -0.1451
 1011MOL0     O36385  13.272   4.718   5.271  0.2437  0.2189  0.0292
 1011MOL0     C36386  13.224   4.727   5.407  0.8576 -0.1729 -0.8047
 1011MOL0     C36387  13.324   4.663   5.506  0.5075  0.1909  0.2707
 1011MOL0     C36388  13.439   4.751   5.560  0.4127 -0.4802 -0.1848
 1011MOL0     C36389  13.517   4.684   5.679  0.0571  0.4080  0.2537
 1011MOL0     C36390  13.619   4.789   5.736 -0.3318  0.1627 -0.1344
 1011MOL0     C36391  13.668   4.722   5.868 -0.9048  0.5031 -1.5965
 1011MOL0     C36392  13.778   4.792   5.952 -0.8705 -0.7703  0.9617
 1011MOL0     C36393  13.913   4.790   5.878  0.6771  0.1412 -0.3504
 1011MOL0    Cl36394  14.024   4.867   5.993 -0.5673  0.0992  0.4026
 1011MOL0     C36395  13.045   4.766   5.184  0.9792 -0.1849  0.0561
 1011MOL0     C36396  12.948   4.773   5.079  0.1011  0.4333  0.0911
 1011MOL0     O36397  12.720   4.819   4.910  0.5090 -0.6631 -0.0793
 1011MOL0     C36398  12.598   4.774   4.658 -0.2918  0.0857  0.1425
 1011MOL0     C36399  12.549   4.759   4.533  0.6455 -0.0787 -0.0708
 1011MOL0     N36400  11.976   4.642   3.911  0.1713 -0.4327  1.2186
 1011MOL0     N36401  11.853   4.608   3.921  0.6816 -0.0170  0.3296
 1011MOL0     C36402  10.582   4.378   4.024  0.5069  0.5735 -0.1839
 1011MOL0     C36403  10.460   4.322   3.974  0.1720 -0.2641  0.0926
 1011MOL0     C36404  10.092   4.189   3.807 -0.8201 -0.2057  0.5341
 1011MOL0     C36405   9.995   4.285   3.796 -0.3196  0.1365 -0.1467
 1011MOL0     C36406   9.862   4.255   3.781 -1.2965 -0.9156  0.8299
 1011MOL0     C36407   9.816   4.126   3.781  0.1309 -0.5269 -0.2015
 1011MOL0     O36408   9.695   4.085   3.812  0.5885 -0.2164 -0.3538
 1011MOL0     C36409   9.615   4.049   3.699 -0.1590  0.9540  0.2406
 1011MOL0     C36410   9.494   3.972   3.755 -0.1798  0.0923  1.0483
 1011MOL0     C36411   9.544   3.836   3.798 -0.0306 -0.2871  0.1277
 1011MOL0     C36412   9.424   3.740   3.792 -0.5615 -0.5122 -0.1765
 1011MOL0     C36413   9.298   3.793   3.858 -0.0424 -0.8322  0.6265
 1011MOL0     C36414   9.199   3.831   3.913 -0.8133 -0.1725  0.3281
 1011MOL0     C36415   9.908   4.022   3.788  0.0937  0.2788  0.2449
 1011MOL0     C36416  10.046   4.048   3.810  0.3465 -0.6877 -0.2702
 1011MOL0     C36417  10.142   3.930   3.806  0.1960 -0.4997 -0.0149
 1011MOL0     H36418  10.356   4.572   3.773 -0.5683  0.0611  2.1181
 1011MOL0     H36419  10.559   4.690   3.887  1.8877  0.3530  4.2748
 1011MOL0     H36420  10.874   4.451   3.969  2.8723  1.3973  2.8205
 1011MOL0     H36421  10.834   4.594   3.863  0.7311  0.2840 -0.2926
 1011MOL0     H36422  10.941   4.632   4.138  0.1629 -2.3121  0.3789
 1011MOL0     H36423  10.932   4.748   4.009 -0.8487  0.1534 -1.7565
 1011MOL0     H36424  11.122   4.639   3.885  2.0731  0.1511  0.6564
 1011MOL0     H36425  11.097   4.493   3.973  2.9632 -0.0358 -2.6953
 1011MOL0     H36426  11.173   4.741   4.123  4.5464  1.9311 -1.5662
 1011MOL0     H36427  11.176   4.565   4.171  1.5878  1.6098  0.2762
 1011MOL0     H36428  11.353   4.526   3.998  0.6103 -0.8752  2.6280
 1011MOL0     H36429  11.335   4.698   3.957 -1.7053 -2.2817 -1.4390
 1011MOL0     H36430  11.418   4.722   4.221  1.4747 -0.3260  0.9157
 1011MOL0     H36431  11.453   4.548   4.204 -2.0759 -0.2669 -0.5087
 1011MOL0     H36432  11.604   4.782   4.100 -3.0017  1.7893 -0.1213
 1011MOL0     H36433  11.558   4.678   3.971  2.7954  1.7017 -0.0362
 1011MOL0     H36434  11.687   4.569   4.207  0.0872 -0.1376 -0.5378
 1011MOL0     H36435  11.655   4.473   4.065  0.4707  1.1602 -3.9100
 1011MOL0     H36436  11.925   4.697   4.225  5.7114 -3.2329  0.2412
 1011MOL0     H36437  12.217   4.732   3.976 -0.5196 -1.4165 -1.4807
 1011MOL0     H36438  12.161   4.820   4.124 -3.8042 -2.1552  4.2503
 1011MOL0     H36439  12.183   4.615   4.262  2.8214  3.5413  3.2373
 1011MOL0     H36440  12.230   4.526   4.121  3.1727 -0.6221  2.4305
 1011MOL0     H36441  12.365   4.797   4.200  1.5746 -0.4982  2.2131
 1011MOL0     H36442  12.438   4.675   4.088  2.7318  2.2590  1.8827
 1011MOL0     H36443  12.457   4.524   4.292  0.1631  0.3341  0.5024
 1011MOL0     H36444  12.380   4.637   4.383 -1.9017  0.7075 -2.1087
 1011MOL0     H36445  12.795   4.568   4.394  1.4359 -0.2487  0.7928
 1011MOL0     H36446  12.891   4.598   4.629 -2.2176 -3.2073  1.6042
 1011MOL0     H36447  13.152   4.618   4.854  2.5242 -0.1595  0.9440
 1011MOL0     H36448  13.322   4.660   5.027 -0.1107  0.5724  1.5293
 1011MOL0     H36449  13.215   4.833   5.431  0.4452  0.0592 -1.9607
 1011MOL0     H36450  13.128   4.677   5.422  1.2470 -0.5108  0.7704
 1011MOL0     H36451  13.273   4.626   5.596  0.9889  0.8934  0.8476
 1011MOL0     H36452  13.363   4.581   5.445 -0.9310  1.4590 -2.5185
 1011MOL0     H36453  13.510   4.765   5.478  1.5816 -2.2085  0.4533
 1011MOL0     H36454  13.402   4.846   5.599 -0.2127 -0.7303 -0.1637
 1011MOL0     H36455  13.555   4.583   5.662  2.3476  0.9501  1.7403
 1011MOL0     H36456  13.450   4.678   5.765 -2.0534  0.5330 -1.2917
 1011MOL0     H36457  13.574   4.887   5.756  0.5727  0.8340 -1.2711
 1011MOL0     H36458  13.708   4.813   5.678  0.3481  2.9969  1.8236
 1011MOL0     H36459  13.587   4.717   5.942  0.8212  1.0647  0.4311
 1011MOL0     H36460  13.695   4.616   5.861 -2.4161  0.0092 -0.5195
 1011MOL0     H36461  13.791   4.734   6.043 -0.2901 -1.9497  0.1455
 1011MOL0     H36462  13.751   4.897   5.965  1.6340  0.0721 -0.0604
 1011MOL0     H36463  13.950   4.687   5.866 -0.2628 -0.0763 -1.5578
 1011MOL0     H36464  13.926   4.848   5.786  1.2807  3.8106  1.8598
 1011MOL0     H36465  13.017   4.791   5.286 -0.1026  0.9007 -0.4804
 1011MOL0     H36466  12.857   4.821   5.112 -1.3840 -3.5035  2.3659
 1011MOL0     H36467  12.557   4.840   4.734  1.6966  2.8947 -1.0423
 1011MOL0     H36468  12.455   4.808   4.512  0.7036 -0.1966 -0.6077
 1011MOL0     H36469  10.646   4.319   4.088 -0.8263 -0.6791  0.0574
 1011MOL0     H36470  10.434   4.219   3.994 -2.6371  0.2459 -0.4763
 1011MOL0     H36471  10.028   4.389   3.789  1.9686 -0.5644 -0.4695
 1011MOL0     H36472   9.793   4.335   3.756 -0.0806 -1.2322 -4.8933
 1011MOL0     H36473   9.672   3.996   3.622  0.1766  3.6438 -1.5017
 1011MOL0     H36474   9.571   4.136   3.650 -1.7770  0.9763  1.6443
 1011MOL0     H36475   9.415   3.986   3.681  2.2940  1.4821 -1.5538
 1011MOL0     H36476   9.465   4.028   3.844  0.2782  0.0259  1.2453
 1011MOL0     H36477   9.583   3.848   3.900  0.3850  2.6301 -0.2726
 1011MOL0     H36478   9.620   3.788   3.736  3.6008  0.9646  3.1794
 1011MOL0     H36479   9.397   3.710   3.691 -0.8169 -0.5170 -0.1090
 1011MOL0     H36480   9.451   3.650   3.849  1.2459 -0.2577 -0.5912
 1011MOL0     H36481   9.106   3.863   3.956 -1.0155  1.1151 -0.9821
 1011MOL0     H36482   9.866   3.923   3.783 -3.6912  1.5791  2.1342
 1011MOL0     H36483  10.195   3.932   3.902 -4.7084  0.8861  3.0684
 1011MOL0     H36484  10.092   3.834   3.796 -0.0612 -0.2489 -1.2872
 1011MOL0     H36485  10.213   3.942   3.724  1.5578  2.9912  1.4416
 1012MOL0     O36486   1.241   1.071   0.001  0.2590  0.9153 -0.5821
 1012MOL0     C36487   1.218   0.978  -0.078 -0.3951 -0.9559  0.2500
 1012MOL0     O36488   1.303   0.869  -0.111  0.6254 -0.2564 -0.1513
 1012MOL0     C36489   1.413   0.841  -0.040 -0.1133  0.9523 -0.1892
 1012MOL0     C36490   1.508   0.785  -0.126  0.5868 -0.5723 -0.2265
 1012MOL0     C36491   1.637   0.764  -0.072  0.4609  0.3401 -0.8082
 1012MOL0     C36492   1.668   0.790   0.063  0.0097  0.3261 -0.4653
 1012MOL0     O36493   1.789   0.756   0.122 -0.2501 -0.1508 -0.4084
 1012MOL0     C36494   1.861   0.657   0.058 -0.2825  0.2128  0.0873
 1012MOL0     C36495   1.978   0.629   0.155 -0.3263 -0.9455  1.9957
 1012MOL0     C36496   2.087   0.541   0.090  0.0060 -0.3400 -0.2853
 1012MOL0     C36497   2.168   0.614  -0.019 -0.0197 -0.3069 -0.0772
 1012MOL0     C36498   2.298   0.542  -0.045 -0.3399  0.2330  0.8335
 1012MOL0     C36499   2.403   0.547   0.073 -0.4967 -0.1878 -1.0714
 1012MOL0     C36500   2.545   0.550   0.032 -0.8466 -0.1026 -0.0401
 1012MOL0     C36501   2.585   0.423  -0.047 -0.3869 -0.2737  0.0289
 1012MOL0     N36502   2.725   0.413  -0.077 -0.2068 -0.4973  0.2499
 1012MOL0     C36503   2.800   0.499  -0.154  0.6464  0.2369 -0.8895
 1012MOL0     C36504   2.924   0.453  -0.148  0.0294  0.0116  1.1711
 1012MOL0     C36505   3.045   0.507  -0.223  1.1950 -0.7645  0.1910
 1012MOL0     C36506   3.068   0.455  -0.365 -0.3106  0.0330  0.1149
 1012MOL0     C36507   3.206   0.493  -0.404  0.3879  1.0218  0.1714
 1012MOL0     C36508   3.208   0.631  -0.465 -0.6279  0.2253  0.0733
 1012MOL0     O36509   3.333   0.645  -0.532 -0.4624  0.2208  0.1290
 1012MOL0     C36510   3.429   0.713  -0.459  1.1657  0.2085  0.6962
 1012MOL0     C36511   3.552   0.654  -0.428  0.2877 -0.1187  0.9829
 1012MOL0     C36512   3.651   0.736  -0.365  0.0893 -0.2798  0.0543
 1012MOL0     C36513   3.629   0.869  -0.330 -0.5564  0.5278  0.3798
 1012MOL0     C36514   3.725   0.943  -0.255 -0.3646 -0.4523 -0.5670
 1012MOL0     O36515   3.854   0.925  -0.306 -0.2872  0.2378 -0.6023
 1012MOL0     C36516   3.955   0.969  -0.230 -0.4142  1.3461 -0.0189
 1012MOL0     C36517   3.982   1.104  -0.211  0.3941 -0.0096 -0.2336
 1012MOL0     C36518   4.082   1.144  -0.125  0.2125  0.3943  0.5184
 1012MOL0     C36519   4.173   1.056  -0.067  0.9217 -0.4587 -0.2053
 1012MOL0     O36520   4.268   1.120   0.008 -0.3873 -0.1249  0.2922
 1012MOL0     C36521   4.367   1.044   0.075 -0.1554 -0.1959 -0.2496
 1012MOL0     C36522   4.506   1.070   0.014 -0.1258  0.0352 -0.3547
 1012MOL0     C36523   4.625   0.996   0.083 -0.0498 -0.6249 -0.0745
 1012MOL0     C36524   4.756   0.992  -0.004  0.0521 -0.2202 -0.4860
 1012MOL0     C36525   4.887   0.957   0.070 -0.5797 -0.1044  0.0455
 1012MOL0     C36526   4.868   0.821   0.132 -0.0941 -0.6101 -0.5733
 1012MOL0     C36527   4.997   0.753   0.192  0.1123 -0.2720  0.2295
 1012MOL0     C36528   4.993   0.623   0.252  0.0494 -0.2412 -1.1231
 1012MOL0    Cl36529   4.944   0.634   0.422 -0.1736  0.0021 -0.2302
 1012MOL0     C36530   4.153   0.919  -0.096  0.7137  0.2469 -0.2900
 1012MOL0     C36531   4.047   0.883  -0.175 -0.6188  0.9051  0.0209
 1012MOL0     O36532   3.692   1.003  -0.152  0.2217 -0.5922 -0.1618
 1012MOL0     C36533   3.509   0.924  -0.364  0.3987 -0.2381  0.5200
 1012MOL0     C36534   3.404   0.849  -0.423 -0.8501  0.2438 -0.1215
 1012MOL0     N36535   2.929   0.353  -0.049 -0.3129  0.1603 -0.3576
 1012MOL0     N36536   2.812   0.325  -0.011 -0.3384  0.0012  0.2930
 1012MOL0     C36537   1.569   0.846   0.139 -0.8895 -0.5694 -0.0442
 1012MOL0     C36538   1.447   0.884   0.090  0.6240 -0.9222 -0.4297
 1012MOL0     C36539   1.089   0.992  -0.160  0.5796  0.5407  0.0561
 1012MOL0     C36540   1.077   0.898  -0.263  0.8334 -0.7555 -0.3800
 1012MOL0     C36541   0.969   0.891  -0.353 -0.3930  0.2739 -0.3569
 1012MOL0     C36542   0.867   0.981  -0.338  0.2392 -0.1598  0.1778
 1012MOL0     O36543   0.771   0.994  -0.438 -0.1931  0.0702 -0.1374
 1012MOL0     C36544   0.646   1.054  -0.408  0.3479  0.3189 -0.4288
 1012MOL0     C36545   0.518   0.963  -0.416  0.4117  0.1885 -0.5122
 1012MOL0     C36546   0.508   0.865  -0.306  0.3269  0.4044  0.0310
 1012MOL0     C36547   0.366   0.806  -0.310  0.5770 -0.2274 -0.2135
 1012MOL0     C36548   0.256   0.895  -0.273 -0.0937 -0.8485 -0.2826
 1012MOL0     C36549   0.158   0.968  -0.237 -0.4021  0.1012 -0.1037
 1012MOL0     C36550   0.872   1.081  -0.239 -0.2236 -0.1606 -0.7426
 1012MOL0     C36551   0.987   1.089  -0.145  0.4475 -0.2853 -0.0642
 1012MOL0     C36552   0.973   1.204  -0.040 -0.2509 -0.3941 -0.2189
 1012MOL0     H36553   1.485   0.754  -0.227 -4.2265  0.2224  0.3871
 1012MOL0     H36554   1.708   0.721  -0.143 -0.0327  0.4823 -1.3919
 1012MOL0     H36555   1.798   0.571   0.036 -3.1572  1.8809  1.2683
 1012MOL0     H36556   1.906   0.700  -0.032 -0.5910 -0.5663 -0.4500
 1012MOL0     H36557   1.939   0.594   0.251  1.5338 -0.5399  2.9309
 1012MOL0     H36558   2.018   0.728   0.178 -0.5812 -0.8158  1.8788
 1012MOL0     H36559   2.048   0.443   0.060 -2.2978  0.0611  1.1580
 1012MOL0     H36560   2.155   0.511   0.170  0.9774 -1.3298 -1.4198
 1012MOL0     H36561   2.118   0.614  -0.117  0.7688 -1.5001 -0.4967
 1012MOL0     H36562   2.179   0.719   0.012 -1.1826 -0.2897  0.3311
 1012MOL0     H36563   2.285   0.437  -0.073  1.8405  0.3185 -0.6977
 1012MOL0     H36564   2.340   0.607  -0.123  2.0606  1.0550  2.6786
 1012MOL0     H36565   2.392   0.642   0.126  1.9823  0.4720 -1.6056
 1012MOL0     H36566   2.394   0.464   0.143 -0.5347  0.7662  0.0829
 1012MOL0     H36567   2.608   0.568   0.119  2.5349 -2.9056 -1.6526
 1012MOL0     H36568   2.565   0.640  -0.027  0.1429  0.6372  1.3727
 1012MOL0     H36569   2.561   0.339   0.019 -1.6583 -0.4157 -0.5834
 1012MOL0     H36570   2.530   0.401  -0.139 -0.6905  0.5016  0.0162
 1012MOL0     H36571   2.769   0.584  -0.214  0.5850 -0.5729 -2.0314
 1012MOL0     H36572   3.040   0.616  -0.227  3.3517 -0.6488 -0.4028
 1012MOL0     H36573   3.121   0.470  -0.154  0.8808 -1.4483  0.1849
 1012MOL0     H36574   3.045   0.349  -0.355 -2.5126  0.5922  1.6800
 1012MOL0     H36575   3.005   0.493  -0.446  0.8853  0.9245 -0.4355
 1012MOL0     H36576   3.249   0.425  -0.478  0.3743 -0.6289  1.6299
 1012MOL0     H36577   3.269   0.490  -0.314 -2.1732  1.4893  2.1080
 1012MOL0     H36578   3.203   0.698  -0.379  0.9643 -2.6286  2.5439
 1012MOL0     H36579   3.123   0.649  -0.532 -0.7626  0.6584  0.3553
 1012MOL0     H36580   3.572   0.551  -0.457  0.9726 -0.6712  3.1963
 1012MOL0     H36581   3.746   0.691  -0.337 -0.3281 -0.7715  0.7049
 1012MOL0     H36582   3.916   1.171  -0.265  1.6214 -0.2972 -2.2107
 1012MOL0     H36583   4.088   1.251  -0.114  1.9028  0.3454  0.3226
 1012MOL0     H36584   4.364   1.076   0.180 -1.7246 -2.6630  0.5263
 1012MOL0     H36585   4.339   0.939   0.074 -0.3104 -0.2548  2.3986
 1012MOL0     H36586   4.487   1.032  -0.087  0.6297 -0.6142 -0.2609
 1012MOL0     H36587   4.528   1.176   0.005  0.2305 -0.1046 -1.1860
 1012MOL0     H36588   4.641   1.016   0.189 -1.0515 -1.0232  0.1676
 1012MOL0     H36589   4.584   0.894   0.081 -0.4267 -0.4683 -1.5058
 1012MOL0     H36590   4.768   1.091  -0.048  2.3608  0.1324  0.7523
 1012MOL0     H36591   4.740   0.920  -0.085 -1.0613  0.0836 -0.5493
 1012MOL0     H36592   4.906   1.024   0.154  2.9657 -0.2552 -0.5083
 1012MOL0     H36593   4.977   0.970   0.009  0.4830 -2.2138  1.0800
 1012MOL0     H36594   4.802   0.828   0.219  1.3819  0.8521  0.4820
 1012MOL0     H36595   4.826   0.746   0.065  3.1377 -1.5761 -1.6844
 1012MOL0     H36596   5.035   0.829   0.260 -0.5354 -0.8426  1.2573
 1012MOL0     H36597   5.064   0.751   0.106 -2.0145  1.2083 -1.5832
 1012MOL0     H36598   4.926   0.554   0.200 -2.2569 -1.9656  3.5131
 1012MOL0     H36599   5.090   0.573   0.241 -0.7754 -1.8235 -1.4906
 1012MOL0     H36600   4.221   0.838  -0.070  1.8075  2.0864  3.2321
 1012MOL0     H36601   4.035   0.775  -0.182 -0.3356  0.9946 -2.5279
 1012MOL0     H36602   3.482   1.025  -0.333  0.1854 -0.6309  1.6698
 1012MOL0     H36603   3.314   0.896  -0.461 -0.5447 -0.6563 -2.0667
 1012MOL0     H36604   1.589   0.869   0.244 -2.0189  0.7392 -0.0780
 1012MOL0     H36605   1.374   0.919   0.163  1.1794 -2.0323  0.6793
 1012MOL0     H36606   1.155   0.824  -0.276  1.1537 -0.5291  0.2373
 1012MOL0     H36607   0.959   0.802  -0.414 -2.6993 -0.0715  0.4012
 1012MOL0     H36608   0.634   1.147  -0.464 -2.2085  0.8456  0.8328
 1012MOL0     H36609   0.633   1.086  -0.304 -2.5839  1.2173 -0.9635
 1012MOL0     H36610   0.531   0.910  -0.511  2.0222  1.0131 -0.7931
 1012MOL0     H36611   0.430   1.028  -0.413 -0.6264 -1.1977  1.2536
 1012MOL0     H36612   0.512   0.918  -0.211 -1.3885  0.4205  0.1110
 1012MOL0     H36613   0.595   0.798  -0.306  0.2388  0.2760 -0.9167
 1012MOL0     H36614   0.351   0.751  -0.403  0.0416 -2.5174  1.1400
 1012MOL0     H36615   0.362   0.736  -0.225 -2.1670 -1.7916 -1.5098
 1012MOL0     H36616   0.071   1.030  -0.237 -0.4090  0.3769 -4.3384
 1012MOL0     H36617   0.801   1.164  -0.233 -0.3024 -0.3245  3.4090
 1012MOL0     H36618   1.018   1.298  -0.074 -0.8020  0.1602  0.5561
 1012MOL0     H36619   0.869   1.226  -0.016  0.2610  0.0965  1.7501
 1012MOL0     H36620   1.016   1.178   0.058  1.0839  0.5909 -0.5217
 1013MOL0     O36621   2.110   5.378   3.410  0.0564 -0.1188 -0.3057
 1013MOL0     C36622   2.035   5.464   3.453 -0.0018 -0.4352  0.2773
 1013MOL0     O36623   2.080   5.558   3.538 -0.2679  0.1076  0.2994
 1013MOL0     C36624   2.214   5.565   3.563 -0.4990 -0.5482 -0.1282
 1013MOL0     C36625   2.285   5.467   3.619  0.1726  0.0739 -0.2453
 1013MOL0     C36626   2.423   5.480   3.635 -1.0734  0.5179 -0.6514
 1013MOL0     C36627   2.488   5.606   3.595  0.1694  0.2391 -0.1548
 1013MOL0     O36628   2.615   5.643   3.607  0.3727 -0.4235  0.4603
 1013MOL0     C36629   2.709   5.556   3.658 -0.5222  0.3975  0.6690
 1013MOL0     C36630   2.847   5.609   3.646 -0.4250  0.0885  0.3746
 1013MOL0     C36631   2.951   5.508   3.684  0.3951 -1.0286  0.0073
 1013MOL0     C36632   3.092   5.567   3.674  0.0636  0.2937 -0.2633
 1013MOL0     C36633   3.193   5.447   3.704 -0.6194 -0.8481  0.0123
 1013MOL0     C36634   3.330   5.509   3.677  0.1748  0.0215  0.1935
 1013MOL0     C36635   3.452   5.411   3.690 -0.4814 -0.1033  0.3072
 1013MOL0     C36636   3.578   5.480   3.616  0.2859 -0.3456 -0.3808
 1013MOL0     N36637   3.701   5.400   3.641  0.0735  0.1025  0.2347
 1013MOL0     C36638   3.761   5.376   3.762 -0.0411  0.3519  0.1658
 1013MOL0     C36639   3.882   5.320   3.733  0.1601  0.5187 -0.0562
 1013MOL0     C36640   3.989   5.261   3.813  0.3234  0.1916  0.0421
 1013MOL0     C36641   4.123   5.334   3.786 -0.6519  0.5971  0.1832
 1013MOL0     C36642   4.246   5.265   3.841 -0.2551  0.0497  0.5602
 1013MOL0     C36643   4.372   5.349   3.830 -0.6059  0.3345 -0.4322
 1013MOL0     O36644   4.359   5.463   3.919 -0.1760 -0.1791  1.0314
 1013MOL0     C36645   4.472   5.550   3.917  0.2026 -0.1761  0.5159
 1013MOL0     C36646   4.465   5.663   4.002  0.3763 -0.1736  0.0921
 1013MOL0     C36647   4.571   5.747   4.015 -0.5795 -0.6403 -0.1344
 1013MOL0     C36648   4.696   5.727   3.953  0.2099  0.0836 -0.3395
 1013MOL0     C36649   4.804   5.822   3.983  0.0999  0.1921  0.4422
 1013MOL0     O36650   4.912   5.820   3.903  0.0680 -0.6060  0.3150
 1013MOL0     C36651   5.036   5.867   3.941 -0.3598 -0.7237 -0.0555
 1013MOL0     C36652   5.075   5.927   4.063  0.5607 -0.4636  0.7432
 1013MOL0     C36653   5.207   5.979   4.064 -1.0825  0.4066 -0.4513
 1013MOL0     C36654   5.294   5.964   3.956 -0.7042  0.2691 -0.4636
 1013MOL0     O36655   5.418   6.019   3.968 -0.1118 -0.3824  0.7662
 1013MOL0     C36656   5.444   6.139   3.906 -1.0293 -0.7954 -0.7692
 1013MOL0     C36657   5.561   6.198   3.982  0.4465  0.0181  0.0665
 1013MOL0     C36658   5.688   6.106   3.956  1.5779 -0.3993 -0.5707
 1013MOL0     C36659   5.801   6.165   4.034  0.2374  0.3301  0.1010
 1013MOL0     C36660   5.911   6.066   4.043 -0.2615  0.1629  0.5314
 1013MOL0     C36661   5.969   6.022   3.906  0.2973  0.2903 -0.3055
 1013MOL0     C36662   6.050   6.138   3.844 -0.0768  0.0747 -0.4542
 1013MOL0     C36663   6.175   6.096   3.776 -0.2652  0.7670 -0.3492
 1013MOL0    Cl36664   6.307   6.080   3.906 -0.3275 -0.5247  0.2110
 1013MOL0     C36665   5.253   5.902   3.840  0.0149 -0.7200 -0.3563
 1013MOL0     C36666   5.121   5.857   3.830  0.3248  0.5037  0.4279
 1013MOL0     O36667   4.789   5.879   4.092 -0.4730 -0.0534 -0.0838
 1013MOL0     C36668   4.706   5.614   3.872 -0.4747  0.3748  0.4232
 1013MOL0     C36669   4.591   5.528   3.848 -0.3831  0.2256  0.4849
 1013MOL0     N36670   3.885   5.315   3.590 -0.1132  0.1813 -0.3392
 1013MOL0     N36671   3.786   5.368   3.539 -0.3632  0.8581  0.2330
 1013MOL0     C36672   2.409   5.708   3.545  0.1448  0.7089  0.1318
 1013MOL0     C36673   2.270   5.690   3.532 -0.4410  0.3887 -0.2432
 1013MOL0     C36674   1.894   5.470   3.398  0.3274 -0.2000 -0.2516
 1013MOL0     C36675   1.826   5.601   3.415 -0.6869  0.6156 -0.6017
 1013MOL0     C36676   1.694   5.608   3.392 -0.2247 -0.8243 -0.6868
 1013MOL0     C36677   1.616   5.505   3.335 -0.8013 -0.2362  0.1440
 1013MOL0     O36678   1.484   5.537   3.307 -0.1137 -0.3369  0.0498
 1013MOL0     C36679   1.407   5.460   3.216  0.0537  0.3757  0.3332
 1013MOL0     C36680   1.435   5.508   3.071  0.6074 -0.5603 -0.3710
 1013MOL0     C36681   1.431   5.665   3.056  0.3892 -0.4594 -0.3089
 1013MOL0     C36682   1.463   5.710   2.916 -0.1338  0.4634 -0.3191
 1013MOL0     C36683   1.489   5.853   2.883 -0.6192  0.2061 -0.2338
 1013MOL0     C36684   1.531   5.965   2.855 -0.8175 -0.9986 -0.1033
 1013MOL0     C36685   1.685   5.385   3.305 -0.7192 -0.9031  0.0059
 1013MOL0     C36686   1.821   5.371   3.321 -0.9107  0.2109  0.3996
 1013MOL0     C36687   1.880   5.242   3.272  0.0879 -0.5295  0.7934
 1013MOL0     H36688   2.239   5.374   3.650 -0.8076  0.8202  0.6101
 1013MOL0     H36689   2.481   5.406   3.689  0.6750  0.8403 -1.9855
 1013MOL0     H36690   2.687   5.533   3.763 -2.2878 -1.4351 -0.0373
 1013MOL0     H36691   2.715   5.469   3.592 -2.7163 -0.7347  1.8560
 1013MOL0     H36692   2.854   5.693   3.716 -1.9733 -0.4509  1.2155
 1013MOL0     H36693   2.862   5.655   3.548 -0.6229 -0.5548  0.0439
 1013MOL0     H36694   2.930   5.428   3.613 -2.1489 -0.9329  0.5862
 1013MOL0     H36695   2.942   5.471   3.787  0.2310  1.1771  0.8305
 1013MOL0     H36696   3.101   5.598   3.569  1.5080 -0.2911 -0.3338
 1013MOL0     H36697   3.124   5.645   3.744 -1.3551  1.5563 -0.9613
 1013MOL0     H36698   3.181   5.405   3.804 -1.7163 -0.2595  0.1514
 1013MOL0     H36699   3.176   5.365   3.633 -1.1530  1.3446 -2.5768
 1013MOL0     H36700   3.327   5.550   3.575 -0.5311 -0.7016 -0.0783
 1013MOL0     H36701   3.345   5.600   3.737  0.6663  0.5176 -0.6493
 1013MOL0     H36702   3.421   5.318   3.641  1.5645  0.0008 -1.3311
 1013MOL0     H36703   3.469   5.387   3.795  0.9751 -0.7457 -0.0563
 1013MOL0     H36704   3.569   5.475   3.507  1.7984  0.3393 -0.5681
 1013MOL0     H36705   3.595   5.584   3.644  0.5413 -0.2229 -0.9747
 1013MOL0     H36706   3.721   5.404   3.859  2.3554  1.2211  0.9668
 1013MOL0     H36707   3.968   5.251   3.920 -0.7712 -1.9147 -0.3207
 1013MOL0     H36708   4.001   5.155   3.789  1.4526  0.2119  0.4442
 1013MOL0     H36709   4.142   5.340   3.679 -0.6302 -1.4658  0.0353
 1013MOL0     H36710   4.121   5.432   3.836  0.8348  0.3794  0.6998
 1013MOL0     H36711   4.254   5.163   3.801  1.0554  1.2845 -2.6616
 1013MOL0     H36712   4.228   5.237   3.946 -1.1034  0.7955  0.6308
 1013MOL0     H36713   4.379   5.377   3.725 -0.9707  1.0675 -0.2700
 1013MOL0     H36714   4.444   5.271   3.858 -2.8401 -1.4409  0.7421
 1013MOL0     H36715   4.372   5.676   4.057 -1.2356 -0.8138 -2.3284
 1013MOL0     H36716   4.542   5.833   4.074 -2.5388 -0.2441 -1.5734
 1013MOL0     H36717   5.017   5.925   4.154 -0.8132 -1.0682 -0.1045
 1013MOL0     H36718   5.253   6.023   4.152 -2.0422  1.8754 -0.6387
 1013MOL0     H36719   5.475   6.130   3.802 -1.1879  0.2140 -0.9138
 1013MOL0     H36720   5.362   6.211   3.910 -1.9627 -1.8713  2.5630
 1013MOL0     H36721   5.578   6.300   3.947 -1.4063  0.3574  0.0314
 1013MOL0     H36722   5.547   6.208   4.090  1.7853 -0.9590  0.3686
 1013MOL0     H36723   5.676   6.005   3.996 -1.2313  0.9839  2.6491
 1013MOL0     H36724   5.710   6.106   3.849 -2.2701 -1.4818 -1.5457
 1013MOL0     H36725   5.765   6.190   4.135 -0.0260  0.1697  0.0490
 1013MOL0     H36726   5.837   6.250   3.976 -0.9577  0.6614 -0.2020
 1013MOL0     H36727   5.868   5.977   4.088 -1.3213 -0.1957 -1.1055
 1013MOL0     H36728   5.988   6.111   4.107 -1.4538  0.9094  1.4677
 1013MOL0     H36729   6.048   5.953   3.937  0.5667  0.5826 -0.3290
 1013MOL0     H36730   5.896   5.970   3.843  0.0816 -2.8211  2.2353
 1013MOL0     H36731   6.077   6.209   3.922 -0.2380  1.1771 -1.3740
 1013MOL0     H36732   5.982   6.194   3.777  2.2710  3.3967 -0.2954
 1013MOL0     H36733   6.179   6.002   3.720  1.5062  1.1452 -0.9279
 1013MOL0     H36734   6.197   6.171   3.700  0.2365 -0.5709 -1.5751
 1013MOL0     H36735   5.317   5.902   3.753  1.8354  0.2264  0.9039
 1013MOL0     H36736   5.087   5.811   3.738  0.2914 -0.4379  0.9027
 1013MOL0     H36737   4.803   5.579   3.837 -1.0185 -0.0829 -0.6778
 1013MOL0     H36738   4.615   5.437   3.795  1.6542  0.6462  0.6135
 1013MOL0     H36739   2.449   5.805   3.517  3.0525 -0.1507  0.9903
 1013MOL0     H36740   2.196   5.765   3.507 -3.7259 -2.3872  0.4498
 1013MOL0     H36741   1.868   5.685   3.470 -1.1848  1.0174 -0.8291
 1013MOL0     H36742   1.649   5.705   3.412 -0.4466 -1.0674  0.0543
 1013MOL0     H36743   1.302   5.476   3.241  0.2963  0.2901  1.4421
 1013MOL0     H36744   1.426   5.353   3.227 -0.5840  0.0976 -0.9929
 1013MOL0     H36745   1.360   5.453   3.014 -1.5214  1.0073  0.7866
 1013MOL0     H36746   1.529   5.481   3.022  1.7441  1.7691  0.3913
 1013MOL0     H36747   1.508   5.700   3.126 -1.4388 -0.9656  2.0967
 1013MOL0     H36748   1.335   5.708   3.084  0.3899  0.6014 -1.8061
 1013MOL0     H36749   1.543   5.648   2.877  1.7474  2.1022  0.7484
 1013MOL0     H36750   1.373   5.693   2.855  0.8766 -1.2726 -1.3853
 1013MOL0     H36751   1.556   6.061   2.816 -1.3907  1.0190  3.9524
 1013MOL0     H36752   1.632   5.303   3.257 -3.6298 -0.3101  1.9559
 1013MOL0     H36753   1.803   5.166   3.261  2.4880 -3.7564  4.0856
 1013MOL0     H36754   1.923   5.254   3.172 -1.5555  0.4002  0.1610
 1013MOL0     H36755   1.958   5.210   3.342 -0.5602 -0.5439  1.5153
 1014MOL0     O36756   0.296   8.543   7.219 -0.3917  0.7944 -1.8743
 1014MOL0     C36757   0.282   8.419   7.208  0.2376  0.1528 -0.2534
 1014MOL0     O36758   0.361   8.319   7.258  0.1208 -0.5353 -0.8793
 1014MOL0     C36759   0.502   8.337   7.261  0.4383  0.2767  0.4156
 1014MOL0     C36760   0.571   8.431   7.177 -0.4799  0.0925  0.8565
 1014MOL0     C36761   0.709   8.428   7.161  0.8713  0.3453  0.3910
 1014MOL0     C36762   0.786   8.331   7.234 -0.1305 -0.1195 -0.1746
 1014MOL0     O36763   0.921   8.343   7.232  0.1393 -0.1281  0.4850
 1014MOL0     C36764   1.014   8.297   7.329  0.0981  0.2986  0.0422
 1014MOL0     C36765   1.153   8.351   7.310 -0.0468 -0.4822 -0.3966
 1014MOL0     C36766   1.156   8.500   7.276  0.6010 -0.1152  0.1208
 1014MOL0     C36767   1.293   8.555   7.302 -0.5731 -0.8858 -0.1881
 1014MOL0     C36768   1.286   8.712   7.302 -0.0248  0.0827 -0.4631
 1014MOL0     C36769   1.413   8.782   7.357  0.4130 -0.5800 -0.8113
 1014MOL0     C36770   1.552   8.735   7.313 -0.9742 -0.4853  0.0747
 1014MOL0     C36771   1.649   8.853   7.340  0.6388 -1.0716  0.0105
 1014MOL0     N36772   1.789   8.815   7.338 -0.2493 -0.1923  0.4032
 1014MOL0     C36773   1.867   8.801   7.225  0.2168 -0.4843 -0.5873
 1014MOL0     C36774   1.986   8.764   7.271 -0.1115 -0.3038 -0.8632
 1014MOL0     C36775   2.110   8.727   7.188  0.2709  0.4647 -0.2171
 1014MOL0     C36776   2.237   8.793   7.236 -0.4446 -0.4531 -0.4147
 1014MOL0     C36777   2.293   8.725   7.359 -0.0509 -0.1672  0.1113
 1014MOL0     C36778   2.441   8.768   7.379  0.3617  0.7679  0.0964
 1014MOL0     O36779   2.478   8.904   7.342 -0.4860  0.2425  0.2381
 1014MOL0     C36780   2.603   8.944   7.386  0.0952 -0.6139  0.5333
 1014MOL0     C36781   2.712   8.865   7.420  0.0604  0.1413  0.9463
 1014MOL0     C36782   2.826   8.915   7.482 -0.5892 -0.1607 -0.4959
 1014MOL0     C36783   2.835   9.052   7.515  1.1275 -0.5560  0.0918
 1014MOL0     C36784   2.943   9.113   7.595 -0.8306  0.3025  0.0150
 1014MOL0     O36785   3.047   9.029   7.635  0.2033 -0.3864  1.1189
 1014MOL0     C36786   3.145   9.072   7.722 -0.0474 -0.9396  0.3507
 1014MOL0     C36787   3.274   9.018   7.705  0.0262  0.3662  0.3242
 1014MOL0     C36788   3.372   9.047   7.805 -0.1001 -0.1846 -0.5656
 1014MOL0     C36789   3.349   9.109   7.920 -0.1716 -0.1734 -0.4079
 1014MOL0     O36790   3.455   9.122   8.013  0.5784  0.6395  0.2453
 1014MOL0     C36791   3.422   9.201   8.127 -0.3339 -0.5985  0.4760
 1014MOL0     C36792   3.537   9.214   8.229 -0.8735  0.6989  0.1554
 1014MOL0     C36793   3.677   9.254   8.180  0.0552  1.2005  0.6348
 1014MOL0     C36794   3.777   9.242   8.301 -0.5357  0.0981 -0.2538
 1014MOL0     C36795   3.902   9.316   8.277  0.5111 -1.3751  0.4592
 1014MOL0     C36796   3.990   9.264   8.156 -0.1419 -0.2327  0.4993
 1014MOL0     C36797   4.037   9.121   8.172 -0.1676 -0.2861  0.8825
 1014MOL0     C36798   4.004   9.024   8.052 -0.0348  0.0021  0.7122
 1014MOL0    Cl36799   4.056   9.079   7.889  0.3587  0.5332  0.1149
 1014MOL0     C36800   3.213   9.143   7.942 -1.2739 -0.2215 -0.6092
 1014MOL0     C36801   3.120   9.138   7.841 -0.0516 -0.3277 -0.6542
 1014MOL0     O36802   2.940   9.237   7.619  0.0458 -0.0538 -0.0649
 1014MOL0     C36803   2.722   9.136   7.474  0.2736 -0.1335  0.3443
 1014MOL0     C36804   2.614   9.079   7.411 -0.3879  0.2523  0.2176
 1014MOL0     N36805   1.986   8.759   7.411 -0.1231 -0.0915 -0.0211
 1014MOL0     N36806   1.863   8.782   7.449 -0.2862  0.8591 -0.7284
 1014MOL0     C36807   0.719   8.250   7.324  0.1906 -0.3773  0.4985
 1014MOL0     C36808   0.579   8.253   7.334  0.2079  0.6975 -0.5320
 1014MOL0     C36809   0.154   8.373   7.143  0.5770 -0.2398  0.0984
 1014MOL0     C36810   0.045   8.457   7.144  0.2862  0.3673  0.4577
 1014MOL0     C36811  -0.068   8.430   7.077  1.0367  0.0835  0.0339
 1014MOL0     C36812  -0.085   8.306   7.004  0.4540 -0.0612 -0.2239
 1014MOL0     O36813  -0.202   8.267   6.940 -0.7292  0.0287 -0.7461
 1014MOL0     C36814  -0.317   8.229   7.018 -0.7190 -0.4982 -0.2781
 1014MOL0     C36815  -0.413   8.120   6.946 -0.3270  0.8144  1.0924
 1014MOL0     C36816  -0.322   7.992   6.909 -0.0585 -0.2578  0.1334
 1014MOL0     C36817  -0.405   7.879   6.843 -0.2991 -0.0768  0.1232
 1014MOL0     C36818  -0.313   7.773   6.781  0.3262 -0.4174 -0.2687
 1014MOL0     C36819  -0.226   7.701   6.729  0.0498 -0.2915  0.2968
 1014MOL0     C36820   0.027   8.226   6.996 -0.3148 -0.4862 -0.4792
 1014MOL0     C36821   0.144   8.257   7.053  0.5793  0.7959 -0.1997
 1014MOL0     C36822   0.269   8.171   7.028  0.1553 -0.4587 -0.8127
 1014MOL0     H36823   0.522   8.499   7.107  2.1158  0.3473 -0.8556
 1014MOL0     H36824   0.745   8.506   7.095 -4.1701  0.6912 -2.4223
 1014MOL0     H36825   0.981   8.335   7.426  0.2361 -0.1107  0.2518
 1014MOL0     H36826   1.009   8.189   7.341  0.9029  0.4262  2.0235
 1014MOL0     H36827   1.196   8.298   7.224  1.7875  0.6855 -0.2434
 1014MOL0     H36828   1.199   8.331   7.407  1.9225  0.4074 -1.1065
 1014MOL0     H36829   1.081   8.559   7.330 -0.5577  0.5268 -2.0723
 1014MOL0     H36830   1.132   8.507   7.170  1.7225  0.8954 -0.0937
 1014MOL0     H36831   1.332   8.522   7.399 -1.2335 -1.0430  0.0307
 1014MOL0     H36832   1.352   8.517   7.219 -0.9486  0.5773 -1.1551
 1014MOL0     H36833   1.270   8.763   7.206  1.7811  1.5828 -0.0297
 1014MOL0     H36834   1.205   8.745   7.368  0.0586 -0.8249  0.1097
 1014MOL0     H36835   1.410   8.889   7.337  3.4842  0.4645  2.9430
 1014MOL0     H36836   1.416   8.777   7.466 -3.0535 -1.5013 -0.6511
 1014MOL0     H36837   1.561   8.711   7.207 -1.1283  0.8497 -0.2571
 1014MOL0     H36838   1.581   8.655   7.383 -0.8634  0.0104  0.6081
 1014MOL0     H36839   1.629   8.932   7.267 -0.4692  0.6611  2.0514
 1014MOL0     H36840   1.622   8.893   7.439 -0.6557  0.3893 -0.8857
 1014MOL0     H36841   1.850   8.818   7.119 -0.8030  1.3962 -0.1735
 1014MOL0     H36842   2.121   8.619   7.199  1.0308  0.8036  4.7733
 1014MOL0     H36843   2.106   8.751   7.081  2.2222  4.3670  0.3851
 1014MOL0     H36844   2.315   8.776   7.161 -0.7718  0.4281 -0.9729
 1014MOL0     H36845   2.211   8.894   7.268  0.4700 -0.8620  1.7439
 1014MOL0     H36846   2.290   8.616   7.355  0.1535 -0.1457 -1.2491
 1014MOL0     H36847   2.233   8.757   7.445 -2.1693  0.8684 -1.6351
 1014MOL0     H36848   2.505   8.707   7.313  2.7335  2.3651  0.7764
 1014MOL0     H36849   2.461   8.742   7.483  0.5923 -0.2690 -0.1956
 1014MOL0     H36850   2.707   8.758   7.399  0.2947  0.2511  0.2873
 1014MOL0     H36851   2.915   8.862   7.514 -1.0193 -0.7053 -0.1787
 1014MOL0     H36852   3.304   8.945   7.630  0.8740  0.3557  0.6579
 1014MOL0     H36853   3.475   9.017   7.790  1.4481  3.0782  2.3672
 1014MOL0     H36854   3.405   9.304   8.094  3.1264 -0.0661  0.0625
 1014MOL0     H36855   3.332   9.167   8.180 -0.8445 -0.0930 -0.0502
 1014MOL0     H36856   3.500   9.284   8.305  0.5127  0.8909  0.6809
 1014MOL0     H36857   3.553   9.115   8.271 -0.4855 -0.2596 -2.1087
 1014MOL0     H36858   3.711   9.194   8.095  0.6807  0.6392  1.2656
 1014MOL0     H36859   3.688   9.354   8.136  4.6775 -0.5182 -2.8958
 1014MOL0     H36860   3.798   9.135   8.307  0.0620  0.2204 -0.1598
 1014MOL0     H36861   3.729   9.276   8.394  1.6187  1.6800  0.3527
 1014MOL0     H36862   3.951   9.324   8.374  0.4694  0.3446  0.3773
 1014MOL0     H36863   3.872   9.420   8.258 -0.4159 -1.2169  2.4937
 1014MOL0     H36864   3.934   9.264   8.062  1.7105 -2.6340 -0.7150
 1014MOL0     H36865   4.077   9.331   8.150  1.9874 -2.8553  0.2061
 1014MOL0     H36866   4.010   9.077   8.268 -3.2108 -0.4556  0.0483
 1014MOL0     H36867   4.146   9.113   8.165 -0.4095 -3.2717 -1.0250
 1014MOL0     H36868   4.067   8.937   8.072  1.4557 -0.0853 -3.3398
 1014MOL0     H36869   3.895   9.019   8.044 -0.1470  1.7686  0.7159
 1014MOL0     H36870   3.179   9.198   8.029  0.1435 -0.1203 -0.1015
 1014MOL0     H36871   3.014   9.157   7.854 -0.6473 -3.5694  0.2618
 1014MOL0     H36872   2.727   9.240   7.504 -1.4243  0.0087  0.2493
 1014MOL0     H36873   2.522   9.134   7.391 -0.3717  0.4395  0.6601
 1014MOL0     H36874   0.771   8.176   7.384 -1.4601 -1.3972  0.7357
 1014MOL0     H36875   0.537   8.198   7.418 -0.9873 -0.8148 -2.0520
 1014MOL0     H36876   0.056   8.553   7.193  2.4202  0.5723 -0.3142
 1014MOL0     H36877  -0.150   8.501   7.086  2.7036  2.3721 -1.6922
 1014MOL0     H36878  -0.376   8.319   7.038 -0.5046 -0.0418 -1.6207
 1014MOL0     H36879  -0.296   8.200   7.121  0.3413  0.7156 -0.1263
 1014MOL0     H36880  -0.444   8.174   6.857  1.3125  2.1315  1.2680
 1014MOL0     H36881  -0.502   8.091   7.002  0.0909 -2.0084  0.4496
 1014MOL0     H36882  -0.266   7.960   6.997  3.0317  1.1707 -1.1931
 1014MOL0     H36883  -0.249   8.028   6.836 -0.0635 -3.1703 -1.4756
 1014MOL0     H36884  -0.466   7.829   6.919  0.1664  1.2252  1.4034
 1014MOL0     H36885  -0.463   7.918   6.759 -0.5914  0.6294  0.6465
 1014MOL0     H36886  -0.172   7.616   6.690 -2.3472 -1.1098 -1.4757
 1014MOL0     H36887   0.027   8.145   6.925  2.0704  0.0183 -1.1446
 1014MOL0     H36888   0.261   8.089   6.956  1.4149 -1.1808 -0.1572
 1014MOL0     H36889   0.348   8.235   6.988 -1.2607  0.5403 -2.1493
 1014MOL0     H36890   0.300   8.130   7.124 -1.4959  2.3940  1.0927
 1015MOL0     O36891   5.154   1.733  10.643  0.2821 -0.0748 -0.2767
 1015MOL0     C36892   5.157   1.625  10.694  0.1741  0.2117 -0.2981
 1015MOL0     O36893   5.268   1.555  10.724 -0.2072 -0.3021 -0.5671
 1015MOL0     C36894   5.391   1.621  10.723  0.0187 -0.0610  0.2751
 1015MOL0     C36895   5.443   1.670  10.844  0.6684 -0.1822  0.0652
 1015MOL0     C36896   5.575   1.723  10.858 -0.0770 -0.2248  0.0120
 1015MOL0     C36897   5.657   1.718  10.748 -0.4867 -0.5033  0.5242
 1015MOL0     O36898   5.794   1.756  10.743  0.1995  0.5185  0.1091
 1015MOL0     C36899   5.866   1.769  10.860  0.1588  0.5502  0.5773
 1015MOL0     C36900   6.018   1.749  10.833  0.2769 -0.8806 -0.6753
 1015MOL0     C36901   6.102   1.764  10.962 -0.0051 -0.6923  0.0322
 1015MOL0     C36902   6.252   1.745  10.930  0.3227  0.2792  0.1913
 1015MOL0     C36903   6.328   1.762  11.057  0.3907  0.8344  0.3565
 1015MOL0     C36904   6.480   1.722  11.049  0.2927  0.5167  1.3900
 1015MOL0     C36905   6.551   1.760  11.180  0.4088 -0.5549  0.6933
 1015MOL0     C36906   6.696   1.722  11.183 -0.4995  0.1999  0.0859
 1015MOL0     N36907   6.789   1.809  11.097 -0.6473  0.1478  0.4315
 1015MOL0     C36908   6.815   1.801  10.964  0.5785 -0.0855 -0.2615
 1015MOL0     C36909   6.886   1.916  10.934  0.3804 -0.5398 -0.3125
 1015MOL0     C36910   6.915   1.952  10.796 -0.5133 -0.1007  0.2004
 1015MOL0     C36911   7.022   1.870  10.728 -0.2939  0.3218  0.0356
 1015MOL0     C36912   7.156   1.879  10.793  0.4968  0.3377 -0.0243
 1015MOL0     C36913   7.271   1.857  10.701 -0.3834 -0.7226  0.5739
 1015MOL0     O36914   7.295   1.974  10.614  0.8382  0.4743 -0.8451
 1015MOL0     C36915   7.418   1.993  10.562 -0.6650  0.5881 -0.6727
 1015MOL0     C36916   7.535   1.914  10.584 -0.1477  0.0764  0.2133
 1015MOL0     C36917   7.655   1.963  10.518  0.2872 -0.6923  0.1205
 1015MOL0     C36918   7.654   2.063  10.419  1.5964 -0.2873 -0.1614
 1015MOL0     C36919   7.780   2.098  10.358 -0.2609 -0.3502  0.5418
 1015MOL0     O36920   7.901   2.071  10.407  1.1455  0.4023  0.1826
 1015MOL0     C36921   8.016   2.106  10.327  0.0876  0.6894  0.3464
 1015MOL0     C36922   8.027   2.082  10.193 -0.5832 -0.1620  0.5689
 1015MOL0     C36923   8.144   2.101  10.116 -0.4672  1.2874 -0.4873
 1015MOL0     C36924   8.254   2.135  10.183 -0.4223  0.3022  0.9624
 1015MOL0     O36925   8.375   2.142  10.112 -0.2469 -0.6124 -0.1540
 1015MOL0     C36926   8.502   2.179  10.173  0.1762 -0.5189 -0.6153
 1015MOL0     C36927   8.610   2.167  10.058  0.0372  0.2458  0.3143
 1015MOL0     C36928   8.747   2.193  10.116  0.8905  0.6045 -0.7271
 1015MOL0     C36929   8.848   2.155  10.019 -0.1455  0.2804 -0.0519
 1015MOL0     C36930   8.984   2.194  10.076  0.4645 -0.4875  0.1557
 1015MOL0     C36931   9.094   2.147   9.997 -0.0588  0.2850 -0.7026
 1015MOL0     C36932   9.229   2.157  10.078  0.4177  0.1202  0.0522
 1015MOL0     C36933   9.337   2.084  10.000  0.3975 -0.5673 -0.7425
 1015MOL0    Cl36934   9.361   2.170   9.848  0.1229  0.2724 -0.4468
 1015MOL0     C36935   8.242   2.180  10.316  0.0175 -0.3648 -0.3168
 1015MOL0     C36936   8.119   2.175  10.390  0.0085 -0.0950  0.0122
 1015MOL0     O36937   7.763   2.177  10.267  0.5889  0.5491  0.2080
 1015MOL0     C36938   7.528   2.119  10.384 -1.1262  0.3295 -0.6089
 1015MOL0     C36939   7.419   2.085  10.460  0.7889 -0.8647  1.0441
 1015MOL0     N36940   6.927   1.977  11.054 -0.7761 -0.2237 -0.4952
 1015MOL0     N36941   6.857   1.920  11.141 -0.4257  0.0105 -0.1507
 1015MOL0     C36942   5.602   1.681  10.622  0.4889 -0.6538  0.2044
 1015MOL0     C36943   5.471   1.634  10.613  0.3046  0.8029 -0.1715
 1015MOL0     C36944   5.031   1.548  10.695  0.3904  0.1269  0.8796
 1015MOL0     C36945   5.038   1.409  10.657 -0.1236 -0.6096 -0.3138
 1015MOL0     C36946   4.923   1.327  10.663  0.3912 -0.7486 -0.2177
 1015MOL0     C36947   4.807   1.374  10.719  0.1752 -0.6930  0.2001
 1015MOL0     O36948   4.701   1.280  10.719  0.7124 -0.9626  0.6557
 1015MOL0     C36949   4.569   1.333  10.751 -0.2791 -0.0502 -0.5168
 1015MOL0     C36950   4.517   1.413  10.628  0.0650  0.2831 -0.5550
 1015MOL0     C36951   4.377   1.466  10.654 -0.0822 -0.4886  0.8242
 1015MOL0     C36952   4.352   1.616  10.619  0.7346 -0.1332  0.4828
 1015MOL0     C36953   4.230   1.664  10.677 -0.1438  0.0723 -0.2368
 1015MOL0     C36954   4.118   1.700  10.713 -0.2665  0.2510 -0.2571
 1015MOL0     C36955   4.798   1.511  10.759  0.1657  0.1077 -0.0104
 1015MOL0     C36956   4.908   1.597  10.745  0.4999 -0.5358 -0.1561
 1015MOL0     C36957   4.898   1.739  10.788 -0.8245  0.1810  0.1598
 1015MOL0     H36958   5.383   1.650  10.932  1.1852 -0.1124  0.4412
 1015MOL0     H36959   5.616   1.746  10.955  2.7194 -1.5410 -0.7534
 1015MOL0     H36960   5.847   1.872  10.890 -2.5122 -0.3045  2.1074
 1015MOL0     H36961   5.825   1.703  10.936  0.8879  0.0733  0.5679
 1015MOL0     H36962   6.048   1.824  10.760 -0.9697 -0.3535 -0.6698
 1015MOL0     H36963   6.033   1.657  10.775 -0.1650  0.1170 -2.4436
 1015MOL0     H36964   6.066   1.687  11.031 -1.6901 -1.0519 -1.1890
 1015MOL0     H36965   6.087   1.861  11.010  0.8983 -0.1412 -0.7682
 1015MOL0     H36966   6.269   1.642  10.896 -0.4498  0.0373  0.4974
 1015MOL0     H36967   6.289   1.819  10.859  0.6863 -0.5559 -0.5068
 1015MOL0     H36968   6.317   1.868  11.083  0.0029  0.8809  0.0192
 1015MOL0     H36969   6.276   1.696  11.126  1.0067  0.5516  0.5497
 1015MOL0     H36970   6.472   1.613  11.047 -1.9655  0.5954 -1.6752
 1015MOL0     H36971   6.528   1.771  10.964  0.3076 -0.3997  0.8570
 1015MOL0     H36972   6.489   1.722  11.261 -2.2190  0.8561 -0.4898
 1015MOL0     H36973   6.545   1.868  11.200  0.4845 -0.6123  1.0153
 1015MOL0     H36974   6.729   1.751  11.283  2.4217  0.3747 -0.8512
 1015MOL0     H36975   6.710   1.615  11.162 -3.5703 -0.2788 -0.0848
 1015MOL0     H36976   6.764   1.735  10.894  0.0413  0.1538 -0.0989
 1015MOL0     H36977   6.827   1.935  10.732 -0.0458 -1.9815 -0.0070
 1015MOL0     H36978   6.936   2.059  10.791  0.4088 -0.3241 -2.4866
 1015MOL0     H36979   6.993   1.767  10.709 -0.7330  0.9158 -3.0769
 1015MOL0     H36980   7.033   1.906  10.626  0.6701 -2.9777 -1.1396
 1015MOL0     H36981   7.159   1.803  10.872 -2.2747 -0.7140 -0.8384
 1015MOL0     H36982   7.148   1.980  10.836 -0.0895 -0.1222  0.9769
 1015MOL0     H36983   7.248   1.776  10.632  1.2473 -0.2905 -0.5470
 1015MOL0     H36984   7.360   1.841  10.763  1.6491 -0.2811 -2.0367
 1015MOL0     H36985   7.528   1.839  10.662 -0.6238  1.8793  2.0166
 1015MOL0     H36986   7.749   1.927  10.559 -1.1940 -2.8395  1.8803
 1015MOL0     H36987   7.942   2.058  10.130  0.1876  0.2630 -0.6757
 1015MOL0     H36988   8.143   2.074  10.011 -3.7859 -2.5731  0.3058
 1015MOL0     H36989   8.499   2.280  10.215  3.0094 -1.3751  2.0484
 1015MOL0     H36990   8.523   2.113  10.258  3.2673 -0.5442 -1.2931
 1015MOL0     H36991   8.606   2.067  10.014 -1.3698  0.7151 -0.6781
 1015MOL0     H36992   8.601   2.234   9.973 -0.2731 -0.0442  0.1154
 1015MOL0     H36993   8.760   2.299  10.141  0.9341  0.6382 -0.8880
 1015MOL0     H36994   8.775   2.158  10.216 -0.2931  2.8926  0.4942
 1015MOL0     H36995   8.831   2.218   9.931 -1.0907  2.9763  1.9309
 1015MOL0     H36996   8.845   2.047  10.002 -1.5462  0.2372  0.3220
 1015MOL0     H36997   8.988   2.140  10.171  2.0935  0.2585  0.5369
 1015MOL0     H36998   8.999   2.300  10.096  1.4600 -0.6198  0.1558
 1015MOL0     H36999   9.080   2.040   9.979 -1.1490  0.1397  0.7803
 1015MOL0     H37000   9.101   2.200   9.902 -1.3788 -0.0692 -1.0113
 1015MOL0     H37001   9.234   2.110  10.177  0.4535 -0.2539 -0.1230
 1015MOL0     H37002   9.255   2.263  10.084 -3.4903  1.1587  1.8805
 1015MOL0     H37003   9.426   2.074  10.062 -1.5460  0.6791  2.4877
 1015MOL0     H37004   9.295   1.986   9.974 -1.3934 -0.1462  0.4136
 1015MOL0     H37005   8.331   2.232  10.352 -1.3892  2.2048 -0.2756
 1015MOL0     H37006   8.117   2.193  10.497  0.5203 -1.6700  0.3203
 1015MOL0     H37007   7.527   2.185  10.297  0.4028  1.7506  0.4101
 1015MOL0     H37008   7.330   2.132  10.422  1.0346  1.5671  3.2244
 1015MOL0     H37009   5.667   1.685  10.535  0.7621  2.9692  0.4020
 1015MOL0     H37010   5.431   1.604  10.516  2.4051  1.0367 -1.1716
 1015MOL0     H37011   5.128   1.356  10.628  0.3532  0.5131 -0.9475
 1015MOL0     H37012   4.920   1.224  10.628 -6.3346  0.6372 -6.0303
 1015MOL0     H37013   4.562   1.400  10.837 -0.0237  2.2301 -2.1812
 1015MOL0     H37014   4.510   1.243  10.772  2.1350 -2.0511 -1.7384
 1015MOL0     H37015   4.519   1.337  10.549 -1.6193  0.3385 -0.6839
 1015MOL0     H37016   4.587   1.494  10.607 -2.4546  1.8516 -3.5941
 1015MOL0     H37017   4.352   1.453  10.760 -0.9578 -0.8640  0.5740
 1015MOL0     H37018   4.299   1.411  10.600  1.8214 -1.0497 -1.5232
 1015MOL0     H37019   4.441   1.667  10.656  1.0908  0.2661 -0.8772
 1015MOL0     H37020   4.345   1.635  10.511  0.4057 -0.0134  0.5224
 1015MOL0     H37021   4.015   1.710  10.740  0.0269 -0.3388  1.1448
 1015MOL0     H37022   4.702   1.552  10.789  0.9555  0.1755  2.6314
 1015MOL0     H37023   4.905   1.810  10.705 -1.1955 -1.6026 -1.4705
 1015MOL0     H37024   4.803   1.769  10.833  0.8480  2.5388  2.3841
 1015MOL0     H37025   4.981   1.769  10.852  0.9392  0.0552 -1.9411
 1016MOL0     O37026   7.270   1.509   6.770 -0.0683  0.1079 -0.5292
 1016MOL0     C37027   7.246   1.611   6.837  0.8234  0.6166  0.7191
 1016MOL0     O37028   7.285   1.635   6.962 -0.5467 -0.0572  0.2568
 1016MOL0     C37029   7.416   1.646   6.994  0.2821  0.7847 -0.3807
 1016MOL0     C37030   7.445   1.705   7.118  0.3792  0.4140 -0.0592
 1016MOL0     C37031   7.579   1.720   7.171 -1.0662 -0.1587 -0.3814
 1016MOL0     C37032   7.688   1.673   7.089  0.1111 -0.0659 -0.3383
 1016MOL0     O37033   7.822   1.676   7.138 -0.6490 -0.0138 -0.6268
 1016MOL0     C37034   7.855   1.780   7.230 -0.8690  0.4413 -0.2067
 1016MOL0     C37035   8.002   1.788   7.237  0.1914 -0.1839 -0.0345
 1016MOL0     C37036   8.069   1.800   7.105 -0.5084  0.4358  0.0291
 1016MOL0     C37037   8.221   1.817   7.121 -0.6320  0.3088 -0.1298
 1016MOL0     C37038   8.286   1.816   6.986  0.3406  0.0896  0.5329
 1016MOL0     C37039   8.434   1.838   6.987  0.5117  0.3978 -0.0530
 1016MOL0     C37040   8.512   1.740   7.079  0.1307  0.3266 -0.1030
 1016MOL0     C37041   8.668   1.739   7.051 -0.2730 -0.1650  0.7880
 1016MOL0     N37042   8.732   1.870   7.083  0.1421  0.1877 -0.0936
 1016MOL0     C37043   8.745   1.936   7.199  0.6293 -1.1796  0.0870
 1016MOL0     C37044   8.751   2.065   7.170  0.2351 -0.6326  0.8218
 1016MOL0     C37045   8.755   2.192   7.251  0.3052 -0.4836 -0.4036
 1016MOL0     C37046   8.613   2.247   7.271 -0.0521  0.5512 -0.8226
 1016MOL0     C37047   8.596   2.375   7.359  0.4947  0.2513 -0.4968
 1016MOL0     C37048   8.641   2.513   7.306  0.6693 -0.5098  0.5321
 1016MOL0     O37049   8.611   2.594   7.417  0.2900  0.0858  0.8387
 1016MOL0     C37050   8.483   2.646   7.442 -0.4108  0.4186  0.0183
 1016MOL0     C37051   8.373   2.633   7.362  0.3900 -0.7595 -0.5426
 1016MOL0     C37052   8.253   2.671   7.416  0.1019  0.0877  0.8893
 1016MOL0     C37053   8.234   2.719   7.545 -0.3742 -0.4579  0.1743
 1016MOL0     C37054   8.096   2.759   7.594 -0.5608 -0.0951 -0.0211
 1016MOL0     O37055   7.993   2.704   7.519  0.8555  1.1851  0.2009
 1016MOL0     C37056   7.863   2.735   7.546  0.0821  0.2002 -1.0193
 1016MOL0     C37057   7.793   2.792   7.445 -0.6819  0.1767 -0.3769
 1016MOL0     C37058   7.663   2.844   7.460  0.4417  0.4197 -0.6622
 1016MOL0     C37059   7.598   2.829   7.583  1.0268 -0.0649  0.0321
 1016MOL0     O37060   7.473   2.879   7.606  0.2036  0.0285 -0.0754
 1016MOL0     C37061   7.451   2.964   7.719  0.6257 -0.0780 -0.6788
 1016MOL0     C37062   7.348   3.064   7.666 -0.7208 -0.2718 -0.0651
 1016MOL0     C37063   7.318   3.178   7.770  0.1891  0.0228  0.2599
 1016MOL0     C37064   7.436   3.258   7.825  1.2449 -1.1823 -1.1903
 1016MOL0     C37065   7.404   3.383   7.903 -0.4430  0.0482 -0.2471
 1016MOL0     C37066   7.527   3.441   7.961  0.5714  0.8705 -0.3408
 1016MOL0     C37067   7.513   3.589   7.984 -0.0542 -0.6521 -0.0525
 1016MOL0     C37068   7.396   3.629   8.078  0.3029 -0.1055  0.5530
 1016MOL0    Cl37069   7.245   3.643   7.996  0.7916  0.1994  0.0255
 1016MOL0     C37070   7.664   2.763   7.687  0.0506 -0.0088 -0.0211
 1016MOL0     C37071   7.791   2.720   7.669 -0.0298 -0.1762  0.2342
 1016MOL0     O37072   8.085   2.831   7.695  0.2872 -0.4846  0.1120
 1016MOL0     C37073   8.348   2.732   7.628 -0.8220 -1.1640  1.1146
 1016MOL0     C37074   8.470   2.701   7.570 -0.3375 -0.5648 -0.1045
 1016MOL0     N37075   8.755   2.082   7.030  0.6370  0.4705  0.2277
 1016MOL0     N37076   8.742   1.960   6.983  0.7846  0.8030  0.6163
 1016MOL0     C37077   7.659   1.614   6.964 -0.1894 -0.0647 -0.5337
 1016MOL0     C37078   7.520   1.611   6.919 -0.5539  0.3645  0.4501
 1016MOL0     C37079   7.128   1.685   6.789  1.0329  0.3623  0.1773
 1016MOL0     C37080   7.040   1.720   6.884 -0.0948 -0.0801 -0.9336
 1016MOL0     C37081   6.914   1.782   6.856 -1.1207  0.3195 -0.2477
 1016MOL0     C37082   6.870   1.803   6.725 -0.8865 -0.3511  0.2837
 1016MOL0     O37083   6.754   1.878   6.706 -1.0756  0.7134  0.0726
 1016MOL0     C37084   6.712   1.904   6.576 -0.8216  0.2433  0.4606
 1016MOL0     C37085   6.576   1.968   6.571 -0.0870 -0.2500 -0.1951
 1016MOL0     C37086   6.481   1.900   6.680  0.0155  0.6448 -0.1513
 1016MOL0     C37087   6.331   1.889   6.642 -1.2027  0.6466 -0.0035
 1016MOL0     C37088   6.262   2.019   6.643 -0.0809 -0.1809  0.2650
 1016MOL0     C37089   6.195   2.125   6.645  0.4648  0.3089 -0.7550
 1016MOL0     C37090   6.953   1.752   6.628  0.0646 -0.2946  0.0681
 1016MOL0     C37091   7.081   1.699   6.657  0.0347 -0.2005  0.1271
 1016MOL0     C37092   7.152   1.642   6.537  0.1705 -0.0804  0.3493
 1016MOL0     H37093   7.361   1.727   7.183 -0.5108 -3.4381  0.3099
 1016MOL0     H37094   7.599   1.754   7.272  1.1202 -0.7843 -0.5474
 1016MOL0     H37095   7.817   1.876   7.193  2.1100  0.6858 -3.0730
 1016MOL0     H37096   7.816   1.759   7.330  1.4327  1.5395  1.0130
 1016MOL0     H37097   8.029   1.701   7.299 -0.7924  1.3662  2.7634
 1016MOL0     H37098   8.036   1.872   7.297  2.7312 -2.1069  1.4107
 1016MOL0     H37099   8.037   1.888   7.048  2.3818  0.7172 -1.3562
 1016MOL0     H37100   8.043   1.704   7.059 -0.0800 -0.6084  1.8419
 1016MOL0     H37101   8.228   1.913   7.173 -3.9280 -0.6274  2.3529
 1016MOL0     H37102   8.270   1.743   7.185 -0.0108  0.1636 -0.7661
 1016MOL0     H37103   8.278   1.710   6.958 -1.2147 -0.1946  1.8657
 1016MOL0     H37104   8.249   1.887   6.911  2.7771  1.4051  0.4950
 1016MOL0     H37105   8.479   1.827   6.889  2.6572  1.6157  0.7177
 1016MOL0     H37106   8.452   1.945   7.006 -1.0423  0.7836 -0.6129
 1016MOL0     H37107   8.477   1.640   7.055  0.9009 -0.0559  0.3179
 1016MOL0     H37108   8.495   1.769   7.183 -1.8595 -0.5058 -0.1589
 1016MOL0     H37109   8.710   1.669   7.123 -1.0730 -1.6994 -0.1905
 1016MOL0     H37110   8.696   1.709   6.950 -0.6203 -0.7303  0.8575
 1016MOL0     H37111   8.736   1.894   7.299  2.0951  2.1164  1.7453
 1016MOL0     H37112   8.791   2.178   7.353 -2.7524 -1.2723  0.6994
 1016MOL0     H37113   8.823   2.267   7.209  0.3182 -1.0889 -1.5188
 1016MOL0     H37114   8.569   2.269   7.173  0.2333  2.3277 -0.5729
 1016MOL0     H37115   8.557   2.168   7.323  0.1004  0.8620 -0.1808
 1016MOL0     H37116   8.639   2.352   7.456 -1.0600  1.3338  0.5065
 1016MOL0     H37117   8.489   2.384   7.381  0.0338 -0.0357 -2.3967
 1016MOL0     H37118   8.578   2.540   7.221 -2.8452  1.4730  3.4733
 1016MOL0     H37119   8.745   2.521   7.272 -0.7292 -0.8012 -4.5904
 1016MOL0     H37120   8.388   2.612   7.256 -0.5129  1.4975 -1.1924
 1016MOL0     H37121   8.159   2.649   7.367  0.4643 -0.0723  0.2618
 1016MOL0     H37122   7.851   2.800   7.354 -0.7130 -0.0614 -0.4174
 1016MOL0     H37123   7.621   2.896   7.374  1.1606 -1.7009 -2.3917
 1016MOL0     H37124   7.409   2.904   7.801 -0.1316  0.9143 -0.3236
 1016MOL0     H37125   7.544   3.014   7.745  0.4474 -0.0279 -0.1178
 1016MOL0     H37126   7.377   3.118   7.576 -0.3367  0.3863  0.4412
 1016MOL0     H37127   7.257   3.010   7.638 -0.7507 -0.4142  0.2992
 1016MOL0     H37128   7.250   3.245   7.716  0.2558  0.0672  0.2311
 1016MOL0     H37129   7.260   3.140   7.854  3.4796 -0.4912  2.4655
 1016MOL0     H37130   7.496   3.294   7.741  0.1713 -2.0457 -2.3707
 1016MOL0     H37131   7.496   3.193   7.890 -1.7549  0.3148  3.5505
 1016MOL0     H37132   7.334   3.364   7.985  0.3294 -2.0415 -0.0147
 1016MOL0     H37133   7.355   3.458   7.839  2.1922  1.3377 -0.8950
 1016MOL0     H37134   7.542   3.398   8.061  1.7546 -0.8914 -1.2409
 1016MOL0     H37135   7.612   3.418   7.897  0.9935 -1.4615  0.9443
 1016MOL0     H37136   7.493   3.647   7.893  0.9913  0.4511  0.4026
 1016MOL0     H37137   7.601   3.622   8.039 -2.1756  1.0034  2.6428
 1016MOL0     H37138   7.390   3.563   8.165  0.8301  4.0917  4.1514
 1016MOL0     H37139   7.417   3.721   8.134 -2.4248  1.0192 -0.1262
 1016MOL0     H37140   7.623   2.743   7.786 -0.2420 -1.1699 -0.3607
 1016MOL0     H37141   7.849   2.671   7.747 -0.0614 -1.9064 -0.7745
 1016MOL0     H37142   8.343   2.765   7.732  0.9111 -0.1356  0.9077
 1016MOL0     H37143   8.560   2.708   7.630  0.4930 -0.9752 -1.2499
 1016MOL0     H37144   7.742   1.592   6.898  0.2601  0.2163 -0.0686
 1016MOL0     H37145   7.504   1.578   6.817 -1.9429  1.4174  0.2869
 1016MOL0     H37146   7.066   1.714   6.989 -1.6954  1.7535 -0.3656
 1016MOL0     H37147   6.848   1.805   6.939 -0.7107  1.9696 -0.3470
 1016MOL0     H37148   6.692   1.807   6.529 -4.0207  1.4926 -1.1213
 1016MOL0     H37149   6.778   1.971   6.521 -0.2120  0.1189  1.0268
 1016MOL0     H37150   6.537   1.956   6.469  1.1191 -0.0839 -0.6828
 1016MOL0     H37151   6.581   2.073   6.600  0.0752 -0.6667  1.3471
 1016MOL0     H37152   6.476   1.954   6.775  0.3155  0.0914  0.1843
 1016MOL0     H37153   6.524   1.801   6.703  3.3779  2.2878  1.4001
 1016MOL0     H37154   6.326   1.834   6.547 -2.5453 -1.3950  1.1605
 1016MOL0     H37155   6.291   1.822   6.719 -2.3640  0.5085 -0.6943
 1016MOL0     H37156   6.141   2.217   6.652 -0.8018 -0.1969 -3.0623
 1016MOL0     H37157   6.929   1.770   6.523  0.1524  0.8552  0.2234
 1016MOL0     H37158   7.118   1.680   6.440  1.1664  1.7904  0.7058
 1016MOL0     H37159   7.258   1.663   6.549  0.3145 -1.4014  1.7438
 1016MOL0     H37160   7.140   1.533   6.545 -2.6948  0.0607 -0.7550
 1017MOL0     O37161  10.190   2.715   3.921  0.3079 -0.0547  0.6690
 1017MOL0     C37162  10.229   2.621   3.857  0.2394 -0.2046  0.0963
 1017MOL0     O37163  10.354   2.572   3.862 -0.9643 -0.0530  0.8423
 1017MOL0     C37164  10.458   2.643   3.914  0.4574  0.5639  0.4731
 1017MOL0     C37165  10.482   2.783   3.912 -0.0963  0.0446 -0.1649
 1017MOL0     C37166  10.602   2.830   3.958 -0.1051 -0.7514  0.6913
 1017MOL0     C37167  10.699   2.742   4.011 -0.6877 -0.4642  0.2942
 1017MOL0     O37168  10.817   2.797   4.054  0.5520  0.4913  0.1518
 1017MOL0     C37169  10.920   2.708   4.101  0.0098  0.3994 -0.2497
 1017MOL0     C37170  11.030   2.797   4.146 -0.4118  0.0447  0.1510
 1017MOL0     C37171  11.146   2.713   4.198 -0.6815  0.3374 -0.6096
 1017MOL0     C37172  11.247   2.808   4.263 -0.6565 -0.1926  0.5280
 1017MOL0     C37173  11.375   2.734   4.312  0.6182 -0.2736  0.6786
 1017MOL0     C37174  11.349   2.612   4.409 -0.2771 -0.3511  0.1368
 1017MOL0     C37175  11.489   2.573   4.473 -0.1178 -0.1977  0.3688
 1017MOL0     C37176  11.468   2.453   4.568  0.3504 -0.2080  0.2693
 1017MOL0     N37177  11.405   2.333   4.506  0.4209 -0.2457 -0.3464
 1017MOL0     C37178  11.271   2.299   4.506 -0.3372 -0.1218  0.1154
 1017MOL0     C37179  11.260   2.185   4.426  0.2739  0.4359 -1.2549
 1017MOL0     C37180  11.142   2.091   4.421 -0.0436  0.0529  0.6766
 1017MOL0     C37181  11.088   2.057   4.281 -0.2000  0.3192  0.2457
 1017MOL0     C37182  11.171   1.956   4.200 -0.4144 -1.0720  0.1415
 1017MOL0     C37183  11.199   1.819   4.270  0.7775  0.2663  0.1686
 1017MOL0     O37184  11.224   1.711   4.180 -0.3759  0.3518 -0.3820
 1017MOL0     C37185  11.203   1.577   4.210  0.1745 -0.3168  0.6100
 1017MOL0     C37186  11.212   1.481   4.104  0.0352  0.4311  0.2025
 1017MOL0     C37187  11.172   1.350   4.128  0.2573  0.0406 -0.1034
 1017MOL0     C37188  11.137   1.300   4.254 -0.9670  0.2645  1.5329
 1017MOL0     C37189  11.095   1.153   4.274  0.5163  0.2409  0.0603
 1017MOL0     O37190  11.029   1.127   4.392 -0.0722 -0.7306  0.2765
 1017MOL0     C37191  10.969   1.005   4.420 -0.4414 -0.0593 -0.6467
 1017MOL0     C37192  10.836   0.996   4.465  0.3664 -0.3527  1.4290
 1017MOL0     C37193  10.776   0.871   4.475  0.0497  0.2177  0.9666
 1017MOL0     C37194  10.846   0.754   4.453  0.0995 -0.2825  0.2976
 1017MOL0     O37195  10.792   0.624   4.441  0.1887 -0.2486 -0.6108
 1017MOL0     C37196  10.652   0.626   4.424  0.3871  0.5641 -0.5132
 1017MOL0     C37197  10.583   0.604   4.559  0.1799 -0.2695  0.0501
 1017MOL0     C37198  10.432   0.588   4.556  0.3485  0.0288  0.1707
 1017MOL0     C37199  10.350   0.570   4.689  0.1563  0.4510 -0.0017
 1017MOL0     C37200  10.201   0.572   4.672 -0.4651 -1.1610  0.4592
 1017MOL0     C37201  10.143   0.700   4.608  0.0587 -0.7536 -0.2282
 1017MOL0     C37202  10.133   0.816   4.713 -0.1517 -0.3448  0.0453
 1017MOL0     C37203  10.021   0.798   4.818 -0.5711  0.0094  0.4102
 1017MOL0    Cl37204   9.866   0.866   4.741 -0.4031 -0.3149 -0.2006
 1017MOL0     C37205  10.983   0.762   4.433 -0.4750  0.4714  0.0719
 1017MOL0     C37206  11.048   0.889   4.418 -0.3276  0.1388 -0.7817
 1017MOL0     O37207  11.116   1.069   4.183 -0.2311 -0.1677 -0.2215
 1017MOL0     C37208  11.156   1.384   4.371  0.3423 -0.2341 -0.0110
 1017MOL0     C37209  11.172   1.524   4.339 -0.3377 -0.3684 -0.0445
 1017MOL0     N37210  11.381   2.164   4.373 -0.2560  0.1714  0.2712
 1017MOL0     N37211  11.457   2.255   4.414 -0.1470 -1.3120 -0.1336
 1017MOL0     C37212  10.684   2.605   4.009  0.1646 -0.0819  0.8119
 1017MOL0     C37213  10.555   2.560   3.961 -0.5226 -0.3316 -0.2119
 1017MOL0     C37214  10.114   2.529   3.808 -0.9100 -0.0853 -0.1576
 1017MOL0     C37215   9.990   2.527   3.871 -0.8793  0.5503 -0.7455
 1017MOL0     C37216   9.879   2.453   3.819 -0.5275 -0.1958  1.6261
 1017MOL0     C37217   9.894   2.373   3.701 -0.1653 -0.1906 -0.5551
 1017MOL0     O37218   9.803   2.285   3.646  0.0005  0.2382 -0.2239
 1017MOL0     C37219   9.659   2.289   3.679 -0.3975 -0.2962 -0.0185
 1017MOL0     C37220   9.588   2.269   3.545 -0.3274  0.7211 -0.0807
 1017MOL0     C37221   9.593   2.123   3.508  0.5985 -0.0683 -0.3360
 1017MOL0     C37222   9.482   2.090   3.402 -1.0163  0.3906  0.0099
 1017MOL0     C37223   9.340   2.088   3.442 -0.0834 -1.0497  0.3180
 1017MOL0     C37224   9.226   2.084   3.471  0.0171  0.4333 -0.0714
 1017MOL0     C37225  10.020   2.360   3.639  0.2010  0.5074 -0.1621
 1017MOL0     C37226  10.133   2.437   3.694  0.3249 -0.0576 -0.4004
 1017MOL0     C37227  10.263   2.413   3.627  0.5157 -0.1698  0.6532
 1017MOL0     H37228  10.401   2.850   3.884  0.3048  0.0288 -1.3988
 1017MOL0     H37229  10.618   2.937   3.961 -1.8115 -0.3993 -0.9758
 1017MOL0     H37230  10.882   2.651   4.186 -1.8848 -1.3244 -2.1532
 1017MOL0     H37231  10.951   2.658   4.009  1.7755  1.7138 -0.4251
 1017MOL0     H37232  11.002   2.875   4.217  0.3640 -0.8292  1.4623
 1017MOL0     H37233  11.047   2.849   4.051 -2.6437  1.8917  0.6873
 1017MOL0     H37234  11.193   2.653   4.119  1.0271 -0.5570  0.9960
 1017MOL0     H37235  11.102   2.639   4.266 -1.8317 -0.0269 -1.7193
 1017MOL0     H37236  11.270   2.891   4.195 -0.8284 -0.4800  0.1153
 1017MOL0     H37237  11.196   2.854   4.348 -0.4136 -2.7022  2.1156
 1017MOL0     H37238  11.437   2.706   4.226  0.8356  1.6553  0.1522
 1017MOL0     H37239  11.428   2.802   4.379 -1.1620 -0.4371  2.3179
 1017MOL0     H37240  11.275   2.643   4.483 -0.4821  0.4460 -0.3894
 1017MOL0     H37241  11.313   2.524   4.356  0.0755 -2.1597  2.7411
 1017MOL0     H37242  11.533   2.652   4.535 -0.7321 -0.8265  1.6501
 1017MOL0     H37243  11.567   2.542   4.403 -0.1755 -1.2096  0.7405
 1017MOL0     H37244  11.571   2.419   4.578 -0.0811 -2.7207 -2.2898
 1017MOL0     H37245  11.424   2.478   4.665 -2.8063  0.3417 -1.1482
 1017MOL0     H37246  11.194   2.334   4.574  0.9808 -0.0552  1.6330
 1017MOL0     H37247  11.178   2.000   4.469 -0.8558  0.3948  1.9620
 1017MOL0     H37248  11.071   2.142   4.486  2.8400  2.6150  2.0637
 1017MOL0     H37249  10.983   2.025   4.283 -0.3168  0.5869 -0.8756
 1017MOL0     H37250  11.098   2.148   4.222  1.6592  1.6607  2.4625
 1017MOL0     H37251  11.267   2.003   4.178  1.1303 -4.0798 -0.0029
 1017MOL0     H37252  11.119   1.944   4.105 -0.9661  0.4131  0.2298
 1017MOL0     H37253  11.117   1.797   4.339  0.6830  0.9466  0.2841
 1017MOL0     H37254  11.290   1.833   4.329  1.5795 -1.9541 -0.4722
 1017MOL0     H37255  11.249   1.505   4.005 -1.9254 -0.5091 -0.7995
 1017MOL0     H37256  11.152   1.283   4.045 -1.3125 -0.4452  0.6271
 1017MOL0     H37257  10.781   1.082   4.502  0.8866  0.8684 -0.5273
 1017MOL0     H37258  10.676   0.863   4.517 -0.2323 -1.9770 -0.0184
 1017MOL0     H37259  10.604   0.714   4.380 -3.0200 -0.1774  1.3458
 1017MOL0     H37260  10.623   0.537   4.366  0.2499  0.7392 -0.7146
 1017MOL0     H37261  10.634   0.523   4.612  0.1658 -0.2495  0.0947
 1017MOL0     H37262  10.605   0.695   4.615  0.3822  0.2369 -0.8251
 1017MOL0     H37263  10.398   0.681   4.508  0.2560  0.2591  0.6783
 1017MOL0     H37264  10.424   0.501   4.490 -0.1778 -0.3327  0.6999
 1017MOL0     H37265  10.380   0.643   4.765 -0.6303  0.9855 -0.1839
 1017MOL0     H37266  10.363   0.467   4.721 -1.7108 -0.2000 -1.1517
 1017MOL0     H37267  10.145   0.565   4.766 -0.1197  1.5045  0.9346
 1017MOL0     H37268  10.175   0.491   4.603 -0.0257  0.7525 -2.1237
 1017MOL0     H37269  10.193   0.721   4.513 -0.9762  1.0239 -0.4259
 1017MOL0     H37270  10.040   0.683   4.577  0.3309  0.2926 -1.7864
 1017MOL0     H37271  10.137   0.914   4.665  0.2671  0.6996  2.0967
 1017MOL0     H37272  10.222   0.823   4.776 -0.6385  1.9854  0.5874
 1017MOL0     H37273  10.004   0.699   4.859 -1.3139  0.9759  2.5755
 1017MOL0     H37274  10.036   0.865   4.903  0.9699 -0.2447  0.3629
 1017MOL0     H37275  11.044   0.673   4.424  0.5124  0.9691  1.4769
 1017MOL0     H37276  11.155   0.903   4.406  0.3211 -1.6199  1.9311
 1017MOL0     H37277  11.142   1.351   4.474  0.6769 -0.1293  0.0672
 1017MOL0     H37278  11.155   1.604   4.411 -2.3255 -0.1252 -0.7399
 1017MOL0     H37279  10.761   2.532   4.035  2.5560  1.5341 -1.2234
 1017MOL0     H37280  10.527   2.455   3.958  1.0936 -0.9255  2.3331
 1017MOL0     H37281   9.976   2.576   3.966  0.0433 -0.1617 -0.2192
 1017MOL0     H37282   9.781   2.451   3.866 -1.5885  1.3183 -0.3728
 1017MOL0     H37283   9.628   2.387   3.717 -1.5360 -0.1087 -1.3233
 1017MOL0     H37284   9.641   2.209   3.751 -0.0611  1.2377  1.8527
 1017MOL0     H37285   9.641   2.328   3.470 -1.6591 -0.0303 -1.6709
 1017MOL0     H37286   9.487   2.309   3.557 -1.1748  0.0413 -3.7694
 1017MOL0     H37287   9.591   2.059   3.596 -1.2935 -0.1930 -0.4214
 1017MOL0     H37288   9.692   2.111   3.463  0.3995  1.4411 -1.2662
 1017MOL0     H37289   9.480   2.164   3.321 -2.6736  0.3489 -0.0348
 1017MOL0     H37290   9.509   1.997   3.352 -0.2866  1.1460 -1.0352
 1017MOL0     H37291   9.124   2.066   3.496 -0.5228  3.1569 -0.0221
 1017MOL0     H37292  10.025   2.286   3.560 -0.8151 -0.5908  0.7675
 1017MOL0     H37293  10.304   2.312   3.631 -0.6778 -0.8148 -1.5463
 1017MOL0     H37294  10.248   2.423   3.519 -3.0200  2.8954  1.2295
 1017MOL0     H37295  10.340   2.486   3.653  1.0603  0.0119 -1.2744
 1018MOL0     O37296   2.311   0.131   3.783 -0.6005 -0.9973  0.5542
 1018MOL0     C37297   2.396   0.123   3.695  0.2932  0.4888 -0.2686
 1018MOL0     O37298   2.413   0.003   3.622  0.7229 -0.4358 -0.0559
 1018MOL0     C37299   2.317  -0.096   3.629  0.3895 -0.0867  0.1563
 1018MOL0     C37300   2.353  -0.216   3.696 -0.8891  0.0764  0.8604
 1018MOL0     C37301   2.260  -0.319   3.701 -0.1988 -0.8866 -0.2437
 1018MOL0     C37302   2.131  -0.301   3.653 -0.0284 -0.4658  0.0945
 1018MOL0     O37303   2.031  -0.386   3.660  0.3671 -0.1761  0.2605
 1018MOL0     C37304   2.053  -0.527   3.697  0.2852  1.1738 -0.4394
 1018MOL0     C37305   1.921  -0.607   3.661  0.5139 -0.4323 -0.2956
 1018MOL0     C37306   1.883  -0.584   3.512  0.5868  0.3849 -0.2151
 1018MOL0     C37307   1.751  -0.669   3.494 -0.5556 -0.6034  0.5361
 1018MOL0     C37308   1.682  -0.678   3.364 -0.7622  0.4806 -0.0764
 1018MOL0     C37309   1.559  -0.773   3.369 -0.2727 -0.1443 -0.7349
 1018MOL0     C37310   1.479  -0.801   3.238 -0.0136 -0.0916 -0.3970
 1018MOL0     C37311   1.350  -0.879   3.262  0.6966  0.6129 -0.1241
 1018MOL0     N37312   1.251  -0.877   3.154  0.3478  0.5193  0.9214
 1018MOL0     C37313   1.116  -0.886   3.176  0.8228 -0.4225 -0.3275
 1018MOL0     C37314   1.051  -0.883   3.054 -0.6870  0.0831  0.1614
 1018MOL0     C37315   0.898  -0.888   3.037 -0.8629  0.4012  0.1027
 1018MOL0     C37316   0.830  -0.743   3.057  0.1603  0.3730 -1.2556
 1018MOL0     C37317   0.817  -0.697   3.200 -0.5731  0.0906  0.1046
 1018MOL0     C37318   0.702  -0.596   3.222 -0.0028  1.3882  0.6333
 1018MOL0     O37319   0.687  -0.553   3.363 -0.0741  0.4887 -0.4329
 1018MOL0     C37320   0.764  -0.446   3.411 -0.6409  0.0490  0.2452
 1018MOL0     C37321   0.875  -0.388   3.344  0.1331 -0.9214  0.4787
 1018MOL0     C37322   0.959  -0.292   3.407 -0.5500  0.1646 -0.2997
 1018MOL0     C37323   0.915  -0.238   3.531 -0.1047  0.5346  1.0457
 1018MOL0     C37324   0.990  -0.123   3.572  0.0803  0.0302  0.3096
 1018MOL0     O37325   1.134  -0.108   3.547  0.2972  0.1267  0.1103
 1018MOL0     C37326   1.201  -0.022   3.627 -0.0833  0.1149 -0.9034
 1018MOL0     C37327   1.258  -0.049   3.748 -1.0904 -0.2576 -1.1236
 1018MOL0     C37328   1.317   0.054   3.830 -0.6068  0.5059 -1.2101
 1018MOL0     C37329   1.328   0.186   3.784 -0.5297  0.4473  0.2971
 1018MOL0     O37330   1.383   0.300   3.845 -0.1900  0.0019 -0.8312
 1018MOL0     C37331   1.514   0.278   3.909  0.0129 -0.8444 -0.9703
 1018MOL0     C37332   1.520   0.265   4.057  0.0640 -0.7176 -0.6692
 1018MOL0     C37333   1.470   0.392   4.137  0.0242  0.3756  0.3129
 1018MOL0     C37334   1.559   0.510   4.150  0.3086 -0.9864  0.3568
 1018MOL0     C37335   1.654   0.507   4.276  0.0723  1.2370 -0.1753
 1018MOL0     C37336   1.724   0.640   4.290 -0.9150 -0.9468 -0.5922
 1018MOL0     C37337   1.842   0.642   4.394  0.8517 -0.3860 -0.4165
 1018MOL0     C37338   1.791   0.656   4.538  0.0262 -0.4121  0.1825
 1018MOL0    Cl37339   1.919   0.643   4.665 -0.1532  0.5562  0.2223
 1018MOL0     C37340   1.273   0.210   3.653  0.4892  0.4804  0.5747
 1018MOL0     C37341   1.206   0.109   3.583  0.2603 -0.7261  0.1907
 1018MOL0     O37342   0.919  -0.053   3.637  0.6457  0.2459  0.0113
 1018MOL0     C37343   0.814  -0.296   3.599 -0.2438 -0.4260  0.3312
 1018MOL0     C37344   0.739  -0.399   3.538  0.0385  0.1390  0.2358
 1018MOL0     N37345   1.152  -0.853   2.958  0.3802  0.5189 -0.1056
 1018MOL0     N37346   1.267  -0.852   3.021  0.1826  0.4291  0.4466
 1018MOL0     C37347   2.100  -0.181   3.586 -0.3586 -0.0885  0.4706
 1018MOL0     C37348   2.184  -0.073   3.582 -0.7462  0.1471  0.8285
 1018MOL0     C37349   2.485   0.240   3.658  0.6697  0.2435  0.6082
 1018MOL0     C37350   2.509   0.269   3.521  0.9184 -0.0026 -0.2376
 1018MOL0     C37351   2.581   0.378   3.486 -0.8798  0.4179  0.4437
 1018MOL0     C37352   2.644   0.462   3.574  0.5594 -0.3347  0.2365
 1018MOL0     O37353   2.691   0.584   3.535  0.4887  0.1935 -0.4731
 1018MOL0     C37354   2.650   0.638   3.413 -0.4107 -0.1027  0.8819
 1018MOL0     C37355   2.640   0.788   3.425  0.3980  0.0514  0.1547
 1018MOL0     C37356   2.770   0.857   3.473  0.0000  0.0145 -0.3098
 1018MOL0     C37357   2.877   0.869   3.368 -2.0796 -0.7456 -0.0726
 1018MOL0     C37358   2.999   0.936   3.431  1.0780  0.6777 -0.4797
 1018MOL0     C37359   3.100   0.985   3.481  0.9570  0.1203  0.0621
 1018MOL0     C37360   2.624   0.436   3.716  0.5070 -0.7860 -0.3488
 1018MOL0     C37361   2.543   0.327   3.759 -0.1909 -0.1133  0.7350
 1018MOL0     C37362   2.537   0.303   3.911 -0.5498  0.4792  0.1770
 1018MOL0     H37363   2.457  -0.223   3.725  0.4732 -1.1713 -3.4668
 1018MOL0     H37364   2.289  -0.405   3.761  1.5241  0.9281  1.7397
 1018MOL0     H37365   2.138  -0.569   3.643 -1.0220  0.3235 -1.9207
 1018MOL0     H37366   2.071  -0.536   3.805 -2.6399  0.0141  0.0489
 1018MOL0     H37367   1.844  -0.559   3.723  1.4929 -2.7093  2.9474
 1018MOL0     H37368   1.924  -0.714   3.682 -3.0045 -1.2800 -3.0192
 1018MOL0     H37369   1.959  -0.619   3.441  0.5515 -0.9999  0.3961
 1018MOL0     H37370   1.866  -0.480   3.482 -3.9578  0.5084  1.9297
 1018MOL0     H37371   1.781  -0.773   3.505  2.3224  0.2070  1.1269
 1018MOL0     H37372   1.685  -0.640   3.576  0.1744  2.6469  0.1120
 1018MOL0     H37373   1.663  -0.578   3.323 -0.0151  1.1302  1.0938
 1018MOL0     H37374   1.761  -0.702   3.293 -0.3944  1.3011  0.0368
 1018MOL0     H37375   1.579  -0.873   3.409 -1.1698 -0.3621 -0.8119
 1018MOL0     H37376   1.492  -0.727   3.442 -0.6195 -0.1908 -1.0238
 1018MOL0     H37377   1.547  -0.866   3.182 -0.2158 -0.3260 -0.3725
 1018MOL0     H37378   1.461  -0.709   3.181  4.0903  0.5475 -0.9990
 1018MOL0     H37379   1.388  -0.982   3.266  0.8013  0.6280 -0.5889
 1018MOL0     H37380   1.295  -0.843   3.349  0.6318 -0.1360  0.1494
 1018MOL0     H37381   1.059  -0.877   3.268 -0.3096  0.2807 -1.0781
 1018MOL0     H37382   0.880  -0.932   2.939  0.6376  0.0020 -0.0220
 1018MOL0     H37383   0.863  -0.964   3.107 -1.1999  1.2669  0.9029
 1018MOL0     H37384   0.895  -0.680   2.995  2.1464 -1.0283 -0.6941
 1018MOL0     H37385   0.727  -0.757   3.023  0.0727  0.1044 -0.8868
 1018MOL0     H37386   0.907  -0.654   3.245 -1.0255 -1.4021  2.6855
 1018MOL0     H37387   0.802  -0.788   3.260 -0.6402 -0.6738 -1.0338
 1018MOL0     H37388   0.606  -0.639   3.196  0.7453 -0.2018  0.3804
 1018MOL0     H37389   0.713  -0.512   3.152 -1.9788  0.3992 -0.9462
 1018MOL0     H37390   0.907  -0.410   3.243  4.1477 -0.6939  1.5342
 1018MOL0     H37391   1.044  -0.258   3.348  0.3791 -0.5307  0.5998
 1018MOL0     H37392   1.250  -0.153   3.775 -2.5178 -0.4118 -2.0359
 1018MOL0     H37393   1.363   0.024   3.924  1.0380 -0.2017 -2.1867
 1018MOL0     H37394   1.571   0.203   3.853  1.3930 -0.2537 -0.3872
 1018MOL0     H37395   1.573   0.367   3.885 -2.1813  1.3712  1.1501
 1018MOL0     H37396   1.458   0.178   4.081 -3.6417  1.0888 -2.7319
 1018MOL0     H37397   1.625   0.244   4.081 -0.5411 -2.0984  1.0487
 1018MOL0     H37398   1.379   0.422   4.085  1.5335  1.0389 -2.1427
 1018MOL0     H37399   1.441   0.356   4.236  0.7767 -0.3124  0.2896
 1018MOL0     H37400   1.500   0.601   4.140 -0.8269 -1.6967  0.4196
 1018MOL0     H37401   1.628   0.523   4.067  1.5965  0.9500  1.6582
 1018MOL0     H37402   1.730   0.429   4.262  1.0243  2.0696  0.1525
 1018MOL0     H37403   1.597   0.491   4.368 -1.1730  4.2070 -0.3378
 1018MOL0     H37404   1.763   0.676   4.194  2.7755  0.5952  1.2772
 1018MOL0     H37405   1.643   0.704   4.329 -1.8965 -1.9424 -0.9435
 1018MOL0     H37406   1.907   0.727   4.371  0.7347 -0.3905 -0.7815
 1018MOL0     H37407   1.906   0.555   4.375 -0.0029 -0.7004 -2.0972
 1018MOL0     H37408   1.752   0.757   4.548 -1.0788 -0.3006 -3.8151
 1018MOL0     H37409   1.707   0.592   4.565  1.5669 -2.1752  1.0410
 1018MOL0     H37410   1.291   0.302   3.599 -0.6839  0.0573 -0.5803
 1018MOL0     H37411   1.162   0.126   3.485  0.8505 -0.3940 -0.0236
 1018MOL0     H37412   0.774  -0.248   3.688  3.1208 -0.0031  1.7848
 1018MOL0     H37413   0.647  -0.430   3.587  0.0738  0.5852  0.5907
 1018MOL0     H37414   2.004  -0.167   3.537 -0.2471 -0.0623  0.2589
 1018MOL0     H37415   2.160   0.019   3.530  0.4965 -0.8484 -1.6845
 1018MOL0     H37416   2.485   0.200   3.441  4.2167 -1.2972 -0.3032
 1018MOL0     H37417   2.593   0.394   3.379  3.2956 -2.6096  0.2050
 1018MOL0     H37418   2.551   0.593   3.397  0.5143 -2.3095  0.9673
 1018MOL0     H37419   2.723   0.615   3.336  0.5048  0.2782  1.6118
 1018MOL0     H37420   2.574   0.816   3.507  1.6908 -0.0091  1.2650
 1018MOL0     H37421   2.601   0.841   3.338  0.7342 -0.1609 -0.1308
 1018MOL0     H37422   2.805   0.812   3.567  1.0362 -0.4321 -0.8869
 1018MOL0     H37423   2.746   0.961   3.496 -1.4328 -0.2101 -0.7462
 1018MOL0     H37424   2.903   0.773   3.321  0.9237 -0.5256  0.9222
 1018MOL0     H37425   2.848   0.934   3.285  4.2472  2.0481 -0.6491
 1018MOL0     H37426   3.191   1.026   3.520  0.0198  1.5200  0.8569
 1018MOL0     H37427   2.679   0.500   3.784  2.4714 -2.8990  0.1745
 1018MOL0     H37428   2.568   0.199   3.930 -0.9936  0.2498 -0.3348
 1018MOL0     H37429   2.607   0.366   3.966 -0.1741 -0.1781  0.4664
 1018MOL0     H37430   2.432   0.320   3.936 -0.6830  1.3304 -0.8878
 1019MOL0     O37431   4.761  11.098   4.974  0.6418 -0.3105  0.2114
 1019MOL0     C37432   4.717  11.107   5.091 -0.2110 -0.1861 -0.4440
 1019MOL0     O37433   4.680  10.999   5.166  0.2015  0.3663  0.0894
 1019MOL0     C37434   4.684  10.883   5.101 -0.9474  0.2132  0.3056
 1019MOL0     C37435   4.792  10.796   5.113 -0.0709 -0.1345 -0.1783
 1019MOL0     C37436   4.800  10.674   5.047 -0.3372  0.2762  0.2519
 1019MOL0     C37437   4.696  10.631   4.968  0.1800 -1.2654 -1.0105
 1019MOL0     O37438   4.691  10.507   4.911  0.2886  0.0792  0.0402
 1019MOL0     C37439   4.645  10.507   4.775  0.6973  0.0914  0.6182
 1019MOL0     C37440   4.722  10.398   4.701 -0.2934 -0.0795  0.8819
 1019MOL0     C37441   4.868  10.438   4.690 -0.0460 -0.2390 -0.1668
 1019MOL0     C37442   4.948  10.343   4.592  0.3998  0.9540 -0.1388
 1019MOL0     C37443   5.091  10.378   4.568 -0.1089  0.1000 -0.2922
 1019MOL0     C37444   5.121  10.500   4.487  0.4457 -0.7754 -0.2814
 1019MOL0     C37445   5.099  10.471   4.333  0.6448  0.3287 -0.3391
 1019MOL0     C37446   5.110  10.591   4.252 -0.2002 -1.3771  1.2489
 1019MOL0     N37447   5.161  10.574   4.114  0.3393 -0.1506  0.0251
 1019MOL0     C37448   5.296  10.543   4.086 -0.0738 -0.2392  0.2768
 1019MOL0     C37449   5.287  10.510   3.952 -0.4711 -0.0408  0.3409
 1019MOL0     C37450   5.406  10.460   3.868  0.0122  0.3132 -0.7799
 1019MOL0     C37451   5.521  10.553   3.882  0.1983  0.3372 -0.3922
 1019MOL0     C37452   5.639  10.529   3.791  0.5746 -0.3666  0.6866
 1019MOL0     C37453   5.760  10.614   3.819  0.4829  0.0879  1.0806
 1019MOL0     O37454   5.837  10.559   3.930 -0.2023  0.6090  0.4818
 1019MOL0     C37455   5.970  10.562   3.905 -1.2677  0.5481 -0.0657
 1019MOL0     C37456   6.038  10.443   3.921  0.1798  0.3256  0.4657
 1019MOL0     C37457   6.175  10.431   3.907 -0.5998 -0.6321 -0.0248
 1019MOL0     C37458   6.243  10.556   3.877 -0.5778  1.4503  0.7789
 1019MOL0     C37459   6.399  10.553   3.854 -0.9879  0.7905 -0.4545
 1019MOL0     O37460   6.455  10.428   3.836  0.6923  0.0375 -0.0474
 1019MOL0     C37461   6.590  10.428   3.846 -0.2334 -0.6555 -0.1743
 1019MOL0     C37462   6.651  10.453   3.971  0.0561  0.7450 -0.1635
 1019MOL0     C37463   6.796  10.451   3.978  0.0004 -0.7456 -0.0361
 1019MOL0     C37464   6.874  10.436   3.869 -0.7940 -0.4925 -0.0382
 1019MOL0     O37465   7.008  10.423   3.897 -0.7681 -0.6142  0.5191
 1019MOL0     C37466   7.094  10.380   3.782  0.4358 -0.5202 -0.1092
 1019MOL0     C37467   7.238  10.376   3.841  0.2575 -0.4381  0.2899
 1019MOL0     C37468   7.338  10.365   3.729  0.3109 -0.2213  0.2871
 1019MOL0     C37469   7.486  10.376   3.775  0.5064  0.4010 -0.1878
 1019MOL0     C37470   7.578  10.347   3.660 -0.0133 -0.8642  0.1776
 1019MOL0     C37471   7.724  10.358   3.705  0.1564  0.9414 -0.3453
 1019MOL0     C37472   7.812  10.309   3.597  0.0792  0.4994 -0.1549
 1019MOL0     C37473   7.808  10.380   3.463 -0.0387  0.0665  0.0305
 1019MOL0    Cl37474   7.976  10.385   3.384 -0.0019  0.3165  0.1270
 1019MOL0     C37475   6.815  10.399   3.748 -0.3453  0.2801  0.6022
 1019MOL0     C37476   6.677  10.405   3.739  0.1301 -0.6645  0.7841
 1019MOL0     O37477   6.450  10.665   3.861 -0.4208 -0.3670 -0.0852
 1019MOL0     C37478   6.177  10.673   3.866  0.6143  0.0583  0.7301
 1019MOL0     C37479   6.039  10.676   3.875  0.2226 -0.3916 -0.0061
 1019MOL0     N37480   5.157  10.515   3.911  0.3717  0.8847 -0.5626
 1019MOL0     N37481   5.081  10.554   4.004 -0.2200 -0.3879  0.3374
 1019MOL0     C37482   4.593  10.721   4.940 -0.1444  0.0309 -0.3461
 1019MOL0     C37483   4.579  10.842   5.010 -0.4785 -0.8608 -0.2193
 1019MOL0     C37484   4.702  11.248   5.141  0.2963 -0.0978 -0.4623
 1019MOL0     C37485   4.798  11.339   5.108  0.7297 -0.1135  0.1635
 1019MOL0     C37486   4.784  11.481   5.142 -0.2528 -0.5179 -0.3373
 1019MOL0     C37487   4.687  11.528   5.224  0.1608  0.6172  0.1503
 1019MOL0     O37488   4.659  11.662   5.254  0.7732  0.2009  0.0020
 1019MOL0     C37489   4.661  11.701   5.389 -0.5187 -0.2781  0.0221
 1019MOL0     C37490   4.806  11.732   5.439  0.7919  0.0314  0.3744
 1019MOL0     C37491   4.899  11.822   5.358 -0.8994 -0.9879  0.4531
 1019MOL0     C37492   5.019  11.867   5.451 -0.7441 -0.8742 -0.2689
 1019MOL0     C37493   5.084  11.751   5.511 -0.1123  0.3803  0.1392
 1019MOL0     C37494   5.142  11.664   5.571 -0.7352  0.9770  0.5540
 1019MOL0     C37495   4.590  11.430   5.272 -0.3396  0.5748  0.5885
 1019MOL0     C37496   4.595  11.298   5.231  0.5601  0.2317 -0.0724
 1019MOL0     C37497   4.489  11.213   5.274 -0.0426  0.1619 -0.8124
 1019MOL0     H37498   4.871  10.828   5.180 -0.7140 -0.8352  0.9336
 1019MOL0     H37499   4.884  10.610   5.071  0.7522  1.0266 -1.3427
 1019MOL0     H37500   4.541  10.473   4.770  0.8424 -0.2525 -0.0865
 1019MOL0     H37501   4.650  10.605   4.727  1.6218  0.5677  1.6578
 1019MOL0     H37502   4.682  10.400   4.599 -1.1656 -0.8763  1.1884
 1019MOL0     H37503   4.699  10.297   4.737 -3.0447  0.2168  0.1816
 1019MOL0     H37504   4.918  10.443   4.787 -2.5649 -1.0341  1.2671
 1019MOL0     H37505   4.875  10.532   4.634  3.2377 -3.0676 -5.4083
 1019MOL0     H37506   4.955  10.242   4.635 -1.3931  0.1801 -1.5429
 1019MOL0     H37507   4.898  10.338   4.495  0.4665 -1.8753 -0.1032
 1019MOL0     H37508   5.136  10.374   4.667  2.5868 -0.0679 -1.4265
 1019MOL0     H37509   5.149  10.297   4.522  2.1238  2.2589 -1.5483
 1019MOL0     H37510   5.050  10.576   4.521 -0.5682 -1.8864  0.1784
 1019MOL0     H37511   5.222  10.541   4.492 -0.0357  0.8635 -2.3062
 1019MOL0     H37512   5.003  10.424   4.310 -0.2217  0.7152  2.1549
 1019MOL0     H37513   5.170  10.391   4.315 -1.9282 -2.2602  0.3351
 1019MOL0     H37514   5.015  10.643   4.238 -0.3645 -2.3655 -2.3277
 1019MOL0     H37515   5.170  10.670   4.299 -3.2369  0.6634  2.0049
 1019MOL0     H37516   5.377  10.537   4.158  0.5243  1.9061 -0.1325
 1019MOL0     H37517   5.443  10.368   3.917  1.4935  0.9999 -0.5483
 1019MOL0     H37518   5.384  10.443   3.763  2.0717 -0.8398 -1.1014
 1019MOL0     H37519   5.487  10.657   3.872  0.5526  0.7157  1.8845
 1019MOL0     H37520   5.562  10.531   3.981 -1.2699 -1.0170 -0.0430
 1019MOL0     H37521   5.601  10.562   3.694  2.3382  2.3026  0.7997
 1019MOL0     H37522   5.666  10.423   3.789 -1.8861 -1.1186  2.3018
 1019MOL0     H37523   5.721  10.712   3.849 -0.8476 -0.1726  0.2972
 1019MOL0     H37524   5.823  10.638   3.733 -0.4035  1.1886  0.6972
 1019MOL0     H37525   5.980  10.358   3.957 -3.8387  3.6813  2.7439
 1019MOL0     H37526   6.220  10.334   3.931  2.4417  0.8887  0.9525
 1019MOL0     H37527   6.587  10.473   4.056 -1.9010 -0.2229 -1.3303
 1019MOL0     H37528   6.845  10.468   4.074  4.5773 -2.1143 -1.8823
 1019MOL0     H37529   7.067  10.280   3.747  2.6540 -0.5628 -1.9352
 1019MOL0     H37530   7.088  10.457   3.705 -1.2557 -2.1616 -1.7239
 1019MOL0     H37531   7.256  10.468   3.898 -1.2958 -0.4149  0.7957
 1019MOL0     H37532   7.245  10.291   3.910  1.1631 -2.2247 -1.8915
 1019MOL0     H37533   7.323  10.263   3.692 -2.6024  0.0888  0.3529
 1019MOL0     H37534   7.317  10.439   3.651  3.5607  2.6047  1.8494
 1019MOL0     H37535   7.517  10.299   3.846  0.0953  0.5476  0.1492
 1019MOL0     H37536   7.506  10.478   3.809 -0.3072  0.2060  0.9168
 1019MOL0     H37537   7.555  10.411   3.575 -0.8404  0.5231  1.4100
 1019MOL0     H37538   7.558  10.247   3.620 -1.4916 -0.4334 -0.2286
 1019MOL0     H37539   7.755  10.455   3.745 -2.1682 -0.2438  5.1443
 1019MOL0     H37540   7.749  10.295   3.790  3.3532 -0.5207 -2.1843
 1019MOL0     H37541   7.801  10.201   3.588 -1.3080  0.5573  0.6480
 1019MOL0     H37542   7.916  10.329   3.625  0.6654 -0.5782 -1.4660
 1019MOL0     H37543   7.740  10.328   3.395  0.0910  1.9181 -1.6231
 1019MOL0     H37544   7.777  10.485   3.471  0.4293  0.0985  1.6767
 1019MOL0     H37545   6.868  10.364   3.660 -0.8970 -0.8408  0.7010
 1019MOL0     H37546   6.639  10.387   3.639  3.1762  1.0225 -0.8490
 1019MOL0     H37547   6.225  10.766   3.839  0.2057  0.1002  0.1040
 1019MOL0     H37548   5.983  10.768   3.865 -0.2658 -0.7975 -1.1152
 1019MOL0     H37549   4.511  10.682   4.881 -1.5532 -1.3370  2.3112
 1019MOL0     H37550   4.487  10.899   5.007 -1.0180 -1.7263 -0.4320
 1019MOL0     H37551   4.889  11.311   5.055 -0.4123  1.8364 -3.1909
 1019MOL0     H37552   4.853  11.551   5.097 -2.1571  2.6216  1.3242
 1019MOL0     H37553   4.626  11.626   5.460  2.7514 -0.4705  1.6262
 1019MOL0     H37554   4.586  11.781   5.397 -2.1456 -1.8286  0.8635
 1019MOL0     H37555   4.858  11.636   5.449  0.6880 -0.1910 -1.0506
 1019MOL0     H37556   4.786  11.781   5.535 -4.8138 -1.8642  0.5398
 1019MOL0     H37557   4.847  11.915   5.333 -0.4290 -1.0918 -0.9670
 1019MOL0     H37558   4.940  11.781   5.266 -1.2313 -0.6088  0.1329
 1019MOL0     H37559   5.092  11.925   5.393  0.3648 -2.2446 -0.3022
 1019MOL0     H37560   4.981  11.926   5.535 -0.7297 -0.1019 -0.7934
 1019MOL0     H37561   5.201  11.592   5.622 -0.1040  2.2354  1.6513
 1019MOL0     H37562   4.512  11.460   5.342 -1.5746 -2.9025  0.9301
 1019MOL0     H37563   4.406  11.264   5.323 -0.0225 -2.0285  1.6905
 1019MOL0     H37564   4.443  11.159   5.190  0.0577  1.4502 -1.7378
 1019MOL0     H37565   4.521  11.145   5.353 -0.8888  0.6637 -0.0106
 1020MOL0     O37566   1.089   2.594  10.085  0.2982 -0.7717 -0.0105
 1020MOL0     C37567   1.012   2.660  10.164 -0.2026  0.0236  0.6678
 1020MOL0     O37568   1.047   2.700  10.292  0.3319  0.0867 -0.5106
 1020MOL0     C37569   1.169   2.661  10.337 -0.3549  0.1255 -0.4660
 1020MOL0     C37570   1.195   2.526  10.375 -0.3147  0.6549  1.0004
 1020MOL0     C37571   1.321   2.493  10.415  0.8332  0.5313  0.1607
 1020MOL0     C37572   1.429   2.584  10.424 -0.4580 -0.3520  0.1196
 1020MOL0     O37573   1.549   2.549  10.486  0.2526  0.2666 -0.2930
 1020MOL0     C37574   1.657   2.647  10.502  1.5261 -0.5171 -0.1773
 1020MOL0     C37575   1.793   2.580  10.528 -0.0501  0.4511 -0.1110
 1020MOL0     C37576   1.905   2.685  10.538 -0.2703 -0.5239  0.3833
 1020MOL0     C37577   2.024   2.634  10.613  0.0297  0.1124 -0.7670
 1020MOL0     C37578   2.139   2.740  10.604  0.0718  0.2846  0.4050
 1020MOL0     C37579   2.261   2.713  10.692 -0.0419 -0.1858 -0.1169
 1020MOL0     C37580   2.362   2.835  10.693 -0.5618 -0.5076 -0.2819
 1020MOL0     C37581   2.436   2.848  10.823 -0.3646  0.2898  0.4520
 1020MOL0     N37582   2.545   2.951  10.826 -0.1329 -0.4553 -0.3138
 1020MOL0     C37583   2.676   2.942  10.784  0.4005  0.4373  0.5546
 1020MOL0     C37584   2.721   3.070  10.788  0.4071 -0.1628  0.8132
 1020MOL0     C37585   2.866   3.105  10.769 -0.1134 -0.0096 -0.2188
 1020MOL0     C37586   2.929   3.171  10.893 -0.7766  0.1391 -0.9753
 1020MOL0     C37587   3.082   3.155  10.899  0.2872  0.4529 -0.5465
 1020MOL0     C37588   3.152   3.190  11.036  0.2141 -0.0033 -0.0172
 1020MOL0     O37589   3.101   3.321  11.069  0.3037  0.5230 -0.2410
 1020MOL0     C37590   3.125   3.367  11.196  0.6682 -0.3996  0.3925
 1020MOL0     C37591   3.229   3.316  11.275  0.0933 -0.5383 -0.0405
 1020MOL0     C37592   3.232   3.346  11.411 -0.3341 -0.0435  0.6016
 1020MOL0     C37593   3.150   3.443  11.465  0.0472  0.2720  0.6236
 1020MOL0     C37594   3.170   3.483  11.606  0.3092 -0.6585  0.0714
 1020MOL0     O37595   3.097   3.595  11.646 -0.0839  0.5838 -0.5050
 1020MOL0     C37596   3.128   3.680  11.757 -0.3883  0.1179 -0.1147
 1020MOL0     C37597   3.035   3.773  11.804 -0.1485 -1.2221 -0.3225
 1020MOL0     C37598   3.073   3.857  11.902  0.7008 -0.0058 -0.3356
 1020MOL0     C37599   3.189   3.851  11.971 -1.0672  1.1457  0.5446
 1020MOL0     O37600   3.198   3.935  12.074  0.6291 -0.7940 -0.2144
 1020MOL0     C37601   3.318   3.923  12.152 -0.1675  0.9429  0.4840
 1020MOL0     C37602   3.316   4.028  12.265 -0.1969 -0.6271 -0.0256
 1020MOL0     C37603   3.398   3.996  12.390  0.1484  0.0633 -0.0040
 1020MOL0     C37604   3.543   4.022  12.377 -0.0152  0.1276 -0.5847
 1020MOL0     C37605   3.624   3.970  12.504  0.0984 -0.6050 -0.1589
 1020MOL0     C37606   3.779   3.978  12.491  0.5395  0.0322 -0.2512
 1020MOL0     C37607   3.836   3.905  12.364  0.0459  0.0700 -0.3390
 1020MOL0     C37608   3.985   3.856  12.388  0.5209  0.0984  0.6508
 1020MOL0    Cl37609   4.108   3.999  12.382 -0.5282 -0.2386 -0.2046
 1020MOL0     C37610   3.282   3.755  11.923 -0.1017  1.0444  0.4349
 1020MOL0     C37611   3.249   3.672  11.814  0.1111  0.4390 -0.2788
 1020MOL0     O37612   3.251   3.421  11.672  0.4788  0.8363  0.1110
 1020MOL0     C37613   3.055   3.503  11.376  0.2577 -0.2379 -0.3812
 1020MOL0     C37614   3.051   3.475  11.243  1.5062  0.4864  0.1627
 1020MOL0     N37615   2.614   3.155  10.831 -1.2401  0.6278  0.2199
 1020MOL0     N37616   2.515   3.087  10.850  0.4447  0.8314 -0.1623
 1020MOL0     C37617   1.402   2.714  10.387  0.1091  0.0764 -1.0374
 1020MOL0     C37618   1.275   2.753  10.345  0.8937  0.3558  0.1508
 1020MOL0     C37619   0.875   2.703  10.116 -0.3540 -0.0023 -0.0494
 1020MOL0     C37620   0.789   2.774  10.206 -1.0205 -0.2920 -0.4077
 1020MOL0     C37621   0.664   2.820  10.160  0.2376 -0.3490 -0.1170
 1020MOL0     C37622   0.621   2.795  10.030  0.1232  0.4709 -0.2264
 1020MOL0     O37623   0.493   2.820   9.989  0.2617 -0.1334 -0.4937
 1020MOL0     C37624   0.433   2.937  10.044  0.6499  0.8306  0.0206
 1020MOL0     C37625   0.306   2.959   9.961 -0.3338 -0.1990  0.2538
 1020MOL0     C37626   0.196   2.850   9.972 -0.9135  0.0828  0.3809
 1020MOL0     C37627   0.076   2.907  10.036  0.9520  0.6176 -0.8219
 1020MOL0     C37628  -0.042   2.833   9.994  0.7308  0.5904  0.4959
 1020MOL0     C37629  -0.146   2.773   9.963  0.4634  1.2272 -0.0755
 1020MOL0     C37630   0.700   2.716   9.944 -0.2986  0.6133 -0.5398
 1020MOL0     C37631   0.825   2.672   9.984  0.5021  0.4129 -0.0489
 1020MOL0     C37632   0.907   2.600   9.878  0.0792  0.3688  0.1026
 1020MOL0     H37633   1.114   2.457  10.353 -1.2473  2.2485 -0.7822
 1020MOL0     H37634   1.335   2.387  10.435 -1.3159  0.3842  1.1710
 1020MOL0     H37635   1.666   2.719  10.420  1.5156 -0.6784 -0.3197
 1020MOL0     H37636   1.632   2.714  10.585 -0.5892 -0.2804 -0.9561
 1020MOL0     H37637   1.808   2.512  10.444  1.7917 -0.1881  0.6986
 1020MOL0     H37638   1.783   2.517  10.617 -0.7781  0.7735  0.0494
 1020MOL0     H37639   1.863   2.769  10.594 -0.8035  0.5663 -1.5772
 1020MOL0     H37640   1.934   2.734  10.445  0.2270 -0.5076  0.5446
 1020MOL0     H37641   1.992   2.629  10.718 -0.9389  0.9938 -0.9960
 1020MOL0     H37642   2.054   2.533  10.585 -0.6136 -0.1147 -0.6568
 1020MOL0     H37643   2.169   2.749  10.500  0.4938 -2.1588  0.2632
 1020MOL0     H37644   2.089   2.837  10.617 -3.1523 -1.1082 -0.5712
 1020MOL0     H37645   2.240   2.688  10.796 -0.0031  5.9658  1.7797
 1020MOL0     H37646   2.311   2.630  10.642  0.3818  0.7788 -1.3570
 1020MOL0     H37647   2.302   2.925  10.677  0.3455  0.1247 -0.2272
 1020MOL0     H37648   2.424   2.815  10.605 -2.2982 -2.2107 -1.1782
 1020MOL0     H37649   2.358   2.868  10.896 -0.1298 -0.2136  0.8483
 1020MOL0     H37650   2.484   2.752  10.848 -2.9032 -1.2587 -0.2795
 1020MOL0     H37651   2.732   2.851  10.768  1.9077  1.1689  1.4542
 1020MOL0     H37652   2.917   3.011  10.744  2.6103  0.8887  1.4581
 1020MOL0     H37653   2.873   3.168  10.681 -1.8433 -0.9827 -1.0972
 1020MOL0     H37654   2.918   3.279  10.886  1.2281  0.3938 -0.8627
 1020MOL0     H37655   2.892   3.128  10.987  1.4072  1.2946  0.5017
 1020MOL0     H37656   3.121   3.221  10.821  3.1824  1.8161  1.8217
 1020MOL0     H37657   3.103   3.049  10.884 -2.2949 -0.3109  0.7201
 1020MOL0     H37658   3.261   3.187  11.042  0.2729  2.7412  2.5514
 1020MOL0     H37659   3.109   3.123  11.111  1.2665  0.0196  0.6158
 1020MOL0     H37660   3.309   3.250  11.244  0.9675  0.0593  0.8906
 1020MOL0     H37661   3.292   3.281  11.474  0.9734 -0.4999 -1.0531
 1020MOL0     H37662   2.940   3.801  11.760 -1.9859 -3.0561  2.1816
 1020MOL0     H37663   3.001   3.930  11.938  1.1369  0.5389 -0.5552
 1020MOL0     H37664   3.333   3.824  12.196  0.0200  0.7567  0.0007
 1020MOL0     H37665   3.407   3.938  12.091 -0.3699  1.9800  0.4284
 1020MOL0     H37666   3.343   4.124  12.220 -1.8941 -0.3969 -0.6259
 1020MOL0     H37667   3.210   4.035  12.293 -0.6059 -1.4990 -1.2551
 1020MOL0     H37668   3.367   4.062  12.471 -4.4341 -0.7155 -0.8068
 1020MOL0     H37669   3.373   3.894  12.422 -2.1060  0.2249 -1.0722
 1020MOL0     H37670   3.553   4.131  12.365 -0.1718  0.0533 -1.4871
 1020MOL0     H37671   3.581   3.985  12.281 -0.0158  1.4448 -1.1216
 1020MOL0     H37672   3.594   3.871  12.540  0.6308 -0.3014  1.1835
 1020MOL0     H37673   3.602   4.050  12.575 -0.0611  1.4540 -2.4111
 1020MOL0     H37674   3.811   4.082  12.490 -0.8147  0.4819  0.6323
 1020MOL0     H37675   3.828   3.934  12.579  0.5293 -3.9086 -1.9822
 1020MOL0     H37676   3.852   3.972  12.279  1.7128 -0.5220 -0.5224
 1020MOL0     H37677   3.772   3.821  12.339 -1.2942  0.4980  1.3917
 1020MOL0     H37678   3.982   3.793  12.478 -0.4085 -0.2582  0.3754
 1020MOL0     H37679   4.009   3.780  12.314  1.2931 -1.6778  2.6094
 1020MOL0     H37680   3.384   3.750  11.960 -0.3480  2.3597  1.3628
 1020MOL0     H37681   3.332   3.610  11.782 -0.0350 -0.4364  0.9990
 1020MOL0     H37682   3.011   3.592  11.421 -0.2091 -0.3688 -0.5773
 1020MOL0     H37683   2.990   3.531  11.172  1.8803 -0.4662 -0.9415
 1020MOL0     H37684   1.469   2.799  10.393  0.8383 -0.4844 -0.9593
 1020MOL0     H37685   1.262   2.857  10.315 -2.0248  0.8958  2.7295
 1020MOL0     H37686   0.825   2.816  10.299  1.5806 -1.2526 -0.8975
 1020MOL0     H37687   0.612   2.880  10.234  0.1088  0.1378 -0.5947
 1020MOL0     H37688   0.492   3.028  10.032  0.7138  0.6215 -1.4819
 1020MOL0     H37689   0.414   2.927  10.152 -0.3741  2.3993  0.0235
 1020MOL0     H37690   0.337   2.944   9.857 -1.5181 -1.0258  0.0018
 1020MOL0     H37691   0.277   3.065   9.968  2.1422  0.6657 -1.3678
 1020MOL0     H37692   0.231   2.758  10.021  0.4638  0.1501 -0.4327
 1020MOL0     H37693   0.169   2.824   9.869 -0.2454  2.1786 -0.3648
 1020MOL0     H37694   0.065   2.886  10.143 -1.3876  1.7601 -0.7758
 1020MOL0     H37695   0.052   3.006   9.998 -1.0147  1.1173  1.4744
 1020MOL0     H37696  -0.230   2.716   9.929  0.6688  0.7653  0.1738
 1020MOL0     H37697   0.655   2.689   9.849 -0.0338  2.9022 -1.3855
 1020MOL0     H37698   0.988   2.669   9.855  0.5282  0.8916  2.8207
 1020MOL0     H37699   0.937   2.502   9.916 -1.4634 -0.6414 -1.1598
 1020MOL0     H37700   0.857   2.588   9.782  1.1713 -1.4495 -0.2942
 1021MOL0     O37701   5.836   8.240   1.371  0.3392 -0.1075 -1.1668
 1021MOL0     C37702   5.764   8.300   1.454  0.1048  0.2922  0.4356
 1021MOL0     O37703   5.803   8.395   1.543  0.3421  0.3067 -0.6341
 1021MOL0     C37704   5.933   8.428   1.545  0.4655  0.2081  0.6493
 1021MOL0     C37705   6.021   8.395   1.646  0.2170  0.8326 -0.6147
 1021MOL0     C37706   6.159   8.420   1.636  0.5333  0.0412  0.4675
 1021MOL0     C37707   6.219   8.483   1.525 -1.3831  1.0106  0.1537
 1021MOL0     O37708   6.360   8.507   1.507 -0.1507 -0.1106 -0.6942
 1021MOL0     C37709   6.439   8.500   1.626  1.0324  0.2342  0.1019
 1021MOL0     C37710   6.578   8.566   1.601  0.3512 -0.6914 -0.4912
 1021MOL0     C37711   6.669   8.569   1.730  0.4918  0.7945 -0.0796
 1021MOL0     C37712   6.804   8.483   1.705  0.0566  0.2747  0.8694
 1021MOL0     C37713   6.907   8.566   1.625  0.7388  0.0498 -1.2331
 1021MOL0     C37714   6.948   8.694   1.710  0.0186  0.2899 -0.0660
 1021MOL0     C37715   7.094   8.744   1.663 -0.4104  0.4601 -0.3215
 1021MOL0     C37716   7.211   8.647   1.709  0.1143  0.5652  0.5942
 1021MOL0     N37717   7.344   8.708   1.684 -0.0113  0.3600 -0.2997
 1021MOL0     C37718   7.393   8.765   1.565  0.5025 -0.1796 -0.9117
 1021MOL0     C37719   7.521   8.797   1.606 -0.2400  0.7607  0.2814
 1021MOL0     C37720   7.627   8.856   1.518  0.3869  0.1021 -1.0007
 1021MOL0     C37721   7.767   8.792   1.526  0.2650 -0.4605 -1.2475
 1021MOL0     C37722   7.840   8.826   1.399  0.2812 -1.2298 -0.0257
 1021MOL0     C37723   7.988   8.785   1.414  0.2138  0.0472 -0.1035
 1021MOL0     O37724   8.054   8.838   1.532 -0.2485  0.0239  0.3352
 1021MOL0     C37725   8.184   8.882   1.524  0.6526  0.5723 -0.5174
 1021MOL0     C37726   8.279   8.862   1.418 -0.4711 -0.3671  0.0239
 1021MOL0     C37727   8.409   8.914   1.425 -0.3084  0.2283  0.4858
 1021MOL0     C37728   8.455   8.977   1.533 -0.3022  0.1219 -0.0722
 1021MOL0     C37729   8.598   9.015   1.540 -0.0693 -0.4239  0.3266
 1021MOL0     O37730   8.645   9.083   1.652  0.1699 -0.4785 -0.2085
 1021MOL0     C37731   8.778   9.076   1.687 -0.5106 -0.9158  0.6604
 1021MOL0     C37732   8.825   9.020   1.804 -0.1641 -0.2392  0.2313
 1021MOL0     C37733   8.958   9.014   1.838 -0.2900  0.5955  0.1286
 1021MOL0     C37734   9.056   9.088   1.769 -0.0982 -0.0726  0.3343
 1021MOL0     O37735   9.189   9.071   1.803 -0.1931  0.5261  0.0255
 1021MOL0     C37736   9.295   9.127   1.723  0.8219 -0.0968  0.6375
 1021MOL0     C37737   9.422   9.149   1.799  0.0875  0.9539  0.6317
 1021MOL0     C37738   9.541   9.143   1.702 -0.1741 -0.0492 -0.1007
 1021MOL0     C37739   9.666   9.179   1.787 -0.1173 -0.2873  0.0147
 1021MOL0     C37740   9.799   9.135   1.722  0.3152 -0.2974  0.4014
 1021MOL0     C37741   9.798   9.171   1.574 -0.5359 -1.4221 -0.1579
 1021MOL0     C37742   9.922   9.116   1.506  0.2592 -0.4260 -0.1687
 1021MOL0     C37743   9.993   9.209   1.402 -0.0775  0.8694 -0.9297
 1021MOL0    Cl37744  10.154   9.139   1.370  0.0539  0.2164  0.1120
 1021MOL0     C37745   9.007   9.159   1.660 -0.5465  0.4451  0.2266
 1021MOL0     C37746   8.875   9.146   1.611 -0.7348 -1.3929 -0.4803
 1021MOL0     O37747   8.669   8.974   1.446 -0.1508 -0.3991 -0.2786
 1021MOL0     C37748   8.364   9.004   1.637 -0.2654  0.2761 -0.3134
 1021MOL0     C37749   8.227   8.956   1.633 -0.0200 -0.0969 -0.7342
 1021MOL0     N37750   7.551   8.751   1.732  0.2504  1.0599  0.2260
 1021MOL0     N37751   7.444   8.699   1.776 -0.9203 -0.8760 -0.2708
 1021MOL0     C37752   6.122   8.528   1.429 -0.3982  0.0350  0.5138
 1021MOL0     C37753   5.987   8.495   1.440 -0.2741  0.1742  0.1275
 1021MOL0     C37754   5.626   8.237   1.479 -0.1009 -0.8275 -0.5624
 1021MOL0     C37755   5.538   8.326   1.538 -0.4399  0.2410 -0.8998
 1021MOL0     C37756   5.408   8.290   1.575  0.0945  0.4183 -0.3191
 1021MOL0     C37757   5.361   8.167   1.557 -0.0989  0.2788 -0.2001
 1021MOL0     O37758   5.244   8.112   1.591 -0.1531 -0.2391 -0.9876
 1021MOL0     C37759   5.128   8.192   1.614 -0.0137  0.1951 -0.0398
 1021MOL0     C37760   5.007   8.099   1.626 -0.2120  0.6522 -0.1820
 1021MOL0     C37761   5.009   7.992   1.740 -0.0285  0.1442  0.0215
 1021MOL0     C37762   4.878   7.917   1.760  0.2484  0.8804 -0.3825
 1021MOL0     C37763   4.824   7.861   1.628 -0.0388  1.0502 -0.7140
 1021MOL0     C37764   4.784   7.812   1.523 -0.2317 -0.7797  0.3125
 1021MOL0     C37765   5.446   8.073   1.495  0.1983 -0.5148 -0.5156
 1021MOL0     C37766   5.583   8.103   1.464 -0.4605  0.0890 -0.2634
 1021MOL0     C37767   5.666   7.996   1.407 -0.0326  0.1112 -0.3871
 1021MOL0     H37768   5.973   8.346   1.730  2.5969 -1.0919 -0.2448
 1021MOL0     H37769   6.226   8.390   1.716  0.7520  2.0659  1.1189
 1021MOL0     H37770   6.387   8.539   1.714  0.5309 -1.9410  0.8264
 1021MOL0     H37771   6.462   8.394   1.642 -0.9944 -0.0948  1.1604
 1021MOL0     H37772   6.548   8.668   1.574 -0.8649 -0.8651  0.1220
 1021MOL0     H37773   6.635   8.530   1.515  1.1309  2.3313 -1.3813
 1021MOL0     H37774   6.610   8.516   1.806 -0.0297  0.4937 -0.6878
 1021MOL0     H37775   6.687   8.670   1.766 -1.7134  1.9515 -1.9977
 1021MOL0     H37776   6.856   8.443   1.793  2.5382 -0.1366 -0.6874
 1021MOL0     H37777   6.777   8.396   1.645  1.9965 -0.6229  1.2427
 1021MOL0     H37778   6.991   8.495   1.625  2.1709  1.6428  0.2736
 1021MOL0     H37779   6.870   8.589   1.525  0.4113  1.0980 -0.8780
 1021MOL0     H37780   6.874   8.770   1.684  2.0753  3.1516  1.7957
 1021MOL0     H37781   6.963   8.670   1.816  0.4573  0.1142 -0.1634
 1021MOL0     H37782   7.108   8.846   1.701  1.8980  1.1179 -2.7140
 1021MOL0     H37783   7.082   8.752   1.555 -1.3052 -3.2267 -0.6289
 1021MOL0     H37784   7.204   8.607   1.811  0.6951  0.2901  0.5295
 1021MOL0     H37785   7.211   8.571   1.631 -0.8653 -0.2743  1.3812
 1021MOL0     H37786   7.339   8.790   1.474 -2.4914  1.8863  1.2369
 1021MOL0     H37787   7.596   8.842   1.414 -0.0509 -1.8896 -0.6493
 1021MOL0     H37788   7.617   8.963   1.537  0.4639 -0.2000  0.9830
 1021MOL0     H37789   7.814   8.824   1.619  0.5215  1.1825 -1.9139
 1021MOL0     H37790   7.754   8.683   1.527  1.6701 -0.6347 -0.4926
 1021MOL0     H37791   7.854   8.934   1.386 -3.5406 -0.2923  2.2122
 1021MOL0     H37792   7.787   8.795   1.309  2.0628  0.8867 -1.9270
 1021MOL0     H37793   8.041   8.804   1.320 -0.1070 -1.5567 -0.6316
 1021MOL0     H37794   7.991   8.676   1.426  0.0662  0.1959  1.4902
 1021MOL0     H37795   8.241   8.808   1.332  0.4010 -0.4245 -0.3371
 1021MOL0     H37796   8.477   8.891   1.343  0.8305  3.6543  0.3368
 1021MOL0     H37797   8.751   8.962   1.859 -0.6996 -3.0543 -3.1208
 1021MOL0     H37798   8.995   8.946   1.914  2.4382  2.6602  0.8121
 1021MOL0     H37799   9.308   9.067   1.632 -1.2568  0.5649 -0.1547
 1021MOL0     H37800   9.265   9.228   1.693  1.7150 -0.7492 -2.8225
 1021MOL0     H37801   9.433   9.246   1.846  3.1049 -0.0373  2.1990
 1021MOL0     H37802   9.434   9.071   1.875  1.5973 -1.3835 -1.8296
 1021MOL0     H37803   9.561   9.042   1.666  4.1742  1.2975 -2.1364
 1021MOL0     H37804   9.527   9.206   1.614 -1.1013 -0.3826 -0.1978
 1021MOL0     H37805   9.659   9.136   1.887 -1.4589  0.9204  0.4879
 1021MOL0     H37806   9.664   9.287   1.808 -0.8571 -0.3334  0.2151
 1021MOL0     H37807   9.814   9.029   1.745  1.1833  0.0896  1.7248
 1021MOL0     H37808   9.878   9.190   1.773 -0.6963  0.9888  0.6418
 1021MOL0     H37809   9.711   9.140   1.516 -0.1762 -0.1983 -1.3870
 1021MOL0     H37810   9.805   9.280   1.572  1.2922 -1.4948  0.0475
 1021MOL0     H37811   9.895   9.022   1.457  0.6091 -1.9184  2.2940
 1021MOL0     H37812   9.996   9.091   1.583 -0.3522 -0.7909  0.3225
 1021MOL0     H37813   9.939   9.221   1.308 -0.9673  1.4954 -0.3530
 1021MOL0     H37814   9.998   9.311   1.440 -1.4957  0.5027  0.3466
 1021MOL0     H37815   9.066   9.213   1.586 -1.3037 -0.5866 -1.1656
 1021MOL0     H37816   8.853   9.185   1.512  0.8341  0.8076 -0.0262
 1021MOL0     H37817   8.396   9.054   1.728 -4.5574  1.0822  1.0160
 1021MOL0     H37818   8.159   8.969   1.716  1.1683 -0.3980  0.3137
 1021MOL0     H37819   6.149   8.574   1.334 -1.3346 -2.0061 -0.8207
 1021MOL0     H37820   5.918   8.528   1.363  1.2412  1.4235 -0.7592
 1021MOL0     H37821   5.561   8.432   1.538  1.4964 -0.0546 -3.8421
 1021MOL0     H37822   5.347   8.374   1.604 -0.0214  0.8548 -1.7862
 1021MOL0     H37823   5.112   8.257   1.528  2.8066  0.8524 -0.1817
 1021MOL0     H37824   5.135   8.257   1.702 -2.3523  0.8027 -0.2354
 1021MOL0     H37825   5.002   8.040   1.535 -1.8955 -0.5185  0.6051
 1021MOL0     H37826   4.924   8.170   1.637  0.5595  1.7380 -1.1599
 1021MOL0     H37827   5.030   8.037   1.837  2.1107 -3.4788  1.3916
 1021MOL0     H37828   5.085   7.914   1.731  0.8763  1.1287 -1.4370
 1021MOL0     H37829   4.888   7.832   1.828  0.9316  0.1369 -1.3732
 1021MOL0     H37830   4.803   7.990   1.791 -3.0231 -1.1867 -2.6382
 1021MOL0     H37831   4.752   7.771   1.429 -3.0434 -0.5447  1.0598
 1021MOL0     H37832   5.398   7.977   1.479  1.3593 -0.9511 -1.5367
 1021MOL0     H37833   5.754   7.978   1.470  0.3822 -0.0525 -1.0054
 1021MOL0     H37834   5.612   7.902   1.394  1.1202 -0.4215 -1.5844
 1021MOL0     H37835   5.698   8.038   1.311 -0.3775  2.8648  0.5889
 1022MOL0     O37836   0.097   1.313   4.545  0.3828 -0.2086  1.0418
 1022MOL0     C37837   0.144   1.299   4.429 -0.2861  0.0216  0.2515
 1022MOL0     O37838   0.178   1.400   4.348  0.7929 -0.4391  0.9232
 1022MOL0     C37839   0.239   1.512   4.397 -0.1945  0.4388  1.0613
 1022MOL0     C37840   0.333   1.515   4.502 -1.0739 -0.2572  0.9450
 1022MOL0     C37841   0.386   1.632   4.547  0.8458  1.0969  0.5662
 1022MOL0     C37842   0.344   1.755   4.500 -0.1074 -0.6052  0.3310
 1022MOL0     O37843   0.376   1.865   4.569 -0.2467  0.4305  0.0289
 1022MOL0     C37844   0.310   1.992   4.542  0.5877  0.9684  1.3368
 1022MOL0     C37845   0.347   2.098   4.640 -0.2584 -1.2626 -1.1620
 1022MOL0     C37846   0.505   2.118   4.640  0.0901 -0.6217  0.1920
 1022MOL0     C37847   0.527   2.222   4.758  0.1826  0.7409 -1.0403
 1022MOL0     C37848   0.678   2.250   4.793  0.9587  0.0153  0.1357
 1022MOL0     C37849   0.772   2.238   4.676 -0.0573 -0.7041  0.5601
 1022MOL0     C37850   0.916   2.259   4.715 -0.2367  0.8881 -0.1139
 1022MOL0     C37851   0.965   2.152   4.824  0.3014  0.2094 -0.4696
 1022MOL0     N37852   1.107   2.178   4.861  0.2051  0.8626  0.2749
 1022MOL0     C37853   1.220   2.169   4.785 -0.4978 -0.0697  0.4028
 1022MOL0     C37854   1.332   2.207   4.852  0.7245  0.0375  0.1096
 1022MOL0     C37855   1.472   2.220   4.799  0.1633  0.3441  1.8762
 1022MOL0     C37856   1.584   2.196   4.897 -0.3233 -0.1035 -0.1938
 1022MOL0     C37857   1.721   2.220   4.825  0.1027  0.2404 -0.5628
 1022MOL0     C37858   1.829   2.137   4.901  0.5669  0.5104  0.0765
 1022MOL0     O37859   1.957   2.177   4.864 -0.0276  0.2389  0.8132
 1022MOL0     C37860   2.055   2.101   4.899 -0.1205 -0.8123 -0.0296
 1022MOL0     C37861   2.058   1.991   4.983 -0.3421 -0.6081 -0.2543
 1022MOL0     C37862   2.181   1.923   4.999 -0.7752  0.5198 -0.7028
 1022MOL0     C37863   2.292   1.948   4.915  0.5300 -0.5043  0.7631
 1022MOL0     C37864   2.421   1.867   4.930  0.5344  0.3923 -0.7614
 1022MOL0     O37865   2.544   1.916   4.914 -0.4166 -0.9377  0.3985
 1022MOL0     C37866   2.653   1.828   4.926  0.7567  0.1040  0.3295
 1022MOL0     C37867   2.737   1.817   4.820  0.1201 -0.9757 -0.4229
 1022MOL0     C37868   2.849   1.732   4.838 -0.3665 -1.4059  0.7011
 1022MOL0     C37869   2.881   1.679   4.956 -0.3681 -0.1596 -0.5409
 1022MOL0     O37870   2.999   1.601   4.953  0.7046 -0.3208 -0.0643
 1022MOL0     C37871   3.051   1.557   5.078 -0.3282 -0.6985 -0.1775
 1022MOL0     C37872   3.185   1.488   5.055 -0.4594  0.5743 -0.1430
 1022MOL0     C37873   3.183   1.343   5.060  0.3062  0.0784 -0.5877
 1022MOL0     C37874   3.319   1.293   5.113 -1.0785 -0.2423 -0.4855
 1022MOL0     C37875   3.336   1.135   5.102 -1.0806 -0.5078  0.7093
 1022MOL0     C37876   3.492   1.104   5.115 -0.6224 -0.1143 -0.3325
 1022MOL0     C37877   3.521   0.971   5.061 -0.5828  0.4879 -0.2222
 1022MOL0     C37878   3.660   0.936   5.112  0.3448 -0.4649 -0.8230
 1022MOL0    Cl37879   3.739   0.810   4.998 -0.0688  0.2543  0.5067
 1022MOL0     C37880   2.802   1.699   5.071 -0.8154 -0.1743 -0.3222
 1022MOL0     C37881   2.678   1.768   5.051  0.1237  0.0996  0.1977
 1022MOL0     O37882   2.393   1.745   4.951  0.1890 -0.1290 -0.2245
 1022MOL0     C37883   2.288   2.052   4.826 -0.4693 -0.2272  0.0892
 1022MOL0     C37884   2.169   2.134   4.826 -0.3192 -0.6440 -0.2644
 1022MOL0     N37885   1.284   2.235   4.986  0.7394 -0.7710  0.9076
 1022MOL0     N37886   1.154   2.225   4.981 -0.2492  0.2018 -0.1836
 1022MOL0     C37887   0.256   1.753   4.388 -1.1774 -0.6536  0.2143
 1022MOL0     C37888   0.197   1.634   4.342 -0.2820 -0.3355  0.1334
 1022MOL0     C37889   0.147   1.166   4.369 -0.4359 -0.0082  0.2546
 1022MOL0     C37890   0.110   1.154   4.229  0.0929  0.3960  0.0580
 1022MOL0     C37891   0.116   1.029   4.160 -0.0259 -0.7005 -0.5646
 1022MOL0     C37892   0.152   0.919   4.241  1.0162  0.0474 -0.1662
 1022MOL0     O37893   0.172   0.787   4.205  0.0874  0.0291 -0.0211
 1022MOL0     C37894   0.105   0.745   4.086 -0.4045  0.1978 -0.2860
 1022MOL0     C37895   0.154   0.612   4.028  0.1966 -0.4238 -0.6296
 1022MOL0     C37896   0.105   0.606   3.882  0.4054 -0.1979  0.9668
 1022MOL0     C37897   0.128   0.465   3.825  0.1289 -0.3810  0.2645
 1022MOL0     C37898   0.096   0.459   3.679 -0.0383  0.1366 -0.9542
 1022MOL0     C37899   0.076   0.455   3.565 -0.4575  0.0194  1.0947
 1022MOL0     C37900   0.182   0.936   4.376 -0.0168  0.1619  0.4629
 1022MOL0     C37901   0.178   1.057   4.443 -0.2233  0.3055  0.5125
 1022MOL0     C37902   0.205   1.064   4.596 -1.1477  0.2472  0.1024
 1022MOL0     H37903   0.365   1.427   4.557 -0.2276 -0.7563 -0.3126
 1022MOL0     H37904   0.457   1.624   4.628 -0.1696  1.6615  1.5508
 1022MOL0     H37905   0.314   2.036   4.442 -2.4067 -1.2612  0.0883
 1022MOL0     H37906   0.203   1.974   4.555  0.2812  0.9629 -0.8279
 1022MOL0     H37907   0.318   2.060   4.738 -0.2777 -2.7234 -1.7036
 1022MOL0     H37908   0.297   2.192   4.616 -1.4393 -2.2400 -2.7695
 1022MOL0     H37909   0.544   2.168   4.551 -0.7753  2.0929  1.2380
 1022MOL0     H37910   0.564   2.027   4.655  2.3088  1.0532  2.6583
 1022MOL0     H37911   0.484   2.316   4.722  1.6165  0.7562 -2.8499
 1022MOL0     H37912   0.473   2.194   4.849 -0.4440 -0.2406 -1.7073
 1022MOL0     H37913   0.683   2.346   4.844 -1.3690 -1.0391  2.6004
 1022MOL0     H37914   0.708   2.173   4.864 -0.3571  0.4885  1.2611
 1022MOL0     H37915   0.774   2.136   4.636  0.5208 -1.1100  1.5864
 1022MOL0     H37916   0.732   2.299   4.594 -0.7648 -2.6784 -0.6343
 1022MOL0     H37917   0.937   2.358   4.757  3.9104  0.2227 -0.2428
 1022MOL0     H37918   0.985   2.246   4.632 -0.7097 -1.6911 -0.2101
 1022MOL0     H37919   0.910   2.163   4.918  2.5744  1.1787  0.8122
 1022MOL0     H37920   0.959   2.049   4.786 -1.3117  0.1518 -0.1530
 1022MOL0     H37921   1.222   2.161   4.677  0.5221 -2.4629  0.5450
 1022MOL0     H37922   1.480   2.140   4.725  1.3730  1.6409  0.5533
 1022MOL0     H37923   1.496   2.317   4.756  3.0625 -1.1890 -0.2958
 1022MOL0     H37924   1.575   2.269   4.978 -2.7905 -1.7269  1.1217
 1022MOL0     H37925   1.564   2.099   4.942 -4.0190  0.9031  0.7334
 1022MOL0     H37926   1.746   2.327   4.821  0.9699  0.1110  0.6062
 1022MOL0     H37927   1.714   2.184   4.722 -2.4155  0.3257 -0.4797
 1022MOL0     H37928   1.805   2.038   4.860 -1.3905  0.2187  1.7377
 1022MOL0     H37929   1.813   2.151   5.008 -0.3761  1.3229 -0.1486
 1022MOL0     H37930   1.973   1.942   5.031 -0.6110  0.4910  0.4281
 1022MOL0     H37931   2.178   1.850   5.079  0.5806 -0.3032 -1.3623
 1022MOL0     H37932   2.713   1.865   4.725 -2.2100 -0.4660  0.3606
 1022MOL0     H37933   2.917   1.741   4.754 -0.2458  0.5882  0.9669
 1022MOL0     H37934   3.076   1.633   5.153  4.3103 -2.0407 -0.0351
 1022MOL0     H37935   2.979   1.483   5.114  0.4773 -1.4821 -0.1357
 1022MOL0     H37936   3.217   1.517   4.954  1.0221  2.7359  0.8925
 1022MOL0     H37937   3.258   1.522   5.128  1.4090 -1.0428 -1.1689
 1022MOL0     H37938   3.099   1.302   5.117  0.5489  0.1864 -0.1495
 1022MOL0     H37939   3.184   1.301   4.959  0.2547  2.0513 -1.4477
 1022MOL0     H37940   3.335   1.327   5.216  0.5112  0.7277 -1.0136
 1022MOL0     H37941   3.398   1.338   5.052  0.4881 -4.6429 -2.1022
 1022MOL0     H37942   3.298   1.103   5.005 -0.9005  0.4159  0.3159
 1022MOL0     H37943   3.260   1.081   5.159 -2.6797  1.2031  0.2803
 1022MOL0     H37944   3.551   1.180   5.063  0.2455 -0.8000 -0.3681
 1022MOL0     H37945   3.513   1.110   5.222  0.3766  0.5479 -0.5462
 1022MOL0     H37946   3.498   0.951   4.957 -0.6952  2.2435 -0.5662
 1022MOL0     H37947   3.459   0.898   5.113 -1.8774  0.3909 -1.8498
 1022MOL0     H37948   3.724   1.023   5.121 -2.7192  2.4602 -3.9735
 1022MOL0     H37949   3.652   0.891   5.212 -1.8779 -0.8007 -1.0876
 1022MOL0     H37950   2.823   1.668   5.173  1.7760  0.0585 -0.7343
 1022MOL0     H37951   2.608   1.792   5.130  0.4743 -0.3625  0.6512
 1022MOL0     H37952   2.369   2.063   4.756  0.3071 -2.1031  0.6164
 1022MOL0     H37953   2.169   2.216   4.755 -1.5507  1.7652  2.3393
 1022MOL0     H37954   0.228   1.849   4.346  0.7662 -0.1285  0.0494
 1022MOL0     H37955   0.115   1.632   4.271  0.7174  0.4794 -1.0844
 1022MOL0     H37956   0.072   1.239   4.174 -1.8531 -0.2142  0.3980
 1022MOL0     H37957   0.099   1.020   4.053 -1.0686  1.0384 -0.5860
 1022MOL0     H37958   0.127   0.819   4.009 -1.9761 -1.4982 -2.4941
 1022MOL0     H37959  -0.004   0.740   4.100 -0.3839 -2.0730 -0.6398
 1022MOL0     H37960   0.133   0.518   4.080 -0.9105  0.3382  0.3367
 1022MOL0     H37961   0.263   0.620   4.024  0.3335 -0.1647  1.9583
 1022MOL0     H37962   0.156   0.676   3.816  0.8563 -0.3536  1.1496
 1022MOL0     H37963   0.001   0.640   3.882  0.3932 -0.2254  0.3800
 1022MOL0     H37964   0.232   0.438   3.847  0.8617  2.6757  0.9484
 1022MOL0     H37965   0.073   0.393   3.888  0.4179 -2.1434 -1.3952
 1022MOL0     H37966   0.060   0.460   3.459 -0.0711 -2.9328  0.8147
 1022MOL0     H37967   0.202   0.841   4.424 -0.7027 -2.1288 -3.3400
 1022MOL0     H37968   0.115   1.085   4.653 -1.4130 -0.8403  0.1170
 1022MOL0     H37969   0.259   0.976   4.632  0.9487  0.6434 -1.8074
 1022MOL0     H37970   0.275   1.146   4.612  0.8843 -1.3449 -0.1690
 1023MOL0     O37971   0.828  11.023   2.373 -0.2626  0.1430  0.2393
 1023MOL0     C37972   0.712  10.987   2.347 -0.7667  0.4178  0.3367
 1023MOL0     O37973   0.615  10.954   2.434 -0.4095  0.8372 -0.5514
 1023MOL0     C37974   0.638  10.984   2.567  0.1231 -0.6046  0.3094
 1023MOL0     C37975   0.659  10.887   2.666 -0.3102 -0.4107 -0.0662
 1023MOL0     C37976   0.681  10.932   2.800 -0.8379  0.2989  0.4825
 1023MOL0     C37977   0.679  11.067   2.838 -0.8153 -0.2251  0.2602
 1023MOL0     O37978   0.698  11.103   2.969  0.8001  0.7986 -1.5778
 1023MOL0     C37979   0.659  11.235   3.017 -0.6469  0.5267  0.4099
 1023MOL0     C37980   0.702  11.260   3.159 -0.3556 -0.5408  0.0167
 1023MOL0     C37981   0.679  11.402   3.201  0.0618 -0.3940  0.0861
 1023MOL0     C37982   0.752  11.424   3.336  0.0088 -0.4402 -0.3959
 1023MOL0     C37983   0.778  11.570   3.377 -0.2051 -0.0078 -0.3292
 1023MOL0     C37984   0.903  11.620   3.293  0.7575 -0.7294 -0.8606
 1023MOL0     C37985   0.940  11.763   3.318  0.8936 -0.3367 -0.4019
 1023MOL0     C37986   0.979  11.810   3.459 -0.3940  0.5420  1.3461
 1023MOL0     N37987   1.036  11.947   3.482  0.9940  0.1425  0.4220
 1023MOL0     C37988   1.144  12.002   3.414 -0.4499 -0.1216 -0.9831
 1023MOL0     C37989   1.142  12.132   3.447 -0.5068 -0.0309 -0.7331
 1023MOL0     C37990   1.250  12.236   3.414  0.0653  0.1205  0.5289
 1023MOL0     C37991   1.389  12.181   3.432 -0.3150  0.2109 -0.1471
 1023MOL0     C37992   1.475  12.306   3.428 -0.5696 -0.2879 -1.1264
 1023MOL0     C37993   1.627  12.292   3.467  0.2464 -0.1292  0.4646
 1023MOL0     O37994   1.682  12.194   3.377 -0.4660  0.4508  0.1848
 1023MOL0     C37995   1.820  12.178   3.363 -0.3051 -0.6828 -0.0720
 1023MOL0     C37996   1.866  12.091   3.262  0.1700  0.0866 -0.5875
 1023MOL0     C37997   2.000  12.065   3.236 -0.8714 -0.1577 -0.6589
 1023MOL0     C37998   2.095  12.119   3.324  0.5322  0.1266  0.0794
 1023MOL0     C37999   2.235  12.116   3.300  0.6006 -0.0914  0.0408
 1023MOL0     O38000   2.257  12.094   3.170  0.5840 -0.4326  0.0679
 1023MOL0     C38001   2.392  12.100   3.132  0.0908  0.3220 -0.2155
 1023MOL0     C38002   2.460  11.983   3.113  0.1385 -0.0603  0.0899
 1023MOL0     C38003   2.598  11.992   3.074  0.3774 -0.4458 -0.6084
 1023MOL0     C38004   2.657  12.115   3.043 -0.0693  0.0370 -0.2637
 1023MOL0     O38005   2.774  12.139   2.980  0.0707  0.1455 -0.2808
 1023MOL0     C38006   2.816  12.036   2.891 -0.1186 -0.5359  0.5911
 1023MOL0     C38007   2.938  12.087   2.806 -0.4400  0.1265  0.0002
 1023MOL0     C38008   3.061  12.116   2.906  0.0023 -0.6848  0.2020
 1023MOL0     C38009   3.172  12.160   2.808  0.3317 -0.5756  0.1219
 1023MOL0     C38010   3.314  12.152   2.860  0.1249 -0.9445 -0.7114
 1023MOL0     C38011   3.412  12.192   2.751  0.5469  0.2634  0.4020
 1023MOL0     C38012   3.562  12.138   2.764  0.7266  0.4892  0.0567
 1023MOL0     C38013   3.629  12.187   2.892  0.2792  0.3421  0.5280
 1023MOL0    Cl38014   3.789  12.109   2.909  0.4599  0.1146  0.3544
 1023MOL0     C38015   2.578  12.223   3.050 -0.8084  0.4075  0.1603
 1023MOL0     C38016   2.453  12.217   3.096 -0.3613 -0.6701  0.2975
 1023MOL0     O38017   2.321  12.144   3.387  0.1405 -0.3567  0.3177
 1023MOL0     C38018   2.052  12.202   3.429  0.1434  0.9385 -0.6789
 1023MOL0     C38019   1.920  12.236   3.444  0.1446 -0.1083  0.6929
 1023MOL0     N38020   1.038  12.156   3.540  0.0729  0.8865 -0.3298
 1023MOL0     N38021   0.975  12.043   3.558  0.2288 -0.2652  0.0644
 1023MOL0     C38022   0.658  11.159   2.737 -0.2337  0.1730  0.0373
 1023MOL0     C38023   0.636  11.120   2.602 -0.2033 -0.2894 -0.6372
 1023MOL0     C38024   0.681  10.962   2.204  0.3567 -1.3292 -0.2777
 1023MOL0     C38025   0.603  11.059   2.140  0.1244  0.4731 -0.4854
 1023MOL0     C38026   0.579  11.052   2.000 -0.8228 -0.0523 -0.2545
 1023MOL0     C38027   0.637  10.947   1.924 -0.7570 -0.4442  0.0363
 1023MOL0     O38028   0.621  10.936   1.794  0.7941  0.2618  0.2637
 1023MOL0     C38029   0.642  10.808   1.738  0.1876  0.2696  0.4010
 1023MOL0     C38030   0.555  10.792   1.612 -0.8463  0.7266  1.1119
 1023MOL0     C38031   0.629  10.707   1.503  0.9943 -0.2532 -0.2494
 1023MOL0     C38032   0.542  10.654   1.390  0.5767 -0.4799 -0.0641
 1023MOL0     C38033   0.469  10.753   1.310  0.8330 -0.5787 -0.4286
 1023MOL0     C38034   0.388  10.827   1.256 -0.1466  0.1906  0.6744
 1023MOL0     C38035   0.721  10.856   1.995 -0.5182  0.3482 -0.6222
 1023MOL0     C38036   0.731  10.861   2.130 -0.2000  1.0212  0.4456
 1023MOL0     C38037   0.826  10.761   2.183  0.4702 -0.1973  0.2955
 1023MOL0     H38038   0.653  10.781   2.646 -2.7432  0.2446 -3.7119
 1023MOL0     H38039   0.692  10.857   2.878  2.1345  0.8294  0.6815
 1023MOL0     H38040   0.715  11.302   2.952 -0.4803  1.5106  1.5383
 1023MOL0     H38041   0.553  11.255   2.999 -1.1813 -1.8610  0.5378
 1023MOL0     H38042   0.807  11.231   3.170 -0.8048 -1.4442  2.7655
 1023MOL0     H38043   0.646  11.199   3.231 -2.5029  1.3796  0.0538
 1023MOL0     H38044   0.573  11.413   3.222  0.7791  1.0680  3.7766
 1023MOL0     H38045   0.712  11.472   3.124 -0.2347 -1.3103 -0.8924
 1023MOL0     H38046   0.705  11.370   3.420  1.3322  0.3993  0.9451
 1023MOL0     H38047   0.851  11.379   3.326  0.0484  0.2141 -5.0294
 1023MOL0     H38048   0.695  11.641   3.371  0.0006  0.2736  0.0983
 1023MOL0     H38049   0.809  11.562   3.482  0.7603  3.2781 -0.2459
 1023MOL0     H38050   0.991  11.561   3.319  0.3990 -0.5876  0.8035
 1023MOL0     H38051   0.888  11.608   3.185 -1.0583  1.3855 -0.9231
 1023MOL0     H38052   0.859  11.831   3.288 -1.7117 -2.7009  0.8354
 1023MOL0     H38053   1.025  11.774   3.251 -0.7569 -1.7268 -2.9117
 1023MOL0     H38054   0.884  11.802   3.512 -1.1896  0.2554 -0.0742
 1023MOL0     H38055   1.049  11.736   3.498  1.7731  1.4552 -0.5484
 1023MOL0     H38056   1.223  11.964   3.350  0.1632 -0.8343  0.1569
 1023MOL0     H38057   1.239  12.272   3.311 -3.8454  1.9094  1.3763
 1023MOL0     H38058   1.224  12.323   3.475 -0.1881  2.5547 -2.7507
 1023MOL0     H38059   1.394  12.142   3.534 -0.8726 -1.7647 -0.8396
 1023MOL0     H38060   1.422  12.104   3.361 -1.4216 -0.8858  0.4904
 1023MOL0     H38061   1.429  12.379   3.495  2.8721  1.7399 -0.7561
 1023MOL0     H38062   1.477  12.347   3.327 -3.1587 -1.5014 -1.7638
 1023MOL0     H38063   1.641  12.257   3.570 -0.9046 -0.1023  0.6513
 1023MOL0     H38064   1.668  12.392   3.456 -1.4116  0.4138 -1.2097
 1023MOL0     H38065   1.787  12.058   3.195 -1.4716  2.9334 -0.2055
 1023MOL0     H38066   2.012  12.008   3.144  0.7728  0.0100 -0.5675
 1023MOL0     H38067   2.409  11.888   3.131  0.5673 -0.3241 -0.0619
 1023MOL0     H38068   2.654  11.899   3.077  0.7361 -0.2262 -0.5288
 1023MOL0     H38069   2.857  11.947   2.941  1.0344 -0.2310  0.2354
 1023MOL0     H38070   2.732  12.018   2.824 -0.4789  1.0012  0.5925
 1023MOL0     H38071   2.955  12.011   2.730 -0.5956  1.4446 -1.3994
 1023MOL0     H38072   2.906  12.182   2.761  2.5172  2.8818  3.1375
 1023MOL0     H38073   3.050  12.194   2.982  2.1037 -1.2448  1.1743
 1023MOL0     H38074   3.086  12.022   2.958 -2.4962 -1.3339  0.3321
 1023MOL0     H38075   3.144  12.263   2.784 -2.1195 -0.6951  2.0656
 1023MOL0     H38076   3.163  12.088   2.727  0.6616 -0.8409  0.3173
 1023MOL0     H38077   3.337  12.057   2.910  0.2133 -1.0737 -0.9963
 1023MOL0     H38078   3.314  12.219   2.947 -1.3177 -0.1937 -1.2546
 1023MOL0     H38079   3.372  12.156   2.657 -0.9088  3.3586 -0.2739
 1023MOL0     H38080   3.410  12.300   2.731  1.4114 -0.1727 -2.4916
 1023MOL0     H38081   3.614  12.185   2.680  0.9163 -1.2932 -0.8760
 1023MOL0     H38082   3.567  12.031   2.746 -0.1853  0.4152  0.1656
 1023MOL0     H38083   3.625  12.296   2.902  1.4412  0.1931  3.5902
 1023MOL0     H38084   3.582  12.147   2.983  2.3451 -0.2335  1.3822
 1023MOL0     H38085   2.620  12.319   3.021 -0.0915  0.1067  0.1913
 1023MOL0     H38086   2.391  12.307   3.102  0.8387  0.2398 -0.5401
 1023MOL0     H38087   2.121  12.238   3.505 -0.7225 -0.9609  1.1139
 1023MOL0     H38088   1.894  12.304   3.524  1.0834  0.5404  0.4506
 1023MOL0     H38089   0.647  11.267   2.744 -0.5399  0.1945 -0.7244
 1023MOL0     H38090   0.617  11.187   2.519  4.4260  1.0897 -0.8858
 1023MOL0     H38091   0.555  11.144   2.189  0.1372 -1.2807  2.8365
 1023MOL0     H38092   0.522  11.127   1.946  1.0229  0.6248 -1.3899
 1023MOL0     H38093   0.608  10.726   1.803 -0.0612 -0.0809 -0.1653
 1023MOL0     H38094   0.749  10.789   1.721 -0.3005  0.3575 -3.6517
 1023MOL0     H38095   0.530  10.886   1.563 -1.0304 -0.9479 -2.3194
 1023MOL0     H38096   0.469  10.737   1.652  1.2683 -2.1074  2.1347
 1023MOL0     H38097   0.687  10.631   1.555  0.5652  1.3905  2.8543
 1023MOL0     H38098   0.697  10.781   1.458  3.7738 -0.7249  2.8361
 1023MOL0     H38099   0.613  10.609   1.320  0.7409  0.4994 -0.5425
 1023MOL0     H38100   0.474  10.580   1.434  0.9063 -0.2842  0.8026
 1023MOL0     H38101   0.323  10.909   1.232  0.8145  2.3494  4.5410
 1023MOL0     H38102   0.775  10.778   1.942 -3.3498 -1.8070 -0.5747
 1023MOL0     H38103   0.918  10.817   2.201 -0.3334  0.4153  2.7923
 1023MOL0     H38104   0.783  10.728   2.277 -3.4017  1.4887 -0.6914
 1023MOL0     H38105   0.836  10.667   2.128 -1.6435 -0.6598  0.6236
 1024MOL0     O38106   4.118   7.171   9.841 -0.1419 -0.3642  0.1723
 1024MOL0     C38107   4.092   7.255   9.926 -0.0057 -0.6538  0.0302
 1024MOL0     O38108   4.186   7.325   9.999  0.0410 -0.3546  0.1011
 1024MOL0     C38109   4.320   7.315   9.958 -0.5944 -0.2011  1.1737
 1024MOL0     C38110   4.387   7.437   9.967 -0.9115 -0.1066 -0.2748
 1024MOL0     C38111   4.520   7.445   9.937 -0.3319 -0.3667 -0.1845
 1024MOL0     C38112   4.598   7.328   9.896  1.3503  0.2043 -0.3673
 1024MOL0     O38113   4.734   7.318   9.873 -0.6947 -0.3205 -0.3973
 1024MOL0     C38114   4.798   7.444   9.851  0.2112 -0.3581 -0.2171
 1024MOL0     C38115   4.857   7.508   9.981 -0.1899  0.0328  1.0913
 1024MOL0     C38116   4.915   7.644   9.955  0.6983 -0.1077 -0.2767
 1024MOL0     C38117   4.955   7.706  10.092  0.1572  0.2800 -0.7259
 1024MOL0     C38118   4.840   7.780  10.160  0.2069  0.1387  0.0198
 1024MOL0     C38119   4.894   7.862  10.279  0.3505  0.0055  0.2041
 1024MOL0     C38120   4.787   7.930  10.369  0.5393 -0.1398  1.2847
 1024MOL0     C38121   4.833   8.024  10.474 -0.4143 -0.6009 -0.3723
 1024MOL0     N38122   4.727   8.079  10.558 -0.2921  0.1309  0.5620
 1024MOL0     C38123   4.618   8.139  10.501 -0.3802 -0.4284 -1.2543
 1024MOL0     C38124   4.545   8.183  10.605  0.1741  0.0089 -0.7042
 1024MOL0     C38125   4.421   8.260  10.582 -0.2696  0.4095  0.0544
 1024MOL0     C38126   4.405   8.380  10.679  0.2515  0.4586 -0.5778
 1024MOL0     C38127   4.487   8.502  10.639  0.0700 -0.7941 -0.0697
 1024MOL0     C38128   4.469   8.605  10.756 -0.1509  0.0097 -0.4641
 1024MOL0     O38129   4.554   8.572  10.866 -0.1938 -0.2451  0.2948
 1024MOL0     C38130   4.684   8.620  10.864  0.4090 -0.0133 -0.7643
 1024MOL0     C38131   4.752   8.609  10.988 -0.4388  0.0911  0.3667
 1024MOL0     C38132   4.877   8.669  11.014 -0.7803  0.3009 -0.1250
 1024MOL0     C38133   4.936   8.740  10.910 -0.0461  0.3701 -0.2298
 1024MOL0     C38134   5.068   8.787  10.930 -1.0248 -0.2169 -0.8977
 1024MOL0     O38135   5.128   8.763  11.051 -0.0846  0.5834 -0.2305
 1024MOL0     C38136   5.245   8.817  11.085  0.1131  0.5009  0.0497
 1024MOL0     C38137   5.296   8.944  11.048  0.6365 -0.9744  1.0462
 1024MOL0     C38138   5.424   8.985  11.079 -0.5217  0.0491 -0.2992
 1024MOL0     C38139   5.503   8.900  11.162 -0.7642 -0.5671  0.3822
 1024MOL0     O38140   5.640   8.917  11.179  0.2565 -0.6978 -0.7742
 1024MOL0     C38141   5.710   8.994  11.080 -1.0702 -0.0747  0.0758
 1024MOL0     C38142   5.863   8.998  11.105 -0.2673  0.8810  0.7229
 1024MOL0     C38143   5.897   9.076  11.227 -0.4864  0.0596  0.2312
 1024MOL0     C38144   6.045   9.082  11.261  0.1110  0.2088 -0.6621
 1024MOL0     C38145   6.126   9.159  11.159  0.1390  0.7473  0.5261
 1024MOL0     C38146   6.274   9.178  11.196 -0.2356  0.3004  1.2328
 1024MOL0     C38147   6.342   9.250  11.075 -0.4743  0.6636 -0.1126
 1024MOL0     C38148   6.465   9.334  11.114  0.2918  0.4655 -0.0421
 1024MOL0    Cl38149   6.419   9.468  11.218 -0.2343  0.0778  0.1022
 1024MOL0     C38150   5.442   8.787  11.220  0.6024 -0.1250 -0.7956
 1024MOL0     C38151   5.316   8.739  11.180  0.0565 -0.3215 -0.4554
 1024MOL0     O38152   5.129   8.836  10.838  0.1379 -0.7844  0.5699
 1024MOL0     C38153   4.873   8.748  10.780 -0.6748 -1.0352  0.5004
 1024MOL0     C38154   4.751   8.681  10.762  0.3529 -0.9121  1.0184
 1024MOL0     N38155   4.613   8.157  10.719 -0.1798  0.2055  0.2088
 1024MOL0     N38156   4.720   8.082  10.692  0.0119  0.2028 -0.7332
 1024MOL0     C38157   4.527   7.211   9.894 -0.0491 -0.3197 -0.0663
 1024MOL0     C38158   4.388   7.199   9.919 -0.2869  1.1184  0.4534
 1024MOL0     C38159   3.955   7.257   9.971  0.4373  0.5357  0.1021
 1024MOL0     C38160   3.927   7.256  10.110  0.3237 -0.3203  0.0712
 1024MOL0     C38161   3.793   7.256  10.165 -0.3480 -0.6806  0.2250
 1024MOL0     C38162   3.690   7.262  10.078  0.0223  0.3216 -0.1214
 1024MOL0     O38163   3.574   7.256  10.140 -0.2641  0.6912 -0.4137
 1024MOL0     C38164   3.472   7.363  10.112  0.1086  0.2694 -0.0675
 1024MOL0     C38165   3.491   7.493  10.181 -0.4537  0.2263 -0.0553
 1024MOL0     C38166   3.464   7.477  10.339 -0.3123  0.0932 -0.4925
 1024MOL0     C38167   3.330   7.419  10.380  0.7557  0.1203  0.5525
 1024MOL0     C38168   3.321   7.433  10.527  0.2392  1.1489 -0.3004
 1024MOL0     C38169   3.329   7.452  10.645 -0.0954 -0.1835  0.6924
 1024MOL0     C38170   3.706   7.269   9.942 -0.0924 -0.1654 -0.4164
 1024MOL0     C38171   3.836   7.255   9.894 -0.2595 -1.6405 -0.1054
 1024MOL0     C38172   3.840   7.271   9.746  0.0119 -0.3051  0.0700
 1024MOL0     H38173   4.340   7.530   9.998  0.9824  1.4327 -1.7888
 1024MOL0     H38174   4.560   7.545   9.937  0.5909 -0.6907 -1.9611
 1024MOL0     H38175   4.878   7.426   9.779  0.0191 -1.4720 -0.1817
 1024MOL0     H38176   4.724   7.512   9.808 -0.0776  0.7897  1.9496
 1024MOL0     H38177   4.930   7.437  10.021  2.5272  1.1425 -1.5273
 1024MOL0     H38178   4.776   7.522  10.054 -1.2425 -0.2481  0.0026
 1024MOL0     H38179   4.834   7.706   9.915 -1.2011 -1.0883  1.7856
 1024MOL0     H38180   5.006   7.649   9.896 -0.0787  3.8284 -1.4142
 1024MOL0     H38181   4.988   7.639  10.172  1.1294  1.1349 -0.3892
 1024MOL0     H38182   5.042   7.773  10.082  0.6868 -0.1056  0.9712
 1024MOL0     H38183   4.804   7.844  10.079  3.5488  1.9338 -0.2253
 1024MOL0     H38184   4.766   7.707  10.196  1.1833 -0.7130  0.3507
 1024MOL0     H38185   4.948   7.791  10.344  0.2336  0.5451  0.8976
 1024MOL0     H38186   4.968   7.934  10.242 -1.8379  2.1129 -0.3016
 1024MOL0     H38187   4.729   7.855  10.424 -0.1982 -1.3308 -0.9698
 1024MOL0     H38188   4.714   7.987  10.310  1.7352  0.0014 -0.1110
 1024MOL0     H38189   4.900   7.963  10.536  0.6636 -1.4105 -2.2321
 1024MOL0     H38190   4.904   8.100  10.440  0.7328 -2.3207 -2.0645
 1024MOL0     H38191   4.587   8.162  10.399  0.7909  0.7781 -1.3758
 1024MOL0     H38192   4.413   8.296  10.479 -1.0974  0.0266 -0.0240
 1024MOL0     H38193   4.336   8.199  10.612  0.8618 -0.7909  0.9392
 1024MOL0     H38194   4.301   8.411  10.691  0.4393  0.2873  1.9976
 1024MOL0     H38195   4.435   8.349  10.779 -2.1288  0.6486  0.2442
 1024MOL0     H38196   4.459   8.543  10.542 -0.3273 -1.1229 -0.0968
 1024MOL0     H38197   4.593   8.486  10.615 -0.1794 -0.2959 -1.6076
 1024MOL0     H38198   4.367   8.603  10.797  0.1995 -5.7956  1.0248
 1024MOL0     H38199   4.486   8.705  10.715 -3.4711  0.4378 -1.0906
 1024MOL0     H38200   4.694   8.564  11.068  0.5024 -0.6335  0.6586
 1024MOL0     H38201   4.930   8.673  11.109  0.9651  0.7874 -1.0812
 1024MOL0     H38202   5.236   9.011  10.987  0.5323 -0.8126  1.3241
 1024MOL0     H38203   5.471   9.075  11.042 -1.3090  2.1581  3.2942
 1024MOL0     H38204   5.701   8.963  10.975  2.0148 -1.0762 -0.0130
 1024MOL0     H38205   5.666   9.094  11.081 -4.6911 -1.5068 -1.0100
 1024MOL0     H38206   5.896   8.893  11.105 -1.0079  0.6416  0.8755
 1024MOL0     H38207   5.908   9.049  11.020 -0.2952  1.2326  0.9189
 1024MOL0     H38208   5.863   9.178  11.205 -1.0519 -0.6888 -3.0132
 1024MOL0     H38209   5.841   9.030  11.309 -0.2555  0.3685  0.5585
 1024MOL0     H38210   6.077   8.978  11.255  1.2131  0.5630 -1.0058
 1024MOL0     H38211   6.054   9.117  11.365 -1.9337 -1.5124  0.1743
 1024MOL0     H38212   6.077   9.256  11.147 -0.7794  0.1677 -0.6355
 1024MOL0     H38213   6.118   9.116  11.058  1.9128  2.1906 -0.2850
 1024MOL0     H38214   6.287   9.244  11.283  0.4748  0.3961  1.0602
 1024MOL0     H38215   6.328   9.083  11.209 -0.1212  0.2448  0.4115
 1024MOL0     H38216   6.276   9.316  11.018 -2.0135  0.0291  0.8617
 1024MOL0     H38217   6.378   9.170  11.010 -0.3607 -1.2878  2.1971
 1024MOL0     H38218   6.531   9.266  11.168 -2.0529  0.6540  3.3398
 1024MOL0     H38219   6.524   9.369  11.029  1.7614 -0.3843  0.5921
 1024MOL0     H38220   5.501   8.726  11.288 -2.1264  0.3888  2.2742
 1024MOL0     H38221   5.273   8.649  11.223 -2.6708  1.8193  1.7032
 1024MOL0     H38222   4.916   8.811  10.703 -2.5723  1.2931  1.1929
 1024MOL0     H38223   4.692   8.700  10.673  0.4904 -0.7671  0.9594
 1024MOL0     H38224   4.581   7.119   9.871  0.1364  0.6046 -3.9152
 1024MOL0     H38225   4.331   7.108   9.930 -2.1453  1.8580 -2.2199
 1024MOL0     H38226   4.012   7.259  10.177  1.2779  0.3702 -1.1376
 1024MOL0     H38227   3.786   7.263  10.273  1.2895  1.7476  0.2742
 1024MOL0     H38228   3.378   7.312  10.133  0.2139  0.0810 -0.0484
 1024MOL0     H38229   3.468   7.380  10.003  2.3604 -1.3793 -0.4752
 1024MOL0     H38230   3.422   7.568  10.141  0.7078  0.5779 -1.5263
 1024MOL0     H38231   3.588   7.536  10.152 -0.9796  0.3967 -1.6791
 1024MOL0     H38232   3.484   7.571  10.391  2.5222 -0.0788 -1.0893
 1024MOL0     H38233   3.544   7.407  10.369 -1.4100 -2.4218 -2.9714
 1024MOL0     H38234   3.254   7.486  10.338 -0.7094 -1.0185  1.2928
 1024MOL0     H38235   3.319   7.315  10.348  0.1489  0.5910 -0.8799
 1024MOL0     H38236   3.339   7.470  10.750 -0.2478 -0.1685  0.7039
 1024MOL0     H38237   3.618   7.272   9.878 -0.5864  0.5831  0.2756
 1024MOL0     H38238   3.742   7.298   9.706  1.3656  1.5755 -2.2270
 1024MOL0     H38239   3.910   7.349   9.714  2.1877 -1.2320  2.2261
 1024MOL0     H38240   3.876   7.175   9.708  0.4310  0.4256 -1.4620
  11.32135  11.32135  11.32135
